<event>
 5    1  0.6113696E+000  0.8984066E+02  0.7546771E-02  0.1303238E+00
         -2   -1    0    0    0  501 -0.00000000000E+00  0.00000000000E+00  0.78394689810E+02  0.78394689810E+02  0.00000000000E+00 0.  1.
          2   -1    0    0  501    0  0.00000000000E+00 -0.00000000000E+00 -0.25739448405E+02  0.25739448405E+02  0.00000000000E+00 0. -1.
         23    2    1    2    0    0  0.00000000000E+00  0.00000000000E+00  0.52655241404E+02  0.10413413821E+03  0.89840660586E+02 0.  0.
        -13    1    3    3    0    0 -0.25750140192E+02  0.77534021038E+01 -0.15378189707E+02  0.30978600401E+02  0.00000000000E+00 0. -1.
         13    1    3    3    0    0  0.25750140192E+02 -0.77534021038E+01  0.68033431112E+02  0.73155537814E+02  0.00000000000E+00 0.  1.
<mgrwt>
<rscale>  0 0.89840661E+02</rscale>
<asrwt>0</asrwt>
<pdfrwt beam="2">  1        2 0.39599152E-02 0.89840661E+02</pdfrwt>
<pdfrwt beam="1">  1       -2 0.12060721E-01 0.89840661E+02</pdfrwt>
<totfact> 0.88709293E+04</totfact>
</mgrwt>
</event>
<event>
 5    1  0.6113696E+000  0.9005968E+02  0.7546771E-02  0.1302707E+00
         -1   -1    0    0    0  501 -0.00000000000E+00  0.00000000000E+00  0.45703701406E+02  0.45703701406E+02  0.00000000000E+00 0.  1.
          1   -1    0    0  501    0  0.00000000000E+00 -0.00000000000E+00 -0.44365917282E+02  0.44365917282E+02  0.00000000000E+00 0. -1.
         23    2    1    2    0    0  0.00000000000E+00  0.00000000000E+00  0.13377841246E+01  0.90069618688E+02  0.90059683235E+02 0.  0.
        -13    1    3    3    0    0 -0.32182726354E+02 -0.15099228051E+02  0.28311986066E+02  0.45445386105E+02  0.00000000000E+00 0.  1.
         13    1    3    3    0    0  0.32182726354E+02  0.15099228051E+02 -0.26974201941E+02  0.44624232583E+02  0.00000000000E+00 0. -1.
<mgrwt>
<rscale>  0 0.90059683E+02</rscale>
<asrwt>0</asrwt>
<pdfrwt beam="2">  1        1 0.68255258E-02 0.90059683E+02</pdfrwt>
<pdfrwt beam="1">  1       -1 0.70313387E-02 0.90059683E+02</pdfrwt>
<totfact> 0.95335903E+04</totfact>
</mgrwt>
</event>
<event>
 5    1  0.6113696E+000  0.9150710E+02  0.7546771E-02  0.1299243E+00
          1   -1    0    0  501    0  0.00000000000E+00  0.00000000000E+00  0.26011515350E+03  0.26011515350E+03  0.00000000000E+00 0. -1.
         -1   -1    0    0    0  501 -0.00000000000E+00 -0.00000000000E+00 -0.80479247897E+01  0.80479247897E+01  0.00000000000E+00 0.  1.
         23    2    1    2    0    0  0.00000000000E+00  0.00000000000E+00  0.25206722871E+03  0.26816307829E+03  0.91507096819E+02 0.  0.
        -13    1    3    3    0    0 -0.27699054215E+02 -0.35548553383E+02  0.10287512545E+03  0.11231308334E+03  0.00000000000E+00 0. -1.
         13    1    3    3    0    0  0.27699054215E+02  0.35548553383E+02  0.14919210326E+03  0.15584999496E+03  0.00000000000E+00 0.  1.
<mgrwt>
<rscale>  0 0.91507097E+02</rscale>
<asrwt>0</asrwt>
<pdfrwt beam="1">  1        1 0.40017709E-01 0.91507097E+02</pdfrwt>
<pdfrwt beam="2">  1       -1 0.12381425E-02 0.91507097E+02</pdfrwt>
<totfact> 0.12343218E+05</totfact>
</mgrwt>
</event>
<event>
 5    1  0.6113696E+000  0.8772706E+02  0.7546771E-02  0.1308451E+00
         -4   -1    0    0    0  501 -0.00000000000E+00  0.00000000000E+00  0.29354127085E+02  0.29354127085E+02  0.00000000000E+00 0.  1.
          4   -1    0    0  501    0  0.00000000000E+00 -0.00000000000E+00 -0.65544758981E+02  0.65544758981E+02  0.00000000000E+00 0. -1.
         23    2    1    2    0    0  0.00000000000E+00  0.00000000000E+00 -0.36190631897E+02  0.94898886066E+02  0.87727058194E+02 0.  0.
        -13    1    3    3    0    0 -0.80862715898E+01 -0.42174940208E+02 -0.84261377421E+01  0.43762005975E+02  0.00000000000E+00 0.  1.
         13    1    3    3    0    0  0.80862715898E+01  0.42174940208E+02 -0.27764494155E+02  0.51136880091E+02  0.00000000000E+00 0. -1.
<mgrwt>
<rscale>  0 0.87727058E+02</rscale>
<asrwt>0</asrwt>
<pdfrwt beam="2">  1        4 0.10083809E-01 0.87727058E+02</pdfrwt>
<pdfrwt beam="1">  1       -4 0.45160196E-02 0.87727058E+02</pdfrwt>
<totfact> 0.29717733E+04</totfact>
</mgrwt>
</event>
<event>
 5    1  0.6113696E+000  0.8972988E+02  0.7546771E-02  0.1303507E+00
          2   -1    0    0  501    0  0.00000000000E+00  0.00000000000E+00  0.10414788473E+02  0.10414788473E+02  0.00000000000E+00 0. -1.
         -2   -1    0    0    0  501 -0.00000000000E+00 -0.00000000000E+00 -0.19326968875E+03  0.19326968875E+03  0.00000000000E+00 0.  1.
         23    2    1    2    0    0  0.00000000000E+00  0.00000000000E+00 -0.18285490027E+03  0.20368447722E+03  0.89729881902E+02 0.  0.
        -13    1    3    3    0    0  0.44544285312E+02 -0.51508701625E+01 -0.88108232157E+02  0.98862456935E+02  0.00000000000E+00 0.  1.
         13    1    3    3    0    0 -0.44544285312E+02  0.51508701625E+01 -0.94746668118E+02  0.10482202029E+03  0.00000000000E+00 0. -1.
<mgrwt>
<rscale>  0 0.89729882E+02</rscale>
<asrwt>0</asrwt>
<pdfrwt beam="1">  1        2 0.16022752E-02 0.89729882E+02</pdfrwt>
<pdfrwt beam="2">  1       -2 0.29733798E-01 0.89729882E+02</pdfrwt>
<totfact> 0.65871781E+04</totfact>
</mgrwt>
</event>
<event>
 5    1  0.6113696E+000  0.9166452E+02  0.7546771E-02  0.1298870E+00
         -2   -1    0    0    0  501 -0.00000000000E+00  0.00000000000E+00  0.17979338275E+02  0.17979338275E+02  0.00000000000E+00 0. -1.
          2   -1    0    0  501    0  0.00000000000E+00 -0.00000000000E+00 -0.11683390281E+03  0.11683390281E+03  0.00000000000E+00 0.  1.
         23    2    1    2    0    0  0.00000000000E+00  0.00000000000E+00 -0.98854564536E+02  0.13481324109E+03  0.91664524450E+02 0.  0.
        -13    1    3    3    0    0  0.27814355271E+02 -0.31517098271E+02 -0.76290874091E+02  0.87104898325E+02  0.00000000000E+00 0. -1.
         13    1    3    3    0    0 -0.27814355271E+02  0.31517098271E+02 -0.22563690444E+02  0.47708342761E+02  0.00000000000E+00 0.  1.
<mgrwt>
<rscale>  0 0.91664524E+02</rscale>
<asrwt>0</asrwt>
<pdfrwt beam="2">  1        2 0.17974446E-01 0.91664524E+02</pdfrwt>
<pdfrwt beam="1">  1       -2 0.27660521E-02 0.91664524E+02</pdfrwt>
<totfact> 0.12689265E+05</totfact>
</mgrwt>
</event>
<event>
 5    1  0.6113696E+000  0.9460037E+02  0.7546771E-02  0.1292079E+00
         -2   -1    0    0    0  501 -0.00000000000E+00  0.00000000000E+00  0.14319321003E+03  0.14319321003E+03  0.00000000000E+00 0.  1.
          2   -1    0    0  501    0  0.00000000000E+00 -0.00000000000E+00 -0.15624395067E+02  0.15624395067E+02  0.00000000000E+00 0. -1.
         23    2    1    2    0    0  0.00000000000E+00  0.00000000000E+00  0.12756881497E+03  0.15881760510E+03  0.94600365420E+02 0.  0.
        -13    1    3    3    0    0 -0.20282402454E+02  0.41755769028E+02  0.79022677635E+02  0.91648806195E+02  0.00000000000E+00 0.  1.
         13    1    3    3    0    0  0.20282402454E+02 -0.41755769028E+02  0.48546137331E+02  0.67168798904E+02  0.00000000000E+00 0. -1.
<mgrwt>
<rscale>  0 0.94600365E+02</rscale>
<asrwt>0</asrwt>
<pdfrwt beam="2">  1        2 0.24037532E-02 0.94600365E+02</pdfrwt>
<pdfrwt beam="1">  1       -2 0.22029724E-01 0.94600365E+02</pdfrwt>
<totfact> 0.64707998E+04</totfact>
</mgrwt>
</event>
<event>
 5    1  0.6113696E+000  0.9209641E+02  0.7546771E-02  0.1297853E+00
         -2   -1    0    0    0  501 -0.00000000000E+00  0.00000000000E+00  0.26330135967E+02  0.26330135967E+02  0.00000000000E+00 0.  1.
          2   -1    0    0  501    0  0.00000000000E+00 -0.00000000000E+00 -0.80532702483E+02  0.80532702483E+02  0.00000000000E+00 0. -1.
         23    2    1    2    0    0  0.00000000000E+00  0.00000000000E+00 -0.54202566516E+02  0.10686283845E+03  0.92096406144E+02 0.  0.
        -13    1    3    3    0    0 -0.10463408628E+01  0.42912112955E+02 -0.77583371508E+01  0.43620362938E+02  0.00000000000E+00 0.  1.
         13    1    3    3    0    0  0.10463408628E+01 -0.42912112955E+02 -0.46444229366E+02  0.63242475512E+02  0.00000000000E+00 0. -1.
<mgrwt>
<rscale>  0 0.92096406E+02</rscale>
<asrwt>0</asrwt>
<pdfrwt beam="2">  1        2 0.12389646E-01 0.92096406E+02</pdfrwt>
<pdfrwt beam="1">  1       -2 0.40507902E-02 0.92096406E+02</pdfrwt>
<totfact> 0.11190460E+05</totfact>
</mgrwt>
</event>
<event>
 5    1  0.6113696E+000  0.9071654E+02  0.7546771E-02  0.1301126E+00
          1   -1    0    0  501    0  0.00000000000E+00  0.00000000000E+00  0.63648449584E+02  0.63648449584E+02  0.00000000000E+00 0. -1.
         -1   -1    0    0    0  501 -0.00000000000E+00 -0.00000000000E+00 -0.32323999304E+02  0.32323999304E+02  0.00000000000E+00 0.  1.
         23    2    1    2    0    0  0.00000000000E+00  0.00000000000E+00  0.31324450280E+02  0.95972448887E+02  0.90716535208E+02 0.  0.
        -13    1    3    3    0    0 -0.30827501175E+02  0.17787420251E+02  0.45409758943E+02  0.57695522835E+02  0.00000000000E+00 0. -1.
         13    1    3    3    0    0  0.30827501175E+02 -0.17787420251E+02 -0.14085308663E+02  0.38276926053E+02  0.00000000000E+00 0.  1.
<mgrwt>
<rscale>  0 0.90716535E+02</rscale>
<asrwt>0</asrwt>
<pdfrwt beam="1">  1        1 0.97920691E-02 0.90716535E+02</pdfrwt>
<pdfrwt beam="2">  1       -1 0.49729230E-02 0.90716535E+02</pdfrwt>
<totfact> 0.98609361E+04</totfact>
</mgrwt>
</event>
<event>
 5    1  0.6113696E+000  0.9457547E+02  0.7546771E-02  0.1292135E+00
          2   -1    0    0  501    0  0.00000000000E+00  0.00000000000E+00  0.85927193139E+02  0.85927193139E+02  0.00000000000E+00 0.  1.
         -2   -1    0    0    0  501 -0.00000000000E+00 -0.00000000000E+00 -0.26023543418E+02  0.26023543418E+02  0.00000000000E+00 0. -1.
         23    2    1    2    0    0  0.00000000000E+00  0.00000000000E+00  0.59903649721E+02  0.11195073656E+03  0.94575473384E+02 0.  0.
        -13    1    3    3    0    0 -0.80884355574E+01 -0.29539563016E+02  0.72600554320E+02  0.78796250295E+02  0.00000000000E+00 0.  1.
         13    1    3    3    0    0  0.80884355574E+01  0.29539563016E+02 -0.12696904598E+02  0.33154486263E+02  0.00000000000E+00 0. -1.
<mgrwt>
<rscale>  0 0.94575473E+02</rscale>
<asrwt>0</asrwt>
<pdfrwt beam="1">  1        2 0.13219568E-01 0.94575473E+02</pdfrwt>
<pdfrwt beam="2">  1       -2 0.40036221E-02 0.94575473E+02</pdfrwt>
<totfact> 0.10590691E+05</totfact>
</mgrwt>
</event>
<event>
 5    1  0.6113696E+000  0.8974879E+02  0.7546771E-02  0.1303461E+00
          4   -1    0    0  501    0  0.00000000000E+00  0.00000000000E+00  0.58179498452E+01  0.58179498452E+01  0.00000000000E+00 0. -1.
         -4   -1    0    0    0  501 -0.00000000000E+00 -0.00000000000E+00 -0.34612045506E+03  0.34612045506E+03  0.00000000000E+00 0.  1.
         23    2    1    2    0    0  0.00000000000E+00  0.00000000000E+00 -0.34030250521E+03  0.35193840490E+03  0.89748792704E+02 0.  0.
        -13    1    3    3    0    0 -0.44260877883E+02 -0.10981050140E+01 -0.14147416962E+03  0.14824025033E+03  0.00000000000E+00 0. -1.
         13    1    3    3    0    0  0.44260877883E+02  0.10981050140E+01 -0.19882833559E+03  0.20369815458E+03  0.00000000000E+00 0.  1.
<mgrwt>
<rscale>  0 0.89748793E+02</rscale>
<asrwt>0</asrwt>
<pdfrwt beam="1">  1        4 0.89506905E-03 0.89748793E+02</pdfrwt>
<pdfrwt beam="2">  1       -4 0.53249310E-01 0.89748793E+02</pdfrwt>
<totfact> 0.17041859E+04</totfact>
</mgrwt>
</event>
<event>
 5    1  0.6113696E+000  0.9424405E+02  0.7546771E-02  0.1292888E+00
         -1   -1    0    0    0  501 -0.00000000000E+00  0.00000000000E+00  0.31635025854E+02  0.31635025854E+02  0.00000000000E+00 0.  1.
          1   -1    0    0  501    0  0.00000000000E+00 -0.00000000000E+00 -0.70190718439E+02  0.70190718439E+02  0.00000000000E+00 0. -1.
         23    2    1    2    0    0  0.00000000000E+00  0.00000000000E+00 -0.38555692585E+02  0.10182574429E+03  0.94244048990E+02 0.  0.
        -13    1    3    3    0    0 -0.29861624933E+02 -0.22249424170E+02  0.11919439186E+02  0.39100211637E+02  0.00000000000E+00 0.  1.
         13    1    3    3    0    0  0.29861624933E+02  0.22249424170E+02 -0.50475131772E+02  0.62725532655E+02  0.00000000000E+00 0. -1.
<mgrwt>
<rscale>  0 0.94244049E+02</rscale>
<asrwt>0</asrwt>
<pdfrwt beam="2">  1        1 0.10798572E-01 0.94244049E+02</pdfrwt>
<pdfrwt beam="1">  1       -1 0.48669271E-02 0.94244049E+02</pdfrwt>
<totfact> 0.90073948E+04</totfact>
</mgrwt>
</event>
<event>
 5    1  0.6113696E+000  0.9065547E+02  0.7546771E-02  0.1301272E+00
          3   -1    0    0  501    0  0.00000000000E+00  0.00000000000E+00  0.68919358678E+02  0.68919358678E+02  0.00000000000E+00 0. -1.
         -3   -1    0    0    0  501 -0.00000000000E+00 -0.00000000000E+00 -0.29811704272E+02  0.29811704272E+02  0.00000000000E+00 0.  1.
         23    2    1    2    0    0  0.00000000000E+00  0.00000000000E+00  0.39107654406E+02  0.98731062949E+02  0.90655469542E+02 0.  0.
        -13    1    3    3    0    0  0.33379321953E+02 -0.64259247019E+01 -0.13102813154E+02  0.36430143492E+02  0.00000000000E+00 0.  1.
         13    1    3    3    0    0 -0.33379321953E+02  0.64259247019E+01  0.52210467560E+02  0.62300919457E+02  0.00000000000E+00 0. -1.
<mgrwt>
<rscale>  0 0.90655470E+02</rscale>
<asrwt>0</asrwt>
<pdfrwt beam="1">  1        3 0.10602978E-01 0.90655470E+02</pdfrwt>
<pdfrwt beam="2">  1       -3 0.45864161E-02 0.90655470E+02</pdfrwt>
<totfact> 0.35311696E+04</totfact>
</mgrwt>
</event>
<event>
 5    1  0.6113696E+000  0.9181644E+02  0.7546771E-02  0.1298512E+00
          2   -1    0    0  501    0  0.00000000000E+00  0.00000000000E+00  0.16976616222E+03  0.16976616222E+03  0.00000000000E+00 0. -1.
         -2   -1    0    0    0  501 -0.00000000000E+00 -0.00000000000E+00 -0.12414515044E+02  0.12414515044E+02  0.00000000000E+00 0.  1.
         23    2    1    2    0    0  0.00000000000E+00  0.00000000000E+00  0.15735164717E+03  0.18218067726E+03  0.91816438067E+02 0.  0.
        -13    1    3    3    0    0  0.13515841351E+02 -0.34331996410E+02  0.24474526816E+02  0.44276025204E+02  0.00000000000E+00 0.  1.
         13    1    3    3    0    0 -0.13515841351E+02  0.34331996410E+02  0.13287712035E+03  0.13790465206E+03  0.00000000000E+00 0. -1.
<mgrwt>
<rscale>  0 0.91816438E+02</rscale>
<asrwt>0</asrwt>
<pdfrwt beam="1">  1        2 0.26117869E-01 0.91816438E+02</pdfrwt>
<pdfrwt beam="2">  1       -2 0.19099255E-02 0.91816438E+02</pdfrwt>
<totfact> 0.14317271E+05</totfact>
</mgrwt>
</event>
<event>
 5    1  0.6113696E+000  0.9260472E+02  0.7546771E-02  0.1296664E+00
          3   -1    0    0  501    0  0.00000000000E+00  0.00000000000E+00  0.25958662790E+03  0.25958662790E+03  0.00000000000E+00 0. -1.
         -3   -1    0    0    0  501 -0.00000000000E+00 -0.00000000000E+00 -0.82589332010E+01  0.82589332010E+01  0.00000000000E+00 0.  1.
         23    2    1    2    0    0  0.00000000000E+00  0.00000000000E+00  0.25132769470E+03  0.26784556110E+03  0.92604721688E+02 0.  0.
        -13    1    3    3    0    0  0.39736629987E+02 -0.21687569488E+02  0.15378938869E+03  0.16031383754E+03  0.00000000000E+00 0. -1.
         13    1    3    3    0    0 -0.39736629987E+02  0.21687569488E+02  0.97538306008E+02  0.10753172356E+03  0.00000000000E+00 0.  1.
<mgrwt>
<rscale>  0 0.92604722E+02</rscale>
<asrwt>0</asrwt>
<pdfrwt beam="1">  1        3 0.39936398E-01 0.92604722E+02</pdfrwt>
<pdfrwt beam="2">  1       -3 0.12706053E-02 0.92604722E+02</pdfrwt>
<totfact> 0.24292617E+04</totfact>
</mgrwt>
</event>
<event>
 5    1  0.6113696E+000  0.9096356E+02  0.7546771E-02  0.1300535E+00
         -4   -1    0    0    0  501 -0.00000000000E+00  0.00000000000E+00  0.13566123121E+02  0.13566123121E+02  0.00000000000E+00 0.  1.
          4   -1    0    0  501    0  0.00000000000E+00 -0.00000000000E+00 -0.15248219712E+03  0.15248219712E+03  0.00000000000E+00 0. -1.
         23    2    1    2    0    0  0.00000000000E+00  0.00000000000E+00 -0.13891607400E+03  0.16604832024E+03  0.90963558854E+02 0.  0.
        -13    1    3    3    0    0  0.14296857201E+02 -0.40499061435E+02 -0.96779795806E+02  0.10588155165E+03  0.00000000000E+00 0. -1.
         13    1    3    3    0    0 -0.14296857201E+02  0.40499061435E+02 -0.42136278191E+02  0.60166768592E+02  0.00000000000E+00 0.  1.
<mgrwt>
<rscale>  0 0.90963559E+02</rscale>
<asrwt>0</asrwt>
<pdfrwt beam="2">  1        4 0.23458798E-01 0.90963559E+02</pdfrwt>
<pdfrwt beam="1">  1       -4 0.20870960E-02 0.90963559E+02</pdfrwt>
<totfact> 0.23037054E+04</totfact>
</mgrwt>
</event>
<event>
 5    1  0.6113696E+000  0.9084076E+02  0.7546771E-02  0.1300828E+00
          1   -1    0    0  501    0  0.00000000000E+00  0.00000000000E+00  0.68354336582E+02  0.68354336582E+02  0.00000000000E+00 0. -1.
         -1   -1    0    0    0  501 -0.00000000000E+00 -0.00000000000E+00 -0.30181127029E+02  0.30181127029E+02  0.00000000000E+00 0.  1.
         23    2    1    2    0    0  0.00000000000E+00  0.00000000000E+00  0.38173209553E+02  0.98535463611E+02  0.90840759913E+02 0.  0.
        -13    1    3    3    0    0  0.13094559144E+02 -0.18280837370E+02 -0.23719482811E+02  0.32684405440E+02  0.00000000000E+00 0.  1.
         13    1    3    3    0    0 -0.13094559144E+02  0.18280837370E+02  0.61892692364E+02  0.65851058171E+02  0.00000000000E+00 0. -1.
<mgrwt>
<rscale>  0 0.90840760E+02</rscale>
<asrwt>0</asrwt>
<pdfrwt beam="1">  1        1 0.10516052E-01 0.90840760E+02</pdfrwt>
<pdfrwt beam="2">  1       -1 0.46432503E-02 0.90840760E+02</pdfrwt>
<totfact> 0.99312748E+04</totfact>
</mgrwt>
</event>
<event>
 5    1  0.6113696E+000  0.9145738E+02  0.7546771E-02  0.1299360E+00
         -4   -1    0    0    0  501 -0.00000000000E+00  0.00000000000E+00  0.51915347666E+02  0.51915347666E+02  0.00000000000E+00 0.  1.
          4   -1    0    0  501    0  0.00000000000E+00 -0.00000000000E+00 -0.40279282934E+02  0.40279282934E+02  0.00000000000E+00 0. -1.
         23    2    1    2    0    0  0.00000000000E+00  0.00000000000E+00  0.11636064732E+02  0.92194630599E+02  0.91457377553E+02 0.  0.
        -13    1    3    3    0    0 -0.23093249762E+02 -0.39421624914E+02  0.38658569711E+01  0.45850927423E+02  0.00000000000E+00 0. -1.
         13    1    3    3    0    0  0.23093249762E+02  0.39421624914E+02  0.77702077608E+01  0.46343703176E+02  0.00000000000E+00 0.  1.
<mgrwt>
<rscale>  0 0.91457378E+02</rscale>
<asrwt>0</asrwt>
<pdfrwt beam="2">  1        4 0.61968127E-02 0.91457378E+02</pdfrwt>
<pdfrwt beam="1">  1       -4 0.79869766E-02 0.91457378E+02</pdfrwt>
<totfact> 0.26726826E+04</totfact>
</mgrwt>
</event>
<event>
 5    1  0.6113696E+000  0.9173853E+02  0.7546771E-02  0.1298695E+00
          2   -1    0    0  501    0  0.00000000000E+00  0.00000000000E+00  0.99756402844E+01  0.99756402844E+01  0.00000000000E+00 0.  1.
         -2   -1    0    0    0  501 -0.00000000000E+00 -0.00000000000E+00 -0.21091271953E+03  0.21091271953E+03  0.00000000000E+00 0. -1.
         23    2    1    2    0    0  0.00000000000E+00  0.00000000000E+00 -0.20093707925E+03  0.22088835982E+03  0.91738528906E+02 0.  0.
        -13    1    3    3    0    0 -0.69885053912E+01  0.31832653546E+02 -0.22750831520E+02  0.39746161754E+02  0.00000000000E+00 0.  1.
         13    1    3    3    0    0  0.69885053912E+01 -0.31832653546E+02 -0.17818624773E+03  0.18114219806E+03  0.00000000000E+00 0. -1.
<mgrwt>
<rscale>  0 0.91738529E+02</rscale>
<asrwt>0</asrwt>
<pdfrwt beam="1">  1        2 0.15347138E-02 0.91738529E+02</pdfrwt>
<pdfrwt beam="2">  1       -2 0.32448113E-01 0.91738529E+02</pdfrwt>
<totfact> 0.59929060E+04</totfact>
</mgrwt>
</event>
<event>
 5    1  0.6113696E+000  0.9155119E+02  0.7546771E-02  0.1299138E+00
          3   -1    0    0  501    0  0.00000000000E+00  0.00000000000E+00  0.10735920799E+03  0.10735920799E+03  0.00000000000E+00 0. -1.
         -3   -1    0    0    0  501 -0.00000000000E+00 -0.00000000000E+00 -0.19517701810E+02  0.19517701810E+02  0.00000000000E+00 0.  1.
         23    2    1    2    0    0  0.00000000000E+00  0.00000000000E+00  0.87841506182E+02  0.12687690980E+03  0.91551188046E+02 0.  0.
        -13    1    3    3    0    0 -0.23544609774E+02 -0.18574623054E+02 -0.40074793113E+01  0.30255993810E+02  0.00000000000E+00 0.  1.
         13    1    3    3    0    0  0.23544609774E+02  0.18574623054E+02  0.91848985494E+02  0.96620915992E+02  0.00000000000E+00 0. -1.
<mgrwt>
<rscale>  0 0.91551188E+02</rscale>
<asrwt>0</asrwt>
<pdfrwt beam="1">  1        3 0.16516801E-01 0.91551188E+02</pdfrwt>
<pdfrwt beam="2">  1       -3 0.30027234E-02 0.91551188E+02</pdfrwt>
<totfact> 0.32419232E+04</totfact>
</mgrwt>
</event>
<event>
 5    1  0.6113696E+000  0.9200861E+02  0.7546771E-02  0.1298059E+00
         -2   -1    0    0    0  501 -0.00000000000E+00  0.00000000000E+00  0.18296854032E+02  0.18296854032E+02  0.00000000000E+00 0.  1.
          2   -1    0    0  501    0  0.00000000000E+00 -0.00000000000E+00 -0.11566995415E+03  0.11566995415E+03  0.00000000000E+00 0. -1.
         23    2    1    2    0    0  0.00000000000E+00  0.00000000000E+00 -0.97373100118E+02  0.13396680818E+03  0.92008614097E+02 0.  0.
        -13    1    3    3    0    0 -0.45977786762E+02 -0.67604690717E-01 -0.46414581857E+02  0.65332035441E+02  0.00000000000E+00 0. -1.
         13    1    3    3    0    0  0.45977786762E+02  0.67604690717E-01 -0.50958518261E+02  0.68634772741E+02  0.00000000000E+00 0.  1.
<mgrwt>
<rscale>  0 0.92008614E+02</rscale>
<asrwt>0</asrwt>
<pdfrwt beam="2">  1        2 0.17795377E-01 0.92008614E+02</pdfrwt>
<pdfrwt beam="1">  1       -2 0.28149007E-02 0.92008614E+02</pdfrwt>
<totfact> 0.12519619E+05</totfact>
</mgrwt>
</event>
<event>
 5    1  0.6113696E+000  0.9090522E+02  0.7546771E-02  0.1300674E+00
         -3   -1    0    0    0  501 -0.00000000000E+00  0.00000000000E+00  0.12083995882E+03  0.12083995882E+03  0.00000000000E+00 0.  1.
          3   -1    0    0  501    0  0.00000000000E+00 -0.00000000000E+00 -0.17096493466E+02  0.17096493466E+02  0.00000000000E+00 0. -1.
         23    2    1    2    0    0  0.00000000000E+00  0.00000000000E+00  0.10374346536E+03  0.13793645229E+03  0.90905215835E+02 0.  0.
        -13    1    3    3    0    0  0.38903100520E+02 -0.19975041438E+02  0.70670298298E+02  0.83106826266E+02  0.00000000000E+00 0.  1.
         13    1    3    3    0    0 -0.38903100520E+02  0.19975041438E+02  0.33073167060E+02  0.54829626024E+02  0.00000000000E+00 0. -1.
<mgrwt>
<rscale>  0 0.90905216E+02</rscale>
<asrwt>0</asrwt>
<pdfrwt beam="2">  1        3 0.26302298E-02 0.90905216E+02</pdfrwt>
<pdfrwt beam="1">  1       -3 0.18590762E-01 0.90905216E+02</pdfrwt>
<totfact> 0.32323378E+04</totfact>
</mgrwt>
</event>
<event>
 5    1  0.6113696E+000  0.9055803E+02  0.7546771E-02  0.1301506E+00
          4   -1    0    0  501    0  0.00000000000E+00  0.00000000000E+00  0.11335019530E+02  0.11335019530E+02  0.00000000000E+00 0. -1.
         -4   -1    0    0    0  501 -0.00000000000E+00 -0.00000000000E+00 -0.18087213160E+03  0.18087213160E+03  0.00000000000E+00 0.  1.
         23    2    1    2    0    0  0.00000000000E+00  0.00000000000E+00 -0.16953711207E+03  0.19220715113E+03  0.90558028782E+02 0.  0.
        -13    1    3    3    0    0  0.68047532528E+01 -0.44147040620E+02 -0.69038842220E+02  0.82229116483E+02  0.00000000000E+00 0. -1.
         13    1    3    3    0    0 -0.68047532528E+01  0.44147040620E+02 -0.10049826985E+03  0.10997803465E+03  0.00000000000E+00 0.  1.
<mgrwt>
<rscale>  0 0.90558029E+02</rscale>
<asrwt>0</asrwt>
<pdfrwt beam="1">  1        4 0.17438492E-02 0.90558029E+02</pdfrwt>
<pdfrwt beam="2">  1       -4 0.27826481E-01 0.90558029E+02</pdfrwt>
<totfact> 0.22115346E+04</totfact>
</mgrwt>
</event>
<event>
 5    1  0.6113696E+000  0.9098337E+02  0.7546771E-02  0.1300488E+00
         -1   -1    0    0    0  501 -0.00000000000E+00  0.00000000000E+00  0.24422450748E+02  0.24422450748E+02  0.00000000000E+00 0.  1.
          1   -1    0    0  501    0  0.00000000000E+00 -0.00000000000E+00 -0.84737337740E+02  0.84737337740E+02  0.00000000000E+00 0. -1.
         23    2    1    2    0    0  0.00000000000E+00  0.00000000000E+00 -0.60314886992E+02  0.10915978849E+03  0.90983371173E+02 0.  0.
        -13    1    3    3    0    0 -0.48861546830E+01  0.34991802201E+02 -0.64538815907E+02  0.73576895066E+02  0.00000000000E+00 0. -1.
         13    1    3    3    0    0  0.48861546830E+01 -0.34991802201E+02  0.42239289153E+01  0.35582893423E+02  0.00000000000E+00 0.  1.
<mgrwt>
<rscale>  0 0.90983371E+02</rscale>
<asrwt>0</asrwt>
<pdfrwt beam="2">  1        1 0.13036513E-01 0.90983371E+02</pdfrwt>
<pdfrwt beam="1">  1       -1 0.37573001E-02 0.90983371E+02</pdfrwt>
<totfact> 0.10226250E+05</totfact>
</mgrwt>
</event>
<event>
 5    1  0.6113696E+000  0.9643071E+02  0.7546771E-02  0.1287986E+00
          1   -1    0    0  501    0  0.00000000000E+00  0.00000000000E+00  0.16349352479E+02  0.16349352479E+02  0.00000000000E+00 0. -1.
         -1   -1    0    0    0  501 -0.00000000000E+00 -0.00000000000E+00 -0.14219036316E+03  0.14219036316E+03  0.00000000000E+00 0.  1.
         23    2    1    2    0    0  0.00000000000E+00  0.00000000000E+00 -0.12584101068E+03  0.15853971564E+03  0.96430708106E+02 0.  0.
        -13    1    3    3    0    0  0.42729284544E+02  0.17389006017E+02 -0.39871062352E+02  0.60974346253E+02  0.00000000000E+00 0.  1.
         13    1    3    3    0    0 -0.42729284544E+02 -0.17389006017E+02 -0.85969948328E+02  0.97565369386E+02  0.00000000000E+00 0. -1.
<mgrwt>
<rscale>  0 0.96430708E+02</rscale>
<asrwt>0</asrwt>
<pdfrwt beam="1">  1        1 0.25152849E-02 0.96430708E+02</pdfrwt>
<pdfrwt beam="2">  1       -1 0.21875441E-01 0.96430708E+02</pdfrwt>
<totfact> 0.65457032E+04</totfact>
</mgrwt>
</event>
<event>
 5    1  0.6113696E+000  0.9097374E+02  0.7546771E-02  0.1300511E+00
          2   -1    0    0  501    0  0.00000000000E+00  0.00000000000E+00  0.97408961592E+02  0.97408961592E+02  0.00000000000E+00 0.  1.
         -2   -1    0    0    0  501 -0.00000000000E+00 -0.00000000000E+00 -0.21240912380E+02  0.21240912380E+02  0.00000000000E+00 0. -1.
         23    2    1    2    0    0  0.00000000000E+00  0.00000000000E+00  0.76168049212E+02  0.11864987397E+03  0.90973737269E+02 0.  0.
        -13    1    3    3    0    0 -0.26709245169E+02  0.33541369060E+02  0.57891361745E+02  0.72040384373E+02  0.00000000000E+00 0.  1.
         13    1    3    3    0    0  0.26709245169E+02 -0.33541369060E+02  0.18276687467E+02  0.46609489599E+02  0.00000000000E+00 0. -1.
<mgrwt>
<rscale>  0 0.90973737E+02</rscale>
<asrwt>0</asrwt>
<pdfrwt beam="1">  1        2 0.14985994E-01 0.90973737E+02</pdfrwt>
<pdfrwt beam="2">  1       -2 0.32678327E-02 0.90973737E+02</pdfrwt>
<totfact> 0.12245345E+05</totfact>
</mgrwt>
</event>
<event>
 5    1  0.6113696E+000  0.9178627E+02  0.7546771E-02  0.1298583E+00
          1   -1    0    0  501    0  0.00000000000E+00  0.00000000000E+00  0.69576939082E+02  0.69576939082E+02  0.00000000000E+00 0. -1.
         -1   -1    0    0    0  501 -0.00000000000E+00 -0.00000000000E+00 -0.30271231579E+02  0.30271231579E+02  0.00000000000E+00 0.  1.
         23    2    1    2    0    0  0.00000000000E+00  0.00000000000E+00  0.39305707504E+02  0.99848170661E+02  0.91786265541E+02 0.  0.
        -13    1    3    3    0    0 -0.11568382906E+02 -0.23993045597E+02 -0.21001942511E+02  0.33920131328E+02  0.00000000000E+00 0.  1.
         13    1    3    3    0    0  0.11568382906E+02  0.23993045597E+02  0.60307650014E+02  0.65928039333E+02  0.00000000000E+00 0. -1.
<mgrwt>
<rscale>  0 0.91786266E+02</rscale>
<asrwt>0</asrwt>
<pdfrwt beam="1">  1        1 0.10704144E-01 0.91786266E+02</pdfrwt>
<pdfrwt beam="2">  1       -1 0.46571126E-02 0.91786266E+02</pdfrwt>
<totfact> 0.96777229E+04</totfact>
</mgrwt>
</event>
<event>
 5    1  0.6113696E+000  0.9165294E+02  0.7546771E-02  0.1298898E+00
         -1   -1    0    0    0  501 -0.00000000000E+00  0.00000000000E+00  0.83175606301E+01  0.83175606301E+01  0.00000000000E+00 0.  1.
          1   -1    0    0  501    0  0.00000000000E+00 -0.00000000000E+00 -0.25248572366E+03  0.25248572366E+03  0.00000000000E+00 0. -1.
         23    2    1    2    0    0  0.00000000000E+00  0.00000000000E+00 -0.24416816303E+03  0.26080328429E+03  0.91652939173E+02 0.  0.
        -13    1    3    3    0    0 -0.40311147540E+02 -0.14542406073E+02 -0.75884786759E+02  0.87149131102E+02  0.00000000000E+00 0.  1.
         13    1    3    3    0    0  0.40311147540E+02  0.14542406073E+02 -0.16828337627E+03  0.17365415319E+03  0.00000000000E+00 0. -1.
<mgrwt>
<rscale>  0 0.91652939E+02</rscale>
<asrwt>0</asrwt>
<pdfrwt beam="2">  1        1 0.38843949E-01 0.91652939E+02</pdfrwt>
<pdfrwt beam="1">  1       -1 0.12796250E-02 0.91652939E+02</pdfrwt>
<totfact> 0.12219492E+05</totfact>
</mgrwt>
</event>
<event>
 5    1  0.6113696E+000  0.9223199E+02  0.7546771E-02  0.1297535E+00
         -3   -1    0    0    0  501 -0.00000000000E+00  0.00000000000E+00  0.38070253725E+02  0.38070253725E+02  0.00000000000E+00 0.  1.
          3   -1    0    0  501    0  0.00000000000E+00 -0.00000000000E+00 -0.55862115949E+02  0.55862115949E+02  0.00000000000E+00 0. -1.
         23    2    1    2    0    0  0.00000000000E+00  0.00000000000E+00 -0.17791862224E+02  0.93932369674E+02  0.92231988546E+02 0.  0.
        -13    1    3    3    0    0 -0.30753863307E+02  0.26598442464E+02 -0.31054992214E+02  0.51163363760E+02  0.00000000000E+00 0. -1.
         13    1    3    3    0    0  0.30753863307E+02 -0.26598442464E+02  0.13263129990E+02  0.42769005914E+02  0.00000000000E+00 0.  1.
<mgrwt>
<rscale>  0 0.92231989E+02</rscale>
<asrwt>0</asrwt>
<pdfrwt beam="2">  1        3 0.85941717E-02 0.92231989E+02</pdfrwt>
<pdfrwt beam="1">  1       -3 0.58569621E-02 0.92231989E+02</pdfrwt>
<totfact> 0.34041774E+04</totfact>
</mgrwt>
</event>
<event>
 5    1  0.6113696E+000  0.9198065E+02  0.7546771E-02  0.1298125E+00
          1   -1    0    0  501    0  0.00000000000E+00  0.00000000000E+00  0.23886417744E+02  0.23886417744E+02  0.00000000000E+00 0. -1.
         -1   -1    0    0    0  501 -0.00000000000E+00 -0.00000000000E+00 -0.88548651995E+02  0.88548651995E+02  0.00000000000E+00 0.  1.
         23    2    1    2    0    0  0.00000000000E+00  0.00000000000E+00 -0.64662234251E+02  0.11243506974E+03  0.91980652145E+02 0.  0.
        -13    1    3    3    0    0  0.38105169609E+02 -0.83757391334E+01 -0.25654586740E+01  0.39099086116E+02  0.00000000000E+00 0. -1.
         13    1    3    3    0    0 -0.38105169609E+02  0.83757391334E+01 -0.62096775577E+02  0.73335983623E+02  0.00000000000E+00 0.  1.
<mgrwt>
<rscale>  0 0.91980652E+02</rscale>
<asrwt>0</asrwt>
<pdfrwt beam="1">  1        1 0.36748335E-02 0.91980652E+02</pdfrwt>
<pdfrwt beam="2">  1       -1 0.13622869E-01 0.91980652E+02</pdfrwt>
<totfact> 0.81325311E+04</totfact>
</mgrwt>
</event>
<event>
 5    1  0.6113696E+000  0.9171325E+02  0.7546771E-02  0.1298755E+00
          1   -1    0    0  501    0  0.00000000000E+00  0.00000000000E+00  0.75636341135E+02  0.75636341135E+02  0.00000000000E+00 0. -1.
         -1   -1    0    0    0  501 -0.00000000000E+00 -0.00000000000E+00 -0.27801848440E+02  0.27801848440E+02  0.00000000000E+00 0.  1.
         23    2    1    2    0    0  0.00000000000E+00  0.00000000000E+00  0.47834492695E+02  0.10343818958E+03  0.91713250794E+02 0.  0.
        -13    1    3    3    0    0 -0.32008309584E+02 -0.31337433669E+02  0.34982963375E+02  0.56836382343E+02  0.00000000000E+00 0.  1.
         13    1    3    3    0    0  0.32008309584E+02  0.31337433669E+02  0.12851529321E+02  0.46601807232E+02  0.00000000000E+00 0. -1.
<mgrwt>
<rscale>  0 0.91713251E+02</rscale>
<asrwt>0</asrwt>
<pdfrwt beam="1">  1        1 0.11636360E-01 0.91713251E+02</pdfrwt>
<pdfrwt beam="2">  1       -1 0.42772075E-02 0.91713251E+02</pdfrwt>
<totfact> 0.98260615E+04</totfact>
</mgrwt>
</event>
<event>
 5    1  0.6113696E+000  0.9150661E+02  0.7546771E-02  0.1299244E+00
          3   -1    0    0  501    0  0.00000000000E+00  0.00000000000E+00  0.24313209198E+02  0.24313209198E+02  0.00000000000E+00 0. -1.
         -3   -1    0    0    0  501 -0.00000000000E+00 -0.00000000000E+00 -0.86099894143E+02  0.86099894143E+02  0.00000000000E+00 0.  1.
         23    2    1    2    0    0  0.00000000000E+00  0.00000000000E+00 -0.61786684945E+02  0.11041310334E+03  0.91506606062E+02 0.  0.
        -13    1    3    3    0    0 -0.37366543055E+02 -0.26354276791E+02 -0.28963404618E+02  0.54126566972E+02  0.00000000000E+00 0. -1.
         13    1    3    3    0    0  0.37366543055E+02  0.26354276791E+02 -0.32823280326E+02  0.56286536369E+02  0.00000000000E+00 0.  1.
<mgrwt>
<rscale>  0 0.91506606E+02</rscale>
<asrwt>0</asrwt>
<pdfrwt beam="1">  1        3 0.37404937E-02 0.91506606E+02</pdfrwt>
<pdfrwt beam="2">  1       -3 0.13246138E-01 0.91506606E+02</pdfrwt>
<totfact> 0.33585129E+04</totfact>
</mgrwt>
</event>
<event>
 5    1  0.6113696E+000  0.9010802E+02  0.7546771E-02  0.1302590E+00
         -3   -1    0    0    0  501 -0.00000000000E+00  0.00000000000E+00  0.17822564534E+03  0.17822564534E+03  0.00000000000E+00 0.  1.
          3   -1    0    0  501    0  0.00000000000E+00 -0.00000000000E+00 -0.11389291019E+02  0.11389291019E+02  0.00000000000E+00 0. -1.
         23    2    1    2    0    0  0.00000000000E+00  0.00000000000E+00  0.16683635432E+03  0.18961493636E+03  0.90108018331E+02 0.  0.
        -13    1    3    3    0    0  0.28365665668E+02 -0.32071692664E+02  0.11292798159E+03  0.12077223806E+03  0.00000000000E+00 0.  1.
         13    1    3    3    0    0 -0.28365665668E+02  0.32071692664E+02  0.53908372725E+02  0.68842698298E+02  0.00000000000E+00 0. -1.
<mgrwt>
<rscale>  0 0.90108018E+02</rscale>
<asrwt>0</asrwt>
<pdfrwt beam="2">  1        3 0.17521987E-02 0.90108018E+02</pdfrwt>
<pdfrwt beam="1">  1       -3 0.27419328E-01 0.90108018E+02</pdfrwt>
<totfact> 0.29981547E+04</totfact>
</mgrwt>
</event>
<event>
 5    1  0.6113696E+000  0.9170751E+02  0.7546771E-02  0.1298769E+00
         -2   -1    0    0    0  501 -0.00000000000E+00  0.00000000000E+00  0.86610005884E+01  0.86610005884E+01  0.00000000000E+00 0. -1.
          2   -1    0    0  501    0  0.00000000000E+00 -0.00000000000E+00 -0.24276256728E+03  0.24276256728E+03  0.00000000000E+00 0.  1.
         23    2    1    2    0    0  0.00000000000E+00  0.00000000000E+00 -0.23410156669E+03  0.25142356787E+03  0.91707507611E+02 0.  0.
        -13    1    3    3    0    0  0.13872806240E+01  0.38616037243E+02 -0.18473196723E+03  0.18873002569E+03  0.00000000000E+00 0.  1.
         13    1    3    3    0    0 -0.13872806240E+01 -0.38616037243E+02 -0.49369599458E+02  0.62693542176E+02  0.00000000000E+00 0. -1.
<mgrwt>
<rscale>  0 0.91707508E+02</rscale>
<asrwt>0</asrwt>
<pdfrwt beam="2">  1        2 0.37348083E-01 0.91707508E+02</pdfrwt>
<pdfrwt beam="1">  1       -2 0.13324618E-02 0.91707508E+02</pdfrwt>
<totfact> 0.16348204E+05</totfact>
</mgrwt>
</event>
<event>
 5    1  0.6113696E+000  0.9931333E+02  0.7546771E-02  0.1281747E+00
         -2   -1    0    0    0  501 -0.00000000000E+00  0.00000000000E+00  0.12112384559E+02  0.12112384559E+02  0.00000000000E+00 0. -1.
          2   -1    0    0  501    0  0.00000000000E+00 -0.00000000000E+00 -0.20357545180E+03  0.20357545180E+03  0.00000000000E+00 0.  1.
         23    2    1    2    0    0  0.00000000000E+00  0.00000000000E+00 -0.19146306724E+03  0.21568783636E+03  0.99313325571E+02 0.  0.
        -13    1    3    3    0    0  0.35028399818E+02  0.84853259910E+01 -0.16991640292E+03  0.17369678619E+03  0.00000000000E+00 0.  1.
         13    1    3    3    0    0 -0.35028399818E+02 -0.84853259910E+01 -0.21546664318E+02  0.41991050168E+02  0.00000000000E+00 0. -1.
<mgrwt>
<rscale>  0 0.99313326E+02</rscale>
<asrwt>0</asrwt>
<pdfrwt beam="2">  1        2 0.31319297E-01 0.99313326E+02</pdfrwt>
<pdfrwt beam="1">  1       -2 0.18634440E-02 0.99313326E+02</pdfrwt>
<totfact> 0.12352177E+05</totfact>
</mgrwt>
</event>
<event>
 5    1  0.6113696E+000  0.9092727E+02  0.7546771E-02  0.1300622E+00
         -3   -1    0    0    0  501 -0.00000000000E+00  0.00000000000E+00  0.13811884603E+02  0.13811884603E+02  0.00000000000E+00 0.  1.
          3   -1    0    0  501    0  0.00000000000E+00 -0.00000000000E+00 -0.14964953082E+03  0.14964953082E+03  0.00000000000E+00 0. -1.
         23    2    1    2    0    0  0.00000000000E+00  0.00000000000E+00 -0.13583764621E+03  0.16346141542E+03  0.90927268750E+02 0.  0.
        -13    1    3    3    0    0  0.37826533521E+02 -0.98738121188E+01 -0.10963990796E+03  0.11640123805E+03  0.00000000000E+00 0.  1.
         13    1    3    3    0    0 -0.37826533521E+02  0.98738121188E+01 -0.26197738259E+02  0.47060177367E+02  0.00000000000E+00 0. -1.
<mgrwt>
<rscale>  0 0.90927269E+02</rscale>
<asrwt>0</asrwt>
<pdfrwt beam="2">  1        3 0.23023005E-01 0.90927269E+02</pdfrwt>
<pdfrwt beam="1">  1       -3 0.21249053E-02 0.90927269E+02</pdfrwt>
<totfact> 0.30730321E+04</totfact>
</mgrwt>
</event>
<event>
 5    1  0.6113696E+000  0.8905576E+02  0.7546771E-02  0.1305155E+00
         -1   -1    0    0    0  501 -0.00000000000E+00  0.00000000000E+00  0.35614017246E+02  0.35614017246E+02  0.00000000000E+00 0.  1.
          1   -1    0    0  501    0  0.00000000000E+00 -0.00000000000E+00 -0.55672796404E+02  0.55672796404E+02  0.00000000000E+00 0. -1.
         23    2    1    2    0    0  0.00000000000E+00  0.00000000000E+00 -0.20058779158E+02  0.91286813649E+02  0.89055756271E+02 0.  0.
        -13    1    3    3    0    0 -0.35074392246E+01  0.13714834212E+02  0.33245950700E+02  0.36134361006E+02  0.00000000000E+00 0.  1.
         13    1    3    3    0    0  0.35074392246E+01 -0.13714834212E+02 -0.53304729858E+02  0.55152452643E+02  0.00000000000E+00 0. -1.
<mgrwt>
<rscale>  0 0.89055756E+02</rscale>
<asrwt>0</asrwt>
<pdfrwt beam="2">  1        1 0.85650456E-02 0.89055756E+02</pdfrwt>
<pdfrwt beam="1">  1       -1 0.54790796E-02 0.89055756E+02</pdfrwt>
<totfact> 0.10172059E+05</totfact>
</mgrwt>
</event>
<event>
 5    1  0.6113696E+000  0.5640459E+02  0.7546771E-02  0.1413571E+00
          3   -1    0    0  501    0  0.00000000000E+00  0.00000000000E+00  0.92094299367E+01  0.92094299367E+01  0.00000000000E+00 0. -1.
         -3   -1    0    0    0  501 -0.00000000000E+00 -0.00000000000E+00 -0.86364669537E+02  0.86364669537E+02  0.00000000000E+00 0.  1.
         23    2    1    2    0    0  0.00000000000E+00  0.00000000000E+00 -0.77155239600E+02  0.95574099474E+02  0.56404587512E+02 0.  0.
        -13    1    3    3    0    0 -0.25359652013E+02 -0.53105935544E+01 -0.19704966712E+02  0.32551498694E+02  0.00000000000E+00 0. -1.
         13    1    3    3    0    0  0.25359652013E+02  0.53105935544E+01 -0.57450272888E+02  0.63022600779E+02  0.00000000000E+00 0.  1.
<mgrwt>
<rscale>  0 0.56404588E+02</rscale>
<asrwt>0</asrwt>
<pdfrwt beam="1">  1        3 0.14168354E-02 0.56404588E+02</pdfrwt>
<pdfrwt beam="2">  1       -3 0.13286872E-01 0.56404588E+02</pdfrwt>
<totfact> 0.12431013E+05</totfact>
</mgrwt>
</event>
<event>
 5    1  0.6113696E+000  0.9083465E+02  0.7546771E-02  0.1300843E+00
          2   -1    0    0  501    0  0.00000000000E+00  0.00000000000E+00  0.16592299805E+03  0.16592299805E+03  0.00000000000E+00 0. -1.
         -2   -1    0    0    0  501 -0.00000000000E+00 -0.00000000000E+00 -0.12431871843E+02  0.12431871843E+02  0.00000000000E+00 0.  1.
         23    2    1    2    0    0  0.00000000000E+00  0.00000000000E+00  0.15349112620E+03  0.17835486989E+03  0.90834650821E+02 0.  0.
        -13    1    3    3    0    0 -0.28199925294E+02  0.31139098451E+02  0.42858393879E+02  0.60014341326E+02  0.00000000000E+00 0.  1.
         13    1    3    3    0    0  0.28199925294E+02 -0.31139098451E+02  0.11063273233E+03  0.11834052856E+03  0.00000000000E+00 0. -1.
<mgrwt>
<rscale>  0 0.90834651E+02</rscale>
<asrwt>0</asrwt>
<pdfrwt beam="1">  1        2 0.25526613E-01 0.90834651E+02</pdfrwt>
<pdfrwt beam="2">  1       -2 0.19125958E-02 0.90834651E+02</pdfrwt>
<totfact> 0.14622753E+05</totfact>
</mgrwt>
</event>
<event>
 5    1  0.6113696E+000  0.8955224E+02  0.7546771E-02  0.1303940E+00
         -1   -1    0    0    0  501 -0.00000000000E+00  0.00000000000E+00  0.21797264483E+03  0.21797264483E+03  0.00000000000E+00 0.  1.
          1   -1    0    0  501    0  0.00000000000E+00 -0.00000000000E+00 -0.91979480359E+01  0.91979480359E+01  0.00000000000E+00 0. -1.
         23    2    1    2    0    0  0.00000000000E+00  0.00000000000E+00  0.20877469679E+03  0.22717059286E+03  0.89552243084E+02 0.  0.
        -13    1    3    3    0    0 -0.36684945347E+01 -0.38374373343E+02  0.46604780588E+02  0.60481864681E+02  0.00000000000E+00 0. -1.
         13    1    3    3    0    0  0.36684945347E+01  0.38374373343E+02  0.16216991620E+03  0.16668872818E+03  0.00000000000E+00 0.  1.
<mgrwt>
<rscale>  0 0.89552243E+02</rscale>
<asrwt>0</asrwt>
<pdfrwt beam="2">  1        1 0.14150691E-02 0.89552243E+02</pdfrwt>
<pdfrwt beam="1">  1       -1 0.33534249E-01 0.89552243E+02</pdfrwt>
<totfact> 0.70927648E+04</totfact>
</mgrwt>
</event>
<event>
 5    1  0.6113696E+000  0.9170356E+02  0.7546771E-02  0.1298778E+00
         -1   -1    0    0    0  501 -0.00000000000E+00  0.00000000000E+00  0.24167609099E+02  0.24167609099E+02  0.00000000000E+00 0.  1.
          1   -1    0    0  501    0  0.00000000000E+00 -0.00000000000E+00 -0.86991875556E+02  0.86991875556E+02  0.00000000000E+00 0. -1.
         23    2    1    2    0    0  0.00000000000E+00  0.00000000000E+00 -0.62824266457E+02  0.11115948465E+03  0.91703558125E+02 0.  0.
        -13    1    3    3    0    0  0.19787799788E+02 -0.40609490352E+02 -0.21890847770E+02  0.50198575111E+02  0.00000000000E+00 0.  1.
         13    1    3    3    0    0 -0.19787799788E+02  0.40609490352E+02 -0.40933418687E+02  0.60960909544E+02  0.00000000000E+00 0. -1.
<mgrwt>
<rscale>  0 0.91703558E+02</rscale>
<asrwt>0</asrwt>
<pdfrwt beam="2">  1        1 0.13383365E-01 0.91703558E+02</pdfrwt>
<pdfrwt beam="1">  1       -1 0.37180937E-02 0.91703558E+02</pdfrwt>
<totfact> 0.10049871E+05</totfact>
</mgrwt>
</event>
<event>
 5    1  0.6113696E+000  0.9058200E+02  0.7546771E-02  0.1301448E+00
          2   -1    0    0  501    0  0.00000000000E+00  0.00000000000E+00  0.38062875355E+03  0.38062875355E+03  0.00000000000E+00 0.  1.
         -2   -1    0    0    0  501 -0.00000000000E+00 -0.00000000000E+00 -0.53891742259E+01  0.53891742259E+01  0.00000000000E+00 0. -1.
         23    2    1    2    0    0  0.00000000000E+00  0.00000000000E+00  0.37523957933E+03  0.38601792778E+03  0.90581999719E+02 0.  0.
        -13    1    3    3    0    0  0.29147256825E+02  0.30880875628E+02  0.12049783333E+03  0.12776117915E+03  0.00000000000E+00 0. -1.
         13    1    3    3    0    0 -0.29147256825E+02 -0.30880875628E+02  0.25474174600E+03  0.25825674863E+03  0.00000000000E+00 0.  1.
<mgrwt>
<rscale>  0 0.90582000E+02</rscale>
<asrwt>0</asrwt>
<pdfrwt beam="1">  1        2 0.58558249E-01 0.90582000E+02</pdfrwt>
<pdfrwt beam="2">  1       -2 0.82910403E-03 0.90582000E+02</pdfrwt>
<totfact> 0.19952780E+05</totfact>
</mgrwt>
</event>
<event>
 5    1  0.6113696E+000  0.8943885E+02  0.7546771E-02  0.1304216E+00
          2   -1    0    0  501    0  0.00000000000E+00  0.00000000000E+00  0.15773279448E+02  0.15773279448E+02  0.00000000000E+00 0.  1.
         -2   -1    0    0    0  501 -0.00000000000E+00 -0.00000000000E+00 -0.12678574590E+03  0.12678574590E+03  0.00000000000E+00 0. -1.
         23    2    1    2    0    0  0.00000000000E+00  0.00000000000E+00 -0.11101246645E+03  0.14255902535E+03  0.89438850622E+02 0.  0.
        -13    1    3    3    0    0  0.44541425043E+02  0.37791493437E+01 -0.53485974863E+02  0.69706312639E+02  0.00000000000E+00 0.  1.
         13    1    3    3    0    0 -0.44541425043E+02 -0.37791493437E+01 -0.57526491592E+02  0.72852712712E+02  0.00000000000E+00 0. -1.
<mgrwt>
<rscale>  0 0.89438851E+02</rscale>
<asrwt>0</asrwt>
<pdfrwt beam="1">  1        2 0.24266583E-02 0.89438851E+02</pdfrwt>
<pdfrwt beam="2">  1       -2 0.19505500E-01 0.89438851E+02</pdfrwt>
<totfact> 0.77737568E+04</totfact>
</mgrwt>
</event>
<event>
 5    1  0.6113696E+000  0.9102291E+02  0.7546771E-02  0.1300393E+00
         -1   -1    0    0    0  501 -0.00000000000E+00  0.00000000000E+00  0.31952897454E+02  0.31952897454E+02  0.00000000000E+00 0.  1.
          1   -1    0    0  501    0  0.00000000000E+00 -0.00000000000E+00 -0.64823302813E+02  0.64823302813E+02  0.00000000000E+00 0. -1.
         23    2    1    2    0    0  0.00000000000E+00  0.00000000000E+00 -0.32870405359E+02  0.96776200266E+02  0.91022905851E+02 0.  0.
        -13    1    3    3    0    0  0.25076448953E+02 -0.13276077722E+02  0.21397791039E+02  0.35537979587E+02  0.00000000000E+00 0.  1.
         13    1    3    3    0    0 -0.25076448953E+02  0.13276077722E+02 -0.54268196398E+02  0.61238220680E+02  0.00000000000E+00 0. -1.
<mgrwt>
<rscale>  0 0.91022906E+02</rscale>
<asrwt>0</asrwt>
<pdfrwt beam="2">  1        1 0.99728157E-02 0.91022906E+02</pdfrwt>
<pdfrwt beam="1">  1       -1 0.49158304E-02 0.91022906E+02</pdfrwt>
<totfact> 0.97967477E+04</totfact>
</mgrwt>
</event>
<event>
 5    1  0.6113696E+000  0.9164818E+02  0.7546771E-02  0.1298909E+00
         -2   -1    0    0    0  501 -0.00000000000E+00  0.00000000000E+00  0.83528690670E+02  0.83528690670E+02  0.00000000000E+00 0.  1.
          2   -1    0    0  501    0  0.00000000000E+00 -0.00000000000E+00 -0.25139230853E+02  0.25139230853E+02  0.00000000000E+00 0. -1.
         23    2    1    2    0    0  0.00000000000E+00  0.00000000000E+00  0.58389459817E+02  0.10866792152E+03  0.91648175926E+02 0.  0.
        -13    1    3    3    0    0 -0.37217154439E+02 -0.19376040695E+01 -0.24211336784E+01  0.37346121383E+02  0.00000000000E+00 0. -1.
         13    1    3    3    0    0  0.37217154439E+02  0.19376040695E+01  0.60810593495E+02  0.71321800140E+02  0.00000000000E+00 0.  1.
<mgrwt>
<rscale>  0 0.91648176E+02</rscale>
<asrwt>0</asrwt>
<pdfrwt beam="2">  1        2 0.38675740E-02 0.91648176E+02</pdfrwt>
<pdfrwt beam="1">  1       -2 0.12850568E-01 0.91648176E+02</pdfrwt>
<totfact> 0.83002256E+04</totfact>
</mgrwt>
</event>
<event>
 5    1  0.6113696E+000  0.8996148E+02  0.7546771E-02  0.1302945E+00
         -1   -1    0    0    0  501 -0.00000000000E+00  0.00000000000E+00  0.15138626538E+02  0.15138626538E+02  0.00000000000E+00 0.  1.
          1   -1    0    0  501    0  0.00000000000E+00 -0.00000000000E+00 -0.13364932138E+03  0.13364932138E+03  0.00000000000E+00 0. -1.
         23    2    1    2    0    0  0.00000000000E+00  0.00000000000E+00 -0.11851069484E+03  0.14878794792E+03  0.89961484278E+02 0.  0.
        -13    1    3    3    0    0  0.17672513801E+02 -0.13739435350E+02 -0.12378268813E+03  0.12579047543E+03  0.00000000000E+00 0. -1.
         13    1    3    3    0    0 -0.17672513801E+02  0.13739435350E+02  0.52719932861E+01  0.22997472491E+02  0.00000000000E+00 0.  1.
<mgrwt>
<rscale>  0 0.89961484E+02</rscale>
<asrwt>0</asrwt>
<pdfrwt beam="2">  1        1 0.20561434E-01 0.89961484E+02</pdfrwt>
<pdfrwt beam="1">  1       -1 0.23290195E-02 0.89961484E+02</pdfrwt>
<totfact> 0.11386128E+05</totfact>
</mgrwt>
</event>
<event>
 5    1  0.6113696E+000  0.9180883E+02  0.7546771E-02  0.1298530E+00
         -4   -1    0    0    0  501 -0.00000000000E+00  0.00000000000E+00  0.38361380803E+02  0.38361380803E+02  0.00000000000E+00 0.  1.
          4   -1    0    0  501    0  0.00000000000E+00 -0.00000000000E+00 -0.54930638264E+02  0.54930638264E+02  0.00000000000E+00 0. -1.
         23    2    1    2    0    0  0.00000000000E+00  0.00000000000E+00 -0.16569257461E+02  0.93292019067E+02  0.91808825985E+02 0.  0.
        -13    1    3    3    0    0  0.30876186973E+02  0.25044067393E+01  0.26138957659E+02  0.40532161089E+02  0.00000000000E+00 0.  1.
         13    1    3    3    0    0 -0.30876186973E+02 -0.25044067393E+01 -0.42708215120E+02  0.52759857978E+02  0.00000000000E+00 0. -1.
<mgrwt>
<rscale>  0 0.91808826E+02</rscale>
<asrwt>0</asrwt>
<pdfrwt beam="2">  1        4 0.84508674E-02 0.91808826E+02</pdfrwt>
<pdfrwt beam="1">  1       -4 0.59017509E-02 0.91808826E+02</pdfrwt>
<totfact> 0.26380474E+04</totfact>
</mgrwt>
</event>
<event>
 5    1  0.6113696E+000  0.8622623E+02  0.7546771E-02  0.1312257E+00
          3   -1    0    0  501    0  0.00000000000E+00  0.00000000000E+00  0.10823902626E+03  0.10823902626E+03  0.00000000000E+00 0. -1.
         -3   -1    0    0    0  501 -0.00000000000E+00 -0.00000000000E+00 -0.17172554669E+02  0.17172554669E+02  0.00000000000E+00 0.  1.
         23    2    1    2    0    0  0.00000000000E+00  0.00000000000E+00  0.91066471589E+02  0.12541158093E+03  0.86226227929E+02 0.  0.
        -13    1    3    3    0    0  0.32736976531E+01 -0.37002676078E+02  0.77359588630E+02  0.85816205266E+02  0.00000000000E+00 0. -1.
         13    1    3    3    0    0 -0.32736976531E+01  0.37002676078E+02  0.13706882959E+02  0.39595375661E+02  0.00000000000E+00 0.  1.
<mgrwt>
<rscale>  0 0.86226228E+02</rscale>
<asrwt>0</asrwt>
<pdfrwt beam="1">  1        3 0.16652158E-01 0.86226228E+02</pdfrwt>
<pdfrwt beam="2">  1       -3 0.26419315E-02 0.86226228E+02</pdfrwt>
<totfact> 0.38232059E+04</totfact>
</mgrwt>
</event>
<event>
 5    1  0.6113696E+000  0.9022873E+02  0.7546771E-02  0.1302299E+00
         -4   -1    0    0    0  501 -0.00000000000E+00  0.00000000000E+00  0.26612935819E+03  0.26612935819E+03  0.00000000000E+00 0.  1.
          4   -1    0    0  501    0  0.00000000000E+00 -0.00000000000E+00 -0.76478068862E+01  0.76478068862E+01  0.00000000000E+00 0. -1.
         23    2    1    2    0    0  0.00000000000E+00  0.00000000000E+00  0.25848155131E+03  0.27377716508E+03  0.90228730196E+02 0.  0.
        -13    1    3    3    0    0 -0.32863755165E+02 -0.29945398361E+02  0.10602273003E+03  0.11496770229E+03  0.00000000000E+00 0.  1.
         13    1    3    3    0    0  0.32863755165E+02  0.29945398361E+02  0.15245882128E+03  0.15880946279E+03  0.00000000000E+00 0. -1.
<mgrwt>
<rscale>  0 0.90228730E+02</rscale>
<asrwt>0</asrwt>
<pdfrwt beam="2">  1        4 0.11765859E-02 0.90228730E+02</pdfrwt>
<pdfrwt beam="1">  1       -4 0.40942971E-01 0.90228730E+02</pdfrwt>
<totfact> 0.19176670E+04</totfact>
</mgrwt>
</event>
<event>
 5    1  0.6113696E+000  0.8763365E+02  0.7546771E-02  0.1308685E+00
         -2   -1    0    0    0  501 -0.00000000000E+00  0.00000000000E+00  0.14383479530E+03  0.14383479530E+03  0.00000000000E+00 0.  1.
          2   -1    0    0  501    0  0.00000000000E+00 -0.00000000000E+00 -0.13348049462E+02  0.13348049462E+02  0.00000000000E+00 0. -1.
         23    2    1    2    0    0  0.00000000000E+00  0.00000000000E+00  0.13048674584E+03  0.15718284476E+03  0.87633645637E+02 0.  0.
        -13    1    3    3    0    0  0.11359526289E+01  0.43473238662E+02  0.55634255748E+02  0.70614327730E+02  0.00000000000E+00 0. -1.
         13    1    3    3    0    0 -0.11359526289E+01 -0.43473238662E+02  0.74852490088E+02  0.86568517029E+02  0.00000000000E+00 0.  1.
<mgrwt>
<rscale>  0 0.87633646E+02</rscale>
<asrwt>0</asrwt>
<pdfrwt beam="2">  1        2 0.20535462E-02 0.87633646E+02</pdfrwt>
<pdfrwt beam="1">  1       -2 0.22128429E-01 0.87633646E+02</pdfrwt>
<totfact> 0.78385572E+04</totfact>
</mgrwt>
</event>
<event>
 5    1  0.6113696E+000  0.9124782E+02  0.7546771E-02  0.1299858E+00
         -1   -1    0    0    0  501 -0.00000000000E+00  0.00000000000E+00  0.20154546990E+02  0.20154546990E+02  0.00000000000E+00 0.  1.
          1   -1    0    0  501    0  0.00000000000E+00 -0.00000000000E+00 -0.10327898612E+03  0.10327898612E+03  0.00000000000E+00 0. -1.
         23    2    1    2    0    0  0.00000000000E+00  0.00000000000E+00 -0.83124439130E+02  0.12343353311E+03  0.91247820332E+02 0.  0.
        -13    1    3    3    0    0  0.30728332797E+02 -0.24564743290E+02 -0.10306164264E+02  0.40667850585E+02  0.00000000000E+00 0.  1.
         13    1    3    3    0    0 -0.30728332797E+02  0.24564743290E+02 -0.72818274866E+02  0.82765682525E+02  0.00000000000E+00 0. -1.
<mgrwt>
<rscale>  0 0.91247820E+02</rscale>
<asrwt>0</asrwt>
<pdfrwt beam="2">  1        1 0.15889075E-01 0.91247820E+02</pdfrwt>
<pdfrwt beam="1">  1       -1 0.31006996E-02 0.91247820E+02</pdfrwt>
<totfact> 0.10479318E+05</totfact>
</mgrwt>
</event>
<event>
 5    1  0.6113696E+000  0.9048964E+02  0.7546771E-02  0.1301670E+00
          1   -1    0    0  501    0  0.00000000000E+00  0.00000000000E+00  0.52710610237E+02  0.52710610237E+02  0.00000000000E+00 0. -1.
         -1   -1    0    0    0  501 -0.00000000000E+00 -0.00000000000E+00 -0.38836467295E+02  0.38836467295E+02  0.00000000000E+00 0.  1.
         23    2    1    2    0    0  0.00000000000E+00  0.00000000000E+00  0.13874142943E+02  0.91547077532E+02  0.90489643398E+02 0.  0.
        -13    1    3    3    0    0  0.29573489858E+02  0.14038939073E+02  0.38533600965E+02  0.50562056090E+02  0.00000000000E+00 0. -1.
         13    1    3    3    0    0 -0.29573489858E+02 -0.14038939073E+02 -0.24659458023E+02  0.40985021442E+02  0.00000000000E+00 0.  1.
<mgrwt>
<rscale>  0 0.90489643E+02</rscale>
<asrwt>0</asrwt>
<pdfrwt beam="1">  1        1 0.81093247E-02 0.90489643E+02</pdfrwt>
<pdfrwt beam="2">  1       -1 0.59748411E-02 0.90489643E+02</pdfrwt>
<totfact> 0.96522407E+04</totfact>
</mgrwt>
</event>
<event>
 5    1  0.6113696E+000  0.9180797E+02  0.7546771E-02  0.1298532E+00
         -2   -1    0    0    0  501 -0.00000000000E+00  0.00000000000E+00  0.12639873430E+03  0.12639873430E+03  0.00000000000E+00 0.  1.
          2   -1    0    0  501    0  0.00000000000E+00 -0.00000000000E+00 -0.16670861917E+02  0.16670861917E+02  0.00000000000E+00 0. -1.
         23    2    1    2    0    0  0.00000000000E+00  0.00000000000E+00  0.10972787238E+03  0.14306959621E+03  0.91807970155E+02 0.  0.
        -13    1    3    3    0    0 -0.95061522651E+01  0.40825931975E+02  0.25707571907E+02  0.49173192960E+02  0.00000000000E+00 0.  1.
         13    1    3    3    0    0  0.95061522651E+01 -0.40825931975E+02  0.84020300473E+02  0.93896403254E+02  0.00000000000E+00 0. -1.
<mgrwt>
<rscale>  0 0.91807970E+02</rscale>
<asrwt>0</asrwt>
<pdfrwt beam="2">  1        2 0.25647481E-02 0.91807970E+02</pdfrwt>
<pdfrwt beam="1">  1       -2 0.19445958E-01 0.91807970E+02</pdfrwt>
<totfact> 0.72865712E+04</totfact>
</mgrwt>
</event>
<event>
 5    1  0.6113696E+000  0.9040723E+02  0.7546771E-02  0.1301869E+00
          3   -1    0    0  501    0  0.00000000000E+00  0.00000000000E+00  0.34501942427E+02  0.34501942427E+02  0.00000000000E+00 0. -1.
         -3   -1    0    0    0  501 -0.00000000000E+00 -0.00000000000E+00 -0.59224687576E+02  0.59224687576E+02  0.00000000000E+00 0.  1.
         23    2    1    2    0    0  0.00000000000E+00  0.00000000000E+00 -0.24722745149E+02  0.93726630003E+02  0.90407228936E+02 0.  0.
        -13    1    3    3    0    0 -0.15231345733E+01 -0.34886234393E+02 -0.42120677521E+02  0.54713076718E+02  0.00000000000E+00 0.  1.
         13    1    3    3    0    0  0.15231345733E+01  0.34886234393E+02  0.17397932372E+02  0.39013553285E+02  0.00000000000E+00 0. -1.
<mgrwt>
<rscale>  0 0.90407229E+02</rscale>
<asrwt>0</asrwt>
<pdfrwt beam="1">  1        3 0.53079912E-02 0.90407229E+02</pdfrwt>
<pdfrwt beam="2">  1       -3 0.91114903E-02 0.90407229E+02</pdfrwt>
<totfact> 0.35963735E+04</totfact>
</mgrwt>
</event>
<event>
 5    1  0.6113696E+000  0.9341836E+02  0.7546771E-02  0.1294779E+00
         -1   -1    0    0    0  501 -0.00000000000E+00  0.00000000000E+00  0.73413012967E+02  0.73413012967E+02  0.00000000000E+00 0.  1.
          1   -1    0    0  501    0  0.00000000000E+00 -0.00000000000E+00 -0.29718809082E+02  0.29718809082E+02  0.00000000000E+00 0. -1.
         23    2    1    2    0    0  0.00000000000E+00  0.00000000000E+00  0.43694203884E+02  0.10313182205E+03  0.93418356152E+02 0.  0.
        -13    1    3    3    0    0 -0.25325069818E+02 -0.32154167726E+02 -0.29984808558E+01  0.41039499886E+02  0.00000000000E+00 0.  1.
         13    1    3    3    0    0  0.25325069818E+02  0.32154167726E+02  0.46692684740E+02  0.62092322164E+02  0.00000000000E+00 0. -1.
<mgrwt>
<rscale>  0 0.93418356E+02</rscale>
<asrwt>0</asrwt>
<pdfrwt beam="2">  1        1 0.45721245E-02 0.93418356E+02</pdfrwt>
<pdfrwt beam="1">  1       -1 0.11294310E-01 0.93418356E+02</pdfrwt>
<totfact> 0.80701529E+04</totfact>
</mgrwt>
</event>
<event>
 5    1  0.6113696E+000  0.9082533E+02  0.7546771E-02  0.1300865E+00
         -1   -1    0    0    0  501 -0.00000000000E+00  0.00000000000E+00  0.99716511512E+01  0.99716511512E+01  0.00000000000E+00 0.  1.
          1   -1    0    0  501    0  0.00000000000E+00 -0.00000000000E+00 -0.20681732710E+03  0.20681732710E+03  0.00000000000E+00 0. -1.
         23    2    1    2    0    0  0.00000000000E+00  0.00000000000E+00 -0.19684567595E+03  0.21678897825E+03  0.90825332102E+02 0.  0.
        -13    1    3    3    0    0 -0.54802321400E+01 -0.39744342542E+02 -0.47639828252E+02  0.62283215591E+02  0.00000000000E+00 0.  1.
         13    1    3    3    0    0  0.54802321400E+01  0.39744342542E+02 -0.14920584770E+03  0.15450576266E+03  0.00000000000E+00 0. -1.
<mgrwt>
<rscale>  0 0.90825332E+02</rscale>
<asrwt>0</asrwt>
<pdfrwt beam="2">  1        1 0.31818047E-01 0.90825332E+02</pdfrwt>
<pdfrwt beam="1">  1       -1 0.15341003E-02 0.90825332E+02</pdfrwt>
<totfact> 0.12041924E+05</totfact>
</mgrwt>
</event>
<event>
 5    1  0.6113696E+000  0.7955257E+02  0.7546771E-02  0.1330326E+00
         -1   -1    0    0    0  501 -0.00000000000E+00  0.00000000000E+00  0.16342976016E+03  0.16342976016E+03  0.00000000000E+00 0.  1.
          1   -1    0    0  501    0  0.00000000000E+00 -0.00000000000E+00 -0.96809338655E+01  0.96809338655E+01  0.00000000000E+00 0. -1.
         23    2    1    2    0    0  0.00000000000E+00  0.00000000000E+00  0.15374882629E+03  0.17311069402E+03  0.79552566262E+02 0.  0.
        -13    1    3    3    0    0 -0.10557106815E+02  0.28238730685E+02  0.13333764297E+03  0.13670334834E+03  0.00000000000E+00 0.  1.
         13    1    3    3    0    0  0.10557106815E+02 -0.28238730685E+02  0.20411183323E+02  0.36407345682E+02  0.00000000000E+00 0. -1.
<mgrwt>
<rscale>  0 0.79552566E+02</rscale>
<asrwt>0</asrwt>
<pdfrwt beam="2">  1        1 0.14893746E-02 0.79552566E+02</pdfrwt>
<pdfrwt beam="1">  1       -1 0.25143038E-01 0.79552566E+02</pdfrwt>
<totfact> 0.10426147E+05</totfact>
</mgrwt>
</event>
<event>
 5    1  0.6113696E+000  0.9366637E+02  0.7546771E-02  0.1294208E+00
          2   -1    0    0  501    0  0.00000000000E+00  0.00000000000E+00  0.13042383515E+02  0.13042383515E+02  0.00000000000E+00 0. -1.
         -2   -1    0    0    0  501 -0.00000000000E+00 -0.00000000000E+00 -0.16817072136E+03  0.16817072136E+03  0.00000000000E+00 0.  1.
         23    2    1    2    0    0  0.00000000000E+00  0.00000000000E+00 -0.15512833784E+03  0.18121310487E+03  0.93666366299E+02 0.  0.
        -13    1    3    3    0    0 -0.36632284955E+02  0.28999211851E+02 -0.83823778136E+02  0.95965120591E+02  0.00000000000E+00 0.  1.
         13    1    3    3    0    0  0.36632284955E+02 -0.28999211851E+02 -0.71304559708E+02  0.85247984283E+02  0.00000000000E+00 0. -1.
<mgrwt>
<rscale>  0 0.93666366E+02</rscale>
<asrwt>0</asrwt>
<pdfrwt beam="1">  1        2 0.20065205E-02 0.93666366E+02</pdfrwt>
<pdfrwt beam="2">  1       -2 0.25872420E-01 0.93666366E+02</pdfrwt>
<totfact> 0.62483785E+04</totfact>
</mgrwt>
</event>
<event>
 4    1  0.6113696E+000  0.4152824E+02  0.7546771E-02  0.1497257E+00
          1   -1    0    0  501    0  0.00000000000E+00  0.00000000000E+00  0.19713291584E+02  0.19713291584E+02  0.00000000000E+00 0. -1.
         -1   -1    0    0    0  501 -0.00000000000E+00 -0.00000000000E+00 -0.21870966546E+02  0.21870966546E+02  0.00000000000E+00 0.  1.
        -13    1    1    2    0    0 -0.10821395176E+02  0.79771067833E+01  0.14766916020E+02  0.19969943288E+02  0.00000000000E+00 0. -1.
         13    1    1    2    0    0  0.10821395176E+02 -0.79771067833E+01 -0.16924590982E+02  0.21614314842E+02  0.00000000000E+00 0.  1.
<mgrwt>
<rscale>  0 0.41528243E+02</rscale>
<asrwt>0</asrwt>
<pdfrwt beam="1">  1        1 0.30328141E-02 0.41528243E+02</pdfrwt>
<pdfrwt beam="2">  1       -1 0.33647641E-02 0.41528243E+02</pdfrwt>
<totfact> 0.69124758E+05</totfact>
</mgrwt>
</event>
<event>
 5    1  0.6113696E+000  0.9191580E+02  0.7546771E-02  0.1298278E+00
          2   -1    0    0  501    0  0.00000000000E+00  0.00000000000E+00  0.11039526312E+03  0.11039526312E+03  0.00000000000E+00 0. -1.
         -2   -1    0    0    0  501 -0.00000000000E+00 -0.00000000000E+00 -0.19132418732E+02  0.19132418732E+02  0.00000000000E+00 0.  1.
         23    2    1    2    0    0  0.00000000000E+00  0.00000000000E+00  0.91262844389E+02  0.12952768185E+03  0.91915796251E+02 0.  0.
        -13    1    3    3    0    0  0.32371030426E+01  0.32966168672E+02  0.73827402661E+00  0.33132946768E+02  0.00000000000E+00 0.  1.
         13    1    3    3    0    0 -0.32371030426E+01 -0.32966168672E+02  0.90524570362E+02  0.96394735086E+02  0.00000000000E+00 0. -1.
<mgrwt>
<rscale>  0 0.91915796E+02</rscale>
<asrwt>0</asrwt>
<pdfrwt beam="1">  1        2 0.16983886E-01 0.91915796E+02</pdfrwt>
<pdfrwt beam="2">  1       -2 0.29434491E-02 0.91915796E+02</pdfrwt>
<totfact> 0.12370664E+05</totfact>
</mgrwt>
</event>
<event>
 5    1  0.6113696E+000  0.9107608E+02  0.7546771E-02  0.1300267E+00
         -3   -1    0    0    0  501 -0.00000000000E+00  0.00000000000E+00  0.64537744458E+01  0.64537744458E+01  0.00000000000E+00 0.  1.
          3   -1    0    0  501    0  0.00000000000E+00 -0.00000000000E+00 -0.32131789802E+03  0.32131789802E+03  0.00000000000E+00 0. -1.
         23    2    1    2    0    0  0.00000000000E+00  0.00000000000E+00 -0.31486412358E+03  0.32777167247E+03  0.91076083342E+02 0.  0.
        -13    1    3    3    0    0  0.32983894117E+02  0.31367578486E+02 -0.16232837143E+03  0.16858933069E+03  0.00000000000E+00 0. -1.
         13    1    3    3    0    0 -0.32983894117E+02 -0.31367578486E+02 -0.15253575215E+03  0.15918234178E+03  0.00000000000E+00 0.  1.
<mgrwt>
<rscale>  0 0.91076083E+02</rscale>
<asrwt>0</asrwt>
<pdfrwt beam="2">  1        3 0.49433522E-01 0.91076083E+02</pdfrwt>
<pdfrwt beam="1">  1       -3 0.99288839E-03 0.91076083E+02</pdfrwt>
<totfact> 0.23063475E+04</totfact>
</mgrwt>
</event>
<event>
 5    1  0.6113696E+000  0.8806151E+02  0.7546771E-02  0.1307615E+00
          2   -1    0    0  501    0  0.00000000000E+00  0.00000000000E+00  0.19235705502E+03  0.19235705502E+03  0.00000000000E+00 0.  1.
         -2   -1    0    0    0  501 -0.00000000000E+00 -0.00000000000E+00 -0.10078691560E+02  0.10078691560E+02  0.00000000000E+00 0. -1.
         23    2    1    2    0    0  0.00000000000E+00  0.00000000000E+00  0.18227836346E+03  0.20243574658E+03  0.88061510935E+02 0.  0.
        -13    1    3    3    0    0  0.33743383929E+01  0.41584999602E+02  0.58791465914E+02  0.72091156294E+02  0.00000000000E+00 0. -1.
         13    1    3    3    0    0 -0.33743383929E+01 -0.41584999602E+02  0.12348689755E+03  0.13034459029E+03  0.00000000000E+00 0.  1.
<mgrwt>
<rscale>  0 0.88061511E+02</rscale>
<asrwt>0</asrwt>
<pdfrwt beam="1">  1        2 0.29593390E-01 0.88061511E+02</pdfrwt>
<pdfrwt beam="2">  1       -2 0.15505681E-02 0.88061511E+02</pdfrwt>
<totfact> 0.16745988E+05</totfact>
</mgrwt>
</event>
<event>
 5    1  0.6113696E+000  0.9138921E+02  0.7546771E-02  0.1299522E+00
          2   -1    0    0  501    0  0.00000000000E+00  0.00000000000E+00  0.26169060478E+03  0.26169060478E+03  0.00000000000E+00 0. -1.
         -2   -1    0    0    0  501 -0.00000000000E+00 -0.00000000000E+00 -0.79788756892E+01  0.79788756892E+01  0.00000000000E+00 0.  1.
         23    2    1    2    0    0  0.00000000000E+00  0.00000000000E+00  0.25371172909E+03  0.26966948047E+03  0.91389207341E+02 0.  0.
        -13    1    3    3    0    0  0.40791656761E+01  0.43238882148E+02  0.16876902612E+03  0.17426768117E+03  0.00000000000E+00 0. -1.
         13    1    3    3    0    0 -0.40791656761E+01 -0.43238882148E+02  0.84942702969E+02  0.95401799300E+02  0.00000000000E+00 0.  1.
<mgrwt>
<rscale>  0 0.91389207E+02</rscale>
<asrwt>0</asrwt>
<pdfrwt beam="1">  1        2 0.40260086E-01 0.91389207E+02</pdfrwt>
<pdfrwt beam="2">  1       -2 0.12275195E-02 0.91389207E+02</pdfrwt>
<totfact> 0.16967366E+05</totfact>
</mgrwt>
</event>
<event>
 5    1  0.6113696E+000  0.9396388E+02  0.7546771E-02  0.1293527E+00
          2   -1    0    0  501    0  0.00000000000E+00  0.00000000000E+00  0.47891748724E+02  0.47891748724E+02  0.00000000000E+00 0. -1.
         -2   -1    0    0    0  501 -0.00000000000E+00 -0.00000000000E+00 -0.46089419510E+02  0.46089419510E+02  0.00000000000E+00 0.  1.
         23    2    1    2    0    0  0.00000000000E+00  0.00000000000E+00  0.18023292141E+01  0.93981168234E+02  0.93963884509E+02 0.  0.
        -13    1    3    3    0    0 -0.47200825021E+01  0.33934492413E+02 -0.31252438199E+02  0.46373956565E+02  0.00000000000E+00 0.  1.
         13    1    3    3    0    0  0.47200825021E+01 -0.33934492413E+02  0.33054767413E+02  0.47607211669E+02  0.00000000000E+00 0. -1.
<mgrwt>
<rscale>  0 0.93963885E+02</rscale>
<asrwt>0</asrwt>
<pdfrwt beam="1">  1        2 0.73679613E-02 0.93963885E+02</pdfrwt>
<pdfrwt beam="2">  1       -2 0.70906799E-02 0.93963885E+02</pdfrwt>
<totfact> 0.91668788E+04</totfact>
</mgrwt>
</event>
<event>
 5    1  0.6113696E+000  0.9268000E+02  0.7546771E-02  0.1296488E+00
          1   -1    0    0  501    0  0.00000000000E+00  0.00000000000E+00  0.60311970759E+01  0.60311970759E+01  0.00000000000E+00 0. -1.
         -1   -1    0    0    0  501 -0.00000000000E+00 -0.00000000000E+00 -0.35604798969E+03  0.35604798969E+03  0.00000000000E+00 0.  1.
         23    2    1    2    0    0  0.00000000000E+00  0.00000000000E+00 -0.35001679261E+03  0.36207918676E+03  0.92679999876E+02 0.  0.
        -13    1    3    3    0    0  0.77013190319E+01  0.41669887225E+02 -0.10174158541E+03  0.11021361086E+03  0.00000000000E+00 0. -1.
         13    1    3    3    0    0 -0.77013190319E+01 -0.41669887225E+02 -0.24827520720E+03  0.25186557591E+03  0.00000000000E+00 0.  1.
<mgrwt>
<rscale>  0 0.92680000E+02</rscale>
<asrwt>0</asrwt>
<pdfrwt beam="1">  1        1 0.92787656E-03 0.92680000E+02</pdfrwt>
<pdfrwt beam="2">  1       -1 0.54776609E-01 0.92680000E+02</pdfrwt>
<totfact> 0.53985412E+04</totfact>
</mgrwt>
</event>
<event>
 5    1  0.6113696E+000  0.8468690E+02  0.7546771E-02  0.1316253E+00
          3   -1    0    0  501    0  0.00000000000E+00  0.00000000000E+00  0.13564007198E+03  0.13564007198E+03  0.00000000000E+00 0. -1.
         -3   -1    0    0    0  501 -0.00000000000E+00 -0.00000000000E+00 -0.13218570658E+02  0.13218570658E+02  0.00000000000E+00 0.  1.
         23    2    1    2    0    0  0.00000000000E+00  0.00000000000E+00  0.12242150132E+03  0.14885864264E+03  0.84686902778E+02 0.  0.
        -13    1    3    3    0    0 -0.38215272991E+02  0.19448531625E+01  0.93082756668E+02  0.10064089195E+03  0.00000000000E+00 0. -1.
         13    1    3    3    0    0  0.38215272991E+02 -0.19448531625E+01  0.29338744656E+02  0.48217750690E+02  0.00000000000E+00 0.  1.
<mgrwt>
<rscale>  0 0.84686903E+02</rscale>
<asrwt>0</asrwt>
<pdfrwt beam="1">  1        3 0.20867702E-01 0.84686903E+02</pdfrwt>
<pdfrwt beam="2">  1       -3 0.20336264E-02 0.84686903E+02</pdfrwt>
<totfact> 0.38280024E+04</totfact>
</mgrwt>
</event>
<event>
 5    1  0.6113696E+000  0.8615402E+02  0.7546771E-02  0.1312442E+00
         -2   -1    0    0    0  501 -0.00000000000E+00  0.00000000000E+00  0.10273873731E+02  0.10273873731E+02  0.00000000000E+00 0. -1.
          2   -1    0    0  501    0  0.00000000000E+00 -0.00000000000E+00 -0.18061628070E+03  0.18061628070E+03  0.00000000000E+00 0.  1.
         23    2    1    2    0    0  0.00000000000E+00  0.00000000000E+00 -0.17034240697E+03  0.19089015443E+03  0.86154021652E+02 0.  0.
        -13    1    3    3    0    0 -0.17826359628E+02 -0.31587354312E+02 -0.33679108160E+02  0.49495680382E+02  0.00000000000E+00 0. -1.
         13    1    3    3    0    0  0.17826359628E+02  0.31587354312E+02 -0.13666329881E+03  0.14139447405E+03  0.00000000000E+00 0.  1.
<mgrwt>
<rscale>  0 0.86154022E+02</rscale>
<asrwt>0</asrwt>
<pdfrwt beam="2">  1        2 0.27787118E-01 0.86154022E+02</pdfrwt>
<pdfrwt beam="1">  1       -2 0.15805961E-02 0.86154022E+02</pdfrwt>
<totfact> 0.17366664E+05</totfact>
</mgrwt>
</event>
<event>
 5    1  0.6113696E+000  0.8987307E+02  0.7546771E-02  0.1303159E+00
          2   -1    0    0  501    0  0.00000000000E+00  0.00000000000E+00  0.44188902294E+02  0.44188902294E+02  0.00000000000E+00 0. -1.
         -2   -1    0    0    0  501 -0.00000000000E+00 -0.00000000000E+00 -0.45696817690E+02  0.45696817690E+02  0.00000000000E+00 0.  1.
         23    2    1    2    0    0  0.00000000000E+00  0.00000000000E+00 -0.15079153957E+01  0.89885719984E+02  0.89873070762E+02 0.  0.
        -13    1    3    3    0    0  0.41860096007E+02 -0.15207670965E+02 -0.67340398452E+01  0.45043181355E+02  0.00000000000E+00 0.  1.
         13    1    3    3    0    0 -0.41860096007E+02  0.15207670965E+02  0.52261244496E+01  0.44842538629E+02  0.00000000000E+00 0. -1.
<mgrwt>
<rscale>  0 0.89873071E+02</rscale>
<asrwt>0</asrwt>
<pdfrwt beam="1">  1        2 0.67982927E-02 0.89873071E+02</pdfrwt>
<pdfrwt beam="2">  1       -2 0.70302796E-02 0.89873071E+02</pdfrwt>
<totfact> 0.10200977E+05</totfact>
</mgrwt>
</event>
<event>
 5    1  0.6113696E+000  0.9136182E+02  0.7546771E-02  0.1299587E+00
          3   -1    0    0  501    0  0.00000000000E+00  0.00000000000E+00  0.51356089316E+02  0.51356089316E+02  0.00000000000E+00 0. -1.
         -3   -1    0    0    0  501 -0.00000000000E+00 -0.00000000000E+00 -0.40632873055E+02  0.40632873055E+02  0.00000000000E+00 0.  1.
         23    2    1    2    0    0  0.00000000000E+00  0.00000000000E+00  0.10723216261E+02  0.91988962371E+02  0.91361818234E+02 0.  0.
        -13    1    3    3    0    0 -0.25921365718E+02 -0.25456679642E+02  0.33242585492E+02  0.49244585786E+02  0.00000000000E+00 0. -1.
         13    1    3    3    0    0  0.25921365718E+02  0.25456679642E+02 -0.22519369231E+02  0.42744376585E+02  0.00000000000E+00 0.  1.
<mgrwt>
<rscale>  0 0.91361818E+02</rscale>
<asrwt>0</asrwt>
<pdfrwt beam="1">  1        3 0.79009368E-02 0.91361818E+02</pdfrwt>
<pdfrwt beam="2">  1       -3 0.62512112E-02 0.91361818E+02</pdfrwt>
<totfact> 0.35081885E+04</totfact>
</mgrwt>
</event>
<event>
 5    1  0.6113696E+000  0.9107517E+02  0.7546771E-02  0.1300269E+00
          1   -1    0    0  501    0  0.00000000000E+00  0.00000000000E+00  0.34488205332E+02  0.34488205332E+02  0.00000000000E+00 0. -1.
         -1   -1    0    0    0  501 -0.00000000000E+00 -0.00000000000E+00 -0.60126980986E+02  0.60126980986E+02  0.00000000000E+00 0.  1.
         23    2    1    2    0    0  0.00000000000E+00  0.00000000000E+00 -0.25638775654E+02  0.94615186318E+02  0.91075170409E+02 0.  0.
        -13    1    3    3    0    0 -0.33637124157E+02  0.14311699790E+01 -0.44673347558E+02  0.55939363164E+02  0.00000000000E+00 0.  1.
         13    1    3    3    0    0  0.33637124157E+02 -0.14311699790E+01  0.19034571905E+02  0.38675823154E+02  0.00000000000E+00 0. -1.
<mgrwt>
<rscale>  0 0.91075170E+02</rscale>
<asrwt>0</asrwt>
<pdfrwt beam="1">  1        1 0.53058777E-02 0.91075170E+02</pdfrwt>
<pdfrwt beam="2">  1       -1 0.92503048E-02 0.91075170E+02</pdfrwt>
<totfact> 0.88902778E+04</totfact>
</mgrwt>
</event>
<event>
 4    1  0.6113696E+000  0.3163304E+02  0.7546771E-02  0.1580709E+00
          2   -1    0    0  501    0  0.00000000000E+00  0.00000000000E+00  0.63391052936E+02  0.63391052936E+02  0.00000000000E+00 0. -1.
         -2   -1    0    0    0  501 -0.00000000000E+00 -0.00000000000E+00 -0.39463349858E+01  0.39463349858E+01  0.00000000000E+00 0.  1.
        -13    1    1    2    0    0 -0.12944837340E+02 -0.61773945344E+01  0.15532775036E+02  0.21142282689E+02  0.00000000000E+00 0.  1.
         13    1    1    2    0    0  0.12944837340E+02  0.61773945344E+01  0.43911942914E+02  0.46195105233E+02  0.00000000000E+00 0. -1.
<mgrwt>
<rscale>  0 0.31633042E+02</rscale>
<asrwt>0</asrwt>
<pdfrwt beam="1">  1        2 0.97524690E-02 0.31633042E+02</pdfrwt>
<pdfrwt beam="2">  1       -2 0.60712850E-03 0.31633042E+02</pdfrwt>
<totfact> 0.16704724E+06</totfact>
</mgrwt>
</event>
<event>
 5    1  0.6113696E+000  0.9133104E+02  0.7546771E-02  0.1299660E+00
         -1   -1    0    0    0  501 -0.00000000000E+00  0.00000000000E+00  0.56414011228E+02  0.56414011228E+02  0.00000000000E+00 0.  1.
          1   -1    0    0  501    0  0.00000000000E+00 -0.00000000000E+00 -0.36964922722E+02  0.36964922722E+02  0.00000000000E+00 0. -1.
         23    2    1    2    0    0  0.00000000000E+00  0.00000000000E+00  0.19449088506E+02  0.93378933950E+02  0.91331036685E+02 0.  0.
        -13    1    3    3    0    0  0.39877591281E+02 -0.21799843712E+02  0.51653990999E+01  0.45739882161E+02  0.00000000000E+00 0. -1.
         13    1    3    3    0    0 -0.39877591281E+02  0.21799843712E+02  0.14283689406E+02  0.47639051789E+02  0.00000000000E+00 0.  1.
<mgrwt>
<rscale>  0 0.91331037E+02</rscale>
<asrwt>0</asrwt>
<pdfrwt beam="2">  1        1 0.56869112E-02 0.91331037E+02</pdfrwt>
<pdfrwt beam="1">  1       -1 0.86790786E-02 0.91331037E+02</pdfrwt>
<totfact> 0.89148166E+04</totfact>
</mgrwt>
</event>
<event>
 5    1  0.6113696E+000  0.8946128E+02  0.7546771E-02  0.1304162E+00
          2   -1    0    0  501    0  0.00000000000E+00  0.00000000000E+00  0.56972600763E+02  0.56972600763E+02  0.00000000000E+00 0. -1.
         -2   -1    0    0    0  501 -0.00000000000E+00 -0.00000000000E+00 -0.35119168350E+02  0.35119168350E+02  0.00000000000E+00 0.  1.
         23    2    1    2    0    0  0.00000000000E+00  0.00000000000E+00  0.21853432414E+02  0.92091769113E+02  0.89461284532E+02 0.  0.
        -13    1    3    3    0    0  0.30893443807E+02 -0.31483267988E+02  0.18576876771E+02  0.47861272277E+02  0.00000000000E+00 0. -1.
         13    1    3    3    0    0 -0.30893443807E+02  0.31483267988E+02  0.32765556422E+01  0.44230496835E+02  0.00000000000E+00 0.  1.
<mgrwt>
<rscale>  0 0.89461285E+02</rscale>
<asrwt>0</asrwt>
<pdfrwt beam="1">  1        2 0.87650155E-02 0.89461285E+02</pdfrwt>
<pdfrwt beam="2">  1       -2 0.54029490E-02 0.89461285E+02</pdfrwt>
<totfact> 0.11037321E+05</totfact>
</mgrwt>
</event>
<event>
 5    1  0.6113696E+000  0.9272902E+02  0.7546771E-02  0.1296374E+00
         -1   -1    0    0    0  501 -0.00000000000E+00  0.00000000000E+00  0.37945020877E+02  0.37945020877E+02  0.00000000000E+00 0.  1.
          1   -1    0    0  501    0  0.00000000000E+00 -0.00000000000E+00 -0.56652173618E+02  0.56652173618E+02  0.00000000000E+00 0. -1.
         23    2    1    2    0    0  0.00000000000E+00  0.00000000000E+00 -0.18707152742E+02  0.94597194495E+02  0.92729022655E+02 0.  0.
        -13    1    3    3    0    0 -0.26953069168E+02  0.23645510676E+02  0.20634044599E+02  0.41368368462E+02  0.00000000000E+00 0.  1.
         13    1    3    3    0    0  0.26953069168E+02 -0.23645510676E+02 -0.39341197340E+02  0.53228826033E+02  0.00000000000E+00 0. -1.
<mgrwt>
<rscale>  0 0.92729023E+02</rscale>
<asrwt>0</asrwt>
<pdfrwt beam="2">  1        1 0.87157190E-02 0.92729023E+02</pdfrwt>
<pdfrwt beam="1">  1       -1 0.58376955E-02 0.92729023E+02</pdfrwt>
<totfact> 0.91149885E+04</totfact>
</mgrwt>
</event>
<event>
 5    1  0.6113696E+000  0.8879902E+02  0.7546771E-02  0.1305786E+00
          1   -1    0    0  501    0  0.00000000000E+00  0.00000000000E+00  0.12112671943E+02  0.12112671943E+02  0.00000000000E+00 0. -1.
         -1   -1    0    0    0  501 -0.00000000000E+00 -0.00000000000E+00 -0.16274827218E+03  0.16274827218E+03  0.00000000000E+00 0.  1.
         23    2    1    2    0    0  0.00000000000E+00  0.00000000000E+00 -0.15063560024E+03  0.17486094413E+03  0.88799018695E+02 0.  0.
        -13    1    3    3    0    0  0.21859615357E+02 -0.37933759693E+02 -0.89855541451E+02  0.99954145674E+02  0.00000000000E+00 0. -1.
         13    1    3    3    0    0 -0.21859615357E+02  0.37933759693E+02 -0.60780058788E+02  0.74906798452E+02  0.00000000000E+00 0.  1.
<mgrwt>
<rscale>  0 0.88799019E+02</rscale>
<asrwt>0</asrwt>
<pdfrwt beam="1">  1        1 0.18634881E-02 0.88799019E+02</pdfrwt>
<pdfrwt beam="2">  1       -1 0.25038195E-01 0.88799019E+02</pdfrwt>
<totfact> 0.78540217E+04</totfact>
</mgrwt>
</event>
<event>
 5    1  0.6113696E+000  0.8893132E+02  0.7546771E-02  0.1305460E+00
          2   -1    0    0  501    0  0.00000000000E+00  0.00000000000E+00  0.80368886540E+02  0.80368886540E+02  0.00000000000E+00 0. -1.
         -2   -1    0    0    0  501 -0.00000000000E+00 -0.00000000000E+00 -0.24601494484E+02  0.24601494484E+02  0.00000000000E+00 0.  1.
         23    2    1    2    0    0  0.00000000000E+00  0.00000000000E+00  0.55767392057E+02  0.10497038102E+03  0.88931315494E+02 0.  0.
        -13    1    3    3    0    0 -0.37919612798E+02 -0.22603903851E+02  0.21597694655E+02  0.49145639873E+02  0.00000000000E+00 0.  1.
         13    1    3    3    0    0  0.37919612798E+02  0.22603903851E+02  0.34169697402E+02  0.55824741151E+02  0.00000000000E+00 0. -1.
<mgrwt>
<rscale>  0 0.88931315E+02</rscale>
<asrwt>0</asrwt>
<pdfrwt beam="1">  1        2 0.12364444E-01 0.88931315E+02</pdfrwt>
<pdfrwt beam="2">  1       -2 0.37848453E-02 0.88931315E+02</pdfrwt>
<totfact> 0.12323468E+05</totfact>
</mgrwt>
</event>
<event>
 5    1  0.6113696E+000  0.9283345E+02  0.7546771E-02  0.1296132E+00
          2   -1    0    0  501    0  0.00000000000E+00  0.00000000000E+00  0.38109908824E+03  0.38109908824E+03  0.00000000000E+00 0. -1.
         -2   -1    0    0    0  501 -0.00000000000E+00 -0.00000000000E+00 -0.56534182688E+01  0.56534182688E+01  0.00000000000E+00 0.  1.
         23    2    1    2    0    0  0.00000000000E+00  0.00000000000E+00  0.37544566997E+03  0.38675250651E+03  0.92833454049E+02 0.  0.
        -13    1    3    3    0    0  0.16742215724E+02  0.40325650610E+02  0.12210822154E+03  0.12967990458E+03  0.00000000000E+00 0. -1.
         13    1    3    3    0    0 -0.16742215724E+02 -0.40325650610E+02  0.25333744843E+03  0.25707260193E+03  0.00000000000E+00 0.  1.
<mgrwt>
<rscale>  0 0.92833454E+02</rscale>
<asrwt>0</asrwt>
<pdfrwt beam="1">  1        2 0.58630609E-01 0.92833454E+02</pdfrwt>
<pdfrwt beam="2">  1       -2 0.86975696E-03 0.92833454E+02</pdfrwt>
<totfact> 0.18700037E+05</totfact>
</mgrwt>
</event>
<event>
 5    1  0.6113696E+000  0.8009752E+02  0.7546771E-02  0.1328775E+00
         -1   -1    0    0    0  501 -0.00000000000E+00  0.00000000000E+00  0.16532198025E+03  0.16532198025E+03  0.00000000000E+00 0.  1.
          1   -1    0    0  501    0  0.00000000000E+00 -0.00000000000E+00 -0.97016935419E+01  0.97016935419E+01  0.00000000000E+00 0. -1.
         23    2    1    2    0    0  0.00000000000E+00  0.00000000000E+00  0.15562028670E+03  0.17502367379E+03  0.80097520264E+02 0.  0.
        -13    1    3    3    0    0 -0.81772845964E+00  0.30322427387E+02  0.20670506046E+02  0.36706785513E+02  0.00000000000E+00 0. -1.
         13    1    3    3    0    0  0.81772845964E+00 -0.30322427387E+02  0.13494978066E+03  0.13831688828E+03  0.00000000000E+00 0.  1.
<mgrwt>
<rscale>  0 0.80097520E+02</rscale>
<asrwt>0</asrwt>
<pdfrwt beam="2">  1        1 0.14925684E-02 0.80097520E+02</pdfrwt>
<pdfrwt beam="1">  1       -1 0.25434149E-01 0.80097520E+02</pdfrwt>
<totfact> 0.10215414E+05</totfact>
</mgrwt>
</event>
<event>
 5    1  0.6113696E+000  0.9190230E+02  0.7546771E-02  0.1298309E+00
          3   -1    0    0  501    0  0.00000000000E+00  0.00000000000E+00  0.23862814520E+02  0.23862814520E+02  0.00000000000E+00 0. -1.
         -3   -1    0    0    0  501 -0.00000000000E+00 -0.00000000000E+00 -0.88485300542E+02  0.88485300542E+02  0.00000000000E+00 0.  1.
         23    2    1    2    0    0  0.00000000000E+00  0.00000000000E+00 -0.64622486021E+02  0.11234811506E+03  0.91902302792E+02 0.  0.
        -13    1    3    3    0    0 -0.18903496695E+02 -0.25054333734E+02 -0.73340597046E+02  0.79774087279E+02  0.00000000000E+00 0.  1.
         13    1    3    3    0    0  0.18903496695E+02  0.25054333734E+02  0.87181110249E+01  0.32574027783E+02  0.00000000000E+00 0. -1.
<mgrwt>
<rscale>  0 0.91902303E+02</rscale>
<asrwt>0</asrwt>
<pdfrwt beam="1">  1        3 0.36712021E-02 0.91902303E+02</pdfrwt>
<pdfrwt beam="2">  1       -3 0.13613123E-01 0.91902303E+02</pdfrwt>
<totfact> 0.33058452E+04</totfact>
</mgrwt>
</event>
<event>
 5    1  0.6113696E+000  0.8937091E+02  0.7546771E-02  0.1304382E+00
         -2   -1    0    0    0  501 -0.00000000000E+00  0.00000000000E+00  0.16050911179E+02  0.16050911179E+02  0.00000000000E+00 0.  1.
          2   -1    0    0  501    0  0.00000000000E+00 -0.00000000000E+00 -0.12440352914E+03  0.12440352914E+03  0.00000000000E+00 0. -1.
         23    2    1    2    0    0  0.00000000000E+00  0.00000000000E+00 -0.10835261796E+03  0.14045444032E+03  0.89370912418E+02 0.  0.
        -13    1    3    3    0    0  0.43686898948E+02 -0.65145199066E+01 -0.64812838060E+02  0.78432697816E+02  0.00000000000E+00 0. -1.
         13    1    3    3    0    0 -0.43686898948E+02  0.65145199066E+01 -0.43539779901E+02  0.62021742503E+02  0.00000000000E+00 0.  1.
<mgrwt>
<rscale>  0 0.89370912E+02</rscale>
<asrwt>0</asrwt>
<pdfrwt beam="2">  1        2 0.19139004E-01 0.89370912E+02</pdfrwt>
<pdfrwt beam="1">  1       -2 0.24693710E-02 0.89370912E+02</pdfrwt>
<totfact> 0.13874195E+05</totfact>
</mgrwt>
</event>
<event>
 5    1  0.6113696E+000  0.9036038E+02  0.7546771E-02  0.1301981E+00
         -1   -1    0    0    0  501 -0.00000000000E+00  0.00000000000E+00  0.74796471274E+01  0.74796471274E+01  0.00000000000E+00 0.  1.
          1   -1    0    0  501    0  0.00000000000E+00 -0.00000000000E+00 -0.27290721849E+03  0.27290721849E+03  0.00000000000E+00 0. -1.
         23    2    1    2    0    0  0.00000000000E+00  0.00000000000E+00 -0.26542757136E+03  0.28038686562E+03  0.90360382753E+02 0.  0.
        -13    1    3    3    0    0  0.17643162279E+02  0.31542648437E+02 -0.48587427011E+02  0.60555411890E+02  0.00000000000E+00 0.  1.
         13    1    3    3    0    0 -0.17643162279E+02 -0.31542648437E+02 -0.21684014435E+03  0.21983145373E+03  0.00000000000E+00 0. -1.
<mgrwt>
<rscale>  0 0.90360383E+02</rscale>
<asrwt>0</asrwt>
<pdfrwt beam="2">  1        1 0.41985719E-01 0.90360383E+02</pdfrwt>
<pdfrwt beam="1">  1       -1 0.11507151E-02 0.90360383E+02</pdfrwt>
<totfact> 0.12885739E+05</totfact>
</mgrwt>
</event>
<event>
 5    1  0.6113696E+000  0.9076826E+02  0.7546771E-02  0.1301002E+00
         -2   -1    0    0    0  501 -0.00000000000E+00  0.00000000000E+00  0.30579864311E+02  0.30579864311E+02  0.00000000000E+00 0.  1.
          2   -1    0    0  501    0  0.00000000000E+00 -0.00000000000E+00 -0.67355405698E+02  0.67355405698E+02  0.00000000000E+00 0. -1.
         23    2    1    2    0    0  0.00000000000E+00  0.00000000000E+00 -0.36775541387E+02  0.97935270009E+02  0.90768258039E+02 0.  0.
        -13    1    3    3    0    0 -0.42008793716E+02  0.14078215555E+02 -0.29002465219E+02  0.52953544655E+02  0.00000000000E+00 0. -1.
         13    1    3    3    0    0  0.42008793716E+02 -0.14078215555E+02 -0.77730761678E+01  0.44981725354E+02  0.00000000000E+00 0.  1.
<mgrwt>
<rscale>  0 0.90768258E+02</rscale>
<asrwt>0</asrwt>
<pdfrwt beam="2">  1        2 0.10362370E-01 0.90768258E+02</pdfrwt>
<pdfrwt beam="1">  1       -2 0.47045945E-02 0.90768258E+02</pdfrwt>
<totfact> 0.11083636E+05</totfact>
</mgrwt>
</event>
<event>
 5    1  0.6113696E+000  0.9133224E+02  0.7546771E-02  0.1299657E+00
         -1   -1    0    0    0  501 -0.00000000000E+00  0.00000000000E+00  0.39232733279E+02  0.39232733279E+02  0.00000000000E+00 0.  1.
          1   -1    0    0  501    0  0.00000000000E+00 -0.00000000000E+00 -0.53154457706E+02  0.53154457706E+02  0.00000000000E+00 0. -1.
         23    2    1    2    0    0  0.00000000000E+00  0.00000000000E+00 -0.13921724427E+02  0.92387190985E+02  0.91332243195E+02 0.  0.
        -13    1    3    3    0    0  0.17631285732E+02 -0.41425517504E+02  0.77329595811E+00  0.45028143685E+02  0.00000000000E+00 0. -1.
         13    1    3    3    0    0 -0.17631285732E+02  0.41425517504E+02 -0.14695020385E+02  0.47359047300E+02  0.00000000000E+00 0.  1.
<mgrwt>
<rscale>  0 0.91332243E+02</rscale>
<asrwt>0</asrwt>
<pdfrwt beam="2">  1        1 0.81776089E-02 0.91332243E+02</pdfrwt>
<pdfrwt beam="1">  1       -1 0.60358051E-02 0.91332243E+02</pdfrwt>
<totfact> 0.94180198E+04</totfact>
</mgrwt>
</event>
<event>
 5    1  0.6113696E+000  0.9067548E+02  0.7546771E-02  0.1301224E+00
          2   -1    0    0  501    0  0.00000000000E+00  0.00000000000E+00  0.20981732474E+02  0.20981732474E+02  0.00000000000E+00 0. -1.
         -2   -1    0    0    0  501 -0.00000000000E+00 -0.00000000000E+00 -0.97966685086E+02  0.97966685086E+02  0.00000000000E+00 0.  1.
         23    2    1    2    0    0  0.00000000000E+00  0.00000000000E+00 -0.76984952612E+02  0.11894841756E+03  0.90675482415E+02 0.  0.
        -13    1    3    3    0    0  0.40793289165E+02 -0.21982634783E+01 -0.64284881377E+02  0.76167386569E+02  0.00000000000E+00 0.  1.
         13    1    3    3    0    0 -0.40793289165E+02  0.21982634783E+01 -0.12700071236E+02  0.42781030990E+02  0.00000000000E+00 0. -1.
<mgrwt>
<rscale>  0 0.90675482E+02</rscale>
<asrwt>0</asrwt>
<pdfrwt beam="1">  1        2 0.32279588E-02 0.90675482E+02</pdfrwt>
<pdfrwt beam="2">  1       -2 0.15071798E-01 0.90675482E+02</pdfrwt>
<totfact> 0.81402595E+04</totfact>
</mgrwt>
</event>
<event>
 5    1  0.6113696E+000  0.7570256E+02  0.7546771E-02  0.1341709E+00
         -2   -1    0    0    0  501 -0.00000000000E+00  0.00000000000E+00  0.91373146937E+02  0.91373146937E+02  0.00000000000E+00 0.  1.
          2   -1    0    0  501    0  0.00000000000E+00 -0.00000000000E+00 -0.15679872720E+02  0.15679872720E+02  0.00000000000E+00 0. -1.
         23    2    1    2    0    0  0.00000000000E+00  0.00000000000E+00  0.75693274217E+02  0.10705301966E+03  0.75702557790E+02 0.  0.
        -13    1    3    3    0    0 -0.15451548799E+02 -0.12613710898E+02 -0.76448203594E+01  0.21361164323E+02  0.00000000000E+00 0. -1.
         13    1    3    3    0    0  0.15451548799E+02  0.12613710898E+02  0.83338094577E+02  0.85691855334E+02  0.00000000000E+00 0.  1.
<mgrwt>
<rscale>  0 0.75702558E+02</rscale>
<asrwt>0</asrwt>
<pdfrwt beam="2">  1        2 0.24122882E-02 0.75702558E+02</pdfrwt>
<pdfrwt beam="1">  1       -2 0.14057407E-01 0.75702558E+02</pdfrwt>
<totfact> 0.12995269E+05</totfact>
</mgrwt>
</event>
<event>
 5    1  0.6113696E+000  0.8096389E+02  0.7546771E-02  0.1326338E+00
         -2   -1    0    0    0  501 -0.00000000000E+00  0.00000000000E+00  0.89522750355E+01  0.89522750355E+01  0.00000000000E+00 0.  1.
          2   -1    0    0  501    0  0.00000000000E+00 -0.00000000000E+00 -0.18305825844E+03  0.18305825844E+03  0.00000000000E+00 0. -1.
         23    2    1    2    0    0  0.00000000000E+00  0.00000000000E+00 -0.17410598341E+03  0.19201053348E+03  0.80963890151E+02 0.  0.
        -13    1    3    3    0    0  0.31000291702E+02 -0.23873352721E+02 -0.62426124335E+02  0.73674799322E+02  0.00000000000E+00 0.  1.
         13    1    3    3    0    0 -0.31000291702E+02  0.23873352721E+02 -0.11167985907E+03  0.11833573416E+03  0.00000000000E+00 0. -1.
<mgrwt>
<rscale>  0 0.80963890E+02</rscale>
<asrwt>0</asrwt>
<pdfrwt beam="2">  1        2 0.28162806E-01 0.80963890E+02</pdfrwt>
<pdfrwt beam="1">  1       -2 0.13772732E-02 0.80963890E+02</pdfrwt>
<totfact> 0.20596376E+05</totfact>
</mgrwt>
</event>
<event>
 5    1  0.6113696E+000  0.9177628E+02  0.7546771E-02  0.1298606E+00
         -1   -1    0    0    0  501 -0.00000000000E+00  0.00000000000E+00  0.39096626386E+02  0.39096626386E+02  0.00000000000E+00 0.  1.
          1   -1    0    0  501    0  0.00000000000E+00 -0.00000000000E+00 -0.53859409151E+02  0.53859409151E+02  0.00000000000E+00 0. -1.
         23    2    1    2    0    0  0.00000000000E+00  0.00000000000E+00 -0.14762782765E+02  0.92956035537E+02  0.91776275735E+02 0.  0.
        -13    1    3    3    0    0  0.78745665494E+01 -0.32578212720E+02 -0.39127116499E+02  0.51519704851E+02  0.00000000000E+00 0. -1.
         13    1    3    3    0    0 -0.78745665494E+01  0.32578212720E+02  0.24364333734E+02  0.41436330686E+02  0.00000000000E+00 0.  1.
<mgrwt>
<rscale>  0 0.91776276E+02</rscale>
<asrwt>0</asrwt>
<pdfrwt beam="2">  1        1 0.82860629E-02 0.91776276E+02</pdfrwt>
<pdfrwt beam="1">  1       -1 0.60148656E-02 0.91776276E+02</pdfrwt>
<totfact> 0.93098375E+04</totfact>
</mgrwt>
</event>
<event>
 5    1  0.6113696E+000  0.9062253E+02  0.7546771E-02  0.1301351E+00
          2   -1    0    0  501    0  0.00000000000E+00  0.00000000000E+00  0.13224516484E+03  0.13224516484E+03  0.00000000000E+00 0. -1.
         -2   -1    0    0    0  501 -0.00000000000E+00 -0.00000000000E+00 -0.15525034967E+02  0.15525034967E+02  0.00000000000E+00 0.  1.
         23    2    1    2    0    0  0.00000000000E+00  0.00000000000E+00  0.11672012987E+03  0.14777019981E+03  0.90622531600E+02 0.  0.
        -13    1    3    3    0    0  0.38429045252E+01  0.27066555769E+02 -0.56224508994E+00  0.27343783131E+02  0.00000000000E+00 0.  1.
         13    1    3    3    0    0 -0.38429045252E+01 -0.27066555769E+02  0.11728237496E+03  0.12042641668E+03  0.00000000000E+00 0. -1.
<mgrwt>
<rscale>  0 0.90622532E+02</rscale>
<asrwt>0</asrwt>
<pdfrwt beam="1">  1        2 0.20345409E-01 0.90622532E+02</pdfrwt>
<pdfrwt beam="2">  1       -2 0.23884670E-02 0.90622532E+02</pdfrwt>
<totfact> 0.13627716E+05</totfact>
</mgrwt>
</event>
<event>
 5    1  0.6113696E+000  0.8989284E+02  0.7546771E-02  0.1303111E+00
          3   -1    0    0  501    0  0.00000000000E+00  0.00000000000E+00  0.22542615782E+03  0.22542615782E+03  0.00000000000E+00 0. -1.
         -3   -1    0    0    0  501 -0.00000000000E+00 -0.00000000000E+00 -0.89616070100E+01  0.89616070100E+01  0.00000000000E+00 0.  1.
         23    2    1    2    0    0  0.00000000000E+00  0.00000000000E+00  0.21646455081E+03  0.23438776483E+03  0.89892839229E+02 0.  0.
        -13    1    3    3    0    0  0.22739439925E+02  0.28715120668E+02  0.17615227585E+03  0.17992016165E+03  0.00000000000E+00 0. -1.
         13    1    3    3    0    0 -0.22739439925E+02 -0.28715120668E+02  0.40312274959E+02  0.54467603174E+02  0.00000000000E+00 0.  1.
<mgrwt>
<rscale>  0 0.89892839E+02</rscale>
<asrwt>0</asrwt>
<pdfrwt beam="1">  1        3 0.34680943E-01 0.89892839E+02</pdfrwt>
<pdfrwt beam="2">  1       -3 0.13787089E-02 0.89892839E+02</pdfrwt>
<totfact> 0.27854718E+04</totfact>
</mgrwt>
</event>
<event>
 5    1  0.6113696E+000  0.9013268E+02  0.7546771E-02  0.1302531E+00
          1   -1    0    0  501    0  0.00000000000E+00  0.00000000000E+00  0.20515809465E+02  0.20515809465E+02  0.00000000000E+00 0. -1.
         -1   -1    0    0    0  501 -0.00000000000E+00 -0.00000000000E+00 -0.98995615093E+02  0.98995615093E+02  0.00000000000E+00 0.  1.
         23    2    1    2    0    0  0.00000000000E+00  0.00000000000E+00 -0.78479805628E+02  0.11951142456E+03  0.90132683907E+02 0.  0.
        -13    1    3    3    0    0 -0.42602943346E+02 -0.13167364559E+02 -0.30587136675E+02  0.54073683073E+02  0.00000000000E+00 0. -1.
         13    1    3    3    0    0  0.42602943346E+02  0.13167364559E+02 -0.47892668953E+02  0.65437741485E+02  0.00000000000E+00 0.  1.
<mgrwt>
<rscale>  0 0.90132684E+02</rscale>
<asrwt>0</asrwt>
<pdfrwt beam="1">  1        1 0.31562784E-02 0.90132684E+02</pdfrwt>
<pdfrwt beam="2">  1       -1 0.15230094E-01 0.90132684E+02</pdfrwt>
<totfact> 0.83974428E+04</totfact>
</mgrwt>
</event>
<event>
 5    1  0.6113696E+000  0.9193624E+02  0.7546771E-02  0.1298229E+00
          1   -1    0    0  501    0  0.00000000000E+00  0.00000000000E+00  0.96968008306E+02  0.96968008306E+02  0.00000000000E+00 0.  1.
         -1   -1    0    0    0  501 -0.00000000000E+00 -0.00000000000E+00 -0.21791391560E+02  0.21791391560E+02  0.00000000000E+00 0. -1.
         23    2    1    2    0    0  0.00000000000E+00  0.00000000000E+00  0.75176616747E+02  0.11875939987E+03  0.91936235245E+02 0.  0.
        -13    1    3    3    0    0 -0.76280365161E+01  0.25481824154E+02 -0.10840701772E+02  0.28723354926E+02  0.00000000000E+00 0. -1.
         13    1    3    3    0    0  0.76280365161E+01 -0.25481824154E+02  0.86017318518E+02  0.90036044940E+02  0.00000000000E+00 0.  1.
<mgrwt>
<rscale>  0 0.91936235E+02</rscale>
<asrwt>0</asrwt>
<pdfrwt beam="1">  1        1 0.14918155E-01 0.91936235E+02</pdfrwt>
<pdfrwt beam="2">  1       -1 0.33525218E-02 0.91936235E+02</pdfrwt>
<totfact> 0.10159155E+05</totfact>
</mgrwt>
</event>
<event>
 5    1  0.6113696E+000  0.9094123E+02  0.7546771E-02  0.1300588E+00
          1   -1    0    0  501    0  0.00000000000E+00  0.00000000000E+00  0.12877846663E+02  0.12877846663E+02  0.00000000000E+00 0. -1.
         -1   -1    0    0    0  501 -0.00000000000E+00 -0.00000000000E+00 -0.16055299246E+03  0.16055299246E+03  0.00000000000E+00 0.  1.
         23    2    1    2    0    0  0.00000000000E+00  0.00000000000E+00 -0.14767514580E+03  0.17343083912E+03  0.90941229774E+02 0.  0.
        -13    1    3    3    0    0 -0.15618762127E+02 -0.33039775298E+02 -0.22240824977E+02  0.42781149795E+02  0.00000000000E+00 0. -1.
         13    1    3    3    0    0  0.15618762127E+02  0.33039775298E+02 -0.12543432082E+03  0.13064968933E+03  0.00000000000E+00 0.  1.
<mgrwt>
<rscale>  0 0.90941230E+02</rscale>
<asrwt>0</asrwt>
<pdfrwt beam="1">  1        1 0.19812072E-02 0.90941230E+02</pdfrwt>
<pdfrwt beam="2">  1       -1 0.24700460E-01 0.90941230E+02</pdfrwt>
<totfact> 0.74077467E+04</totfact>
</mgrwt>
</event>
<event>
 5    1  0.6113696E+000  0.9286524E+02  0.7546771E-02  0.1296058E+00
          1   -1    0    0  501    0  0.00000000000E+00  0.00000000000E+00  0.11755997419E+02  0.11755997419E+02  0.00000000000E+00 0. -1.
         -1   -1    0    0    0  501 -0.00000000000E+00 -0.00000000000E+00 -0.18339473272E+03  0.18339473272E+03  0.00000000000E+00 0.  1.
         23    2    1    2    0    0  0.00000000000E+00  0.00000000000E+00 -0.17163873530E+03  0.19515073014E+03  0.92865235790E+02 0.  0.
        -13    1    3    3    0    0  0.28321279385E+02 -0.97064964186E+01 -0.11235203683E+02  0.31977190942E+02  0.00000000000E+00 0. -1.
         13    1    3    3    0    0 -0.28321279385E+02  0.97064964186E+01 -0.16040353162E+03  0.16317353920E+03  0.00000000000E+00 0.  1.
<mgrwt>
<rscale>  0 0.92865236E+02</rscale>
<asrwt>0</asrwt>
<pdfrwt beam="1">  1        1 0.18086151E-02 0.92865236E+02</pdfrwt>
<pdfrwt beam="2">  1       -1 0.28214572E-01 0.92865236E+02</pdfrwt>
<totfact> 0.67793030E+04</totfact>
</mgrwt>
</event>
<event>
 5    1  0.6113696E+000  0.9093472E+02  0.7546771E-02  0.1300604E+00
          1   -1    0    0  501    0  0.00000000000E+00  0.00000000000E+00  0.17335650414E+03  0.17335650414E+03  0.00000000000E+00 0. -1.
         -1   -1    0    0    0  501 -0.00000000000E+00 -0.00000000000E+00 -0.11925026533E+02  0.11925026533E+02  0.00000000000E+00 0.  1.
         23    2    1    2    0    0  0.00000000000E+00  0.00000000000E+00  0.16143147761E+03  0.18528153067E+03  0.90934721894E+02 0.  0.
        -13    1    3    3    0    0  0.30126321525E+02  0.21641290538E+02  0.27142451662E+02  0.45963609377E+02  0.00000000000E+00 0.  1.
         13    1    3    3    0    0 -0.30126321525E+02 -0.21641290538E+02  0.13428902595E+03  0.13931792130E+03  0.00000000000E+00 0. -1.
<mgrwt>
<rscale>  0 0.90934722E+02</rscale>
<asrwt>0</asrwt>
<pdfrwt beam="1">  1        1 0.26670230E-01 0.90934722E+02</pdfrwt>
<pdfrwt beam="2">  1       -1 0.18346196E-02 0.90934722E+02</pdfrwt>
<totfact> 0.11602629E+05</totfact>
</mgrwt>
</event>
<event>
 5    1  0.6113696E+000  0.9524881E+02  0.7546771E-02  0.1290617E+00
         -2   -1    0    0    0  501 -0.00000000000E+00  0.00000000000E+00  0.16536240989E+02  0.16536240989E+02  0.00000000000E+00 0.  1.
          2   -1    0    0  501    0  0.00000000000E+00 -0.00000000000E+00 -0.13715837058E+03  0.13715837058E+03  0.00000000000E+00 0. -1.
         23    2    1    2    0    0  0.00000000000E+00  0.00000000000E+00 -0.12062212959E+03  0.15369461157E+03  0.95248808278E+02 0.  0.
        -13    1    3    3    0    0 -0.42650886122E+02  0.20308784091E+02 -0.70064954581E+02  0.84502323392E+02  0.00000000000E+00 0.  1.
         13    1    3    3    0    0  0.42650886122E+02 -0.20308784091E+02 -0.50557175014E+02  0.69192288180E+02  0.00000000000E+00 0. -1.
<mgrwt>
<rscale>  0 0.95248808E+02</rscale>
<asrwt>0</asrwt>
<pdfrwt beam="2">  1        2 0.21101287E-01 0.95248808E+02</pdfrwt>
<pdfrwt beam="1">  1       -2 0.25440371E-02 0.95248808E+02</pdfrwt>
<totfact> 0.12039906E+05</totfact>
</mgrwt>
</event>
<event>
 5    1  0.6113696E+000  0.9505549E+02  0.7546771E-02  0.1291051E+00
         -3   -1    0    0    0  501 -0.00000000000E+00  0.00000000000E+00  0.13814777075E+02  0.13814777075E+02  0.00000000000E+00 0.  1.
          3   -1    0    0  501    0  0.00000000000E+00 -0.00000000000E+00 -0.16351233158E+03  0.16351233158E+03  0.00000000000E+00 0. -1.
         23    2    1    2    0    0  0.00000000000E+00  0.00000000000E+00 -0.14969755451E+03  0.17732710866E+03  0.95055487161E+02 0.  0.
        -13    1    3    3    0    0 -0.45701756435E+02 -0.84184859291E+01 -0.56252989568E+02  0.72965199115E+02  0.00000000000E+00 0. -1.
         13    1    3    3    0    0  0.45701756435E+02  0.84184859291E+01 -0.93444564941E+02  0.10436190954E+03  0.00000000000E+00 0.  1.
<mgrwt>
<rscale>  0 0.95055487E+02</rscale>
<asrwt>0</asrwt>
<pdfrwt beam="2">  1        3 0.25155741E-01 0.95055487E+02</pdfrwt>
<pdfrwt beam="1">  1       -3 0.21253505E-02 0.95055487E+02</pdfrwt>
<totfact> 0.26539003E+04</totfact>
</mgrwt>
</event>
<event>
 5    1  0.6113696E+000  0.8649105E+02  0.7546771E-02  0.1311579E+00
          3   -1    0    0  501    0  0.00000000000E+00  0.00000000000E+00  0.39430932821E+03  0.39430932821E+03  0.00000000000E+00 0. -1.
         -3   -1    0    0    0  501 -0.00000000000E+00 -0.00000000000E+00 -0.47429148076E+01  0.47429148076E+01  0.00000000000E+00 0.  1.
         23    2    1    2    0    0  0.00000000000E+00  0.00000000000E+00  0.38956641341E+03  0.39905224302E+03  0.86491052753E+02 0.  0.
        -13    1    3    3    0    0 -0.40435820365E+02  0.10226029116E+02  0.14206699390E+03  0.14806302035E+03  0.00000000000E+00 0.  1.
         13    1    3    3    0    0  0.40435820365E+02 -0.10226029116E+02  0.24749941951E+03  0.25098922267E+03  0.00000000000E+00 0. -1.
<mgrwt>
<rscale>  0 0.86491053E+02</rscale>
<asrwt>0</asrwt>
<pdfrwt beam="1">  1        3 0.60662948E-01 0.86491053E+02</pdfrwt>
<pdfrwt beam="2">  1       -3 0.72967951E-03 0.86491053E+02</pdfrwt>
<totfact> 0.23758380E+04</totfact>
</mgrwt>
</event>
<event>
 5    1  0.6113696E+000  0.9378712E+02  0.7546771E-02  0.1293931E+00
          3   -1    0    0  501    0  0.00000000000E+00  0.00000000000E+00  0.19603456693E+03  0.19603456693E+03  0.00000000000E+00 0. -1.
         -3   -1    0    0    0  501 -0.00000000000E+00 -0.00000000000E+00 -0.11217441005E+02  0.11217441005E+02  0.00000000000E+00 0.  1.
         23    2    1    2    0    0  0.00000000000E+00  0.00000000000E+00  0.18481712592E+03  0.20725200793E+03  0.93787124690E+02 0.  0.
        -13    1    3    3    0    0 -0.44326611796E+02  0.14934366639E+02  0.99778337090E+02  0.11019800530E+03  0.00000000000E+00 0.  1.
         13    1    3    3    0    0  0.44326611796E+02 -0.14934366639E+02  0.85038788831E+02  0.97054002628E+02  0.00000000000E+00 0. -1.
<mgrwt>
<rscale>  0 0.93787125E+02</rscale>
<asrwt>0</asrwt>
<pdfrwt beam="1">  1        3 0.30159162E-01 0.93787125E+02</pdfrwt>
<pdfrwt beam="2">  1       -3 0.17257603E-02 0.93787125E+02</pdfrwt>
<totfact> 0.26060323E+04</totfact>
</mgrwt>
</event>
<event>
 5    1  0.6113696E+000  0.8938491E+02  0.7546771E-02  0.1304348E+00
          2   -1    0    0  501    0  0.00000000000E+00  0.00000000000E+00  0.11781539154E+03  0.11781539154E+03  0.00000000000E+00 0. -1.
         -2   -1    0    0    0  501 -0.00000000000E+00 -0.00000000000E+00 -0.16953774371E+02  0.16953774371E+02  0.00000000000E+00 0.  1.
         23    2    1    2    0    0  0.00000000000E+00  0.00000000000E+00  0.10086161717E+03  0.13476916591E+03  0.89384910711E+02 0.  0.
        -13    1    3    3    0    0 -0.23940645565E+01 -0.44164454657E+02  0.60106804653E+02  0.74626125223E+02  0.00000000000E+00 0. -1.
         13    1    3    3    0    0  0.23940645565E+01  0.44164454657E+02  0.40754812519E+02  0.60143040692E+02  0.00000000000E+00 0.  1.
<mgrwt>
<rscale>  0 0.89384911E+02</rscale>
<asrwt>0</asrwt>
<pdfrwt beam="1">  1        2 0.18125444E-01 0.89384911E+02</pdfrwt>
<pdfrwt beam="2">  1       -2 0.26082730E-02 0.89384911E+02</pdfrwt>
<totfact> 0.13629294E+05</totfact>
</mgrwt>
</event>
<event>
 5    1  0.6113696E+000  0.9006663E+02  0.7546771E-02  0.1302690E+00
          2   -1    0    0  501    0  0.00000000000E+00  0.00000000000E+00  0.75560934393E+02  0.75560934393E+02  0.00000000000E+00 0. -1.
         -2   -1    0    0    0  501 -0.00000000000E+00 -0.00000000000E+00 -0.26839260790E+02  0.26839260790E+02  0.00000000000E+00 0.  1.
         23    2    1    2    0    0  0.00000000000E+00  0.00000000000E+00  0.48721673603E+02  0.10240019518E+03  0.90066633638E+02 0.  0.
        -13    1    3    3    0    0  0.18822358307E+02 -0.40713536972E+02  0.19795161607E+02  0.49027764461E+02  0.00000000000E+00 0. -1.
         13    1    3    3    0    0 -0.18822358307E+02  0.40713536972E+02  0.28926511995E+02  0.53372430722E+02  0.00000000000E+00 0.  1.
<mgrwt>
<rscale>  0 0.90066634E+02</rscale>
<asrwt>0</asrwt>
<pdfrwt beam="1">  1        2 0.11624759E-01 0.90066634E+02</pdfrwt>
<pdfrwt beam="2">  1       -2 0.41291171E-02 0.90066634E+02</pdfrwt>
<totfact> 0.11692679E+05</totfact>
</mgrwt>
</event>
<event>
 5    1  0.6113696E+000  0.9073555E+02  0.7546771E-02  0.1301080E+00
         -1   -1    0    0    0  501 -0.00000000000E+00  0.00000000000E+00  0.26182132407E+02  0.26182132407E+02  0.00000000000E+00 0.  1.
          1   -1    0    0  501    0  0.00000000000E+00 -0.00000000000E+00 -0.78612206830E+02  0.78612206830E+02  0.00000000000E+00 0. -1.
         23    2    1    2    0    0  0.00000000000E+00  0.00000000000E+00 -0.52430074423E+02  0.10479433924E+03  0.90735554400E+02 0.  0.
        -13    1    3    3    0    0 -0.11084054028E+02  0.41481573212E+02 -0.92937302251E+01  0.43931202935E+02  0.00000000000E+00 0. -1.
         13    1    3    3    0    0  0.11084054028E+02 -0.41481573212E+02 -0.43136344197E+02  0.60863136302E+02  0.00000000000E+00 0.  1.
<mgrwt>
<rscale>  0 0.90735554E+02</rscale>
<asrwt>0</asrwt>
<pdfrwt beam="2">  1        1 0.12094186E-01 0.90735554E+02</pdfrwt>
<pdfrwt beam="1">  1       -1 0.40280204E-02 0.90735554E+02</pdfrwt>
<totfact> 0.10181345E+05</totfact>
</mgrwt>
</event>
<event>
 5    1  0.6113696E+000  0.9405926E+02  0.7546771E-02  0.1293309E+00
          1   -1    0    0  501    0  0.00000000000E+00  0.00000000000E+00  0.49850742639E+02  0.49850742639E+02  0.00000000000E+00 0. -1.
         -1   -1    0    0    0  501 -0.00000000000E+00 -0.00000000000E+00 -0.44368163061E+02  0.44368163061E+02  0.00000000000E+00 0.  1.
         23    2    1    2    0    0  0.00000000000E+00  0.00000000000E+00  0.54825795773E+01  0.94218905700E+02  0.94059255326E+02 0.  0.
        -13    1    3    3    0    0  0.28860220754E+02  0.18774530698E+02 -0.29350418705E+02  0.45242042650E+02  0.00000000000E+00 0.  1.
         13    1    3    3    0    0 -0.28860220754E+02 -0.18774530698E+02  0.34832998283E+02  0.48976863051E+02  0.00000000000E+00 0. -1.
<mgrwt>
<rscale>  0 0.94059255E+02</rscale>
<asrwt>0</asrwt>
<pdfrwt beam="1">  1        1 0.76693450E-02 0.94059255E+02</pdfrwt>
<pdfrwt beam="2">  1       -1 0.68258713E-02 0.94059255E+02</pdfrwt>
<totfact> 0.85886314E+04</totfact>
</mgrwt>
</event>
<event>
 5    1  0.6113696E+000  0.8923572E+02  0.7546771E-02  0.1304713E+00
         -3   -1    0    0    0  501 -0.00000000000E+00  0.00000000000E+00  0.25968941350E+03  0.25968941350E+03  0.00000000000E+00 0.  1.
          3   -1    0    0  501    0  0.00000000000E+00 -0.00000000000E+00 -0.76659005483E+01  0.76659005483E+01  0.00000000000E+00 0. -1.
         23    2    1    2    0    0  0.00000000000E+00  0.00000000000E+00  0.25202351295E+03  0.26735531405E+03  0.89235715212E+02 0.  0.
        -13    1    3    3    0    0 -0.38574187272E+02 -0.20507712404E+02  0.15317841819E+03  0.15928641496E+03  0.00000000000E+00 0.  1.
         13    1    3    3    0    0  0.38574187272E+02  0.20507712404E+02  0.98845094766E+02  0.10806889909E+03  0.00000000000E+00 0. -1.
<mgrwt>
<rscale>  0 0.89235715E+02</rscale>
<asrwt>0</asrwt>
<pdfrwt beam="2">  1        3 0.11793695E-02 0.89235715E+02</pdfrwt>
<pdfrwt beam="1">  1       -3 0.39952211E-01 0.89235715E+02</pdfrwt>
<totfact> 0.26851647E+04</totfact>
</mgrwt>
</event>
<event>
 5    1  0.6113696E+000  0.9152993E+02  0.7546771E-02  0.1299188E+00
          2   -1    0    0  501    0  0.00000000000E+00  0.00000000000E+00  0.11130139885E+02  0.11130139885E+02  0.00000000000E+00 0. -1.
         -2   -1    0    0    0  501 -0.00000000000E+00 -0.00000000000E+00 -0.18817661445E+03  0.18817661445E+03  0.00000000000E+00 0.  1.
         23    2    1    2    0    0  0.00000000000E+00  0.00000000000E+00 -0.17704647456E+03  0.19930675433E+03  0.91529930447E+02 0.  0.
        -13    1    3    3    0    0  0.29073842553E+02 -0.16129498243E+02 -0.20044885397E+02  0.38823272208E+02  0.00000000000E+00 0. -1.
         13    1    3    3    0    0 -0.29073842553E+02  0.16129498243E+02 -0.15700158917E+03  0.16048348213E+03  0.00000000000E+00 0.  1.
<mgrwt>
<rscale>  0 0.91529930E+02</rscale>
<asrwt>0</asrwt>
<pdfrwt beam="1">  1        2 0.17123292E-02 0.91529930E+02</pdfrwt>
<pdfrwt beam="2">  1       -2 0.28950248E-01 0.91529930E+02</pdfrwt>
<totfact> 0.63326280E+04</totfact>
</mgrwt>
</event>
<event>
 5    1  0.6113696E+000  0.9201120E+02  0.7546771E-02  0.1298053E+00
         -1   -1    0    0    0  501 -0.00000000000E+00  0.00000000000E+00  0.33336872394E+02  0.33336872394E+02  0.00000000000E+00 0.  1.
          1   -1    0    0  501    0  0.00000000000E+00 -0.00000000000E+00 -0.63488716902E+02  0.63488716902E+02  0.00000000000E+00 0. -1.
         23    2    1    2    0    0  0.00000000000E+00  0.00000000000E+00 -0.30151844509E+02  0.96825589296E+02  0.92011200488E+02 0.  0.
        -13    1    3    3    0    0  0.11122244869E+02  0.38432649335E+02  0.88223148257E+01  0.40970795754E+02  0.00000000000E+00 0.  1.
         13    1    3    3    0    0 -0.11122244869E+02 -0.38432649335E+02 -0.38974159335E+02  0.55854793542E+02  0.00000000000E+00 0. -1.
<mgrwt>
<rscale>  0 0.92011200E+02</rscale>
<asrwt>0</asrwt>
<pdfrwt beam="2">  1        1 0.97674948E-02 0.92011200E+02</pdfrwt>
<pdfrwt beam="1">  1       -1 0.51287497E-02 0.92011200E+02</pdfrwt>
<totfact> 0.94777526E+04</totfact>
</mgrwt>
</event>
<event>
 5    1  0.6113696E+000  0.8920252E+02  0.7546771E-02  0.1304794E+00
         -1   -1    0    0    0  501 -0.00000000000E+00  0.00000000000E+00  0.32357197818E+02  0.32357197818E+02  0.00000000000E+00 0.  1.
          1   -1    0    0  501    0  0.00000000000E+00 -0.00000000000E+00 -0.61478515790E+02  0.61478515790E+02  0.00000000000E+00 0. -1.
         23    2    1    2    0    0  0.00000000000E+00  0.00000000000E+00 -0.29121317972E+02  0.93835713608E+02  0.89202522318E+02 0.  0.
        -13    1    3    3    0    0 -0.43420115218E+02  0.22940294163E+01 -0.41096710178E+01  0.43674459039E+02  0.00000000000E+00 0. -1.
         13    1    3    3    0    0  0.43420115218E+02 -0.22940294163E+01 -0.25011646955E+02  0.50161254569E+02  0.00000000000E+00 0.  1.
<mgrwt>
<rscale>  0 0.89202522E+02</rscale>
<asrwt>0</asrwt>
<pdfrwt beam="2">  1        1 0.94582331E-02 0.89202522E+02</pdfrwt>
<pdfrwt beam="1">  1       -1 0.49780305E-02 0.89202522E+02</pdfrwt>
<totfact> 0.10276175E+05</totfact>
</mgrwt>
</event>
<event>
 5    1  0.6113696E+000  0.9595214E+02  0.7546771E-02  0.1289046E+00
          4   -1    0    0  501    0  0.00000000000E+00  0.00000000000E+00  0.54206197129E+02  0.54206197129E+02  0.00000000000E+00 0. -1.
         -4   -1    0    0    0  501 -0.00000000000E+00 -0.00000000000E+00 -0.42461992873E+02  0.42461992873E+02  0.00000000000E+00 0.  1.
         23    2    1    2    0    0  0.00000000000E+00  0.00000000000E+00  0.11744204256E+02  0.96668190001E+02  0.95952137155E+02 0.  0.
        -13    1    3    3    0    0  0.19861396572E+02  0.10631344851E+02  0.48546231967E+02  0.53518568790E+02  0.00000000000E+00 0. -1.
         13    1    3    3    0    0 -0.19861396572E+02 -0.10631344851E+02 -0.36802027710E+02  0.43149621212E+02  0.00000000000E+00 0.  1.
<mgrwt>
<rscale>  0 0.95952137E+02</rscale>
<asrwt>0</asrwt>
<pdfrwt beam="1">  1        4 0.83394149E-02 0.95952137E+02</pdfrwt>
<pdfrwt beam="2">  1       -4 0.65326143E-02 0.95952137E+02</pdfrwt>
<totfact> 0.23202393E+04</totfact>
</mgrwt>
</event>
<event>
 5    1  0.6113696E+000  0.8327777E+02  0.7546771E-02  0.1319999E+00
          2   -1    0    0  501    0  0.00000000000E+00  0.00000000000E+00  0.28440606879E+02  0.28440606879E+02  0.00000000000E+00 0. -1.
         -2   -1    0    0    0  501 -0.00000000000E+00 -0.00000000000E+00 -0.60962019559E+02  0.60962019559E+02  0.00000000000E+00 0.  1.
         23    2    1    2    0    0  0.00000000000E+00  0.00000000000E+00 -0.32521412680E+02  0.89402626438E+02  0.83277772132E+02 0.  0.
        -13    1    3    3    0    0  0.21645656533E+02 -0.67037017338E+01 -0.53763060989E+02  0.58343301163E+02  0.00000000000E+00 0.  1.
         13    1    3    3    0    0 -0.21645656533E+02  0.67037017338E+01  0.21241648309E+02  0.31059325275E+02  0.00000000000E+00 0. -1.
<mgrwt>
<rscale>  0 0.83277772E+02</rscale>
<asrwt>0</asrwt>
<pdfrwt beam="1">  1        2 0.43754780E-02 0.83277772E+02</pdfrwt>
<pdfrwt beam="2">  1       -2 0.93787722E-02 0.83277772E+02</pdfrwt>
<totfact> 0.11390246E+05</totfact>
</mgrwt>
</event>
<event>
 5    1  0.6113696E+000  0.9108787E+02  0.7546771E-02  0.1300238E+00
         -2   -1    0    0    0  501 -0.00000000000E+00  0.00000000000E+00  0.35014124636E+03  0.35014124636E+03  0.00000000000E+00 0.  1.
          2   -1    0    0  501    0  0.00000000000E+00 -0.00000000000E+00 -0.59240378297E+01  0.59240378297E+01  0.00000000000E+00 0. -1.
         23    2    1    2    0    0  0.00000000000E+00  0.00000000000E+00  0.34421720853E+03  0.35606528419E+03  0.91087869427E+02 0.  0.
        -13    1    3    3    0    0 -0.42735580876E+02 -0.10654555502E+02  0.12679071922E+03  0.13422271010E+03  0.00000000000E+00 0.  1.
         13    1    3    3    0    0  0.42735580876E+02  0.10654555502E+02  0.21742648931E+03  0.22184257409E+03  0.00000000000E+00 0. -1.
<mgrwt>
<rscale>  0 0.91087869E+02</rscale>
<asrwt>0</asrwt>
<pdfrwt beam="2">  1        2 0.91139071E-03 0.91087869E+02</pdfrwt>
<pdfrwt beam="1">  1       -2 0.53867868E-01 0.91087869E+02</pdfrwt>
<totfact> 0.46661839E+04</totfact>
</mgrwt>
</event>
<event>
 5    1  0.6113696E+000  0.9216304E+02  0.7546771E-02  0.1297697E+00
         -1   -1    0    0    0  501 -0.00000000000E+00  0.00000000000E+00  0.15047957268E+02  0.15047957268E+02  0.00000000000E+00 0.  1.
          1   -1    0    0  501    0  0.00000000000E+00 -0.00000000000E+00 -0.14111593829E+03  0.14111593829E+03  0.00000000000E+00 0. -1.
         23    2    1    2    0    0  0.00000000000E+00  0.00000000000E+00 -0.12606798102E+03  0.15616389556E+03  0.92163042685E+02 0.  0.
        -13    1    3    3    0    0  0.20819303364E+02 -0.37689290078E+02 -0.35213282903E+02  0.55622848471E+02  0.00000000000E+00 0.  1.
         13    1    3    3    0    0 -0.20819303364E+02  0.37689290078E+02 -0.90854698117E+02  0.10054104709E+03  0.00000000000E+00 0. -1.
<mgrwt>
<rscale>  0 0.92163043E+02</rscale>
<asrwt>0</asrwt>
<pdfrwt beam="2">  1        1 0.21710144E-01 0.92163043E+02</pdfrwt>
<pdfrwt beam="1">  1       -1 0.23150703E-02 0.92163043E+02</pdfrwt>
<totfact> 0.10770826E+05</totfact>
</mgrwt>
</event>
<event>
 5    1  0.6113696E+000  0.9003374E+02  0.7546771E-02  0.1302770E+00
          1   -1    0    0  501    0  0.00000000000E+00  0.00000000000E+00  0.21539139671E+02  0.21539139671E+02  0.00000000000E+00 0. -1.
         -1   -1    0    0    0  501 -0.00000000000E+00 -0.00000000000E+00 -0.94085403747E+02  0.94085403747E+02  0.00000000000E+00 0.  1.
         23    2    1    2    0    0  0.00000000000E+00  0.00000000000E+00 -0.72546264076E+02  0.11562454342E+03  0.90033741504E+02 0.  0.
        -13    1    3    3    0    0  0.22085039655E+02  0.35043349242E+02 -0.13635100232E+02  0.43608499871E+02  0.00000000000E+00 0. -1.
         13    1    3    3    0    0 -0.22085039655E+02 -0.35043349242E+02 -0.58911163844E+02  0.72016043547E+02  0.00000000000E+00 0.  1.
<mgrwt>
<rscale>  0 0.90033742E+02</rscale>
<asrwt>0</asrwt>
<pdfrwt beam="1">  1        1 0.33137139E-02 0.90033742E+02</pdfrwt>
<pdfrwt beam="2">  1       -1 0.14474677E-01 0.90033742E+02</pdfrwt>
<totfact> 0.84995769E+04</totfact>
</mgrwt>
</event>
<event>
 5    1  0.6113696E+000  0.8829152E+02  0.7546771E-02  0.1307043E+00
         -1   -1    0    0    0  501 -0.00000000000E+00  0.00000000000E+00  0.48063111365E+02  0.48063111365E+02  0.00000000000E+00 0.  1.
          1   -1    0    0  501    0  0.00000000000E+00 -0.00000000000E+00 -0.40547692271E+02  0.40547692271E+02  0.00000000000E+00 0. -1.
         23    2    1    2    0    0  0.00000000000E+00  0.00000000000E+00  0.75154190944E+01  0.88610803636E+02  0.88291522792E+02 0.  0.
        -13    1    3    3    0    0 -0.15716164339E+02 -0.39134314277E+02 -0.93415342212E+01  0.43194405160E+02  0.00000000000E+00 0. -1.
         13    1    3    3    0    0  0.15716164339E+02  0.39134314277E+02  0.16856953316E+02  0.45416398476E+02  0.00000000000E+00 0.  1.
<mgrwt>
<rscale>  0 0.88291523E+02</rscale>
<asrwt>0</asrwt>
<pdfrwt beam="2">  1        1 0.62381065E-02 0.88291523E+02</pdfrwt>
<pdfrwt beam="1">  1       -1 0.73943248E-02 0.88291523E+02</pdfrwt>
<totfact> 0.99451518E+04</totfact>
</mgrwt>
</event>
<event>
 5    1  0.6113696E+000  0.9108530E+02  0.7546771E-02  0.1300245E+00
         -1   -1    0    0    0  501 -0.00000000000E+00  0.00000000000E+00  0.45297496023E+01  0.45297496023E+01  0.00000000000E+00 0.  1.
          1   -1    0    0  501    0  0.00000000000E+00 -0.00000000000E+00 -0.45789131826E+03  0.45789131826E+03  0.00000000000E+00 0. -1.
         23    2    1    2    0    0  0.00000000000E+00  0.00000000000E+00 -0.45336156866E+03  0.46242106786E+03  0.91085301049E+02 0.  0.
        -13    1    3    3    0    0  0.42182217289E+02 -0.16551400138E+02 -0.24985938928E+03  0.25393503640E+03  0.00000000000E+00 0.  1.
         13    1    3    3    0    0 -0.42182217289E+02  0.16551400138E+02 -0.20350217938E+03  0.20848603146E+03  0.00000000000E+00 0. -1.
<mgrwt>
<rscale>  0 0.91085301E+02</rscale>
<asrwt>0</asrwt>
<pdfrwt beam="2">  1        1 0.70444851E-01 0.91085301E+02</pdfrwt>
<pdfrwt beam="1">  1       -1 0.69688423E-03 0.91085301E+02</pdfrwt>
<totfact> 0.13806185E+05</totfact>
</mgrwt>
</event>
<event>
 5    1  0.6113696E+000  0.7497834E+02  0.7546771E-02  0.1343938E+00
          2   -1    0    0  501    0  0.00000000000E+00  0.00000000000E+00  0.35245564244E+02  0.35245564244E+02  0.00000000000E+00 0. -1.
         -2   -1    0    0    0  501 -0.00000000000E+00 -0.00000000000E+00 -0.39875595791E+02  0.39875595791E+02  0.00000000000E+00 0.  1.
         23    2    1    2    0    0  0.00000000000E+00  0.00000000000E+00 -0.46300315467E+01  0.75121160034E+02  0.74978340158E+02 0.  0.
        -13    1    3    3    0    0  0.30619486659E+00  0.21314785344E+02  0.28582403929E+02  0.35656242706E+02  0.00000000000E+00 0. -1.
         13    1    3    3    0    0 -0.30619486659E+00 -0.21314785344E+02 -0.33212435475E+02  0.39464917329E+02  0.00000000000E+00 0.  1.
<mgrwt>
<rscale>  0 0.74978340E+02</rscale>
<asrwt>0</asrwt>
<pdfrwt beam="1">  1        2 0.54223945E-02 0.74978340E+02</pdfrwt>
<pdfrwt beam="2">  1       -2 0.61347071E-02 0.74978340E+02</pdfrwt>
<totfact> 0.16158087E+05</totfact>
</mgrwt>
</event>
<event>
 5    1  0.6113696E+000  0.9042135E+02  0.7546771E-02  0.1301835E+00
          1   -1    0    0  501    0  0.00000000000E+00  0.00000000000E+00  0.30194311156E+03  0.30194311156E+03  0.00000000000E+00 0. -1.
         -1   -1    0    0    0  501 -0.00000000000E+00 -0.00000000000E+00 -0.67695036079E+01  0.67695036079E+01  0.00000000000E+00 0.  1.
         23    2    1    2    0    0  0.00000000000E+00  0.00000000000E+00  0.29517360795E+03  0.30871261517E+03  0.90421346663E+02 0.  0.
        -13    1    3    3    0    0  0.44268933984E+02 -0.17217284931E+01  0.11680214579E+03  0.12492175202E+03  0.00000000000E+00 0.  1.
         13    1    3    3    0    0 -0.44268933984E+02  0.17217284931E+01  0.17837146216E+03  0.18379086315E+03  0.00000000000E+00 0. -1.
<mgrwt>
<rscale>  0 0.90421347E+02</rscale>
<asrwt>0</asrwt>
<pdfrwt beam="1">  1        1 0.46452776E-01 0.90421347E+02</pdfrwt>
<pdfrwt beam="2">  1       -1 0.10414623E-02 0.90421347E+02</pdfrwt>
<totfact> 0.13115263E+05</totfact>
</mgrwt>
</event>
<event>
 5    1  0.6113696E+000  0.9181635E+02  0.7546771E-02  0.1298512E+00
         -2   -1    0    0    0  501 -0.00000000000E+00  0.00000000000E+00  0.25981357154E+02  0.25981357154E+02  0.00000000000E+00 0.  1.
          2   -1    0    0  501    0  0.00000000000E+00 -0.00000000000E+00 -0.81118176383E+02  0.81118176383E+02  0.00000000000E+00 0. -1.
         23    2    1    2    0    0  0.00000000000E+00  0.00000000000E+00 -0.55136819229E+02  0.10709953354E+03  0.91816345217E+02 0.  0.
        -13    1    3    3    0    0  0.12769474777E+02  0.15564702352E+02 -0.75694223160E+02  0.78325825021E+02  0.00000000000E+00 0. -1.
         13    1    3    3    0    0 -0.12769474777E+02 -0.15564702352E+02  0.20557403931E+02  0.28773708516E+02  0.00000000000E+00 0.  1.
<mgrwt>
<rscale>  0 0.91816345E+02</rscale>
<asrwt>0</asrwt>
<pdfrwt beam="2">  1        2 0.12479719E-01 0.91816345E+02</pdfrwt>
<pdfrwt beam="1">  1       -2 0.39971319E-02 0.91816345E+02</pdfrwt>
<totfact> 0.11309316E+05</totfact>
</mgrwt>
</event>
<event>
 5    1  0.6113696E+000  0.9081778E+02  0.7546771E-02  0.1300883E+00
         -4   -1    0    0    0  501 -0.00000000000E+00  0.00000000000E+00  0.73616152050E+02  0.73616152050E+02  0.00000000000E+00 0.  1.
          4   -1    0    0  501    0  0.00000000000E+00 -0.00000000000E+00 -0.28009710746E+02  0.28009710746E+02  0.00000000000E+00 0. -1.
         23    2    1    2    0    0  0.00000000000E+00  0.00000000000E+00  0.45606441304E+02  0.10162586280E+03  0.90817776347E+02 0.  0.
        -13    1    3    3    0    0 -0.42342243164E+02  0.55663657724E+01  0.40070690704E+02  0.58562020436E+02  0.00000000000E+00 0.  1.
         13    1    3    3    0    0  0.42342243164E+02 -0.55663657724E+01  0.55357505997E+01  0.43063842360E+02  0.00000000000E+00 0. -1.
<mgrwt>
<rscale>  0 0.90817776E+02</rscale>
<asrwt>0</asrwt>
<pdfrwt beam="2">  1        4 0.43091863E-02 0.90817776E+02</pdfrwt>
<pdfrwt beam="1">  1       -4 0.11325562E-01 0.90817776E+02</pdfrwt>
<totfact> 0.26641168E+04</totfact>
</mgrwt>
</event>
<event>
 5    1  0.6113696E+000  0.9450874E+02  0.7546771E-02  0.1292286E+00
          1   -1    0    0  501    0  0.00000000000E+00  0.00000000000E+00  0.63012011809E+01  0.63012011809E+01  0.00000000000E+00 0. -1.
         -1   -1    0    0    0  501 -0.00000000000E+00 -0.00000000000E+00 -0.35437299817E+03  0.35437299817E+03  0.00000000000E+00 0.  1.
         23    2    1    2    0    0  0.00000000000E+00  0.00000000000E+00 -0.34807179699E+03  0.36067419935E+03  0.94508741491E+02 0.  0.
        -13    1    3    3    0    0  0.67983049311E+01 -0.43516851729E+02 -0.10870656996E+03  0.11729045864E+03  0.00000000000E+00 0. -1.
         13    1    3    3    0    0 -0.67983049311E+01  0.43516851729E+02 -0.23936522703E+03  0.24338374072E+03  0.00000000000E+00 0.  1.
<mgrwt>
<rscale>  0 0.94508741E+02</rscale>
<asrwt>0</asrwt>
<pdfrwt beam="1">  1        1 0.96941553E-03 0.94508741E+02</pdfrwt>
<pdfrwt beam="2">  1       -1 0.54518925E-01 0.94508741E+02</pdfrwt>
<totfact> 0.51396885E+04</totfact>
</mgrwt>
</event>
<event>
 5    1  0.6113696E+000  0.8754419E+02  0.7546771E-02  0.1308910E+00
          2   -1    0    0  501    0  0.00000000000E+00  0.00000000000E+00  0.12480887574E+03  0.12480887574E+03  0.00000000000E+00 0. -1.
         -2   -1    0    0    0  501 -0.00000000000E+00 -0.00000000000E+00 -0.15351442401E+02  0.15351442401E+02  0.00000000000E+00 0.  1.
         23    2    1    2    0    0  0.00000000000E+00  0.00000000000E+00  0.10945743334E+03  0.14016031814E+03  0.87544189232E+02 0.  0.
        -13    1    3    3    0    0 -0.38241442976E+02 -0.14039019018E+01  0.20704897136E+02  0.43509443422E+02  0.00000000000E+00 0.  1.
         13    1    3    3    0    0  0.38241442976E+02  0.14039019018E+01  0.88752536204E+02  0.96650874720E+02  0.00000000000E+00 0. -1.
<mgrwt>
<rscale>  0 0.87544189E+02</rscale>
<asrwt>0</asrwt>
<pdfrwt beam="1">  1        2 0.19201365E-01 0.87544189E+02</pdfrwt>
<pdfrwt beam="2">  1       -2 0.23617604E-02 0.87544189E+02</pdfrwt>
<totfact> 0.14690332E+05</totfact>
</mgrwt>
</event>
<event>
 5    1  0.6113696E+000  0.9512242E+02  0.7546771E-02  0.1290901E+00
         -2   -1    0    0    0  501 -0.00000000000E+00  0.00000000000E+00  0.31136964607E+02  0.31136964607E+02  0.00000000000E+00 0.  1.
          2   -1    0    0  501    0  0.00000000000E+00 -0.00000000000E+00 -0.72648975015E+02  0.72648975015E+02  0.00000000000E+00 0. -1.
         23    2    1    2    0    0  0.00000000000E+00  0.00000000000E+00 -0.41512010408E+02  0.10378593962E+03  0.95122417206E+02 0.  0.
        -13    1    3    3    0    0 -0.12502784065E+02  0.42448826450E+01 -0.70609177851E+02  0.71833102639E+02  0.00000000000E+00 0. -1.
         13    1    3    3    0    0  0.12502784065E+02 -0.42448826450E+01  0.29097167443E+02  0.31952836983E+02  0.00000000000E+00 0.  1.
<mgrwt>
<rscale>  0 0.95122417E+02</rscale>
<asrwt>0</asrwt>
<pdfrwt beam="2">  1        2 0.11176765E-01 0.95122417E+02</pdfrwt>
<pdfrwt beam="1">  1       -2 0.47903022E-02 0.95122417E+02</pdfrwt>
<totfact> 0.99246738E+04</totfact>
</mgrwt>
</event>
<event>
 5    1  0.6113696E+000  0.9110690E+02  0.7546771E-02  0.1300193E+00
         -2   -1    0    0    0  501 -0.00000000000E+00  0.00000000000E+00  0.60252937226E+02  0.60252937226E+02  0.00000000000E+00 0.  1.
          2   -1    0    0  501    0  0.00000000000E+00 -0.00000000000E+00 -0.34440093104E+02  0.34440093104E+02  0.00000000000E+00 0. -1.
         23    2    1    2    0    0  0.00000000000E+00  0.00000000000E+00  0.25812844122E+02  0.94693030330E+02  0.91106899143E+02 0.  0.
        -13    1    3    3    0    0  0.15716746925E+02  0.26505200701E+02  0.47776583882E+02  0.56851946013E+02  0.00000000000E+00 0.  1.
         13    1    3    3    0    0 -0.15716746925E+02 -0.26505200701E+02 -0.21963739759E+02  0.37841084317E+02  0.00000000000E+00 0. -1.
<mgrwt>
<rscale>  0 0.91106899E+02</rscale>
<asrwt>0</asrwt>
<pdfrwt beam="2">  1        2 0.52984759E-02 0.91106899E+02</pdfrwt>
<pdfrwt beam="1">  1       -2 0.92696827E-02 0.91106899E+02</pdfrwt>
<totfact> 0.91956893E+04</totfact>
</mgrwt>
</event>
<event>
 5    1  0.6113696E+000  0.9171284E+02  0.7546771E-02  0.1298756E+00
          1   -1    0    0  501    0  0.00000000000E+00  0.00000000000E+00  0.97743607935E+02  0.97743607935E+02  0.00000000000E+00 0. -1.
         -1   -1    0    0    0  501 -0.00000000000E+00 -0.00000000000E+00 -0.21513544184E+02  0.21513544184E+02  0.00000000000E+00 0.  1.
         23    2    1    2    0    0  0.00000000000E+00  0.00000000000E+00  0.76230063751E+02  0.11925715212E+03  0.91712843768E+02 0.  0.
        -13    1    3    3    0    0  0.37591213978E+01  0.39019310219E+02  0.71743996959E+01  0.39851092515E+02  0.00000000000E+00 0.  1.
         13    1    3    3    0    0 -0.37591213978E+01 -0.39019310219E+02  0.69055664055E+02  0.79406059604E+02  0.00000000000E+00 0. -1.
<mgrwt>
<rscale>  0 0.91712844E+02</rscale>
<asrwt>0</asrwt>
<pdfrwt beam="1">  1        1 0.15037478E-01 0.91712844E+02</pdfrwt>
<pdfrwt beam="2">  1       -1 0.33097761E-02 0.91712844E+02</pdfrwt>
<totfact> 0.10240446E+05</totfact>
</mgrwt>
</event>
<event>
 5    1  0.6113696E+000  0.9037489E+02  0.7546771E-02  0.1301946E+00
         -3   -1    0    0    0  501 -0.00000000000E+00  0.00000000000E+00  0.59805536874E+02  0.59805536874E+02  0.00000000000E+00 0.  1.
          3   -1    0    0  501    0  0.00000000000E+00 -0.00000000000E+00 -0.34142410886E+02  0.34142410886E+02  0.00000000000E+00 0. -1.
         23    2    1    2    0    0  0.00000000000E+00  0.00000000000E+00  0.25663125988E+02  0.93947947759E+02  0.90374890610E+02 0.  0.
        -13    1    3    3    0    0  0.19382634958E+02 -0.28949720656E+02 -0.17083463228E+02  0.38802288333E+02  0.00000000000E+00 0. -1.
         13    1    3    3    0    0 -0.19382634958E+02  0.28949720656E+02  0.42746589216E+02  0.55145659427E+02  0.00000000000E+00 0.  1.
<mgrwt>
<rscale>  0 0.90374891E+02</rscale>
<asrwt>0</asrwt>
<pdfrwt beam="2">  1        3 0.52526786E-02 0.90374891E+02</pdfrwt>
<pdfrwt beam="1">  1       -3 0.92008518E-02 0.90374891E+02</pdfrwt>
<totfact> 0.35981339E+04</totfact>
</mgrwt>
</event>
<event>
 5    1  0.6113696E+000  0.9689775E+02  0.7546771E-02  0.1286958E+00
         -3   -1    0    0    0  501 -0.00000000000E+00  0.00000000000E+00  0.21785265997E+03  0.21785265997E+03  0.00000000000E+00 0.  1.
          3   -1    0    0  501    0  0.00000000000E+00 -0.00000000000E+00 -0.10774684487E+02  0.10774684487E+02  0.00000000000E+00 0. -1.
         23    2    1    2    0    0  0.00000000000E+00  0.00000000000E+00  0.20707797548E+03  0.22862734445E+03  0.96897753861E+02 0.  0.
        -13    1    3    3    0    0  0.33639263578E+02 -0.16330953435E+02  0.17622420611E+03  0.18014791399E+03  0.00000000000E+00 0.  1.
         13    1    3    3    0    0 -0.33639263578E+02  0.16330953435E+02  0.30853769368E+02  0.48479430467E+02  0.00000000000E+00 0. -1.
<mgrwt>
<rscale>  0 0.96897754E+02</rscale>
<asrwt>0</asrwt>
<pdfrwt beam="2">  1        3 0.16576439E-02 0.96897754E+02</pdfrwt>
<pdfrwt beam="1">  1       -3 0.33515791E-01 0.96897754E+02</pdfrwt>
<totfact> 0.22968381E+04</totfact>
</mgrwt>
</event>
<event>
 5    1  0.6113696E+000  0.9068623E+02  0.7546771E-02  0.1301198E+00
          3   -1    0    0  501    0  0.00000000000E+00  0.00000000000E+00  0.36927448695E+02  0.36927448695E+02  0.00000000000E+00 0.  1.
         -3   -1    0    0    0  501 -0.00000000000E+00 -0.00000000000E+00 -0.55676685995E+02  0.55676685995E+02  0.00000000000E+00 0. -1.
         23    2    1    2    0    0  0.00000000000E+00  0.00000000000E+00 -0.18749237300E+02  0.92604134691E+02  0.90686227524E+02 0.  0.
        -13    1    3    3    0    0  0.22324186709E+02 -0.14965135017E+02  0.27917218978E+02  0.38751718591E+02  0.00000000000E+00 0.  1.
         13    1    3    3    0    0 -0.22324186709E+02  0.14965135017E+02 -0.46666456278E+02  0.53852416100E+02  0.00000000000E+00 0. -1.
<mgrwt>
<rscale>  0 0.90686228E+02</rscale>
<asrwt>0</asrwt>
<pdfrwt beam="1">  1        3 0.56811460E-02 0.90686228E+02</pdfrwt>
<pdfrwt beam="2">  1       -3 0.85656440E-02 0.90686228E+02</pdfrwt>
<totfact> 0.35751003E+04</totfact>
</mgrwt>
</event>
<event>
 5    1  0.6113696E+000  0.9314589E+02  0.7546771E-02  0.1295407E+00
          2   -1    0    0  501    0  0.00000000000E+00  0.00000000000E+00  0.48386777637E+02  0.48386777637E+02  0.00000000000E+00 0. -1.
         -2   -1    0    0    0  501 -0.00000000000E+00 -0.00000000000E+00 -0.44827105486E+02  0.44827105486E+02  0.00000000000E+00 0.  1.
         23    2    1    2    0    0  0.00000000000E+00  0.00000000000E+00  0.35596721514E+01  0.93213883123E+02  0.93145889556E+02 0.  0.
        -13    1    3    3    0    0 -0.33863273989E+02  0.16471324124E+01  0.33734396267E+02  0.47827229294E+02  0.00000000000E+00 0. -1.
         13    1    3    3    0    0  0.33863273989E+02 -0.16471324124E+01 -0.30174724115E+02  0.45386653830E+02  0.00000000000E+00 0.  1.
<mgrwt>
<rscale>  0 0.93145890E+02</rscale>
<asrwt>0</asrwt>
<pdfrwt beam="1">  1        2 0.74441196E-02 0.93145890E+02</pdfrwt>
<pdfrwt beam="2">  1       -2 0.68964778E-02 0.93145890E+02</pdfrwt>
<totfact> 0.94260576E+04</totfact>
</mgrwt>
</event>
<event>
 5    1  0.6113696E+000  0.9055642E+02  0.7546771E-02  0.1301510E+00
          2   -1    0    0  501    0  0.00000000000E+00  0.00000000000E+00  0.83198598975E+01  0.83198598975E+01  0.00000000000E+00 0.  1.
         -2   -1    0    0    0  501 -0.00000000000E+00 -0.00000000000E+00 -0.24641233476E+03  0.24641233476E+03  0.00000000000E+00 0. -1.
         23    2    1    2    0    0  0.00000000000E+00  0.00000000000E+00 -0.23809247486E+03  0.25473219466E+03  0.90556415614E+02 0.  0.
        -13    1    3    3    0    0  0.45220342305E+02 -0.38930810828E+00 -0.12538957639E+03  0.13329507413E+03  0.00000000000E+00 0.  1.
         13    1    3    3    0    0 -0.45220342305E+02  0.38930810828E+00 -0.11270289847E+03  0.12143712053E+03  0.00000000000E+00 0. -1.
<mgrwt>
<rscale>  0 0.90556416E+02</rscale>
<asrwt>0</asrwt>
<pdfrwt beam="1">  1        2 0.12799784E-02 0.90556416E+02</pdfrwt>
<pdfrwt beam="2">  1       -2 0.37909591E-01 0.90556416E+02</pdfrwt>
<totfact> 0.57581200E+04</totfact>
</mgrwt>
</event>
<event>
 5    1  0.6113696E+000  0.9157702E+02  0.7546771E-02  0.1299077E+00
         -2   -1    0    0    0  501 -0.00000000000E+00  0.00000000000E+00  0.10703892575E+03  0.10703892575E+03  0.00000000000E+00 0.  1.
          2   -1    0    0  501    0  0.00000000000E+00 -0.00000000000E+00 -0.19587149765E+02  0.19587149765E+02  0.00000000000E+00 0. -1.
         23    2    1    2    0    0  0.00000000000E+00  0.00000000000E+00  0.87451775988E+02  0.12662607552E+03  0.91577016098E+02 0.  0.
        -13    1    3    3    0    0  0.37357268002E+02 -0.25850866826E+02  0.35812301625E+02  0.57847677014E+02  0.00000000000E+00 0. -1.
         13    1    3    3    0    0 -0.37357268002E+02  0.25850866826E+02  0.51639474362E+02  0.68778398503E+02  0.00000000000E+00 0.  1.
<mgrwt>
<rscale>  0 0.91577016E+02</rscale>
<asrwt>0</asrwt>
<pdfrwt beam="2">  1        2 0.30134077E-02 0.91577016E+02</pdfrwt>
<pdfrwt beam="1">  1       -2 0.16467527E-01 0.91577016E+02</pdfrwt>
<totfact> 0.77329666E+04</totfact>
</mgrwt>
</event>
<event>
 5    1  0.6113696E+000  0.9017569E+02  0.7546771E-02  0.1302427E+00
         -1   -1    0    0    0  501 -0.00000000000E+00  0.00000000000E+00  0.38767576102E+01  0.38767576102E+01  0.00000000000E+00 0.  1.
          1   -1    0    0  501    0  0.00000000000E+00 -0.00000000000E+00 -0.52438507400E+03  0.52438507400E+03  0.00000000000E+00 0. -1.
         23    2    1    2    0    0  0.00000000000E+00  0.00000000000E+00 -0.52050831639E+03  0.52826183161E+03  0.90175691321E+02 0.  0.
        -13    1    3    3    0    0 -0.19447021795E+02  0.40678324995E+02 -0.26044354898E+03  0.26431752683E+03  0.00000000000E+00 0. -1.
         13    1    3    3    0    0  0.19447021795E+02 -0.40678324995E+02 -0.26006476741E+03  0.26394430478E+03  0.00000000000E+00 0.  1.
<mgrwt>
<rscale>  0 0.90175691E+02</rscale>
<asrwt>0</asrwt>
<pdfrwt beam="2">  1        1 0.80674648E-01 0.90175691E+02</pdfrwt>
<pdfrwt beam="1">  1       -1 0.59642409E-03 0.90175691E+02</pdfrwt>
<totfact> 0.14415866E+05</totfact>
</mgrwt>
</event>
<event>
 5    1  0.6113696E+000  0.8980608E+02  0.7546771E-02  0.1303322E+00
          2   -1    0    0  501    0  0.00000000000E+00  0.00000000000E+00  0.13905225034E+02  0.13905225034E+02  0.00000000000E+00 0. -1.
         -2   -1    0    0    0  501 -0.00000000000E+00 -0.00000000000E+00 -0.14500183138E+03  0.14500183138E+03  0.00000000000E+00 0.  1.
         23    2    1    2    0    0  0.00000000000E+00  0.00000000000E+00 -0.13109660635E+03  0.15890705641E+03  0.89806082104E+02 0.  0.
        -13    1    3    3    0    0 -0.70305365251E+01  0.27601985515E+02 -0.12697091244E+03  0.13012651788E+03  0.00000000000E+00 0.  1.
         13    1    3    3    0    0  0.70305365251E+01 -0.27601985515E+02 -0.41256939003E+01  0.28780538535E+02  0.00000000000E+00 0. -1.
<mgrwt>
<rscale>  0 0.89806082E+02</rscale>
<asrwt>0</asrwt>
<pdfrwt beam="1">  1        2 0.21392654E-02 0.89806082E+02</pdfrwt>
<pdfrwt beam="2">  1       -2 0.22307974E-01 0.89806082E+02</pdfrwt>
<totfact> 0.73474468E+04</totfact>
</mgrwt>
</event>
<event>
 5    1  0.6113696E+000  0.9410460E+02  0.7546771E-02  0.1293206E+00
         -3   -1    0    0    0  501 -0.00000000000E+00  0.00000000000E+00  0.29186895107E+03  0.29186895107E+03  0.00000000000E+00 0.  1.
          3   -1    0    0  501    0  0.00000000000E+00 -0.00000000000E+00 -0.75853179974E+01  0.75853179974E+01  0.00000000000E+00 0. -1.
         23    2    1    2    0    0  0.00000000000E+00  0.00000000000E+00  0.28428363307E+03  0.29945426907E+03  0.94104597283E+02 0.  0.
        -13    1    3    3    0    0  0.12999239701E+02  0.40367688412E+02  0.20699731505E+03  0.21129699226E+03  0.00000000000E+00 0.  1.
         13    1    3    3    0    0 -0.12999239701E+02 -0.40367688412E+02  0.77286318022E+02  0.88157276807E+02  0.00000000000E+00 0. -1.
<mgrwt>
<rscale>  0 0.94104597E+02</rscale>
<asrwt>0</asrwt>
<pdfrwt beam="2">  1        3 0.11669722E-02 0.94104597E+02</pdfrwt>
<pdfrwt beam="1">  1       -3 0.44902907E-01 0.94104597E+02</pdfrwt>
<totfact> 0.22083256E+04</totfact>
</mgrwt>
</event>
<event>
 5    1  0.6113696E+000  0.9169552E+02  0.7546771E-02  0.1298797E+00
         -2   -1    0    0    0  501 -0.00000000000E+00  0.00000000000E+00  0.14624174859E+02  0.14624174859E+02  0.00000000000E+00 0.  1.
          2   -1    0    0  501    0  0.00000000000E+00 -0.00000000000E+00 -0.14373576278E+03  0.14373576278E+03  0.00000000000E+00 0. -1.
         23    2    1    2    0    0  0.00000000000E+00  0.00000000000E+00 -0.12911158792E+03  0.15835993764E+03  0.91695516320E+02 0.  0.
        -13    1    3    3    0    0 -0.41045266952E+02  0.10571093165E+02 -0.34367268285E+02  0.54567124528E+02  0.00000000000E+00 0.  1.
         13    1    3    3    0    0  0.41045266952E+02 -0.10571093165E+02 -0.94744319635E+02  0.10379281311E+03  0.00000000000E+00 0. -1.
<mgrwt>
<rscale>  0 0.91695516E+02</rscale>
<asrwt>0</asrwt>
<pdfrwt beam="2">  1        2 0.22113194E-01 0.91695516E+02</pdfrwt>
<pdfrwt beam="1">  1       -2 0.22498731E-02 0.91695516E+02</pdfrwt>
<totfact> 0.13569502E+05</totfact>
</mgrwt>
</event>
<event>
 5    1  0.6113696E+000  0.8514791E+02  0.7546771E-02  0.1315046E+00
          1   -1    0    0  501    0  0.00000000000E+00  0.00000000000E+00  0.39936362732E+02  0.39936362732E+02  0.00000000000E+00 0. -1.
         -1   -1    0    0    0  501 -0.00000000000E+00 -0.00000000000E+00 -0.45385747176E+02  0.45385747176E+02  0.00000000000E+00 0.  1.
         23    2    1    2    0    0  0.00000000000E+00  0.00000000000E+00 -0.54493844448E+01  0.85322109908E+02  0.85147910417E+02 0.  0.
        -13    1    3    3    0    0  0.33930291949E+02  0.23284907400E+02 -0.13659856410E+02  0.43359466113E+02  0.00000000000E+00 0.  1.
         13    1    3    3    0    0 -0.33930291949E+02 -0.23284907400E+02  0.82104719657E+01  0.41962643796E+02  0.00000000000E+00 0. -1.
<mgrwt>
<rscale>  0 0.85147910E+02</rscale>
<asrwt>0</asrwt>
<pdfrwt beam="1">  1        1 0.61440558E-02 0.85147910E+02</pdfrwt>
<pdfrwt beam="2">  1       -1 0.69824227E-02 0.85147910E+02</pdfrwt>
<totfact> 0.10982680E+05</totfact>
</mgrwt>
</event>
<event>
 5    1  0.6113696E+000  0.9128597E+02  0.7546771E-02  0.1299767E+00
         -3   -1    0    0    0  501 -0.00000000000E+00  0.00000000000E+00  0.10352047862E+02  0.10352047862E+02  0.00000000000E+00 0.  1.
          3   -1    0    0  501    0  0.00000000000E+00 -0.00000000000E+00 -0.20124349492E+03  0.20124349492E+03  0.00000000000E+00 0. -1.
         23    2    1    2    0    0  0.00000000000E+00  0.00000000000E+00 -0.19089144706E+03  0.21159554278E+03  0.91285974634E+02 0.  0.
        -13    1    3    3    0    0  0.17754756365E+02  0.26564600763E+02 -0.19894595840E+02  0.37639132972E+02  0.00000000000E+00 0.  1.
         13    1    3    3    0    0 -0.17754756365E+02 -0.26564600763E+02 -0.17099685122E+03  0.17395640981E+03  0.00000000000E+00 0. -1.
<mgrwt>
<rscale>  0 0.91285975E+02</rscale>
<asrwt>0</asrwt>
<pdfrwt beam="2">  1        3 0.30960539E-01 0.91285975E+02</pdfrwt>
<pdfrwt beam="1">  1       -3 0.15926227E-02 0.91285975E+02</pdfrwt>
<totfact> 0.27819983E+04</totfact>
</mgrwt>
</event>
<event>
 5    1  0.6113696E+000  0.9383805E+02  0.7546771E-02  0.1293815E+00
         -1   -1    0    0    0  501 -0.00000000000E+00  0.00000000000E+00  0.10623715795E+02  0.10623715795E+02  0.00000000000E+00 0.  1.
          1   -1    0    0  501    0  0.00000000000E+00 -0.00000000000E+00 -0.20721517596E+03  0.20721517596E+03  0.00000000000E+00 0. -1.
         23    2    1    2    0    0  0.00000000000E+00  0.00000000000E+00 -0.19659146016E+03  0.21783889175E+03  0.93838054922E+02 0.  0.
        -13    1    3    3    0    0 -0.30858864136E+00 -0.32831352110E+02 -0.20487764077E+02  0.38700663886E+02  0.00000000000E+00 0.  1.
         13    1    3    3    0    0  0.30858864136E+00  0.32831352110E+02 -0.17610369609E+03  0.17913822787E+03  0.00000000000E+00 0. -1.
<mgrwt>
<rscale>  0 0.93838055E+02</rscale>
<asrwt>0</asrwt>
<pdfrwt beam="2">  1        1 0.31879259E-01 0.93838055E+02</pdfrwt>
<pdfrwt beam="1">  1       -1 0.16344178E-02 0.93838055E+02</pdfrwt>
<totfact> 0.11035698E+05</totfact>
</mgrwt>
</event>
<event>
 5    1  0.6113696E+000  0.9125824E+02  0.7546771E-02  0.1299833E+00
          1   -1    0    0  501    0  0.00000000000E+00  0.00000000000E+00  0.11001341504E+03  0.11001341504E+03  0.00000000000E+00 0. -1.
         -1   -1    0    0    0  501 -0.00000000000E+00 -0.00000000000E+00 -0.18925113491E+02  0.18925113491E+02  0.00000000000E+00 0.  1.
         23    2    1    2    0    0  0.00000000000E+00  0.00000000000E+00  0.91088301553E+02  0.12893852854E+03  0.91258235031E+02 0.  0.
        -13    1    3    3    0    0  0.31413691947E+02 -0.65176007268E+01 -0.29816040398E+00  0.32084077992E+02  0.00000000000E+00 0.  1.
         13    1    3    3    0    0 -0.31413691947E+02  0.65176007268E+01  0.91386461957E+02  0.96854450543E+02  0.00000000000E+00 0. -1.
<mgrwt>
<rscale>  0 0.91258235E+02</rscale>
<asrwt>0</asrwt>
<pdfrwt beam="1">  1        1 0.16925140E-01 0.91258235E+02</pdfrwt>
<pdfrwt beam="2">  1       -1 0.29115560E-02 0.91258235E+02</pdfrwt>
<totfact> 0.10588457E+05</totfact>
</mgrwt>
</event>
<event>
 5    1  0.6113696E+000  0.9091572E+02  0.7546771E-02  0.1300649E+00
          1   -1    0    0  501    0  0.00000000000E+00  0.00000000000E+00  0.50697900451E+02  0.50697900451E+02  0.00000000000E+00 0. -1.
         -1   -1    0    0    0  501 -0.00000000000E+00 -0.00000000000E+00 -0.40759416496E+02  0.40759416496E+02  0.00000000000E+00 0.  1.
         23    2    1    2    0    0  0.00000000000E+00  0.00000000000E+00  0.99384839549E+01  0.91457316946E+02  0.90915715691E+02 0.  0.
        -13    1    3    3    0    0 -0.36236626346E+02 -0.26342714613E+02 -0.27828403967E+01  0.44886255166E+02  0.00000000000E+00 0. -1.
         13    1    3    3    0    0  0.36236626346E+02  0.26342714613E+02  0.12721324352E+02  0.46571061781E+02  0.00000000000E+00 0.  1.
<mgrwt>
<rscale>  0 0.90915716E+02</rscale>
<asrwt>0</asrwt>
<pdfrwt beam="1">  1        1 0.77996770E-02 0.90915716E+02</pdfrwt>
<pdfrwt beam="2">  1       -1 0.62706794E-02 0.90915716E+02</pdfrwt>
<totfact> 0.94714915E+04</totfact>
</mgrwt>
</event>
<event>
 5    1  0.6113696E+000  0.9803679E+02  0.7546771E-02  0.1284479E+00
          1   -1    0    0  501    0  0.00000000000E+00  0.00000000000E+00  0.21615276296E+02  0.21615276296E+02  0.00000000000E+00 0. -1.
         -1   -1    0    0    0  501 -0.00000000000E+00 -0.00000000000E+00 -0.11116226407E+03  0.11116226407E+03  0.00000000000E+00 0.  1.
         23    2    1    2    0    0  0.00000000000E+00  0.00000000000E+00 -0.89546987775E+02  0.13277754037E+03  0.98036790065E+02 0.  0.
        -13    1    3    3    0    0  0.41158619944E+01 -0.48204501575E+02 -0.34092996370E+02  0.59185696697E+02  0.00000000000E+00 0. -1.
         13    1    3    3    0    0 -0.41158619944E+01  0.48204501575E+02 -0.55453991405E+02  0.73591843670E+02  0.00000000000E+00 0.  1.
<mgrwt>
<rscale>  0 0.98036790E+02</rscale>
<asrwt>0</asrwt>
<pdfrwt beam="1">  1        1 0.33254271E-02 0.98036790E+02</pdfrwt>
<pdfrwt beam="2">  1       -1 0.17101887E-01 0.98036790E+02</pdfrwt>
<totfact> 0.66100906E+04</totfact>
</mgrwt>
</event>
<event>
 5    1  0.6113696E+000  0.9117277E+02  0.7546771E-02  0.1300036E+00
          2   -1    0    0  501    0  0.00000000000E+00  0.00000000000E+00  0.42414905224E+02  0.42414905224E+02  0.00000000000E+00 0.  1.
         -2   -1    0    0    0  501 -0.00000000000E+00 -0.00000000000E+00 -0.48995009438E+02  0.48995009438E+02  0.00000000000E+00 0. -1.
         23    2    1    2    0    0  0.00000000000E+00  0.00000000000E+00 -0.65801042147E+01  0.91409914662E+02  0.91172774045E+02 0.  0.
        -13    1    3    3    0    0 -0.36240614851E+02  0.65724569805E+01 -0.30221402961E+02  0.47643599281E+02  0.00000000000E+00 0. -1.
         13    1    3    3    0    0  0.36240614851E+02 -0.65724569805E+01  0.23641298747E+02  0.43766315380E+02  0.00000000000E+00 0.  1.
<mgrwt>
<rscale>  0 0.91172774E+02</rscale>
<asrwt>0</asrwt>
<pdfrwt beam="1">  1        2 0.65253700E-02 0.91172774E+02</pdfrwt>
<pdfrwt beam="2">  1       -2 0.75376938E-02 0.91172774E+02</pdfrwt>
<totfact> 0.96859107E+04</totfact>
</mgrwt>
</event>
<event>
 5    1  0.6113696E+000  0.9144567E+02  0.7546771E-02  0.1299388E+00
          3   -1    0    0  501    0  0.00000000000E+00  0.00000000000E+00  0.63710794496E+02  0.63710794496E+02  0.00000000000E+00 0. -1.
         -3   -1    0    0    0  501 -0.00000000000E+00 -0.00000000000E+00 -0.32813557399E+02  0.32813557399E+02  0.00000000000E+00 0.  1.
         23    2    1    2    0    0  0.00000000000E+00  0.00000000000E+00  0.30897237097E+02  0.96524351895E+02  0.91445673755E+02 0.  0.
        -13    1    3    3    0    0  0.42544138686E+02 -0.16636641876E+02  0.17505217314E+02  0.48920488782E+02  0.00000000000E+00 0. -1.
         13    1    3    3    0    0 -0.42544138686E+02  0.16636641876E+02  0.13392019783E+02  0.47603863113E+02  0.00000000000E+00 0.  1.
<mgrwt>
<rscale>  0 0.91445674E+02</rscale>
<asrwt>0</asrwt>
<pdfrwt beam="1">  1        3 0.98016607E-02 0.91445674E+02</pdfrwt>
<pdfrwt beam="2">  1       -3 0.50482396E-02 0.91445674E+02</pdfrwt>
<totfact> 0.34651465E+04</totfact>
</mgrwt>
</event>
<event>
 5    1  0.6113696E+000  0.8172954E+02  0.7546771E-02  0.1324214E+00
         -1   -1    0    0    0  501 -0.00000000000E+00  0.00000000000E+00  0.75148223010E+01  0.75148223010E+01  0.00000000000E+00 0. -1.
          1   -1    0    0  501    0  0.00000000000E+00 -0.00000000000E+00 -0.22221806784E+03  0.22221806784E+03  0.00000000000E+00 0.  1.
         23    2    1    2    0    0  0.00000000000E+00  0.00000000000E+00 -0.21470324554E+03  0.22973289014E+03  0.81729536690E+02 0.  0.
        -13    1    3    3    0    0  0.19836939582E+02 -0.30020151312E+02 -0.52903287904E+02  0.63980243262E+02  0.00000000000E+00 0. -1.
         13    1    3    3    0    0 -0.19836939582E+02  0.30020151312E+02 -0.16179995764E+03  0.16575264688E+03  0.00000000000E+00 0.  1.
<mgrwt>
<rscale>  0 0.81729537E+02</rscale>
<asrwt>0</asrwt>
<pdfrwt beam="2">  1        1 0.34187391E-01 0.81729537E+02</pdfrwt>
<pdfrwt beam="1">  1       -1 0.11561266E-02 0.81729537E+02</pdfrwt>
<totfact> 0.16167080E+05</totfact>
</mgrwt>
</event>
<event>
 5    1  0.6113696E+000  0.8037612E+02  0.7546771E-02  0.1327987E+00
          2   -1    0    0  501    0  0.00000000000E+00  0.00000000000E+00  0.21672845384E+03  0.21672845384E+03  0.00000000000E+00 0.  1.
         -2   -1    0    0    0  501 -0.00000000000E+00 -0.00000000000E+00 -0.74520902285E+01  0.74520902285E+01  0.00000000000E+00 0. -1.
         23    2    1    2    0    0  0.00000000000E+00  0.00000000000E+00  0.20927636361E+03  0.22418054407E+03  0.80376115683E+02 0.  0.
        -13    1    3    3    0    0  0.24278829677E+02 -0.21000119323E+02  0.17207627644E+03  0.17504488423E+03  0.00000000000E+00 0.  1.
         13    1    3    3    0    0 -0.24278829677E+02  0.21000119323E+02  0.37200087172E+02  0.49135659838E+02  0.00000000000E+00 0. -1.
<mgrwt>
<rscale>  0 0.80376116E+02</rscale>
<asrwt>0</asrwt>
<pdfrwt beam="1">  1        2 0.33342834E-01 0.80376116E+02</pdfrwt>
<pdfrwt beam="2">  1       -2 0.11464756E-02 0.80376116E+02</pdfrwt>
<totfact> 0.22289602E+05</totfact>
</mgrwt>
</event>
<event>
 5    1  0.6113696E+000  0.8933502E+02  0.7546771E-02  0.1304470E+00
          1   -1    0    0  501    0  0.00000000000E+00  0.00000000000E+00  0.81597734761E+02  0.81597734761E+02  0.00000000000E+00 0. -1.
         -1   -1    0    0    0  501 -0.00000000000E+00 -0.00000000000E+00 -0.24451490938E+02  0.24451490938E+02  0.00000000000E+00 0.  1.
         23    2    1    2    0    0  0.00000000000E+00  0.00000000000E+00  0.57146243823E+02  0.10604922570E+03  0.89335016026E+02 0.  0.
        -13    1    3    3    0    0 -0.38500285124E+02 -0.74619213932E+01  0.31894139280E+01  0.39346214389E+02  0.00000000000E+00 0.  1.
         13    1    3    3    0    0  0.38500285124E+02  0.74619213932E+01  0.53956829895E+02  0.66703011310E+02  0.00000000000E+00 0. -1.
<mgrwt>
<rscale>  0 0.89335016E+02</rscale>
<asrwt>0</asrwt>
<pdfrwt beam="1">  1        1 0.12553498E-01 0.89335016E+02</pdfrwt>
<pdfrwt beam="2">  1       -1 0.37617679E-02 0.89335016E+02</pdfrwt>
<totfact> 0.10686499E+05</totfact>
</mgrwt>
</event>
<event>
 5    1  0.6113696E+000  0.9483501E+02  0.7546771E-02  0.1291548E+00
          2   -1    0    0  501    0  0.00000000000E+00  0.00000000000E+00  0.12801972161E+03  0.12801972161E+03  0.00000000000E+00 0. -1.
         -2   -1    0    0    0  501 -0.00000000000E+00 -0.00000000000E+00 -0.17563072199E+02  0.17563072199E+02  0.00000000000E+00 0.  1.
         23    2    1    2    0    0  0.00000000000E+00  0.00000000000E+00  0.11045664941E+03  0.14558279381E+03  0.94835006482E+02 0.  0.
        -13    1    3    3    0    0 -0.29918641989E+02  0.29588815249E+02  0.21672891694E+02  0.47332202154E+02  0.00000000000E+00 0.  1.
         13    1    3    3    0    0  0.29918641989E+02 -0.29588815249E+02  0.88783757721E+02  0.98250591659E+02  0.00000000000E+00 0. -1.
<mgrwt>
<rscale>  0 0.94835006E+02</rscale>
<asrwt>0</asrwt>
<pdfrwt beam="1">  1        2 0.19695341E-01 0.94835006E+02</pdfrwt>
<pdfrwt beam="2">  1       -2 0.27020112E-02 0.94835006E+02</pdfrwt>
<totfact> 0.11907437E+05</totfact>
</mgrwt>
</event>
<event>
 5    1  0.6113696E+000  0.8920428E+02  0.7546771E-02  0.1304790E+00
         -2   -1    0    0    0  501 -0.00000000000E+00  0.00000000000E+00  0.17327839742E+03  0.17327839742E+03  0.00000000000E+00 0.  1.
          2   -1    0    0  501    0  0.00000000000E+00 -0.00000000000E+00 -0.11480662634E+02  0.11480662634E+02  0.00000000000E+00 0. -1.
         23    2    1    2    0    0  0.00000000000E+00  0.00000000000E+00  0.16179773478E+03  0.18475906005E+03  0.89204278428E+02 0.  0.
        -13    1    3    3    0    0  0.82230430418E+01 -0.31105195158E+02  0.14487818271E+03  0.14840767981E+03  0.00000000000E+00 0.  1.
         13    1    3    3    0    0 -0.82230430418E+01  0.31105195158E+02  0.16919552073E+02  0.36351380235E+02  0.00000000000E+00 0. -1.
<mgrwt>
<rscale>  0 0.89204278E+02</rscale>
<asrwt>0</asrwt>
<pdfrwt beam="2">  1        2 0.17662559E-02 0.89204278E+02</pdfrwt>
<pdfrwt beam="1">  1       -2 0.26658213E-01 0.89204278E+02</pdfrwt>
<totfact> 0.69913768E+04</totfact>
</mgrwt>
</event>
<event>
 5    1  0.6113696E+000  0.9102381E+02  0.7546771E-02  0.1300391E+00
          1   -1    0    0  501    0  0.00000000000E+00  0.00000000000E+00  0.76769883143E+02  0.76769883143E+02  0.00000000000E+00 0. -1.
         -1   -1    0    0    0  501 -0.00000000000E+00 -0.00000000000E+00 -0.26981068075E+02  0.26981068075E+02  0.00000000000E+00 0.  1.
         23    2    1    2    0    0  0.00000000000E+00  0.00000000000E+00  0.49788815068E+02  0.10375095122E+03  0.91023808824E+02 0.  0.
        -13    1    3    3    0    0 -0.38087942156E+02 -0.20909767211E+01 -0.34014310110E+01  0.38296648081E+02  0.00000000000E+00 0.  1.
         13    1    3    3    0    0  0.38087942156E+02  0.20909767211E+01  0.53190246079E+02  0.65454303138E+02  0.00000000000E+00 0. -1.
<mgrwt>
<rscale>  0 0.91023809E+02</rscale>
<asrwt>0</asrwt>
<pdfrwt beam="1">  1        1 0.11810751E-01 0.91023809E+02</pdfrwt>
<pdfrwt beam="2">  1       -1 0.41509336E-02 0.91023809E+02</pdfrwt>
<totfact> 0.10055715E+05</totfact>
</mgrwt>
</event>
<event>
 5    1  0.6113696E+000  0.8769101E+02  0.7546771E-02  0.1308542E+00
          1   -1    0    0  501    0  0.00000000000E+00  0.00000000000E+00  0.89663501406E+01  0.89663501406E+01  0.00000000000E+00 0. -1.
         -1   -1    0    0    0  501 -0.00000000000E+00 -0.00000000000E+00 -0.21440479123E+03  0.21440479123E+03  0.00000000000E+00 0.  1.
         23    2    1    2    0    0  0.00000000000E+00  0.00000000000E+00 -0.20543844109E+03  0.22337114137E+03  0.87691012766E+02 0.  0.
        -13    1    3    3    0    0  0.45913505285E+01  0.32988306181E+02 -0.17535476370E+03  0.17848978122E+03  0.00000000000E+00 0.  1.
         13    1    3    3    0    0 -0.45913505285E+01 -0.32988306181E+02 -0.30083677384E+02  0.44881360155E+02  0.00000000000E+00 0. -1.
<mgrwt>
<rscale>  0 0.87691013E+02</rscale>
<asrwt>0</asrwt>
<pdfrwt beam="1">  1        1 0.13794384E-02 0.87691013E+02</pdfrwt>
<pdfrwt beam="2">  1       -1 0.32985355E-01 0.87691013E+02</pdfrwt>
<totfact> 0.75285116E+04</totfact>
</mgrwt>
</event>
<event>
 5    1  0.6113696E+000  0.9244127E+02  0.7546771E-02  0.1297045E+00
         -3   -1    0    0    0  501 -0.00000000000E+00  0.00000000000E+00  0.36711572235E+02  0.36711572235E+02  0.00000000000E+00 0.  1.
          3   -1    0    0  501    0  0.00000000000E+00 -0.00000000000E+00 -0.58192745260E+02  0.58192745260E+02  0.00000000000E+00 0. -1.
         23    2    1    2    0    0  0.00000000000E+00  0.00000000000E+00 -0.21481173025E+02  0.94904317494E+02  0.92441271543E+02 0.  0.
        -13    1    3    3    0    0  0.24164185864E+02  0.47113987283E+01  0.29420006834E+02  0.38361985853E+02  0.00000000000E+00 0.  1.
         13    1    3    3    0    0 -0.24164185864E+02 -0.47113987283E+01 -0.50901179859E+02  0.56542331642E+02  0.00000000000E+00 0. -1.
<mgrwt>
<rscale>  0 0.92441272E+02</rscale>
<asrwt>0</asrwt>
<pdfrwt beam="2">  1        3 0.89527299E-02 0.92441272E+02</pdfrwt>
<pdfrwt beam="1">  1       -3 0.56479343E-02 0.92441272E+02</pdfrwt>
<totfact> 0.33760667E+04</totfact>
</mgrwt>
</event>
<event>
 5    1  0.6113696E+000  0.9054411E+02  0.7546771E-02  0.1301539E+00
          2   -1    0    0  501    0  0.00000000000E+00  0.00000000000E+00  0.11088544675E+03  0.11088544675E+03  0.00000000000E+00 0. -1.
         -2   -1    0    0    0  501 -0.00000000000E+00 -0.00000000000E+00 -0.18483569285E+02  0.18483569285E+02  0.00000000000E+00 0.  1.
         23    2    1    2    0    0  0.00000000000E+00  0.00000000000E+00  0.92401877469E+02  0.12936901604E+03  0.90544107214E+02 0.  0.
        -13    1    3    3    0    0  0.24566880266E+01  0.34499330096E+02  0.87938395435E+02  0.94495505104E+02  0.00000000000E+00 0. -1.
         13    1    3    3    0    0 -0.24566880266E+01 -0.34499330096E+02  0.44634820344E+01  0.34873510936E+02  0.00000000000E+00 0.  1.
<mgrwt>
<rscale>  0 0.90544107E+02</rscale>
<asrwt>0</asrwt>
<pdfrwt beam="1">  1        2 0.17059299E-01 0.90544107E+02</pdfrwt>
<pdfrwt beam="2">  1       -2 0.28436261E-02 0.90544107E+02</pdfrwt>
<totfact> 0.12909430E+05</totfact>
</mgrwt>
</event>
<event>
 5    1  0.6113696E+000  0.9211604E+02  0.7546771E-02  0.1297807E+00
         -2   -1    0    0    0  501 -0.00000000000E+00  0.00000000000E+00  0.13250207891E+03  0.13250207891E+03  0.00000000000E+00 0.  1.
          2   -1    0    0  501    0  0.00000000000E+00 -0.00000000000E+00 -0.16009869909E+02  0.16009869909E+02  0.00000000000E+00 0. -1.
         23    2    1    2    0    0  0.00000000000E+00  0.00000000000E+00  0.11649220900E+03  0.14851194881E+03  0.92116036517E+02 0.  0.
        -13    1    3    3    0    0  0.45752871978E+01  0.35185177243E+02  0.10900101483E+02  0.37117949336E+02  0.00000000000E+00 0. -1.
         13    1    3    3    0    0 -0.45752871978E+01 -0.35185177243E+02  0.10559210751E+03  0.11139399948E+03  0.00000000000E+00 0.  1.
<mgrwt>
<rscale>  0 0.92116037E+02</rscale>
<asrwt>0</asrwt>
<pdfrwt beam="2">  1        2 0.24630570E-02 0.92116037E+02</pdfrwt>
<pdfrwt beam="1">  1       -2 0.20384935E-01 0.92116037E+02</pdfrwt>
<totfact> 0.71112545E+04</totfact>
</mgrwt>
</event>
<event>
 5    1  0.6113696E+000  0.9041754E+02  0.7546771E-02  0.1301844E+00
         -1   -1    0    0    0  501 -0.00000000000E+00  0.00000000000E+00  0.38107700299E+02  0.38107700299E+02  0.00000000000E+00 0.  1.
          1   -1    0    0  501    0  0.00000000000E+00 -0.00000000000E+00 -0.53633065465E+02  0.53633065465E+02  0.00000000000E+00 0. -1.
         23    2    1    2    0    0  0.00000000000E+00  0.00000000000E+00 -0.15525365166E+02  0.91740765764E+02  0.90417537787E+02 0.  0.
        -13    1    3    3    0    0  0.18892837754E+01 -0.42358147617E+02  0.81528804364E+01  0.43176979076E+02  0.00000000000E+00 0. -1.
         13    1    3    3    0    0 -0.18892837754E+01  0.42358147617E+02 -0.23678245602E+02  0.48563786688E+02  0.00000000000E+00 0.  1.
<mgrwt>
<rscale>  0 0.90417538E+02</rscale>
<asrwt>0</asrwt>
<pdfrwt beam="2">  1        1 0.82512408E-02 0.90417538E+02</pdfrwt>
<pdfrwt beam="1">  1       -1 0.58627231E-02 0.90417538E+02</pdfrwt>
<totfact> 0.96987279E+04</totfact>
</mgrwt>
</event>
<event>
 5    1  0.6113696E+000  0.8667461E+02  0.7546771E-02  0.1311110E+00
         -1   -1    0    0    0  501 -0.00000000000E+00  0.00000000000E+00  0.61589221177E+01  0.61589221177E+01  0.00000000000E+00 0.  1.
          1   -1    0    0  501    0  0.00000000000E+00 -0.00000000000E+00 -0.30494332969E+03  0.30494332969E+03  0.00000000000E+00 0. -1.
         23    2    1    2    0    0  0.00000000000E+00  0.00000000000E+00 -0.29878440757E+03  0.31110225181E+03  0.86674614919E+02 0.  0.
        -13    1    3    3    0    0  0.37353595147E+02 -0.75688895556E+01 -0.75349377297E+02  0.84439965766E+02  0.00000000000E+00 0. -1.
         13    1    3    3    0    0 -0.37353595147E+02  0.75688895556E+01 -0.22343503028E+03  0.22666228604E+03  0.00000000000E+00 0.  1.
<mgrwt>
<rscale>  0 0.86674615E+02</rscale>
<asrwt>0</asrwt>
<pdfrwt beam="2">  1        1 0.46914343E-01 0.86674615E+02</pdfrwt>
<pdfrwt beam="1">  1       -1 0.94752679E-03 0.86674615E+02</pdfrwt>
<totfact> 0.14702059E+05</totfact>
</mgrwt>
</event>
<event>
 5    1  0.6113696E+000  0.9948927E+02  0.7546771E-02  0.1281374E+00
         -1   -1    0    0    0  501 -0.00000000000E+00  0.00000000000E+00  0.16127514952E+02  0.16127514952E+02  0.00000000000E+00 0.  1.
          1   -1    0    0  501    0  0.00000000000E+00 -0.00000000000E+00 -0.15343521847E+03  0.15343521847E+03  0.00000000000E+00 0. -1.
         23    2    1    2    0    0  0.00000000000E+00  0.00000000000E+00 -0.13730770352E+03  0.16956273342E+03  0.99489271382E+02 0.  0.
        -13    1    3    3    0    0  0.48375057339E+02 -0.88835304896E+01 -0.81346890324E+02  0.95059875088E+02  0.00000000000E+00 0. -1.
         13    1    3    3    0    0 -0.48375057339E+02  0.88835304896E+01 -0.55960813195E+02  0.74502858334E+02  0.00000000000E+00 0.  1.
<mgrwt>
<rscale>  0 0.99489271E+02</rscale>
<asrwt>0</asrwt>
<pdfrwt beam="2">  1        1 0.23605419E-01 0.99489271E+02</pdfrwt>
<pdfrwt beam="1">  1       -1 0.24811561E-02 0.99489271E+02</pdfrwt>
<totfact> 0.88875920E+04</totfact>
</mgrwt>
</event>
<event>
 5    1  0.6113696E+000  0.9060752E+02  0.7546771E-02  0.1301387E+00
         -2   -1    0    0    0  501 -0.00000000000E+00  0.00000000000E+00  0.14973153067E+03  0.14973153067E+03  0.00000000000E+00 0.  1.
          2   -1    0    0  501    0  0.00000000000E+00 -0.00000000000E+00 -0.13707404796E+02  0.13707404796E+02  0.00000000000E+00 0. -1.
         23    2    1    2    0    0  0.00000000000E+00  0.00000000000E+00  0.13602412588E+03  0.16343893547E+03  0.90607520696E+02 0.  0.
        -13    1    3    3    0    0  0.34450187851E+02  0.23441516012E+01  0.12091391232E+03  0.12574770249E+03  0.00000000000E+00 0.  1.
         13    1    3    3    0    0 -0.34450187851E+02 -0.23441516012E+01  0.15110213561E+02  0.37691232980E+02  0.00000000000E+00 0. -1.
<mgrwt>
<rscale>  0 0.90607521E+02</rscale>
<asrwt>0</asrwt>
<pdfrwt beam="2">  1        2 0.21088316E-02 0.90607521E+02</pdfrwt>
<pdfrwt beam="1">  1       -2 0.23035619E-01 0.90607521E+02</pdfrwt>
<totfact> 0.71018766E+04</totfact>
</mgrwt>
</event>
<event>
 5    1  0.6113696E+000  0.9089004E+02  0.7546771E-02  0.1300711E+00
          3   -1    0    0  501    0  0.00000000000E+00  0.00000000000E+00  0.28086369448E+03  0.28086369448E+03  0.00000000000E+00 0. -1.
         -3   -1    0    0    0  501 -0.00000000000E+00 -0.00000000000E+00 -0.73532098117E+01  0.73532098117E+01  0.00000000000E+00 0.  1.
         23    2    1    2    0    0  0.00000000000E+00  0.00000000000E+00  0.27351048467E+03  0.28821690430E+03  0.90890036287E+02 0.  0.
        -13    1    3    3    0    0  0.36434917093E+02  0.23038091551E+02  0.91132559369E+02  0.10081369065E+03  0.00000000000E+00 0.  1.
         13    1    3    3    0    0 -0.36434917093E+02 -0.23038091551E+02  0.18237792530E+03  0.18740321364E+03  0.00000000000E+00 0. -1.
<mgrwt>
<rscale>  0 0.90890036E+02</rscale>
<asrwt>0</asrwt>
<pdfrwt beam="1">  1        3 0.43209791E-01 0.90890036E+02</pdfrwt>
<pdfrwt beam="2">  1       -3 0.11312633E-02 0.90890036E+02</pdfrwt>
<totfact> 0.24702423E+04</totfact>
</mgrwt>
</event>
<event>
 5    1  0.6113696E+000  0.7887302E+02  0.7546771E-02  0.1332280E+00
          2   -1    0    0  501    0  0.00000000000E+00  0.00000000000E+00  0.29988728405E+02  0.29988728405E+02  0.00000000000E+00 0. -1.
         -2   -1    0    0    0  501 -0.00000000000E+00 -0.00000000000E+00 -0.51860768533E+02  0.51860768533E+02  0.00000000000E+00 0.  1.
         23    2    1    2    0    0  0.00000000000E+00  0.00000000000E+00 -0.21872040129E+02  0.81849496938E+02  0.78873024601E+02 0.  0.
        -13    1    3    3    0    0 -0.25057653922E+02  0.30370551964E+02 -0.13252304083E+02  0.41543712041E+02  0.00000000000E+00 0. -1.
         13    1    3    3    0    0  0.25057653922E+02 -0.30370551964E+02 -0.86197360455E+01  0.40305784897E+02  0.00000000000E+00 0.  1.
<mgrwt>
<rscale>  0 0.78873025E+02</rscale>
<asrwt>0</asrwt>
<pdfrwt beam="1">  1        2 0.46136505E-02 0.78873025E+02</pdfrwt>
<pdfrwt beam="2">  1       -2 0.79785798E-02 0.78873025E+02</pdfrwt>
<totfact> 0.13496982E+05</totfact>
</mgrwt>
</event>
<event>
 5    1  0.6113696E+000  0.9352515E+02  0.7546771E-02  0.1294533E+00
          1   -1    0    0  501    0  0.00000000000E+00  0.00000000000E+00  0.25789328161E+03  0.25789328161E+03  0.00000000000E+00 0. -1.
         -1   -1    0    0    0  501 -0.00000000000E+00 -0.00000000000E+00 -0.84792380065E+01  0.84792380065E+01  0.00000000000E+00 0.  1.
         23    2    1    2    0    0  0.00000000000E+00  0.00000000000E+00  0.24941404360E+03  0.26637251962E+03  0.93525152019E+02 0.  0.
        -13    1    3    3    0    0 -0.37320950716E+02  0.26895430375E+02  0.14862476278E+03  0.15558128952E+03  0.00000000000E+00 0.  1.
         13    1    3    3    0    0  0.37320950716E+02 -0.26895430375E+02  0.10078928082E+03  0.11079123010E+03  0.00000000000E+00 0. -1.
<mgrwt>
<rscale>  0 0.93525152E+02</rscale>
<asrwt>0</asrwt>
<pdfrwt beam="1">  1        1 0.39675884E-01 0.93525152E+02</pdfrwt>
<pdfrwt beam="2">  1       -1 0.13044983E-02 0.93525152E+02</pdfrwt>
<totfact> 0.11623748E+05</totfact>
</mgrwt>
</event>
<event>
 5    1  0.6113696E+000  0.9061107E+02  0.7546771E-02  0.1301379E+00
          1   -1    0    0  501    0  0.00000000000E+00  0.00000000000E+00  0.65388330446E+02  0.65388330446E+02  0.00000000000E+00 0.  1.
         -1   -1    0    0    0  501 -0.00000000000E+00 -0.00000000000E+00 -0.31390790667E+02  0.31390790667E+02  0.00000000000E+00 0. -1.
         23    2    1    2    0    0  0.00000000000E+00  0.00000000000E+00  0.33997539779E+02  0.96779121113E+02  0.90611067604E+02 0.  0.
        -13    1    3    3    0    0 -0.14173110911E+02 -0.23668868554E+02 -0.21384985273E+02  0.34905730284E+02  0.00000000000E+00 0. -1.
         13    1    3    3    0    0  0.14173110911E+02  0.23668868554E+02  0.55382525052E+02  0.61873390829E+02  0.00000000000E+00 0.  1.
<mgrwt>
<rscale>  0 0.90611068E+02</rscale>
<asrwt>0</asrwt>
<pdfrwt beam="1">  1        1 0.10059743E-01 0.90611068E+02</pdfrwt>
<pdfrwt beam="2">  1       -1 0.48293524E-02 0.90611068E+02</pdfrwt>
<totfact> 0.99332925E+04</totfact>
</mgrwt>
</event>
<event>
 5    1  0.6113696E+000  0.9147696E+02  0.7546771E-02  0.1299314E+00
          2   -1    0    0  501    0  0.00000000000E+00  0.00000000000E+00  0.18319057628E+02  0.18319057628E+02  0.00000000000E+00 0. -1.
         -2   -1    0    0    0  501 -0.00000000000E+00 -0.00000000000E+00 -0.11419848086E+03  0.11419848086E+03  0.00000000000E+00 0.  1.
         23    2    1    2    0    0  0.00000000000E+00  0.00000000000E+00 -0.95879423231E+02  0.13251753849E+03  0.91476959981E+02 0.  0.
        -13    1    3    3    0    0 -0.38875427064E+02 -0.44850546624E+01 -0.82239059428E+02  0.91075119765E+02  0.00000000000E+00 0.  1.
         13    1    3    3    0    0  0.38875427064E+02  0.44850546624E+01 -0.13640363803E+02  0.41442418721E+02  0.00000000000E+00 0. -1.
<mgrwt>
<rscale>  0 0.91476960E+02</rscale>
<asrwt>0</asrwt>
<pdfrwt beam="1">  1        2 0.28183166E-02 0.91476960E+02</pdfrwt>
<pdfrwt beam="2">  1       -2 0.17568997E-01 0.91476960E+02</pdfrwt>
<totfact> 0.75992066E+04</totfact>
</mgrwt>
</event>
<event>
 5    1  0.6113696E+000  0.8872028E+02  0.7546771E-02  0.1305981E+00
         -1   -1    0    0    0  501 -0.00000000000E+00  0.00000000000E+00  0.64031535560E+01  0.64031535560E+01  0.00000000000E+00 0.  1.
          1   -1    0    0  501    0  0.00000000000E+00 -0.00000000000E+00 -0.30732077517E+03  0.30732077517E+03  0.00000000000E+00 0. -1.
         23    2    1    2    0    0  0.00000000000E+00  0.00000000000E+00 -0.30091762162E+03  0.31372392873E+03  0.88720282110E+02 0.  0.
        -13    1    3    3    0    0 -0.13080366123E+02 -0.41089413230E+02 -0.11364490981E+03  0.12155081811E+03  0.00000000000E+00 0.  1.
         13    1    3    3    0    0  0.13080366123E+02  0.41089413230E+02 -0.18727271180E+03  0.19217311062E+03  0.00000000000E+00 0. -1.
<mgrwt>
<rscale>  0 0.88720282E+02</rscale>
<asrwt>0</asrwt>
<pdfrwt beam="2">  1        1 0.47280120E-01 0.88720282E+02</pdfrwt>
<pdfrwt beam="1">  1       -1 0.98510052E-03 0.88720282E+02</pdfrwt>
<totfact> 0.13840344E+05</totfact>
</mgrwt>
</event>
<event>
 5    1  0.6113696E+000  0.8602960E+02  0.7546771E-02  0.1312762E+00
         -1   -1    0    0    0  501 -0.00000000000E+00  0.00000000000E+00  0.91810198787E+01  0.91810198787E+01  0.00000000000E+00 0.  1.
          1   -1    0    0  501    0  0.00000000000E+00 -0.00000000000E+00 -0.20153240355E+03  0.20153240355E+03  0.00000000000E+00 0. -1.
         23    2    1    2    0    0  0.00000000000E+00  0.00000000000E+00 -0.19235138367E+03  0.21071342343E+03  0.86029599632E+02 0.  0.
        -13    1    3    3    0    0  0.28046167534E+00 -0.34743630668E+02 -0.34063774405E+02  0.48657365912E+02  0.00000000000E+00 0.  1.
         13    1    3    3    0    0 -0.28046167534E+00  0.34743630668E+02 -0.15828760927E+03  0.16205605752E+03  0.00000000000E+00 0. -1.
<mgrwt>
<rscale>  0 0.86029600E+02</rscale>
<asrwt>0</asrwt>
<pdfrwt beam="2">  1        1 0.31004984E-01 0.86029600E+02</pdfrwt>
<pdfrwt beam="1">  1       -1 0.14124647E-02 0.86029600E+02</pdfrwt>
<totfact> 0.13849415E+05</totfact>
</mgrwt>
</event>
<event>
 5    1  0.6113696E+000  0.8907235E+02  0.7546771E-02  0.1305114E+00
          1   -1    0    0  501    0  0.00000000000E+00  0.00000000000E+00  0.95039153538E+01  0.95039153538E+01  0.00000000000E+00 0. -1.
         -1   -1    0    0    0  501 -0.00000000000E+00 -0.00000000000E+00 -0.20870038255E+03  0.20870038255E+03  0.00000000000E+00 0.  1.
         23    2    1    2    0    0  0.00000000000E+00  0.00000000000E+00 -0.19919646719E+03  0.21820429790E+03  0.89072347450E+02 0.  0.
        -13    1    3    3    0    0  0.34951589741E+02  0.26356108247E+02 -0.11968204258E+03  0.12743645233E+03  0.00000000000E+00 0.  1.
         13    1    3    3    0    0 -0.34951589741E+02 -0.26356108247E+02 -0.79514424617E+02  0.90767845570E+02  0.00000000000E+00 0. -1.
<mgrwt>
<rscale>  0 0.89072347E+02</rscale>
<asrwt>0</asrwt>
<pdfrwt beam="1">  1        1 0.14621408E-02 0.89072347E+02</pdfrwt>
<pdfrwt beam="2">  1       -1 0.32107752E-01 0.89072347E+02</pdfrwt>
<totfact> 0.72868421E+04</totfact>
</mgrwt>
</event>
<event>
 5    1  0.6113696E+000  0.8970942E+02  0.7546771E-02  0.1303557E+00
          2   -1    0    0  501    0  0.00000000000E+00  0.00000000000E+00  0.62603682839E+02  0.62603682839E+02  0.00000000000E+00 0. -1.
         -2   -1    0    0    0  501 -0.00000000000E+00 -0.00000000000E+00 -0.32137805122E+02  0.32137805122E+02  0.00000000000E+00 0.  1.
         23    2    1    2    0    0  0.00000000000E+00  0.00000000000E+00  0.30465877716E+02  0.94741487961E+02  0.89709418882E+02 0.  0.
        -13    1    3    3    0    0 -0.24385183163E+01  0.35245319828E+02 -0.13953581661E+02  0.37985278497E+02  0.00000000000E+00 0.  1.
         13    1    3    3    0    0  0.24385183163E+01 -0.35245319828E+02  0.44419459378E+02  0.56756209464E+02  0.00000000000E+00 0. -1.
<mgrwt>
<rscale>  0 0.89709419E+02</rscale>
<asrwt>0</asrwt>
<pdfrwt beam="1">  1        2 0.96313358E-02 0.89709419E+02</pdfrwt>
<pdfrwt beam="2">  1       -2 0.49442777E-02 0.89709419E+02</pdfrwt>
<totfact> 0.11229100E+05</totfact>
</mgrwt>
</event>
<event>
 5    1  0.6113696E+000  0.9345662E+02  0.7546771E-02  0.1294690E+00
          1   -1    0    0  501    0  0.00000000000E+00  0.00000000000E+00  0.31141920978E+02  0.31141920978E+02  0.00000000000E+00 0. -1.
         -1   -1    0    0    0  501 -0.00000000000E+00 -0.00000000000E+00 -0.70115622304E+02  0.70115622304E+02  0.00000000000E+00 0.  1.
         23    2    1    2    0    0  0.00000000000E+00  0.00000000000E+00 -0.38973701326E+02  0.10125754328E+03  0.93456624573E+02 0.  0.
        -13    1    3    3    0    0 -0.33394154552E+02  0.25744816778E+01  0.15817311154E+02  0.37040313798E+02  0.00000000000E+00 0. -1.
         13    1    3    3    0    0  0.33394154552E+02 -0.25744816778E+01 -0.54791012480E+02  0.64217229484E+02  0.00000000000E+00 0.  1.
<mgrwt>
<rscale>  0 0.93456625E+02</rscale>
<asrwt>0</asrwt>
<pdfrwt beam="1">  1        1 0.47910649E-02 0.93456625E+02</pdfrwt>
<pdfrwt beam="2">  1       -1 0.10787019E-01 0.93456625E+02</pdfrwt>
<totfact> 0.81230863E+04</totfact>
</mgrwt>
</event>
<event>
 5    1  0.6113696E+000  0.9064265E+02  0.7546771E-02  0.1301303E+00
          1   -1    0    0  501    0  0.00000000000E+00  0.00000000000E+00  0.18317937367E+02  0.18317937367E+02  0.00000000000E+00 0. -1.
         -1   -1    0    0    0  501 -0.00000000000E+00 -0.00000000000E+00 -0.11213176864E+03  0.11213176864E+03  0.00000000000E+00 0.  1.
         23    2    1    2    0    0  0.00000000000E+00  0.00000000000E+00 -0.93813831272E+02  0.13044970601E+03  0.90642654745E+02 0.  0.
        -13    1    3    3    0    0  0.61408881969E+01 -0.43803489534E+02 -0.32691456975E+02  0.55001705085E+02  0.00000000000E+00 0. -1.
         13    1    3    3    0    0 -0.61408881969E+01  0.43803489534E+02 -0.61122374297E+02  0.75448000921E+02  0.00000000000E+00 0.  1.
<mgrwt>
<rscale>  0 0.90642655E+02</rscale>
<asrwt>0</asrwt>
<pdfrwt beam="1">  1        1 0.28181443E-02 0.90642655E+02</pdfrwt>
<pdfrwt beam="2">  1       -1 0.17251041E-01 0.90642655E+02</pdfrwt>
<totfact> 0.80823186E+04</totfact>
</mgrwt>
</event>
<event>
 5    1  0.6113696E+000  0.8890605E+02  0.7546771E-02  0.1305523E+00
         -2   -1    0    0    0  501 -0.00000000000E+00  0.00000000000E+00  0.53237294215E+02  0.53237294215E+02  0.00000000000E+00 0.  1.
          2   -1    0    0  501    0  0.00000000000E+00 -0.00000000000E+00 -0.37118181385E+02  0.37118181385E+02  0.00000000000E+00 0. -1.
         23    2    1    2    0    0  0.00000000000E+00  0.00000000000E+00  0.16119112831E+02  0.90355475600E+02  0.88906052507E+02 0.  0.
        -13    1    3    3    0    0 -0.33391274326E+02  0.26662868381E+02 -0.43952669493E+01  0.42955839218E+02  0.00000000000E+00 0.  1.
         13    1    3    3    0    0  0.33391274326E+02 -0.26662868381E+02  0.20514379780E+02  0.47399636382E+02  0.00000000000E+00 0. -1.
<mgrwt>
<rscale>  0 0.88906053E+02</rscale>
<asrwt>0</asrwt>
<pdfrwt beam="2">  1        2 0.57104895E-02 0.88906053E+02</pdfrwt>
<pdfrwt beam="1">  1       -2 0.81903529E-02 0.88906053E+02</pdfrwt>
<totfact> 0.10066430E+05</totfact>
</mgrwt>
</event>
<event>
 5    1  0.6113696E+000  0.8818891E+02  0.7546771E-02  0.1307298E+00
          1   -1    0    0  501    0  0.00000000000E+00  0.00000000000E+00  0.23802283000E+03  0.23802283000E+03  0.00000000000E+00 0. -1.
         -1   -1    0    0    0  501 -0.00000000000E+00 -0.00000000000E+00 -0.81686331126E+01  0.81686331126E+01  0.00000000000E+00 0.  1.
         23    2    1    2    0    0  0.00000000000E+00  0.00000000000E+00  0.22985419689E+03  0.24619146312E+03  0.88188914739E+02 0.  0.
        -13    1    3    3    0    0 -0.35454583058E+02  0.18468136844E+02  0.16687118231E+03  0.17159280587E+03  0.00000000000E+00 0. -1.
         13    1    3    3    0    0  0.35454583058E+02 -0.18468136844E+02  0.62983014578E+02  0.74598657251E+02  0.00000000000E+00 0.  1.
<mgrwt>
<rscale>  0 0.88188915E+02</rscale>
<asrwt>0</asrwt>
<pdfrwt beam="1">  1        1 0.36618892E-01 0.88188915E+02</pdfrwt>
<pdfrwt beam="2">  1       -1 0.12567130E-02 0.88188915E+02</pdfrwt>
<totfact> 0.13387620E+05</totfact>
</mgrwt>
</event>
<event>
 5    1  0.6113696E+000  0.9313459E+02  0.7546771E-02  0.1295434E+00
         -2   -1    0    0    0  501 -0.00000000000E+00  0.00000000000E+00  0.34362728630E+02  0.34362728630E+02  0.00000000000E+00 0.  1.
          2   -1    0    0  501    0  0.00000000000E+00 -0.00000000000E+00 -0.63106538941E+02  0.63106538941E+02  0.00000000000E+00 0. -1.
         23    2    1    2    0    0  0.00000000000E+00  0.00000000000E+00 -0.28743810311E+02  0.97469267571E+02  0.93134588041E+02 0.  0.
        -13    1    3    3    0    0  0.13372848305E+02  0.26441988843E+02 -0.51967406609E+02  0.59821594725E+02  0.00000000000E+00 0. -1.
         13    1    3    3    0    0 -0.13372848305E+02 -0.26441988843E+02  0.23223596297E+02  0.37647672846E+02  0.00000000000E+00 0.  1.
<mgrwt>
<rscale>  0 0.93134588E+02</rscale>
<asrwt>0</asrwt>
<pdfrwt beam="2">  1        2 0.97086984E-02 0.93134588E+02</pdfrwt>
<pdfrwt beam="1">  1       -2 0.52865736E-02 0.93134588E+02</pdfrwt>
<totfact> 0.10126858E+05</totfact>
</mgrwt>
</event>
<event>
 5    1  0.6113696E+000  0.9058364E+02  0.7546771E-02  0.1301444E+00
          2   -1    0    0  501    0  0.00000000000E+00  0.00000000000E+00  0.42433165735E+02  0.42433165735E+02  0.00000000000E+00 0. -1.
         -2   -1    0    0    0  501 -0.00000000000E+00 -0.00000000000E+00 -0.48343054872E+02  0.48343054872E+02  0.00000000000E+00 0.  1.
         23    2    1    2    0    0  0.00000000000E+00  0.00000000000E+00 -0.59098891374E+01  0.90776220607E+02  0.90583637806E+02 0.  0.
        -13    1    3    3    0    0  0.21361470550E+02 -0.65286345395E+01  0.36529499370E+02  0.42817517644E+02  0.00000000000E+00 0. -1.
         13    1    3    3    0    0 -0.21361470550E+02  0.65286345395E+01 -0.42439388507E+02  0.47958702963E+02  0.00000000000E+00 0.  1.
<mgrwt>
<rscale>  0 0.90583638E+02</rscale>
<asrwt>0</asrwt>
<pdfrwt beam="1">  1        2 0.65281794E-02 0.90583638E+02</pdfrwt>
<pdfrwt beam="2">  1       -2 0.74373930E-02 0.90583638E+02</pdfrwt>
<totfact> 0.98695908E+04</totfact>
</mgrwt>
</event>
<event>
 5    1  0.6113696E+000  0.9131032E+02  0.7546771E-02  0.1299709E+00
          2   -1    0    0  501    0  0.00000000000E+00  0.00000000000E+00  0.51648174816E+02  0.51648174816E+02  0.00000000000E+00 0. -1.
         -2   -1    0    0    0  501 -0.00000000000E+00 -0.00000000000E+00 -0.40357544031E+02  0.40357544031E+02  0.00000000000E+00 0.  1.
         23    2    1    2    0    0  0.00000000000E+00  0.00000000000E+00  0.11290630785E+02  0.92005718847E+02  0.91310316816E+02 0.  0.
        -13    1    3    3    0    0  0.28965314977E+02  0.18245481803E+02 -0.24792461929E+02  0.42267638288E+02  0.00000000000E+00 0.  1.
         13    1    3    3    0    0 -0.28965314977E+02 -0.18245481803E+02  0.36083092714E+02  0.49738080559E+02  0.00000000000E+00 0. -1.
<mgrwt>
<rscale>  0 0.91310317E+02</rscale>
<asrwt>0</asrwt>
<pdfrwt beam="1">  1        2 0.79458731E-02 0.91310317E+02</pdfrwt>
<pdfrwt beam="2">  1       -2 0.62088529E-02 0.91310317E+02</pdfrwt>
<totfact> 0.10151540E+05</totfact>
</mgrwt>
</event>
<event>
 5    1  0.6113696E+000  0.8847335E+02  0.7546771E-02  0.1306591E+00
          1   -1    0    0  501    0  0.00000000000E+00  0.00000000000E+00  0.76476932182E+01  0.76476932182E+01  0.00000000000E+00 0. -1.
         -1   -1    0    0    0  501 -0.00000000000E+00 -0.00000000000E+00 -0.25587891184E+03  0.25587891184E+03  0.00000000000E+00 0.  1.
         23    2    1    2    0    0  0.00000000000E+00  0.00000000000E+00 -0.24823121863E+03  0.26352660506E+03  0.88473350085E+02 0.  0.
        -13    1    3    3    0    0  0.41371442184E+02 -0.13155820555E+02 -0.14942696498E+03  0.15560555808E+03  0.00000000000E+00 0.  1.
         13    1    3    3    0    0 -0.41371442184E+02  0.13155820555E+02 -0.98804253651E+02  0.10792104698E+03  0.00000000000E+00 0. -1.
<mgrwt>
<rscale>  0 0.88473350E+02</rscale>
<asrwt>0</asrwt>
<pdfrwt beam="1">  1        1 0.11765683E-02 0.88473350E+02</pdfrwt>
<pdfrwt beam="2">  1       -1 0.39365983E-01 0.88473350E+02</pdfrwt>
<totfact> 0.69498327E+04</totfact>
</mgrwt>
</event>
<event>
 5    1  0.6113696E+000  0.8947277E+02  0.7546771E-02  0.1304133E+00
         -2   -1    0    0    0  501 -0.00000000000E+00  0.00000000000E+00  0.16044365062E+03  0.16044365062E+03  0.00000000000E+00 0.  1.
          2   -1    0    0  501    0  0.00000000000E+00 -0.00000000000E+00 -0.12473814337E+02  0.12473814337E+02  0.00000000000E+00 0. -1.
         23    2    1    2    0    0  0.00000000000E+00  0.00000000000E+00  0.14796983628E+03  0.17291746496E+03  0.89472773723E+02 0.  0.
        -13    1    3    3    0    0 -0.30094811238E+02  0.40846305062E+01  0.13746699436E+03  0.14078194632E+03  0.00000000000E+00 0.  1.
         13    1    3    3    0    0  0.30094811238E+02 -0.40846305062E+01  0.10502841920E+02  0.32135518639E+02  0.00000000000E+00 0. -1.
<mgrwt>
<rscale>  0 0.89472774E+02</rscale>
<asrwt>0</asrwt>
<pdfrwt beam="2">  1        2 0.19190485E-02 0.89472774E+02</pdfrwt>
<pdfrwt beam="1">  1       -2 0.24683637E-01 0.89472774E+02</pdfrwt>
<totfact> 0.71470953E+04</totfact>
</mgrwt>
</event>
<event>
 5    1  0.6113696E+000  0.9230975E+02  0.7546771E-02  0.1297353E+00
         -2   -1    0    0    0  501 -0.00000000000E+00  0.00000000000E+00  0.12586920044E+03  0.12586920044E+03  0.00000000000E+00 0.  1.
          2   -1    0    0  501    0  0.00000000000E+00 -0.00000000000E+00 -0.16924492010E+02  0.16924492010E+02  0.00000000000E+00 0. -1.
         23    2    1    2    0    0  0.00000000000E+00  0.00000000000E+00  0.10894470843E+03  0.14279369245E+03  0.92309745470E+02 0.  0.
        -13    1    3    3    0    0 -0.27634706563E+02  0.75461255622E+01  0.11045318032E+03  0.11410751973E+03  0.00000000000E+00 0.  1.
         13    1    3    3    0    0  0.27634706563E+02 -0.75461255622E+01 -0.15084718840E+01  0.28686172718E+02  0.00000000000E+00 0. -1.
<mgrwt>
<rscale>  0 0.92309745E+02</rscale>
<asrwt>0</asrwt>
<pdfrwt beam="2">  1        2 0.26037681E-02 0.92309745E+02</pdfrwt>
<pdfrwt beam="1">  1       -2 0.19364492E-01 0.92309745E+02</pdfrwt>
<totfact> 0.71973406E+04</totfact>
</mgrwt>
</event>
<event>
 5    1  0.6113696E+000  0.9080462E+02  0.7546771E-02  0.1300915E+00
          2   -1    0    0  501    0  0.00000000000E+00  0.00000000000E+00  0.89935169186E+02  0.89935169186E+02  0.00000000000E+00 0.  1.
         -2   -1    0    0    0  501 -0.00000000000E+00 -0.00000000000E+00 -0.22920621053E+02  0.22920621053E+02  0.00000000000E+00 0. -1.
         23    2    1    2    0    0  0.00000000000E+00  0.00000000000E+00  0.67014548133E+02  0.11285579024E+03  0.90804623940E+02 0.  0.
        -13    1    3    3    0    0  0.20269556928E+02  0.33908614416E+02  0.61318089653E+02  0.72942149601E+02  0.00000000000E+00 0.  1.
         13    1    3    3    0    0 -0.20269556928E+02 -0.33908614416E+02  0.56964584798E+01  0.39913640637E+02  0.00000000000E+00 0. -1.
<mgrwt>
<rscale>  0 0.90804624E+02</rscale>
<asrwt>0</asrwt>
<pdfrwt beam="1">  1        2 0.13836180E-01 0.90804624E+02</pdfrwt>
<pdfrwt beam="2">  1       -2 0.35262494E-02 0.90804624E+02</pdfrwt>
<totfact> 0.12018402E+05</totfact>
</mgrwt>
</event>
<event>
 5    1  0.6113696E+000  0.8716573E+02  0.7546771E-02  0.1309864E+00
          3   -1    0    0  501    0  0.00000000000E+00  0.00000000000E+00  0.29904441250E+02  0.29904441250E+02  0.00000000000E+00 0. -1.
         -3   -1    0    0    0  501 -0.00000000000E+00 -0.00000000000E+00 -0.63517866258E+02  0.63517866258E+02  0.00000000000E+00 0.  1.
         23    2    1    2    0    0  0.00000000000E+00  0.00000000000E+00 -0.33613425009E+02  0.93422307508E+02  0.87165734089E+02 0.  0.
        -13    1    3    3    0    0  0.18125282378E+02  0.34670605809E+02 -0.37391811664E+02  0.54117689787E+02  0.00000000000E+00 0.  1.
         13    1    3    3    0    0 -0.18125282378E+02 -0.34670605809E+02  0.37783866554E+01  0.39304617720E+02  0.00000000000E+00 0. -1.
<mgrwt>
<rscale>  0 0.87165734E+02</rscale>
<asrwt>0</asrwt>
<pdfrwt beam="1">  1        3 0.46006833E-02 0.87165734E+02</pdfrwt>
<pdfrwt beam="2">  1       -3 0.97719794E-02 0.87165734E+02</pdfrwt>
<totfact> 0.39731791E+04</totfact>
</mgrwt>
</event>
<event>
 5    1  0.6113696E+000  0.9247300E+02  0.7546771E-02  0.1296971E+00
         -4   -1    0    0    0  501 -0.00000000000E+00  0.00000000000E+00  0.12994323997E+03  0.12994323997E+03  0.00000000000E+00 0.  1.
          4   -1    0    0  501    0  0.00000000000E+00 -0.00000000000E+00 -0.16451904141E+02  0.16451904141E+02  0.00000000000E+00 0. -1.
         23    2    1    2    0    0  0.00000000000E+00  0.00000000000E+00  0.11349133583E+03  0.14639514411E+03  0.92472995577E+02 0.  0.
        -13    1    3    3    0    0  0.42252574187E+02  0.14041980465E+02  0.37013425551E+02  0.57900353296E+02  0.00000000000E+00 0.  1.
         13    1    3    3    0    0 -0.42252574187E+02 -0.14041980465E+02  0.76477910282E+02  0.88494790818E+02  0.00000000000E+00 0. -1.
<mgrwt>
<rscale>  0 0.92472996E+02</rscale>
<asrwt>0</asrwt>
<pdfrwt beam="2">  1        4 0.25310623E-02 0.92472996E+02</pdfrwt>
<pdfrwt beam="1">  1       -4 0.19991267E-01 0.92472996E+02</pdfrwt>
<totfact> 0.22963436E+04</totfact>
</mgrwt>
</event>
<event>
 5    1  0.6113696E+000  0.8951882E+02  0.7546771E-02  0.1304021E+00
         -1   -1    0    0    0  501 -0.00000000000E+00  0.00000000000E+00  0.57470996840E+02  0.57470996840E+02  0.00000000000E+00 0.  1.
          1   -1    0    0  501    0  0.00000000000E+00 -0.00000000000E+00 -0.34859408454E+02  0.34859408454E+02  0.00000000000E+00 0. -1.
         23    2    1    2    0    0  0.00000000000E+00  0.00000000000E+00  0.22611588386E+02  0.92330405293E+02  0.89518823788E+02 0.  0.
        -13    1    3    3    0    0 -0.34023113502E+02 -0.18221114450E+02  0.34685413546E+02  0.51890839047E+02  0.00000000000E+00 0.  1.
         13    1    3    3    0    0  0.34023113502E+02  0.18221114450E+02 -0.12073825160E+02  0.40439566246E+02  0.00000000000E+00 0. -1.
<mgrwt>
<rscale>  0 0.89518824E+02</rscale>
<asrwt>0</asrwt>
<pdfrwt beam="2">  1        1 0.53629859E-02 0.89518824E+02</pdfrwt>
<pdfrwt beam="1">  1       -1 0.88416918E-02 0.89518824E+02</pdfrwt>
<totfact> 0.93515488E+04</totfact>
</mgrwt>
</event>
<event>
 5    1  0.6113696E+000  0.9174049E+02  0.7546771E-02  0.1298691E+00
         -2   -1    0    0    0  501 -0.00000000000E+00  0.00000000000E+00  0.27244890701E+03  0.27244890701E+03  0.00000000000E+00 0.  1.
          2   -1    0    0  501    0  0.00000000000E+00 -0.00000000000E+00 -0.77228400155E+01  0.77228400155E+01  0.00000000000E+00 0. -1.
         23    2    1    2    0    0  0.00000000000E+00  0.00000000000E+00  0.26472606700E+03  0.28017174703E+03  0.91740488799E+02 0.  0.
        -13    1    3    3    0    0 -0.17780205201E+02  0.41227145504E+02  0.16105499583E+03  0.16719606726E+03  0.00000000000E+00 0.  1.
         13    1    3    3    0    0  0.17780205201E+02 -0.41227145504E+02  0.10367107116E+03  0.11297567977E+03  0.00000000000E+00 0. -1.
<mgrwt>
<rscale>  0 0.91740489E+02</rscale>
<asrwt>0</asrwt>
<pdfrwt beam="2">  1        2 0.11881294E-02 0.91740489E+02</pdfrwt>
<pdfrwt beam="1">  1       -2 0.41915209E-01 0.91740489E+02</pdfrwt>
<totfact> 0.52904834E+04</totfact>
</mgrwt>
</event>
<event>
 5    1  0.6113696E+000  0.9283481E+02  0.7546771E-02  0.1296128E+00
         -2   -1    0    0    0  501 -0.00000000000E+00  0.00000000000E+00  0.83124481793E+01  0.83124481793E+01  0.00000000000E+00 0.  1.
          2   -1    0    0  501    0  0.00000000000E+00 -0.00000000000E+00 -0.25919869083E+03  0.25919869083E+03  0.00000000000E+00 0. -1.
         23    2    1    2    0    0  0.00000000000E+00  0.00000000000E+00 -0.25088624265E+03  0.26751113900E+03  0.92834814281E+02 0.  0.
        -13    1    3    3    0    0 -0.35865300435E+02 -0.11964927524E+02 -0.47848989566E+02  0.60983645909E+02  0.00000000000E+00 0.  1.
         13    1    3    3    0    0  0.35865300435E+02  0.11964927524E+02 -0.20303725308E+03  0.20652749310E+03  0.00000000000E+00 0. -1.
<mgrwt>
<rscale>  0 0.92834814E+02</rscale>
<asrwt>0</asrwt>
<pdfrwt beam="2">  1        2 0.39876721E-01 0.92834814E+02</pdfrwt>
<pdfrwt beam="1">  1       -2 0.12788382E-02 0.92834814E+02</pdfrwt>
<totfact> 0.16210337E+05</totfact>
</mgrwt>
</event>
<event>
 5    1  0.6113696E+000  0.9139945E+02  0.7546771E-02  0.1299498E+00
          4   -1    0    0  501    0  0.00000000000E+00  0.00000000000E+00  0.24246386128E+02  0.24246386128E+02  0.00000000000E+00 0.  1.
         -4   -1    0    0    0  501 -0.00000000000E+00 -0.00000000000E+00 -0.86135095366E+02  0.86135095366E+02  0.00000000000E+00 0. -1.
         23    2    1    2    0    0  0.00000000000E+00  0.00000000000E+00 -0.61888709238E+02  0.11038148149E+03  0.91399448170E+02 0.  0.
        -13    1    3    3    0    0 -0.37771197623E+02  0.25461885533E+02 -0.35380642542E+02  0.57678079471E+02  0.00000000000E+00 0. -1.
         13    1    3    3    0    0  0.37771197623E+02 -0.25461885533E+02 -0.26508066696E+02  0.52703402023E+02  0.00000000000E+00 0.  1.
<mgrwt>
<rscale>  0 0.91399448E+02</rscale>
<asrwt>0</asrwt>
<pdfrwt beam="1">  1        4 0.37302133E-02 0.91399448E+02</pdfrwt>
<pdfrwt beam="2">  1       -4 0.13251553E-01 0.91399448E+02</pdfrwt>
<totfact> 0.25659922E+04</totfact>
</mgrwt>
</event>
<event>
 5    1  0.6113696E+000  0.9600013E+02  0.7546771E-02  0.1288939E+00
          1   -1    0    0  501    0  0.00000000000E+00  0.00000000000E+00  0.49436181021E+02  0.49436181021E+02  0.00000000000E+00 0. -1.
         -1   -1    0    0    0  501 -0.00000000000E+00 -0.00000000000E+00 -0.46605665391E+02  0.46605665391E+02  0.00000000000E+00 0.  1.
         23    2    1    2    0    0  0.00000000000E+00  0.00000000000E+00  0.28305156306E+01  0.96041846412E+02  0.96000127310E+02 0.  0.
        -13    1    3    3    0    0 -0.22506902381E+02 -0.39034402405E+02 -0.15137653563E+02  0.47533080915E+02  0.00000000000E+00 0.  1.
         13    1    3    3    0    0  0.22506902381E+02  0.39034402405E+02  0.17968169194E+02  0.48508765497E+02  0.00000000000E+00 0. -1.
<mgrwt>
<rscale>  0 0.96000127E+02</rscale>
<asrwt>0</asrwt>
<pdfrwt beam="1">  1        1 0.76055663E-02 0.96000127E+02</pdfrwt>
<pdfrwt beam="2">  1       -1 0.71701024E-02 0.96000127E+02</pdfrwt>
<totfact> 0.80979380E+04</totfact>
</mgrwt>
</event>
<event>
 5    1  0.6113696E+000  0.9143119E+02  0.7546771E-02  0.1299422E+00
          2   -1    0    0  501    0  0.00000000000E+00  0.00000000000E+00  0.33361397457E+02  0.33361397457E+02  0.00000000000E+00 0. -1.
         -2   -1    0    0    0  501 -0.00000000000E+00 -0.00000000000E+00 -0.62644730312E+02  0.62644730312E+02  0.00000000000E+00 0.  1.
         23    2    1    2    0    0  0.00000000000E+00  0.00000000000E+00 -0.29283332855E+02  0.96006127769E+02  0.91431192632E+02 0.  0.
        -13    1    3    3    0    0 -0.30242082317E+02  0.23758087630E+00 -0.50639341960E+02  0.58982903809E+02  0.00000000000E+00 0.  1.
         13    1    3    3    0    0  0.30242082317E+02 -0.23758087630E+00  0.21356009105E+02  0.37023223961E+02  0.00000000000E+00 0. -1.
<mgrwt>
<rscale>  0 0.91431193E+02</rscale>
<asrwt>0</asrwt>
<pdfrwt beam="1">  1        2 0.51325227E-02 0.91431193E+02</pdfrwt>
<pdfrwt beam="2">  1       -2 0.96376507E-02 0.91431193E+02</pdfrwt>
<totfact> 0.90244776E+04</totfact>
</mgrwt>
</event>
<event>
 5    1  0.6113696E+000  0.7431243E+02  0.7546771E-02  0.1346014E+00
          1   -1    0    0  501    0  0.00000000000E+00  0.00000000000E+00  0.20690768780E+03  0.20690768780E+03  0.00000000000E+00 0. -1.
         -1   -1    0    0    0  501 -0.00000000000E+00 -0.00000000000E+00 -0.66724656317E+01  0.66724656317E+01  0.00000000000E+00 0.  1.
         23    2    1    2    0    0  0.00000000000E+00  0.00000000000E+00  0.20023522217E+03  0.21358015343E+03  0.74312433300E+02 0.  0.
        -13    1    3    3    0    0 -0.12956066175E+02 -0.31106098708E+02  0.55118655355E+02  0.64602749134E+02  0.00000000000E+00 0. -1.
         13    1    3    3    0    0  0.12956066175E+02  0.31106098708E+02  0.14511656681E+03  0.14897740430E+03  0.00000000000E+00 0.  1.
<mgrwt>
<rscale>  0 0.74312433E+02</rscale>
<asrwt>0</asrwt>
<pdfrwt beam="1">  1        1 0.31831947E-01 0.74312433E+02</pdfrwt>
<pdfrwt beam="2">  1       -1 0.10265333E-02 0.74312433E+02</pdfrwt>
<totfact> 0.20491360E+05</totfact>
</mgrwt>
</event>
<event>
 5    1  0.6113696E+000  0.9247872E+02  0.7546771E-02  0.1296958E+00
         -1   -1    0    0    0  501 -0.00000000000E+00  0.00000000000E+00  0.45602723196E+02  0.45602723196E+02  0.00000000000E+00 0.  1.
          1   -1    0    0  501    0  0.00000000000E+00 -0.00000000000E+00 -0.46884884229E+02  0.46884884229E+02  0.00000000000E+00 0. -1.
         23    2    1    2    0    0  0.00000000000E+00  0.00000000000E+00 -0.12821610329E+01  0.92487607425E+02  0.92478719662E+02 0.  0.
        -13    1    3    3    0    0  0.17397084241E+02  0.23671802463E+02 -0.36352573350E+02  0.46738874196E+02  0.00000000000E+00 0. -1.
         13    1    3    3    0    0 -0.17397084241E+02 -0.23671802463E+02  0.35070412317E+02  0.45748733229E+02  0.00000000000E+00 0.  1.
<mgrwt>
<rscale>  0 0.92478720E+02</rscale>
<asrwt>0</asrwt>
<pdfrwt beam="2">  1        1 0.72130591E-02 0.92478720E+02</pdfrwt>
<pdfrwt beam="1">  1       -1 0.70158036E-02 0.92478720E+02</pdfrwt>
<totfact> 0.89236875E+04</totfact>
</mgrwt>
</event>
<event>
 5    1  0.6113696E+000  0.9085355E+02  0.7546771E-02  0.1300798E+00
          1   -1    0    0  501    0  0.00000000000E+00  0.00000000000E+00  0.19233955681E+03  0.19233955681E+03  0.00000000000E+00 0. -1.
         -1   -1    0    0    0  501 -0.00000000000E+00 -0.00000000000E+00 -0.10728899997E+02  0.10728899997E+02  0.00000000000E+00 0.  1.
         23    2    1    2    0    0  0.00000000000E+00  0.00000000000E+00  0.18161065681E+03  0.20306845681E+03  0.90853549640E+02 0.  0.
        -13    1    3    3    0    0 -0.40595542798E+01 -0.34863502491E+02  0.15526236934E+03  0.15918023470E+03  0.00000000000E+00 0. -1.
         13    1    3    3    0    0  0.40595542798E+01  0.34863502491E+02  0.26348287476E+02  0.43888222108E+02  0.00000000000E+00 0.  1.
<mgrwt>
<rscale>  0 0.90853550E+02</rscale>
<asrwt>0</asrwt>
<pdfrwt beam="1">  1        1 0.29590699E-01 0.90853550E+02</pdfrwt>
<pdfrwt beam="2">  1       -1 0.16506001E-02 0.90853550E+02</pdfrwt>
<totfact> 0.11863973E+05</totfact>
</mgrwt>
</event>
<event>
 5    1  0.6113696E+000  0.8725679E+02  0.7546771E-02  0.1309634E+00
         -3   -1    0    0    0  501 -0.00000000000E+00  0.00000000000E+00  0.58559759523E+02  0.58559759523E+02  0.00000000000E+00 0.  1.
          3   -1    0    0  501    0  0.00000000000E+00 -0.00000000000E+00 -0.32504177847E+02  0.32504177847E+02  0.00000000000E+00 0. -1.
         23    2    1    2    0    0  0.00000000000E+00  0.00000000000E+00  0.26055581676E+02  0.91063937369E+02  0.87256789723E+02 0.  0.
        -13    1    3    3    0    0  0.10636456962E+02  0.18154982542E+02  0.52914443713E+02  0.56944498955E+02  0.00000000000E+00 0.  1.
         13    1    3    3    0    0 -0.10636456962E+02 -0.18154982542E+02 -0.26858862037E+02  0.34119438414E+02  0.00000000000E+00 0. -1.
<mgrwt>
<rscale>  0 0.87256790E+02</rscale>
<asrwt>0</asrwt>
<pdfrwt beam="2">  1        3 0.50006428E-02 0.87256790E+02</pdfrwt>
<pdfrwt beam="1">  1       -3 0.90091938E-02 0.87256790E+02</pdfrwt>
<totfact> 0.39825030E+04</totfact>
</mgrwt>
</event>
<event>
 5    1  0.6113696E+000  0.9084539E+02  0.7546771E-02  0.1300817E+00
          2   -1    0    0  501    0  0.00000000000E+00  0.00000000000E+00  0.28066568278E+03  0.28066568278E+03  0.00000000000E+00 0. -1.
         -2   -1    0    0    0  501 -0.00000000000E+00 -0.00000000000E+00 -0.73511698444E+01  0.73511698444E+01  0.00000000000E+00 0.  1.
         23    2    1    2    0    0  0.00000000000E+00  0.00000000000E+00  0.27331451294E+03  0.28801685263E+03  0.90845387414E+02 0.  0.
        -13    1    3    3    0    0 -0.30327039520E+02 -0.31647234700E+02  0.17442960759E+03  0.17985261965E+03  0.00000000000E+00 0.  1.
         13    1    3    3    0    0  0.30327039520E+02  0.31647234700E+02  0.98884905345E+02  0.10816423298E+03  0.00000000000E+00 0. -1.
<mgrwt>
<rscale>  0 0.90845387E+02</rscale>
<asrwt>0</asrwt>
<pdfrwt beam="1">  1        2 0.43179328E-01 0.90845387E+02</pdfrwt>
<pdfrwt beam="2">  1       -2 0.11309494E-02 0.90845387E+02</pdfrwt>
<totfact> 0.17696527E+05</totfact>
</mgrwt>
</event>
<event>
 5    1  0.6113696E+000  0.9712068E+02  0.7546771E-02  0.1286470E+00
          3   -1    0    0  501    0  0.00000000000E+00  0.00000000000E+00  0.13318409801E+03  0.13318409801E+03  0.00000000000E+00 0. -1.
         -3   -1    0    0    0  501 -0.00000000000E+00 -0.00000000000E+00 -0.17705615695E+02  0.17705615695E+02  0.00000000000E+00 0.  1.
         23    2    1    2    0    0  0.00000000000E+00  0.00000000000E+00  0.11547848232E+03  0.15088971371E+03  0.97120676604E+02 0.  0.
        -13    1    3    3    0    0 -0.19043570738E+02 -0.44131104759E+02  0.46987208214E+02  0.67216141882E+02  0.00000000000E+00 0. -1.
         13    1    3    3    0    0  0.19043570738E+02  0.44131104759E+02  0.68491274103E+02  0.83673571825E+02  0.00000000000E+00 0.  1.
<mgrwt>
<rscale>  0 0.97120677E+02</rscale>
<asrwt>0</asrwt>
<pdfrwt beam="1">  1        3 0.20489861E-01 0.97120677E+02</pdfrwt>
<pdfrwt beam="2">  1       -3 0.27239410E-02 0.97120677E+02</pdfrwt>
<totfact> 0.26317752E+04</totfact>
</mgrwt>
</event>
<event>
 5    1  0.6113696E+000  0.9241491E+02  0.7546771E-02  0.1297107E+00
          1   -1    0    0  501    0  0.00000000000E+00  0.00000000000E+00  0.90503101851E+02  0.90503101851E+02  0.00000000000E+00 0. -1.
         -1   -1    0    0    0  501 -0.00000000000E+00 -0.00000000000E+00 -0.23591773737E+02  0.23591773737E+02  0.00000000000E+00 0.  1.
         23    2    1    2    0    0  0.00000000000E+00  0.00000000000E+00  0.66911328114E+02  0.11409487559E+03  0.92414905753E+02 0.  0.
        -13    1    3    3    0    0 -0.42384522654E+02 -0.77766751893E+01  0.12863309606E+02  0.44970981439E+02  0.00000000000E+00 0.  1.
         13    1    3    3    0    0  0.42384522654E+02  0.77766751893E+01  0.54048018508E+02  0.69123894148E+02  0.00000000000E+00 0. -1.
<mgrwt>
<rscale>  0 0.92414906E+02</rscale>
<asrwt>0</asrwt>
<pdfrwt beam="1">  1        1 0.13923554E-01 0.92414906E+02</pdfrwt>
<pdfrwt beam="2">  1       -1 0.36295037E-02 0.92414906E+02</pdfrwt>
<totfact> 0.99026482E+04</totfact>
</mgrwt>
</event>
<event>
 5    1  0.6113696E+000  0.8521856E+02  0.7546771E-02  0.1314862E+00
         -3   -1    0    0    0  501 -0.00000000000E+00  0.00000000000E+00  0.91666237097E+01  0.91666237097E+01  0.00000000000E+00 0.  1.
          3   -1    0    0  501    0  0.00000000000E+00 -0.00000000000E+00 -0.19806102637E+03  0.19806102637E+03  0.00000000000E+00 0. -1.
         23    2    1    2    0    0  0.00000000000E+00  0.00000000000E+00 -0.18889440266E+03  0.20722765008E+03  0.85218563713E+02 0.  0.
        -13    1    3    3    0    0 -0.38817280267E+01 -0.28390823739E+02 -0.17113101529E+03  0.17351348961E+03  0.00000000000E+00 0. -1.
         13    1    3    3    0    0  0.38817280267E+01  0.28390823739E+02 -0.17763387379E+02  0.33714160470E+02  0.00000000000E+00 0.  1.
<mgrwt>
<rscale>  0 0.85218564E+02</rscale>
<asrwt>0</asrwt>
<pdfrwt beam="2">  1        3 0.30470928E-01 0.85218564E+02</pdfrwt>
<pdfrwt beam="1">  1       -3 0.14102497E-02 0.85218564E+02</pdfrwt>
<totfact> 0.33720607E+04</totfact>
</mgrwt>
</event>
<event>
 5    1  0.6113696E+000  0.9064188E+02  0.7546771E-02  0.1301305E+00
          1   -1    0    0  501    0  0.00000000000E+00  0.00000000000E+00  0.21086740378E+03  0.21086740378E+03  0.00000000000E+00 0. -1.
         -1   -1    0    0    0  501 -0.00000000000E+00 -0.00000000000E+00 -0.97406600223E+01  0.97406600223E+01  0.00000000000E+00 0.  1.
         23    2    1    2    0    0  0.00000000000E+00  0.00000000000E+00  0.20112674376E+03  0.22060806380E+03  0.90641881932E+02 0.  0.
        -13    1    3    3    0    0 -0.27892732405E+02 -0.24576108248E+02  0.37471054003E+02  0.52783231293E+02  0.00000000000E+00 0.  1.
         13    1    3    3    0    0  0.27892732405E+02  0.24576108248E+02  0.16365568976E+03  0.16782483251E+03  0.00000000000E+00 0. -1.
<mgrwt>
<rscale>  0 0.90641882E+02</rscale>
<asrwt>0</asrwt>
<pdfrwt beam="1">  1        1 0.32441136E-01 0.90641882E+02</pdfrwt>
<pdfrwt beam="2">  1       -1 0.14985632E-02 0.90641882E+02</pdfrwt>
<totfact> 0.12152995E+05</totfact>
</mgrwt>
</event>
<event>
 5    1  0.6113696E+000  0.9056906E+02  0.7546771E-02  0.1301479E+00
          2   -1    0    0  501    0  0.00000000000E+00  0.00000000000E+00  0.98284081741E+02  0.98284081741E+02  0.00000000000E+00 0. -1.
         -2   -1    0    0    0  501 -0.00000000000E+00 -0.00000000000E+00 -0.20864912746E+02  0.20864912746E+02  0.00000000000E+00 0.  1.
         23    2    1    2    0    0  0.00000000000E+00  0.00000000000E+00  0.77419168995E+02  0.11914899449E+03  0.90569062926E+02 0.  0.
        -13    1    3    3    0    0 -0.33053812134E+02  0.13599539749E+02  0.21288243254E+01  0.35805500569E+02  0.00000000000E+00 0.  1.
         13    1    3    3    0    0  0.33053812134E+02 -0.13599539749E+02  0.75290344670E+02  0.83343493918E+02  0.00000000000E+00 0. -1.
<mgrwt>
<rscale>  0 0.90569063E+02</rscale>
<asrwt>0</asrwt>
<pdfrwt beam="1">  1        2 0.15120628E-01 0.90569063E+02</pdfrwt>
<pdfrwt beam="2">  1       -2 0.32099866E-02 0.90569063E+02</pdfrwt>
<totfact> 0.12429993E+05</totfact>
</mgrwt>
</event>
<event>
 5    1  0.6113696E+000  0.9248782E+02  0.7546771E-02  0.1296936E+00
         -2   -1    0    0    0  501 -0.00000000000E+00  0.00000000000E+00  0.30395538864E+02  0.30395538864E+02  0.00000000000E+00 0.  1.
          2   -1    0    0  501    0  0.00000000000E+00 -0.00000000000E+00 -0.70355700902E+02  0.70355700902E+02  0.00000000000E+00 0. -1.
         23    2    1    2    0    0  0.00000000000E+00  0.00000000000E+00 -0.39960162038E+02  0.10075123977E+03  0.92487824951E+02 0.  0.
        -13    1    3    3    0    0 -0.19028185892E+02 -0.16218541044E+02 -0.62358110799E+02  0.67183680417E+02  0.00000000000E+00 0. -1.
         13    1    3    3    0    0  0.19028185892E+02  0.16218541044E+02  0.22397948761E+02  0.33567559349E+02  0.00000000000E+00 0.  1.
<mgrwt>
<rscale>  0 0.92487825E+02</rscale>
<asrwt>0</asrwt>
<pdfrwt beam="2">  1        2 0.10823954E-01 0.92487825E+02</pdfrwt>
<pdfrwt beam="1">  1       -2 0.46762368E-02 0.92487825E+02</pdfrwt>
<totfact> 0.10642986E+05</totfact>
</mgrwt>
</event>
<event>
 5    1  0.6113696E+000  0.9140249E+02  0.7546771E-02  0.1299490E+00
          1   -1    0    0  501    0  0.00000000000E+00  0.00000000000E+00  0.20491834216E+03  0.20491834216E+03  0.00000000000E+00 0. -1.
         -1   -1    0    0    0  501 -0.00000000000E+00 -0.00000000000E+00 -0.10192371307E+02  0.10192371307E+02  0.00000000000E+00 0.  1.
         23    2    1    2    0    0  0.00000000000E+00  0.00000000000E+00  0.19472597085E+03  0.21511071346E+03  0.91402490793E+02 0.  0.
        -13    1    3    3    0    0 -0.21533961268E+02  0.40306225408E+02  0.98653171875E+02  0.10872328001E+03  0.00000000000E+00 0.  1.
         13    1    3    3    0    0  0.21533961268E+02 -0.40306225408E+02  0.96072798975E+02  0.10638743346E+03  0.00000000000E+00 0. -1.
<mgrwt>
<rscale>  0 0.91402491E+02</rscale>
<asrwt>0</asrwt>
<pdfrwt beam="1">  1        1 0.31525896E-01 0.91402491E+02</pdfrwt>
<pdfrwt beam="2">  1       -1 0.15680573E-02 0.91402491E+02</pdfrwt>
<totfact> 0.11817944E+05</totfact>
</mgrwt>
</event>
<event>
 5    1  0.6113696E+000  0.7991235E+02  0.7546771E-02  0.1329300E+00
         -4   -1    0    0    0  501 -0.00000000000E+00  0.00000000000E+00  0.16834573854E+03  0.16834573854E+03  0.00000000000E+00 0.  1.
          4   -1    0    0  501    0  0.00000000000E+00 -0.00000000000E+00 -0.94834347018E+01  0.94834347018E+01  0.00000000000E+00 0. -1.
         23    2    1    2    0    0  0.00000000000E+00  0.00000000000E+00  0.15886230384E+03  0.17782917324E+03  0.79912347451E+02 0.  0.
        -13    1    3    3    0    0 -0.26259778551E+02 -0.25554427955E+02  0.43973266983E+02  0.57238561886E+02  0.00000000000E+00 0. -1.
         13    1    3    3    0    0  0.26259778551E+02  0.25554427955E+02  0.11488903686E+03  0.12059061136E+03  0.00000000000E+00 0.  1.
<mgrwt>
<rscale>  0 0.79912347E+02</rscale>
<asrwt>0</asrwt>
<pdfrwt beam="2">  1        4 0.14589901E-02 0.79912347E+02</pdfrwt>
<pdfrwt beam="1">  1       -4 0.25899342E-01 0.79912347E+02</pdfrwt>
<totfact> 0.31719337E+04</totfact>
</mgrwt>
</event>
<event>
 5    1  0.6113696E+000  0.9176734E+02  0.7546771E-02  0.1298627E+00
         -4   -1    0    0    0  501 -0.00000000000E+00  0.00000000000E+00  0.79675962181E+02  0.79675962181E+02  0.00000000000E+00 0.  1.
          4   -1    0    0  501    0  0.00000000000E+00 -0.00000000000E+00 -0.26423415532E+02  0.26423415532E+02  0.00000000000E+00 0. -1.
         23    2    1    2    0    0  0.00000000000E+00  0.00000000000E+00  0.53252546649E+02  0.10609937771E+03  0.91767337472E+02 0.  0.
        -13    1    3    3    0    0  0.20466334307E+02  0.38217955477E+02  0.92517182615E+01  0.44329191867E+02  0.00000000000E+00 0. -1.
         13    1    3    3    0    0 -0.20466334307E+02 -0.38217955477E+02  0.44000828387E+02  0.61770185847E+02  0.00000000000E+00 0.  1.
<mgrwt>
<rscale>  0 0.91767337E+02</rscale>
<asrwt>0</asrwt>
<pdfrwt beam="2">  1        4 0.40651409E-02 0.91767337E+02</pdfrwt>
<pdfrwt beam="1">  1       -4 0.12257840E-01 0.91767337E+02</pdfrwt>
<totfact> 0.25632831E+04</totfact>
</mgrwt>
</event>
<event>
 5    1  0.6113696E+000  0.9230504E+02  0.7546771E-02  0.1297364E+00
          1   -1    0    0  501    0  0.00000000000E+00  0.00000000000E+00  0.24948029876E+02  0.24948029876E+02  0.00000000000E+00 0. -1.
         -1   -1    0    0    0  501 -0.00000000000E+00 -0.00000000000E+00 -0.85379694378E+02  0.85379694378E+02  0.00000000000E+00 0.  1.
         23    2    1    2    0    0  0.00000000000E+00  0.00000000000E+00 -0.60431664502E+02  0.11032772425E+03  0.92305041381E+02 0.  0.
        -13    1    3    3    0    0 -0.26851575180E+01  0.42156631105E+02 -0.79936844885E+01  0.42991750473E+02  0.00000000000E+00 0.  1.
         13    1    3    3    0    0  0.26851575180E+01 -0.42156631105E+02 -0.52437980013E+02  0.67335973780E+02  0.00000000000E+00 0. -1.
<mgrwt>
<rscale>  0 0.92305041E+02</rscale>
<asrwt>0</asrwt>
<pdfrwt beam="1">  1        1 0.38381584E-02 0.92305041E+02</pdfrwt>
<pdfrwt beam="2">  1       -1 0.13135338E-01 0.92305041E+02</pdfrwt>
<totfact> 0.81110487E+04</totfact>
</mgrwt>
</event>
<event>
 5    1  0.6113696E+000  0.1172709E+03  0.7546771E-02  0.1247668E+00
          2   -1    0    0  501    0  0.00000000000E+00  0.00000000000E+00  0.74795438447E+02  0.74795438447E+02  0.00000000000E+00 0.  1.
         -2   -1    0    0    0  501 -0.00000000000E+00 -0.00000000000E+00 -0.45966924217E+02  0.45966924217E+02  0.00000000000E+00 0. -1.
         23    2    1    2    0    0  0.00000000000E+00  0.00000000000E+00  0.28828514230E+02  0.12076236266E+03  0.11727090434E+03 0.  0.
        -13    1    3    3    0    0  0.83741127421E+01 -0.57474815247E+02  0.61352378014E+01  0.58404805408E+02  0.00000000000E+00 0.  1.
         13    1    3    3    0    0 -0.83741127421E+01  0.57474815247E+02  0.22693276429E+02  0.62357557256E+02  0.00000000000E+00 0. -1.
<mgrwt>
<rscale>  0 0.11727090E+03</rscale>
<asrwt>0</asrwt>
<pdfrwt beam="1">  1        2 0.11506991E-01 0.11727090E+03</pdfrwt>
<pdfrwt beam="2">  1       -2 0.70718345E-02 0.11727090E+03</pdfrwt>
<totfact> 0.54961992E+04</totfact>
</mgrwt>
</event>
<event>
 5    1  0.6113696E+000  0.9027001E+02  0.7546771E-02  0.1302199E+00
         -1   -1    0    0    0  501 -0.00000000000E+00  0.00000000000E+00  0.17884844398E+02  0.17884844398E+02  0.00000000000E+00 0.  1.
          1   -1    0    0  501    0  0.00000000000E+00 -0.00000000000E+00 -0.11390474067E+03  0.11390474067E+03  0.00000000000E+00 0. -1.
         23    2    1    2    0    0  0.00000000000E+00  0.00000000000E+00 -0.96019896273E+02  0.13178958507E+03  0.90270007490E+02 0.  0.
        -13    1    3    3    0    0 -0.36375745747E+02  0.24554088183E+02 -0.63396342312E+02  0.77105086367E+02  0.00000000000E+00 0. -1.
         13    1    3    3    0    0  0.36375745747E+02 -0.24554088183E+02 -0.32623553961E+02  0.54684498701E+02  0.00000000000E+00 0.  1.
<mgrwt>
<rscale>  0 0.90270007E+02</rscale>
<asrwt>0</asrwt>
<pdfrwt beam="2">  1        1 0.17523806E-01 0.90270007E+02</pdfrwt>
<pdfrwt beam="1">  1       -1 0.27515146E-02 0.90270007E+02</pdfrwt>
<totfact> 0.10970814E+05</totfact>
</mgrwt>
</event>
<event>
 5    1  0.6113696E+000  0.8731210E+02  0.7546771E-02  0.1309495E+00
          1   -1    0    0  501    0  0.00000000000E+00  0.00000000000E+00  0.11350309887E+03  0.11350309887E+03  0.00000000000E+00 0. -1.
         -1   -1    0    0    0  501 -0.00000000000E+00 -0.00000000000E+00 -0.16791179466E+02  0.16791179466E+02  0.00000000000E+00 0.  1.
         23    2    1    2    0    0  0.00000000000E+00  0.00000000000E+00  0.96711919406E+02  0.13029427834E+03  0.87312104616E+02 0.  0.
        -13    1    3    3    0    0  0.49200635995E+01 -0.42792150299E+02  0.37753850368E+02  0.57277642852E+02  0.00000000000E+00 0. -1.
         13    1    3    3    0    0 -0.49200635995E+01  0.42792150299E+02  0.58958069038E+02  0.73016635487E+02  0.00000000000E+00 0.  1.
<mgrwt>
<rscale>  0 0.87312105E+02</rscale>
<asrwt>0</asrwt>
<pdfrwt beam="1">  1        1 0.17462015E-01 0.87312105E+02</pdfrwt>
<pdfrwt beam="2">  1       -1 0.25832584E-02 0.87312105E+02</pdfrwt>
<totfact> 0.11998123E+05</totfact>
</mgrwt>
</event>
<event>
 5    1  0.6113696E+000  0.9247776E+02  0.7546771E-02  0.1296960E+00
         -3   -1    0    0    0  501 -0.00000000000E+00  0.00000000000E+00  0.31623316604E+02  0.31623316604E+02  0.00000000000E+00 0.  1.
          3   -1    0    0  501    0  0.00000000000E+00 -0.00000000000E+00 -0.67609420432E+02  0.67609420432E+02  0.00000000000E+00 0. -1.
         23    2    1    2    0    0  0.00000000000E+00  0.00000000000E+00 -0.35986103827E+02  0.99232737036E+02  0.92477761818E+02 0.  0.
        -13    1    3    3    0    0  0.17542524679E+02 -0.38770234971E+02  0.14157902707E+01  0.42577878692E+02  0.00000000000E+00 0.  1.
         13    1    3    3    0    0 -0.17542524679E+02  0.38770234971E+02 -0.37401894098E+02  0.56654858344E+02  0.00000000000E+00 0. -1.
<mgrwt>
<rscale>  0 0.92477762E+02</rscale>
<asrwt>0</asrwt>
<pdfrwt beam="2">  1        3 0.10401449E-01 0.92477762E+02</pdfrwt>
<pdfrwt beam="1">  1       -3 0.48651257E-02 0.92477762E+02</pdfrwt>
<totfact> 0.33411036E+04</totfact>
</mgrwt>
</event>
<event>
 5    1  0.6113696E+000  0.9141770E+02  0.7546771E-02  0.1299454E+00
         -1   -1    0    0    0  501 -0.00000000000E+00  0.00000000000E+00  0.18078553852E+03  0.18078553852E+03  0.00000000000E+00 0. -1.
          1   -1    0    0  501    0  0.00000000000E+00 -0.00000000000E+00 -0.11556780892E+02  0.11556780892E+02  0.00000000000E+00 0.  1.
         23    2    1    2    0    0  0.00000000000E+00  0.00000000000E+00  0.16922875763E+03  0.19234231941E+03  0.91417697565E+02 0.  0.
        -13    1    3    3    0    0 -0.32068645769E+02 -0.13817397698E+02  0.22556162606E+02  0.41570410055E+02  0.00000000000E+00 0.  1.
         13    1    3    3    0    0  0.32068645769E+02  0.13817397698E+02  0.14667259502E+03  0.15077190935E+03  0.00000000000E+00 0. -1.
<mgrwt>
<rscale>  0 0.91417698E+02</rscale>
<asrwt>0</asrwt>
<pdfrwt beam="2">  1        1 0.17779664E-02 0.91417698E+02</pdfrwt>
<pdfrwt beam="1">  1       -1 0.27813158E-01 0.91417698E+02</pdfrwt>
<totfact> 0.70897823E+04</totfact>
</mgrwt>
</event>
<event>
 5    1  0.6113696E+000  0.9180238E+02  0.7546771E-02  0.1298545E+00
         -4   -1    0    0    0  501 -0.00000000000E+00  0.00000000000E+00  0.23819635731E+03  0.23819635731E+03  0.00000000000E+00 0.  1.
          4   -1    0    0  501    0  0.00000000000E+00 -0.00000000000E+00 -0.88453038564E+01  0.88453038564E+01  0.00000000000E+00 0. -1.
         23    2    1    2    0    0  0.00000000000E+00  0.00000000000E+00  0.22935105346E+03  0.24704166117E+03  0.91802378137E+02 0.  0.
        -13    1    3    3    0    0 -0.33245183350E+02  0.27911440152E+02  0.74523580680E+02  0.86244157974E+02  0.00000000000E+00 0. -1.
         13    1    3    3    0    0  0.33245183350E+02 -0.27911440152E+02  0.15482747278E+03  0.16079750319E+03  0.00000000000E+00 0.  1.
<mgrwt>
<rscale>  0 0.91802378E+02</rscale>
<asrwt>0</asrwt>
<pdfrwt beam="2">  1        4 0.13608162E-02 0.91802378E+02</pdfrwt>
<pdfrwt beam="1">  1       -4 0.36645589E-01 0.91802378E+02</pdfrwt>
<totfact> 0.19214619E+04</totfact>
</mgrwt>
</event>
<event>
 5    1  0.6113696E+000  0.9089255E+02  0.7546771E-02  0.1300705E+00
          2   -1    0    0  501    0  0.00000000000E+00  0.00000000000E+00  0.65456943797E+02  0.65456943797E+02  0.00000000000E+00 0.  1.
         -2   -1    0    0    0  501 -0.00000000000E+00 -0.00000000000E+00 -0.31553013822E+02  0.31553013822E+02  0.00000000000E+00 0. -1.
         23    2    1    2    0    0  0.00000000000E+00  0.00000000000E+00  0.33903929975E+02  0.97009957619E+02  0.90892548702E+02 0.  0.
        -13    1    3    3    0    0 -0.30685867294E+02 -0.23823650160E+02  0.42122578525E+02  0.57301835748E+02  0.00000000000E+00 0.  1.
         13    1    3    3    0    0  0.30685867294E+02  0.23823650160E+02 -0.82186485502E+01  0.39708121871E+02  0.00000000000E+00 0. -1.
<mgrwt>
<rscale>  0 0.90892549E+02</rscale>
<asrwt>0</asrwt>
<pdfrwt beam="1">  1        2 0.10070299E-01 0.90892549E+02</pdfrwt>
<pdfrwt beam="2">  1       -2 0.48543098E-02 0.90892549E+02</pdfrwt>
<totfact> 0.10955322E+05</totfact>
</mgrwt>
</event>
<event>
 5    1  0.6113696E+000  0.8823599E+02  0.7546771E-02  0.1307181E+00
          2   -1    0    0  501    0  0.00000000000E+00  0.00000000000E+00  0.36504778690E+03  0.36504778690E+03  0.00000000000E+00 0. -1.
         -2   -1    0    0    0  501 -0.00000000000E+00 -0.00000000000E+00 -0.53318983013E+01  0.53318983013E+01  0.00000000000E+00 0.  1.
         23    2    1    2    0    0  0.00000000000E+00  0.00000000000E+00  0.35971588860E+03  0.37037968520E+03  0.88235994353E+02 0.  0.
        -13    1    3    3    0    0 -0.40976147363E+02 -0.81759334549E+01  0.12041965671E+03  0.12746287405E+03  0.00000000000E+00 0.  1.
         13    1    3    3    0    0  0.40976147363E+02  0.81759334549E+01  0.23929623189E+03  0.24291681115E+03  0.00000000000E+00 0. -1.
<mgrwt>
<rscale>  0 0.88235994E+02</rscale>
<asrwt>0</asrwt>
<pdfrwt beam="1">  1        2 0.56161179E-01 0.88235994E+02</pdfrwt>
<pdfrwt beam="2">  1       -2 0.82029233E-03 0.88235994E+02</pdfrwt>
<totfact> 0.21068849E+05</totfact>
</mgrwt>
</event>
<event>
 5    1  0.6113696E+000  0.9185717E+02  0.7546771E-02  0.1298416E+00
          2   -1    0    0  501    0  0.00000000000E+00  0.00000000000E+00  0.24599107867E+03  0.24599107867E+03  0.00000000000E+00 0. -1.
         -2   -1    0    0    0  501 -0.00000000000E+00 -0.00000000000E+00 -0.85752502125E+01  0.85752502125E+01  0.00000000000E+00 0.  1.
         23    2    1    2    0    0  0.00000000000E+00  0.00000000000E+00  0.23741582846E+03  0.25456632889E+03  0.91857172821E+02 0.  0.
        -13    1    3    3    0    0  0.22127331757E+01 -0.36159196805E+02  0.19694830941E+03  0.20025239145E+03  0.00000000000E+00 0. -1.
         13    1    3    3    0    0 -0.22127331757E+01  0.36159196805E+02  0.40467519048E+02  0.54313937434E+02  0.00000000000E+00 0.  1.
<mgrwt>
<rscale>  0 0.91857173E+02</rscale>
<asrwt>0</asrwt>
<pdfrwt beam="1">  1        2 0.37844776E-01 0.91857173E+02</pdfrwt>
<pdfrwt beam="2">  1       -2 0.13192694E-02 0.91857173E+02</pdfrwt>
<totfact> 0.16356572E+05</totfact>
</mgrwt>
</event>
<event>
 5    1  0.6113696E+000  0.1061359E+03  0.7546771E-02  0.1267898E+00
         -2   -1    0    0    0  501 -0.00000000000E+00  0.00000000000E+00  0.64317092982E+01  0.64317092982E+01  0.00000000000E+00 0.  1.
          2   -1    0    0  501    0  0.00000000000E+00 -0.00000000000E+00 -0.43786270127E+03  0.43786270127E+03  0.00000000000E+00 0. -1.
         23    2    1    2    0    0  0.00000000000E+00  0.00000000000E+00 -0.43143099197E+03  0.44429441057E+03  0.10613586777E+03 0.  0.
        -13    1    3    3    0    0  0.51014242755E+02 -0.11984259963E+02 -0.18065959947E+03  0.18810626340E+03  0.00000000000E+00 0.  1.
         13    1    3    3    0    0 -0.51014242755E+02  0.11984259963E+02 -0.25077139250E+03  0.25618814716E+03  0.00000000000E+00 0. -1.
<mgrwt>
<rscale>  0 0.10613587E+03</rscale>
<asrwt>0</asrwt>
<pdfrwt beam="2">  1        2 0.67363493E-01 0.10613587E+03</pdfrwt>
<pdfrwt beam="1">  1       -2 0.98949373E-03 0.10613587E+03</pdfrwt>
<totfact> 0.13730448E+05</totfact>
</mgrwt>
</event>
<event>
 5    1  0.6113696E+000  0.9211467E+02  0.7546771E-02  0.1297810E+00
          2   -1    0    0  501    0  0.00000000000E+00  0.00000000000E+00  0.33657265052E+02  0.33657265052E+02  0.00000000000E+00 0. -1.
         -2   -1    0    0    0  501 -0.00000000000E+00 -0.00000000000E+00 -0.63025856333E+02  0.63025856333E+02  0.00000000000E+00 0.  1.
         23    2    1    2    0    0  0.00000000000E+00  0.00000000000E+00 -0.29368591281E+02  0.96683121386E+02  0.92114666623E+02 0.  0.
        -13    1    3    3    0    0  0.24233195017E+02  0.63648030424E+00 -0.55788049174E+02  0.60827290573E+02  0.00000000000E+00 0.  1.
         13    1    3    3    0    0 -0.24233195017E+02 -0.63648030424E+00  0.26419457892E+02  0.35855830812E+02  0.00000000000E+00 0. -1.
<mgrwt>
<rscale>  0 0.92114667E+02</rscale>
<asrwt>0</asrwt>
<pdfrwt beam="1">  1        2 0.51780408E-02 0.92114667E+02</pdfrwt>
<pdfrwt beam="2">  1       -2 0.96962856E-02 0.92114667E+02</pdfrwt>
<totfact> 0.88492358E+04</totfact>
</mgrwt>
</event>
<event>
 5    1  0.6113696E+000  0.9355279E+02  0.7546771E-02  0.1294469E+00
          2   -1    0    0  501    0  0.00000000000E+00  0.00000000000E+00  0.98447115149E+01  0.98447115149E+01  0.00000000000E+00 0.  1.
         -2   -1    0    0    0  501 -0.00000000000E+00 -0.00000000000E+00 -0.22225447154E+03  0.22225447154E+03  0.00000000000E+00 0. -1.
         23    2    1    2    0    0  0.00000000000E+00  0.00000000000E+00 -0.21240976003E+03  0.23209918306E+03  0.93552790557E+02 0.  0.
        -13    1    3    3    0    0  0.10442992434E+01  0.36061187630E+02 -0.32335592164E+02  0.48446778374E+02  0.00000000000E+00 0.  1.
         13    1    3    3    0    0 -0.10442992434E+01 -0.36061187630E+02 -0.18007416786E+03  0.18365240468E+03  0.00000000000E+00 0. -1.
<mgrwt>
<rscale>  0 0.93552791E+02</rscale>
<asrwt>0</asrwt>
<pdfrwt beam="1">  1        2 0.15145710E-02 0.93552791E+02</pdfrwt>
<pdfrwt beam="2">  1       -2 0.34192997E-01 0.93552791E+02</pdfrwt>
<totfact> 0.55651092E+04</totfact>
</mgrwt>
</event>
<event>
 5    1  0.6113696E+000  0.8975356E+02  0.7546771E-02  0.1303450E+00
          1   -1    0    0  501    0  0.00000000000E+00  0.00000000000E+00  0.23257763627E+02  0.23257763627E+02  0.00000000000E+00 0. -1.
         -1   -1    0    0    0  501 -0.00000000000E+00 -0.00000000000E+00 -0.86591539673E+02  0.86591539673E+02  0.00000000000E+00 0.  1.
         23    2    1    2    0    0  0.00000000000E+00  0.00000000000E+00 -0.63333776046E+02  0.10984930330E+03  0.89753563980E+02 0.  0.
        -13    1    3    3    0    0 -0.85870334892E+01 -0.34627467033E+02  0.16521079091E+01  0.35714535945E+02  0.00000000000E+00 0. -1.
         13    1    3    3    0    0  0.85870334892E+01  0.34627467033E+02 -0.64985883955E+02  0.74134767354E+02  0.00000000000E+00 0.  1.
<mgrwt>
<rscale>  0 0.89753564E+02</rscale>
<asrwt>0</asrwt>
<pdfrwt beam="1">  1        1 0.35781175E-02 0.89753564E+02</pdfrwt>
<pdfrwt beam="2">  1       -1 0.13321775E-01 0.89753564E+02</pdfrwt>
<totfact> 0.86943525E+04</totfact>
</mgrwt>
</event>
<event>
 5    1  0.6113696E+000  0.9171092E+02  0.7546771E-02  0.1298761E+00
         -4   -1    0    0    0  501 -0.00000000000E+00  0.00000000000E+00  0.14769649085E+02  0.14769649085E+02  0.00000000000E+00 0.  1.
          4   -1    0    0  501    0  0.00000000000E+00 -0.00000000000E+00 -0.14236785016E+03  0.14236785016E+03  0.00000000000E+00 0. -1.
         23    2    1    2    0    0  0.00000000000E+00  0.00000000000E+00 -0.12759820108E+03  0.15713749925E+03  0.91710919480E+02 0.  0.
        -13    1    3    3    0    0 -0.28230361421E+02 -0.22248643374E+02 -0.11258642732E+03  0.11818485121E+03  0.00000000000E+00 0. -1.
         13    1    3    3    0    0  0.28230361421E+02  0.22248643374E+02 -0.15011773753E+02  0.38952648038E+02  0.00000000000E+00 0.  1.
<mgrwt>
<rscale>  0 0.91710919E+02</rscale>
<asrwt>0</asrwt>
<pdfrwt beam="2">  1        4 0.21902747E-01 0.91710919E+02</pdfrwt>
<pdfrwt beam="1">  1       -4 0.22722537E-02 0.91710919E+02</pdfrwt>
<totfact> 0.22955730E+04</totfact>
</mgrwt>
</event>
<event>
 5    1  0.6113696E+000  0.9046317E+02  0.7546771E-02  0.1301734E+00
          1   -1    0    0  501    0  0.00000000000E+00  0.00000000000E+00  0.24576939394E+02  0.24576939394E+02  0.00000000000E+00 0. -1.
         -1   -1    0    0    0  501 -0.00000000000E+00 -0.00000000000E+00 -0.83244559867E+02  0.83244559867E+02  0.00000000000E+00 0.  1.
         23    2    1    2    0    0  0.00000000000E+00  0.00000000000E+00 -0.58667620472E+02  0.10782149926E+03  0.90463174889E+02 0.  0.
        -13    1    3    3    0    0 -0.20720079262E+02  0.28376097292E+02 -0.63284103313E+02  0.72383715809E+02  0.00000000000E+00 0.  1.
         13    1    3    3    0    0  0.20720079262E+02 -0.28376097292E+02  0.46164828406E+01  0.35437783452E+02  0.00000000000E+00 0. -1.
<mgrwt>
<rscale>  0 0.90463175E+02</rscale>
<asrwt>0</asrwt>
<pdfrwt beam="1">  1        1 0.37810676E-02 0.90463175E+02</pdfrwt>
<pdfrwt beam="2">  1       -1 0.12806855E-01 0.90463175E+02</pdfrwt>
<totfact> 0.85788420E+04</totfact>
</mgrwt>
</event>
<event>
 5    1  0.6113696E+000  0.8692689E+02  0.7546771E-02  0.1310469E+00
         -2   -1    0    0    0  501 -0.00000000000E+00  0.00000000000E+00  0.23612925538E+02  0.23612925538E+02  0.00000000000E+00 0.  1.
          2   -1    0    0  501    0  0.00000000000E+00 -0.00000000000E+00 -0.80001562424E+02  0.80001562424E+02  0.00000000000E+00 0. -1.
         23    2    1    2    0    0  0.00000000000E+00  0.00000000000E+00 -0.56388636886E+02  0.10361448796E+03  0.86926887358E+02 0.  0.
        -13    1    3    3    0    0 -0.36127796091E+02 -0.11720372032E+02 -0.30076711992E+01  0.38100273713E+02  0.00000000000E+00 0.  1.
         13    1    3    3    0    0  0.36127796091E+02  0.11720372032E+02 -0.53380965687E+02  0.65514214249E+02  0.00000000000E+00 0. -1.
<mgrwt>
<rscale>  0 0.86926887E+02</rscale>
<asrwt>0</asrwt>
<pdfrwt beam="2">  1        2 0.12307933E-01 0.86926887E+02</pdfrwt>
<pdfrwt beam="1">  1       -2 0.36327577E-02 0.86926887E+02</pdfrwt>
<totfact> 0.13107101E+05</totfact>
</mgrwt>
</event>
<event>
 5    1  0.6113696E+000  0.9251336E+02  0.7546771E-02  0.1296877E+00
          3   -1    0    0  501    0  0.00000000000E+00  0.00000000000E+00  0.71014988002E+01  0.71014988002E+01  0.00000000000E+00 0. -1.
         -3   -1    0    0    0  501 -0.00000000000E+00 -0.00000000000E+00 -0.30129983085E+03  0.30129983085E+03  0.00000000000E+00 0.  1.
         23    2    1    2    0    0  0.00000000000E+00  0.00000000000E+00 -0.29419833205E+03  0.30840132965E+03  0.92513358761E+02 0.  0.
        -13    1    3    3    0    0  0.24828005169E+01  0.45547834833E+02 -0.17268557677E+03  0.17860872874E+03  0.00000000000E+00 0. -1.
         13    1    3    3    0    0 -0.24828005169E+01 -0.45547834833E+02 -0.12151275528E+03  0.12979260092E+03  0.00000000000E+00 0.  1.
<mgrwt>
<rscale>  0 0.92513359E+02</rscale>
<asrwt>0</asrwt>
<pdfrwt beam="1">  1        3 0.10925384E-02 0.92513359E+02</pdfrwt>
<pdfrwt beam="2">  1       -3 0.46353816E-01 0.92513359E+02</pdfrwt>
<totfact> 0.22791969E+04</totfact>
</mgrwt>
</event>
<event>
 5    1  0.6113696E+000  0.9075290E+02  0.7546771E-02  0.1301039E+00
          3   -1    0    0  501    0  0.00000000000E+00  0.00000000000E+00  0.12262416920E+03  0.12262416920E+03  0.00000000000E+00 0. -1.
         -3   -1    0    0    0  501 -0.00000000000E+00 -0.00000000000E+00 -0.16791326316E+02  0.16791326316E+02  0.00000000000E+00 0.  1.
         23    2    1    2    0    0  0.00000000000E+00  0.00000000000E+00  0.10583284289E+03  0.13941549552E+03  0.90752904952E+02 0.  0.
        -13    1    3    3    0    0 -0.34672734816E+02 -0.28711589965E+02  0.61669919371E+02  0.76352687531E+02  0.00000000000E+00 0. -1.
         13    1    3    3    0    0  0.34672734816E+02  0.28711589965E+02  0.44162923518E+02  0.63062807990E+02  0.00000000000E+00 0.  1.
<mgrwt>
<rscale>  0 0.90752905E+02</rscale>
<asrwt>0</asrwt>
<pdfrwt beam="1">  1        3 0.18865256E-01 0.90752905E+02</pdfrwt>
<pdfrwt beam="2">  1       -3 0.25832810E-02 0.90752905E+02</pdfrwt>
<totfact> 0.32373341E+04</totfact>
</mgrwt>
</event>
<event>
 5    1  0.6113696E+000  0.8993388E+02  0.7546771E-02  0.1303012E+00
         -2   -1    0    0    0  501 -0.00000000000E+00  0.00000000000E+00  0.32682104544E+02  0.32682104544E+02  0.00000000000E+00 0.  1.
          2   -1    0    0  501    0  0.00000000000E+00 -0.00000000000E+00 -0.61869502854E+02  0.61869502854E+02  0.00000000000E+00 0. -1.
         23    2    1    2    0    0  0.00000000000E+00  0.00000000000E+00 -0.29187398310E+02  0.94551607398E+02  0.89933877051E+02 0.  0.
        -13    1    3    3    0    0 -0.11482361051E+02  0.18499010258E+02  0.26770681713E+02  0.34506918077E+02  0.00000000000E+00 0.  1.
         13    1    3    3    0    0  0.11482361051E+02 -0.18499010258E+02 -0.55958080023E+02  0.60044689321E+02  0.00000000000E+00 0. -1.
<mgrwt>
<rscale>  0 0.89933877E+02</rscale>
<asrwt>0</asrwt>
<pdfrwt beam="2">  1        2 0.95183849E-02 0.89933877E+02</pdfrwt>
<pdfrwt beam="1">  1       -2 0.50280162E-02 0.89933877E+02</pdfrwt>
<totfact> 0.11115483E+05</totfact>
</mgrwt>
</event>
<event>
 5    1  0.6113696E+000  0.9205270E+02  0.7546771E-02  0.1297956E+00
         -3   -1    0    0    0  501 -0.00000000000E+00  0.00000000000E+00  0.13137753619E+03  0.13137753619E+03  0.00000000000E+00 0.  1.
          3   -1    0    0  501    0  0.00000000000E+00 -0.00000000000E+00 -0.16124712384E+02  0.16124712384E+02  0.00000000000E+00 0. -1.
         23    2    1    2    0    0  0.00000000000E+00  0.00000000000E+00  0.11525282380E+03  0.14750224857E+03  0.92052701964E+02 0.  0.
        -13    1    3    3    0    0  0.44065300013E+02  0.12800663345E+02  0.63363096967E+02  0.78233558685E+02  0.00000000000E+00 0. -1.
         13    1    3    3    0    0 -0.44065300013E+02 -0.12800663345E+02  0.51889726838E+02  0.69268689887E+02  0.00000000000E+00 0.  1.
<mgrwt>
<rscale>  0 0.92052702E+02</rscale>
<asrwt>0</asrwt>
<pdfrwt beam="2">  1        3 0.24807251E-02 0.92052702E+02</pdfrwt>
<pdfrwt beam="1">  1       -3 0.20211928E-01 0.92052702E+02</pdfrwt>
<totfact> 0.30655726E+04</totfact>
</mgrwt>
</event>
<event>
 5    1  0.6113696E+000  0.9459625E+02  0.7546771E-02  0.1292088E+00
         -4   -1    0    0    0  501 -0.00000000000E+00  0.00000000000E+00  0.12288024130E+03  0.12288024130E+03  0.00000000000E+00 0.  1.
          4   -1    0    0  501    0  0.00000000000E+00 -0.00000000000E+00 -0.18205633679E+02  0.18205633679E+02  0.00000000000E+00 0. -1.
         23    2    1    2    0    0  0.00000000000E+00  0.00000000000E+00  0.10467460762E+03  0.14108587498E+03  0.94596250657E+02 0.  0.
        -13    1    3    3    0    0  0.11299101005E+02 -0.21868673776E+02  0.11257436318E+03  0.11523409140E+03  0.00000000000E+00 0.  1.
         13    1    3    3    0    0 -0.11299101005E+02  0.21868673776E+02 -0.78997555581E+01  0.25851783577E+02  0.00000000000E+00 0. -1.
<mgrwt>
<rscale>  0 0.94596251E+02</rscale>
<asrwt>0</asrwt>
<pdfrwt beam="2">  1        4 0.28008668E-02 0.94596251E+02</pdfrwt>
<pdfrwt beam="1">  1       -4 0.18904652E-01 0.94596251E+02</pdfrwt>
<totfact> 0.21841489E+04</totfact>
</mgrwt>
</event>
<event>
 5    1  0.6113696E+000  0.9312488E+02  0.7546771E-02  0.1295456E+00
         -2   -1    0    0    0  501 -0.00000000000E+00  0.00000000000E+00  0.79668216973E+02  0.79668216973E+02  0.00000000000E+00 0.  1.
          2   -1    0    0  501    0  0.00000000000E+00 -0.00000000000E+00 -0.27213620497E+02  0.27213620497E+02  0.00000000000E+00 0. -1.
         23    2    1    2    0    0  0.00000000000E+00  0.00000000000E+00  0.52454596476E+02  0.10688183747E+03  0.93124875783E+02 0.  0.
        -13    1    3    3    0    0  0.42225718050E+02  0.19100319447E+02  0.21065445604E+02  0.50907626799E+02  0.00000000000E+00 0. -1.
         13    1    3    3    0    0 -0.42225718050E+02 -0.19100319447E+02  0.31389150872E+02  0.55974210671E+02  0.00000000000E+00 0.  1.
<mgrwt>
<rscale>  0 0.93124876E+02</rscale>
<asrwt>0</asrwt>
<pdfrwt beam="2">  1        2 0.41867109E-02 0.93124876E+02</pdfrwt>
<pdfrwt beam="1">  1       -2 0.12256649E-01 0.93124876E+02</pdfrwt>
<totfact> 0.80864049E+04</totfact>
</mgrwt>
</event>
<event>
 5    1  0.6113696E+000  0.8956889E+02  0.7546771E-02  0.1303899E+00
         -2   -1    0    0    0  501 -0.00000000000E+00  0.00000000000E+00  0.19425239709E+03  0.19425239709E+03  0.00000000000E+00 0.  1.
          2   -1    0    0  501    0  0.00000000000E+00 -0.00000000000E+00 -0.10324951533E+02  0.10324951533E+02  0.00000000000E+00 0. -1.
         23    2    1    2    0    0  0.00000000000E+00  0.00000000000E+00  0.18392744556E+03  0.20457734862E+03  0.89568891591E+02 0.  0.
        -13    1    3    3    0    0 -0.16023772262E+02 -0.26445488620E+02  0.16595763724E+03  0.16881369170E+03  0.00000000000E+00 0.  1.
         13    1    3    3    0    0  0.16023772262E+02  0.26445488620E+02  0.17969808318E+02  0.35763656928E+02  0.00000000000E+00 0. -1.
<mgrwt>
<rscale>  0 0.89568892E+02</rscale>
<asrwt>0</asrwt>
<pdfrwt beam="2">  1        2 0.15884542E-02 0.89568892E+02</pdfrwt>
<pdfrwt beam="1">  1       -2 0.29884981E-01 0.89568892E+02</pdfrwt>
<totfact> 0.66031940E+04</totfact>
</mgrwt>
</event>
<event>
 5    1  0.6113696E+000  0.9166585E+02  0.7546771E-02  0.1298867E+00
         -4   -1    0    0    0  501 -0.00000000000E+00  0.00000000000E+00  0.20794112969E+03  0.20794112969E+03  0.00000000000E+00 0.  1.
          4   -1    0    0  501    0  0.00000000000E+00 -0.00000000000E+00 -0.10102171764E+02  0.10102171764E+02  0.00000000000E+00 0. -1.
         23    2    1    2    0    0  0.00000000000E+00  0.00000000000E+00  0.19783895793E+03  0.21804330146E+03  0.91665849890E+02 0.  0.
        -13    1    3    3    0    0 -0.16486098131E+02 -0.30606352353E+02  0.27872431873E+02  0.44557970044E+02  0.00000000000E+00 0. -1.
         13    1    3    3    0    0  0.16486098131E+02  0.30606352353E+02  0.16996652605E+03  0.17348533141E+03  0.00000000000E+00 0.  1.
<mgrwt>
<rscale>  0 0.91665850E+02</rscale>
<asrwt>0</asrwt>
<pdfrwt beam="2">  1        4 0.15541804E-02 0.91665850E+02</pdfrwt>
<pdfrwt beam="1">  1       -4 0.31990940E-01 0.91665850E+02</pdfrwt>
<totfact> 0.20361562E+04</totfact>
</mgrwt>
</event>
<event>
 5    1  0.6113696E+000  0.9044773E+02  0.7546771E-02  0.1301771E+00
          1   -1    0    0  501    0  0.00000000000E+00  0.00000000000E+00  0.53085512586E+02  0.53085512586E+02  0.00000000000E+00 0. -1.
         -1   -1    0    0    0  501 -0.00000000000E+00 -0.00000000000E+00 -0.38526483964E+02  0.38526483964E+02  0.00000000000E+00 0.  1.
         23    2    1    2    0    0  0.00000000000E+00  0.00000000000E+00  0.14559028622E+02  0.91611996549E+02  0.90447734064E+02 0.  0.
        -13    1    3    3    0    0 -0.78176777533E+01 -0.28508810808E+02  0.41944757200E+02  0.51315017644E+02  0.00000000000E+00 0. -1.
         13    1    3    3    0    0  0.78176777533E+01  0.28508810808E+02 -0.27385728579E+02  0.40296978906E+02  0.00000000000E+00 0.  1.
<mgrwt>
<rscale>  0 0.90447734E+02</rscale>
<asrwt>0</asrwt>
<pdfrwt beam="1">  1        1 0.81670019E-02 0.90447734E+02</pdfrwt>
<pdfrwt beam="2">  1       -1 0.59271514E-02 0.90447734E+02</pdfrwt>
<totfact> 0.96749082E+04</totfact>
</mgrwt>
</event>
<event>
 5    1  0.6113696E+000  0.9012449E+02  0.7546771E-02  0.1302551E+00
         -1   -1    0    0    0  501 -0.00000000000E+00  0.00000000000E+00  0.69931864301E+02  0.69931864301E+02  0.00000000000E+00 0.  1.
          1   -1    0    0  501    0  0.00000000000E+00 -0.00000000000E+00 -0.29036916444E+02  0.29036916444E+02  0.00000000000E+00 0. -1.
         23    2    1    2    0    0  0.00000000000E+00  0.00000000000E+00  0.40894947857E+02  0.98968780745E+02  0.90124485030E+02 0.  0.
        -13    1    3    3    0    0  0.18015135248E+02  0.58435531916E+01 -0.24454178580E+02  0.30930552241E+02  0.00000000000E+00 0. -1.
         13    1    3    3    0    0 -0.18015135248E+02 -0.58435531916E+01  0.65349126437E+02  0.68038228504E+02  0.00000000000E+00 0.  1.
<mgrwt>
<rscale>  0 0.90124485E+02</rscale>
<asrwt>0</asrwt>
<pdfrwt beam="2">  1        1 0.44672179E-02 0.90124485E+02</pdfrwt>
<pdfrwt beam="1">  1       -1 0.10758748E-01 0.90124485E+02</pdfrwt>
<totfact> 0.89150353E+04</totfact>
</mgrwt>
</event>
<event>
 5    1  0.6113696E+000  0.1049553E+03  0.7546771E-02  0.1270208E+00
         -1   -1    0    0    0  501 -0.00000000000E+00  0.00000000000E+00  0.16047615406E+03  0.16047615406E+03  0.00000000000E+00 0.  1.
          1   -1    0    0  501    0  0.00000000000E+00 -0.00000000000E+00 -0.17160841376E+02  0.17160841376E+02  0.00000000000E+00 0. -1.
         23    2    1    2    0    0  0.00000000000E+00  0.00000000000E+00  0.14331531268E+03  0.17763699543E+03  0.10495533954E+03 0.  0.
        -13    1    3    3    0    0  0.31001082433E+00  0.30518532076E+02 -0.59506015035E+00  0.30525907085E+02  0.00000000000E+00 0. -1.
         13    1    3    3    0    0 -0.31001082433E+00 -0.30518532076E+02  0.14391037283E+03  0.14711108835E+03  0.00000000000E+00 0.  1.
<mgrwt>
<rscale>  0 0.10495534E+03</rscale>
<asrwt>0</asrwt>
<pdfrwt beam="2">  1        1 0.26401296E-02 0.10495534E+03</pdfrwt>
<pdfrwt beam="1">  1       -1 0.24688638E-01 0.10495534E+03</pdfrwt>
<totfact> 0.50982537E+04</totfact>
</mgrwt>
</event>
<event>
 5    1  0.6113696E+000  0.9091417E+02  0.7546771E-02  0.1300653E+00
          2   -1    0    0  501    0  0.00000000000E+00  0.00000000000E+00  0.13502437343E+02  0.13502437343E+02  0.00000000000E+00 0. -1.
         -2   -1    0    0    0  501 -0.00000000000E+00 -0.00000000000E+00 -0.15303507810E+03  0.15303507810E+03  0.00000000000E+00 0.  1.
         23    2    1    2    0    0  0.00000000000E+00  0.00000000000E+00 -0.13953264076E+03  0.16653751544E+03  0.90914169484E+02 0.  0.
        -13    1    3    3    0    0  0.44127934984E+02  0.10689082454E+02 -0.65746582318E+02  0.79900839896E+02  0.00000000000E+00 0. -1.
         13    1    3    3    0    0 -0.44127934984E+02 -0.10689082454E+02 -0.73786058439E+02  0.86636675545E+02  0.00000000000E+00 0.  1.
<mgrwt>
<rscale>  0 0.90914169E+02</rscale>
<asrwt>0</asrwt>
<pdfrwt beam="1">  1        2 0.20772980E-02 0.90914169E+02</pdfrwt>
<pdfrwt beam="2">  1       -2 0.23543858E-01 0.90914169E+02</pdfrwt>
<totfact> 0.69854915E+04</totfact>
</mgrwt>
</event>
<event>
 5    1  0.6113696E+000  0.9241643E+02  0.7546771E-02  0.1297103E+00
         -2   -1    0    0    0  501 -0.00000000000E+00  0.00000000000E+00  0.20737890008E+02  0.20737890008E+02  0.00000000000E+00 0. -1.
          2   -1    0    0  501    0  0.00000000000E+00 -0.00000000000E+00 -0.10296126053E+03  0.10296126053E+03  0.00000000000E+00 0.  1.
         23    2    1    2    0    0  0.00000000000E+00  0.00000000000E+00 -0.82223370526E+02  0.12369915054E+03  0.92416433518E+02 0.  0.
        -13    1    3    3    0    0 -0.29405255859E+02  0.34886005797E+02 -0.50901658629E+02  0.68357013713E+02  0.00000000000E+00 0.  1.
         13    1    3    3    0    0  0.29405255859E+02 -0.34886005797E+02 -0.31321711897E+02  0.55342136829E+02  0.00000000000E+00 0. -1.
<mgrwt>
<rscale>  0 0.92416434E+02</rscale>
<asrwt>0</asrwt>
<pdfrwt beam="2">  1        2 0.15840194E-01 0.92416434E+02</pdfrwt>
<pdfrwt beam="1">  1       -2 0.31904446E-02 0.92416434E+02</pdfrwt>
<totfact> 0.11925536E+05</totfact>
</mgrwt>
</event>
<event>
 5    1  0.6113696E+000  0.9133985E+02  0.7546771E-02  0.1299639E+00
         -1   -1    0    0    0  501 -0.00000000000E+00  0.00000000000E+00  0.10725614311E+03  0.10725614311E+03  0.00000000000E+00 0.  1.
          1   -1    0    0  501    0  0.00000000000E+00 -0.00000000000E+00 -0.19446366501E+02  0.19446366501E+02  0.00000000000E+00 0. -1.
         23    2    1    2    0    0  0.00000000000E+00  0.00000000000E+00  0.87809776612E+02  0.12670250961E+03  0.91339854793E+02 0.  0.
        -13    1    3    3    0    0  0.37163926588E+02  0.19540676383E+02  0.18984438917E+02  0.46080412259E+02  0.00000000000E+00 0.  1.
         13    1    3    3    0    0 -0.37163926588E+02 -0.19540676383E+02  0.68825337695E+02  0.80622097354E+02  0.00000000000E+00 0. -1.
<mgrwt>
<rscale>  0 0.91339855E+02</rscale>
<asrwt>0</asrwt>
<pdfrwt beam="2">  1        1 0.29917488E-02 0.91339855E+02</pdfrwt>
<pdfrwt beam="1">  1       -1 0.16500945E-01 0.91339855E+02</pdfrwt>
<totfact> 0.79929902E+04</totfact>
</mgrwt>
</event>
<event>
 5    1  0.6113696E+000  0.8862025E+02  0.7546771E-02  0.1306228E+00
          1   -1    0    0  501    0  0.00000000000E+00  0.00000000000E+00  0.83089942085E+02  0.83089942085E+02  0.00000000000E+00 0. -1.
         -1   -1    0    0    0  501 -0.00000000000E+00 -0.00000000000E+00 -0.23629662616E+02  0.23629662616E+02  0.00000000000E+00 0.  1.
         23    2    1    2    0    0  0.00000000000E+00  0.00000000000E+00  0.59460279469E+02  0.10671960470E+03  0.88620252724E+02 0.  0.
        -13    1    3    3    0    0 -0.42358274637E+02  0.17455273567E+01  0.45251088534E+02  0.62007510106E+02  0.00000000000E+00 0.  1.
         13    1    3    3    0    0  0.42358274637E+02 -0.17455273567E+01  0.14209190935E+02  0.44712094595E+02  0.00000000000E+00 0. -1.
<mgrwt>
<rscale>  0 0.88620253E+02</rscale>
<asrwt>0</asrwt>
<pdfrwt beam="1">  1        1 0.12783068E-01 0.88620253E+02</pdfrwt>
<pdfrwt beam="2">  1       -1 0.36353328E-02 0.88620253E+02</pdfrwt>
<totfact> 0.10954568E+05</totfact>
</mgrwt>
</event>
<event>
 5    1  0.6113696E+000  0.1000826E+03  0.7546771E-02  0.1280122E+00
         -1   -1    0    0    0  501 -0.00000000000E+00  0.00000000000E+00  0.34172270553E+03  0.34172270553E+03  0.00000000000E+00 0.  1.
          1   -1    0    0  501    0  0.00000000000E+00 -0.00000000000E+00 -0.73279597858E+01  0.73279597858E+01  0.00000000000E+00 0. -1.
         23    2    1    2    0    0  0.00000000000E+00  0.00000000000E+00  0.33439474574E+03  0.34905066532E+03  0.10008257079E+03 0.  0.
        -13    1    3    3    0    0  0.42458043818E+02  0.12513986510E+02  0.85789489511E+02  0.96535598894E+02  0.00000000000E+00 0. -1.
         13    1    3    3    0    0 -0.42458043818E+02 -0.12513986510E+02  0.24860525623E+03  0.25251506642E+03  0.00000000000E+00 0.  1.
<mgrwt>
<rscale>  0 0.10008257E+03</rscale>
<asrwt>0</asrwt>
<pdfrwt beam="2">  1        1 0.11273787E-02 0.10008257E+03</pdfrwt>
<pdfrwt beam="1">  1       -1 0.52572712E-01 0.10008257E+03</pdfrwt>
<totfact> 0.44929368E+04</totfact>
</mgrwt>
</event>
<event>
 5    1  0.6113696E+000  0.9372733E+02  0.7546771E-02  0.1294068E+00
          2   -1    0    0  501    0  0.00000000000E+00  0.00000000000E+00  0.24519551143E+03  0.24519551143E+03  0.00000000000E+00 0. -1.
         -2   -1    0    0    0  501 -0.00000000000E+00 -0.00000000000E+00 -0.89569466943E+01  0.89569466943E+01  0.00000000000E+00 0.  1.
         23    2    1    2    0    0  0.00000000000E+00  0.00000000000E+00  0.23623856473E+03  0.25415245812E+03  0.93727330604E+02 0.  0.
        -13    1    3    3    0    0 -0.38958199049E+02 -0.21881056156E+02  0.79801824192E+02  0.91459570500E+02  0.00000000000E+00 0.  1.
         13    1    3    3    0    0  0.38958199049E+02  0.21881056156E+02  0.15643674054E+03  0.16269288762E+03  0.00000000000E+00 0. -1.
<mgrwt>
<rscale>  0 0.93727331E+02</rscale>
<asrwt>0</asrwt>
<pdfrwt beam="1">  1        2 0.37722381E-01 0.93727331E+02</pdfrwt>
<pdfrwt beam="2">  1       -2 0.13779920E-02 0.93727331E+02</pdfrwt>
<totfact> 0.15475965E+05</totfact>
</mgrwt>
</event>
<event>
 5    1  0.6113696E+000  0.9120931E+02  0.7546771E-02  0.1299949E+00
         -1   -1    0    0    0  501 -0.00000000000E+00  0.00000000000E+00  0.92918296711E+01  0.92918296711E+01  0.00000000000E+00 0.  1.
          1   -1    0    0  501    0  0.00000000000E+00 -0.00000000000E+00 -0.22382939926E+03  0.22382939926E+03  0.00000000000E+00 0. -1.
         23    2    1    2    0    0  0.00000000000E+00  0.00000000000E+00 -0.21453756959E+03  0.23312122893E+03  0.91209312097E+02 0.  0.
        -13    1    3    3    0    0 -0.41267424153E+02 -0.16779879069E+01 -0.57842236919E+02  0.71074188784E+02  0.00000000000E+00 0.  1.
         13    1    3    3    0    0  0.41267424153E+02  0.16779879069E+01 -0.15669533267E+03  0.16204704015E+03  0.00000000000E+00 0. -1.
<mgrwt>
<rscale>  0 0.91209312E+02</rscale>
<asrwt>0</asrwt>
<pdfrwt beam="2">  1        1 0.34435291E-01 0.91209312E+02</pdfrwt>
<pdfrwt beam="1">  1       -1 0.14295123E-02 0.91209312E+02</pdfrwt>
<totfact> 0.12091497E+05</totfact>
</mgrwt>
</event>
<event>
 5    1  0.6113696E+000  0.9065403E+02  0.7546771E-02  0.1301276E+00
         -1   -1    0    0    0  501 -0.00000000000E+00  0.00000000000E+00  0.10547096276E+03  0.10547096276E+03  0.00000000000E+00 0.  1.
          1   -1    0    0  501    0  0.00000000000E+00 -0.00000000000E+00 -0.19479656916E+02  0.19479656916E+02  0.00000000000E+00 0. -1.
         23    2    1    2    0    0  0.00000000000E+00  0.00000000000E+00  0.85991305844E+02  0.12495061968E+03  0.90654027360E+02 0.  0.
        -13    1    3    3    0    0 -0.57153699556E+01 -0.32518520948E+02  0.85799625818E+02  0.91933103118E+02  0.00000000000E+00 0.  1.
         13    1    3    3    0    0  0.57153699556E+01  0.32518520948E+02  0.19168002559E+00  0.33017516557E+02  0.00000000000E+00 0. -1.
<mgrwt>
<rscale>  0 0.90654027E+02</rscale>
<asrwt>0</asrwt>
<pdfrwt beam="2">  1        1 0.29968704E-02 0.90654027E+02</pdfrwt>
<pdfrwt beam="1">  1       -1 0.16226302E-01 0.90654027E+02</pdfrwt>
<totfact> 0.81760802E+04</totfact>
</mgrwt>
</event>
<event>
 5    1  0.6113696E+000  0.8995530E+02  0.7546771E-02  0.1302960E+00
          2   -1    0    0  501    0  0.00000000000E+00  0.00000000000E+00  0.53586108363E+02  0.53586108363E+02  0.00000000000E+00 0. -1.
         -2   -1    0    0    0  501 -0.00000000000E+00 -0.00000000000E+00 -0.37752115882E+02  0.37752115882E+02  0.00000000000E+00 0.  1.
         23    2    1    2    0    0  0.00000000000E+00  0.00000000000E+00  0.15833992482E+02  0.91338224245E+02  0.89955299401E+02 0.  0.
        -13    1    3    3    0    0  0.41097688783E+02 -0.22107955025E+01  0.26336479156E+02  0.48862232598E+02  0.00000000000E+00 0. -1.
         13    1    3    3    0    0 -0.41097688783E+02  0.22107955025E+01 -0.10502486675E+02  0.42475991647E+02  0.00000000000E+00 0.  1.
<mgrwt>
<rscale>  0 0.89955299E+02</rscale>
<asrwt>0</asrwt>
<pdfrwt beam="1">  1        2 0.82440167E-02 0.89955299E+02</pdfrwt>
<pdfrwt beam="2">  1       -2 0.58080178E-02 0.89955299E+02</pdfrwt>
<totfact> 0.10694109E+05</totfact>
</mgrwt>
</event>
<event>
 5    1  0.6113696E+000  0.9119593E+02  0.7546771E-02  0.1299981E+00
         -2   -1    0    0    0  501 -0.00000000000E+00  0.00000000000E+00  0.87482569495E+01  0.87482569495E+01  0.00000000000E+00 0.  1.
          2   -1    0    0  501    0  0.00000000000E+00 -0.00000000000E+00 -0.23766729106E+03  0.23766729106E+03  0.00000000000E+00 0. -1.
         23    2    1    2    0    0  0.00000000000E+00  0.00000000000E+00 -0.22891903411E+03  0.24641554801E+03  0.91195932600E+02 0.  0.
        -13    1    3    3    0    0 -0.23716500760E+02  0.33661039469E+02 -0.61535521644E+02  0.74041599189E+02  0.00000000000E+00 0.  1.
         13    1    3    3    0    0  0.23716500760E+02 -0.33661039469E+02 -0.16738351247E+03  0.17237394882E+03  0.00000000000E+00 0. -1.
<mgrwt>
<rscale>  0 0.91195933E+02</rscale>
<asrwt>0</asrwt>
<pdfrwt beam="2">  1        2 0.36564196E-01 0.91195933E+02</pdfrwt>
<pdfrwt beam="1">  1       -2 0.13458858E-02 0.91195933E+02</pdfrwt>
<totfact> 0.16465967E+05</totfact>
</mgrwt>
</event>
<event>
 5    1  0.6113696E+000  0.9076579E+02  0.7546771E-02  0.1301008E+00
          2   -1    0    0  501    0  0.00000000000E+00  0.00000000000E+00  0.20432868918E+02  0.20432868918E+02  0.00000000000E+00 0. -1.
         -2   -1    0    0    0  501 -0.00000000000E+00 -0.00000000000E+00 -0.10079872414E+03  0.10079872414E+03  0.00000000000E+00 0.  1.
         23    2    1    2    0    0  0.00000000000E+00  0.00000000000E+00 -0.80365855225E+02  0.12123159306E+03  0.90765789094E+02 0.  0.
        -13    1    3    3    0    0 -0.14537445486E+02 -0.42989796632E+02 -0.39670514062E+02  0.60276111534E+02  0.00000000000E+00 0.  1.
         13    1    3    3    0    0  0.14537445486E+02  0.42989796632E+02 -0.40695341163E+02  0.60955481526E+02  0.00000000000E+00 0. -1.
<mgrwt>
<rscale>  0 0.90765789E+02</rscale>
<asrwt>0</asrwt>
<pdfrwt beam="1">  1        2 0.31435182E-02 0.90765789E+02</pdfrwt>
<pdfrwt beam="2">  1       -2 0.15507496E-01 0.90765789E+02</pdfrwt>
<totfact> 0.80517074E+04</totfact>
</mgrwt>
</event>
<event>
 5    1  0.6113696E+000  0.9049804E+02  0.7546771E-02  0.1301650E+00
         -2   -1    0    0    0  501 -0.00000000000E+00  0.00000000000E+00  0.99595604126E+01  0.99595604126E+01  0.00000000000E+00 0.  1.
          2   -1    0    0  501    0  0.00000000000E+00 -0.00000000000E+00 -0.20557875130E+03  0.20557875130E+03  0.00000000000E+00 0. -1.
         23    2    1    2    0    0  0.00000000000E+00  0.00000000000E+00 -0.19561919089E+03  0.21553831171E+03  0.90498044025E+02 0.  0.
        -13    1    3    3    0    0 -0.12406141455E+02  0.39066189289E+02 -0.52158457219E+02  0.66336898864E+02  0.00000000000E+00 0.  1.
         13    1    3    3    0    0  0.12406141455E+02 -0.39066189289E+02 -0.14346073367E+03  0.14920141285E+03  0.00000000000E+00 0. -1.
<mgrwt>
<rscale>  0 0.90498044E+02</rscale>
<asrwt>0</asrwt>
<pdfrwt beam="2">  1        2 0.31627499E-01 0.90498044E+02</pdfrwt>
<pdfrwt beam="1">  1       -2 0.15322401E-02 0.90498044E+02</pdfrwt>
<totfact> 0.15939928E+05</totfact>
</mgrwt>
</event>
<event>
 5    1  0.6113696E+000  0.9307769E+02  0.7546771E-02  0.1295565E+00
          2   -1    0    0  501    0  0.00000000000E+00  0.00000000000E+00  0.16967002821E+03  0.16967002821E+03  0.00000000000E+00 0. -1.
         -2   -1    0    0    0  501 -0.00000000000E+00 -0.00000000000E+00 -0.12765154318E+02  0.12765154318E+02  0.00000000000E+00 0.  1.
         23    2    1    2    0    0  0.00000000000E+00  0.00000000000E+00  0.15690487389E+03  0.18243518253E+03  0.93077689986E+02 0.  0.
        -13    1    3    3    0    0 -0.40569129477E+02 -0.12527903899E+02  0.41105665106E+02  0.59097194065E+02  0.00000000000E+00 0.  1.
         13    1    3    3    0    0  0.40569129477E+02  0.12527903899E+02  0.11579920879E+03  0.12333798846E+03  0.00000000000E+00 0. -1.
<mgrwt>
<rscale>  0 0.93077690E+02</rscale>
<asrwt>0</asrwt>
<pdfrwt beam="1">  1        2 0.26103080E-01 0.93077690E+02</pdfrwt>
<pdfrwt beam="2">  1       -2 0.19638700E-02 0.93077690E+02</pdfrwt>
<totfact> 0.13794688E+05</totfact>
</mgrwt>
</event>
<event>
 5    1  0.6113696E+000  0.9014504E+02  0.7546771E-02  0.1302501E+00
          3   -1    0    0  501    0  0.00000000000E+00  0.00000000000E+00  0.84024699903E+02  0.84024699903E+02  0.00000000000E+00 0. -1.
         -3   -1    0    0    0  501 -0.00000000000E+00 -0.00000000000E+00 -0.24177798562E+02  0.24177798562E+02  0.00000000000E+00 0.  1.
         23    2    1    2    0    0  0.00000000000E+00  0.00000000000E+00  0.59846901341E+02  0.10820249846E+03  0.90145044644E+02 0.  0.
        -13    1    3    3    0    0 -0.38150994737E+02  0.30013589504E+01  0.13411747274E+01  0.38292366141E+02  0.00000000000E+00 0.  1.
         13    1    3    3    0    0  0.38150994737E+02 -0.30013589504E+01  0.58505726613E+02  0.69910132324E+02  0.00000000000E+00 0. -1.
<mgrwt>
<rscale>  0 0.90145045E+02</rscale>
<asrwt>0</asrwt>
<pdfrwt beam="1">  1        3 0.12926877E-01 0.90145045E+02</pdfrwt>
<pdfrwt beam="2">  1       -3 0.37196613E-02 0.90145045E+02</pdfrwt>
<totfact> 0.35142110E+04</totfact>
</mgrwt>
</event>
<event>
 5    1  0.6113696E+000  0.7856136E+02  0.7546771E-02  0.1333184E+00
          3   -1    0    0  501    0  0.00000000000E+00  0.00000000000E+00  0.16405581348E+03  0.16405581348E+03  0.00000000000E+00 0. -1.
         -3   -1    0    0    0  501 -0.00000000000E+00 -0.00000000000E+00 -0.94051645598E+01  0.94051645598E+01  0.00000000000E+00 0.  1.
         23    2    1    2    0    0  0.00000000000E+00  0.00000000000E+00  0.15465064892E+03  0.17346097804E+03  0.78561362585E+02 0.  0.
        -13    1    3    3    0    0 -0.32119670169E+02 -0.15330101712E+02  0.40624758029E+02  0.54009778700E+02  0.00000000000E+00 0.  1.
         13    1    3    3    0    0  0.32119670169E+02  0.15330101712E+02  0.11402589089E+03  0.11945119934E+03  0.00000000000E+00 0. -1.
<mgrwt>
<rscale>  0 0.78561363E+02</rscale>
<asrwt>0</asrwt>
<pdfrwt beam="1">  1        3 0.25239354E-01 0.78561363E+02</pdfrwt>
<pdfrwt beam="2">  1       -3 0.14469485E-02 0.78561363E+02</pdfrwt>
<totfact> 0.44589347E+04</totfact>
</mgrwt>
</event>
<event>
 5    1  0.6113696E+000  0.8894622E+02  0.7546771E-02  0.1305424E+00
         -2   -1    0    0    0  501 -0.00000000000E+00  0.00000000000E+00  0.31186410431E+02  0.31186410431E+02  0.00000000000E+00 0. -1.
          2   -1    0    0  501    0  0.00000000000E+00 -0.00000000000E+00 -0.63420493605E+02  0.63420493605E+02  0.00000000000E+00 0.  1.
         23    2    1    2    0    0  0.00000000000E+00  0.00000000000E+00 -0.32234083174E+02  0.94606904036E+02  0.88946220680E+02 0.  0.
        -13    1    3    3    0    0  0.22485331231E+02 -0.37778263027E+02 -0.89763481443E+01  0.44870503718E+02  0.00000000000E+00 0.  1.
         13    1    3    3    0    0 -0.22485331231E+02  0.37778263027E+02 -0.23257735029E+02  0.49736400318E+02  0.00000000000E+00 0. -1.
<mgrwt>
<rscale>  0 0.88946221E+02</rscale>
<asrwt>0</asrwt>
<pdfrwt beam="2">  1        2 0.97569989E-02 0.88946221E+02</pdfrwt>
<pdfrwt beam="1">  1       -2 0.47979094E-02 0.88946221E+02</pdfrwt>
<totfact> 0.11541006E+05</totfact>
</mgrwt>
</event>
<event>
 5    1  0.6113696E+000  0.9281023E+02  0.7546771E-02  0.1296186E+00
         -3   -1    0    0    0  501 -0.00000000000E+00  0.00000000000E+00  0.88377558382E+01  0.88377558382E+01  0.00000000000E+00 0.  1.
          3   -1    0    0  501    0  0.00000000000E+00 -0.00000000000E+00 -0.24366305311E+03  0.24366305311E+03  0.00000000000E+00 0. -1.
         23    2    1    2    0    0  0.00000000000E+00  0.00000000000E+00 -0.23482529728E+03  0.25250080895E+03  0.92810227243E+02 0.  0.
        -13    1    3    3    0    0 -0.26728353064E+02  0.35848843914E+02 -0.83662764786E+02  0.94863073316E+02  0.00000000000E+00 0.  1.
         13    1    3    3    0    0  0.26728353064E+02 -0.35848843914E+02 -0.15116253249E+03  0.15763773564E+03  0.00000000000E+00 0. -1.
<mgrwt>
<rscale>  0 0.92810227E+02</rscale>
<asrwt>0</asrwt>
<pdfrwt beam="2">  1        3 0.37486621E-01 0.92810227E+02</pdfrwt>
<pdfrwt beam="1">  1       -3 0.13596548E-02 0.92810227E+02</pdfrwt>
<totfact> 0.24778131E+04</totfact>
</mgrwt>
</event>
<event>
 5    1  0.6113696E+000  0.9188292E+02  0.7546771E-02  0.1298355E+00
          1   -1    0    0  501    0  0.00000000000E+00  0.00000000000E+00  0.77531600069E+02  0.77531600069E+02  0.00000000000E+00 0. -1.
         -1   -1    0    0    0  501 -0.00000000000E+00 -0.00000000000E+00 -0.27222676023E+02  0.27222676023E+02  0.00000000000E+00 0.  1.
         23    2    1    2    0    0  0.00000000000E+00  0.00000000000E+00  0.50308924045E+02  0.10475427609E+03  0.91882917459E+02 0.  0.
        -13    1    3    3    0    0  0.15236060385E+02  0.38913189812E+01 -0.24058870269E+02  0.28742114363E+02  0.00000000000E+00 0.  1.
         13    1    3    3    0    0 -0.15236060385E+02 -0.38913189812E+01  0.74367794314E+02  0.76012161728E+02  0.00000000000E+00 0. -1.
<mgrwt>
<rscale>  0 0.91882917E+02</rscale>
<asrwt>0</asrwt>
<pdfrwt beam="1">  1        1 0.11927938E-01 0.91882917E+02</pdfrwt>
<pdfrwt beam="2">  1       -1 0.41881040E-02 0.91882917E+02</pdfrwt>
<totfact> 0.98142928E+04</totfact>
</mgrwt>
</event>
<event>
 5    1  0.6113696E+000  0.9139193E+02  0.7546771E-02  0.1299516E+00
          2   -1    0    0  501    0  0.00000000000E+00  0.00000000000E+00  0.66013467565E+02  0.66013467565E+02  0.00000000000E+00 0. -1.
         -2   -1    0    0    0  501 -0.00000000000E+00 -0.00000000000E+00 -0.31631744369E+02  0.31631744369E+02  0.00000000000E+00 0.  1.
         23    2    1    2    0    0  0.00000000000E+00  0.00000000000E+00  0.34381723196E+02  0.97645211934E+02  0.91391928110E+02 0.  0.
        -13    1    3    3    0    0 -0.19732531719E+02  0.25202845476E+02  0.52034629424E+02  0.61091397818E+02  0.00000000000E+00 0. -1.
         13    1    3    3    0    0  0.19732531719E+02 -0.25202845476E+02 -0.17652906228E+02  0.36553814116E+02  0.00000000000E+00 0.  1.
<mgrwt>
<rscale>  0 0.91391928E+02</rscale>
<asrwt>0</asrwt>
<pdfrwt beam="1">  1        2 0.10155918E-01 0.91391928E+02</pdfrwt>
<pdfrwt beam="2">  1       -2 0.48664222E-02 0.91391928E+02</pdfrwt>
<totfact> 0.10813050E+05</totfact>
</mgrwt>
</event>
<event>
 5    1  0.6113696E+000  0.9705327E+02  0.7546771E-02  0.1286617E+00
         -2   -1    0    0    0  501 -0.00000000000E+00  0.00000000000E+00  0.12194697996E+03  0.12194697996E+03  0.00000000000E+00 0.  1.
          2   -1    0    0  501    0  0.00000000000E+00 -0.00000000000E+00 -0.19310313896E+02  0.19310313896E+02  0.00000000000E+00 0. -1.
         23    2    1    2    0    0  0.00000000000E+00  0.00000000000E+00  0.10263666607E+03  0.14125729386E+03  0.97053273243E+02 0.  0.
        -13    1    3    3    0    0 -0.46335183713E+02  0.85324241723E+01  0.34402205029E+02  0.58337494142E+02  0.00000000000E+00 0. -1.
         13    1    3    3    0    0  0.46335183713E+02 -0.85324241723E+01  0.68234461037E+02  0.82919799716E+02  0.00000000000E+00 0.  1.
<mgrwt>
<rscale>  0 0.97053273E+02</rscale>
<asrwt>0</asrwt>
<pdfrwt beam="2">  1        2 0.29708176E-02 0.97053273E+02</pdfrwt>
<pdfrwt beam="1">  1       -2 0.18761073E-01 0.97053273E+02</pdfrwt>
<totfact> 0.64126946E+04</totfact>
</mgrwt>
</event>
<event>
 5    1  0.6113696E+000  0.9144499E+02  0.7546771E-02  0.1299390E+00
         -1   -1    0    0    0  501 -0.00000000000E+00  0.00000000000E+00  0.19514151343E+02  0.19514151343E+02  0.00000000000E+00 0. -1.
          1   -1    0    0  501    0  0.00000000000E+00 -0.00000000000E+00 -0.10712976709E+03  0.10712976709E+03  0.00000000000E+00 0.  1.
         23    2    1    2    0    0  0.00000000000E+00  0.00000000000E+00 -0.87615615744E+02  0.12664391843E+03  0.91444988670E+02 0.  0.
        -13    1    3    3    0    0  0.14655579113E+02 -0.38504987976E+02 -0.16348440456E+02  0.44324841833E+02  0.00000000000E+00 0. -1.
         13    1    3    3    0    0 -0.14655579113E+02  0.38504987976E+02 -0.71267175288E+02  0.82319076597E+02  0.00000000000E+00 0.  1.
<mgrwt>
<rscale>  0 0.91444989E+02</rscale>
<asrwt>0</asrwt>
<pdfrwt beam="2">  1        1 0.16481502E-01 0.91444989E+02</pdfrwt>
<pdfrwt beam="1">  1       -1 0.30021772E-02 0.91444989E+02</pdfrwt>
<totfact> 0.10482300E+05</totfact>
</mgrwt>
</event>
<event>
 5    1  0.6113696E+000  0.9084788E+02  0.7546771E-02  0.1300811E+00
         -3   -1    0    0    0  501 -0.00000000000E+00  0.00000000000E+00  0.44431437720E+02  0.44431437720E+02  0.00000000000E+00 0.  1.
          3   -1    0    0  501    0  0.00000000000E+00 -0.00000000000E+00 -0.46438610646E+02  0.46438610646E+02  0.00000000000E+00 0. -1.
         23    2    1    2    0    0  0.00000000000E+00  0.00000000000E+00 -0.20071729253E+01  0.90870048366E+02  0.90847878054E+02 0.  0.
        -13    1    3    3    0    0 -0.22574280192E+02  0.19789866600E+02  0.33094280786E+02  0.44681857246E+02  0.00000000000E+00 0.  1.
         13    1    3    3    0    0  0.22574280192E+02 -0.19789866600E+02 -0.35101453711E+02  0.46188191120E+02  0.00000000000E+00 0. -1.
<mgrwt>
<rscale>  0 0.90847878E+02</rscale>
<asrwt>0</asrwt>
<pdfrwt beam="2">  1        3 0.71444016E-02 0.90847878E+02</pdfrwt>
<pdfrwt beam="1">  1       -3 0.68356058E-02 0.90847878E+02</pdfrwt>
<totfact> 0.35712021E+04</totfact>
</mgrwt>
</event>
<event>
 5    1  0.6113696E+000  0.8717600E+02  0.7546771E-02  0.1309838E+00
         -2   -1    0    0    0  501 -0.00000000000E+00  0.00000000000E+00  0.57933900161E+02  0.57933900161E+02  0.00000000000E+00 0. -1.
          2   -1    0    0  501    0  0.00000000000E+00 -0.00000000000E+00 -0.32794504596E+02  0.32794504596E+02  0.00000000000E+00 0.  1.
         23    2    1    2    0    0  0.00000000000E+00  0.00000000000E+00  0.25139395565E+02  0.90728404757E+02  0.87175995666E+02 0.  0.
        -13    1    3    3    0    0 -0.16689281516E+02 -0.10022189963E+02 -0.28018707854E+02  0.34117801790E+02  0.00000000000E+00 0.  1.
         13    1    3    3    0    0  0.16689281516E+02  0.10022189963E+02  0.53158103419E+02  0.56610602967E+02  0.00000000000E+00 0. -1.
<mgrwt>
<rscale>  0 0.87175996E+02</rscale>
<asrwt>0</asrwt>
<pdfrwt beam="2">  1        2 0.50453084E-02 0.87175996E+02</pdfrwt>
<pdfrwt beam="1">  1       -2 0.89129077E-02 0.87175996E+02</pdfrwt>
<totfact> 0.10328918E+05</totfact>
</mgrwt>
</event>
<event>
 5    1  0.6113696E+000  0.9142231E+02  0.7546771E-02  0.1299443E+00
          1   -1    0    0  501    0  0.00000000000E+00  0.00000000000E+00  0.36107318145E+02  0.36107318145E+02  0.00000000000E+00 0. -1.
         -1   -1    0    0    0  501 -0.00000000000E+00 -0.00000000000E+00 -0.57869429950E+02  0.57869429950E+02  0.00000000000E+00 0.  1.
         23    2    1    2    0    0  0.00000000000E+00  0.00000000000E+00 -0.21762111805E+02  0.93976748095E+02  0.91422314958E+02 0.  0.
        -13    1    3    3    0    0 -0.15393137516E+02  0.39225829402E+02  0.73310754339E+01  0.42771007024E+02  0.00000000000E+00 0. -1.
         13    1    3    3    0    0  0.15393137516E+02 -0.39225829402E+02 -0.29093187239E+02  0.51205741071E+02  0.00000000000E+00 0.  1.
<mgrwt>
<rscale>  0 0.91422315E+02</rscale>
<asrwt>0</asrwt>
<pdfrwt beam="1">  1        1 0.55549720E-02 0.91422315E+02</pdfrwt>
<pdfrwt beam="2">  1       -1 0.89029892E-02 0.91422315E+02</pdfrwt>
<totfact> 0.88573897E+04</totfact>
</mgrwt>
</event>
<event>
 5    1  0.6113696E+000  0.9186577E+02  0.7546771E-02  0.1298395E+00
         -3   -1    0    0    0  501 -0.00000000000E+00  0.00000000000E+00  0.80140193101E+02  0.80140193101E+02  0.00000000000E+00 0.  1.
          3   -1    0    0  501    0  0.00000000000E+00 -0.00000000000E+00 -0.26326740058E+02  0.26326740058E+02  0.00000000000E+00 0. -1.
         23    2    1    2    0    0  0.00000000000E+00  0.00000000000E+00  0.53813453043E+02  0.10646693316E+03  0.91865772342E+02 0.  0.
        -13    1    3    3    0    0  0.54298729009E+01 -0.34441347395E+02  0.61561558708E+02  0.70749667425E+02  0.00000000000E+00 0.  1.
         13    1    3    3    0    0 -0.54298729009E+01  0.34441347395E+02 -0.77481056652E+01  0.35717265734E+02  0.00000000000E+00 0. -1.
<mgrwt>
<rscale>  0 0.91865772E+02</rscale>
<asrwt>0</asrwt>
<pdfrwt beam="2">  1        3 0.40502677E-02 0.91865772E+02</pdfrwt>
<pdfrwt beam="1">  1       -3 0.12329260E-01 0.91865772E+02</pdfrwt>
<totfact> 0.33505243E+04</totfact>
</mgrwt>
</event>
<event>
 5    1  0.6113696E+000  0.9200740E+02  0.7546771E-02  0.1298062E+00
          3   -1    0    0  501    0  0.00000000000E+00  0.00000000000E+00  0.13056807978E+02  0.13056807978E+02  0.00000000000E+00 0. -1.
         -3   -1    0    0    0  501 -0.00000000000E+00 -0.00000000000E+00 -0.16208712096E+03  0.16208712096E+03  0.00000000000E+00 0.  1.
         23    2    1    2    0    0  0.00000000000E+00  0.00000000000E+00 -0.14903031298E+03  0.17514392894E+03  0.92007400008E+02 0.  0.
        -13    1    3    3    0    0 -0.23629799582E+02 -0.38006707435E+02 -0.54238338779E+02  0.70318380469E+02  0.00000000000E+00 0.  1.
         13    1    3    3    0    0  0.23629799582E+02  0.38006707435E+02 -0.94791974205E+02  0.10482554847E+03  0.00000000000E+00 0. -1.
<mgrwt>
<rscale>  0 0.92007400E+02</rscale>
<asrwt>0</asrwt>
<pdfrwt beam="1">  1        3 0.20087398E-02 0.92007400E+02</pdfrwt>
<pdfrwt beam="2">  1       -3 0.24936479E-01 0.92007400E+02</pdfrwt>
<totfact> 0.29112234E+04</totfact>
</mgrwt>
</event>
<event>
 5    1  0.6113696E+000  0.9368820E+02  0.7546771E-02  0.1294158E+00
          2   -1    0    0  501    0  0.00000000000E+00  0.00000000000E+00  0.26747488078E+03  0.26747488078E+03  0.00000000000E+00 0. -1.
         -2   -1    0    0    0  501 -0.00000000000E+00 -0.00000000000E+00 -0.82040216533E+01  0.82040216533E+01  0.00000000000E+00 0.  1.
         23    2    1    2    0    0  0.00000000000E+00  0.00000000000E+00  0.25927085913E+03  0.27567890243E+03  0.93688200189E+02 0.  0.
        -13    1    3    3    0    0 -0.25155070557E+02  0.35531797882E+02  0.18052336674E+03  0.18569860574E+03  0.00000000000E+00 0. -1.
         13    1    3    3    0    0  0.25155070557E+02 -0.35531797882E+02  0.78747492388E+02  0.89980296692E+02  0.00000000000E+00 0.  1.
<mgrwt>
<rscale>  0 0.93688200E+02</rscale>
<asrwt>0</asrwt>
<pdfrwt beam="1">  1        2 0.41149975E-01 0.93688200E+02</pdfrwt>
<pdfrwt beam="2">  1       -2 0.12621574E-02 0.93688200E+02</pdfrwt>
<totfact> 0.16004265E+05</totfact>
</mgrwt>
</event>
<event>
 5    1  0.6113696E+000  0.9089625E+02  0.7546771E-02  0.1300696E+00
          2   -1    0    0  501    0  0.00000000000E+00  0.00000000000E+00  0.15574333568E+03  0.15574333568E+03  0.00000000000E+00 0. -1.
         -2   -1    0    0    0  501 -0.00000000000E+00 -0.00000000000E+00 -0.13262411216E+02  0.13262411216E+02  0.00000000000E+00 0.  1.
         23    2    1    2    0    0  0.00000000000E+00  0.00000000000E+00  0.14248092446E+03  0.16900574689E+03  0.90896252111E+02 0.  0.
        -13    1    3    3    0    0  0.16247292300E+02 -0.34535990425E+02  0.25362826499E+02  0.45825561750E+02  0.00000000000E+00 0.  1.
         13    1    3    3    0    0 -0.16247292300E+02  0.34535990425E+02  0.11711809796E+03  0.12318018514E+03  0.00000000000E+00 0. -1.
<mgrwt>
<rscale>  0 0.90896252E+02</rscale>
<asrwt>0</asrwt>
<pdfrwt beam="1">  1        2 0.23960512E-01 0.90896252E+02</pdfrwt>
<pdfrwt beam="2">  1       -2 0.20403711E-02 0.90896252E+02</pdfrwt>
<totfact> 0.14280414E+05</totfact>
</mgrwt>
</event>
<event>
 5    1  0.6113696E+000  0.9355524E+02  0.7546771E-02  0.1294464E+00
         -1   -1    0    0    0  501 -0.00000000000E+00  0.00000000000E+00  0.26958904955E+02  0.26958904955E+02  0.00000000000E+00 0.  1.
          1   -1    0    0  501    0  0.00000000000E+00 -0.00000000000E+00 -0.81165979496E+02  0.81165979496E+02  0.00000000000E+00 0. -1.
         23    2    1    2    0    0  0.00000000000E+00  0.00000000000E+00 -0.54207074541E+02  0.10812488445E+03  0.93555244146E+02 0.  0.
        -13    1    3    3    0    0  0.55380303952E+01 -0.46244559113E+02 -0.32130231721E+02  0.56582513365E+02  0.00000000000E+00 0.  1.
         13    1    3    3    0    0 -0.55380303952E+01  0.46244559113E+02 -0.22076842820E+02  0.51542371086E+02  0.00000000000E+00 0. -1.
<mgrwt>
<rscale>  0 0.93555244E+02</rscale>
<asrwt>0</asrwt>
<pdfrwt beam="2">  1        1 0.12487074E-01 0.93555244E+02</pdfrwt>
<pdfrwt beam="1">  1       -1 0.41475238E-02 0.93555244E+02</pdfrwt>
<totfact> 0.94069538E+04</totfact>
</mgrwt>
</event>
<event>
 5    1  0.6113696E+000  0.8944293E+02  0.7546771E-02  0.1304206E+00
         -3   -1    0    0    0  501 -0.00000000000E+00  0.00000000000E+00  0.12668485233E+02  0.12668485233E+02  0.00000000000E+00 0.  1.
          3   -1    0    0  501    0  0.00000000000E+00 -0.00000000000E+00 -0.15787281802E+03  0.15787281802E+03  0.00000000000E+00 0. -1.
         23    2    1    2    0    0  0.00000000000E+00  0.00000000000E+00 -0.14520433279E+03  0.17054130325E+03  0.89442930718E+02 0.  0.
        -13    1    3    3    0    0  0.31528975147E+01  0.44607844915E+02 -0.71730751788E+02  0.84528701296E+02  0.00000000000E+00 0. -1.
         13    1    3    3    0    0 -0.31528975147E+01 -0.44607844915E+02 -0.73473580998E+02  0.86012601957E+02  0.00000000000E+00 0.  1.
<mgrwt>
<rscale>  0 0.89442931E+02</rscale>
<asrwt>0</asrwt>
<pdfrwt beam="2">  1        3 0.24288125E-01 0.89442931E+02</pdfrwt>
<pdfrwt beam="1">  1       -3 0.19489978E-02 0.89442931E+02</pdfrwt>
<totfact> 0.31695022E+04</totfact>
</mgrwt>
</event>
<event>
 5    1  0.6113696E+000  0.8973691E+02  0.7546771E-02  0.1303490E+00
         -3   -1    0    0    0  501 -0.00000000000E+00  0.00000000000E+00  0.16704163033E+03  0.16704163033E+03  0.00000000000E+00 0.  1.
          3   -1    0    0  501    0  0.00000000000E+00 -0.00000000000E+00 -0.12051955464E+02  0.12051955464E+02  0.00000000000E+00 0. -1.
         23    2    1    2    0    0  0.00000000000E+00  0.00000000000E+00  0.15498967487E+03  0.17909358580E+03  0.89736910787E+02 0.  0.
        -13    1    3    3    0    0 -0.39190366382E+02  0.20756669172E+02  0.63892259913E+02  0.77774963896E+02  0.00000000000E+00 0. -1.
         13    1    3    3    0    0  0.39190366382E+02 -0.20756669172E+02  0.91097414955E+02  0.10131862190E+03  0.00000000000E+00 0.  1.
<mgrwt>
<rscale>  0 0.89736911E+02</rscale>
<asrwt>0</asrwt>
<pdfrwt beam="2">  1        3 0.18541471E-02 0.89736911E+02</pdfrwt>
<pdfrwt beam="1">  1       -3 0.25698711E-01 0.89736911E+02</pdfrwt>
<totfact> 0.30914509E+04</totfact>
</mgrwt>
</event>
<event>
 5    1  0.6113696E+000  0.9142365E+02  0.7546771E-02  0.1299440E+00
         -3   -1    0    0    0  501 -0.00000000000E+00  0.00000000000E+00  0.65335833956E+02  0.65335833956E+02  0.00000000000E+00 0.  1.
          3   -1    0    0  501    0  0.00000000000E+00 -0.00000000000E+00 -0.31982007013E+02  0.31982007013E+02  0.00000000000E+00 0. -1.
         23    2    1    2    0    0  0.00000000000E+00  0.00000000000E+00  0.33353826943E+02  0.97317840969E+02  0.91423653390E+02 0.  0.
        -13    1    3    3    0    0  0.31706446537E+02 -0.31074694942E+02  0.28271134062E+02  0.52632617633E+02  0.00000000000E+00 0.  1.
         13    1    3    3    0    0 -0.31706446537E+02  0.31074694942E+02  0.50826928813E+01  0.44685223337E+02  0.00000000000E+00 0. -1.
<mgrwt>
<rscale>  0 0.91423653E+02</rscale>
<asrwt>0</asrwt>
<pdfrwt beam="2">  1        3 0.49203088E-02 0.91423653E+02</pdfrwt>
<pdfrwt beam="1">  1       -3 0.10051667E-01 0.91423653E+02</pdfrwt>
<totfact> 0.34616076E+04</totfact>
</mgrwt>
</event>
<event>
 5    1  0.6113696E+000  0.9034975E+02  0.7546771E-02  0.1302007E+00
         -4   -1    0    0    0  501 -0.00000000000E+00  0.00000000000E+00  0.54017506289E+02  0.54017506289E+02  0.00000000000E+00 0.  1.
          4   -1    0    0  501    0  0.00000000000E+00 -0.00000000000E+00 -0.37779772707E+02  0.37779772707E+02  0.00000000000E+00 0. -1.
         23    2    1    2    0    0  0.00000000000E+00  0.00000000000E+00  0.16237733582E+02  0.91797278996E+02  0.90349745098E+02 0.  0.
        -13    1    3    3    0    0 -0.17630306335E+02 -0.38903625620E+02 -0.68290610077E+01  0.43254547300E+02  0.00000000000E+00 0.  1.
         13    1    3    3    0    0  0.17630306335E+02  0.38903625620E+02  0.23066794589E+02  0.48542731696E+02  0.00000000000E+00 0. -1.
<mgrwt>
<rscale>  0 0.90349745E+02</rscale>
<asrwt>0</asrwt>
<pdfrwt beam="2">  1        4 0.58122727E-02 0.90349745E+02</pdfrwt>
<pdfrwt beam="1">  1       -4 0.83103856E-02 0.90349745E+02</pdfrwt>
<totfact> 0.27650698E+04</totfact>
</mgrwt>
</event>
<event>
 5    1  0.6113696E+000  0.9080700E+02  0.7546771E-02  0.1300909E+00
          2   -1    0    0  501    0  0.00000000000E+00  0.00000000000E+00  0.36867218898E+03  0.36867218898E+03  0.00000000000E+00 0. -1.
         -2   -1    0    0    0  501 -0.00000000000E+00 -0.00000000000E+00 -0.55916284212E+01  0.55916284212E+01  0.00000000000E+00 0.  1.
         23    2    1    2    0    0  0.00000000000E+00  0.00000000000E+00  0.36308056056E+03  0.37426381740E+03  0.90807001712E+02 0.  0.
        -13    1    3    3    0    0  0.43954424401E+02  0.99563257832E+01  0.20424914319E+03  0.20916221538E+03  0.00000000000E+00 0. -1.
         13    1    3    3    0    0 -0.43954424401E+02 -0.99563257832E+01  0.15883141737E+03  0.16510160202E+03  0.00000000000E+00 0.  1.
<mgrwt>
<rscale>  0 0.90807002E+02</rscale>
<asrwt>0</asrwt>
<pdfrwt beam="1">  1        2 0.56718779E-01 0.90807002E+02</pdfrwt>
<pdfrwt beam="2">  1       -2 0.86025082E-03 0.90807002E+02</pdfrwt>
<totfact> 0.19593728E+05</totfact>
</mgrwt>
</event>
<event>
 5    1  0.6113696E+000  0.9101177E+02  0.7546771E-02  0.1300420E+00
          4   -1    0    0  501    0  0.00000000000E+00  0.00000000000E+00  0.16415903346E+02  0.16415903346E+02  0.00000000000E+00 0. -1.
         -4   -1    0    0    0  501 -0.00000000000E+00 -0.00000000000E+00 -0.12614508104E+03  0.12614508104E+03  0.00000000000E+00 0.  1.
         23    2    1    2    0    0  0.00000000000E+00  0.00000000000E+00 -0.10972917769E+03  0.14256098438E+03  0.91011767545E+02 0.  0.
        -13    1    3    3    0    0  0.41897949793E+02  0.17074679922E+02 -0.62506729587E+02  0.77162647278E+02  0.00000000000E+00 0.  1.
         13    1    3    3    0    0 -0.41897949793E+02 -0.17074679922E+02 -0.47222448105E+02  0.65398337106E+02  0.00000000000E+00 0. -1.
<mgrwt>
<rscale>  0 0.91011768E+02</rscale>
<asrwt>0</asrwt>
<pdfrwt beam="1">  1        4 0.25255236E-02 0.91011768E+02</pdfrwt>
<pdfrwt beam="2">  1       -4 0.19406936E-01 0.91011768E+02</pdfrwt>
<totfact> 0.24169966E+04</totfact>
</mgrwt>
</event>
<event>
 5    1  0.6113696E+000  0.9526078E+02  0.7546771E-02  0.1290590E+00
          1   -1    0    0  501    0  0.00000000000E+00  0.00000000000E+00  0.45661676261E+02  0.45661676261E+02  0.00000000000E+00 0. -1.
         -1   -1    0    0    0  501 -0.00000000000E+00 -0.00000000000E+00 -0.49683989223E+02  0.49683989223E+02  0.00000000000E+00 0.  1.
         23    2    1    2    0    0  0.00000000000E+00  0.00000000000E+00 -0.40223129616E+01  0.95345665484E+02  0.95260783773E+02 0.  0.
        -13    1    3    3    0    0 -0.29706910197E+02  0.34772532724E+02 -0.15328074312E+02  0.48234628718E+02  0.00000000000E+00 0.  1.
         13    1    3    3    0    0  0.29706910197E+02 -0.34772532724E+02  0.11305761351E+02  0.47111036766E+02  0.00000000000E+00 0. -1.
<mgrwt>
<rscale>  0 0.95260784E+02</rscale>
<asrwt>0</asrwt>
<pdfrwt beam="1">  1        1 0.70248733E-02 0.95260784E+02</pdfrwt>
<pdfrwt beam="2">  1       -1 0.76436906E-02 0.95260784E+02</pdfrwt>
<totfact> 0.81745861E+04</totfact>
</mgrwt>
</event>
<event>
 5    1  0.6113696E+000  0.9142510E+02  0.7546771E-02  0.1299437E+00
         -4   -1    0    0    0  501 -0.00000000000E+00  0.00000000000E+00  0.10510270799E+03  0.10510270799E+03  0.00000000000E+00 0.  1.
          4   -1    0    0  501    0  0.00000000000E+00 -0.00000000000E+00 -0.19881858567E+02  0.19881858567E+02  0.00000000000E+00 0. -1.
         23    2    1    2    0    0  0.00000000000E+00  0.00000000000E+00  0.85220849426E+02  0.12498456656E+03  0.91425098858E+02 0.  0.
        -13    1    3    3    0    0  0.27772809109E+02  0.18190517529E+02  0.85568067358E+02  0.91782994096E+02  0.00000000000E+00 0.  1.
         13    1    3    3    0    0 -0.27772809109E+02 -0.18190517529E+02 -0.34721793231E+00  0.33201572464E+02  0.00000000000E+00 0. -1.
<mgrwt>
<rscale>  0 0.91425099E+02</rscale>
<asrwt>0</asrwt>
<pdfrwt beam="2">  1        4 0.30587475E-02 0.91425099E+02</pdfrwt>
<pdfrwt beam="1">  1       -4 0.16169647E-01 0.91425099E+02</pdfrwt>
<totfact> 0.24809964E+04</totfact>
</mgrwt>
</event>
<event>
 5    1  0.6113696E+000  0.9355340E+02  0.7546771E-02  0.1294468E+00
         -3   -1    0    0    0  501 -0.00000000000E+00  0.00000000000E+00  0.26108465606E+03  0.26108465606E+03  0.00000000000E+00 0.  1.
          3   -1    0    0  501    0  0.00000000000E+00 -0.00000000000E+00 -0.83806511966E+01  0.83806511966E+01  0.00000000000E+00 0. -1.
         23    2    1    2    0    0  0.00000000000E+00  0.00000000000E+00  0.25270400486E+03  0.26946530725E+03  0.93553395132E+02 0.  0.
        -13    1    3    3    0    0  0.39625007370E+02 -0.79858881928E+01  0.19415588322E+03  0.19831899205E+03  0.00000000000E+00 0.  1.
         13    1    3    3    0    0 -0.39625007370E+02  0.79858881928E+01  0.58548121643E+02  0.71146315205E+02  0.00000000000E+00 0. -1.
<mgrwt>
<rscale>  0 0.93553395E+02</rscale>
<asrwt>0</asrwt>
<pdfrwt beam="2">  1        3 0.12893312E-02 0.93553395E+02</pdfrwt>
<pdfrwt beam="1">  1       -3 0.40166864E-01 0.93553395E+02</pdfrwt>
<totfact> 0.23565006E+04</totfact>
</mgrwt>
</event>
<event>
 5    1  0.6113696E+000  0.8059569E+02  0.7546771E-02  0.1327369E+00
         -1   -1    0    0    0  501 -0.00000000000E+00  0.00000000000E+00  0.97125636286E+02  0.97125636286E+02  0.00000000000E+00 0.  1.
          1   -1    0    0  501    0  0.00000000000E+00 -0.00000000000E+00 -0.16719748966E+02  0.16719748966E+02  0.00000000000E+00 0. -1.
         23    2    1    2    0    0  0.00000000000E+00  0.00000000000E+00  0.80405887320E+02  0.11384538525E+03  0.80595688640E+02 0.  0.
        -13    1    3    3    0    0  0.14789121817E+02  0.34189445841E+02  0.61915803731E+02  0.72257892875E+02  0.00000000000E+00 0.  1.
         13    1    3    3    0    0 -0.14789121817E+02 -0.34189445841E+02  0.18490083589E+02  0.41587492377E+02  0.00000000000E+00 0. -1.
<mgrwt>
<rscale>  0 0.80595689E+02</rscale>
<asrwt>0</asrwt>
<pdfrwt beam="2">  1        1 0.25722691E-02 0.80595689E+02</pdfrwt>
<pdfrwt beam="1">  1       -1 0.14942405E-01 0.80595689E+02</pdfrwt>
<totfact> 0.11227286E+05</totfact>
</mgrwt>
</event>
<event>
 5    1  0.6113696E+000  0.9115417E+02  0.7546771E-02  0.1300081E+00
         -3   -1    0    0    0  501 -0.00000000000E+00  0.00000000000E+00  0.32880483792E+02  0.32880483792E+02  0.00000000000E+00 0.  1.
          3   -1    0    0  501    0  0.00000000000E+00 -0.00000000000E+00 -0.63176400157E+02  0.63176400157E+02  0.00000000000E+00 0. -1.
         23    2    1    2    0    0  0.00000000000E+00  0.00000000000E+00 -0.30295916366E+02  0.96056883949E+02  0.91154168339E+02 0.  0.
        -13    1    3    3    0    0  0.10108341509E+02 -0.33849291994E+02  0.15198804387E+02  0.38457207275E+02  0.00000000000E+00 0.  1.
         13    1    3    3    0    0 -0.10108341509E+02  0.33849291994E+02 -0.45494720753E+02  0.57599676674E+02  0.00000000000E+00 0. -1.
<mgrwt>
<rscale>  0 0.91154168E+02</rscale>
<asrwt>0</asrwt>
<pdfrwt beam="2">  1        3 0.97194461E-02 0.91154168E+02</pdfrwt>
<pdfrwt beam="1">  1       -3 0.50585360E-02 0.91154168E+02</pdfrwt>
<totfact> 0.34989887E+04</totfact>
</mgrwt>
</event>
<event>
 5    1  0.6113696E+000  0.9027280E+02  0.7546771E-02  0.1302192E+00
          1   -1    0    0  501    0  0.00000000000E+00  0.00000000000E+00  0.10986526546E+03  0.10986526546E+03  0.00000000000E+00 0. -1.
         -1   -1    0    0    0  501 -0.00000000000E+00 -0.00000000000E+00 -0.18543574409E+02  0.18543574409E+02  0.00000000000E+00 0.  1.
         23    2    1    2    0    0  0.00000000000E+00  0.00000000000E+00  0.91321691051E+02  0.12840883987E+03  0.90272802660E+02 0.  0.
        -13    1    3    3    0    0 -0.44292310035E+02 -0.28390568088E+01  0.33980628845E+02  0.55897693231E+02  0.00000000000E+00 0.  1.
         13    1    3    3    0    0  0.44292310035E+02  0.28390568088E+01  0.57341062206E+02  0.72511146638E+02  0.00000000000E+00 0. -1.
<mgrwt>
<rscale>  0 0.90272803E+02</rscale>
<asrwt>0</asrwt>
<pdfrwt beam="1">  1        1 0.16902348E-01 0.90272803E+02</pdfrwt>
<pdfrwt beam="2">  1       -1 0.28528577E-02 0.90272803E+02</pdfrwt>
<totfact> 0.10902774E+05</totfact>
</mgrwt>
</event>
<event>
 5    1  0.6113696E+000  0.9052580E+02  0.7546771E-02  0.1301583E+00
         -3   -1    0    0    0  501 -0.00000000000E+00  0.00000000000E+00  0.16078899225E+02  0.16078899225E+02  0.00000000000E+00 0.  1.
          3   -1    0    0  501    0  0.00000000000E+00 -0.00000000000E+00 -0.12741731856E+03  0.12741731856E+03  0.00000000000E+00 0. -1.
         23    2    1    2    0    0  0.00000000000E+00  0.00000000000E+00 -0.11133841934E+03  0.14349621778E+03  0.90525802391E+02 0.  0.
        -13    1    3    3    0    0  0.11199228537E+02 -0.41524325420E+02 -0.33305905782E+02  0.54396467545E+02  0.00000000000E+00 0.  1.
         13    1    3    3    0    0 -0.11199228537E+02  0.41524325420E+02 -0.78032513554E+02  0.89099750240E+02  0.00000000000E+00 0. -1.
<mgrwt>
<rscale>  0 0.90525802E+02</rscale>
<asrwt>0</asrwt>
<pdfrwt beam="2">  1        3 0.19602665E-01 0.90525802E+02</pdfrwt>
<pdfrwt beam="1">  1       -3 0.24736767E-02 0.90525802E+02</pdfrwt>
<totfact> 0.32330471E+04</totfact>
</mgrwt>
</event>
<event>
 5    1  0.6113696E+000  0.9288665E+02  0.7546771E-02  0.1296008E+00
          2   -1    0    0  501    0  0.00000000000E+00  0.00000000000E+00  0.52698984787E+02  0.52698984787E+02  0.00000000000E+00 0. -1.
         -2   -1    0    0    0  501 -0.00000000000E+00 -0.00000000000E+00 -0.40930246308E+02  0.40930246308E+02  0.00000000000E+00 0.  1.
         23    2    1    2    0    0  0.00000000000E+00  0.00000000000E+00  0.11768738479E+02  0.93629231095E+02  0.92886649794E+02 0.  0.
        -13    1    3    3    0    0  0.21993561776E+02 -0.36690648080E+02 -0.12345065800E+02  0.44523264320E+02  0.00000000000E+00 0. -1.
         13    1    3    3    0    0 -0.21993561776E+02  0.36690648080E+02  0.24113804279E+02  0.49105966775E+02  0.00000000000E+00 0.  1.
<mgrwt>
<rscale>  0 0.92886650E+02</rscale>
<asrwt>0</asrwt>
<pdfrwt beam="1">  1        2 0.81075361E-02 0.92886650E+02</pdfrwt>
<pdfrwt beam="2">  1       -2 0.62969610E-02 0.92886650E+02</pdfrwt>
<totfact> 0.97194074E+04</totfact>
</mgrwt>
</event>
<event>
 5    1  0.6113696E+000  0.8569247E+02  0.7546771E-02  0.1313632E+00
          2   -1    0    0  501    0  0.00000000000E+00  0.00000000000E+00  0.10571257803E+03  0.10571257803E+03  0.00000000000E+00 0. -1.
         -2   -1    0    0    0  501 -0.00000000000E+00 -0.00000000000E+00 -0.17365952814E+02  0.17365952814E+02  0.00000000000E+00 0.  1.
         23    2    1    2    0    0  0.00000000000E+00  0.00000000000E+00  0.88346625213E+02  0.12307853084E+03  0.85692465058E+02 0.  0.
        -13    1    3    3    0    0  0.31561828097E+02 -0.23935618792E+02  0.67630780876E+02  0.78377199246E+02  0.00000000000E+00 0. -1.
         13    1    3    3    0    0 -0.31561828097E+02  0.23935618792E+02  0.20715844337E+02  0.44701331595E+02  0.00000000000E+00 0.  1.
<mgrwt>
<rscale>  0 0.85692465E+02</rscale>
<asrwt>0</asrwt>
<pdfrwt beam="1">  1        2 0.16263473E-01 0.85692465E+02</pdfrwt>
<pdfrwt beam="2">  1       -2 0.26716851E-02 0.85692465E+02</pdfrwt>
<totfact> 0.14783788E+05</totfact>
</mgrwt>
</event>
<event>
 5    1  0.6113696E+000  0.9563248E+02  0.7546771E-02  0.1289758E+00
          1   -1    0    0  501    0  0.00000000000E+00  0.00000000000E+00  0.84798871257E+02  0.84798871257E+02  0.00000000000E+00 0.  1.
         -1   -1    0    0    0  501 -0.00000000000E+00 -0.00000000000E+00 -0.26962540468E+02  0.26962540468E+02  0.00000000000E+00 0. -1.
         23    2    1    2    0    0  0.00000000000E+00  0.00000000000E+00  0.57836330789E+02  0.11176141172E+03  0.95632483976E+02 0.  0.
        -13    1    3    3    0    0  0.41810438670E+02  0.17858979778E+01  0.18847960302E+01  0.41890985539E+02  0.00000000000E+00 0. -1.
         13    1    3    3    0    0 -0.41810438670E+02 -0.17858979778E+01  0.55951534759E+02  0.69870426185E+02  0.00000000000E+00 0.  1.
<mgrwt>
<rscale>  0 0.95632484E+02</rscale>
<asrwt>0</asrwt>
<pdfrwt beam="1">  1        1 0.13045980E-01 0.95632484E+02</pdfrwt>
<pdfrwt beam="2">  1       -1 0.41480832E-02 0.95632484E+02</pdfrwt>
<totfact> 0.89174202E+04</totfact>
</mgrwt>
</event>
<event>
 5    1  0.6113696E+000  0.8909920E+02  0.7546771E-02  0.1305048E+00
          2   -1    0    0  501    0  0.00000000000E+00  0.00000000000E+00  0.94418775225E+02  0.94418775225E+02  0.00000000000E+00 0. -1.
         -2   -1    0    0    0  501 -0.00000000000E+00 -0.00000000000E+00 -0.21019832485E+02  0.21019832485E+02  0.00000000000E+00 0.  1.
         23    2    1    2    0    0  0.00000000000E+00  0.00000000000E+00  0.73398942740E+02  0.11543860771E+03  0.89099199518E+02 0.  0.
        -13    1    3    3    0    0  0.32998743795E+02 -0.17441184798E+02  0.68211384919E+02  0.77755418151E+02  0.00000000000E+00 0. -1.
         13    1    3    3    0    0 -0.32998743795E+02  0.17441184798E+02  0.51875578205E+01  0.37683189559E+02  0.00000000000E+00 0.  1.
<mgrwt>
<rscale>  0 0.89099200E+02</rscale>
<asrwt>0</asrwt>
<pdfrwt beam="1">  1        2 0.14525965E-01 0.89099200E+02</pdfrwt>
<pdfrwt beam="2">  1       -2 0.32338204E-02 0.89099200E+02</pdfrwt>
<totfact> 0.12846355E+05</totfact>
</mgrwt>
</event>
<event>
 5    1  0.6113696E+000  0.7817220E+02  0.7546771E-02  0.1334320E+00
         -3   -1    0    0    0  501 -0.00000000000E+00  0.00000000000E+00  0.37325897564E+02  0.37325897564E+02  0.00000000000E+00 0.  1.
          3   -1    0    0  501    0  0.00000000000E+00 -0.00000000000E+00 -0.40929305099E+02  0.40929305099E+02  0.00000000000E+00 0. -1.
         23    2    1    2    0    0  0.00000000000E+00  0.00000000000E+00 -0.36034075354E+01  0.78255202663E+02  0.78172195812E+02 0.  0.
        -13    1    3    3    0    0  0.23104620617E+02 -0.30463203935E+02  0.63243513614E+01  0.38753421887E+02  0.00000000000E+00 0.  1.
         13    1    3    3    0    0 -0.23104620617E+02  0.30463203935E+02 -0.99277588967E+01  0.39501780776E+02  0.00000000000E+00 0. -1.
<mgrwt>
<rscale>  0 0.78172196E+02</rscale>
<asrwt>0</asrwt>
<pdfrwt beam="2">  1        3 0.62968161E-02 0.78172196E+02</pdfrwt>
<pdfrwt beam="1">  1       -3 0.57424458E-02 0.78172196E+02</pdfrwt>
<totfact> 0.55107360E+04</totfact>
</mgrwt>
</event>
<event>
 5    1  0.6113696E+000  0.8952204E+02  0.7546771E-02  0.1304013E+00
          1   -1    0    0  501    0  0.00000000000E+00  0.00000000000E+00  0.96544155019E+02  0.96544155019E+02  0.00000000000E+00 0. -1.
         -1   -1    0    0    0  501 -0.00000000000E+00 -0.00000000000E+00 -0.20752669612E+02  0.20752669612E+02  0.00000000000E+00 0.  1.
         23    2    1    2    0    0  0.00000000000E+00  0.00000000000E+00  0.75791485407E+02  0.11729682463E+03  0.89522040908E+02 0.  0.
        -13    1    3    3    0    0 -0.10881451395E+02  0.34368117462E+02  0.72660167170E+02  0.81111487321E+02  0.00000000000E+00 0. -1.
         13    1    3    3    0    0  0.10881451395E+02 -0.34368117462E+02  0.31313182378E+01  0.36185337310E+02  0.00000000000E+00 0.  1.
<mgrwt>
<rscale>  0 0.89522041E+02</rscale>
<asrwt>0</asrwt>
<pdfrwt beam="1">  1        1 0.14852947E-01 0.89522041E+02</pdfrwt>
<pdfrwt beam="2">  1       -1 0.31927185E-02 0.89522041E+02</pdfrwt>
<totfact> 0.10915681E+05</totfact>
</mgrwt>
</event>
<event>
 5    1  0.6113696E+000  0.9224169E+02  0.7546771E-02  0.1297512E+00
         -1   -1    0    0    0  501 -0.00000000000E+00  0.00000000000E+00  0.58975983951E+02  0.58975983951E+02  0.00000000000E+00 0. -1.
          1   -1    0    0  501    0  0.00000000000E+00 -0.00000000000E+00 -0.36067771995E+02  0.36067771995E+02  0.00000000000E+00 0.  1.
         23    2    1    2    0    0  0.00000000000E+00  0.00000000000E+00  0.22908211957E+02  0.95043755946E+02  0.92241689974E+02 0.  0.
        -13    1    3    3    0    0 -0.31060282114E+02  0.33885321864E+02  0.15333607632E+02  0.48456946724E+02  0.00000000000E+00 0.  1.
         13    1    3    3    0    0  0.31060282114E+02 -0.33885321864E+02  0.75746043242E+01  0.46586809222E+02  0.00000000000E+00 0. -1.
<mgrwt>
<rscale>  0 0.92241690E+02</rscale>
<asrwt>0</asrwt>
<pdfrwt beam="2">  1        1 0.55488880E-02 0.92241690E+02</pdfrwt>
<pdfrwt beam="1">  1       -1 0.90732283E-02 0.92241690E+02</pdfrwt>
<totfact> 0.86337644E+04</totfact>
</mgrwt>
</event>
<event>
 5    1  0.6113696E+000  0.9136711E+02  0.7546771E-02  0.1299574E+00
          2   -1    0    0  501    0  0.00000000000E+00  0.00000000000E+00  0.14609077113E+02  0.14609077113E+02  0.00000000000E+00 0. -1.
         -2   -1    0    0    0  501 -0.00000000000E+00 -0.00000000000E+00 -0.14285549858E+03  0.14285549858E+03  0.00000000000E+00 0.  1.
         23    2    1    2    0    0  0.00000000000E+00  0.00000000000E+00 -0.12824642147E+03  0.15746457570E+03  0.91367105564E+02 0.  0.
        -13    1    3    3    0    0 -0.92037845355E+01  0.21676729020E+02 -0.13158822450E+03  0.13367891030E+03  0.00000000000E+00 0.  1.
         13    1    3    3    0    0  0.92037845355E+01 -0.21676729020E+02  0.33418030345E+01  0.23785665395E+02  0.00000000000E+00 0. -1.
<mgrwt>
<rscale>  0 0.91367106E+02</rscale>
<asrwt>0</asrwt>
<pdfrwt beam="1">  1        2 0.22475503E-02 0.91367106E+02</pdfrwt>
<pdfrwt beam="2">  1       -2 0.21977769E-01 0.91367106E+02</pdfrwt>
<totfact> 0.70718026E+04</totfact>
</mgrwt>
</event>
<event>
 5    1  0.6113696E+000  0.9182920E+02  0.7546771E-02  0.1298482E+00
         -1   -1    0    0    0  501 -0.00000000000E+00  0.00000000000E+00  0.13104200951E+03  0.13104200951E+03  0.00000000000E+00 0.  1.
          1   -1    0    0  501    0  0.00000000000E+00 -0.00000000000E+00 -0.16087593760E+02  0.16087593760E+02  0.00000000000E+00 0. -1.
         23    2    1    2    0    0  0.00000000000E+00  0.00000000000E+00  0.11495441575E+03  0.14712960327E+03  0.91829202642E+02 0.  0.
        -13    1    3    3    0    0 -0.38314022022E+02 -0.23706026261E+01  0.97837829498E+02  0.10509911951E+03  0.00000000000E+00 0.  1.
         13    1    3    3    0    0  0.38314022022E+02  0.23706026261E+01  0.17116586250E+02  0.42030483761E+02  0.00000000000E+00 0. -1.
<mgrwt>
<rscale>  0 0.91829203E+02</rscale>
<asrwt>0</asrwt>
<pdfrwt beam="2">  1        1 0.24750145E-02 0.91829203E+02</pdfrwt>
<pdfrwt beam="1">  1       -1 0.20160309E-01 0.91829203E+02</pdfrwt>
<totfact> 0.75680594E+04</totfact>
</mgrwt>
</event>
<event>
 5    1  0.6113696E+000  0.9864434E+02  0.7546771E-02  0.1283173E+00
          1   -1    0    0  501    0  0.00000000000E+00  0.00000000000E+00  0.19479201896E+02  0.19479201896E+02  0.00000000000E+00 0. -1.
         -1   -1    0    0    0  501 -0.00000000000E+00 -0.00000000000E+00 -0.12488583874E+03  0.12488583874E+03  0.00000000000E+00 0.  1.
         23    2    1    2    0    0  0.00000000000E+00  0.00000000000E+00 -0.10540663684E+03  0.14436504064E+03  0.98644340268E+02 0.  0.
        -13    1    3    3    0    0  0.34658054196E+01 -0.32430702326E+02 -0.10685076482E+03  0.11171771661E+03  0.00000000000E+00 0.  1.
         13    1    3    3    0    0 -0.34658054196E+01  0.32430702326E+02  0.14441279794E+01  0.32647324028E+02  0.00000000000E+00 0. -1.
<mgrwt>
<rscale>  0 0.98644340E+02</rscale>
<asrwt>0</asrwt>
<pdfrwt beam="1">  1        1 0.29968004E-02 0.98644340E+02</pdfrwt>
<pdfrwt beam="2">  1       -1 0.19213205E-01 0.98644340E+02</pdfrwt>
<totfact> 0.63503938E+04</totfact>
</mgrwt>
</event>
<event>
 5    1  0.6113696E+000  0.9328622E+02  0.7546771E-02  0.1295083E+00
          2   -1    0    0  501    0  0.00000000000E+00  0.00000000000E+00  0.22680215863E+03  0.22680215863E+03  0.00000000000E+00 0. -1.
         -2   -1    0    0    0  501 -0.00000000000E+00 -0.00000000000E+00 -0.95924117103E+01  0.95924117103E+01  0.00000000000E+00 0.  1.
         23    2    1    2    0    0  0.00000000000E+00  0.00000000000E+00  0.21720974692E+03  0.23639457034E+03  0.93286219397E+02 0.  0.
        -13    1    3    3    0    0  0.31978873736E+02  0.27175764180E+02  0.57018538168E+02  0.70797487378E+02  0.00000000000E+00 0.  1.
         13    1    3    3    0    0 -0.31978873736E+02 -0.27175764180E+02  0.16019120875E+03  0.16559708296E+03  0.00000000000E+00 0. -1.
<mgrwt>
<rscale>  0 0.93286219E+02</rscale>
<asrwt>0</asrwt>
<pdfrwt beam="1">  1        2 0.34892636E-01 0.93286219E+02</pdfrwt>
<pdfrwt beam="2">  1       -2 0.14757558E-02 0.93286219E+02</pdfrwt>
<totfact> 0.15227707E+05</totfact>
</mgrwt>
</event>
<event>
 5    1  0.6113696E+000  0.1109664E+03  0.7546771E-02  0.1258791E+00
          1   -1    0    0  501    0  0.00000000000E+00  0.00000000000E+00  0.16397056132E+03  0.16397056132E+03  0.00000000000E+00 0. -1.
         -1   -1    0    0    0  501 -0.00000000000E+00 -0.00000000000E+00 -0.18774024389E+02  0.18774024389E+02  0.00000000000E+00 0.  1.
         23    2    1    2    0    0  0.00000000000E+00  0.00000000000E+00  0.14519653693E+03  0.18274458571E+03  0.11096643307E+03 0.  0.
        -13    1    3    3    0    0 -0.39774804550E+02 -0.55378192541E+01  0.95499970317E+01  0.41278383718E+02  0.00000000000E+00 0.  1.
         13    1    3    3    0    0  0.39774804550E+02  0.55378192541E+01  0.13564653990E+03  0.14146620199E+03  0.00000000000E+00 0. -1.
<mgrwt>
<rscale>  0 0.11096643E+03</rscale>
<asrwt>0</asrwt>
<pdfrwt beam="1">  1        1 0.25226239E-01 0.11096643E+03</pdfrwt>
<pdfrwt beam="2">  1       -1 0.28883116E-02 0.11096643E+03</pdfrwt>
<totfact> 0.66753767E+04</totfact>
</mgrwt>
</event>
<event>
 5    1  0.6113696E+000  0.9404613E+02  0.7546771E-02  0.1293339E+00
         -1   -1    0    0    0  501 -0.00000000000E+00  0.00000000000E+00  0.10711129982E+03  0.10711129982E+03  0.00000000000E+00 0. -1.
          1   -1    0    0  501    0  0.00000000000E+00 -0.00000000000E+00 -0.20643653188E+02  0.20643653188E+02  0.00000000000E+00 0.  1.
         23    2    1    2    0    0  0.00000000000E+00  0.00000000000E+00  0.86467646633E+02  0.12775495301E+03  0.94046127534E+02 0.  0.
        -13    1    3    3    0    0  0.15931239281E+02 -0.19489362970E+02 -0.10720405219E+02  0.27359947771E+02  0.00000000000E+00 0.  1.
         13    1    3    3    0    0 -0.15931239281E+02  0.19489362970E+02  0.97188051852E+02  0.10039500524E+03  0.00000000000E+00 0. -1.
<mgrwt>
<rscale>  0 0.94046128E+02</rscale>
<asrwt>0</asrwt>
<pdfrwt beam="2">  1        1 0.31759467E-02 0.94046128E+02</pdfrwt>
<pdfrwt beam="1">  1       -1 0.16478661E-01 0.94046128E+02</pdfrwt>
<totfact> 0.74142532E+04</totfact>
</mgrwt>
</event>
<event>
 5    1  0.6113696E+000  0.9020295E+02  0.7546771E-02  0.1302361E+00
          4   -1    0    0  501    0  0.00000000000E+00  0.00000000000E+00  0.10604051458E+02  0.10604051458E+02  0.00000000000E+00 0. -1.
         -4   -1    0    0    0  501 -0.00000000000E+00 -0.00000000000E+00 -0.19182696706E+03  0.19182696706E+03  0.00000000000E+00 0.  1.
         23    2    1    2    0    0  0.00000000000E+00  0.00000000000E+00 -0.18122291560E+03  0.20243101851E+03  0.90202949614E+02 0.  0.
        -13    1    3    3    0    0 -0.19816487449E+02 -0.37149742049E+02 -0.54331674657E+02  0.68736652378E+02  0.00000000000E+00 0.  1.
         13    1    3    3    0    0  0.19816487449E+02  0.37149742049E+02 -0.12689124094E+03  0.13369436614E+03  0.00000000000E+00 0. -1.
<mgrwt>
<rscale>  0 0.90202950E+02</rscale>
<asrwt>0</asrwt>
<pdfrwt beam="1">  1        4 0.16313927E-02 0.90202950E+02</pdfrwt>
<pdfrwt beam="2">  1       -4 0.29511839E-01 0.90202950E+02</pdfrwt>
<totfact> 0.21904350E+04</totfact>
</mgrwt>
</event>
<event>
 5    1  0.6113696E+000  0.1053409E+03  0.7546771E-02  0.1269449E+00
         -1   -1    0    0    0  501 -0.00000000000E+00  0.00000000000E+00  0.15817706661E+02  0.15817706661E+02  0.00000000000E+00 0.  1.
          1   -1    0    0  501    0  0.00000000000E+00 -0.00000000000E+00 -0.17538432017E+03  0.17538432017E+03  0.00000000000E+00 0. -1.
         23    2    1    2    0    0  0.00000000000E+00  0.00000000000E+00 -0.15956661351E+03  0.19120202683E+03  0.10534092708E+03 0.  0.
        -13    1    3    3    0    0 -0.19321538869E+02 -0.39247942860E+02 -0.26540689249E+02  0.51167676015E+02  0.00000000000E+00 0. -1.
         13    1    3    3    0    0  0.19321538869E+02  0.39247942860E+02 -0.13302592426E+03  0.14003435081E+03  0.00000000000E+00 0.  1.
<mgrwt>
<rscale>  0 0.10534093E+03</rscale>
<asrwt>0</asrwt>
<pdfrwt beam="2">  1        1 0.26982202E-01 0.10534093E+03</pdfrwt>
<pdfrwt beam="1">  1       -1 0.24334934E-02 0.10534093E+03</pdfrwt>
<totfact> 0.78039442E+04</totfact>
</mgrwt>
</event>
<event>
 5    1  0.6113696E+000  0.9092164E+02  0.7546771E-02  0.1300635E+00
         -4   -1    0    0    0  501 -0.00000000000E+00  0.00000000000E+00  0.37864154208E+02  0.37864154208E+02  0.00000000000E+00 0. -1.
          4   -1    0    0  501    0  0.00000000000E+00 -0.00000000000E+00 -0.54581601162E+02  0.54581601162E+02  0.00000000000E+00 0.  1.
         23    2    1    2    0    0  0.00000000000E+00  0.00000000000E+00 -0.16717446954E+02  0.92445755370E+02  0.90921640181E+02 0.  0.
        -13    1    3    3    0    0 -0.25677698600E+02 -0.19191834418E+02  0.24415372146E+02  0.40296167444E+02  0.00000000000E+00 0. -1.
         13    1    3    3    0    0  0.25677698600E+02  0.19191834418E+02 -0.41132819099E+02  0.52149587925E+02  0.00000000000E+00 0.  1.
<mgrwt>
<rscale>  0 0.90921640E+02</rscale>
<asrwt>0</asrwt>
<pdfrwt beam="2">  1        4 0.83971694E-02 0.90921640E+02</pdfrwt>
<pdfrwt beam="1">  1       -4 0.58252545E-02 0.90921640E+02</pdfrwt>
<totfact> 0.27140612E+04</totfact>
</mgrwt>
</event>
<event>
 5    1  0.6113696E+000  0.7206467E+02  0.7546771E-02  0.1353210E+00
         -2   -1    0    0    0  501 -0.00000000000E+00  0.00000000000E+00  0.98931945608E+02  0.98931945608E+02  0.00000000000E+00 0.  1.
          2   -1    0    0  501    0  0.00000000000E+00 -0.00000000000E+00 -0.13123458079E+02  0.13123458079E+02  0.00000000000E+00 0. -1.
         23    2    1    2    0    0  0.00000000000E+00  0.00000000000E+00  0.85808487529E+02  0.11205540369E+03  0.72064672092E+02 0.  0.
        -13    1    3    3    0    0 -0.76890522884E+01 -0.17693945693E+02  0.90224472497E+02  0.92264037830E+02  0.00000000000E+00 0.  1.
         13    1    3    3    0    0  0.76890522884E+01  0.17693945693E+02 -0.44159849685E+01  0.19791365858E+02  0.00000000000E+00 0. -1.
<mgrwt>
<rscale>  0 0.72064672E+02</rscale>
<asrwt>0</asrwt>
<pdfrwt beam="2">  1        2 0.20189936E-02 0.72064672E+02</pdfrwt>
<pdfrwt beam="1">  1       -2 0.15220299E-01 0.72064672E+02</pdfrwt>
<totfact> 0.14372593E+05</totfact>
</mgrwt>
</event>
<event>
 5    1  0.6113696E+000  0.8926931E+02  0.7546771E-02  0.1304631E+00
          2   -1    0    0  501    0  0.00000000000E+00  0.00000000000E+00  0.22832350936E+03  0.22832350936E+03  0.00000000000E+00 0. -1.
         -2   -1    0    0    0  501 -0.00000000000E+00 -0.00000000000E+00 -0.87255685974E+01  0.87255685974E+01  0.00000000000E+00 0.  1.
         23    2    1    2    0    0  0.00000000000E+00  0.00000000000E+00  0.21959794076E+03  0.23704907796E+03  0.89269310366E+02 0.  0.
        -13    1    3    3    0    0  0.38044272376E+02  0.21301998791E+02  0.13514562319E+03  0.14200521568E+03  0.00000000000E+00 0. -1.
         13    1    3    3    0    0 -0.38044272376E+02 -0.21301998791E+02  0.84452317575E+02  0.95043862279E+02  0.00000000000E+00 0.  1.
<mgrwt>
<rscale>  0 0.89269310E+02</rscale>
<asrwt>0</asrwt>
<pdfrwt beam="1">  1        2 0.35126689E-01 0.89269310E+02</pdfrwt>
<pdfrwt beam="2">  1       -2 0.13423953E-02 0.89269310E+02</pdfrwt>
<totfact> 0.17179635E+05</totfact>
</mgrwt>
</event>
<event>
 5    1  0.6113696E+000  0.5954575E+02  0.7546771E-02  0.1399748E+00
         -3   -1    0    0    0  501 -0.00000000000E+00  0.00000000000E+00  0.37153273600E+01  0.37153273600E+01  0.00000000000E+00 0.  1.
          3   -1    0    0  501    0  0.00000000000E+00 -0.00000000000E+00 -0.23858575859E+03  0.23858575859E+03  0.00000000000E+00 0. -1.
         23    2    1    2    0    0  0.00000000000E+00  0.00000000000E+00 -0.23487043123E+03  0.24230108595E+03  0.59545753722E+02 0.  0.
        -13    1    3    3    0    0 -0.26641744840E+02  0.12627332544E+02 -0.13430731187E+03  0.13750522215E+03  0.00000000000E+00 0. -1.
         13    1    3    3    0    0  0.26641744840E+02 -0.12627332544E+02 -0.10056311935E+03  0.10479586380E+03  0.00000000000E+00 0.  1.
<mgrwt>
<rscale>  0 0.59545754E+02</rscale>
<asrwt>0</asrwt>
<pdfrwt beam="2">  1        3 0.36705504E-01 0.59545754E+02</pdfrwt>
<pdfrwt beam="1">  1       -3 0.57158879E-03 0.59545754E+02</pdfrwt>
<totfact> 0.80760826E+04</totfact>
</mgrwt>
</event>
<event>
 5    1  0.6113696E+000  0.8822500E+02  0.7546771E-02  0.1307208E+00
         -1   -1    0    0    0  501 -0.00000000000E+00  0.00000000000E+00  0.79281904294E+01  0.79281904294E+01  0.00000000000E+00 0.  1.
          1   -1    0    0  501    0  0.00000000000E+00 -0.00000000000E+00 -0.24544220189E+03  0.24544220189E+03  0.00000000000E+00 0. -1.
         23    2    1    2    0    0  0.00000000000E+00  0.00000000000E+00 -0.23751401146E+03  0.25337039232E+03  0.88224996821E+02 0.  0.
        -13    1    3    3    0    0 -0.40403514267E+02 -0.17457849644E+02 -0.11029009486E+03  0.11874816000E+03  0.00000000000E+00 0. -1.
         13    1    3    3    0    0  0.40403514267E+02  0.17457849644E+02 -0.12722391660E+03  0.13462223232E+03  0.00000000000E+00 0.  1.
<mgrwt>
<rscale>  0 0.88224997E+02</rscale>
<asrwt>0</asrwt>
<pdfrwt beam="2">  1        1 0.37760338E-01 0.88224997E+02</pdfrwt>
<pdfrwt beam="1">  1       -1 0.12197216E-02 0.88224997E+02</pdfrwt>
<totfact> 0.13452791E+05</totfact>
</mgrwt>
</event>
<event>
 5    1  0.6113696E+000  0.8582402E+02  0.7546771E-02  0.1313292E+00
         -1   -1    0    0    0  501 -0.00000000000E+00  0.00000000000E+00  0.64686722269E+01  0.64686722269E+01  0.00000000000E+00 0.  1.
          1   -1    0    0  501    0  0.00000000000E+00 -0.00000000000E+00 -0.28467054733E+03  0.28467054733E+03  0.00000000000E+00 0. -1.
         23    2    1    2    0    0  0.00000000000E+00  0.00000000000E+00 -0.27820187511E+03  0.29113921956E+03  0.85824016763E+02 0.  0.
        -13    1    3    3    0    0 -0.24340036622E+02  0.30918984342E+02 -0.19716937359E+03  0.20105766053E+03  0.00000000000E+00 0.  1.
         13    1    3    3    0    0  0.24340036622E+02 -0.30918984342E+02 -0.81032501514E+02  0.90081559029E+02  0.00000000000E+00 0. -1.
<mgrwt>
<rscale>  0 0.85824017E+02</rscale>
<asrwt>0</asrwt>
<pdfrwt beam="2">  1        1 0.43795464E-01 0.85824017E+02</pdfrwt>
<pdfrwt beam="1">  1       -1 0.99518046E-03 0.85824017E+02</pdfrwt>
<totfact> 0.14895605E+05</totfact>
</mgrwt>
</event>
<event>
 5    1  0.6113696E+000  0.8934300E+02  0.7546771E-02  0.1304451E+00
         -3   -1    0    0    0  501 -0.00000000000E+00  0.00000000000E+00  0.27153881520E+02  0.27153881520E+02  0.00000000000E+00 0.  1.
          3   -1    0    0  501    0  0.00000000000E+00 -0.00000000000E+00 -0.73490148353E+02  0.73490148353E+02  0.00000000000E+00 0. -1.
         23    2    1    2    0    0  0.00000000000E+00  0.00000000000E+00 -0.46336266832E+02  0.10064402987E+03  0.89342997068E+02 0.  0.
        -13    1    3    3    0    0 -0.15649886603E+02 -0.22345620599E+02  0.16679975414E+02  0.31976042445E+02  0.00000000000E+00 0.  1.
         13    1    3    3    0    0  0.15649886603E+02  0.22345620599E+02 -0.63016242246E+02  0.68667987428E+02  0.00000000000E+00 0. -1.
<mgrwt>
<rscale>  0 0.89342997E+02</rscale>
<asrwt>0</asrwt>
<pdfrwt beam="2">  1        3 0.11306176E-01 0.89342997E+02</pdfrwt>
<pdfrwt beam="1">  1       -3 0.41775203E-02 0.89342997E+02</pdfrwt>
<totfact> 0.36586578E+04</totfact>
</mgrwt>
</event>
<event>
 5    1  0.6113696E+000  0.9675541E+02  0.7546771E-02  0.1287271E+00
         -1   -1    0    0    0  501 -0.00000000000E+00  0.00000000000E+00  0.67740593207E+02  0.67740593207E+02  0.00000000000E+00 0.  1.
          1   -1    0    0  501    0  0.00000000000E+00 -0.00000000000E+00 -0.34549477906E+02  0.34549477906E+02  0.00000000000E+00 0. -1.
         23    2    1    2    0    0  0.00000000000E+00  0.00000000000E+00  0.33191115301E+02  0.10229007111E+03  0.96755405604E+02 0.  0.
        -13    1    3    3    0    0  0.13361663939E+02 -0.32756193055E+01  0.65629003826E+02  0.67055424003E+02  0.00000000000E+00 0.  1.
         13    1    3    3    0    0 -0.13361663939E+02  0.32756193055E+01 -0.32437888525E+02  0.35234647111E+02  0.00000000000E+00 0. -1.
<mgrwt>
<rscale>  0 0.96755406E+02</rscale>
<asrwt>0</asrwt>
<pdfrwt beam="2">  1        1 0.53153043E-02 0.96755406E+02</pdfrwt>
<pdfrwt beam="1">  1       -1 0.10421630E-01 0.96755406E+02</pdfrwt>
<totfact> 0.74775244E+04</totfact>
</mgrwt>
</event>
<event>
 5    1  0.6113696E+000  0.8984834E+02  0.7546771E-02  0.1303219E+00
          3   -1    0    0  501    0  0.00000000000E+00  0.00000000000E+00  0.99433321567E+02  0.99433321567E+02  0.00000000000E+00 0. -1.
         -3   -1    0    0    0  501 -0.00000000000E+00 -0.00000000000E+00 -0.20296828782E+02  0.20296828782E+02  0.00000000000E+00 0.  1.
         23    2    1    2    0    0  0.00000000000E+00  0.00000000000E+00  0.79136492785E+02  0.11973015035E+03  0.89848341176E+02 0.  0.
        -13    1    3    3    0    0 -0.40106787257E+02 -0.44849732163E+01  0.13268368188E+02  0.42481983984E+02  0.00000000000E+00 0.  1.
         13    1    3    3    0    0  0.40106787257E+02  0.44849732163E+01  0.65868124597E+02  0.77248166365E+02  0.00000000000E+00 0. -1.
<mgrwt>
<rscale>  0 0.89848341E+02</rscale>
<asrwt>0</asrwt>
<pdfrwt beam="1">  1        3 0.15297434E-01 0.89848341E+02</pdfrwt>
<pdfrwt beam="2">  1       -3 0.31225891E-02 0.89848341E+02</pdfrwt>
<totfact> 0.34614509E+04</totfact>
</mgrwt>
</event>
<event>
 5    1  0.6113696E+000  0.8814097E+02  0.7546771E-02  0.1307417E+00
          2   -1    0    0  501    0  0.00000000000E+00  0.00000000000E+00  0.23033850077E+03  0.23033850077E+03  0.00000000000E+00 0. -1.
         -2   -1    0    0    0  501 -0.00000000000E+00 -0.00000000000E+00 -0.84319711661E+01  0.84319711661E+01  0.00000000000E+00 0.  1.
         23    2    1    2    0    0  0.00000000000E+00  0.00000000000E+00  0.22190652960E+03  0.23877047193E+03  0.88140968838E+02 0.  0.
        -13    1    3    3    0    0  0.91375178138E+01  0.35279805814E+02  0.17808133995E+03  0.18177217215E+03  0.00000000000E+00 0. -1.
         13    1    3    3    0    0 -0.91375178138E+01 -0.35279805814E+02  0.43825189647E+02  0.56998299778E+02  0.00000000000E+00 0.  1.
<mgrwt>
<rscale>  0 0.88140969E+02</rscale>
<asrwt>0</asrwt>
<pdfrwt beam="1">  1        2 0.35436688E-01 0.88140969E+02</pdfrwt>
<pdfrwt beam="2">  1       -2 0.12972265E-02 0.88140969E+02</pdfrwt>
<totfact> 0.17831042E+05</totfact>
</mgrwt>
</event>
<event>
 5    1  0.6113696E+000  0.8983593E+02  0.7546771E-02  0.1303250E+00
         -4   -1    0    0    0  501 -0.00000000000E+00  0.00000000000E+00  0.28036978705E+02  0.28036978705E+02  0.00000000000E+00 0.  1.
          4   -1    0    0  501    0  0.00000000000E+00 -0.00000000000E+00 -0.71962945264E+02  0.71962945264E+02  0.00000000000E+00 0. -1.
         23    2    1    2    0    0  0.00000000000E+00  0.00000000000E+00 -0.43925966559E+02  0.99999923969E+02  0.89835929648E+02 0.  0.
        -13    1    3    3    0    0 -0.11428641008E+02 -0.16713851078E+02  0.22669010647E+02  0.30394912352E+02  0.00000000000E+00 0.  1.
         13    1    3    3    0    0  0.11428641008E+02  0.16713851078E+02 -0.66594977206E+02  0.69605011617E+02  0.00000000000E+00 0. -1.
<mgrwt>
<rscale>  0 0.89835930E+02</rscale>
<asrwt>0</asrwt>
<pdfrwt beam="2">  1        4 0.11071222E-01 0.89835930E+02</pdfrwt>
<pdfrwt beam="1">  1       -4 0.43133814E-02 0.89835930E+02</pdfrwt>
<totfact> 0.27539446E+04</totfact>
</mgrwt>
</event>
<event>
 5    1  0.6113696E+000  0.8914860E+02  0.7546771E-02  0.1304927E+00
          1   -1    0    0  501    0  0.00000000000E+00  0.00000000000E+00  0.42031608664E+03  0.42031608664E+03  0.00000000000E+00 0. -1.
         -1   -1    0    0    0  501 -0.00000000000E+00 -0.00000000000E+00 -0.47270810420E+01  0.47270810420E+01  0.00000000000E+00 0.  1.
         23    2    1    2    0    0  0.00000000000E+00  0.00000000000E+00  0.41558900560E+03  0.42504316769E+03  0.89148599648E+02 0.  0.
        -13    1    3    3    0    0  0.76477497495E+01 -0.42994883624E+02  0.16519792820E+03  0.17087247752E+03  0.00000000000E+00 0. -1.
         13    1    3    3    0    0 -0.76477497495E+01  0.42994883624E+02  0.25039107741E+03  0.25417069016E+03  0.00000000000E+00 0.  1.
<mgrwt>
<rscale>  0 0.89148600E+02</rscale>
<asrwt>0</asrwt>
<pdfrwt beam="1">  1        1 0.64663984E-01 0.89148600E+02</pdfrwt>
<pdfrwt beam="2">  1       -1 0.72724356E-03 0.89148600E+02</pdfrwt>
<totfact> 0.14431586E+05</totfact>
</mgrwt>
</event>
<event>
 5    1  0.6113696E+000  0.9017423E+02  0.7546771E-02  0.1302430E+00
         -3   -1    0    0    0  501 -0.00000000000E+00  0.00000000000E+00  0.39727666574E+02  0.39727666574E+02  0.00000000000E+00 0.  1.
          3   -1    0    0  501    0  0.00000000000E+00 -0.00000000000E+00 -0.51169582426E+02  0.51169582426E+02  0.00000000000E+00 0. -1.
         23    2    1    2    0    0  0.00000000000E+00  0.00000000000E+00 -0.11441915852E+02  0.90897249000E+02  0.90174233778E+02 0.  0.
        -13    1    3    3    0    0  0.36884813967E+02 -0.24203311188E+02  0.36573119711E+01  0.44268111600E+02  0.00000000000E+00 0. -1.
         13    1    3    3    0    0 -0.36884813967E+02  0.24203311188E+02 -0.15099227823E+02  0.46629137400E+02  0.00000000000E+00 0.  1.
<mgrwt>
<rscale>  0 0.90174234E+02</rscale>
<asrwt>0</asrwt>
<pdfrwt beam="2">  1        3 0.78722434E-02 0.90174234E+02</pdfrwt>
<pdfrwt beam="1">  1       -3 0.61119487E-02 0.90174234E+02</pdfrwt>
<totfact> 0.36439933E+04</totfact>
</mgrwt>
</event>
<event>
 5    1  0.6113696E+000  0.9224811E+02  0.7546771E-02  0.1297497E+00
         -1   -1    0    0    0  501 -0.00000000000E+00  0.00000000000E+00  0.82772995535E+01  0.82772995535E+01  0.00000000000E+00 0.  1.
          1   -1    0    0  501    0  0.00000000000E+00 -0.00000000000E+00 -0.25701965485E+03  0.25701965485E+03  0.00000000000E+00 0. -1.
         23    2    1    2    0    0  0.00000000000E+00  0.00000000000E+00 -0.24874235529E+03  0.26529695440E+03  0.92248114871E+02 0.  0.
        -13    1    3    3    0    0  0.39375729256E+02  0.12451157801E+02 -0.18344633597E+03  0.18803733024E+03  0.00000000000E+00 0. -1.
         13    1    3    3    0    0 -0.39375729256E+02 -0.12451157801E+02 -0.65296019324E+02  0.77259624156E+02  0.00000000000E+00 0.  1.
<mgrwt>
<rscale>  0 0.92248115E+02</rscale>
<asrwt>0</asrwt>
<pdfrwt beam="2">  1        1 0.39541490E-01 0.92248115E+02</pdfrwt>
<pdfrwt beam="1">  1       -1 0.12734306E-02 0.92248115E+02</pdfrwt>
<totfact> 0.12051511E+05</totfact>
</mgrwt>
</event>
<event>
 5    1  0.6113696E+000  0.9082795E+02  0.7546771E-02  0.1300859E+00
          1   -1    0    0  501    0  0.00000000000E+00  0.00000000000E+00  0.20587064625E+02  0.20587064625E+02  0.00000000000E+00 0. -1.
         -1   -1    0    0    0  501 -0.00000000000E+00 -0.00000000000E+00 -0.10018082510E+03  0.10018082510E+03  0.00000000000E+00 0.  1.
         23    2    1    2    0    0  0.00000000000E+00  0.00000000000E+00 -0.79593760478E+02  0.12076788973E+03  0.90827949895E+02 0.  0.
        -13    1    3    3    0    0 -0.32860345690E+02  0.51582207234E+01 -0.80908572614E+02  0.87479178565E+02  0.00000000000E+00 0.  1.
         13    1    3    3    0    0  0.32860345690E+02 -0.51582207234E+01  0.13148121364E+01  0.33288711163E+02  0.00000000000E+00 0. -1.
<mgrwt>
<rscale>  0 0.90827950E+02</rscale>
<asrwt>0</asrwt>
<pdfrwt beam="1">  1        1 0.31672407E-02 0.90827950E+02</pdfrwt>
<pdfrwt beam="2">  1       -1 0.15412435E-01 0.90827950E+02</pdfrwt>
<totfact> 0.82150142E+04</totfact>
</mgrwt>
</event>
<event>
 5    1  0.6113696E+000  0.8955995E+02  0.7546771E-02  0.1303921E+00
          2   -1    0    0  501    0  0.00000000000E+00  0.00000000000E+00  0.15541869438E+02  0.15541869438E+02  0.00000000000E+00 0. -1.
         -2   -1    0    0    0  501 -0.00000000000E+00 -0.00000000000E+00 -0.12902219603E+03  0.12902219603E+03  0.00000000000E+00 0.  1.
         23    2    1    2    0    0  0.00000000000E+00  0.00000000000E+00 -0.11348032659E+03  0.14456406547E+03  0.89559949203E+02 0.  0.
        -13    1    3    3    0    0  0.27706807382E+02  0.31522392610E+02 -0.31530433830E+02  0.52492824926E+02  0.00000000000E+00 0. -1.
         13    1    3    3    0    0 -0.27706807382E+02 -0.31522392610E+02 -0.81949892764E+02  0.92071240544E+02  0.00000000000E+00 0.  1.
<mgrwt>
<rscale>  0 0.89559949E+02</rscale>
<asrwt>0</asrwt>
<pdfrwt beam="1">  1        2 0.23910568E-02 0.89559949E+02</pdfrwt>
<pdfrwt beam="2">  1       -2 0.19849569E-01 0.89559949E+02</pdfrwt>
<totfact> 0.77024267E+04</totfact>
</mgrwt>
</event>
<event>
 5    1  0.6113696E+000  0.8050031E+02  0.7546771E-02  0.1327638E+00
          3   -1    0    0  501    0  0.00000000000E+00  0.00000000000E+00  0.14465757356E+02  0.14465757356E+02  0.00000000000E+00 0. -1.
         -3   -1    0    0    0  501 -0.00000000000E+00 -0.00000000000E+00 -0.11199377648E+03  0.11199377648E+03  0.00000000000E+00 0.  1.
         23    2    1    2    0    0  0.00000000000E+00  0.00000000000E+00 -0.97528019120E+02  0.12645953383E+03  0.80500305486E+02 0.  0.
        -13    1    3    3    0    0  0.34118802008E+02 -0.25413338913E+01 -0.15457403718E+02  0.37543073371E+02  0.00000000000E+00 0. -1.
         13    1    3    3    0    0 -0.34118802008E+02  0.25413338913E+01 -0.82070615402E+02  0.88916460461E+02  0.00000000000E+00 0.  1.
<mgrwt>
<rscale>  0 0.80500305E+02</rscale>
<asrwt>0</asrwt>
<pdfrwt beam="1">  1        3 0.22255011E-02 0.80500305E+02</pdfrwt>
<pdfrwt beam="2">  1       -3 0.17229812E-01 0.80500305E+02</pdfrwt>
<totfact> 0.45875159E+04</totfact>
</mgrwt>
</event>
<event>
 5    1  0.6113696E+000  0.9253374E+02  0.7546771E-02  0.1296829E+00
         -1   -1    0    0    0  501 -0.00000000000E+00  0.00000000000E+00  0.97640381888E+02  0.97640381888E+02  0.00000000000E+00 0.  1.
          1   -1    0    0  501    0  0.00000000000E+00 -0.00000000000E+00 -0.21923542157E+02  0.21923542157E+02  0.00000000000E+00 0. -1.
         23    2    1    2    0    0  0.00000000000E+00  0.00000000000E+00  0.75716839731E+02  0.11956392405E+03  0.92533735006E+02 0.  0.
        -13    1    3    3    0    0 -0.14868041566E+02  0.30103742193E+02 -0.32731532241E+01  0.33734366543E+02  0.00000000000E+00 0. -1.
         13    1    3    3    0    0  0.14868041566E+02 -0.30103742193E+02  0.78989992956E+02  0.85829557503E+02  0.00000000000E+00 0.  1.
<mgrwt>
<rscale>  0 0.92533735E+02</rscale>
<asrwt>0</asrwt>
<pdfrwt beam="2">  1        1 0.33728527E-02 0.92533735E+02</pdfrwt>
<pdfrwt beam="1">  1       -1 0.15021597E-01 0.92533735E+02</pdfrwt>
<totfact> 0.78678027E+04</totfact>
</mgrwt>
</event>
<event>
 5    1  0.6113696E+000  0.9151783E+02  0.7546771E-02  0.1299217E+00
          1   -1    0    0  501    0  0.00000000000E+00  0.00000000000E+00  0.32832245430E+03  0.32832245430E+03  0.00000000000E+00 0. -1.
         -1   -1    0    0    0  501 -0.00000000000E+00 -0.00000000000E+00 -0.63775061717E+01  0.63775061717E+01  0.00000000000E+00 0.  1.
         23    2    1    2    0    0  0.00000000000E+00  0.00000000000E+00  0.32194494813E+03  0.33469996048E+03  0.91517833861E+02 0.  0.
        -13    1    3    3    0    0  0.29002100077E+02  0.35372750741E+02  0.15645589375E+03  0.16300552136E+03  0.00000000000E+00 0.  1.
         13    1    3    3    0    0 -0.29002100077E+02 -0.35372750741E+02  0.16548905438E+03  0.17169443912E+03  0.00000000000E+00 0. -1.
<mgrwt>
<rscale>  0 0.91517834E+02</rscale>
<asrwt>0</asrwt>
<pdfrwt beam="1">  1        1 0.50511134E-01 0.91517834E+02</pdfrwt>
<pdfrwt beam="2">  1       -1 0.98115505E-03 0.91517834E+02</pdfrwt>
<totfact> 0.12902129E+05</totfact>
</mgrwt>
</event>
<event>
 5    1  0.6113696E+000  0.1014119E+03  0.7546771E-02  0.1277355E+00
          3   -1    0    0  501    0  0.00000000000E+00  0.00000000000E+00  0.65989982139E+02  0.65989982139E+02  0.00000000000E+00 0. -1.
         -3   -1    0    0    0  501 -0.00000000000E+00 -0.00000000000E+00 -0.38961865365E+02  0.38961865365E+02  0.00000000000E+00 0.  1.
         23    2    1    2    0    0  0.00000000000E+00  0.00000000000E+00  0.27028116775E+02  0.10495184750E+03  0.10141188884E+03 0.  0.
        -13    1    3    3    0    0 -0.13393956708E+02 -0.47940984553E+02  0.35146566598E+01  0.49900790451E+02  0.00000000000E+00 0.  1.
         13    1    3    3    0    0  0.13393956708E+02  0.47940984553E+02  0.23513460115E+02  0.55051057054E+02  0.00000000000E+00 0. -1.
<mgrwt>
<rscale>  0 0.10141189E+03</rscale>
<asrwt>0</asrwt>
<pdfrwt beam="1">  1        3 0.10152305E-01 0.10141189E+03</pdfrwt>
<pdfrwt beam="2">  1       -3 0.59941331E-02 0.10141189E+03</pdfrwt>
<totfact> 0.25631664E+04</totfact>
</mgrwt>
</event>
<event>
 5    1  0.6113696E+000  0.9353144E+02  0.7546771E-02  0.1294518E+00
          2   -1    0    0  501    0  0.00000000000E+00  0.00000000000E+00  0.23676729769E+02  0.23676729769E+02  0.00000000000E+00 0. -1.
         -2   -1    0    0    0  501 -0.00000000000E+00 -0.00000000000E+00 -0.92370556502E+02  0.92370556502E+02  0.00000000000E+00 0.  1.
         23    2    1    2    0    0  0.00000000000E+00  0.00000000000E+00 -0.68693826733E+02  0.11604728627E+03  0.93531442946E+02 0.  0.
        -13    1    3    3    0    0 -0.91263782258E+01  0.13798123081E+02 -0.88618808582E+02  0.90149721100E+02  0.00000000000E+00 0.  1.
         13    1    3    3    0    0  0.91263782258E+01 -0.13798123081E+02  0.19924981849E+02  0.25897565170E+02  0.00000000000E+00 0. -1.
<mgrwt>
<rscale>  0 0.93531443E+02</rscale>
<asrwt>0</asrwt>
<pdfrwt beam="1">  1        2 0.36425739E-02 0.93531443E+02</pdfrwt>
<pdfrwt beam="2">  1       -2 0.14210855E-01 0.93531443E+02</pdfrwt>
<totfact> 0.76685633E+04</totfact>
</mgrwt>
</event>
<event>
 5    1  0.6113696E+000  0.9210720E+02  0.7546771E-02  0.1297828E+00
         -2   -1    0    0    0  501 -0.00000000000E+00  0.00000000000E+00  0.69898928282E+01  0.69898928282E+01  0.00000000000E+00 0.  1.
          2   -1    0    0  501    0  0.00000000000E+00 -0.00000000000E+00 -0.30342871196E+03  0.30342871196E+03  0.00000000000E+00 0. -1.
         23    2    1    2    0    0  0.00000000000E+00  0.00000000000E+00 -0.29643881913E+03  0.31041860479E+03  0.92107202272E+02 0.  0.
        -13    1    3    3    0    0  0.28643227162E+02  0.26817793748E+02 -0.22947559398E+03  0.23280609261E+03  0.00000000000E+00 0. -1.
         13    1    3    3    0    0 -0.28643227162E+02 -0.26817793748E+02 -0.66963225147E+02  0.77612512174E+02  0.00000000000E+00 0.  1.
<mgrwt>
<rscale>  0 0.92107202E+02</rscale>
<asrwt>0</asrwt>
<pdfrwt beam="2">  1        2 0.46681345E-01 0.92107202E+02</pdfrwt>
<pdfrwt beam="1">  1       -2 0.10753680E-02 0.92107202E+02</pdfrwt>
<totfact> 0.17559544E+05</totfact>
</mgrwt>
</event>
<event>
 5    1  0.6113696E+000  0.1013034E+03  0.7546771E-02  0.1277579E+00
          3   -1    0    0  501    0  0.00000000000E+00  0.00000000000E+00  0.40121798708E+02  0.40121798708E+02  0.00000000000E+00 0. -1.
         -3   -1    0    0    0  501 -0.00000000000E+00 -0.00000000000E+00 -0.63945110570E+02  0.63945110570E+02  0.00000000000E+00 0.  1.
         23    2    1    2    0    0  0.00000000000E+00  0.00000000000E+00 -0.23823311862E+02  0.10406690928E+03  0.10130336331E+03 0.  0.
        -13    1    3    3    0    0 -0.44309418165E+02 -0.22248897557E+02 -0.22550570234E+02  0.54468947103E+02  0.00000000000E+00 0.  1.
         13    1    3    3    0    0  0.44309418165E+02  0.22248897557E+02 -0.12727416278E+01  0.49597962175E+02  0.00000000000E+00 0. -1.
<mgrwt>
<rscale>  0 0.10130336E+03</rscale>
<asrwt>0</asrwt>
<pdfrwt beam="1">  1        3 0.61725844E-02 0.10130336E+03</pdfrwt>
<pdfrwt beam="2">  1       -3 0.98377093E-02 0.10130336E+03</pdfrwt>
<totfact> 0.25755646E+04</totfact>
</mgrwt>
</event>
<event>
 5    1  0.6113696E+000  0.8974941E+02  0.7546771E-02  0.1303460E+00
         -4   -1    0    0    0  501 -0.00000000000E+00  0.00000000000E+00  0.43790070470E+01  0.43790070470E+01  0.00000000000E+00 0.  1.
          4   -1    0    0  501    0  0.00000000000E+00 -0.00000000000E+00 -0.45986209134E+03  0.45986209134E+03  0.00000000000E+00 0. -1.
         23    2    1    2    0    0  0.00000000000E+00  0.00000000000E+00 -0.45548308429E+03  0.46424109839E+03  0.89749414230E+02 0.  0.
        -13    1    3    3    0    0 -0.36553242915E+02 -0.25870404538E+02 -0.24266344662E+03  0.24676094854E+03  0.00000000000E+00 0.  1.
         13    1    3    3    0    0  0.36553242915E+02  0.25870404538E+02 -0.21281963768E+03  0.21748014985E+03  0.00000000000E+00 0. -1.
<mgrwt>
<rscale>  0 0.89749414E+02</rscale>
<asrwt>0</asrwt>
<pdfrwt beam="2">  1        4 0.70748031E-01 0.89749414E+02</pdfrwt>
<pdfrwt beam="1">  1       -4 0.67369323E-03 0.89749414E+02</pdfrwt>
<totfact> 0.14342782E+04</totfact>
</mgrwt>
</event>
<event>
 5    1  0.6113696E+000  0.9221212E+02  0.7546771E-02  0.1297581E+00
          3   -1    0    0  501    0  0.00000000000E+00  0.00000000000E+00  0.34621511929E+02  0.34621511929E+02  0.00000000000E+00 0. -1.
         -3   -1    0    0    0  501 -0.00000000000E+00 -0.00000000000E+00 -0.61400232523E+02  0.61400232523E+02  0.00000000000E+00 0.  1.
         23    2    1    2    0    0  0.00000000000E+00  0.00000000000E+00 -0.26778720594E+02  0.96021744452E+02  0.92212122473E+02 0.  0.
        -13    1    3    3    0    0 -0.13911794176E+02  0.42767146427E+01 -0.58945382739E+02  0.60715619503E+02  0.00000000000E+00 0.  1.
         13    1    3    3    0    0  0.13911794176E+02 -0.42767146427E+01  0.32166662145E+02  0.35306124949E+02  0.00000000000E+00 0. -1.
<mgrwt>
<rscale>  0 0.92212122E+02</rscale>
<asrwt>0</asrwt>
<pdfrwt beam="1">  1        3 0.53263864E-02 0.92212122E+02</pdfrwt>
<pdfrwt beam="2">  1       -3 0.94461897E-02 0.92212122E+02</pdfrwt>
<totfact> 0.33908813E+04</totfact>
</mgrwt>
</event>
<event>
 5    1  0.6113696E+000  0.9139286E+02  0.7546771E-02  0.1299513E+00
          2   -1    0    0  501    0  0.00000000000E+00  0.00000000000E+00  0.53495469693E+02  0.53495469693E+02  0.00000000000E+00 0. -1.
         -2   -1    0    0    0  501 -0.00000000000E+00 -0.00000000000E+00 -0.39034402027E+02  0.39034402027E+02  0.00000000000E+00 0.  1.
         23    2    1    2    0    0  0.00000000000E+00  0.00000000000E+00  0.14461067666E+02  0.92529871720E+02  0.91392859035E+02 0.  0.
        -13    1    3    3    0    0 -0.31763928640E+02 -0.75201309949E+01  0.39607504355E+02  0.51324983527E+02  0.00000000000E+00 0. -1.
         13    1    3    3    0    0  0.31763928640E+02  0.75201309949E+01 -0.25146436689E+02  0.41204888193E+02  0.00000000000E+00 0.  1.
<mgrwt>
<rscale>  0 0.91392859E+02</rscale>
<asrwt>0</asrwt>
<pdfrwt beam="1">  1        2 0.82300722E-02 0.91392859E+02</pdfrwt>
<pdfrwt beam="2">  1       -2 0.60052926E-02 0.91392859E+02</pdfrwt>
<totfact> 0.10219522E+05</totfact>
</mgrwt>
</event>
<event>
 5    1  0.6113696E+000  0.9425872E+02  0.7546771E-02  0.1292854E+00
         -2   -1    0    0    0  501 -0.00000000000E+00  0.00000000000E+00  0.12509952700E+02  0.12509952700E+02  0.00000000000E+00 0.  1.
          2   -1    0    0  501    0  0.00000000000E+00 -0.00000000000E+00 -0.17755275294E+03  0.17755275294E+03  0.00000000000E+00 0. -1.
         23    2    1    2    0    0  0.00000000000E+00  0.00000000000E+00 -0.16504280024E+03  0.19006270564E+03  0.94258719301E+02 0.  0.
        -13    1    3    3    0    0 -0.35467122042E+02  0.14204015118E+02 -0.26878217023E+02  0.46713053227E+02  0.00000000000E+00 0.  1.
         13    1    3    3    0    0  0.35467122042E+02 -0.14204015118E+02 -0.13816458322E+03  0.14334965241E+03  0.00000000000E+00 0. -1.
<mgrwt>
<rscale>  0 0.94258719E+02</rscale>
<asrwt>0</asrwt>
<pdfrwt beam="2">  1        2 0.27315808E-01 0.94258719E+02</pdfrwt>
<pdfrwt beam="1">  1       -2 0.19246081E-02 0.94258719E+02</pdfrwt>
<totfact> 0.13546361E+05</totfact>
</mgrwt>
</event>
<event>
 5    1  0.6113696E+000  0.9043842E+02  0.7546771E-02  0.1301793E+00
          3   -1    0    0  501    0  0.00000000000E+00  0.00000000000E+00  0.75635339895E+02  0.75635339895E+02  0.00000000000E+00 0. -1.
         -3   -1    0    0    0  501 -0.00000000000E+00 -0.00000000000E+00 -0.27034674240E+02  0.27034674240E+02  0.00000000000E+00 0.  1.
         23    2    1    2    0    0  0.00000000000E+00  0.00000000000E+00  0.48600665655E+02  0.10267001413E+03  0.90438416065E+02 0.  0.
        -13    1    3    3    0    0  0.81128629643E+00  0.31694653440E+02  0.60903362004E+02  0.68661697805E+02  0.00000000000E+00 0. -1.
         13    1    3    3    0    0 -0.81128629643E+00 -0.31694653440E+02 -0.12302696349E+02  0.34008316330E+02  0.00000000000E+00 0.  1.
<mgrwt>
<rscale>  0 0.90438416E+02</rscale>
<asrwt>0</asrwt>
<pdfrwt beam="1">  1        3 0.11636206E-01 0.90438416E+02</pdfrwt>
<pdfrwt beam="2">  1       -3 0.41591807E-02 0.90438416E+02</pdfrwt>
<totfact> 0.35244374E+04</totfact>
</mgrwt>
</event>
<event>
 5    1  0.6113696E+000  0.8983473E+02  0.7546771E-02  0.1303252E+00
         -4   -1    0    0    0  501 -0.00000000000E+00  0.00000000000E+00  0.17223505656E+02  0.17223505656E+02  0.00000000000E+00 0. -1.
          4   -1    0    0  501    0  0.00000000000E+00 -0.00000000000E+00 -0.11714046907E+03  0.11714046907E+03  0.00000000000E+00 0.  1.
         23    2    1    2    0    0  0.00000000000E+00  0.00000000000E+00 -0.99916963411E+02  0.13436397472E+03  0.89834726728E+02 0.  0.
        -13    1    3    3    0    0 -0.39256252733E+02 -0.33196313172E+01 -0.17688652863E+02  0.43185203147E+02  0.00000000000E+00 0. -1.
         13    1    3    3    0    0  0.39256252733E+02  0.33196313172E+01 -0.82228310548E+02  0.91178771577E+02  0.00000000000E+00 0.  1.
<mgrwt>
<rscale>  0 0.89834727E+02</rscale>
<asrwt>0</asrwt>
<pdfrwt beam="2">  1        4 0.18021611E-01 0.89834727E+02</pdfrwt>
<pdfrwt beam="1">  1       -4 0.26497700E-02 0.89834727E+02</pdfrwt>
<totfact> 0.25478674E+04</totfact>
</mgrwt>
</event>
<event>
 5    1  0.6113696E+000  0.8988598E+02  0.7546771E-02  0.1303128E+00
         -3   -1    0    0    0  501 -0.00000000000E+00  0.00000000000E+00  0.27761201619E+02  0.27761201619E+02  0.00000000000E+00 0.  1.
          3   -1    0    0  501    0  0.00000000000E+00 -0.00000000000E+00 -0.72758817534E+02  0.72758817534E+02  0.00000000000E+00 0. -1.
         23    2    1    2    0    0  0.00000000000E+00  0.00000000000E+00 -0.44997615915E+02  0.10052001915E+03  0.89885976728E+02 0.  0.
        -13    1    3    3    0    0  0.41232525796E+02 -0.12787501794E+02 -0.85208421664E+01  0.44002796921E+02  0.00000000000E+00 0.  1.
         13    1    3    3    0    0 -0.41232525796E+02  0.12787501794E+02 -0.36476773749E+02  0.56517222231E+02  0.00000000000E+00 0. -1.
<mgrwt>
<rscale>  0 0.89885977E+02</rscale>
<asrwt>0</asrwt>
<pdfrwt beam="2">  1        3 0.11193664E-01 0.89885977E+02</pdfrwt>
<pdfrwt beam="1">  1       -3 0.42709542E-02 0.89885977E+02</pdfrwt>
<totfact> 0.36000010E+04</totfact>
</mgrwt>
</event>
<event>
 5    1  0.6113696E+000  0.8975936E+02  0.7546771E-02  0.1303435E+00
          4   -1    0    0  501    0  0.00000000000E+00  0.00000000000E+00  0.20676020386E+03  0.20676020386E+03  0.00000000000E+00 0. -1.
         -4   -1    0    0    0  501 -0.00000000000E+00 -0.00000000000E+00 -0.97416505263E+01  0.97416505263E+01  0.00000000000E+00 0.  1.
         23    2    1    2    0    0  0.00000000000E+00  0.00000000000E+00  0.19701855334E+03  0.21650185439E+03  0.89759359374E+02 0.  0.
        -13    1    3    3    0    0  0.25873524542E+02 -0.24342025279E+02  0.32355893807E+02  0.48050778672E+02  0.00000000000E+00 0.  1.
         13    1    3    3    0    0 -0.25873524542E+02  0.24342025279E+02  0.16466265953E+03  0.16845107572E+03  0.00000000000E+00 0. -1.
<mgrwt>
<rscale>  0 0.89759359E+02</rscale>
<asrwt>0</asrwt>
<pdfrwt beam="1">  1        4 0.31809259E-01 0.89759359E+02</pdfrwt>
<pdfrwt beam="2">  1       -4 0.14987156E-02 0.89759359E+02</pdfrwt>
<totfact> 0.21599911E+04</totfact>
</mgrwt>
</event>
<event>
 5    1  0.6113696E+000  0.8714988E+02  0.7546771E-02  0.1309904E+00
          2   -1    0    0  501    0  0.00000000000E+00  0.00000000000E+00  0.36013794654E+03  0.36013794654E+03  0.00000000000E+00 0.  1.
         -2   -1    0    0    0  501 -0.00000000000E+00 -0.00000000000E+00 -0.52723552116E+01  0.52723552116E+01  0.00000000000E+00 0. -1.
         23    2    1    2    0    0  0.00000000000E+00  0.00000000000E+00  0.35486559133E+03  0.36541030175E+03  0.87149875027E+02 0.  0.
        -13    1    3    3    0    0  0.10599989696E+02 -0.41084184228E+02  0.13581839868E+03  0.14229162799E+03  0.00000000000E+00 0. -1.
         13    1    3    3    0    0 -0.10599989696E+02  0.41084184228E+02  0.21904719264E+03  0.22311867376E+03  0.00000000000E+00 0.  1.
<mgrwt>
<rscale>  0 0.87149875E+02</rscale>
<asrwt>0</asrwt>
<pdfrwt beam="1">  1        2 0.55405819E-01 0.87149875E+02</pdfrwt>
<pdfrwt beam="2">  1       -2 0.81113185E-03 0.87149875E+02</pdfrwt>
<totfact> 0.21664486E+05</totfact>
</mgrwt>
</event>
<event>
 5    1  0.6113696E+000  0.9424472E+02  0.7546771E-02  0.1292886E+00
          2   -1    0    0  501    0  0.00000000000E+00  0.00000000000E+00  0.42702271577E+02  0.42702271577E+02  0.00000000000E+00 0. -1.
         -2   -1    0    0    0  501 -0.00000000000E+00 -0.00000000000E+00 -0.51999968104E+02  0.51999968104E+02  0.00000000000E+00 0.  1.
         23    2    1    2    0    0  0.00000000000E+00  0.00000000000E+00 -0.92976965266E+01  0.94702239681E+02  0.94244718897E+02 0.  0.
        -13    1    3    3    0    0 -0.21173913831E+02 -0.22653390307E+02 -0.40303576748E+02  0.50851637318E+02  0.00000000000E+00 0.  1.
         13    1    3    3    0    0  0.21173913831E+02  0.22653390307E+02  0.31005880221E+02  0.43850602363E+02  0.00000000000E+00 0. -1.
<mgrwt>
<rscale>  0 0.94244719E+02</rscale>
<asrwt>0</asrwt>
<pdfrwt beam="1">  1        2 0.65695803E-02 0.94244719E+02</pdfrwt>
<pdfrwt beam="2">  1       -2 0.79999951E-02 0.94244719E+02</pdfrwt>
<totfact> 0.88151055E+04</totfact>
</mgrwt>
</event>
<event>
 5    1  0.6113696E+000  0.9092606E+02  0.7546771E-02  0.1300624E+00
          1   -1    0    0  501    0  0.00000000000E+00  0.00000000000E+00  0.89888773160E+02  0.89888773160E+02  0.00000000000E+00 0. -1.
         -1   -1    0    0    0  501 -0.00000000000E+00 -0.00000000000E+00 -0.22993828283E+02  0.22993828283E+02  0.00000000000E+00 0.  1.
         23    2    1    2    0    0  0.00000000000E+00  0.00000000000E+00  0.66894944877E+02  0.11288260144E+03  0.90926058194E+02 0.  0.
        -13    1    3    3    0    0  0.34082213825E+02 -0.28821784145E+02  0.44169871674E+02  0.62795462449E+02  0.00000000000E+00 0. -1.
         13    1    3    3    0    0 -0.34082213825E+02  0.28821784145E+02  0.22725073204E+02  0.50087138995E+02  0.00000000000E+00 0.  1.
<mgrwt>
<rscale>  0 0.90926058E+02</rscale>
<asrwt>0</asrwt>
<pdfrwt beam="1">  1        1 0.13829042E-01 0.90926058E+02</pdfrwt>
<pdfrwt beam="2">  1       -1 0.35375121E-02 0.90926058E+02</pdfrwt>
<totfact> 0.10341579E+05</totfact>
</mgrwt>
</event>
<event>
 5    1  0.6113696E+000  0.9085347E+02  0.7546771E-02  0.1300798E+00
          2   -1    0    0  501    0  0.00000000000E+00  0.00000000000E+00  0.15327191713E+02  0.15327191713E+02  0.00000000000E+00 0. -1.
         -2   -1    0    0    0  501 -0.00000000000E+00 -0.00000000000E+00 -0.13463576360E+03  0.13463576360E+03  0.00000000000E+00 0.  1.
         23    2    1    2    0    0  0.00000000000E+00  0.00000000000E+00 -0.11930857189E+03  0.14996295531E+03  0.90853467961E+02 0.  0.
        -13    1    3    3    0    0 -0.72383147436E+01  0.23093248878E+02 -0.12310909445E+03  0.12546529592E+03  0.00000000000E+00 0.  1.
         13    1    3    3    0    0  0.72383147436E+01 -0.23093248878E+02  0.38005225608E+01  0.24497659395E+02  0.00000000000E+00 0. -1.
<mgrwt>
<rscale>  0 0.90853468E+02</rscale>
<asrwt>0</asrwt>
<pdfrwt beam="1">  1        2 0.23580295E-02 0.90853468E+02</pdfrwt>
<pdfrwt beam="2">  1       -2 0.20713194E-01 0.90853468E+02</pdfrwt>
<totfact> 0.73230189E+04</totfact>
</mgrwt>
</event>
<event>
 5    1  0.6113696E+000  0.9193812E+02  0.7546771E-02  0.1298225E+00
         -2   -1    0    0    0  501 -0.00000000000E+00  0.00000000000E+00  0.78964478209E+01  0.78964478209E+01  0.00000000000E+00 0.  1.
          2   -1    0    0  501    0  0.00000000000E+00 -0.00000000000E+00 -0.26760824068E+03  0.26760824068E+03  0.00000000000E+00 0. -1.
         23    2    1    2    0    0  0.00000000000E+00  0.00000000000E+00 -0.25971179285E+03  0.27550468850E+03  0.91938120689E+02 0.  0.
        -13    1    3    3    0    0 -0.39325791756E+02 -0.51688799337E+01 -0.60225672038E+02  0.72113568691E+02  0.00000000000E+00 0.  1.
         13    1    3    3    0    0  0.39325791756E+02  0.51688799337E+01 -0.19948612082E+03  0.20339111981E+03  0.00000000000E+00 0. -1.
<mgrwt>
<rscale>  0 0.91938121E+02</rscale>
<asrwt>0</asrwt>
<pdfrwt beam="2">  1        2 0.41170497E-01 0.91938121E+02</pdfrwt>
<pdfrwt beam="1">  1       -2 0.12148382E-02 0.91938121E+02</pdfrwt>
<totfact> 0.16837370E+05</totfact>
</mgrwt>
</event>
<event>
 5    1  0.6113696E+000  0.9173380E+02  0.7546771E-02  0.1298707E+00
          2   -1    0    0  501    0  0.00000000000E+00  0.00000000000E+00  0.51441058527E+03  0.51441058527E+03  0.00000000000E+00 0. -1.
         -2   -1    0    0    0  501 -0.00000000000E+00 -0.00000000000E+00 -0.40896753875E+01  0.40896753875E+01  0.00000000000E+00 0.  1.
         23    2    1    2    0    0  0.00000000000E+00  0.00000000000E+00  0.51032090988E+03  0.51850026066E+03  0.91733795510E+02 0.  0.
        -13    1    3    3    0    0 -0.26907608510E+02  0.37001728978E+02  0.23673647711E+03  0.24111679108E+03  0.00000000000E+00 0.  1.
         13    1    3    3    0    0  0.26907608510E+02 -0.37001728978E+02  0.27358443277E+03  0.27738346958E+03  0.00000000000E+00 0. -1.
<mgrwt>
<rscale>  0 0.91733796E+02</rscale>
<asrwt>0</asrwt>
<pdfrwt beam="1">  1        2 0.79140039E-01 0.91733796E+02</pdfrwt>
<pdfrwt beam="2">  1       -2 0.62918124E-03 0.91733796E+02</pdfrwt>
<totfact> 0.21400027E+05</totfact>
</mgrwt>
</event>
<event>
 5    1  0.6113696E+000  0.9024581E+02  0.7546771E-02  0.1302258E+00
          1   -1    0    0  501    0  0.00000000000E+00  0.00000000000E+00  0.38435754595E+03  0.38435754595E+03  0.00000000000E+00 0. -1.
         -1   -1    0    0    0  501 -0.00000000000E+00 -0.00000000000E+00 -0.52973504263E+01  0.52973504263E+01  0.00000000000E+00 0.  1.
         23    2    1    2    0    0  0.00000000000E+00  0.00000000000E+00  0.37906019552E+03  0.38965489638E+03  0.90245811202E+02 0.  0.
        -13    1    3    3    0    0 -0.43734941167E+02 -0.80099854997E+01  0.15631695490E+03  0.16251736934E+03  0.00000000000E+00 0.  1.
         13    1    3    3    0    0  0.43734941167E+02  0.80099854997E+01  0.22274324062E+03  0.22713752704E+03  0.00000000000E+00 0. -1.
<mgrwt>
<rscale>  0 0.90245811E+02</rscale>
<asrwt>0</asrwt>
<pdfrwt beam="1">  1        1 0.59131908E-01 0.90245811E+02</pdfrwt>
<pdfrwt beam="2">  1       -1 0.81497729E-03 0.90245811E+02</pdfrwt>
<totfact> 0.13769818E+05</totfact>
</mgrwt>
</event>
<event>
 5    1  0.6113696E+000  0.8945773E+02  0.7546771E-02  0.1304170E+00
          2   -1    0    0  501    0  0.00000000000E+00  0.00000000000E+00  0.69257936332E+02  0.69257936332E+02  0.00000000000E+00 0.  1.
         -2   -1    0    0    0  501 -0.00000000000E+00 -0.00000000000E+00 -0.28887250283E+02  0.28887250283E+02  0.00000000000E+00 0. -1.
         23    2    1    2    0    0  0.00000000000E+00  0.00000000000E+00  0.40370686049E+02  0.98145186615E+02  0.89457729480E+02 0.  0.
        -13    1    3    3    0    0 -0.25328740530E+02  0.18959853147E+02 -0.14502329885E+02  0.34804291406E+02  0.00000000000E+00 0. -1.
         13    1    3    3    0    0  0.25328740530E+02 -0.18959853147E+02  0.54873015934E+02  0.63340895209E+02  0.00000000000E+00 0.  1.
<mgrwt>
<rscale>  0 0.89457729E+02</rscale>
<asrwt>0</asrwt>
<pdfrwt beam="1">  1        2 0.10655067E-01 0.89457729E+02</pdfrwt>
<pdfrwt beam="2">  1       -2 0.44441924E-02 0.89457729E+02</pdfrwt>
<totfact> 0.11631487E+05</totfact>
</mgrwt>
</event>
<event>
 5    1  0.6113696E+000  0.9208287E+02  0.7546771E-02  0.1297885E+00
         -4   -1    0    0    0  501 -0.00000000000E+00  0.00000000000E+00  0.61602041351E+02  0.61602041351E+02  0.00000000000E+00 0.  1.
          4   -1    0    0  501    0  0.00000000000E+00 -0.00000000000E+00 -0.34411418138E+02  0.34411418138E+02  0.00000000000E+00 0. -1.
         23    2    1    2    0    0  0.00000000000E+00  0.00000000000E+00  0.27190623213E+02  0.96013459489E+02  0.92082867094E+02 0.  0.
        -13    1    3    3    0    0  0.27305016496E+02  0.37007507092E+02  0.15854379438E+02  0.48646488613E+02  0.00000000000E+00 0.  1.
         13    1    3    3    0    0 -0.27305016496E+02 -0.37007507092E+02  0.11336243775E+02  0.47366970876E+02  0.00000000000E+00 0. -1.
<mgrwt>
<rscale>  0 0.92082867E+02</rscale>
<asrwt>0</asrwt>
<pdfrwt beam="2">  1        4 0.52940643E-02 0.92082867E+02</pdfrwt>
<pdfrwt beam="1">  1       -4 0.94772371E-02 0.92082867E+02</pdfrwt>
<totfact> 0.25999089E+04</totfact>
</mgrwt>
</event>
<event>
 5    1  0.6113696E+000  0.9086157E+02  0.7546771E-02  0.1300779E+00
         -3   -1    0    0    0  501 -0.00000000000E+00  0.00000000000E+00  0.68624016269E+02  0.68624016269E+02  0.00000000000E+00 0.  1.
          3   -1    0    0  501    0  0.00000000000E+00 -0.00000000000E+00 -0.30076294914E+02  0.30076294914E+02  0.00000000000E+00 0. -1.
         23    2    1    2    0    0  0.00000000000E+00  0.00000000000E+00  0.38547721356E+02  0.98700311183E+02  0.90861568366E+02 0.  0.
        -13    1    3    3    0    0  0.13347864961E+02  0.37271545333E+02  0.43481448471E+02  0.58804506219E+02  0.00000000000E+00 0.  1.
         13    1    3    3    0    0 -0.13347864961E+02 -0.37271545333E+02 -0.49337271149E+01  0.39895804964E+02  0.00000000000E+00 0. -1.
<mgrwt>
<rscale>  0 0.90861568E+02</rscale>
<asrwt>0</asrwt>
<pdfrwt beam="2">  1        3 0.46271223E-02 0.90861568E+02</pdfrwt>
<pdfrwt beam="1">  1       -3 0.10557541E-01 0.90861568E+02</pdfrwt>
<totfact> 0.35098203E+04</totfact>
</mgrwt>
</event>
<event>
 5    1  0.6113696E+000  0.9144501E+02  0.7546771E-02  0.1299390E+00
          1   -1    0    0  501    0  0.00000000000E+00  0.00000000000E+00  0.91318836754E+01  0.91318836754E+01  0.00000000000E+00 0. -1.
         -1   -1    0    0    0  501 -0.00000000000E+00 -0.00000000000E+00 -0.22892838340E+03  0.22892838340E+03  0.00000000000E+00 0.  1.
         23    2    1    2    0    0  0.00000000000E+00  0.00000000000E+00 -0.21979649972E+03  0.23806026707E+03  0.91445007894E+02 0.  0.
        -13    1    3    3    0    0 -0.45526647733E+02 -0.38412255631E+01 -0.10530230954E+03  0.11478678958E+03  0.00000000000E+00 0.  1.
         13    1    3    3    0    0  0.45526647733E+02  0.38412255631E+01 -0.11449419018E+03  0.12327347749E+03  0.00000000000E+00 0. -1.
<mgrwt>
<rscale>  0 0.91445008E+02</rscale>
<asrwt>0</asrwt>
<pdfrwt beam="1">  1        1 0.14049053E-02 0.91445008E+02</pdfrwt>
<pdfrwt beam="2">  1       -1 0.35219749E-01 0.91445008E+02</pdfrwt>
<totfact> 0.66150352E+04</totfact>
</mgrwt>
</event>
<event>
 4    1  0.6113696E+000  0.1646288E+03  0.7546771E-02  0.1183568E+00
         -2   -1    0    0    0  501 -0.00000000000E+00  0.00000000000E+00  0.75619742828E+02  0.75619742828E+02  0.00000000000E+00 0.  1.
          2   -1    0    0  501    0  0.00000000000E+00 -0.00000000000E+00 -0.89601689500E+02  0.89601689500E+02  0.00000000000E+00 0. -1.
        -13    1    1    2    0    0  0.93234998165E+01  0.13568923354E+02  0.73950561267E+02  0.75760998155E+02  0.00000000000E+00 0.  1.
         13    1    1    2    0    0 -0.93234998165E+01 -0.13568923354E+02 -0.87932507939E+02  0.89460434172E+02  0.00000000000E+00 0. -1.
<mgrwt>
<rscale>  0 0.16462875E+03</rscale>
<asrwt>0</asrwt>
<pdfrwt beam="2">  1        2 0.13784875E-01 0.16462875E+03</pdfrwt>
<pdfrwt beam="1">  1       -2 0.11633807E-01 0.16462875E+03</pdfrwt>
<totfact> 0.21155275E+04</totfact>
</mgrwt>
</event>
<event>
 5    1  0.6113696E+000  0.9169708E+02  0.7546771E-02  0.1298793E+00
          3   -1    0    0  501    0  0.00000000000E+00  0.00000000000E+00  0.11932532262E+02  0.11932532262E+02  0.00000000000E+00 0. -1.
         -3   -1    0    0    0  501 -0.00000000000E+00 -0.00000000000E+00 -0.17616451541E+03  0.17616451541E+03  0.00000000000E+00 0.  1.
         23    2    1    2    0    0  0.00000000000E+00  0.00000000000E+00 -0.16423198315E+03  0.18809704768E+03  0.91697083130E+02 0.  0.
        -13    1    3    3    0    0 -0.30491470909E+02 -0.14378935774E+02 -0.18373908868E+02  0.38393803136E+02  0.00000000000E+00 0. -1.
         13    1    3    3    0    0  0.30491470909E+02  0.14378935774E+02 -0.14585807428E+03  0.14970324454E+03  0.00000000000E+00 0.  1.
<mgrwt>
<rscale>  0 0.91697083E+02</rscale>
<asrwt>0</asrwt>
<pdfrwt beam="1">  1        3 0.18357742E-02 0.91697083E+02</pdfrwt>
<pdfrwt beam="2">  1       -3 0.27102233E-01 0.91697083E+02</pdfrwt>
<totfact> 0.28680466E+04</totfact>
</mgrwt>
</event>
<event>
 5    1  0.6113696E+000  0.9283055E+02  0.7546771E-02  0.1296138E+00
          4   -1    0    0  501    0  0.00000000000E+00  0.00000000000E+00  0.46584735722E+02  0.46584735722E+02  0.00000000000E+00 0. -1.
         -4   -1    0    0    0  501 -0.00000000000E+00 -0.00000000000E+00 -0.46246433184E+02  0.46246433184E+02  0.00000000000E+00 0.  1.
         23    2    1    2    0    0  0.00000000000E+00  0.00000000000E+00  0.33830253759E+00  0.92831168906E+02  0.92830552470E+02 0.  0.
        -13    1    3    3    0    0 -0.39928794434E+02 -0.23139100966E+02 -0.47958841691E+01  0.46397490486E+02  0.00000000000E+00 0.  1.
         13    1    3    3    0    0  0.39928794434E+02  0.23139100966E+02  0.51341867067E+01  0.46433678420E+02  0.00000000000E+00 0. -1.
<mgrwt>
<rscale>  0 0.92830552E+02</rscale>
<asrwt>0</asrwt>
<pdfrwt beam="1">  1        4 0.71668824E-02 0.92830552E+02</pdfrwt>
<pdfrwt beam="2">  1       -4 0.71148359E-02 0.92830552E+02</pdfrwt>
<totfact> 0.25624702E+04</totfact>
</mgrwt>
</event>
<event>
 5    1  0.6113696E+000  0.8728732E+02  0.7546771E-02  0.1309557E+00
          1   -1    0    0  501    0  0.00000000000E+00  0.00000000000E+00  0.48134696293E+02  0.48134696293E+02  0.00000000000E+00 0. -1.
         -1   -1    0    0    0  501 -0.00000000000E+00 -0.00000000000E+00 -0.39571646630E+02  0.39571646630E+02  0.00000000000E+00 0.  1.
         23    2    1    2    0    0  0.00000000000E+00  0.00000000000E+00  0.85630496624E+01  0.87706342923E+02  0.87287323074E+02 0.  0.
        -13    1    3    3    0    0  0.25866954188E+02 -0.17420279464E+02  0.34960104396E+02  0.46848418916E+02  0.00000000000E+00 0. -1.
         13    1    3    3    0    0 -0.25866954188E+02  0.17420279464E+02 -0.26397054733E+02  0.40857924007E+02  0.00000000000E+00 0.  1.
<mgrwt>
<rscale>  0 0.87287323E+02</rscale>
<asrwt>0</asrwt>
<pdfrwt beam="1">  1        1 0.74053379E-02 0.87287323E+02</pdfrwt>
<pdfrwt beam="2">  1       -1 0.60879456E-02 0.87287323E+02</pdfrwt>
<totfact> 0.10527850E+05</totfact>
</mgrwt>
</event>
<event>
 5    1  0.6113696E+000  0.9407685E+02  0.7546771E-02  0.1293269E+00
          1   -1    0    0  501    0  0.00000000000E+00  0.00000000000E+00  0.70710513128E+02  0.70710513128E+02  0.00000000000E+00 0. -1.
         -1   -1    0    0    0  501 -0.00000000000E+00 -0.00000000000E+00 -0.31291149663E+02  0.31291149663E+02  0.00000000000E+00 0.  1.
         23    2    1    2    0    0  0.00000000000E+00  0.00000000000E+00  0.39419363465E+02  0.10200166279E+03  0.94076846228E+02 0.  0.
        -13    1    3    3    0    0 -0.15000818562E+02  0.38827155353E+02 -0.40457830075E+01  0.41820340870E+02  0.00000000000E+00 0.  1.
         13    1    3    3    0    0  0.15000818562E+02 -0.38827155353E+02  0.43465146473E+02  0.60181321922E+02  0.00000000000E+00 0. -1.
<mgrwt>
<rscale>  0 0.94076846E+02</rscale>
<asrwt>0</asrwt>
<pdfrwt beam="1">  1        1 0.10878540E-01 0.94076846E+02</pdfrwt>
<pdfrwt beam="2">  1       -1 0.48140230E-02 0.94076846E+02</pdfrwt>
<totfact> 0.90623851E+04</totfact>
</mgrwt>
</event>
<event>
 5    1  0.6113696E+000  0.9089451E+02  0.7546771E-02  0.1300700E+00
         -2   -1    0    0    0  501 -0.00000000000E+00  0.00000000000E+00  0.21695517025E+02  0.21695517025E+02  0.00000000000E+00 0.  1.
          2   -1    0    0  501    0  0.00000000000E+00 -0.00000000000E+00 -0.95201827772E+02  0.95201827772E+02  0.00000000000E+00 0. -1.
         23    2    1    2    0    0  0.00000000000E+00  0.00000000000E+00 -0.73506310748E+02  0.11689734480E+03  0.90894507539E+02 0.  0.
        -13    1    3    3    0    0  0.23856368329E+02 -0.10792247247E+01  0.12976002836E+02  0.27178441557E+02  0.00000000000E+00 0.  1.
         13    1    3    3    0    0 -0.23856368329E+02  0.10792247247E+01 -0.86482313583E+02  0.89718903240E+02  0.00000000000E+00 0. -1.
<mgrwt>
<rscale>  0 0.90894508E+02</rscale>
<asrwt>0</asrwt>
<pdfrwt beam="2">  1        2 0.14646435E-01 0.90894508E+02</pdfrwt>
<pdfrwt beam="1">  1       -2 0.33377718E-02 0.90894508E+02</pdfrwt>
<totfact> 0.12190364E+05</totfact>
</mgrwt>
</event>
<event>
 5    1  0.6113696E+000  0.9106319E+02  0.7546771E-02  0.1300297E+00
         -3   -1    0    0    0  501 -0.00000000000E+00  0.00000000000E+00  0.83130321302E+02  0.83130321302E+02  0.00000000000E+00 0.  1.
          3   -1    0    0  501    0  0.00000000000E+00 -0.00000000000E+00 -0.24938265961E+02  0.24938265961E+02  0.00000000000E+00 0. -1.
         23    2    1    2    0    0  0.00000000000E+00  0.00000000000E+00  0.58192055341E+02  0.10806858726E+03  0.91063188218E+02 0.  0.
        -13    1    3    3    0    0 -0.26562023406E+02 -0.13463387933E+02  0.69971044481E+02  0.76044401292E+02  0.00000000000E+00 0.  1.
         13    1    3    3    0    0  0.26562023406E+02  0.13463387933E+02 -0.11778989140E+02  0.32024185972E+02  0.00000000000E+00 0. -1.
<mgrwt>
<rscale>  0 0.91063188E+02</rscale>
<asrwt>0</asrwt>
<pdfrwt beam="2">  1        3 0.38366563E-02 0.91063188E+02</pdfrwt>
<pdfrwt beam="1">  1       -3 0.12789280E-01 0.91063188E+02</pdfrwt>
<totfact> 0.34200558E+04</totfact>
</mgrwt>
</event>
<event>
 5    1  0.6113696E+000  0.9096200E+02  0.7546771E-02  0.1300539E+00
          4   -1    0    0  501    0  0.00000000000E+00  0.00000000000E+00  0.46218633073E+02  0.46218633073E+02  0.00000000000E+00 0. -1.
         -4   -1    0    0    0  501 -0.00000000000E+00 -0.00000000000E+00 -0.44755134507E+02  0.44755134507E+02  0.00000000000E+00 0.  1.
         23    2    1    2    0    0  0.00000000000E+00  0.00000000000E+00  0.14634985659E+01  0.90973767580E+02  0.90961995139E+02 0.  0.
        -13    1    3    3    0    0  0.10135848963E+02  0.31221660329E+02  0.32215874813E+02  0.45993370152E+02  0.00000000000E+00 0. -1.
         13    1    3    3    0    0 -0.10135848963E+02 -0.31221660329E+02 -0.30752376247E+02  0.44980397428E+02  0.00000000000E+00 0.  1.
<mgrwt>
<rscale>  0 0.90961995E+02</rscale>
<asrwt>0</asrwt>
<pdfrwt beam="1">  1        4 0.71105589E-02 0.90961995E+02</pdfrwt>
<pdfrwt beam="2">  1       -4 0.68854053E-02 0.90961995E+02</pdfrwt>
<totfact> 0.27203064E+04</totfact>
</mgrwt>
</event>
<event>
 5    1  0.6113696E+000  0.9017729E+02  0.7546771E-02  0.1302423E+00
         -1   -1    0    0    0  501 -0.00000000000E+00  0.00000000000E+00  0.20396860296E+02  0.20396860296E+02  0.00000000000E+00 0.  1.
          1   -1    0    0  501    0  0.00000000000E+00 -0.00000000000E+00 -0.99671522360E+02  0.99671522360E+02  0.00000000000E+00 0. -1.
         23    2    1    2    0    0  0.00000000000E+00  0.00000000000E+00 -0.79274662064E+02  0.12006838266E+03  0.90177294639E+02 0.  0.
        -13    1    3    3    0    0  0.12133742174E+02  0.15113350028E+02  0.14567491735E+02  0.24245677216E+02  0.00000000000E+00 0.  1.
         13    1    3    3    0    0 -0.12133742174E+02 -0.15113350028E+02 -0.93842153799E+02  0.95822705440E+02  0.00000000000E+00 0. -1.
<mgrwt>
<rscale>  0 0.90177295E+02</rscale>
<asrwt>0</asrwt>
<pdfrwt beam="2">  1        1 0.15334081E-01 0.90177295E+02</pdfrwt>
<pdfrwt beam="1">  1       -1 0.31379784E-02 0.90177295E+02</pdfrwt>
<totfact> 0.10757509E+05</totfact>
</mgrwt>
</event>
<event>
 5    1  0.6113696E+000  0.9151544E+02  0.7546771E-02  0.1299223E+00
         -4   -1    0    0    0  501 -0.00000000000E+00  0.00000000000E+00  0.24361551058E+02  0.24361551058E+02  0.00000000000E+00 0.  1.
          4   -1    0    0  501    0  0.00000000000E+00 -0.00000000000E+00 -0.85945641766E+02  0.85945641766E+02  0.00000000000E+00 0. -1.
         23    2    1    2    0    0  0.00000000000E+00  0.00000000000E+00 -0.61584090708E+02  0.11030719282E+03  0.91515444382E+02 0.  0.
        -13    1    3    3    0    0  0.16019290201E+02 -0.26493972707E+02 -0.71403601130E+02  0.77826875196E+02  0.00000000000E+00 0. -1.
         13    1    3    3    0    0 -0.16019290201E+02  0.26493972707E+02  0.98195104223E+01  0.32480317629E+02  0.00000000000E+00 0.  1.
<mgrwt>
<rscale>  0 0.91515444E+02</rscale>
<asrwt>0</asrwt>
<pdfrwt beam="2">  1        4 0.13222406E-01 0.91515444E+02</pdfrwt>
<pdfrwt beam="1">  1       -4 0.37479309E-02 0.91515444E+02</pdfrwt>
<totfact> 0.25576178E+04</totfact>
</mgrwt>
</event>
<event>
 5    1  0.6113696E+000  0.9163872E+02  0.7546771E-02  0.1298931E+00
         -1   -1    0    0    0  501 -0.00000000000E+00  0.00000000000E+00  0.27311662986E+02  0.27311662986E+02  0.00000000000E+00 0.  1.
          1   -1    0    0  501    0  0.00000000000E+00 -0.00000000000E+00 -0.76868761240E+02  0.76868761240E+02  0.00000000000E+00 0. -1.
         23    2    1    2    0    0  0.00000000000E+00  0.00000000000E+00 -0.49557098253E+02  0.10418042423E+03  0.91638718916E+02 0.  0.
        -13    1    3    3    0    0 -0.40729472413E+02 -0.50228299443E+00 -0.48632888519E+02  0.63437371139E+02  0.00000000000E+00 0.  1.
         13    1    3    3    0    0  0.40729472413E+02  0.50228299443E+00 -0.92420973418E+00  0.40743053087E+02  0.00000000000E+00 0. -1.
<mgrwt>
<rscale>  0 0.91638719E+02</rscale>
<asrwt>0</asrwt>
<pdfrwt beam="2">  1        1 0.11825963E-01 0.91638719E+02</pdfrwt>
<pdfrwt beam="1">  1       -1 0.42017943E-02 0.91638719E+02</pdfrwt>
<totfact> 0.98731168E+04</totfact>
</mgrwt>
</event>
<event>
 5    1  0.6113696E+000  0.8974983E+02  0.7546771E-02  0.1303459E+00
          1   -1    0    0  501    0  0.00000000000E+00  0.00000000000E+00  0.17454956878E+03  0.17454956878E+03  0.00000000000E+00 0. -1.
         -1   -1    0    0    0  501 -0.00000000000E+00 -0.00000000000E+00 -0.11536883544E+02  0.11536883544E+02  0.00000000000E+00 0.  1.
         23    2    1    2    0    0  0.00000000000E+00  0.00000000000E+00  0.16301268523E+03  0.18608645232E+03  0.89749831146E+02 0.  0.
        -13    1    3    3    0    0  0.34510652935E+02  0.64636693275E+01  0.13944986949E+03  0.14380205244E+03  0.00000000000E+00 0. -1.
         13    1    3    3    0    0 -0.34510652935E+02 -0.64636693275E+01  0.23562815749E+02  0.42284399880E+02  0.00000000000E+00 0.  1.
<mgrwt>
<rscale>  0 0.89749831E+02</rscale>
<asrwt>0</asrwt>
<pdfrwt beam="1">  1        1 0.26853778E-01 0.89749831E+02</pdfrwt>
<pdfrwt beam="2">  1       -1 0.17749053E-02 0.89749831E+02</pdfrwt>
<totfact> 0.12033897E+05</totfact>
</mgrwt>
</event>
<event>
 5    1  0.6113696E+000  0.8859234E+02  0.7546771E-02  0.1306297E+00
         -1   -1    0    0    0  501 -0.00000000000E+00  0.00000000000E+00  0.30377633625E+03  0.30377633625E+03  0.00000000000E+00 0.  1.
          1   -1    0    0  501    0  0.00000000000E+00 -0.00000000000E+00 -0.64591959972E+01  0.64591959972E+01  0.00000000000E+00 0. -1.
         23    2    1    2    0    0  0.00000000000E+00  0.00000000000E+00  0.29731714025E+03  0.31023553225E+03  0.88592344932E+02 0.  0.
        -13    1    3    3    0    0  0.30710364823E+02 -0.29055431983E+02  0.19495780678E+03  0.19948907504E+03  0.00000000000E+00 0. -1.
         13    1    3    3    0    0 -0.30710364823E+02  0.29055431983E+02  0.10235933347E+03  0.11074645721E+03  0.00000000000E+00 0.  1.
<mgrwt>
<rscale>  0 0.88592345E+02</rscale>
<asrwt>0</asrwt>
<pdfrwt beam="2">  1        1 0.99372270E-03 0.88592345E+02</pdfrwt>
<pdfrwt beam="1">  1       -1 0.46734810E-01 0.88592345E+02</pdfrwt>
<totfact> 0.64988601E+04</totfact>
</mgrwt>
</event>
<event>
 5    1  0.6113696E+000  0.7636990E+02  0.7546771E-02  0.1339681E+00
          1   -1    0    0  501    0  0.00000000000E+00  0.00000000000E+00  0.71839455315E+01  0.71839455315E+01  0.00000000000E+00 0. -1.
         -1   -1    0    0    0  501 -0.00000000000E+00 -0.00000000000E+00 -0.20296512584E+03  0.20296512584E+03  0.00000000000E+00 0.  1.
         23    2    1    2    0    0  0.00000000000E+00  0.00000000000E+00 -0.19578118031E+03  0.21014907137E+03  0.76369900060E+02 0.  0.
        -13    1    3    3    0    0  0.11177201893E+02 -0.30591221999E+02 -0.15274166490E+03  0.15617544269E+03  0.00000000000E+00 0.  1.
         13    1    3    3    0    0 -0.11177201893E+02  0.30591221999E+02 -0.43039515409E+02  0.53973628674E+02  0.00000000000E+00 0. -1.
<mgrwt>
<rscale>  0 0.76369900E+02</rscale>
<asrwt>0</asrwt>
<pdfrwt beam="1">  1        1 0.11052224E-02 0.76369900E+02</pdfrwt>
<pdfrwt beam="2">  1       -1 0.31225403E-01 0.76369900E+02</pdfrwt>
<totfact> 0.10940542E+05</totfact>
</mgrwt>
</event>
<event>
 5    1  0.6113696E+000  0.9057681E+02  0.7546771E-02  0.1301461E+00
         -4   -1    0    0    0  501 -0.00000000000E+00  0.00000000000E+00  0.60281419727E+02  0.60281419727E+02  0.00000000000E+00 0.  1.
          4   -1    0    0  501    0  0.00000000000E+00 -0.00000000000E+00 -0.34024408903E+02  0.34024408903E+02  0.00000000000E+00 0. -1.
         23    2    1    2    0    0  0.00000000000E+00  0.00000000000E+00  0.26257010824E+02  0.94305828631E+02  0.90576811030E+02 0.  0.
        -13    1    3    3    0    0  0.31446706452E+02  0.26563581335E+02  0.32787610618E+02  0.52626482022E+02  0.00000000000E+00 0.  1.
         13    1    3    3    0    0 -0.31446706452E+02 -0.26563581335E+02 -0.65305997941E+01  0.41679346608E+02  0.00000000000E+00 0. -1.
<mgrwt>
<rscale>  0 0.90576811E+02</rscale>
<asrwt>0</asrwt>
<pdfrwt beam="2">  1        4 0.52345244E-02 0.90576811E+02</pdfrwt>
<pdfrwt beam="1">  1       -4 0.92740646E-02 0.90576811E+02</pdfrwt>
<totfact> 0.27299802E+04</totfact>
</mgrwt>
</event>
<event>
 5    1  0.6113696E+000  0.8898403E+02  0.7546771E-02  0.1305331E+00
         -1   -1    0    0    0  501 -0.00000000000E+00  0.00000000000E+00  0.81435175142E+01  0.81435175142E+01  0.00000000000E+00 0.  1.
          1   -1    0    0  501    0  0.00000000000E+00 -0.00000000000E+00 -0.24308160664E+03  0.24308160664E+03  0.00000000000E+00 0. -1.
         23    2    1    2    0    0  0.00000000000E+00  0.00000000000E+00 -0.23493808913E+03  0.25122512416E+03  0.88984028254E+02 0.  0.
        -13    1    3    3    0    0 -0.99085154558E+01  0.43317484687E+02 -0.12375431249E+03  0.13149035332E+03  0.00000000000E+00 0.  1.
         13    1    3    3    0    0  0.99085154558E+01 -0.43317484687E+02 -0.11118377664E+03  0.11973477083E+03  0.00000000000E+00 0. -1.
<mgrwt>
<rscale>  0 0.88984028E+02</rscale>
<asrwt>0</asrwt>
<pdfrwt beam="2">  1        1 0.37397169E-01 0.88984028E+02</pdfrwt>
<pdfrwt beam="1">  1       -1 0.12528489E-02 0.88984028E+02</pdfrwt>
<totfact> 0.13124794E+05</totfact>
</mgrwt>
</event>
<event>
 5    1  0.6113696E+000  0.8864736E+02  0.7546771E-02  0.1306161E+00
          1   -1    0    0  501    0  0.00000000000E+00  0.00000000000E+00  0.53013980684E+02  0.53013980684E+02  0.00000000000E+00 0. -1.
         -1   -1    0    0    0  501 -0.00000000000E+00 -0.00000000000E+00 -0.37057933132E+02  0.37057933132E+02  0.00000000000E+00 0.  1.
         23    2    1    2    0    0  0.00000000000E+00  0.00000000000E+00  0.15956047552E+02  0.90071913816E+02  0.88647358703E+02 0.  0.
        -13    1    3    3    0    0  0.38360206896E+02  0.22175855040E+02  0.91429785695E+01  0.45242326167E+02  0.00000000000E+00 0.  1.
         13    1    3    3    0    0 -0.38360206896E+02 -0.22175855040E+02  0.68130689820E+01  0.44829587649E+02  0.00000000000E+00 0. -1.
<mgrwt>
<rscale>  0 0.88647359E+02</rscale>
<asrwt>0</asrwt>
<pdfrwt beam="1">  1        1 0.81559970E-02 0.88647359E+02</pdfrwt>
<pdfrwt beam="2">  1       -1 0.57012205E-02 0.88647359E+02</pdfrwt>
<totfact> 0.10228474E+05</totfact>
</mgrwt>
</event>
<event>
 5    1  0.6113696E+000  0.9165058E+02  0.7546771E-02  0.1298903E+00
         -3   -1    0    0    0  501 -0.00000000000E+00  0.00000000000E+00  0.10039320517E+02  0.10039320517E+02  0.00000000000E+00 0.  1.
          3   -1    0    0  501    0  0.00000000000E+00 -0.00000000000E+00 -0.20917325421E+03  0.20917325421E+03  0.00000000000E+00 0. -1.
         23    2    1    2    0    0  0.00000000000E+00  0.00000000000E+00 -0.19913393369E+03  0.21921257473E+03  0.91650583034E+02 0.  0.
        -13    1    3    3    0    0 -0.76777252331E+00  0.33697345005E+02 -0.17382381140E+03  0.17706162189E+03  0.00000000000E+00 0. -1.
         13    1    3    3    0    0  0.76777252331E+00 -0.33697345005E+02 -0.25310122294E+02  0.42150952843E+02  0.00000000000E+00 0.  1.
<mgrwt>
<rscale>  0 0.91650583E+02</rscale>
<asrwt>0</asrwt>
<pdfrwt beam="2">  1        3 0.32180499E-01 0.91650583E+02</pdfrwt>
<pdfrwt beam="1">  1       -3 0.15445109E-02 0.91650583E+02</pdfrwt>
<totfact> 0.27152335E+04</totfact>
</mgrwt>
</event>
<event>
 5    1  0.6113696E+000  0.9099787E+02  0.7546771E-02  0.1300453E+00
          3   -1    0    0  501    0  0.00000000000E+00  0.00000000000E+00  0.81490332601E+02  0.81490332601E+02  0.00000000000E+00 0. -1.
         -3   -1    0    0    0  501 -0.00000000000E+00 -0.00000000000E+00 -0.25403662292E+02  0.25403662292E+02  0.00000000000E+00 0.  1.
         23    2    1    2    0    0  0.00000000000E+00  0.00000000000E+00  0.56086670309E+02  0.10689399489E+03  0.90997865678E+02 0.  0.
        -13    1    3    3    0    0 -0.61585194405E+00 -0.21307525448E+02  0.75261698297E+02  0.78222203657E+02  0.00000000000E+00 0. -1.
         13    1    3    3    0    0  0.61585194405E+00  0.21307525448E+02 -0.19175027989E+02  0.28671791236E+02  0.00000000000E+00 0.  1.
<mgrwt>
<rscale>  0 0.90997866E+02</rscale>
<asrwt>0</asrwt>
<pdfrwt beam="1">  1        3 0.12536974E-01 0.90997866E+02</pdfrwt>
<pdfrwt beam="2">  1       -3 0.39082558E-02 0.90997866E+02</pdfrwt>
<totfact> 0.34350546E+04</totfact>
</mgrwt>
</event>
<event>
 5    1  0.6113696E+000  0.8822901E+02  0.7546771E-02  0.1307198E+00
          4   -1    0    0  501    0  0.00000000000E+00  0.00000000000E+00  0.20087755947E+02  0.20087755947E+02  0.00000000000E+00 0. -1.
         -4   -1    0    0    0  501 -0.00000000000E+00 -0.00000000000E+00 -0.96879388019E+02  0.96879388019E+02  0.00000000000E+00 0.  1.
         23    2    1    2    0    0  0.00000000000E+00  0.00000000000E+00 -0.76791632072E+02  0.11696714397E+03  0.88229008899E+02 0.  0.
        -13    1    3    3    0    0 -0.32089609385E+02 -0.30265067266E+02 -0.39204588828E+02  0.59014550004E+02  0.00000000000E+00 0. -1.
         13    1    3    3    0    0  0.32089609385E+02  0.30265067266E+02 -0.37587043244E+02  0.57952593962E+02  0.00000000000E+00 0.  1.
<mgrwt>
<rscale>  0 0.88229009E+02</rscale>
<asrwt>0</asrwt>
<pdfrwt beam="1">  1        4 0.30904240E-02 0.88229009E+02</pdfrwt>
<pdfrwt beam="2">  1       -4 0.14904521E-01 0.88229009E+02</pdfrwt>
<totfact> 0.27799676E+04</totfact>
</mgrwt>
</event>
<event>
 5    1  0.6113696E+000  0.9132500E+02  0.7546771E-02  0.1299674E+00
          2   -1    0    0  501    0  0.00000000000E+00  0.00000000000E+00  0.18998481013E+03  0.18998481013E+03  0.00000000000E+00 0. -1.
         -2   -1    0    0    0  501 -0.00000000000E+00 -0.00000000000E+00 -0.10974898548E+02  0.10974898548E+02  0.00000000000E+00 0.  1.
         23    2    1    2    0    0  0.00000000000E+00  0.00000000000E+00  0.17900991159E+03  0.20095970868E+03  0.91325002421E+02 0.  0.
        -13    1    3    3    0    0 -0.56466904680E+00  0.33789026711E+02  0.21929974822E+02  0.40285741558E+02  0.00000000000E+00 0.  1.
         13    1    3    3    0    0  0.56466904680E+00 -0.33789026711E+02  0.15707993676E+03  0.16067396712E+03  0.00000000000E+00 0. -1.
<mgrwt>
<rscale>  0 0.91325002E+02</rscale>
<asrwt>0</asrwt>
<pdfrwt beam="1">  1        2 0.29228430E-01 0.91325002E+02</pdfrwt>
<pdfrwt beam="2">  1       -2 0.16884461E-02 0.91325002E+02</pdfrwt>
<totfact> 0.15118028E+05</totfact>
</mgrwt>
</event>
<event>
 5    1  0.6113696E+000  0.8952564E+02  0.7546771E-02  0.1304005E+00
         -2   -1    0    0    0  501 -0.00000000000E+00  0.00000000000E+00  0.36561920006E+02  0.36561920006E+02  0.00000000000E+00 0.  1.
          2   -1    0    0  501    0  0.00000000000E+00 -0.00000000000E+00 -0.54803191089E+02  0.54803191089E+02  0.00000000000E+00 0. -1.
         23    2    1    2    0    0  0.00000000000E+00  0.00000000000E+00 -0.18241271083E+02  0.91365111095E+02  0.89525636299E+02 0.  0.
        -13    1    3    3    0    0  0.27547574881E+02 -0.25051362096E+02  0.16234775083E+02  0.40620284916E+02  0.00000000000E+00 0.  1.
         13    1    3    3    0    0 -0.27547574881E+02  0.25051362096E+02 -0.34476046166E+02  0.50744826179E+02  0.00000000000E+00 0. -1.
<mgrwt>
<rscale>  0 0.89525636E+02</rscale>
<asrwt>0</asrwt>
<pdfrwt beam="2">  1        2 0.84312601E-02 0.89525636E+02</pdfrwt>
<pdfrwt beam="1">  1       -2 0.56249108E-02 0.89525636E+02</pdfrwt>
<totfact> 0.10903546E+05</totfact>
</mgrwt>
</event>
<event>
 5    1  0.6113696E+000  0.9097635E+02  0.7546771E-02  0.1300504E+00
         -2   -1    0    0    0  501 -0.00000000000E+00  0.00000000000E+00  0.89003713942E+02  0.89003713942E+02  0.00000000000E+00 0.  1.
          2   -1    0    0  501    0  0.00000000000E+00 -0.00000000000E+00 -0.23248178850E+02  0.23248178850E+02  0.00000000000E+00 0. -1.
         23    2    1    2    0    0  0.00000000000E+00  0.00000000000E+00  0.65755535092E+02  0.11225189279E+03  0.90976354291E+02 0.  0.
        -13    1    3    3    0    0  0.22826303066E+02  0.19972911215E+02 -0.89501417873E+01  0.31623762143E+02  0.00000000000E+00 0. -1.
         13    1    3    3    0    0 -0.22826303066E+02 -0.19972911215E+02  0.74705676879E+02  0.80628130649E+02  0.00000000000E+00 0.  1.
<mgrwt>
<rscale>  0 0.90976354E+02</rscale>
<asrwt>0</asrwt>
<pdfrwt beam="2">  1        2 0.35766430E-02 0.90976354E+02</pdfrwt>
<pdfrwt beam="1">  1       -2 0.13692879E-01 0.90976354E+02</pdfrwt>
<totfact> 0.83018241E+04</totfact>
</mgrwt>
</event>
<event>
 5    1  0.6113696E+000  0.9023306E+02  0.7546771E-02  0.1302288E+00
          2   -1    0    0  501    0  0.00000000000E+00  0.00000000000E+00  0.15407522088E+03  0.15407522088E+03  0.00000000000E+00 0. -1.
         -2   -1    0    0    0  501 -0.00000000000E+00 -0.00000000000E+00 -0.13211087632E+02  0.13211087632E+02  0.00000000000E+00 0.  1.
         23    2    1    2    0    0  0.00000000000E+00  0.00000000000E+00  0.14086413325E+03  0.16728630852E+03  0.90233059240E+02 0.  0.
        -13    1    3    3    0    0  0.10738183555E+02 -0.27989741945E+02  0.79248089872E+01  0.31008657464E+02  0.00000000000E+00 0.  1.
         13    1    3    3    0    0 -0.10738183555E+02  0.27989741945E+02  0.13293932426E+03  0.13627765105E+03  0.00000000000E+00 0. -1.
<mgrwt>
<rscale>  0 0.90233059E+02</rscale>
<asrwt>0</asrwt>
<pdfrwt beam="1">  1        2 0.23703879E-01 0.90233059E+02</pdfrwt>
<pdfrwt beam="2">  1       -2 0.20324751E-02 0.90233059E+02</pdfrwt>
<totfact> 0.14512732E+05</totfact>
</mgrwt>
</event>
<event>
 5    1  0.6113696E+000  0.8906488E+02  0.7546771E-02  0.1305132E+00
          1   -1    0    0  501    0  0.00000000000E+00  0.00000000000E+00  0.14589015028E+03  0.14589015028E+03  0.00000000000E+00 0. -1.
         -1   -1    0    0    0  501 -0.00000000000E+00 -0.00000000000E+00 -0.13593364564E+02  0.13593364564E+02  0.00000000000E+00 0.  1.
         23    2    1    2    0    0  0.00000000000E+00  0.00000000000E+00  0.13229678571E+03  0.15948351484E+03  0.89064875211E+02 0.  0.
        -13    1    3    3    0    0  0.25037414382E+02 -0.30266960752E+02  0.28579967579E+02  0.48577521334E+02  0.00000000000E+00 0.  1.
         13    1    3    3    0    0 -0.25037414382E+02  0.30266960752E+02  0.10371681814E+03  0.11090599351E+03  0.00000000000E+00 0. -1.
<mgrwt>
<rscale>  0 0.89064875E+02</rscale>
<asrwt>0</asrwt>
<pdfrwt beam="1">  1        1 0.22444637E-01 0.89064875E+02</pdfrwt>
<pdfrwt beam="2">  1       -1 0.20912870E-02 0.89064875E+02</pdfrwt>
<totfact> 0.11883332E+05</totfact>
</mgrwt>
</event>
<event>
 5    1  0.6113696E+000  0.9338861E+02  0.7546771E-02  0.1294847E+00
         -1   -1    0    0    0  501 -0.00000000000E+00  0.00000000000E+00  0.14758805618E+03  0.14758805618E+03  0.00000000000E+00 0.  1.
          1   -1    0    0  501    0  0.00000000000E+00 -0.00000000000E+00 -0.14773269699E+02  0.14773269699E+02  0.00000000000E+00 0. -1.
         23    2    1    2    0    0  0.00000000000E+00  0.00000000000E+00  0.13281478648E+03  0.16236132587E+03  0.93388610832E+02 0.  0.
        -13    1    3    3    0    0  0.14171669305E+02 -0.28147934208E+02  0.65037138740E+01  0.32178264485E+02  0.00000000000E+00 0. -1.
         13    1    3    3    0    0 -0.14171669305E+02  0.28147934208E+02  0.12631107260E+03  0.13018306139E+03  0.00000000000E+00 0.  1.
<mgrwt>
<rscale>  0 0.93388611E+02</rscale>
<asrwt>0</asrwt>
<pdfrwt beam="2">  1        1 0.22728108E-02 0.93388611E+02</pdfrwt>
<pdfrwt beam="1">  1       -1 0.22705854E-01 0.93388611E+02</pdfrwt>
<totfact> 0.70538256E+04</totfact>
</mgrwt>
</event>
<event>
 5    1  0.6113696E+000  0.8407495E+02  0.7546771E-02  0.1317870E+00
         -2   -1    0    0    0  501 -0.00000000000E+00  0.00000000000E+00  0.26693674420E+03  0.26693674420E+03  0.00000000000E+00 0.  1.
          2   -1    0    0  501    0  0.00000000000E+00 -0.00000000000E+00 -0.66201048562E+01  0.66201048562E+01  0.00000000000E+00 0. -1.
         23    2    1    2    0    0  0.00000000000E+00  0.00000000000E+00  0.26031663935E+03  0.27355684906E+03  0.84074948388E+02 0.  0.
        -13    1    3    3    0    0  0.21724593172E+02  0.34656785660E+02  0.98595752201E+02  0.10674349204E+03  0.00000000000E+00 0.  1.
         13    1    3    3    0    0 -0.21724593172E+02 -0.34656785660E+02  0.16172088714E+03  0.16681335702E+03  0.00000000000E+00 0. -1.
<mgrwt>
<rscale>  0 0.84074948E+02</rscale>
<asrwt>0</asrwt>
<pdfrwt beam="2">  1        2 0.10184779E-02 0.84074948E+02</pdfrwt>
<pdfrwt beam="1">  1       -2 0.41067183E-01 0.84074948E+02</pdfrwt>
<totfact> 0.66885258E+04</totfact>
</mgrwt>
</event>
<event>
 5    1  0.6113696E+000  0.8930163E+02  0.7546771E-02  0.1304552E+00
          1   -1    0    0  501    0  0.00000000000E+00  0.00000000000E+00  0.18149608431E+03  0.18149608431E+03  0.00000000000E+00 0. -1.
         -1   -1    0    0    0  501 -0.00000000000E+00 -0.00000000000E+00 -0.10984783796E+02  0.10984783796E+02  0.00000000000E+00 0.  1.
         23    2    1    2    0    0  0.00000000000E+00  0.00000000000E+00  0.17051130052E+03  0.19248086811E+03  0.89301629234E+02 0.  0.
        -13    1    3    3    0    0  0.41509291787E+02  0.12115166171E+02  0.10924718542E+03  0.11749360016E+03  0.00000000000E+00 0. -1.
         13    1    3    3    0    0 -0.41509291787E+02 -0.12115166171E+02  0.61264115098E+02  0.74987267951E+02  0.00000000000E+00 0.  1.
<mgrwt>
<rscale>  0 0.89301629E+02</rscale>
<asrwt>0</asrwt>
<pdfrwt beam="1">  1        1 0.27922472E-01 0.89301629E+02</pdfrwt>
<pdfrwt beam="2">  1       -1 0.16899669E-02 0.89301629E+02</pdfrwt>
<totfact> 0.12287050E+05</totfact>
</mgrwt>
</event>
<event>
 5    1  0.6113696E+000  0.9146092E+02  0.7546771E-02  0.1299352E+00
          2   -1    0    0  501    0  0.00000000000E+00  0.00000000000E+00  0.53121668830E+01  0.53121668830E+01  0.00000000000E+00 0. -1.
         -2   -1    0    0    0  501 -0.00000000000E+00 -0.00000000000E+00 -0.39367645777E+03  0.39367645777E+03  0.00000000000E+00 0.  1.
         23    2    1    2    0    0  0.00000000000E+00  0.00000000000E+00 -0.38836429088E+03  0.39898862465E+03  0.91460921525E+02 0.  0.
        -13    1    3    3    0    0 -0.19304436869E+02 -0.41204947868E+02 -0.17430281837E+03  0.18014433520E+03  0.00000000000E+00 0. -1.
         13    1    3    3    0    0  0.19304436869E+02  0.41204947868E+02 -0.21406147251E+03  0.21884428945E+03  0.00000000000E+00 0.  1.
<mgrwt>
<rscale>  0 0.91460922E+02</rscale>
<asrwt>0</asrwt>
<pdfrwt beam="1">  1        2 0.81725647E-03 0.91460922E+02</pdfrwt>
<pdfrwt beam="2">  1       -2 0.60565607E-01 0.91460922E+02</pdfrwt>
<totfact> 0.42806936E+04</totfact>
</mgrwt>
</event>
<event>
 5    1  0.6113696E+000  0.8699786E+02  0.7546771E-02  0.1310289E+00
          1   -1    0    0  501    0  0.00000000000E+00  0.00000000000E+00  0.37203440839E+02  0.37203440839E+02  0.00000000000E+00 0. -1.
         -1   -1    0    0    0  501 -0.00000000000E+00 -0.00000000000E+00 -0.50859732359E+02  0.50859732359E+02  0.00000000000E+00 0.  1.
         23    2    1    2    0    0  0.00000000000E+00  0.00000000000E+00 -0.13656291520E+02  0.88063173199E+02  0.86997863053E+02 0.  0.
        -13    1    3    3    0    0  0.40390429196E+02  0.91627459012E+01  0.66318372931E+01  0.41944295786E+02  0.00000000000E+00 0. -1.
         13    1    3    3    0    0 -0.40390429196E+02 -0.91627459012E+01 -0.20288128813E+02  0.46118877413E+02  0.00000000000E+00 0.  1.
<mgrwt>
<rscale>  0 0.86997863E+02</rscale>
<asrwt>0</asrwt>
<pdfrwt beam="1">  1        1 0.57236063E-02 0.86997863E+02</pdfrwt>
<pdfrwt beam="2">  1       -1 0.78245742E-02 0.86997863E+02</pdfrwt>
<totfact> 0.10235623E+05</totfact>
</mgrwt>
</event>
<event>
 5    1  0.6113696E+000  0.9092026E+02  0.7546771E-02  0.1300638E+00
          1   -1    0    0  501    0  0.00000000000E+00  0.00000000000E+00  0.13131338607E+03  0.13131338607E+03  0.00000000000E+00 0. -1.
         -1   -1    0    0    0  501 -0.00000000000E+00 -0.00000000000E+00 -0.15738101574E+02  0.15738101574E+02  0.00000000000E+00 0.  1.
         23    2    1    2    0    0  0.00000000000E+00  0.00000000000E+00  0.11557528449E+03  0.14705148764E+03  0.90920259743E+02 0.  0.
        -13    1    3    3    0    0  0.80068421351E+01  0.40926795346E+02  0.87057587185E+02  0.96530490440E+02  0.00000000000E+00 0. -1.
         13    1    3    3    0    0 -0.80068421351E+01 -0.40926795346E+02  0.28517697306E+02  0.50520997199E+02  0.00000000000E+00 0.  1.
<mgrwt>
<rscale>  0 0.90920260E+02</rscale>
<asrwt>0</asrwt>
<pdfrwt beam="1">  1        1 0.20202059E-01 0.90920260E+02</pdfrwt>
<pdfrwt beam="2">  1       -1 0.24212465E-02 0.90920260E+02</pdfrwt>
<totfact> 0.11030083E+05</totfact>
</mgrwt>
</event>
<event>
 5    1  0.6113696E+000  0.6196733E+02  0.7546771E-02  0.1389756E+00
          3   -1    0    0  501    0  0.00000000000E+00  0.00000000000E+00  0.46663495000E+02  0.46663495000E+02  0.00000000000E+00 0. -1.
         -3   -1    0    0    0  501 -0.00000000000E+00 -0.00000000000E+00 -0.20572556906E+02  0.20572556906E+02  0.00000000000E+00 0.  1.
         23    2    1    2    0    0  0.00000000000E+00  0.00000000000E+00  0.26090938095E+02  0.67236051906E+02  0.61967327079E+02 0.  0.
        -13    1    3    3    0    0 -0.25859108660E+00  0.30844805827E+02  0.98786681326E+01  0.32389149416E+02  0.00000000000E+00 0.  1.
         13    1    3    3    0    0  0.25859108660E+00 -0.30844805827E+02  0.16212269962E+02  0.34846902490E+02  0.00000000000E+00 0. -1.
<mgrwt>
<rscale>  0 0.61967327E+02</rscale>
<asrwt>0</asrwt>
<pdfrwt beam="1">  1        3 0.71789992E-02 0.61967327E+02</pdfrwt>
<pdfrwt beam="2">  1       -3 0.31650088E-02 0.61967327E+02</pdfrwt>
<totfact> 0.10438047E+05</totfact>
</mgrwt>
</event>
<event>
 5    1  0.6113696E+000  0.6510415E+02  0.7546771E-02  0.1377580E+00
         -1   -1    0    0    0  501 -0.00000000000E+00  0.00000000000E+00  0.26710569471E+02  0.26710569471E+02  0.00000000000E+00 0.  1.
          1   -1    0    0  501    0  0.00000000000E+00 -0.00000000000E+00 -0.39671097252E+02  0.39671097252E+02  0.00000000000E+00 0. -1.
         23    2    1    2    0    0  0.00000000000E+00  0.00000000000E+00 -0.12960527781E+02  0.66381666723E+02  0.65104150379E+02 0.  0.
        -13    1    3    3    0    0 -0.22999354507E+02 -0.22253752150E+02 -0.41048467461E+00  0.32005754016E+02  0.00000000000E+00 0. -1.
         13    1    3    3    0    0  0.22999354507E+02  0.22253752150E+02 -0.12550043106E+02  0.34375912707E+02  0.00000000000E+00 0.  1.
<mgrwt>
<rscale>  0 0.65104150E+02</rscale>
<asrwt>0</asrwt>
<pdfrwt beam="2">  1        1 0.61032457E-02 0.65104150E+02</pdfrwt>
<pdfrwt beam="1">  1       -1 0.41093184E-02 0.65104150E+02</pdfrwt>
<totfact> 0.22839748E+05</totfact>
</mgrwt>
</event>
<event>
 5    1  0.6113696E+000  0.8630488E+02  0.7546771E-02  0.1312055E+00
          4   -1    0    0  501    0  0.00000000000E+00  0.00000000000E+00  0.75230656649E+02  0.75230656649E+02  0.00000000000E+00 0. -1.
         -4   -1    0    0    0  501 -0.00000000000E+00 -0.00000000000E+00 -0.24752320028E+02  0.24752320028E+02  0.00000000000E+00 0.  1.
         23    2    1    2    0    0  0.00000000000E+00  0.00000000000E+00  0.50478336621E+02  0.99982976676E+02  0.86304884897E+02 0.  0.
        -13    1    3    3    0    0  0.16780988386E+02  0.39017787654E+02  0.34072875617E+02  0.54451356066E+02  0.00000000000E+00 0. -1.
         13    1    3    3    0    0 -0.16780988386E+02 -0.39017787654E+02  0.16405461004E+02  0.45531620610E+02  0.00000000000E+00 0.  1.
<mgrwt>
<rscale>  0 0.86304885E+02</rscale>
<asrwt>0</asrwt>
<pdfrwt beam="1">  1        4 0.11573947E-01 0.86304885E+02</pdfrwt>
<pdfrwt beam="2">  1       -4 0.38080493E-02 0.86304885E+02</pdfrwt>
<totfact> 0.30679913E+04</totfact>
</mgrwt>
</event>
<event>
 5    1  0.6113696E+000  0.9319191E+02  0.7546771E-02  0.1295301E+00
         -3   -1    0    0    0  501 -0.00000000000E+00  0.00000000000E+00  0.33239159145E+02  0.33239159145E+02  0.00000000000E+00 0.  1.
          3   -1    0    0  501    0  0.00000000000E+00 -0.00000000000E+00 -0.65320035911E+02  0.65320035911E+02  0.00000000000E+00 0. -1.
         23    2    1    2    0    0  0.00000000000E+00  0.00000000000E+00 -0.32080876766E+02  0.98559195056E+02  0.93191911001E+02 0.  0.
        -13    1    3    3    0    0  0.24119926047E+02 -0.30938337994E+00  0.26121845590E+02  0.35555834509E+02  0.00000000000E+00 0.  1.
         13    1    3    3    0    0 -0.24119926047E+02  0.30938337994E+00 -0.58202722356E+02  0.63003360547E+02  0.00000000000E+00 0. -1.
<mgrwt>
<rscale>  0 0.93191911E+02</rscale>
<asrwt>0</asrwt>
<pdfrwt beam="2">  1        3 0.10049236E-01 0.93191911E+02</pdfrwt>
<pdfrwt beam="1">  1       -3 0.51137168E-02 0.93191911E+02</pdfrwt>
<totfact> 0.32763448E+04</totfact>
</mgrwt>
</event>
<event>
 5    1  0.6113696E+000  0.5643052E+02  0.7546771E-02  0.1413452E+00
         -4   -1    0    0    0  501 -0.00000000000E+00  0.00000000000E+00  0.62555580356E+02  0.62555580356E+02  0.00000000000E+00 0.  1.
          4   -1    0    0  501    0  0.00000000000E+00 -0.00000000000E+00 -0.12726298849E+02  0.12726298849E+02  0.00000000000E+00 0. -1.
         23    2    1    2    0    0  0.00000000000E+00  0.00000000000E+00  0.49829281507E+02  0.75281879206E+02  0.56430524021E+02 0.  0.
        -13    1    3    3    0    0  0.26377722957E+02  0.87007033903E+01  0.31533328598E+02  0.42021867169E+02  0.00000000000E+00 0.  1.
         13    1    3    3    0    0 -0.26377722957E+02 -0.87007033903E+01  0.18295952909E+02  0.33260012037E+02  0.00000000000E+00 0. -1.
<mgrwt>
<rscale>  0 0.56430524E+02</rscale>
<asrwt>0</asrwt>
<pdfrwt beam="2">  1        4 0.19578922E-02 0.56430524E+02</pdfrwt>
<pdfrwt beam="1">  1       -4 0.96239353E-02 0.56430524E+02</pdfrwt>
<totfact> 0.98908729E+04</totfact>
</mgrwt>
</event>
<event>
 5    1  0.6113696E+000  0.8939868E+02  0.7546771E-02  0.1304314E+00
         -1   -1    0    0    0  501 -0.00000000000E+00  0.00000000000E+00  0.29661947518E+03  0.29661947518E+03  0.00000000000E+00 0.  1.
          1   -1    0    0  501    0  0.00000000000E+00 -0.00000000000E+00 -0.67360070264E+01  0.67360070264E+01  0.00000000000E+00 0. -1.
         23    2    1    2    0    0  0.00000000000E+00  0.00000000000E+00  0.28988346816E+03  0.30335548221E+03  0.89398677149E+02 0.  0.
        -13    1    3    3    0    0  0.22175922439E+02  0.31604025853E+02  0.22138076879E+03  0.22472211902E+03  0.00000000000E+00 0.  1.
         13    1    3    3    0    0 -0.22175922439E+02 -0.31604025853E+02  0.68502699365E+02  0.78633363190E+02  0.00000000000E+00 0. -1.
<mgrwt>
<rscale>  0 0.89398677E+02</rscale>
<asrwt>0</asrwt>
<pdfrwt beam="2">  1        1 0.10363090E-02 0.89398677E+02</pdfrwt>
<pdfrwt beam="1">  1       -1 0.45633755E-01 0.89398677E+02</pdfrwt>
<totfact> 0.64068299E+04</totfact>
</mgrwt>
</event>
<event>
 5    1  0.6113696E+000  0.9238372E+02  0.7546771E-02  0.1297180E+00
         -2   -1    0    0    0  501 -0.00000000000E+00  0.00000000000E+00  0.47000179507E+01  0.47000179507E+01  0.00000000000E+00 0.  1.
          2   -1    0    0  501    0  0.00000000000E+00 -0.00000000000E+00 -0.45397441229E+03  0.45397441229E+03  0.00000000000E+00 0. -1.
         23    2    1    2    0    0  0.00000000000E+00  0.00000000000E+00 -0.44927439434E+03  0.45867443024E+03  0.92383719062E+02 0.  0.
        -13    1    3    3    0    0 -0.39671487954E+02  0.23292291649E+02 -0.20396867740E+03  0.20909227428E+03  0.00000000000E+00 0.  1.
         13    1    3    3    0    0  0.39671487954E+02 -0.23292291649E+02 -0.24530571695E+03  0.24958215596E+03  0.00000000000E+00 0. -1.
<mgrwt>
<rscale>  0 0.92383719E+02</rscale>
<asrwt>0</asrwt>
<pdfrwt beam="2">  1        2 0.69842197E-01 0.92383719E+02</pdfrwt>
<pdfrwt beam="1">  1       -2 0.72307989E-03 0.92383719E+02</pdfrwt>
<totfact> 0.20151235E+05</totfact>
</mgrwt>
</event>
<event>
 4    1  0.6113696E+000  0.1436911E+03  0.7546771E-02  0.1208447E+00
         -3   -1    0    0    0  501 -0.00000000000E+00  0.00000000000E+00  0.15057752941E+03  0.15057752941E+03  0.00000000000E+00 0.  1.
          3   -1    0    0  501    0  0.00000000000E+00 -0.00000000000E+00 -0.34279918641E+02  0.34279918641E+02  0.00000000000E+00 0. -1.
        -13    1    1    2    0    0 -0.54080988389E+01 -0.43865196349E+02  0.13101902030E+03  0.13827287032E+03  0.00000000000E+00 0.  1.
         13    1    1    2    0    0  0.54080988389E+01  0.43865196349E+02 -0.14721409538E+02  0.46584577733E+02  0.00000000000E+00 0. -1.
<mgrwt>
<rscale>  0 0.14369113E+03</rscale>
<asrwt>0</asrwt>
<pdfrwt beam="2">  1        3 0.52738337E-02 0.14369113E+03</pdfrwt>
<pdfrwt beam="1">  1       -3 0.23165773E-01 0.14369113E+03</pdfrwt>
<totfact> 0.82805045E+03</totfact>
</mgrwt>
</event>
<event>
 5    1  0.6113696E+000  0.9741721E+02  0.7546771E-02  0.1285823E+00
          1   -1    0    0  501    0  0.00000000000E+00  0.00000000000E+00  0.16619871699E+02  0.16619871699E+02  0.00000000000E+00 0. -1.
         -1   -1    0    0    0  501 -0.00000000000E+00 -0.00000000000E+00 -0.14275250690E+03  0.14275250690E+03  0.00000000000E+00 0.  1.
         23    2    1    2    0    0  0.00000000000E+00  0.00000000000E+00 -0.12613263520E+03  0.15937237860E+03  0.97417213046E+02 0.  0.
        -13    1    3    3    0    0 -0.39429959947E+01  0.46806908077E+02 -0.41982222618E+02  0.62999530769E+02  0.00000000000E+00 0.  1.
         13    1    3    3    0    0  0.39429959947E+01 -0.46806908077E+02 -0.84150412581E+02  0.96372847829E+02  0.00000000000E+00 0. -1.
<mgrwt>
<rscale>  0 0.97417213E+02</rscale>
<asrwt>0</asrwt>
<pdfrwt beam="1">  1        1 0.25569033E-02 0.97417213E+02</pdfrwt>
<pdfrwt beam="2">  1       -1 0.21961925E-01 0.97417213E+02</pdfrwt>
<totfact> 0.63688756E+04</totfact>
</mgrwt>
</event>
<event>
 5    1  0.6113696E+000  0.9166829E+02  0.7546771E-02  0.1298861E+00
         -2   -1    0    0    0  501 -0.00000000000E+00  0.00000000000E+00  0.22000914359E+02  0.22000914359E+02  0.00000000000E+00 0.  1.
          2   -1    0    0  501    0  0.00000000000E+00 -0.00000000000E+00 -0.95485524783E+02  0.95485524783E+02  0.00000000000E+00 0. -1.
         23    2    1    2    0    0  0.00000000000E+00  0.00000000000E+00 -0.73484610424E+02  0.11748643914E+03  0.91668290117E+02 0.  0.
        -13    1    3    3    0    0 -0.21040633482E+02  0.91726839463E+00 -0.88916840625E+02  0.91376989365E+02  0.00000000000E+00 0. -1.
         13    1    3    3    0    0  0.21040633482E+02 -0.91726839463E+00  0.15432230202E+02  0.26109449776E+02  0.00000000000E+00 0.  1.
<mgrwt>
<rscale>  0 0.91668290E+02</rscale>
<asrwt>0</asrwt>
<pdfrwt beam="2">  1        2 0.14690081E-01 0.91668290E+02</pdfrwt>
<pdfrwt beam="1">  1       -2 0.33847561E-02 0.91668290E+02</pdfrwt>
<totfact> 0.11919080E+05</totfact>
</mgrwt>
</event>
<event>
 5    1  0.6113696E+000  0.9245553E+02  0.7546771E-02  0.1297012E+00
         -1   -1    0    0    0  501 -0.00000000000E+00  0.00000000000E+00  0.14474842555E+03  0.14474842555E+03  0.00000000000E+00 0.  1.
          1   -1    0    0  501    0  0.00000000000E+00 -0.00000000000E+00 -0.14763589379E+02  0.14763589379E+02  0.00000000000E+00 0. -1.
         23    2    1    2    0    0  0.00000000000E+00  0.00000000000E+00  0.12998483618E+03  0.15951201493E+03  0.92455531324E+02 0.  0.
        -13    1    3    3    0    0 -0.89341052423E+01  0.22449012238E+02 -0.30028010427E+01  0.24347344846E+02  0.00000000000E+00 0. -1.
         13    1    3    3    0    0  0.89341052423E+01 -0.22449012238E+02  0.13298763722E+03  0.13516467009E+03  0.00000000000E+00 0.  1.
<mgrwt>
<rscale>  0 0.92455531E+02</rscale>
<asrwt>0</asrwt>
<pdfrwt beam="2">  1        1 0.22713215E-02 0.92455531E+02</pdfrwt>
<pdfrwt beam="1">  1       -1 0.22268988E-01 0.92455531E+02</pdfrwt>
<totfact> 0.72729187E+04</totfact>
</mgrwt>
</event>
<event>
 5    1  0.6113696E+000  0.8669029E+02  0.7546771E-02  0.1311071E+00
          1   -1    0    0  501    0  0.00000000000E+00  0.00000000000E+00  0.69972632789E+02  0.69972632789E+02  0.00000000000E+00 0. -1.
         -1   -1    0    0    0  501 -0.00000000000E+00 -0.00000000000E+00 -0.26850520516E+02  0.26850520516E+02  0.00000000000E+00 0.  1.
         23    2    1    2    0    0  0.00000000000E+00  0.00000000000E+00  0.43122112272E+02  0.96823153305E+02  0.86690290397E+02 0.  0.
        -13    1    3    3    0    0 -0.33921160874E+02  0.26063731924E+02  0.29366348791E+02  0.51887818591E+02  0.00000000000E+00 0.  1.
         13    1    3    3    0    0  0.33921160874E+02 -0.26063731924E+02  0.13755763481E+02  0.44935334713E+02  0.00000000000E+00 0. -1.
<mgrwt>
<rscale>  0 0.86690290E+02</rscale>
<asrwt>0</asrwt>
<pdfrwt beam="1">  1        1 0.10765020E-01 0.86690290E+02</pdfrwt>
<pdfrwt beam="2">  1       -1 0.41308493E-02 0.86690290E+02</pdfrwt>
<totfact> 0.11332197E+05</totfact>
</mgrwt>
</event>
<event>
 5    1  0.6113696E+000  0.8741235E+02  0.7546771E-02  0.1309242E+00
         -4   -1    0    0    0  501 -0.00000000000E+00  0.00000000000E+00  0.16890525437E+02  0.16890525437E+02  0.00000000000E+00 0. -1.
          4   -1    0    0  501    0  0.00000000000E+00 -0.00000000000E+00 -0.11309474189E+03  0.11309474189E+03  0.00000000000E+00 0.  1.
         23    2    1    2    0    0  0.00000000000E+00  0.00000000000E+00 -0.96204216452E+02  0.12998526733E+03  0.87412347289E+02 0.  0.
        -13    1    3    3    0    0 -0.12385328974E+02 -0.18357344085E+02 -0.10413476694E+03  0.10646331829E+03  0.00000000000E+00 0.  1.
         13    1    3    3    0    0  0.12385328974E+02  0.18357344085E+02  0.79305504838E+01  0.23521949040E+02  0.00000000000E+00 0. -1.
<mgrwt>
<rscale>  0 0.87412347E+02</rscale>
<asrwt>0</asrwt>
<pdfrwt beam="2">  1        4 0.17399191E-01 0.87412347E+02</pdfrwt>
<pdfrwt beam="1">  1       -4 0.25985423E-02 0.87412347E+02</pdfrwt>
<totfact> 0.27681573E+04</totfact>
</mgrwt>
</event>
<event>
 5    1  0.6113696E+000  0.9329690E+02  0.7546771E-02  0.1295059E+00
          1   -1    0    0  501    0  0.00000000000E+00  0.00000000000E+00  0.32052030815E+02  0.32052030815E+02  0.00000000000E+00 0. -1.
         -1   -1    0    0    0  501 -0.00000000000E+00 -0.00000000000E+00 -0.67892040167E+02  0.67892040167E+02  0.00000000000E+00 0.  1.
         23    2    1    2    0    0  0.00000000000E+00  0.00000000000E+00 -0.35840009352E+02  0.99944070982E+02  0.93296897345E+02 0.  0.
        -13    1    3    3    0    0 -0.19395549104E+02 -0.27322235662E+02 -0.52688314566E+02  0.62439974203E+02  0.00000000000E+00 0.  1.
         13    1    3    3    0    0  0.19395549104E+02  0.27322235662E+02  0.16848305215E+02  0.37504096779E+02  0.00000000000E+00 0. -1.
<mgrwt>
<rscale>  0 0.93296897E+02</rscale>
<asrwt>0</asrwt>
<pdfrwt beam="1">  1        1 0.49310817E-02 0.93296897E+02</pdfrwt>
<pdfrwt beam="2">  1       -1 0.10444929E-01 0.93296897E+02</pdfrwt>
<totfact> 0.82016305E+04</totfact>
</mgrwt>
</event>
<event>
 5    1  0.6113696E+000  0.9022460E+02  0.7546771E-02  0.1302309E+00
         -2   -1    0    0    0  501 -0.00000000000E+00  0.00000000000E+00  0.58493564791E+02  0.58493564791E+02  0.00000000000E+00 0.  1.
          2   -1    0    0  501    0  0.00000000000E+00 -0.00000000000E+00 -0.34792196298E+02  0.34792196298E+02  0.00000000000E+00 0. -1.
         23    2    1    2    0    0  0.00000000000E+00  0.00000000000E+00  0.23701368493E+02  0.93285761089E+02  0.90224599492E+02 0.  0.
        -13    1    3    3    0    0  0.25356779930E+02  0.18594606198E+02  0.45296207904E+02  0.55140476227E+02  0.00000000000E+00 0.  1.
         13    1    3    3    0    0 -0.25356779930E+02 -0.18594606198E+02 -0.21594839411E+02  0.38145284862E+02  0.00000000000E+00 0. -1.
<mgrwt>
<rscale>  0 0.90224599E+02</rscale>
<asrwt>0</asrwt>
<pdfrwt beam="2">  1        2 0.53526456E-02 0.90224599E+02</pdfrwt>
<pdfrwt beam="1">  1       -2 0.89990100E-02 0.90224599E+02</pdfrwt>
<totfact> 0.94862369E+04</totfact>
</mgrwt>
</event>
<event>
 5    1  0.6113696E+000  0.9034584E+02  0.7546771E-02  0.1302016E+00
          1   -1    0    0  501    0  0.00000000000E+00  0.00000000000E+00  0.69847157893E+02  0.69847157893E+02  0.00000000000E+00 0. -1.
         -1   -1    0    0    0  501 -0.00000000000E+00 -0.00000000000E+00 -0.29215115918E+02  0.29215115918E+02  0.00000000000E+00 0.  1.
         23    2    1    2    0    0  0.00000000000E+00  0.00000000000E+00  0.40632041975E+02  0.99062273811E+02  0.90345842502E+02 0.  0.
        -13    1    3    3    0    0  0.14683988097E+02 -0.31311655284E+02 -0.11548963862E+02  0.36461182501E+02  0.00000000000E+00 0.  1.
         13    1    3    3    0    0 -0.14683988097E+02  0.31311655284E+02  0.52181005837E+02  0.62601091310E+02  0.00000000000E+00 0. -1.
<mgrwt>
<rscale>  0 0.90345843E+02</rscale>
<asrwt>0</asrwt>
<pdfrwt beam="1">  1        1 0.10745717E-01 0.90345843E+02</pdfrwt>
<pdfrwt beam="2">  1       -1 0.44946332E-02 0.90345843E+02</pdfrwt>
<totfact> 0.10115283E+05</totfact>
</mgrwt>
</event>
<event>
 5    1  0.6113696E+000  0.9081628E+02  0.7546771E-02  0.1300887E+00
         -1   -1    0    0    0  501 -0.00000000000E+00  0.00000000000E+00  0.19476309113E+03  0.19476309113E+03  0.00000000000E+00 0.  1.
          1   -1    0    0  501    0  0.00000000000E+00 -0.00000000000E+00 -0.10586704450E+02  0.10586704450E+02  0.00000000000E+00 0. -1.
         23    2    1    2    0    0  0.00000000000E+00  0.00000000000E+00  0.18417638668E+03  0.20534979558E+03  0.90816282318E+02 0.  0.
        -13    1    3    3    0    0 -0.33469968712E+02  0.26728330983E+02  0.58001176151E+02  0.72102558329E+02  0.00000000000E+00 0. -1.
         13    1    3    3    0    0  0.33469968712E+02 -0.26728330983E+02  0.12617521053E+03  0.13324723725E+03  0.00000000000E+00 0.  1.
<mgrwt>
<rscale>  0 0.90816282E+02</rscale>
<asrwt>0</asrwt>
<pdfrwt beam="2">  1        1 0.16287239E-02 0.90816282E+02</pdfrwt>
<pdfrwt beam="1">  1       -1 0.29963550E-01 0.90816282E+02</pdfrwt>
<totfact> 0.70673893E+04</totfact>
</mgrwt>
</event>
<event>
 5    1  0.6113696E+000  0.9166631E+02  0.7546771E-02  0.1298866E+00
         -1   -1    0    0    0  501 -0.00000000000E+00  0.00000000000E+00  0.27194572646E+02  0.27194572646E+02  0.00000000000E+00 0.  1.
          1   -1    0    0  501    0  0.00000000000E+00 -0.00000000000E+00 -0.77246223675E+02  0.77246223675E+02  0.00000000000E+00 0. -1.
         23    2    1    2    0    0  0.00000000000E+00  0.00000000000E+00 -0.50051651029E+02  0.10444079632E+03  0.91666308780E+02 0.  0.
        -13    1    3    3    0    0 -0.14551290823E+02 -0.41914926674E+02 -0.11931779517E+02  0.45945277289E+02  0.00000000000E+00 0.  1.
         13    1    3    3    0    0  0.14551290823E+02  0.41914926674E+02 -0.38119871512E+02  0.58495519032E+02  0.00000000000E+00 0. -1.
<mgrwt>
<rscale>  0 0.91666309E+02</rscale>
<asrwt>0</asrwt>
<pdfrwt beam="2">  1        1 0.11884035E-01 0.91666309E+02</pdfrwt>
<pdfrwt beam="1">  1       -1 0.41837804E-02 0.91666309E+02</pdfrwt>
<totfact> 0.98725365E+04</totfact>
</mgrwt>
</event>
<event>
 5    1  0.6113696E+000  0.8883055E+02  0.7546771E-02  0.1305709E+00
         -2   -1    0    0    0  501 -0.00000000000E+00  0.00000000000E+00  0.11102408957E+02  0.11102408957E+02  0.00000000000E+00 0. -1.
          2   -1    0    0  501    0  0.00000000000E+00 -0.00000000000E+00 -0.17768364813E+03  0.17768364813E+03  0.00000000000E+00 0.  1.
         23    2    1    2    0    0  0.00000000000E+00  0.00000000000E+00 -0.16658123917E+03  0.18878605708E+03  0.88830547144E+02 0.  0.
        -13    1    3    3    0    0 -0.18841171502E+02 -0.38873268944E+02 -0.10523268536E+03  0.11375429157E+03  0.00000000000E+00 0.  1.
         13    1    3    3    0    0  0.18841171502E+02  0.38873268944E+02 -0.61348553814E+02  0.75031765520E+02  0.00000000000E+00 0. -1.
<mgrwt>
<rscale>  0 0.88830547E+02</rscale>
<asrwt>0</asrwt>
<pdfrwt beam="2">  1        2 0.27335944E-01 0.88830547E+02</pdfrwt>
<pdfrwt beam="1">  1       -2 0.17080631E-02 0.88830547E+02</pdfrwt>
<totfact> 0.15905342E+05</totfact>
</mgrwt>
</event>
<event>
 4    1  0.6113696E+000  0.1997858E+03  0.7546771E-02  0.1149920E+00
          2   -1    0    0  501    0  0.00000000000E+00  0.00000000000E+00  0.60526833052E+02  0.60526833052E+02  0.00000000000E+00 0. -1.
         -2   -1    0    0    0  501 -0.00000000000E+00 -0.00000000000E+00 -0.16486224666E+03  0.16486224666E+03  0.00000000000E+00 0.  1.
        -13    1    1    2    0    0  0.17925933574E+02 -0.53038466630E+02 -0.14549931270E+03  0.15589890324E+03  0.00000000000E+00 0.  1.
         13    1    1    2    0    0 -0.17925933574E+02  0.53038466630E+02  0.41163899092E+02  0.69490176467E+02  0.00000000000E+00 0. -1.
<mgrwt>
<rscale>  0 0.19978578E+03</rscale>
<asrwt>0</asrwt>
<pdfrwt beam="1">  1        2 0.93118205E-02 0.19978578E+03</pdfrwt>
<pdfrwt beam="2">  1       -2 0.25363423E-01 0.19978578E+03</pdfrwt>
<totfact> 0.94087737E+03</totfact>
</mgrwt>
</event>
<event>
 5    1  0.6113696E+000  0.7807537E+02  0.7546771E-02  0.1334604E+00
         -4   -1    0    0    0  501 -0.00000000000E+00  0.00000000000E+00  0.12263990311E+03  0.12263990311E+03  0.00000000000E+00 0.  1.
          4   -1    0    0  501    0  0.00000000000E+00 -0.00000000000E+00 -0.12426140910E+02  0.12426140910E+02  0.00000000000E+00 0. -1.
         23    2    1    2    0    0  0.00000000000E+00  0.00000000000E+00  0.11021376220E+03  0.13506604402E+03  0.78075366596E+02 0.  0.
        -13    1    3    3    0    0 -0.14877618218E+01  0.30017136566E+02  0.98206417505E+02  0.10270220232E+03  0.00000000000E+00 0.  1.
         13    1    3    3    0    0  0.14877618218E+01 -0.30017136566E+02  0.12007344698E+02  0.32363841700E+02  0.00000000000E+00 0. -1.
<mgrwt>
<rscale>  0 0.78075367E+02</rscale>
<asrwt>0</asrwt>
<pdfrwt beam="2">  1        4 0.19117141E-02 0.78075367E+02</pdfrwt>
<pdfrwt beam="1">  1       -4 0.18867677E-01 0.78075367E+02</pdfrwt>
<totfact> 0.36955526E+04</totfact>
</mgrwt>
</event>
<event>
 5    1  0.6113696E+000  0.9070077E+02  0.7546771E-02  0.1301164E+00
          1   -1    0    0  501    0  0.00000000000E+00  0.00000000000E+00  0.22385184314E+02  0.22385184314E+02  0.00000000000E+00 0. -1.
         -1   -1    0    0    0  501 -0.00000000000E+00 -0.00000000000E+00 -0.91875829230E+02  0.91875829230E+02  0.00000000000E+00 0.  1.
         23    2    1    2    0    0  0.00000000000E+00  0.00000000000E+00 -0.69490644916E+02  0.11426101354E+03  0.90700768935E+02 0.  0.
        -13    1    3    3    0    0  0.36370074375E+02 -0.15015439892E+01 -0.68819863465E+02  0.77853776734E+02  0.00000000000E+00 0.  1.
         13    1    3    3    0    0 -0.36370074375E+02  0.15015439892E+01 -0.67078145111E+00  0.36407236811E+02  0.00000000000E+00 0. -1.
<mgrwt>
<rscale>  0 0.90700769E+02</rscale>
<asrwt>0</asrwt>
<pdfrwt beam="1">  1        1 0.34438745E-02 0.90700769E+02</pdfrwt>
<pdfrwt beam="2">  1       -1 0.14134743E-01 0.90700769E+02</pdfrwt>
<totfact> 0.83756482E+04</totfact>
</mgrwt>
</event>
<event>
 5    1  0.6113696E+000  0.9195315E+02  0.7546771E-02  0.1298190E+00
         -2   -1    0    0    0  501 -0.00000000000E+00  0.00000000000E+00  0.16037662686E+03  0.16037662686E+03  0.00000000000E+00 0.  1.
          2   -1    0    0  501    0  0.00000000000E+00 -0.00000000000E+00 -0.13180506918E+02  0.13180506918E+02  0.00000000000E+00 0. -1.
         23    2    1    2    0    0  0.00000000000E+00  0.00000000000E+00  0.14719611995E+03  0.17355713378E+03  0.91953145455E+02 0.  0.
        -13    1    3    3    0    0 -0.19518459797E+02  0.29319356618E+02  0.12937378828E+03  0.13408270596E+03  0.00000000000E+00 0.  1.
         13    1    3    3    0    0  0.19518459797E+02 -0.29319356618E+02  0.17822331668E+02  0.39474427816E+02  0.00000000000E+00 0. -1.
<mgrwt>
<rscale>  0 0.91953145E+02</rscale>
<asrwt>0</asrwt>
<pdfrwt beam="2">  1        2 0.20277704E-02 0.91953145E+02</pdfrwt>
<pdfrwt beam="1">  1       -2 0.24673326E-01 0.91953145E+02</pdfrwt>
<totfact> 0.66692674E+04</totfact>
</mgrwt>
</event>
<event>
 5    1  0.6113696E+000  0.1244412E+03  0.7546771E-02  0.1235945E+00
          1   -1    0    0  501    0  0.00000000000E+00  0.00000000000E+00  0.19886943341E+02  0.19886943341E+02  0.00000000000E+00 0. -1.
         -1   -1    0    0    0  501 -0.00000000000E+00 -0.00000000000E+00 -0.19467045579E+03  0.19467045579E+03  0.00000000000E+00 0.  1.
         23    2    1    2    0    0  0.00000000000E+00  0.00000000000E+00 -0.17478351245E+03  0.21455739913E+03  0.12444115596E+03 0.  0.
        -13    1    3    3    0    0 -0.11981462953E+02  0.32024930514E+02 -0.17701942845E+03  0.18029151305E+03  0.00000000000E+00 0.  1.
         13    1    3    3    0    0  0.11981462953E+02 -0.32024930514E+02  0.22359159955E+01  0.34265886086E+02  0.00000000000E+00 0. -1.
<mgrwt>
<rscale>  0 0.12444116E+03</rscale>
<asrwt>0</asrwt>
<pdfrwt beam="1">  1        1 0.30595298E-02 0.12444116E+03</pdfrwt>
<pdfrwt beam="2">  1       -1 0.29949301E-01 0.12444116E+03</pdfrwt>
<totfact> 0.30913176E+04</totfact>
</mgrwt>
</event>
<event>
 5    1  0.6113696E+000  0.9138594E+02  0.7546771E-02  0.1299530E+00
          2   -1    0    0  501    0  0.00000000000E+00  0.00000000000E+00  0.54058246402E+02  0.54058246402E+02  0.00000000000E+00 0. -1.
         -2   -1    0    0    0  501 -0.00000000000E+00 -0.00000000000E+00 -0.38622181747E+02  0.38622181747E+02  0.00000000000E+00 0.  1.
         23    2    1    2    0    0  0.00000000000E+00  0.00000000000E+00  0.15436064655E+02  0.92680428148E+02  0.91385938031E+02 0.  0.
        -13    1    3    3    0    0  0.22226331895E+02  0.63806366720E+01  0.47685982152E+02  0.52996936210E+02  0.00000000000E+00 0. -1.
         13    1    3    3    0    0 -0.22226331895E+02 -0.63806366720E+01 -0.32249917497E+02  0.39683491938E+02  0.00000000000E+00 0.  1.
<mgrwt>
<rscale>  0 0.91385938E+02</rscale>
<asrwt>0</asrwt>
<pdfrwt beam="1">  1        2 0.83166533E-02 0.91385938E+02</pdfrwt>
<pdfrwt beam="2">  1       -2 0.59418741E-02 0.91385938E+02</pdfrwt>
<totfact> 0.10249987E+05</totfact>
</mgrwt>
</event>
<event>
 5    1  0.6113696E+000  0.9070758E+02  0.7546771E-02  0.1301147E+00
          1   -1    0    0  501    0  0.00000000000E+00  0.00000000000E+00  0.39877869392E+02  0.39877869392E+02  0.00000000000E+00 0. -1.
         -1   -1    0    0    0  501 -0.00000000000E+00 -0.00000000000E+00 -0.51581648490E+02  0.51581648490E+02  0.00000000000E+00 0.  1.
         23    2    1    2    0    0  0.00000000000E+00  0.00000000000E+00 -0.11703779097E+02  0.91459517882E+02  0.90707579430E+02 0.  0.
        -13    1    3    3    0    0 -0.12876138016E+02 -0.39484010624E+02 -0.24228898486E+02  0.48081405419E+02  0.00000000000E+00 0.  1.
         13    1    3    3    0    0  0.12876138016E+02  0.39484010624E+02  0.12525119389E+02  0.43378112463E+02  0.00000000000E+00 0. -1.
<mgrwt>
<rscale>  0 0.90707579E+02</rscale>
<asrwt>0</asrwt>
<pdfrwt beam="1">  1        1 0.61350568E-02 0.90707579E+02</pdfrwt>
<pdfrwt beam="2">  1       -1 0.79356382E-02 0.90707579E+02</pdfrwt>
<totfact> 0.91951243E+04</totfact>
</mgrwt>
</event>
<event>
 5    1  0.6113696E+000  0.9029899E+02  0.7546771E-02  0.1302129E+00
          4   -1    0    0  501    0  0.00000000000E+00  0.00000000000E+00  0.78687788583E+02  0.78687788583E+02  0.00000000000E+00 0.  1.
         -4   -1    0    0    0  501 -0.00000000000E+00 -0.00000000000E+00 -0.25905885359E+02  0.25905885359E+02  0.00000000000E+00 0. -1.
         23    2    1    2    0    0  0.00000000000E+00  0.00000000000E+00  0.52781903224E+02  0.10459367394E+03  0.90298988482E+02 0.  0.
        -13    1    3    3    0    0 -0.21118116115E+02  0.46382743750E+01  0.72301134593E+02  0.75464842681E+02  0.00000000000E+00 0.  1.
         13    1    3    3    0    0  0.21118116115E+02 -0.46382743750E+01 -0.19519231369E+02  0.29128831261E+02  0.00000000000E+00 0. -1.
<mgrwt>
<rscale>  0 0.90298988E+02</rscale>
<asrwt>0</asrwt>
<pdfrwt beam="1">  1        4 0.12105814E-01 0.90298988E+02</pdfrwt>
<pdfrwt beam="2">  1       -4 0.39855209E-02 0.90298988E+02</pdfrwt>
<totfact> 0.26870191E+04</totfact>
</mgrwt>
</event>
<event>
 5    1  0.6113696E+000  0.9136010E+02  0.7546771E-02  0.1299591E+00
         -3   -1    0    0    0  501 -0.00000000000E+00  0.00000000000E+00  0.21426986084E+02  0.21426986084E+02  0.00000000000E+00 0.  1.
          3   -1    0    0  501    0  0.00000000000E+00 -0.00000000000E+00 -0.97384992814E+02  0.97384992814E+02  0.00000000000E+00 0. -1.
         23    2    1    2    0    0  0.00000000000E+00  0.00000000000E+00 -0.75958006731E+02  0.11881197890E+03  0.91360098200E+02 0.  0.
        -13    1    3    3    0    0 -0.17662992100E+02 -0.37062875223E+01  0.16593900606E+02  0.24516838998E+02  0.00000000000E+00 0.  1.
         13    1    3    3    0    0  0.17662992100E+02  0.37062875223E+01 -0.92551907337E+02  0.94295139900E+02  0.00000000000E+00 0. -1.
<mgrwt>
<rscale>  0 0.91360098E+02</rscale>
<asrwt>0</asrwt>
<pdfrwt beam="2">  1        3 0.14982307E-01 0.91360098E+02</pdfrwt>
<pdfrwt beam="1">  1       -3 0.32964594E-02 0.91360098E+02</pdfrwt>
<totfact> 0.33146132E+04</totfact>
</mgrwt>
</event>
<event>
 5    1  0.6113696E+000  0.9301833E+02  0.7546771E-02  0.1295703E+00
          3   -1    0    0  501    0  0.00000000000E+00  0.00000000000E+00  0.28752930839E+03  0.28752930839E+03  0.00000000000E+00 0. -1.
         -3   -1    0    0    0  501 -0.00000000000E+00 -0.00000000000E+00 -0.75230676030E+01  0.75230676030E+01  0.00000000000E+00 0.  1.
         23    2    1    2    0    0  0.00000000000E+00  0.00000000000E+00  0.28000624079E+03  0.29505237599E+03  0.93018329911E+02 0.  0.
        -13    1    3    3    0    0 -0.13504332974E+02 -0.39276268629E+02  0.73610129978E+02  0.84518894467E+02  0.00000000000E+00 0.  1.
         13    1    3    3    0    0  0.13504332974E+02  0.39276268629E+02  0.20639611081E+03  0.21053348152E+03  0.00000000000E+00 0. -1.
<mgrwt>
<rscale>  0 0.93018330E+02</rscale>
<asrwt>0</asrwt>
<pdfrwt beam="1">  1        3 0.44235270E-01 0.93018330E+02</pdfrwt>
<pdfrwt beam="2">  1       -3 0.11573952E-02 0.93018330E+02</pdfrwt>
<totfact> 0.22954847E+04</totfact>
</mgrwt>
</event>
<event>
 5    1  0.6113696E+000  0.9055522E+02  0.7546771E-02  0.1301513E+00
         -2   -1    0    0    0  501 -0.00000000000E+00  0.00000000000E+00  0.14574532011E+03  0.14574532011E+03  0.00000000000E+00 0.  1.
          2   -1    0    0  501    0  0.00000000000E+00 -0.00000000000E+00 -0.14066056671E+02  0.14066056671E+02  0.00000000000E+00 0. -1.
         23    2    1    2    0    0  0.00000000000E+00  0.00000000000E+00  0.13167926344E+03  0.15981137678E+03  0.90555219226E+02 0.  0.
        -13    1    3    3    0    0 -0.25124339730E+02  0.26436652703E+02  0.11319183712E+03  0.11892233198E+03  0.00000000000E+00 0.  1.
         13    1    3    3    0    0  0.25124339730E+02 -0.26436652703E+02  0.18487426321E+02  0.40889044804E+02  0.00000000000E+00 0. -1.
<mgrwt>
<rscale>  0 0.90555219E+02</rscale>
<asrwt>0</asrwt>
<pdfrwt beam="2">  1        2 0.21640088E-02 0.90555219E+02</pdfrwt>
<pdfrwt beam="1">  1       -2 0.22422356E-01 0.90555219E+02</pdfrwt>
<totfact> 0.71817517E+04</totfact>
</mgrwt>
</event>
<event>
 5    1  0.6113696E+000  0.8801633E+02  0.7546771E-02  0.1307728E+00
          4   -1    0    0  501    0  0.00000000000E+00  0.00000000000E+00  0.18865862441E+02  0.18865862441E+02  0.00000000000E+00 0. -1.
         -4   -1    0    0    0  501 -0.00000000000E+00 -0.00000000000E+00 -0.10265729707E+03  0.10265729707E+03  0.00000000000E+00 0.  1.
         23    2    1    2    0    0  0.00000000000E+00  0.00000000000E+00 -0.83791434631E+02  0.12152315951E+03  0.88016326783E+02 0.  0.
        -13    1    3    3    0    0  0.77812859101E+01  0.18809714568E+02 -0.95766732646E+02  0.97906183942E+02  0.00000000000E+00 0.  1.
         13    1    3    3    0    0 -0.77812859101E+01 -0.18809714568E+02  0.11975298015E+02  0.23616975570E+02  0.00000000000E+00 0. -1.
<mgrwt>
<rscale>  0 0.88016327E+02</rscale>
<asrwt>0</asrwt>
<pdfrwt beam="1">  1        4 0.29024403E-02 0.88016327E+02</pdfrwt>
<pdfrwt beam="2">  1       -4 0.15793431E-01 0.88016327E+02</pdfrwt>
<totfact> 0.27693769E+04</totfact>
</mgrwt>
</event>
<event>
 5    1  0.6113696E+000  0.8199166E+02  0.7546771E-02  0.1323493E+00
          1   -1    0    0  501    0  0.00000000000E+00  0.00000000000E+00  0.26377091724E+02  0.26377091724E+02  0.00000000000E+00 0. -1.
         -1   -1    0    0    0  501 -0.00000000000E+00 -0.00000000000E+00 -0.63716582292E+02  0.63716582292E+02  0.00000000000E+00 0.  1.
         23    2    1    2    0    0  0.00000000000E+00  0.00000000000E+00 -0.37339490567E+02  0.90093674016E+02  0.81991661417E+02 0.  0.
        -13    1    3    3    0    0  0.39683234700E+02 -0.90552056588E+01 -0.24041846443E+02  0.47273314313E+02  0.00000000000E+00 0. -1.
         13    1    3    3    0    0 -0.39683234700E+02  0.90552056588E+01 -0.13297644125E+02  0.42820359703E+02  0.00000000000E+00 0.  1.
<mgrwt>
<rscale>  0 0.81991661E+02</rscale>
<asrwt>0</asrwt>
<pdfrwt beam="1">  1        1 0.40580141E-02 0.81991661E+02</pdfrwt>
<pdfrwt beam="2">  1       -1 0.98025511E-02 0.81991661E+02</pdfrwt>
<totfact> 0.11501414E+05</totfact>
</mgrwt>
</event>
<event>
 5    1  0.6113696E+000  0.8981401E+02  0.7546771E-02  0.1303303E+00
         -2   -1    0    0    0  501 -0.00000000000E+00  0.00000000000E+00  0.55349132873E+02  0.55349132873E+02  0.00000000000E+00 0.  1.
          2   -1    0    0  501    0  0.00000000000E+00 -0.00000000000E+00 -0.36434879211E+02  0.36434879211E+02  0.00000000000E+00 0. -1.
         23    2    1    2    0    0  0.00000000000E+00  0.00000000000E+00  0.18914253662E+02  0.91784012084E+02  0.89814007163E+02 0.  0.
        -13    1    3    3    0    0  0.31154937531E+02 -0.32117770552E+02  0.13342850036E+02  0.46692750667E+02  0.00000000000E+00 0.  1.
         13    1    3    3    0    0 -0.31154937531E+02  0.32117770552E+02  0.55714036263E+01  0.45091261417E+02  0.00000000000E+00 0. -1.
<mgrwt>
<rscale>  0 0.89814007E+02</rscale>
<asrwt>0</asrwt>
<pdfrwt beam="2">  1        2 0.56053660E-02 0.89814007E+02</pdfrwt>
<pdfrwt beam="1">  1       -2 0.85152512E-02 0.89814007E+02</pdfrwt>
<totfact> 0.97279365E+04</totfact>
</mgrwt>
</event>
<event>
 5    1  0.6113696E+000  0.1018323E+03  0.7546771E-02  0.1276489E+00
         -4   -1    0    0    0  501 -0.00000000000E+00  0.00000000000E+00  0.17680293597E+03  0.17680293597E+03  0.00000000000E+00 0.  1.
          4   -1    0    0  501    0  0.00000000000E+00 -0.00000000000E+00 -0.14662948629E+02  0.14662948629E+02  0.00000000000E+00 0. -1.
         23    2    1    2    0    0  0.00000000000E+00  0.00000000000E+00  0.16213998735E+03  0.19146588460E+03  0.10183226144E+03 0.  0.
        -13    1    3    3    0    0 -0.39314300448E+01  0.33962442564E+02  0.15201015663E+03  0.15580754593E+03  0.00000000000E+00 0.  1.
         13    1    3    3    0    0  0.39314300448E+01 -0.33962442564E+02  0.10129830711E+02  0.35658338679E+02  0.00000000000E+00 0. -1.
<mgrwt>
<rscale>  0 0.10183226E+03</rscale>
<asrwt>0</asrwt>
<pdfrwt beam="2">  1        4 0.22558384E-02 0.10183226E+03</pdfrwt>
<pdfrwt beam="1">  1       -4 0.27200450E-01 0.10183226E+03</pdfrwt>
<totfact> 0.16132482E+04</totfact>
</mgrwt>
</event>
<event>
 5    1  0.6113696E+000  0.8965141E+02  0.7546771E-02  0.1303698E+00
          2   -1    0    0  501    0  0.00000000000E+00  0.00000000000E+00  0.31483576823E+02  0.31483576823E+02  0.00000000000E+00 0. -1.
         -2   -1    0    0    0  501 -0.00000000000E+00 -0.00000000000E+00 -0.63821974590E+02  0.63821974590E+02  0.00000000000E+00 0.  1.
         23    2    1    2    0    0  0.00000000000E+00  0.00000000000E+00 -0.32338397767E+02  0.95305551412E+02  0.89651414712E+02 0.  0.
        -13    1    3    3    0    0 -0.23108262903E+02 -0.67930135058E+01 -0.56358332866E+02  0.61289465084E+02  0.00000000000E+00 0.  1.
         13    1    3    3    0    0  0.23108262903E+02  0.67930135058E+01  0.24019935099E+02  0.34016086328E+02  0.00000000000E+00 0. -1.
<mgrwt>
<rscale>  0 0.89651415E+02</rscale>
<asrwt>0</asrwt>
<pdfrwt beam="1">  1        2 0.48436272E-02 0.89651415E+02</pdfrwt>
<pdfrwt beam="2">  1       -2 0.98187653E-02 0.89651415E+02</pdfrwt>
<totfact> 0.94176036E+04</totfact>
</mgrwt>
</event>
<event>
 5    1  0.6113696E+000  0.8810991E+02  0.7546771E-02  0.1307494E+00
         -3   -1    0    0    0  501 -0.00000000000E+00  0.00000000000E+00  0.10176906238E+03  0.10176906238E+03  0.00000000000E+00 0.  1.
          3   -1    0    0  501    0  0.00000000000E+00 -0.00000000000E+00 -0.19071012216E+02  0.19071012216E+02  0.00000000000E+00 0. -1.
         23    2    1    2    0    0  0.00000000000E+00  0.00000000000E+00  0.82698050168E+02  0.12084007460E+03  0.88109909363E+02 0.  0.
        -13    1    3    3    0    0  0.25147974417E+02  0.19525648406E+02  0.83109489801E+02  0.88999207063E+02  0.00000000000E+00 0.  1.
         13    1    3    3    0    0 -0.25147974417E+02 -0.19525648406E+02 -0.41143963240E+00  0.31840867537E+02  0.00000000000E+00 0. -1.
<mgrwt>
<rscale>  0 0.88109909E+02</rscale>
<asrwt>0</asrwt>
<pdfrwt beam="2">  1        3 0.29340019E-02 0.88109909E+02</pdfrwt>
<pdfrwt beam="1">  1       -3 0.15656778E-01 0.88109909E+02</pdfrwt>
<totfact> 0.36410856E+04</totfact>
</mgrwt>
</event>
<event>
 5    1  0.6113696E+000  0.9105116E+02  0.7546771E-02  0.1300326E+00
          2   -1    0    0  501    0  0.00000000000E+00  0.00000000000E+00  0.38134275636E+02  0.38134275636E+02  0.00000000000E+00 0. -1.
         -2   -1    0    0    0  501 -0.00000000000E+00 -0.00000000000E+00 -0.54349484697E+02  0.54349484697E+02  0.00000000000E+00 0.  1.
         23    2    1    2    0    0  0.00000000000E+00  0.00000000000E+00 -0.16215209061E+02  0.92483760333E+02  0.91051155514E+02 0.  0.
        -13    1    3    3    0    0  0.42722667998E+02  0.51577019248E+01  0.69838241057E+01  0.43595894866E+02  0.00000000000E+00 0. -1.
         13    1    3    3    0    0 -0.42722667998E+02 -0.51577019248E+01 -0.23199033167E+02  0.48887865467E+02  0.00000000000E+00 0.  1.
<mgrwt>
<rscale>  0 0.91051156E+02</rscale>
<asrwt>0</asrwt>
<pdfrwt beam="1">  1        2 0.58668116E-02 0.91051156E+02</pdfrwt>
<pdfrwt beam="2">  1       -2 0.83614592E-02 0.91051156E+02</pdfrwt>
<totfact> 0.94594507E+04</totfact>
</mgrwt>
</event>
<event>
 5    1  0.6113696E+000  0.9089259E+02  0.7546771E-02  0.1300704E+00
         -1   -1    0    0    0  501 -0.00000000000E+00  0.00000000000E+00  0.71284843082E+02  0.71284843082E+02  0.00000000000E+00 0.  1.
          1   -1    0    0  501    0  0.00000000000E+00 -0.00000000000E+00 -0.28973421371E+02  0.28973421371E+02  0.00000000000E+00 0. -1.
         23    2    1    2    0    0  0.00000000000E+00  0.00000000000E+00  0.42311421711E+02  0.10025826445E+03  0.90892591469E+02 0.  0.
        -13    1    3    3    0    0 -0.28000637504E+02  0.33211836324E+02  0.35884677137E+02  0.56345113593E+02  0.00000000000E+00 0.  1.
         13    1    3    3    0    0  0.28000637504E+02 -0.33211836324E+02  0.64267445741E+01  0.43913150860E+02  0.00000000000E+00 0. -1.
<mgrwt>
<rscale>  0 0.90892591E+02</rscale>
<asrwt>0</asrwt>
<pdfrwt beam="2">  1        1 0.44574495E-02 0.90892591E+02</pdfrwt>
<pdfrwt beam="1">  1       -1 0.10966899E-01 0.90892591E+02</pdfrwt>
<totfact> 0.86974368E+04</totfact>
</mgrwt>
</event>
<event>
 5    1  0.6113696E+000  0.9338915E+02  0.7546771E-02  0.1294846E+00
          2   -1    0    0  501    0  0.00000000000E+00  0.00000000000E+00  0.31773039617E+02  0.31773039617E+02  0.00000000000E+00 0. -1.
         -2   -1    0    0    0  501 -0.00000000000E+00 -0.00000000000E+00 -0.68623688803E+02  0.68623688803E+02  0.00000000000E+00 0.  1.
         23    2    1    2    0    0  0.00000000000E+00  0.00000000000E+00 -0.36850649186E+02  0.10039672842E+03  0.93389146757E+02 0.  0.
        -13    1    3    3    0    0 -0.15055203882E+02 -0.15497028434E+02 -0.62926715776E+02  0.66532613150E+02  0.00000000000E+00 0.  1.
         13    1    3    3    0    0  0.15055203882E+02  0.15497028434E+02  0.26076066590E+02  0.33864115270E+02  0.00000000000E+00 0. -1.
<mgrwt>
<rscale>  0 0.93389147E+02</rscale>
<asrwt>0</asrwt>
<pdfrwt beam="1">  1        2 0.48881600E-02 0.93389147E+02</pdfrwt>
<pdfrwt beam="2">  1       -2 0.10557490E-01 0.93389147E+02</pdfrwt>
<totfact> 0.83664909E+04</totfact>
</mgrwt>
</event>
<event>
 5    1  0.6113696E+000  0.9171630E+02  0.7546771E-02  0.1298748E+00
         -2   -1    0    0    0  501 -0.00000000000E+00  0.00000000000E+00  0.94664763799E+01  0.94664763799E+01  0.00000000000E+00 0.  1.
          2   -1    0    0  501    0  0.00000000000E+00 -0.00000000000E+00 -0.22214915277E+03  0.22214915277E+03  0.00000000000E+00 0. -1.
         23    2    1    2    0    0  0.00000000000E+00  0.00000000000E+00 -0.21268267639E+03  0.23161562915E+03  0.91716295336E+02 0.  0.
        -13    1    3    3    0    0  0.12762340383E+02 -0.34304448311E+02 -0.17611125301E+03  0.17987452833E+03  0.00000000000E+00 0.  1.
         13    1    3    3    0    0 -0.12762340383E+02  0.34304448311E+02 -0.36571423386E+02  0.51741100824E+02  0.00000000000E+00 0. -1.
<mgrwt>
<rscale>  0 0.91716295E+02</rscale>
<asrwt>0</asrwt>
<pdfrwt beam="2">  1        2 0.34176791E-01 0.91716295E+02</pdfrwt>
<pdfrwt beam="1">  1       -2 0.14563811E-02 0.91716295E+02</pdfrwt>
<totfact> 0.15818292E+05</totfact>
</mgrwt>
</event>
<event>
 5    1  0.6113696E+000  0.9092952E+02  0.7546771E-02  0.1300616E+00
         -2   -1    0    0    0  501 -0.00000000000E+00  0.00000000000E+00  0.89593506972E+01  0.89593506972E+01  0.00000000000E+00 0.  1.
          2   -1    0    0  501    0  0.00000000000E+00 -0.00000000000E+00 -0.23071364115E+03  0.23071364115E+03  0.00000000000E+00 0. -1.
         23    2    1    2    0    0  0.00000000000E+00  0.00000000000E+00 -0.22175429046E+03  0.23967299185E+03  0.90929520437E+02 0.  0.
        -13    1    3    3    0    0  0.30311885020E+02 -0.26273415549E+02 -0.16728236359E+03  0.17202468400E+03  0.00000000000E+00 0. -1.
         13    1    3    3    0    0 -0.30311885020E+02  0.26273415549E+02 -0.54471926864E+02  0.67648307846E+02  0.00000000000E+00 0.  1.
<mgrwt>
<rscale>  0 0.90929520E+02</rscale>
<asrwt>0</asrwt>
<pdfrwt beam="2">  1        2 0.35494408E-01 0.90929520E+02</pdfrwt>
<pdfrwt beam="1">  1       -2 0.13783616E-02 0.90929520E+02</pdfrwt>
<totfact> 0.16415201E+05</totfact>
</mgrwt>
</event>
<event>
 5    1  0.6113696E+000  0.9638935E+02  0.7546771E-02  0.1288077E+00
         -2   -1    0    0    0  501 -0.00000000000E+00  0.00000000000E+00  0.12574866644E+03  0.12574866644E+03  0.00000000000E+00 0.  1.
          2   -1    0    0  501    0  0.00000000000E+00 -0.00000000000E+00 -0.18471183560E+02  0.18471183560E+02  0.00000000000E+00 0. -1.
         23    2    1    2    0    0  0.00000000000E+00  0.00000000000E+00  0.10727748288E+03  0.14421985000E+03  0.96389350039E+02 0.  0.
        -13    1    3    3    0    0  0.20742392725E+02 -0.41964041935E+02  0.70796369945E+02  0.84872573125E+02  0.00000000000E+00 0.  1.
         13    1    3    3    0    0 -0.20742392725E+02  0.41964041935E+02  0.36481112933E+02  0.59347276874E+02  0.00000000000E+00 0. -1.
<mgrwt>
<rscale>  0 0.96389350E+02</rscale>
<asrwt>0</asrwt>
<pdfrwt beam="2">  1        2 0.28417206E-02 0.96389350E+02</pdfrwt>
<pdfrwt beam="1">  1       -2 0.19345948E-01 0.96389350E+02</pdfrwt>
<totfact> 0.64573858E+04</totfact>
</mgrwt>
</event>
<event>
 5    1  0.6113696E+000  0.9140156E+02  0.7546771E-02  0.1299493E+00
          3   -1    0    0  501    0  0.00000000000E+00  0.00000000000E+00  0.58505303718E+01  0.58505303718E+01  0.00000000000E+00 0. -1.
         -3   -1    0    0    0  501 -0.00000000000E+00 -0.00000000000E+00 -0.35698666241E+03  0.35698666241E+03  0.00000000000E+00 0.  1.
         23    2    1    2    0    0  0.00000000000E+00  0.00000000000E+00 -0.35113613204E+03  0.36283719278E+03  0.91401560397E+02 0.  0.
        -13    1    3    3    0    0 -0.24674290009E+02 -0.36136342233E+02 -0.22791784332E+03  0.23208015667E+03  0.00000000000E+00 0. -1.
         13    1    3    3    0    0  0.24674290009E+02  0.36136342233E+02 -0.12321828871E+03  0.13075703611E+03  0.00000000000E+00 0.  1.
<mgrwt>
<rscale>  0 0.91401560E+02</rscale>
<asrwt>0</asrwt>
<pdfrwt beam="1">  1        3 0.90008153E-03 0.91401560E+02</pdfrwt>
<pdfrwt beam="2">  1       -3 0.54921029E-01 0.91401560E+02</pdfrwt>
<totfact> 0.21631908E+04</totfact>
</mgrwt>
</event>
<event>
 5    1  0.6113696E+000  0.9037670E+02  0.7546771E-02  0.1301942E+00
         -3   -1    0    0    0  501 -0.00000000000E+00  0.00000000000E+00  0.18897682929E+02  0.18897682929E+02  0.00000000000E+00 0.  1.
          3   -1    0    0  501    0  0.00000000000E+00 -0.00000000000E+00 -0.10805488936E+03  0.10805488936E+03  0.00000000000E+00 0. -1.
         23    2    1    2    0    0  0.00000000000E+00  0.00000000000E+00 -0.89157206429E+02  0.12695257229E+03  0.90376701378E+02 0.  0.
        -13    1    3    3    0    0 -0.28278802527E+02 -0.21452325549E+02 -0.52947099902E+01  0.35887698418E+02  0.00000000000E+00 0.  1.
         13    1    3    3    0    0  0.28278802527E+02  0.21452325549E+02 -0.83862496439E+02  0.91064873869E+02  0.00000000000E+00 0. -1.
<mgrwt>
<rscale>  0 0.90376701E+02</rscale>
<asrwt>0</asrwt>
<pdfrwt beam="2">  1        3 0.16623829E-01 0.90376701E+02</pdfrwt>
<pdfrwt beam="1">  1       -3 0.29073359E-02 0.90376701E+02</pdfrwt>
<totfact> 0.33569677E+04</totfact>
</mgrwt>
</event>
<event>
 5    1  0.6113696E+000  0.9409924E+02  0.7546771E-02  0.1293218E+00
          1   -1    0    0  501    0  0.00000000000E+00  0.00000000000E+00  0.16597789684E+02  0.16597789684E+02  0.00000000000E+00 0. -1.
         -1   -1    0    0    0  501 -0.00000000000E+00 -0.00000000000E+00 -0.13337116390E+03  0.13337116390E+03  0.00000000000E+00 0.  1.
         23    2    1    2    0    0  0.00000000000E+00  0.00000000000E+00 -0.11677337422E+03  0.14996895359E+03  0.94099235458E+02 0.  0.
        -13    1    3    3    0    0  0.98857774908E+01 -0.37459570679E+02 -0.15839164164E+02  0.41854834290E+02  0.00000000000E+00 0. -1.
         13    1    3    3    0    0 -0.98857774908E+01  0.37459570679E+02 -0.10093421006E+03  0.10811411930E+03  0.00000000000E+00 0.  1.
<mgrwt>
<rscale>  0 0.94099235E+02</rscale>
<asrwt>0</asrwt>
<pdfrwt beam="1">  1        1 0.25535061E-02 0.94099235E+02</pdfrwt>
<pdfrwt beam="2">  1       -1 0.20518640E-01 0.94099235E+02</pdfrwt>
<totfact> 0.70763093E+04</totfact>
</mgrwt>
</event>
<event>
 5    1  0.6113696E+000  0.1060701E+03  0.7546771E-02  0.1268025E+00
         -1   -1    0    0    0  501 -0.00000000000E+00  0.00000000000E+00  0.35765323312E+03  0.35765323312E+03  0.00000000000E+00 0.  1.
          1   -1    0    0  501    0  0.00000000000E+00 -0.00000000000E+00 -0.78643716557E+01  0.78643716557E+01  0.00000000000E+00 0. -1.
         23    2    1    2    0    0  0.00000000000E+00  0.00000000000E+00  0.34978886147E+03  0.36551760478E+03  0.10607012679E+03 0.  0.
        -13    1    3    3    0    0 -0.41450487047E+02  0.22139790607E+02  0.25961310356E+03  0.26383191002E+03  0.00000000000E+00 0.  1.
         13    1    3    3    0    0  0.41450487047E+02 -0.22139790607E+02  0.90175757911E+02  0.10168569476E+03  0.00000000000E+00 0. -1.
<mgrwt>
<rscale>  0 0.10607013E+03</rscale>
<asrwt>0</asrwt>
<pdfrwt beam="2">  1        1 0.12099036E-02 0.10607013E+03</pdfrwt>
<pdfrwt beam="1">  1       -1 0.55023562E-01 0.10607013E+03</pdfrwt>
<totfact> 0.37758551E+04</totfact>
</mgrwt>
</event>
<event>
 5    1  0.6113696E+000  0.9133459E+02  0.7546771E-02  0.1299652E+00
         -2   -1    0    0    0  501 -0.00000000000E+00  0.00000000000E+00  0.21686830321E+02  0.21686830321E+02  0.00000000000E+00 0. -1.
          2   -1    0    0  501    0  0.00000000000E+00 -0.00000000000E+00 -0.96164432925E+02  0.96164432925E+02  0.00000000000E+00 0.  1.
         23    2    1    2    0    0  0.00000000000E+00  0.00000000000E+00 -0.74477602604E+02  0.11785126325E+03  0.91334587966E+02 0.  0.
        -13    1    3    3    0    0  0.24266562901E+02 -0.24151072846E+02  0.17572184764E+01  0.34281601646E+02  0.00000000000E+00 0. -1.
         13    1    3    3    0    0 -0.24266562901E+02  0.24151072846E+02 -0.76234821081E+02  0.83569661600E+02  0.00000000000E+00 0.  1.
<mgrwt>
<rscale>  0 0.91334588E+02</rscale>
<asrwt>0</asrwt>
<pdfrwt beam="2">  1        2 0.14794528E-01 0.91334588E+02</pdfrwt>
<pdfrwt beam="1">  1       -2 0.33364355E-02 0.91334588E+02</pdfrwt>
<totfact> 0.12065463E+05</totfact>
</mgrwt>
</event>
<event>
 5    1  0.6113696E+000  0.9011540E+02  0.7546771E-02  0.1302572E+00
          3   -1    0    0  501    0  0.00000000000E+00  0.00000000000E+00  0.13281256862E+03  0.13281256862E+03  0.00000000000E+00 0. -1.
         -3   -1    0    0    0  501 -0.00000000000E+00 -0.00000000000E+00 -0.15286176185E+02  0.15286176185E+02  0.00000000000E+00 0.  1.
         23    2    1    2    0    0  0.00000000000E+00  0.00000000000E+00  0.11752639243E+03  0.14809874480E+03  0.90115399871E+02 0.  0.
        -13    1    3    3    0    0  0.56272288267E+01 -0.40683535664E+02  0.28309486313E+02  0.49882289379E+02  0.00000000000E+00 0.  1.
         13    1    3    3    0    0 -0.56272288267E+01  0.40683535664E+02  0.89216906120E+02  0.98216455424E+02  0.00000000000E+00 0. -1.
<mgrwt>
<rscale>  0 0.90115400E+02</rscale>
<asrwt>0</asrwt>
<pdfrwt beam="1">  1        3 0.20432702E-01 0.90115400E+02</pdfrwt>
<pdfrwt beam="2">  1       -3 0.23517195E-02 0.90115400E+02</pdfrwt>
<totfact> 0.32434313E+04</totfact>
</mgrwt>
</event>
<event>
 5    1  0.6113696E+000  0.8470566E+02  0.7546771E-02  0.1316204E+00
         -1   -1    0    0    0  501 -0.00000000000E+00  0.00000000000E+00  0.47407636685E+02  0.47407636685E+02  0.00000000000E+00 0.  1.
          1   -1    0    0  501    0  0.00000000000E+00 -0.00000000000E+00 -0.37836991300E+02  0.37836991300E+02  0.00000000000E+00 0. -1.
         23    2    1    2    0    0  0.00000000000E+00  0.00000000000E+00  0.95706453858E+01  0.85244627985E+02  0.84705663018E+02 0.  0.
        -13    1    3    3    0    0  0.37733179249E+02 -0.13281908396E+02  0.18786445429E+02  0.44194257983E+02  0.00000000000E+00 0. -1.
         13    1    3    3    0    0 -0.37733179249E+02  0.13281908396E+02 -0.92158000433E+01  0.41050370002E+02  0.00000000000E+00 0.  1.
<mgrwt>
<rscale>  0 0.84705663E+02</rscale>
<asrwt>0</asrwt>
<pdfrwt beam="2">  1        1 0.58210756E-02 0.84705663E+02</pdfrwt>
<pdfrwt beam="1">  1       -1 0.72934825E-02 0.84705663E+02</pdfrwt>
<totfact> 0.11058029E+05</totfact>
</mgrwt>
</event>
<event>
 5    1  0.6113696E+000  0.9386728E+02  0.7546771E-02  0.1293748E+00
         -1   -1    0    0    0  501 -0.00000000000E+00  0.00000000000E+00  0.28505121707E+02  0.28505121707E+02  0.00000000000E+00 0.  1.
          1   -1    0    0  501    0  0.00000000000E+00 -0.00000000000E+00 -0.77276172246E+02  0.77276172246E+02  0.00000000000E+00 0. -1.
         23    2    1    2    0    0  0.00000000000E+00  0.00000000000E+00 -0.48771050540E+02  0.10578129395E+03  0.93867282797E+02 0.  0.
        -13    1    3    3    0    0  0.46393745960E+01 -0.15686416307E+02 -0.73959669635E+02  0.75747080377E+02  0.00000000000E+00 0. -1.
         13    1    3    3    0    0 -0.46393745960E+01  0.15686416307E+02  0.25188619095E+02  0.30034213576E+02  0.00000000000E+00 0.  1.
<mgrwt>
<rscale>  0 0.93867283E+02</rscale>
<asrwt>0</asrwt>
<pdfrwt beam="2">  1        1 0.11888642E-01 0.93867283E+02</pdfrwt>
<pdfrwt beam="1">  1       -1 0.43854034E-02 0.93867283E+02</pdfrwt>
<totfact> 0.92478774E+04</totfact>
</mgrwt>
</event>
<event>
 5    1  0.6113696E+000  0.8986118E+02  0.7546771E-02  0.1303188E+00
         -2   -1    0    0    0  501 -0.00000000000E+00  0.00000000000E+00  0.26055364354E+02  0.26055364354E+02  0.00000000000E+00 0.  1.
          2   -1    0    0  501    0  0.00000000000E+00 -0.00000000000E+00 -0.77479552608E+02  0.77479552608E+02  0.00000000000E+00 0. -1.
         23    2    1    2    0    0  0.00000000000E+00  0.00000000000E+00 -0.51424188254E+02  0.10353491696E+03  0.89861181234E+02 0.  0.
        -13    1    3    3    0    0 -0.27665334185E+02  0.97512011717E+01 -0.64924681059E+02  0.71243742535E+02  0.00000000000E+00 0. -1.
         13    1    3    3    0    0  0.27665334185E+02 -0.97512011717E+01  0.13500492805E+02  0.32291174427E+02  0.00000000000E+00 0.  1.
<mgrwt>
<rscale>  0 0.89861181E+02</rscale>
<asrwt>0</asrwt>
<pdfrwt beam="2">  1        2 0.11919931E-01 0.89861181E+02</pdfrwt>
<pdfrwt beam="1">  1       -2 0.40085177E-02 0.89861181E+02</pdfrwt>
<totfact> 0.11850269E+05</totfact>
</mgrwt>
</event>
<event>
 5    1  0.6113696E+000  0.9339539E+02  0.7546771E-02  0.1294832E+00
          1   -1    0    0  501    0  0.00000000000E+00  0.00000000000E+00  0.31176614231E+03  0.31176614231E+03  0.00000000000E+00 0. -1.
         -1   -1    0    0    0  501 -0.00000000000E+00 -0.00000000000E+00 -0.69945846649E+01  0.69945846649E+01  0.00000000000E+00 0.  1.
         23    2    1    2    0    0  0.00000000000E+00  0.00000000000E+00  0.30477155764E+03  0.31876072697E+03  0.93395389137E+02 0.  0.
        -13    1    3    3    0    0 -0.25156652257E+02  0.30851318012E+02  0.69062280633E+02  0.79713609767E+02  0.00000000000E+00 0.  1.
         13    1    3    3    0    0  0.25156652257E+02 -0.30851318012E+02  0.23570927701E+03  0.23904711720E+03  0.00000000000E+00 0. -1.
<mgrwt>
<rscale>  0 0.93395389E+02</rscale>
<asrwt>0</asrwt>
<pdfrwt beam="1">  1        1 0.47964011E-01 0.93395389E+02</pdfrwt>
<pdfrwt beam="2">  1       -1 0.10760902E-02 0.93395389E+02</pdfrwt>
<totfact> 0.12104109E+05</totfact>
</mgrwt>
</event>
<event>
 5    1  0.6113696E+000  0.9026995E+02  0.7546771E-02  0.1302199E+00
          2   -1    0    0  501    0  0.00000000000E+00  0.00000000000E+00  0.15429088283E+03  0.15429088283E+03  0.00000000000E+00 0. -1.
         -2   -1    0    0    0  501 -0.00000000000E+00 -0.00000000000E+00 -0.13203411240E+02  0.13203411240E+02  0.00000000000E+00 0.  1.
         23    2    1    2    0    0  0.00000000000E+00  0.00000000000E+00  0.14108747159E+03  0.16749429407E+03  0.90269950187E+02 0.  0.
        -13    1    3    3    0    0 -0.34154274673E+02 -0.13851739790E+02  0.22202072447E+02  0.43026935687E+02  0.00000000000E+00 0.  1.
         13    1    3    3    0    0  0.34154274673E+02  0.13851739790E+02  0.11888539915E+03  0.12446735839E+03  0.00000000000E+00 0. -1.
<mgrwt>
<rscale>  0 0.90269950E+02</rscale>
<asrwt>0</asrwt>
<pdfrwt beam="1">  1        2 0.23737058E-01 0.90269950E+02</pdfrwt>
<pdfrwt beam="2">  1       -2 0.20312941E-02 0.90269950E+02</pdfrwt>
<totfact> 0.14503615E+05</totfact>
</mgrwt>
</event>
<event>
 5    1  0.6113696E+000  0.9492642E+02  0.7546771E-02  0.1291342E+00
          3   -1    0    0  501    0  0.00000000000E+00  0.00000000000E+00  0.45649171038E+02  0.45649171038E+02  0.00000000000E+00 0. -1.
         -3   -1    0    0    0  501 -0.00000000000E+00 -0.00000000000E+00 -0.49349336107E+02  0.49349336107E+02  0.00000000000E+00 0.  1.
         23    2    1    2    0    0  0.00000000000E+00  0.00000000000E+00 -0.37001650685E+01  0.94998507145E+02  0.94926419601E+02 0.  0.
        -13    1    3    3    0    0  0.26922866243E+02 -0.26134236493E+01 -0.40880797236E+02  0.49019488905E+02  0.00000000000E+00 0.  1.
         13    1    3    3    0    0 -0.26922866243E+02  0.26134236493E+01  0.37180632167E+02  0.45979018239E+02  0.00000000000E+00 0. -1.
<mgrwt>
<rscale>  0 0.94926420E+02</rscale>
<asrwt>0</asrwt>
<pdfrwt beam="1">  1        3 0.70229494E-02 0.94926420E+02</pdfrwt>
<pdfrwt beam="2">  1       -3 0.75922056E-02 0.94926420E+02</pdfrwt>
<totfact> 0.31390244E+04</totfact>
</mgrwt>
</event>
<event>
 5    1  0.6113696E+000  0.8814698E+02  0.7546771E-02  0.1307402E+00
          1   -1    0    0  501    0  0.00000000000E+00  0.00000000000E+00  0.36527351566E+03  0.36527351566E+03  0.00000000000E+00 0. -1.
         -1   -1    0    0    0  501 -0.00000000000E+00 -0.00000000000E+00 -0.53178578374E+01  0.53178578374E+01  0.00000000000E+00 0.  1.
         23    2    1    2    0    0  0.00000000000E+00  0.00000000000E+00  0.35995565782E+03  0.37059137350E+03  0.88146982434E+02 0.  0.
        -13    1    3    3    0    0 -0.41276790090E+02 -0.14976582196E+02  0.19593248339E+03  0.20079245370E+03  0.00000000000E+00 0. -1.
         13    1    3    3    0    0  0.41276790090E+02  0.14976582196E+02  0.16402317443E+03  0.16979891980E+03  0.00000000000E+00 0.  1.
<mgrwt>
<rscale>  0 0.88146982E+02</rscale>
<asrwt>0</asrwt>
<pdfrwt beam="1">  1        1 0.56195905E-01 0.88146982E+02</pdfrwt>
<pdfrwt beam="2">  1       -1 0.81813227E-03 0.88146982E+02</pdfrwt>
<totfact> 0.14528431E+05</totfact>
</mgrwt>
</event>
<event>
 5    1  0.6113696E+000  0.9156972E+02  0.7546771E-02  0.1299094E+00
          2   -1    0    0  501    0  0.00000000000E+00  0.00000000000E+00  0.16689570293E+03  0.16689570293E+03  0.00000000000E+00 0.  1.
         -2   -1    0    0    0  501 -0.00000000000E+00 -0.00000000000E+00 -0.12560258549E+02  0.12560258549E+02  0.00000000000E+00 0. -1.
         23    2    1    2    0    0  0.00000000000E+00  0.00000000000E+00  0.15433544438E+03  0.17945596148E+03  0.91569715069E+02 0.  0.
        -13    1    3    3    0    0  0.17325213369E+02  0.19491731759E+02  0.34176277843E+01  0.26301536170E+02  0.00000000000E+00 0. -1.
         13    1    3    3    0    0 -0.17325213369E+02 -0.19491731759E+02  0.15091781659E+03  0.15315442531E+03  0.00000000000E+00 0.  1.
<mgrwt>
<rscale>  0 0.91569715E+02</rscale>
<asrwt>0</asrwt>
<pdfrwt beam="1">  1        2 0.25676260E-01 0.91569715E+02</pdfrwt>
<pdfrwt beam="2">  1       -2 0.19323476E-02 0.91569715E+02</pdfrwt>
<totfact> 0.14336345E+05</totfact>
</mgrwt>
</event>
<event>
 5    1  0.6113696E+000  0.9182886E+02  0.7546771E-02  0.1298482E+00
         -2   -1    0    0    0  501 -0.00000000000E+00  0.00000000000E+00  0.13825094016E+02  0.13825094016E+02  0.00000000000E+00 0.  1.
          2   -1    0    0  501    0  0.00000000000E+00 -0.00000000000E+00 -0.15248611318E+03  0.15248611318E+03  0.00000000000E+00 0. -1.
         23    2    1    2    0    0  0.00000000000E+00  0.00000000000E+00 -0.13866101916E+03  0.16631120720E+03  0.91828859316E+02 0.  0.
        -13    1    3    3    0    0 -0.69246224583E+01  0.36525263001E+02 -0.11813248925E+03  0.12384397543E+03  0.00000000000E+00 0. -1.
         13    1    3    3    0    0  0.69246224583E+01 -0.36525263001E+02 -0.20528529911E+02  0.42467231765E+02  0.00000000000E+00 0.  1.
<mgrwt>
<rscale>  0 0.91828859E+02</rscale>
<asrwt>0</asrwt>
<pdfrwt beam="2">  1        2 0.23459401E-01 0.91828859E+02</pdfrwt>
<pdfrwt beam="1">  1       -2 0.21269377E-02 0.91828859E+02</pdfrwt>
<totfact> 0.13789991E+05</totfact>
</mgrwt>
</event>
<event>
 5    1  0.6113696E+000  0.9155642E+02  0.7546771E-02  0.1299126E+00
          2   -1    0    0  501    0  0.00000000000E+00  0.00000000000E+00  0.10431464711E+02  0.10431464711E+02  0.00000000000E+00 0. -1.
         -2   -1    0    0    0  501 -0.00000000000E+00 -0.00000000000E+00 -0.20089646543E+03  0.20089646543E+03  0.00000000000E+00 0.  1.
         23    2    1    2    0    0  0.00000000000E+00  0.00000000000E+00 -0.19046500072E+03  0.21132793014E+03  0.91556417355E+02 0.  0.
        -13    1    3    3    0    0  0.24371637936E+02 -0.38722505029E+02 -0.91781603564E+02  0.10255375119E+03  0.00000000000E+00 0. -1.
         13    1    3    3    0    0 -0.24371637936E+02  0.38722505029E+02 -0.98683397154E+02  0.10877417894E+03  0.00000000000E+00 0.  1.
<mgrwt>
<rscale>  0 0.91556417E+02</rscale>
<asrwt>0</asrwt>
<pdfrwt beam="1">  1        2 0.16048407E-02 0.91556417E+02</pdfrwt>
<pdfrwt beam="2">  1       -2 0.30907150E-01 0.91556417E+02</pdfrwt>
<totfact> 0.61541423E+04</totfact>
</mgrwt>
</event>
<event>
 5    1  0.6113696E+000  0.9016411E+02  0.7546771E-02  0.1302455E+00
         -4   -1    0    0    0  501 -0.00000000000E+00  0.00000000000E+00  0.19445842006E+02  0.19445842006E+02  0.00000000000E+00 0.  1.
          4   -1    0    0  501    0  0.00000000000E+00 -0.00000000000E+00 -0.10451548888E+03  0.10451548888E+03  0.00000000000E+00 0. -1.
         23    2    1    2    0    0  0.00000000000E+00  0.00000000000E+00 -0.85069646870E+02  0.12396133088E+03  0.90164110017E+02 0.  0.
        -13    1    3    3    0    0  0.32849945150E+02 -0.30863969740E+02 -0.43675328042E+02  0.62763347616E+02  0.00000000000E+00 0.  1.
         13    1    3    3    0    0 -0.32849945150E+02  0.30863969740E+02 -0.41394318828E+02  0.61197983265E+02  0.00000000000E+00 0. -1.
<mgrwt>
<rscale>  0 0.90164110E+02</rscale>
<asrwt>0</asrwt>
<pdfrwt beam="2">  1        4 0.16079306E-01 0.90164110E+02</pdfrwt>
<pdfrwt beam="1">  1       -4 0.29916680E-02 0.90164110E+02</pdfrwt>
<totfact> 0.25815325E+04</totfact>
</mgrwt>
</event>
<event>
 5    1  0.6113696E+000  0.8781380E+02  0.7546771E-02  0.1308234E+00
         -2   -1    0    0    0  501 -0.00000000000E+00  0.00000000000E+00  0.59262712849E+01  0.59262712849E+01  0.00000000000E+00 0.  1.
          2   -1    0    0  501    0  0.00000000000E+00 -0.00000000000E+00 -0.32530000563E+03  0.32530000563E+03  0.00000000000E+00 0. -1.
         23    2    1    2    0    0  0.00000000000E+00  0.00000000000E+00 -0.31937373434E+03  0.33122627691E+03  0.87813804890E+02 0.  0.
        -13    1    3    3    0    0 -0.42929224418E+02 -0.74818135279E+01 -0.13940243144E+03  0.14605455739E+03  0.00000000000E+00 0. -1.
         13    1    3    3    0    0  0.42929224418E+02  0.74818135279E+01 -0.17997130290E+03  0.18517171952E+03  0.00000000000E+00 0.  1.
<mgrwt>
<rscale>  0 0.87813805E+02</rscale>
<asrwt>0</asrwt>
<pdfrwt beam="2">  1        2 0.50046160E-01 0.87813805E+02</pdfrwt>
<pdfrwt beam="1">  1       -2 0.91173394E-03 0.87813805E+02</pdfrwt>
<totfact> 0.20458610E+05</totfact>
</mgrwt>
</event>
<event>
 5    1  0.6113696E+000  0.8899297E+02  0.7546771E-02  0.1305309E+00
         -2   -1    0    0    0  501 -0.00000000000E+00  0.00000000000E+00  0.70329361992E+02  0.70329361992E+02  0.00000000000E+00 0.  1.
          2   -1    0    0  501    0  0.00000000000E+00 -0.00000000000E+00 -0.28152352706E+02  0.28152352706E+02  0.00000000000E+00 0. -1.
         23    2    1    2    0    0  0.00000000000E+00  0.00000000000E+00  0.42177009286E+02  0.98481714698E+02  0.88992966113E+02 0.  0.
        -13    1    3    3    0    0  0.23904531855E+02 -0.36323029159E+02  0.31537042300E+02  0.53715678600E+02  0.00000000000E+00 0.  1.
         13    1    3    3    0    0 -0.23904531855E+02  0.36323029159E+02  0.10639966986E+02  0.44766036098E+02  0.00000000000E+00 0. -1.
<mgrwt>
<rscale>  0 0.88992966E+02</rscale>
<asrwt>0</asrwt>
<pdfrwt beam="2">  1        2 0.43311312E-02 0.88992966E+02</pdfrwt>
<pdfrwt beam="1">  1       -2 0.10819902E-01 0.88992966E+02</pdfrwt>
<totfact> 0.93469423E+04</totfact>
</mgrwt>
</event>
<event>
 5    1  0.6113696E+000  0.9156640E+02  0.7546771E-02  0.1299102E+00
          2   -1    0    0  501    0  0.00000000000E+00  0.00000000000E+00  0.83404008434E+02  0.83404008434E+02  0.00000000000E+00 0. -1.
         -2   -1    0    0    0  501 -0.00000000000E+00 -0.00000000000E+00 -0.25131903490E+02  0.25131903490E+02  0.00000000000E+00 0.  1.
         23    2    1    2    0    0  0.00000000000E+00  0.00000000000E+00  0.58272104944E+02  0.10853591192E+03  0.91566401931E+02 0.  0.
        -13    1    3    3    0    0  0.16999697868E+01  0.31502007727E+02 -0.10191638195E+02  0.33153218203E+02  0.00000000000E+00 0.  1.
         13    1    3    3    0    0 -0.16999697868E+01 -0.31502007727E+02  0.68463743139E+02  0.75382693721E+02  0.00000000000E+00 0. -1.
<mgrwt>
<rscale>  0 0.91566402E+02</rscale>
<asrwt>0</asrwt>
<pdfrwt beam="1">  1        2 0.12831386E-01 0.91566402E+02</pdfrwt>
<pdfrwt beam="2">  1       -2 0.38664467E-02 0.91566402E+02</pdfrwt>
<totfact> 0.11487209E+05</totfact>
</mgrwt>
</event>
<event>
 5    1  0.6113696E+000  0.1002566E+03  0.7546771E-02  0.1279757E+00
          4   -1    0    0  501    0  0.00000000000E+00  0.00000000000E+00  0.12870793364E+03  0.12870793364E+03  0.00000000000E+00 0.  1.
         -4   -1    0    0    0  501 -0.00000000000E+00 -0.00000000000E+00 -0.19523643873E+02  0.19523643873E+02  0.00000000000E+00 0. -1.
         23    2    1    2    0    0  0.00000000000E+00  0.00000000000E+00  0.10918428977E+03  0.14823157752E+03  0.10025662791E+03 0.  0.
        -13    1    3    3    0    0  0.14898419728E+02  0.35652826780E+02  0.73774906384E+01  0.39338458738E+02  0.00000000000E+00 0. -1.
         13    1    3    3    0    0 -0.14898419728E+02 -0.35652826780E+02  0.10180679913E+03  0.10889311878E+03  0.00000000000E+00 0.  1.
<mgrwt>
<rscale>  0 0.10025663E+03</rscale>
<asrwt>0</asrwt>
<pdfrwt beam="1">  1        4 0.19801220E-01 0.10025663E+03</pdfrwt>
<pdfrwt beam="2">  1       -4 0.30036376E-02 0.10025663E+03</pdfrwt>
<totfact> 0.18367827E+04</totfact>
</mgrwt>
</event>
<event>
 5    1  0.6113696E+000  0.7837197E+02  0.7546771E-02  0.1333736E+00
         -2   -1    0    0    0  501 -0.00000000000E+00  0.00000000000E+00  0.15822874697E+02  0.15822874697E+02  0.00000000000E+00 0.  1.
          2   -1    0    0  501    0  0.00000000000E+00 -0.00000000000E+00 -0.97045678019E+02  0.97045678019E+02  0.00000000000E+00 0. -1.
         23    2    1    2    0    0  0.00000000000E+00  0.00000000000E+00 -0.81222803322E+02  0.11286855272E+03  0.78371974665E+02 0.  0.
        -13    1    3    3    0    0 -0.34125844561E+02 -0.35986086194E+00 -0.12877895904E+02  0.36476608529E+02  0.00000000000E+00 0.  1.
         13    1    3    3    0    0  0.34125844561E+02  0.35986086194E+00 -0.68344907418E+02  0.76391944188E+02  0.00000000000E+00 0. -1.
<mgrwt>
<rscale>  0 0.78371975E+02</rscale>
<asrwt>0</asrwt>
<pdfrwt beam="2">  1        2 0.14930105E-01 0.78371975E+02</pdfrwt>
<pdfrwt beam="1">  1       -2 0.24342884E-02 0.78371975E+02</pdfrwt>
<totfact> 0.18360441E+05</totfact>
</mgrwt>
</event>
<event>
 5    1  0.6113696E+000  0.9076705E+02  0.7546771E-02  0.1301005E+00
          1   -1    0    0  501    0  0.00000000000E+00  0.00000000000E+00  0.28365801288E+02  0.28365801288E+02  0.00000000000E+00 0.  1.
         -1   -1    0    0    0  501 -0.00000000000E+00 -0.00000000000E+00 -0.72610825969E+02  0.72610825969E+02  0.00000000000E+00 0. -1.
         23    2    1    2    0    0  0.00000000000E+00  0.00000000000E+00 -0.44245024682E+02  0.10097662726E+03  0.90767048223E+02 0.  0.
        -13    1    3    3    0    0 -0.42998758373E+02 -0.13243958152E+02 -0.15506418532E+02  0.47589333520E+02  0.00000000000E+00 0.  1.
         13    1    3    3    0    0  0.42998758373E+02  0.13243958152E+02 -0.28738606149E+02  0.53387293737E+02  0.00000000000E+00 0. -1.
<mgrwt>
<rscale>  0 0.90767048E+02</rscale>
<asrwt>0</asrwt>
<pdfrwt beam="1">  1        1 0.43639694E-02 0.90767048E+02</pdfrwt>
<pdfrwt beam="2">  1       -1 0.11170896E-01 0.90767048E+02</pdfrwt>
<totfact> 0.87019851E+04</totfact>
</mgrwt>
</event>
<event>
 5    1  0.6113696E+000  0.9120813E+02  0.7546771E-02  0.1299952E+00
         -1   -1    0    0    0  501 -0.00000000000E+00  0.00000000000E+00  0.17469255735E+03  0.17469255735E+03  0.00000000000E+00 0.  1.
          1   -1    0    0  501    0  0.00000000000E+00 -0.00000000000E+00 -0.11905091463E+02  0.11905091463E+02  0.00000000000E+00 0. -1.
         23    2    1    2    0    0  0.00000000000E+00  0.00000000000E+00  0.16278746589E+03  0.18659764882E+03  0.91208132822E+02 0.  0.
        -13    1    3    3    0    0 -0.29908269549E+02  0.16739761352E+02  0.19847922706E+02  0.39606366071E+02  0.00000000000E+00 0. -1.
         13    1    3    3    0    0  0.29908269549E+02 -0.16739761352E+02  0.14293954318E+03  0.14699128275E+03  0.00000000000E+00 0.  1.
<mgrwt>
<rscale>  0 0.91208133E+02</rscale>
<asrwt>0</asrwt>
<pdfrwt beam="2">  1        1 0.18315527E-02 0.91208133E+02</pdfrwt>
<pdfrwt beam="1">  1       -1 0.26875776E-01 0.91208133E+02</pdfrwt>
<totfact> 0.71968428E+04</totfact>
</mgrwt>
</event>
<event>
 5    1  0.6113696E+000  0.9273012E+02  0.7546771E-02  0.1296372E+00
          1   -1    0    0  501    0  0.00000000000E+00  0.00000000000E+00  0.30366268472E+02  0.30366268472E+02  0.00000000000E+00 0. -1.
         -1   -1    0    0    0  501 -0.00000000000E+00 -0.00000000000E+00 -0.70792980505E+02  0.70792980505E+02  0.00000000000E+00 0.  1.
         23    2    1    2    0    0  0.00000000000E+00  0.00000000000E+00 -0.40426712033E+02  0.10115924898E+03  0.92730117049E+02 0.  0.
        -13    1    3    3    0    0  0.31352173424E+02  0.12688830326E+02  0.14383015787E+02  0.36753725479E+02  0.00000000000E+00 0. -1.
         13    1    3    3    0    0 -0.31352173424E+02 -0.12688830326E+02 -0.54809727820E+02  0.64405523498E+02  0.00000000000E+00 0.  1.
<mgrwt>
<rscale>  0 0.92730117E+02</rscale>
<asrwt>0</asrwt>
<pdfrwt beam="1">  1        1 0.46717336E-02 0.92730117E+02</pdfrwt>
<pdfrwt beam="2">  1       -1 0.10891228E-01 0.92730117E+02</pdfrwt>
<totfact> 0.82735043E+04</totfact>
</mgrwt>
</event>
<event>
 5    1  0.6113696E+000  0.9420075E+02  0.7546771E-02  0.1292986E+00
          3   -1    0    0  501    0  0.00000000000E+00  0.00000000000E+00  0.70863738461E+02  0.70863738461E+02  0.00000000000E+00 0. -1.
         -3   -1    0    0    0  501 -0.00000000000E+00 -0.00000000000E+00 -0.31305787719E+02  0.31305787719E+02  0.00000000000E+00 0.  1.
         23    2    1    2    0    0  0.00000000000E+00  0.00000000000E+00  0.39557950741E+02  0.10216952618E+03  0.94200746350E+02 0.  0.
        -13    1    3    3    0    0 -0.29998710413E+02  0.33996052776E+02  0.59406949299E+01  0.45726863954E+02  0.00000000000E+00 0. -1.
         13    1    3    3    0    0  0.29998710413E+02 -0.33996052776E+02  0.33617255812E+02  0.56442662226E+02  0.00000000000E+00 0.  1.
<mgrwt>
<rscale>  0 0.94200746E+02</rscale>
<asrwt>0</asrwt>
<pdfrwt beam="1">  1        3 0.10902114E-01 0.94200746E+02</pdfrwt>
<pdfrwt beam="2">  1       -3 0.48162751E-02 0.94200746E+02</pdfrwt>
<totfact> 0.31569182E+04</totfact>
</mgrwt>
</event>
<event>
 5    1  0.6113696E+000  0.9530682E+02  0.7546771E-02  0.1290487E+00
          2   -1    0    0  501    0  0.00000000000E+00  0.00000000000E+00  0.21807128777E+02  0.21807128777E+02  0.00000000000E+00 0. -1.
         -2   -1    0    0    0  501 -0.00000000000E+00 -0.00000000000E+00 -0.10413325793E+03  0.10413325793E+03  0.00000000000E+00 0.  1.
         23    2    1    2    0    0  0.00000000000E+00  0.00000000000E+00 -0.82326129155E+02  0.12594038671E+03  0.95306817503E+02 0.  0.
        -13    1    3    3    0    0 -0.56113186813E+01 -0.43897482837E+02 -0.64517895879E+02  0.78237042285E+02  0.00000000000E+00 0.  1.
         13    1    3    3    0    0  0.56113186813E+01  0.43897482837E+02 -0.17808233276E+02  0.47703344424E+02  0.00000000000E+00 0. -1.
<mgrwt>
<rscale>  0 0.95306818E+02</rscale>
<asrwt>0</asrwt>
<pdfrwt beam="1">  1        2 0.33549429E-02 0.95306818E+02</pdfrwt>
<pdfrwt beam="2">  1       -2 0.16020501E-01 0.95306818E+02</pdfrwt>
<totfact> 0.70591542E+04</totfact>
</mgrwt>
</event>
<event>
 5    1  0.6113696E+000  0.9280698E+02  0.7546771E-02  0.1296193E+00
         -1   -1    0    0    0  501 -0.00000000000E+00  0.00000000000E+00  0.89502723193E+02  0.89502723193E+02  0.00000000000E+00 0.  1.
          1   -1    0    0  501    0  0.00000000000E+00 -0.00000000000E+00 -0.24058305392E+02  0.24058305392E+02  0.00000000000E+00 0. -1.
         23    2    1    2    0    0  0.00000000000E+00  0.00000000000E+00  0.65444417801E+02  0.11356102858E+03  0.92806979219E+02 0.  0.
        -13    1    3    3    0    0  0.32358212990E+02  0.10970227247E+01  0.73397907019E+02  0.80221631506E+02  0.00000000000E+00 0.  1.
         13    1    3    3    0    0 -0.32358212990E+02 -0.10970227247E+01 -0.79534892177E+01  0.33339397078E+02  0.00000000000E+00 0. -1.
<mgrwt>
<rscale>  0 0.92806979E+02</rscale>
<asrwt>0</asrwt>
<pdfrwt beam="2">  1        1 0.37012778E-02 0.92806979E+02</pdfrwt>
<pdfrwt beam="1">  1       -1 0.13769650E-01 0.92806979E+02</pdfrwt>
<totfact> 0.79325691E+04</totfact>
</mgrwt>
</event>
<event>
 5    1  0.6113696E+000  0.8761444E+02  0.7546771E-02  0.1308734E+00
         -1   -1    0    0    0  501 -0.00000000000E+00  0.00000000000E+00  0.45155224977E+02  0.45155224977E+02  0.00000000000E+00 0.  1.
          1   -1    0    0  501    0  0.00000000000E+00 -0.00000000000E+00 -0.42499456206E+02  0.42499456206E+02  0.00000000000E+00 0. -1.
         23    2    1    2    0    0  0.00000000000E+00  0.00000000000E+00  0.26557687711E+01  0.87654681182E+02  0.87614439594E+02 0.  0.
        -13    1    3    3    0    0 -0.15518633770E+02  0.26327745423E+02 -0.30072743871E+02  0.42875961762E+02  0.00000000000E+00 0. -1.
         13    1    3    3    0    0  0.15518633770E+02 -0.26327745423E+02  0.32728512642E+02  0.44778719420E+02  0.00000000000E+00 0.  1.
<mgrwt>
<rscale>  0 0.87614440E+02</rscale>
<asrwt>0</asrwt>
<pdfrwt beam="2">  1        1 0.65383779E-02 0.87614440E+02</pdfrwt>
<pdfrwt beam="1">  1       -1 0.69469577E-02 0.87614440E+02</pdfrwt>
<totfact> 0.10232086E+05</totfact>
</mgrwt>
</event>
<event>
 5    1  0.6113696E+000  0.9124351E+02  0.7546771E-02  0.1299868E+00
         -2   -1    0    0    0  501 -0.00000000000E+00  0.00000000000E+00  0.15601001690E+03  0.15601001690E+03  0.00000000000E+00 0.  1.
          2   -1    0    0  501    0  0.00000000000E+00 -0.00000000000E+00 -0.13341095889E+02  0.13341095889E+02  0.00000000000E+00 0. -1.
         23    2    1    2    0    0  0.00000000000E+00  0.00000000000E+00  0.14266892101E+03  0.16935111279E+03  0.91243511441E+02 0.  0.
        -13    1    3    3    0    0  0.44305165475E+02 -0.10674200780E+02  0.67415481848E+02  0.81374034205E+02  0.00000000000E+00 0.  1.
         13    1    3    3    0    0 -0.44305165475E+02  0.10674200780E+02  0.75253439161E+02  0.87977078581E+02  0.00000000000E+00 0. -1.
<mgrwt>
<rscale>  0 0.91243511E+02</rscale>
<asrwt>0</asrwt>
<pdfrwt beam="2">  1        2 0.20524764E-02 0.91243511E+02</pdfrwt>
<pdfrwt beam="1">  1       -2 0.24001540E-01 0.91243511E+02</pdfrwt>
<totfact> 0.68726126E+04</totfact>
</mgrwt>
</event>
<event>
 5    1  0.6113696E+000  0.9079547E+02  0.7546771E-02  0.1300937E+00
         -1   -1    0    0    0  501 -0.00000000000E+00  0.00000000000E+00  0.27356489088E+03  0.27356489088E+03  0.00000000000E+00 0.  1.
          1   -1    0    0  501    0  0.00000000000E+00 -0.00000000000E+00 -0.75336938034E+01  0.75336938034E+01  0.00000000000E+00 0. -1.
         23    2    1    2    0    0  0.00000000000E+00  0.00000000000E+00  0.26603119707E+03  0.28109858468E+03  0.90795465156E+02 0.  0.
        -13    1    3    3    0    0  0.26755736534E+02 -0.36257944608E+02  0.15009845967E+03  0.15671648152E+03  0.00000000000E+00 0.  1.
         13    1    3    3    0    0 -0.26755736534E+02  0.36257944608E+02  0.11593273740E+03  0.12438210316E+03  0.00000000000E+00 0. -1.
<mgrwt>
<rscale>  0 0.90795465E+02</rscale>
<asrwt>0</asrwt>
<pdfrwt beam="2">  1        1 0.11590300E-02 0.90795465E+02</pdfrwt>
<pdfrwt beam="1">  1       -1 0.42086899E-01 0.90795465E+02</pdfrwt>
<totfact> 0.63434149E+04</totfact>
</mgrwt>
</event>
<event>
 5    1  0.6113696E+000  0.9020100E+02  0.7546771E-02  0.1302366E+00
         -1   -1    0    0    0  501 -0.00000000000E+00  0.00000000000E+00  0.12936793584E+02  0.12936793584E+02  0.00000000000E+00 0.  1.
          1   -1    0    0  501    0  0.00000000000E+00 -0.00000000000E+00 -0.15723022968E+03  0.15723022968E+03  0.00000000000E+00 0. -1.
         23    2    1    2    0    0  0.00000000000E+00  0.00000000000E+00 -0.14429343610E+03  0.17016702327E+03  0.90200998365E+02 0.  0.
        -13    1    3    3    0    0  0.62625564374E+01  0.34926370198E+02 -0.19628443717E+02  0.40550545633E+02  0.00000000000E+00 0.  1.
         13    1    3    3    0    0 -0.62625564374E+01 -0.34926370198E+02 -0.12466499238E+03  0.12961647763E+03  0.00000000000E+00 0. -1.
<mgrwt>
<rscale>  0 0.90200998E+02</rscale>
<asrwt>0</asrwt>
<pdfrwt beam="2">  1        1 0.24189265E-01 0.90200998E+02</pdfrwt>
<pdfrwt beam="1">  1       -1 0.19902760E-02 0.90200998E+02</pdfrwt>
<totfact> 0.11643611E+05</totfact>
</mgrwt>
</event>
<event>
 5    1  0.6113696E+000  0.9355585E+02  0.7546771E-02  0.1294462E+00
         -2   -1    0    0    0  501 -0.00000000000E+00  0.00000000000E+00  0.30149913153E+02  0.30149913153E+02  0.00000000000E+00 0.  1.
          2   -1    0    0  501    0  0.00000000000E+00 -0.00000000000E+00 -0.72576469551E+02  0.72576469551E+02  0.00000000000E+00 0. -1.
         23    2    1    2    0    0  0.00000000000E+00  0.00000000000E+00 -0.42426556398E+02  0.10272638270E+03  0.93555849715E+02 0.  0.
        -13    1    3    3    0    0 -0.26887505556E+02  0.12690534346E+02  0.18440166549E+02  0.34986102374E+02  0.00000000000E+00 0.  1.
         13    1    3    3    0    0  0.26887505556E+02 -0.12690534346E+02 -0.60866722947E+02  0.67740280331E+02  0.00000000000E+00 0. -1.
<mgrwt>
<rscale>  0 0.93555850E+02</rscale>
<asrwt>0</asrwt>
<pdfrwt beam="2">  1        2 0.11165611E-01 0.93555850E+02</pdfrwt>
<pdfrwt beam="1">  1       -2 0.46384482E-02 0.93555850E+02</pdfrwt>
<totfact> 0.10395942E+05</totfact>
</mgrwt>
</event>
<event>
 5    1  0.6113696E+000  0.9218974E+02  0.7546771E-02  0.1297634E+00
         -1   -1    0    0    0  501 -0.00000000000E+00  0.00000000000E+00  0.68927408710E+02  0.68927408710E+02  0.00000000000E+00 0.  1.
          1   -1    0    0  501    0  0.00000000000E+00 -0.00000000000E+00 -0.30825723842E+02  0.30825723842E+02  0.00000000000E+00 0. -1.
         23    2    1    2    0    0  0.00000000000E+00  0.00000000000E+00  0.38101684868E+02  0.99753132552E+02  0.92189744897E+02 0.  0.
        -13    1    3    3    0    0 -0.11003516753E+02 -0.30726973635E+02  0.54271468342E+02  0.63329428907E+02  0.00000000000E+00 0.  1.
         13    1    3    3    0    0  0.11003516753E+02  0.30726973635E+02 -0.16169783474E+02  0.36423703646E+02  0.00000000000E+00 0. -1.
<mgrwt>
<rscale>  0 0.92189745E+02</rscale>
<asrwt>0</asrwt>
<pdfrwt beam="2">  1        1 0.47424191E-02 0.92189745E+02</pdfrwt>
<pdfrwt beam="1">  1       -1 0.10604217E-01 0.92189745E+02</pdfrwt>
<totfact> 0.84344398E+04</totfact>
</mgrwt>
</event>
<event>
 5    1  0.6113696E+000  0.9263629E+02  0.7546771E-02  0.1296590E+00
          2   -1    0    0  501    0  0.00000000000E+00  0.00000000000E+00  0.60082341427E+01  0.60082341427E+01  0.00000000000E+00 0. -1.
         -2   -1    0    0    0  501 -0.00000000000E+00 -0.00000000000E+00 -0.35707170804E+03  0.35707170804E+03  0.00000000000E+00 0.  1.
         23    2    1    2    0    0  0.00000000000E+00  0.00000000000E+00 -0.35106347390E+03  0.36307994219E+03  0.92636287224E+02 0.  0.
        -13    1    3    3    0    0  0.46108886885E+02  0.15859245729E+01 -0.19160889387E+03  0.19708503956E+03  0.00000000000E+00 0.  1.
         13    1    3    3    0    0 -0.46108886885E+02 -0.15859245729E+01 -0.15945458003E+03  0.16599490263E+03  0.00000000000E+00 0. -1.
<mgrwt>
<rscale>  0 0.92636287E+02</rscale>
<asrwt>0</asrwt>
<pdfrwt beam="1">  1        2 0.92434350E-03 0.92636287E+02</pdfrwt>
<pdfrwt beam="2">  1       -2 0.54934121E-01 0.92636287E+02</pdfrwt>
<totfact> 0.44128156E+04</totfact>
</mgrwt>
</event>
<event>
 5    1  0.6113696E+000  0.9021434E+02  0.7546771E-02  0.1302333E+00
         -1   -1    0    0    0  501 -0.00000000000E+00  0.00000000000E+00  0.20623211691E+02  0.20623211691E+02  0.00000000000E+00 0.  1.
          1   -1    0    0  501    0  0.00000000000E+00 -0.00000000000E+00 -0.98658572385E+02  0.98658572385E+02  0.00000000000E+00 0. -1.
         23    2    1    2    0    0  0.00000000000E+00  0.00000000000E+00 -0.78035360694E+02  0.11928178408E+03  0.90214336410E+02 0.  0.
        -13    1    3    3    0    0 -0.22180982642E+02 -0.76488160278E+01  0.11919907994E+02  0.26317001808E+02  0.00000000000E+00 0.  1.
         13    1    3    3    0    0  0.22180982642E+02  0.76488160278E+01 -0.89955268688E+02  0.92964782269E+02  0.00000000000E+00 0. -1.
<mgrwt>
<rscale>  0 0.90214336E+02</rscale>
<asrwt>0</asrwt>
<pdfrwt beam="2">  1        1 0.15178242E-01 0.90214336E+02</pdfrwt>
<pdfrwt beam="1">  1       -1 0.31728018E-02 0.90214336E+02</pdfrwt>
<totfact> 0.10727393E+05</totfact>
</mgrwt>
</event>
<event>
 5    1  0.6113696E+000  0.9003526E+02  0.7546771E-02  0.1302766E+00
          3   -1    0    0  501    0  0.00000000000E+00  0.00000000000E+00  0.18118582880E+02  0.18118582880E+02  0.00000000000E+00 0. -1.
         -3   -1    0    0    0  501 -0.00000000000E+00 -0.00000000000E+00 -0.11185129333E+03  0.11185129333E+03  0.00000000000E+00 0.  1.
         23    2    1    2    0    0  0.00000000000E+00  0.00000000000E+00 -0.93732710449E+02  0.12996987621E+03  0.90035258170E+02 0.  0.
        -13    1    3    3    0    0  0.96706722303E+01  0.42342427590E+02 -0.63957812236E+02  0.77311091195E+02  0.00000000000E+00 0.  1.
         13    1    3    3    0    0 -0.96706722303E+01 -0.42342427590E+02 -0.29774898212E+02  0.52658785014E+02  0.00000000000E+00 0. -1.
<mgrwt>
<rscale>  0 0.90035258E+02</rscale>
<asrwt>0</asrwt>
<pdfrwt beam="1">  1        3 0.27874744E-02 0.90035258E+02</pdfrwt>
<pdfrwt beam="2">  1       -3 0.17207891E-01 0.90035258E+02</pdfrwt>
<totfact> 0.33709935E+04</totfact>
</mgrwt>
</event>
<event>
 5    1  0.6113696E+000  0.9335890E+02  0.7546771E-02  0.1294916E+00
         -3   -1    0    0    0  501 -0.00000000000E+00  0.00000000000E+00  0.92472821449E+02  0.92472821449E+02  0.00000000000E+00 0.  1.
          3   -1    0    0  501    0  0.00000000000E+00 -0.00000000000E+00 -0.23563365460E+02  0.23563365460E+02  0.00000000000E+00 0. -1.
         23    2    1    2    0    0  0.00000000000E+00  0.00000000000E+00  0.68909455989E+02  0.11603618691E+03  0.93358896456E+02 0.  0.
        -13    1    3    3    0    0 -0.12617653930E+02  0.11382869889E+02  0.88491718749E+02  0.90108596731E+02  0.00000000000E+00 0.  1.
         13    1    3    3    0    0  0.12617653930E+02 -0.11382869889E+02 -0.19582262760E+02  0.25927590178E+02  0.00000000000E+00 0. -1.
<mgrwt>
<rscale>  0 0.93358896E+02</rscale>
<asrwt>0</asrwt>
<pdfrwt beam="2">  1        3 0.36251332E-02 0.93358896E+02</pdfrwt>
<pdfrwt beam="1">  1       -3 0.14226588E-01 0.93358896E+02</pdfrwt>
<totfact> 0.31429214E+04</totfact>
</mgrwt>
</event>
<event>
 5    1  0.6113696E+000  0.9011740E+02  0.7546771E-02  0.1302568E+00
          1   -1    0    0  501    0  0.00000000000E+00  0.00000000000E+00  0.17022225886E+02  0.17022225886E+02  0.00000000000E+00 0. -1.
         -1   -1    0    0    0  501 -0.00000000000E+00 -0.00000000000E+00 -0.11927268967E+03  0.11927268967E+03  0.00000000000E+00 0.  1.
         23    2    1    2    0    0  0.00000000000E+00  0.00000000000E+00 -0.10225046378E+03  0.13629491555E+03  0.90117404879E+02 0.  0.
        -13    1    3    3    0    0  0.31737637703E+02  0.24890754837E+02 -0.81504049481E+02  0.90938096555E+02  0.00000000000E+00 0.  1.
         13    1    3    3    0    0 -0.31737637703E+02 -0.24890754837E+02 -0.20746414303E+02  0.45356818999E+02  0.00000000000E+00 0. -1.
<mgrwt>
<rscale>  0 0.90117405E+02</rscale>
<asrwt>0</asrwt>
<pdfrwt beam="1">  1        1 0.26188040E-02 0.90117405E+02</pdfrwt>
<pdfrwt beam="2">  1       -1 0.18349644E-01 0.90117405E+02</pdfrwt>
<totfact> 0.81037497E+04</totfact>
</mgrwt>
</event>
<event>
 5    1  0.6113696E+000  0.9246372E+02  0.7546771E-02  0.1296993E+00
         -2   -1    0    0    0  501 -0.00000000000E+00  0.00000000000E+00  0.31727469179E+02  0.31727469179E+02  0.00000000000E+00 0.  1.
          2   -1    0    0  501    0  0.00000000000E+00 -0.00000000000E+00 -0.67367009736E+02  0.67367009736E+02  0.00000000000E+00 0. -1.
         23    2    1    2    0    0  0.00000000000E+00  0.00000000000E+00 -0.35639540557E+02  0.99094478914E+02  0.92463716669E+02 0.  0.
        -13    1    3    3    0    0 -0.57054677221E+01 -0.22495913342E+02  0.25032180487E+02  0.34135444027E+02  0.00000000000E+00 0.  1.
         13    1    3    3    0    0  0.57054677221E+01  0.22495913342E+02 -0.60671721044E+02  0.64959034887E+02  0.00000000000E+00 0. -1.
<mgrwt>
<rscale>  0 0.92463717E+02</rscale>
<asrwt>0</asrwt>
<pdfrwt beam="2">  1        2 0.10364155E-01 0.92463717E+02</pdfrwt>
<pdfrwt beam="1">  1       -2 0.48811491E-02 0.92463717E+02</pdfrwt>
<totfact> 0.10523009E+05</totfact>
</mgrwt>
</event>
<event>
 5    1  0.6113696E+000  0.8164999E+02  0.7546771E-02  0.1324433E+00
          1   -1    0    0  501    0  0.00000000000E+00  0.00000000000E+00  0.88559322281E+01  0.88559322281E+01  0.00000000000E+00 0. -1.
         -1   -1    0    0    0  501 -0.00000000000E+00 -0.00000000000E+00 -0.18819931347E+03  0.18819931347E+03  0.00000000000E+00 0.  1.
         23    2    1    2    0    0  0.00000000000E+00  0.00000000000E+00 -0.17934338124E+03  0.19705524570E+03  0.81649993643E+02 0.  0.
        -13    1    3    3    0    0  0.35302277184E+02  0.12199580278E+02 -0.49897935658E+02  0.62328841769E+02  0.00000000000E+00 0. -1.
         13    1    3    3    0    0 -0.35302277184E+02 -0.12199580278E+02 -0.12944544558E+03  0.13472640393E+03  0.00000000000E+00 0.  1.
<mgrwt>
<rscale>  0 0.81649994E+02</rscale>
<asrwt>0</asrwt>
<pdfrwt beam="1">  1        1 0.13624512E-02 0.81649994E+02</pdfrwt>
<pdfrwt beam="2">  1       -1 0.28953738E-01 0.81649994E+02</pdfrwt>
<totfact> 0.94018656E+04</totfact>
</mgrwt>
</event>
<event>
 5    1  0.6113696E+000  0.9042168E+02  0.7546771E-02  0.1301834E+00
         -2   -1    0    0    0  501 -0.00000000000E+00  0.00000000000E+00  0.77308757926E+02  0.77308757926E+02  0.00000000000E+00 0.  1.
          2   -1    0    0  501    0  0.00000000000E+00 -0.00000000000E+00 -0.26439695885E+02  0.26439695885E+02  0.00000000000E+00 0. -1.
         23    2    1    2    0    0  0.00000000000E+00  0.00000000000E+00  0.50869062041E+02  0.10374845381E+03  0.90421679897E+02 0.  0.
        -13    1    3    3    0    0  0.27537821322E+02  0.22229287402E+02 -0.68465059870E+01  0.36046462598E+02  0.00000000000E+00 0. -1.
         13    1    3    3    0    0 -0.27537821322E+02 -0.22229287402E+02  0.57715568028E+02  0.67701991214E+02  0.00000000000E+00 0.  1.
<mgrwt>
<rscale>  0 0.90421680E+02</rscale>
<asrwt>0</asrwt>
<pdfrwt beam="2">  1        2 0.40676455E-02 0.90421680E+02</pdfrwt>
<pdfrwt beam="1">  1       -2 0.11893655E-01 0.90421680E+02</pdfrwt>
<totfact> 0.87651011E+04</totfact>
</mgrwt>
</event>
<event>
 5    1  0.6113696E+000  0.9224235E+02  0.7546771E-02  0.1297511E+00
          2   -1    0    0  501    0  0.00000000000E+00  0.00000000000E+00  0.44295342603E+02  0.44295342603E+02  0.00000000000E+00 0. -1.
         -2   -1    0    0    0  501 -0.00000000000E+00 -0.00000000000E+00 -0.48022263968E+02  0.48022263968E+02  0.00000000000E+00 0.  1.
         23    2    1    2    0    0  0.00000000000E+00  0.00000000000E+00 -0.37269213647E+01  0.92317606570E+02  0.92242346783E+02 0.  0.
        -13    1    3    3    0    0 -0.45616983792E+01  0.36447619770E+02 -0.29777515899E+02  0.47285711712E+02  0.00000000000E+00 0.  1.
         13    1    3    3    0    0  0.45616983792E+01 -0.36447619770E+02  0.26050594534E+02  0.45031894859E+02  0.00000000000E+00 0. -1.
<mgrwt>
<rscale>  0 0.92242347E+02</rscale>
<asrwt>0</asrwt>
<pdfrwt beam="1">  1        2 0.68146681E-02 0.92242347E+02</pdfrwt>
<pdfrwt beam="2">  1       -2 0.73880406E-02 0.92242347E+02</pdfrwt>
<totfact> 0.94716121E+04</totfact>
</mgrwt>
</event>
<event>
 5    1  0.6113696E+000  0.8870161E+02  0.7546771E-02  0.1306027E+00
          2   -1    0    0  501    0  0.00000000000E+00  0.00000000000E+00  0.27385711101E+02  0.27385711101E+02  0.00000000000E+00 0. -1.
         -2   -1    0    0    0  501 -0.00000000000E+00 -0.00000000000E+00 -0.71825554844E+02  0.71825554844E+02  0.00000000000E+00 0.  1.
         23    2    1    2    0    0  0.00000000000E+00  0.00000000000E+00 -0.44439843743E+02  0.99211265945E+02  0.88701609785E+02 0.  0.
        -13    1    3    3    0    0  0.43393652424E+02 -0.66257696566E+00 -0.11996604540E+02  0.45026287871E+02  0.00000000000E+00 0. -1.
         13    1    3    3    0    0 -0.43393652424E+02  0.66257696566E+00 -0.32443239203E+02  0.54184978074E+02  0.00000000000E+00 0.  1.
<mgrwt>
<rscale>  0 0.88701610E+02</rscale>
<asrwt>0</asrwt>
<pdfrwt beam="1">  1        2 0.42131863E-02 0.88701610E+02</pdfrwt>
<pdfrwt beam="2">  1       -2 0.11050085E-01 0.88701610E+02</pdfrwt>
<totfact> 0.93697617E+04</totfact>
</mgrwt>
</event>
<event>
 5    1  0.6113696E+000  0.9615330E+02  0.7546771E-02  0.1288600E+00
         -2   -1    0    0    0  501 -0.00000000000E+00  0.00000000000E+00  0.14657205011E+03  0.14657205011E+03  0.00000000000E+00 0.  1.
          2   -1    0    0  501    0  0.00000000000E+00 -0.00000000000E+00 -0.15769473443E+02  0.15769473443E+02  0.00000000000E+00 0. -1.
         23    2    1    2    0    0  0.00000000000E+00  0.00000000000E+00  0.13080257667E+03  0.16234152356E+03  0.96153295352E+02 0.  0.
        -13    1    3    3    0    0  0.34516210218E+02  0.30542939026E+02  0.88496948258E+02  0.99779505626E+02  0.00000000000E+00 0.  1.
         13    1    3    3    0    0 -0.34516210218E+02 -0.30542939026E+02  0.42305628412E+02  0.62562017930E+02  0.00000000000E+00 0. -1.
<mgrwt>
<rscale>  0 0.96153295E+02</rscale>
<asrwt>0</asrwt>
<pdfrwt beam="2">  1        2 0.24260729E-02 0.96153295E+02</pdfrwt>
<pdfrwt beam="1">  1       -2 0.22549545E-01 0.96153295E+02</pdfrwt>
<totfact> 0.61574609E+04</totfact>
</mgrwt>
</event>
<event>
 5    1  0.6113696E+000  0.1174561E+03  0.7546771E-02  0.1247354E+00
          1   -1    0    0  501    0  0.00000000000E+00  0.00000000000E+00  0.57616307701E+02  0.57616307701E+02  0.00000000000E+00 0. -1.
         -1   -1    0    0    0  501 -0.00000000000E+00 -0.00000000000E+00 -0.59861267628E+02  0.59861267628E+02  0.00000000000E+00 0.  1.
         23    2    1    2    0    0  0.00000000000E+00  0.00000000000E+00 -0.22449599275E+01  0.11747757533E+03  0.11745612313E+03 0.  0.
        -13    1    3    3    0    0  0.28537571563E+02  0.31801142583E+00 -0.52459148228E+02  0.59719815429E+02  0.00000000000E+00 0.  1.
         13    1    3    3    0    0 -0.28537571563E+02 -0.31801142583E+00  0.50214188301E+02  0.57757759900E+02  0.00000000000E+00 0. -1.
<mgrwt>
<rscale>  0 0.11745612E+03</rscale>
<asrwt>0</asrwt>
<pdfrwt beam="1">  1        1 0.88640473E-02 0.11745612E+03</pdfrwt>
<pdfrwt beam="2">  1       -1 0.92094258E-02 0.11745612E+03</pdfrwt>
<totfact> 0.46693059E+04</totfact>
</mgrwt>
</event>
<event>
 5    1  0.6113696E+000  0.9019988E+02  0.7546771E-02  0.1302368E+00
         -1   -1    0    0    0  501 -0.00000000000E+00  0.00000000000E+00  0.39282986841E+02  0.39282986841E+02  0.00000000000E+00 0.  1.
          1   -1    0    0  501    0  0.00000000000E+00 -0.00000000000E+00 -0.51778261003E+02  0.51778261003E+02  0.00000000000E+00 0. -1.
         23    2    1    2    0    0  0.00000000000E+00  0.00000000000E+00 -0.12495274162E+02  0.91061247844E+02  0.90199883495E+02 0.  0.
        -13    1    3    3    0    0 -0.44522470821E+02 -0.70064384635E+01 -0.45998253842E+01  0.45304513920E+02  0.00000000000E+00 0. -1.
         13    1    3    3    0    0  0.44522470821E+02  0.70064384635E+01 -0.78954487778E+01  0.45756733924E+02  0.00000000000E+00 0.  1.
<mgrwt>
<rscale>  0 0.90199883E+02</rscale>
<asrwt>0</asrwt>
<pdfrwt beam="2">  1        1 0.79658862E-02 0.90199883E+02</pdfrwt>
<pdfrwt beam="1">  1       -1 0.60435365E-02 0.90199883E+02</pdfrwt>
<totfact> 0.97129246E+04</totfact>
</mgrwt>
</event>
<event>
 5    1  0.6113696E+000  0.9936487E+02  0.7546771E-02  0.1281637E+00
         -1   -1    0    0    0  501 -0.00000000000E+00  0.00000000000E+00  0.67762930468E+01  0.67762930468E+01  0.00000000000E+00 0.  1.
          1   -1    0    0  501    0  0.00000000000E+00 -0.00000000000E+00 -0.36426176609E+03  0.36426176609E+03  0.00000000000E+00 0. -1.
         23    2    1    2    0    0  0.00000000000E+00  0.00000000000E+00 -0.35748547304E+03  0.37103805914E+03  0.99364872521E+02 0.  0.
        -13    1    3    3    0    0  0.31538642322E+02  0.37440156952E+02 -0.21040408213E+03  0.21602390861E+03  0.00000000000E+00 0. -1.
         13    1    3    3    0    0 -0.31538642322E+02 -0.37440156952E+02 -0.14708139091E+03  0.15501415053E+03  0.00000000000E+00 0.  1.
<mgrwt>
<rscale>  0 0.99364873E+02</rscale>
<asrwt>0</asrwt>
<pdfrwt beam="2">  1        1 0.56040283E-01 0.99364873E+02</pdfrwt>
<pdfrwt beam="1">  1       -1 0.10425064E-02 0.99364873E+02</pdfrwt>
<totfact> 0.10552113E+05</totfact>
</mgrwt>
</event>
<event>
 5    1  0.6113696E+000  0.9392331E+02  0.7546771E-02  0.1293620E+00
         -2   -1    0    0    0  501 -0.00000000000E+00  0.00000000000E+00  0.12773476282E+02  0.12773476282E+02  0.00000000000E+00 0.  1.
          2   -1    0    0  501    0  0.00000000000E+00 -0.00000000000E+00 -0.17265442724E+03  0.17265442724E+03  0.00000000000E+00 0. -1.
         23    2    1    2    0    0  0.00000000000E+00  0.00000000000E+00 -0.15988095096E+03  0.18542790352E+03  0.93923314066E+02 0.  0.
        -13    1    3    3    0    0 -0.25099415321E+02  0.39691041587E+02 -0.79556639981E+02  0.92382998418E+02  0.00000000000E+00 0. -1.
         13    1    3    3    0    0  0.25099415321E+02 -0.39691041587E+02 -0.80324310979E+02  0.93044905105E+02  0.00000000000E+00 0.  1.
<mgrwt>
<rscale>  0 0.93923314E+02</rscale>
<asrwt>0</asrwt>
<pdfrwt beam="2">  1        2 0.26562217E-01 0.93923314E+02</pdfrwt>
<pdfrwt beam="1">  1       -2 0.19651504E-02 0.93923314E+02</pdfrwt>
<totfact> 0.13543113E+05</totfact>
</mgrwt>
</event>
<event>
 5    1  0.6113696E+000  0.9249801E+02  0.7546771E-02  0.1296913E+00
          2   -1    0    0  501    0  0.00000000000E+00  0.00000000000E+00  0.35758104695E+03  0.35758104695E+03  0.00000000000E+00 0. -1.
         -2   -1    0    0    0  501 -0.00000000000E+00 -0.00000000000E+00 -0.59817778145E+01  0.59817778145E+01  0.00000000000E+00 0.  1.
         23    2    1    2    0    0  0.00000000000E+00  0.00000000000E+00  0.35159926914E+03  0.36356282477E+03  0.92498008055E+02 0.  0.
        -13    1    3    3    0    0  0.41365176597E+02  0.68791216639E+01  0.99122744230E+02  0.10762768498E+03  0.00000000000E+00 0.  1.
         13    1    3    3    0    0 -0.41365176597E+02 -0.68791216639E+01  0.25247652491E+03  0.25593513979E+03  0.00000000000E+00 0. -1.
<mgrwt>
<rscale>  0 0.92498008E+02</rscale>
<asrwt>0</asrwt>
<pdfrwt beam="1">  1        2 0.55012452E-01 0.92498008E+02</pdfrwt>
<pdfrwt beam="2">  1       -2 0.92027379E-03 0.92498008E+02</pdfrwt>
<totfact> 0.18448631E+05</totfact>
</mgrwt>
</event>
<event>
 4    1  0.6113696E+000  0.1464825E+03  0.7546771E-02  0.1204863E+00
          2   -1    0    0  501    0  0.00000000000E+00  0.00000000000E+00  0.22252913938E+03  0.22252913938E+03  0.00000000000E+00 0. -1.
         -2   -1    0    0    0  501 -0.00000000000E+00 -0.00000000000E+00 -0.24105957034E+02  0.24105957034E+02  0.00000000000E+00 0.  1.
        -13    1    1    2    0    0  0.55585330398E+02 -0.15836069453E+02  0.17495582752E+03  0.18425539785E+03  0.00000000000E+00 0.  1.
         13    1    1    2    0    0 -0.55585330398E+02  0.15836069453E+02  0.23467354825E+02  0.62379698570E+02  0.00000000000E+00 0. -1.
<mgrwt>
<rscale>  0 0.14648246E+03</rscale>
<asrwt>0</asrwt>
<pdfrwt beam="1">  1        2 0.34235251E-01 0.14648246E+03</pdfrwt>
<pdfrwt beam="2">  1       -2 0.37086089E-02 0.14648246E+03</pdfrwt>
<totfact> 0.43293728E+04</totfact>
</mgrwt>
</event>
<event>
 5    1  0.6113696E+000  0.9438189E+02  0.7546771E-02  0.1292574E+00
          2   -1    0    0  501    0  0.00000000000E+00  0.00000000000E+00  0.12625657628E+02  0.12625657628E+02  0.00000000000E+00 0. -1.
         -2   -1    0    0    0  501 -0.00000000000E+00 -0.00000000000E+00 -0.17638568709E+03  0.17638568709E+03  0.00000000000E+00 0.  1.
         23    2    1    2    0    0  0.00000000000E+00  0.00000000000E+00 -0.16376002946E+03  0.18901134472E+03  0.94381890120E+02 0.  0.
        -13    1    3    3    0    0  0.29401627691E+02 -0.36225512667E+02 -0.96074899430E+02  0.10680416555E+03  0.00000000000E+00 0.  1.
         13    1    3    3    0    0 -0.29401627691E+02  0.36225512667E+02 -0.67685130033E+02  0.82207179166E+02  0.00000000000E+00 0. -1.
<mgrwt>
<rscale>  0 0.94381890E+02</rscale>
<asrwt>0</asrwt>
<pdfrwt beam="1">  1        2 0.19424090E-02 0.94381890E+02</pdfrwt>
<pdfrwt beam="2">  1       -2 0.27136258E-01 0.94381890E+02</pdfrwt>
<totfact> 0.60135894E+04</totfact>
</mgrwt>
</event>
<event>
 5    1  0.6113696E+000  0.9316221E+02  0.7546771E-02  0.1295370E+00
         -4   -1    0    0    0  501 -0.00000000000E+00  0.00000000000E+00  0.10371458184E+03  0.10371458184E+03  0.00000000000E+00 0.  1.
          4   -1    0    0  501    0  0.00000000000E+00 -0.00000000000E+00 -0.20920871841E+02  0.20920871841E+02  0.00000000000E+00 0. -1.
         23    2    1    2    0    0  0.00000000000E+00  0.00000000000E+00  0.82793710001E+02  0.12463545368E+03  0.93162212827E+02 0.  0.
        -13    1    3    3    0    0  0.66738595002E+01 -0.34008387097E+02  0.83035243784E+02  0.89977566670E+02  0.00000000000E+00 0.  1.
         13    1    3    3    0    0 -0.66738595002E+01  0.34008387097E+02 -0.24153378349E+00  0.34657887012E+02  0.00000000000E+00 0. -1.
<mgrwt>
<rscale>  0 0.93162213E+02</rscale>
<asrwt>0</asrwt>
<pdfrwt beam="2">  1        4 0.32185957E-02 0.93162213E+02</pdfrwt>
<pdfrwt beam="1">  1       -4 0.15956089E-01 0.93162213E+02</pdfrwt>
<totfact> 0.23594686E+04</totfact>
</mgrwt>
</event>
<event>
 5    1  0.6113696E+000  0.6921871E+02  0.7546771E-02  0.1362770E+00
         -1   -1    0    0    0  501 -0.00000000000E+00  0.00000000000E+00  0.57524289230E+02  0.57524289230E+02  0.00000000000E+00 0.  1.
          1   -1    0    0  501    0  0.00000000000E+00 -0.00000000000E+00 -0.20822637796E+02  0.20822637796E+02  0.00000000000E+00 0. -1.
         23    2    1    2    0    0  0.00000000000E+00  0.00000000000E+00  0.36701651434E+02  0.78346927026E+02  0.69218709584E+02 0.  0.
        -13    1    3    3    0    0  0.15841429422E+02 -0.30242287831E+02  0.11921957075E+02  0.36161857252E+02  0.00000000000E+00 0.  1.
         13    1    3    3    0    0 -0.15841429422E+02  0.30242287831E+02  0.24779694358E+02  0.42185069774E+02  0.00000000000E+00 0. -1.
<mgrwt>
<rscale>  0 0.69218710E+02</rscale>
<asrwt>0</asrwt>
<pdfrwt beam="2">  1        1 0.32034827E-02 0.69218710E+02</pdfrwt>
<pdfrwt beam="1">  1       -1 0.88498906E-02 0.69218710E+02</pdfrwt>
<totfact> 0.17893535E+05</totfact>
</mgrwt>
</event>
<event>
 5    1  0.6113696E+000  0.9067799E+02  0.7546771E-02  0.1301218E+00
         -1   -1    0    0    0  501 -0.00000000000E+00  0.00000000000E+00  0.48995215615E+02  0.48995215615E+02  0.00000000000E+00 0.  1.
          1   -1    0    0  501    0  0.00000000000E+00 -0.00000000000E+00 -0.41955619726E+02  0.41955619726E+02  0.00000000000E+00 0. -1.
         23    2    1    2    0    0  0.00000000000E+00  0.00000000000E+00  0.70395958887E+01  0.90950835341E+02  0.90677993686E+02 0.  0.
        -13    1    3    3    0    0  0.25012605580E+02 -0.23761319187E+02 -0.25986295018E+02  0.43191645675E+02  0.00000000000E+00 0. -1.
         13    1    3    3    0    0 -0.25012605580E+02  0.23761319187E+02  0.33025890906E+02  0.47759189666E+02  0.00000000000E+00 0.  1.
<mgrwt>
<rscale>  0 0.90677994E+02</rscale>
<asrwt>0</asrwt>
<pdfrwt beam="2">  1        1 0.64547107E-02 0.90677994E+02</pdfrwt>
<pdfrwt beam="1">  1       -1 0.75377255E-02 0.90677994E+02</pdfrwt>
<totfact> 0.92743591E+04</totfact>
</mgrwt>
</event>
<event>
 5    1  0.6113696E+000  0.1033908E+03  0.7546771E-02  0.1273323E+00
          2   -1    0    0  501    0  0.00000000000E+00  0.00000000000E+00  0.14290454598E+02  0.14290454598E+02  0.00000000000E+00 0. -1.
         -2   -1    0    0    0  501 -0.00000000000E+00 -0.00000000000E+00 -0.18700682831E+03  0.18700682831E+03  0.00000000000E+00 0.  1.
         23    2    1    2    0    0  0.00000000000E+00  0.00000000000E+00 -0.17271637371E+03  0.20129728291E+03  0.10339076534E+03 0.  0.
        -13    1    3    3    0    0  0.33751532602E+02  0.28424324629E+02 -0.33923784718E+02  0.55659063531E+02  0.00000000000E+00 0. -1.
         13    1    3    3    0    0 -0.33751532602E+02 -0.28424324629E+02 -0.13879258899E+03  0.14563821938E+03  0.00000000000E+00 0.  1.
<mgrwt>
<rscale>  0 0.10339077E+03</rscale>
<asrwt>0</asrwt>
<pdfrwt beam="1">  1        2 0.21985317E-02 0.10339077E+03</pdfrwt>
<pdfrwt beam="2">  1       -2 0.28770278E-01 0.10339077E+03</pdfrwt>
<totfact> 0.46515484E+04</totfact>
</mgrwt>
</event>
<event>
 5    1  0.6113696E+000  0.8240681E+02  0.7546771E-02  0.1322357E+00
          1   -1    0    0  501    0  0.00000000000E+00  0.00000000000E+00  0.25793361781E+03  0.25793361781E+03  0.00000000000E+00 0. -1.
         -1   -1    0    0    0  501 -0.00000000000E+00 -0.00000000000E+00 -0.65820057307E+01  0.65820057307E+01  0.00000000000E+00 0.  1.
         23    2    1    2    0    0  0.00000000000E+00  0.00000000000E+00  0.25135161208E+03  0.26451562354E+03  0.82406809198E+02 0.  0.
        -13    1    3    3    0    0 -0.39136114380E+02 -0.64499148796E+01  0.16148911703E+03  0.16628882034E+03  0.00000000000E+00 0. -1.
         13    1    3    3    0    0  0.39136114380E+02  0.64499148796E+01  0.89862495054E+02  0.98226803206E+02  0.00000000000E+00 0.  1.
<mgrwt>
<rscale>  0 0.82406809E+02</rscale>
<asrwt>0</asrwt>
<pdfrwt beam="1">  1        1 0.39682087E-01 0.82406809E+02</pdfrwt>
<pdfrwt beam="2">  1       -1 0.10126165E-02 0.82406809E+02</pdfrwt>
<totfact> 0.16274733E+05</totfact>
</mgrwt>
</event>
<event>
 5    1  0.6113696E+000  0.9046556E+02  0.7546771E-02  0.1301728E+00
          2   -1    0    0  501    0  0.00000000000E+00  0.00000000000E+00  0.39898018313E+03  0.39898018313E+03  0.00000000000E+00 0. -1.
         -2   -1    0    0    0  501 -0.00000000000E+00 -0.00000000000E+00 -0.51280850290E+01  0.51280850290E+01  0.00000000000E+00 0.  1.
         23    2    1    2    0    0  0.00000000000E+00  0.00000000000E+00  0.39385209810E+03  0.40410826816E+03  0.90465558175E+02 0.  0.
        -13    1    3    3    0    0  0.41014124164E+02 -0.18732001157E+02  0.18084611029E+03  0.18638230027E+03  0.00000000000E+00 0.  1.
         13    1    3    3    0    0 -0.41014124164E+02  0.18732001157E+02  0.21300598781E+03  0.21772596788E+03  0.00000000000E+00 0. -1.
<mgrwt>
<rscale>  0 0.90465558E+02</rscale>
<asrwt>0</asrwt>
<pdfrwt beam="1">  1        2 0.61381542E-01 0.90465558E+02</pdfrwt>
<pdfrwt beam="2">  1       -2 0.78893647E-03 0.90465558E+02</pdfrwt>
<totfact> 0.20362996E+05</totfact>
</mgrwt>
</event>
<event>
 5    1  0.6113696E+000  0.9204678E+02  0.7546771E-02  0.1297969E+00
          1   -1    0    0  501    0  0.00000000000E+00  0.00000000000E+00  0.22166844632E+03  0.22166844632E+03  0.00000000000E+00 0.  1.
         -1   -1    0    0    0  501 -0.00000000000E+00 -0.00000000000E+00 -0.95554991244E+01  0.95554991244E+01  0.00000000000E+00 0. -1.
         23    2    1    2    0    0  0.00000000000E+00  0.00000000000E+00  0.21211294719E+03  0.23122394544E+03  0.92046784728E+02 0.  0.
        -13    1    3    3    0    0 -0.23767748045E+02 -0.26941780017E+02  0.17831325398E+03  0.18189662422E+03  0.00000000000E+00 0.  1.
         13    1    3    3    0    0  0.23767748045E+02  0.26941780017E+02  0.33799693212E+02  0.49327321221E+02  0.00000000000E+00 0. -1.
<mgrwt>
<rscale>  0 0.92046785E+02</rscale>
<asrwt>0</asrwt>
<pdfrwt beam="1">  1        1 0.34102834E-01 0.92046785E+02</pdfrwt>
<pdfrwt beam="2">  1       -1 0.14700770E-02 0.92046785E+02</pdfrwt>
<totfact> 0.11776536E+05</totfact>
</mgrwt>
</event>
<event>
 5    1  0.6113696E+000  0.9257124E+02  0.7546771E-02  0.1296742E+00
          1   -1    0    0  501    0  0.00000000000E+00  0.00000000000E+00  0.12630372681E+03  0.12630372681E+03  0.00000000000E+00 0. -1.
         -1   -1    0    0    0  501 -0.00000000000E+00 -0.00000000000E+00 -0.16961957537E+02  0.16961957537E+02  0.00000000000E+00 0.  1.
         23    2    1    2    0    0  0.00000000000E+00  0.00000000000E+00  0.10934176928E+03  0.14326568435E+03  0.92571236373E+02 0.  0.
        -13    1    3    3    0    0  0.55197645422E+01 -0.45220429785E+02  0.42002697470E+02  0.61964358024E+02  0.00000000000E+00 0.  1.
         13    1    3    3    0    0 -0.55197645422E+01  0.45220429785E+02  0.67339071806E+02  0.81301326325E+02  0.00000000000E+00 0. -1.
<mgrwt>
<rscale>  0 0.92571236E+02</rscale>
<asrwt>0</asrwt>
<pdfrwt beam="1">  1        1 0.19431342E-01 0.92571236E+02</pdfrwt>
<pdfrwt beam="2">  1       -1 0.26095320E-02 0.92571236E+02</pdfrwt>
<totfact> 0.10432375E+05</totfact>
</mgrwt>
</event>
<event>
 5    1  0.6113696E+000  0.9025468E+02  0.7546771E-02  0.1302236E+00
         -1   -1    0    0    0  501 -0.00000000000E+00  0.00000000000E+00  0.11379293566E+03  0.11379293566E+03  0.00000000000E+00 0.  1.
          1   -1    0    0  501    0  0.00000000000E+00 -0.00000000000E+00 -0.17896339542E+02  0.17896339542E+02  0.00000000000E+00 0. -1.
         23    2    1    2    0    0  0.00000000000E+00  0.00000000000E+00  0.95896596118E+02  0.13168927520E+03  0.90254684400E+02 0.  0.
        -13    1    3    3    0    0 -0.37650001539E+02  0.82589580659E+01  0.13706580036E+02  0.40909697390E+02  0.00000000000E+00 0. -1.
         13    1    3    3    0    0  0.37650001539E+02 -0.82589580659E+01  0.82190016082E+02  0.90779577812E+02  0.00000000000E+00 0.  1.
<mgrwt>
<rscale>  0 0.90254684E+02</rscale>
<asrwt>0</asrwt>
<pdfrwt beam="2">  1        1 0.27532831E-02 0.90254684E+02</pdfrwt>
<pdfrwt beam="1">  1       -1 0.17506605E-01 0.90254684E+02</pdfrwt>
<totfact> 0.81485134E+04</totfact>
</mgrwt>
</event>
<event>
 5    1  0.6113696E+000  0.9014016E+02  0.7546771E-02  0.1302513E+00
          4   -1    0    0  501    0  0.00000000000E+00  0.00000000000E+00  0.15481119757E+02  0.15481119757E+02  0.00000000000E+00 0. -1.
         -4   -1    0    0    0  501 -0.00000000000E+00 -0.00000000000E+00 -0.13121221186E+03  0.13121221186E+03  0.00000000000E+00 0.  1.
         23    2    1    2    0    0  0.00000000000E+00  0.00000000000E+00 -0.11573109210E+03  0.14669333161E+03  0.90140156763E+02 0.  0.
        -13    1    3    3    0    0 -0.19454167225E+02 -0.36935569051E+02 -0.30218510914E+02  0.51535029692E+02  0.00000000000E+00 0.  1.
         13    1    3    3    0    0  0.19454167225E+02  0.36935569051E+02 -0.85512581187E+02  0.95158301922E+02  0.00000000000E+00 0. -1.
<mgrwt>
<rscale>  0 0.90140157E+02</rscale>
<asrwt>0</asrwt>
<pdfrwt beam="1">  1        4 0.23817107E-02 0.90140157E+02</pdfrwt>
<pdfrwt beam="2">  1       -4 0.20186494E-01 0.90140157E+02</pdfrwt>
<totfact> 0.24583714E+04</totfact>
</mgrwt>
</event>
<event>
 5    1  0.6113696E+000  0.9070919E+02  0.7546771E-02  0.1301143E+00
          2   -1    0    0  501    0  0.00000000000E+00  0.00000000000E+00  0.23275571526E+03  0.23275571526E+03  0.00000000000E+00 0. -1.
         -2   -1    0    0    0  501 -0.00000000000E+00 -0.00000000000E+00 -0.88377613025E+01  0.88377613025E+01  0.00000000000E+00 0.  1.
         23    2    1    2    0    0  0.00000000000E+00  0.00000000000E+00  0.22391795396E+03  0.24159347657E+03  0.90709193653E+02 0.  0.
        -13    1    3    3    0    0  0.41215543853E+02  0.35293960327E+01  0.62427055958E+02  0.74888684106E+02  0.00000000000E+00 0.  1.
         13    1    3    3    0    0 -0.41215543853E+02 -0.35293960327E+01  0.16149089800E+03  0.16670479246E+03  0.00000000000E+00 0. -1.
<mgrwt>
<rscale>  0 0.90709194E+02</rscale>
<asrwt>0</asrwt>
<pdfrwt beam="1">  1        2 0.35808567E-01 0.90709194E+02</pdfrwt>
<pdfrwt beam="2">  1       -2 0.13596558E-02 0.90709194E+02</pdfrwt>
<totfact> 0.16575872E+05</totfact>
</mgrwt>
</event>
<event>
 5    1  0.6113696E+000  0.9393161E+02  0.7546771E-02  0.1293601E+00
         -1   -1    0    0    0  501 -0.00000000000E+00  0.00000000000E+00  0.10732546576E+02  0.10732546576E+02  0.00000000000E+00 0.  1.
          1   -1    0    0  501    0  0.00000000000E+00 -0.00000000000E+00 -0.20552313726E+03  0.20552313726E+03  0.00000000000E+00 0. -1.
         23    2    1    2    0    0  0.00000000000E+00  0.00000000000E+00 -0.19479059069E+03  0.21625568384E+03  0.93931605820E+02 0.  0.
        -13    1    3    3    0    0 -0.33204227280E+02 -0.12682603720E+02 -0.16807218911E+03  0.17178949298E+03  0.00000000000E+00 0. -1.
         13    1    3    3    0    0  0.33204227280E+02  0.12682603720E+02 -0.26718401572E+02  0.44466190852E+02  0.00000000000E+00 0.  1.
<mgrwt>
<rscale>  0 0.93931606E+02</rscale>
<asrwt>0</asrwt>
<pdfrwt beam="2">  1        1 0.31618944E-01 0.93931606E+02</pdfrwt>
<pdfrwt beam="1">  1       -1 0.16511610E-02 0.93931606E+02</pdfrwt>
<totfact> 0.10988485E+05</totfact>
</mgrwt>
</event>
<event>
 5    1  0.6113696E+000  0.9089165E+02  0.7546771E-02  0.1300707E+00
          2   -1    0    0  501    0  0.00000000000E+00  0.00000000000E+00  0.39533206572E+02  0.39533206572E+02  0.00000000000E+00 0. -1.
         -2   -1    0    0    0  501 -0.00000000000E+00 -0.00000000000E+00 -0.52242738816E+02  0.52242738816E+02  0.00000000000E+00 0.  1.
         23    2    1    2    0    0  0.00000000000E+00  0.00000000000E+00 -0.12709532243E+02  0.91775945388E+02  0.90891649462E+02 0.  0.
        -13    1    3    3    0    0  0.25392224877E+02  0.23044231646E+00  0.31701505175E+02  0.40617774658E+02  0.00000000000E+00 0. -1.
         13    1    3    3    0    0 -0.25392224877E+02 -0.23044231646E+00 -0.44411037418E+02  0.51158170730E+02  0.00000000000E+00 0.  1.
<mgrwt>
<rscale>  0 0.90891649E+02</rscale>
<asrwt>0</asrwt>
<pdfrwt beam="1">  1        2 0.60820318E-02 0.90891649E+02</pdfrwt>
<pdfrwt beam="2">  1       -2 0.80373444E-02 0.90891649E+02</pdfrwt>
<totfact> 0.95966409E+04</totfact>
</mgrwt>
</event>
<event>
 5    1  0.6113696E+000  0.9035499E+02  0.7546771E-02  0.1301994E+00
          1   -1    0    0  501    0  0.00000000000E+00  0.00000000000E+00  0.70367693182E+02  0.70367693182E+02  0.00000000000E+00 0. -1.
         -1   -1    0    0    0  501 -0.00000000000E+00 -0.00000000000E+00 -0.29004875898E+02  0.29004875898E+02  0.00000000000E+00 0.  1.
         23    2    1    2    0    0  0.00000000000E+00  0.00000000000E+00  0.41362817284E+02  0.99372569080E+02  0.90354993398E+02 0.  0.
        -13    1    3    3    0    0 -0.27075468131E+02  0.34410653880E+02  0.84428284955E+01  0.44592100510E+02  0.00000000000E+00 0.  1.
         13    1    3    3    0    0  0.27075468131E+02 -0.34410653880E+02  0.32919988788E+02  0.54780468570E+02  0.00000000000E+00 0. -1.
<mgrwt>
<rscale>  0 0.90354993E+02</rscale>
<asrwt>0</asrwt>
<pdfrwt beam="1">  1        1 0.10825799E-01 0.90354993E+02</pdfrwt>
<pdfrwt beam="2">  1       -1 0.44622886E-02 0.90354993E+02</pdfrwt>
<totfact> 0.10123996E+05</totfact>
</mgrwt>
</event>
<event>
 5    1  0.6113696E+000  0.8380583E+02  0.7546771E-02  0.1318585E+00
         -3   -1    0    0    0  501 -0.00000000000E+00  0.00000000000E+00  0.22265954356E+03  0.22265954356E+03  0.00000000000E+00 0.  1.
          3   -1    0    0  501    0  0.00000000000E+00 -0.00000000000E+00 -0.78858257604E+01  0.78858257604E+01  0.00000000000E+00 0. -1.
         23    2    1    2    0    0  0.00000000000E+00  0.00000000000E+00  0.21477371780E+03  0.23054536932E+03  0.83805831883E+02 0.  0.
        -13    1    3    3    0    0  0.11730881470E+02  0.39964618827E+02  0.94759436708E+02  0.10350910676E+03  0.00000000000E+00 0. -1.
         13    1    3    3    0    0 -0.11730881470E+02 -0.39964618827E+02  0.12001428109E+03  0.12703626255E+03  0.00000000000E+00 0.  1.
<mgrwt>
<rscale>  0 0.83805832E+02</rscale>
<asrwt>0</asrwt>
<pdfrwt beam="2">  1        3 0.12132041E-02 0.83805832E+02</pdfrwt>
<pdfrwt beam="1">  1       -3 0.34255310E-01 0.83805832E+02</pdfrwt>
<totfact> 0.33821112E+04</totfact>
</mgrwt>
</event>
<event>
 5    1  0.6113696E+000  0.9059860E+02  0.7546771E-02  0.1301409E+00
         -4   -1    0    0    0  501 -0.00000000000E+00  0.00000000000E+00  0.75052930091E+02  0.75052930091E+02  0.00000000000E+00 0.  1.
          4   -1    0    0  501    0  0.00000000000E+00 -0.00000000000E+00 -0.27341058338E+02  0.27341058338E+02  0.00000000000E+00 0. -1.
         23    2    1    2    0    0  0.00000000000E+00  0.00000000000E+00  0.47711871753E+02  0.10239398843E+03  0.90598599107E+02 0.  0.
        -13    1    3    3    0    0 -0.92407330642E+01  0.24023570292E+02 -0.18273223566E+02  0.31566339297E+02  0.00000000000E+00 0. -1.
         13    1    3    3    0    0  0.92407330642E+01 -0.24023570292E+02  0.65985095319E+02  0.70827649131E+02  0.00000000000E+00 0.  1.
<mgrwt>
<rscale>  0 0.90598599E+02</rscale>
<asrwt>0</asrwt>
<pdfrwt beam="2">  1        4 0.42063167E-02 0.90598599E+02</pdfrwt>
<pdfrwt beam="1">  1       -4 0.11546605E-01 0.90598599E+02</pdfrwt>
<totfact> 0.26767703E+04</totfact>
</mgrwt>
</event>
<event>
 5    1  0.6113696E+000  0.9143834E+02  0.7546771E-02  0.1299405E+00
          2   -1    0    0  501    0  0.00000000000E+00  0.00000000000E+00  0.30532857720E+03  0.30532857720E+03  0.00000000000E+00 0. -1.
         -2   -1    0    0    0  501 -0.00000000000E+00 -0.00000000000E+00 -0.68458783278E+01  0.68458783278E+01  0.00000000000E+00 0.  1.
         23    2    1    2    0    0  0.00000000000E+00  0.00000000000E+00  0.29848269887E+03  0.31217445552E+03  0.91438335275E+02 0.  0.
        -13    1    3    3    0    0  0.22407901892E+02  0.39801510855E+02  0.15604203152E+03  0.16258963662E+03  0.00000000000E+00 0.  1.
         13    1    3    3    0    0 -0.22407901892E+02 -0.39801510855E+02  0.14244066735E+03  0.14958481891E+03  0.00000000000E+00 0. -1.
<mgrwt>
<rscale>  0 0.91438335E+02</rscale>
<asrwt>0</asrwt>
<pdfrwt beam="1">  1        2 0.46973617E-01 0.91438335E+02</pdfrwt>
<pdfrwt beam="2">  1       -2 0.10532123E-02 0.91438335E+02</pdfrwt>
<totfact> 0.17946397E+05</totfact>
</mgrwt>
</event>
<event>
 5    1  0.6113696E+000  0.9002230E+02  0.7546771E-02  0.1302798E+00
          2   -1    0    0  501    0  0.00000000000E+00  0.00000000000E+00  0.34292752385E+02  0.34292752385E+02  0.00000000000E+00 0. -1.
         -2   -1    0    0    0  501 -0.00000000000E+00 -0.00000000000E+00 -0.59079643440E+02  0.59079643440E+02  0.00000000000E+00 0.  1.
         23    2    1    2    0    0  0.00000000000E+00  0.00000000000E+00 -0.24786891056E+02  0.93372395825E+02  0.90022299092E+02 0.  0.
        -13    1    3    3    0    0 -0.67599246278E+01 -0.29639614205E+02  0.22035192277E+02  0.37546677748E+02  0.00000000000E+00 0. -1.
         13    1    3    3    0    0  0.67599246278E+01  0.29639614205E+02 -0.46822083333E+02  0.55825718077E+02  0.00000000000E+00 0.  1.
<mgrwt>
<rscale>  0 0.90022299E+02</rscale>
<asrwt>0</asrwt>
<pdfrwt beam="1">  1        2 0.52758081E-02 0.90022299E+02</pdfrwt>
<pdfrwt beam="2">  1       -2 0.90891758E-02 0.90022299E+02</pdfrwt>
<totfact> 0.95129754E+04</totfact>
</mgrwt>
</event>
<event>
 5    1  0.6113696E+000  0.9226941E+02  0.7546771E-02  0.1297447E+00
         -1   -1    0    0    0  501 -0.00000000000E+00  0.00000000000E+00  0.12590000150E+02  0.12590000150E+02  0.00000000000E+00 0.  1.
          1   -1    0    0  501    0  0.00000000000E+00 -0.00000000000E+00 -0.16905567402E+03  0.16905567402E+03  0.00000000000E+00 0. -1.
         23    2    1    2    0    0  0.00000000000E+00  0.00000000000E+00 -0.15646567387E+03  0.18164567417E+03  0.92269409043E+02 0.  0.
        -13    1    3    3    0    0 -0.43534227343E+01 -0.31888714815E+02 -0.14330446399E+03  0.14687413599E+03  0.00000000000E+00 0. -1.
         13    1    3    3    0    0  0.43534227343E+01  0.31888714815E+02 -0.13161209877E+02  0.34771538181E+02  0.00000000000E+00 0.  1.
<mgrwt>
<rscale>  0 0.92269409E+02</rscale>
<asrwt>0</asrwt>
<pdfrwt beam="2">  1        1 0.26008563E-01 0.92269409E+02</pdfrwt>
<pdfrwt beam="1">  1       -1 0.19369233E-02 0.92269409E+02</pdfrwt>
<totfact> 0.11103360E+05</totfact>
</mgrwt>
</event>
<event>
 5    1  0.6113696E+000  0.9139397E+02  0.7546771E-02  0.1299511E+00
         -2   -1    0    0    0  501 -0.00000000000E+00  0.00000000000E+00  0.39918375119E+02  0.39918375119E+02  0.00000000000E+00 0.  1.
          2   -1    0    0  501    0  0.00000000000E+00 -0.00000000000E+00 -0.52312111246E+02  0.52312111246E+02  0.00000000000E+00 0. -1.
         23    2    1    2    0    0  0.00000000000E+00  0.00000000000E+00 -0.12393736128E+02  0.92230486365E+02  0.91393970917E+02 0.  0.
        -13    1    3    3    0    0  0.37348307194E+02 -0.11944536294E+02  0.17483769253E+02  0.42933089626E+02  0.00000000000E+00 0.  1.
         13    1    3    3    0    0 -0.37348307194E+02  0.11944536294E+02 -0.29877505381E+02  0.49297396739E+02  0.00000000000E+00 0. -1.
<mgrwt>
<rscale>  0 0.91393971E+02</rscale>
<asrwt>0</asrwt>
<pdfrwt beam="2">  1        2 0.80480171E-02 0.91393971E+02</pdfrwt>
<pdfrwt beam="1">  1       -2 0.61412885E-02 0.91393971E+02</pdfrwt>
<totfact> 0.10159154E+05</totfact>
</mgrwt>
</event>
<event>
 5    1  0.6113696E+000  0.9177490E+02  0.7546771E-02  0.1298610E+00
          1   -1    0    0  501    0  0.00000000000E+00  0.00000000000E+00  0.58975553182E+02  0.58975553182E+02  0.00000000000E+00 0. -1.
         -1   -1    0    0    0  501 -0.00000000000E+00 -0.00000000000E+00 -0.35703915007E+02  0.35703915007E+02  0.00000000000E+00 0.  1.
         23    2    1    2    0    0  0.00000000000E+00  0.00000000000E+00  0.23271638175E+02  0.94679468190E+02  0.91774901544E+02 0.  0.
        -13    1    3    3    0    0  0.19661646342E+02 -0.41412075176E+02  0.95423519655E+01  0.46825172593E+02  0.00000000000E+00 0. -1.
         13    1    3    3    0    0 -0.19661646342E+02  0.41412075176E+02  0.13729286209E+02  0.47854295597E+02  0.00000000000E+00 0.  1.
<mgrwt>
<rscale>  0 0.91774902E+02</rscale>
<asrwt>0</asrwt>
<pdfrwt beam="1">  1        1 0.90731620E-02 0.91774902E+02</pdfrwt>
<pdfrwt beam="2">  1       -1 0.54929100E-02 0.91774902E+02</pdfrwt>
<totfact> 0.94389472E+04</totfact>
</mgrwt>
</event>
<event>
 5    1  0.6113696E+000  0.9702348E+02  0.7546771E-02  0.1286683E+00
          2   -1    0    0  501    0  0.00000000000E+00  0.00000000000E+00  0.76779407087E+02  0.76779407087E+02  0.00000000000E+00 0. -1.
         -2   -1    0    0    0  501 -0.00000000000E+00 -0.00000000000E+00 -0.30651303800E+02  0.30651303800E+02  0.00000000000E+00 0.  1.
         23    2    1    2    0    0  0.00000000000E+00  0.00000000000E+00  0.46128103287E+02  0.10743071089E+03  0.97023480296E+02 0.  0.
        -13    1    3    3    0    0 -0.30305093515E+02 -0.21665986148E+02  0.57470882358E+02  0.68488801769E+02  0.00000000000E+00 0. -1.
         13    1    3    3    0    0  0.30305093515E+02  0.21665986148E+02 -0.11342779071E+02  0.38941909118E+02  0.00000000000E+00 0.  1.
<mgrwt>
<rscale>  0 0.97023480E+02</rscale>
<asrwt>0</asrwt>
<pdfrwt beam="1">  1        2 0.11812216E-01 0.97023480E+02</pdfrwt>
<pdfrwt beam="2">  1       -2 0.47155852E-02 0.97023480E+02</pdfrwt>
<totfact> 0.95379871E+04</totfact>
</mgrwt>
</event>
<event>
 5    1  0.6113696E+000  0.1006281E+03  0.7546771E-02  0.1278981E+00
         -1   -1    0    0    0  501 -0.00000000000E+00  0.00000000000E+00  0.11977698220E+03  0.11977698220E+03  0.00000000000E+00 0.  1.
          1   -1    0    0  501    0  0.00000000000E+00 -0.00000000000E+00 -0.21135141433E+02  0.21135141433E+02  0.00000000000E+00 0. -1.
         23    2    1    2    0    0  0.00000000000E+00  0.00000000000E+00  0.98641840763E+02  0.14091212363E+03  0.10062809666E+03 0.  0.
        -13    1    3    3    0    0 -0.21231519964E+02 -0.41085503517E+02  0.21570877710E+02  0.51030371392E+02  0.00000000000E+00 0. -1.
         13    1    3    3    0    0  0.21231519964E+02  0.41085503517E+02  0.77070963053E+02  0.89881752237E+02  0.00000000000E+00 0.  1.
<mgrwt>
<rscale>  0 0.10062810E+03</rscale>
<asrwt>0</asrwt>
<pdfrwt beam="2">  1        1 0.32515603E-02 0.10062810E+03</pdfrwt>
<pdfrwt beam="1">  1       -1 0.18427228E-01 0.10062810E+03</pdfrwt>
<totfact> 0.60840914E+04</totfact>
</mgrwt>
</event>
<event>
 5    1  0.6113696E+000  0.8917230E+02  0.7546771E-02  0.1304869E+00
         -1   -1    0    0    0  501 -0.00000000000E+00  0.00000000000E+00  0.15493651723E+02  0.15493651723E+02  0.00000000000E+00 0.  1.
          1   -1    0    0  501    0  0.00000000000E+00 -0.00000000000E+00 -0.12830577378E+03  0.12830577378E+03  0.00000000000E+00 0. -1.
         23    2    1    2    0    0  0.00000000000E+00  0.00000000000E+00 -0.11281212205E+03  0.14379942550E+03  0.89172304512E+02 0.  0.
        -13    1    3    3    0    0  0.17594027429E+02  0.39520639712E+02 -0.39000848599E+02  0.58245145342E+02  0.00000000000E+00 0.  1.
         13    1    3    3    0    0 -0.17594027429E+02 -0.39520639712E+02 -0.73811273456E+02  0.85554280159E+02  0.00000000000E+00 0. -1.
<mgrwt>
<rscale>  0 0.89172305E+02</rscale>
<asrwt>0</asrwt>
<pdfrwt beam="2">  1        1 0.19739351E-01 0.89172305E+02</pdfrwt>
<pdfrwt beam="1">  1       -1 0.23836386E-02 0.89172305E+02</pdfrwt>
<totfact> 0.11576141E+05</totfact>
</mgrwt>
</event>
<event>
 5    1  0.6113696E+000  0.9284283E+02  0.7546771E-02  0.1296110E+00
          4   -1    0    0  501    0  0.00000000000E+00  0.00000000000E+00  0.27399585435E+02  0.27399585435E+02  0.00000000000E+00 0. -1.
         -4   -1    0    0    0  501 -0.00000000000E+00 -0.00000000000E+00 -0.78648914330E+02  0.78648914330E+02  0.00000000000E+00 0.  1.
         23    2    1    2    0    0  0.00000000000E+00  0.00000000000E+00 -0.51249328895E+02  0.10604849976E+03  0.92842827349E+02 0.  0.
        -13    1    3    3    0    0  0.38989351100E+02 -0.13332611380E+02 -0.50043423801E+02  0.64824935720E+02  0.00000000000E+00 0.  1.
         13    1    3    3    0    0 -0.38989351100E+02  0.13332611380E+02 -0.12059050942E+01  0.41223564044E+02  0.00000000000E+00 0. -1.
<mgrwt>
<rscale>  0 0.92842827E+02</rscale>
<asrwt>0</asrwt>
<pdfrwt beam="1">  1        4 0.42153208E-02 0.92842827E+02</pdfrwt>
<pdfrwt beam="2">  1       -4 0.12099833E-01 0.92842827E+02</pdfrwt>
<totfact> 0.24837068E+04</totfact>
</mgrwt>
</event>
<event>
 5    1  0.6113696E+000  0.9182108E+02  0.7546771E-02  0.1298501E+00
          1   -1    0    0  501    0  0.00000000000E+00  0.00000000000E+00  0.16179116589E+03  0.16179116589E+03  0.00000000000E+00 0. -1.
         -1   -1    0    0    0  501 -0.00000000000E+00 -0.00000000000E+00 -0.13027767245E+02  0.13027767245E+02  0.00000000000E+00 0.  1.
         23    2    1    2    0    0  0.00000000000E+00  0.00000000000E+00  0.14876339865E+03  0.17481893314E+03  0.91821079314E+02 0.  0.
        -13    1    3    3    0    0 -0.38957683554E+02  0.19139142060E+02  0.45901252778E+02  0.63173830605E+02  0.00000000000E+00 0.  1.
         13    1    3    3    0    0  0.38957683554E+02 -0.19139142060E+02  0.10286214587E+03  0.11164510253E+03  0.00000000000E+00 0. -1.
<mgrwt>
<rscale>  0 0.91821079E+02</rscale>
<asrwt>0</asrwt>
<pdfrwt beam="1">  1        1 0.24890947E-01 0.91821079E+02</pdfrwt>
<pdfrwt beam="2">  1       -1 0.20042720E-02 0.91821079E+02</pdfrwt>
<totfact> 0.11157724E+05</totfact>
</mgrwt>
</event>
<event>
 5    1  0.6113696E+000  0.8983350E+02  0.7546771E-02  0.1303255E+00
         -2   -1    0    0    0  501 -0.00000000000E+00  0.00000000000E+00  0.99637881773E+01  0.99637881773E+01  0.00000000000E+00 0.  1.
          2   -1    0    0  501    0  0.00000000000E+00 -0.00000000000E+00 -0.20248468468E+03  0.20248468468E+03  0.00000000000E+00 0. -1.
         23    2    1    2    0    0  0.00000000000E+00  0.00000000000E+00 -0.19252089650E+03  0.21244847286E+03  0.89833501708E+02 0.  0.
        -13    1    3    3    0    0 -0.10180920458E+02  0.43742589981E+02 -0.97845447993E+02  0.10766056387E+03  0.00000000000E+00 0. -1.
         13    1    3    3    0    0  0.10180920458E+02 -0.43742589981E+02 -0.94675448508E+02  0.10478790899E+03  0.00000000000E+00 0.  1.
<mgrwt>
<rscale>  0 0.89833502E+02</rscale>
<asrwt>0</asrwt>
<pdfrwt beam="2">  1        2 0.31151486E-01 0.89833502E+02</pdfrwt>
<pdfrwt beam="1">  1       -2 0.15328907E-02 0.89833502E+02</pdfrwt>
<totfact> 0.16169556E+05</totfact>
</mgrwt>
</event>
<event>
 5    1  0.6113696E+000  0.9096882E+02  0.7546771E-02  0.1300522E+00
          1   -1    0    0  501    0  0.00000000000E+00  0.00000000000E+00  0.88970756466E+02  0.88970756466E+02  0.00000000000E+00 0. -1.
         -1   -1    0    0    0  501 -0.00000000000E+00 -0.00000000000E+00 -0.23252936471E+02  0.23252936471E+02  0.00000000000E+00 0.  1.
         23    2    1    2    0    0  0.00000000000E+00  0.00000000000E+00  0.65717819994E+02  0.11222369294E+03  0.90968815490E+02 0.  0.
        -13    1    3    3    0    0 -0.42083240438E+02  0.19057885746E+01  0.11699015788E+02  0.43720683049E+02  0.00000000000E+00 0.  1.
         13    1    3    3    0    0  0.42083240438E+02 -0.19057885746E+01  0.54018804206E+02  0.68503009888E+02  0.00000000000E+00 0. -1.
<mgrwt>
<rscale>  0 0.90968815E+02</rscale>
<asrwt>0</asrwt>
<pdfrwt beam="1">  1        1 0.13687809E-01 0.90968815E+02</pdfrwt>
<pdfrwt beam="2">  1       -1 0.35773749E-02 0.90968815E+02</pdfrwt>
<totfact> 0.10311176E+05</totfact>
</mgrwt>
</event>
<event>
 5    1  0.6113696E+000  0.9231646E+02  0.7546771E-02  0.1297337E+00
         -1   -1    0    0    0  501 -0.00000000000E+00  0.00000000000E+00  0.16408687332E+03  0.16408687332E+03  0.00000000000E+00 0.  1.
          1   -1    0    0  501    0  0.00000000000E+00 -0.00000000000E+00 -0.12984476674E+02  0.12984476674E+02  0.00000000000E+00 0. -1.
         23    2    1    2    0    0  0.00000000000E+00  0.00000000000E+00  0.15110239665E+03  0.17707135000E+03  0.92316459619E+02 0.  0.
        -13    1    3    3    0    0  0.35744966758E+02 -0.16522308678E+02  0.12174067411E+03  0.12795108856E+03  0.00000000000E+00 0.  1.
         13    1    3    3    0    0 -0.35744966758E+02  0.16522308678E+02  0.29361722542E+02  0.49120261433E+02  0.00000000000E+00 0. -1.
<mgrwt>
<rscale>  0 0.92316460E+02</rscale>
<asrwt>0</asrwt>
<pdfrwt beam="2">  1        1 0.19976119E-02 0.92316460E+02</pdfrwt>
<pdfrwt beam="1">  1       -1 0.25244133E-01 0.92316460E+02</pdfrwt>
<totfact> 0.70859467E+04</totfact>
</mgrwt>
</event>
<event>
 5    1  0.6113696E+000  0.9189698E+02  0.7546771E-02  0.1298322E+00
          1   -1    0    0  501    0  0.00000000000E+00  0.00000000000E+00  0.98550486260E+01  0.98550486260E+01  0.00000000000E+00 0. -1.
         -1   -1    0    0    0  501 -0.00000000000E+00 -0.00000000000E+00 -0.21423167791E+03  0.21423167791E+03  0.00000000000E+00 0.  1.
         23    2    1    2    0    0  0.00000000000E+00  0.00000000000E+00 -0.20437662929E+03  0.22408672654E+03  0.91896977166E+02 0.  0.
        -13    1    3    3    0    0 -0.25712270651E+02 -0.37723206781E+02 -0.89493719026E+02  0.10046535192E+03  0.00000000000E+00 0. -1.
         13    1    3    3    0    0  0.25712270651E+02  0.37723206781E+02 -0.11488291026E+03  0.12362137462E+03  0.00000000000E+00 0.  1.
<mgrwt>
<rscale>  0 0.91896977E+02</rscale>
<asrwt>0</asrwt>
<pdfrwt beam="1">  1        1 0.15161614E-02 0.91896977E+02</pdfrwt>
<pdfrwt beam="2">  1       -1 0.32958719E-01 0.91896977E+02</pdfrwt>
<totfact> 0.66655484E+04</totfact>
</mgrwt>
</event>
<event>
 5    1  0.6113696E+000  0.9100215E+02  0.7546771E-02  0.1300443E+00
          2   -1    0    0  501    0  0.00000000000E+00  0.00000000000E+00  0.15551787148E+03  0.15551787148E+03  0.00000000000E+00 0. -1.
         -2   -1    0    0    0  501 -0.00000000000E+00 -0.00000000000E+00 -0.13312605167E+02  0.13312605167E+02  0.00000000000E+00 0.  1.
         23    2    1    2    0    0  0.00000000000E+00  0.00000000000E+00  0.14220526631E+03  0.16883047664E+03  0.91002154246E+02 0.  0.
        -13    1    3    3    0    0 -0.28694414127E+02 -0.33528856498E+02  0.91660992480E+02  0.10173146594E+03  0.00000000000E+00 0.  1.
         13    1    3    3    0    0  0.28694414127E+02  0.33528856498E+02  0.50544273829E+02  0.67099010701E+02  0.00000000000E+00 0. -1.
<mgrwt>
<rscale>  0 0.91002154E+02</rscale>
<asrwt>0</asrwt>
<pdfrwt beam="1">  1        2 0.23925825E-01 0.91002154E+02</pdfrwt>
<pdfrwt beam="2">  1       -2 0.20480932E-02 0.91002154E+02</pdfrwt>
<totfact> 0.14228388E+05</totfact>
</mgrwt>
</event>
<event>
 5    1  0.6113696E+000  0.9115838E+02  0.7546771E-02  0.1300071E+00
          2   -1    0    0  501    0  0.00000000000E+00  0.00000000000E+00  0.29315543027E+02  0.29315543027E+02  0.00000000000E+00 0.  1.
         -2   -1    0    0    0  501 -0.00000000000E+00 -0.00000000000E+00 -0.70865566399E+02  0.70865566399E+02  0.00000000000E+00 0. -1.
         23    2    1    2    0    0  0.00000000000E+00  0.00000000000E+00 -0.41550023372E+02  0.10018110943E+03  0.91158379996E+02 0.  0.
        -13    1    3    3    0    0 -0.28957934518E+02 -0.26287221054E+02 -0.46498685369E+02  0.60759424811E+02  0.00000000000E+00 0. -1.
         13    1    3    3    0    0  0.28957934518E+02  0.26287221054E+02  0.49486619967E+01  0.39421684615E+02  0.00000000000E+00 0.  1.
<mgrwt>
<rscale>  0 0.91158380E+02</rscale>
<asrwt>0</asrwt>
<pdfrwt beam="1">  1        2 0.45100836E-02 0.91158380E+02</pdfrwt>
<pdfrwt beam="2">  1       -2 0.10902395E-01 0.91158380E+02</pdfrwt>
<totfact> 0.87974335E+04</totfact>
</mgrwt>
</event>
<event>
 5    1  0.6113696E+000  0.9829348E+02  0.7546771E-02  0.1283926E+00
         -3   -1    0    0    0  501 -0.00000000000E+00  0.00000000000E+00  0.42984205737E+02  0.42984205737E+02  0.00000000000E+00 0.  1.
          3   -1    0    0  501    0  0.00000000000E+00 -0.00000000000E+00 -0.56192777923E+02  0.56192777923E+02  0.00000000000E+00 0. -1.
         23    2    1    2    0    0  0.00000000000E+00  0.00000000000E+00 -0.13208572186E+02  0.99176983661E+02  0.98293477448E+02 0.  0.
        -13    1    3    3    0    0 -0.48056422910E+02 -0.96132328275E+01 -0.28877145656E+01  0.49093512033E+02  0.00000000000E+00 0.  1.
         13    1    3    3    0    0  0.48056422910E+02  0.96132328275E+01 -0.10320857620E+02  0.50083471628E+02  0.00000000000E+00 0. -1.
<mgrwt>
<rscale>  0 0.98293477E+02</rscale>
<asrwt>0</asrwt>
<pdfrwt beam="2">  1        3 0.86450428E-02 0.98293477E+02</pdfrwt>
<pdfrwt beam="1">  1       -3 0.66129547E-02 0.98293477E+02</pdfrwt>
<totfact> 0.28274014E+04</totfact>
</mgrwt>
</event>
<event>
 5    1  0.6113696E+000  0.8988806E+02  0.7546771E-02  0.1303123E+00
         -2   -1    0    0    0  501 -0.00000000000E+00  0.00000000000E+00  0.12053626505E+03  0.12053626505E+03  0.00000000000E+00 0.  1.
          2   -1    0    0  501    0  0.00000000000E+00 -0.00000000000E+00 -0.16758157926E+02  0.16758157926E+02  0.00000000000E+00 0. -1.
         23    2    1    2    0    0  0.00000000000E+00  0.00000000000E+00  0.10377810712E+03  0.13729442298E+03  0.89888058508E+02 0.  0.
        -13    1    3    3    0    0 -0.39511114302E+02 -0.21245327453E+02  0.47713462488E+02  0.65490965748E+02  0.00000000000E+00 0.  1.
         13    1    3    3    0    0  0.39511114302E+02  0.21245327453E+02  0.56064644635E+02  0.71803457229E+02  0.00000000000E+00 0. -1.
<mgrwt>
<rscale>  0 0.89888059E+02</rscale>
<asrwt>0</asrwt>
<pdfrwt beam="2">  1        2 0.25781782E-02 0.89888059E+02</pdfrwt>
<pdfrwt beam="1">  1       -2 0.18544040E-01 0.89888059E+02</pdfrwt>
<totfact> 0.78045388E+04</totfact>
</mgrwt>
</event>
<event>
 5    1  0.6113696E+000  0.9220851E+02  0.7546771E-02  0.1297590E+00
         -4   -1    0    0    0  501 -0.00000000000E+00  0.00000000000E+00  0.28902587643E+02  0.28902587643E+02  0.00000000000E+00 0.  1.
          4   -1    0    0  501    0  0.00000000000E+00 -0.00000000000E+00 -0.73543663438E+02  0.73543663438E+02  0.00000000000E+00 0. -1.
         23    2    1    2    0    0  0.00000000000E+00  0.00000000000E+00 -0.44641075794E+02  0.10244625108E+03  0.92208506725E+02 0.  0.
        -13    1    3    3    0    0  0.33672372810E+02  0.11110965836E+02  0.10418428570E+02  0.36957081951E+02  0.00000000000E+00 0.  1.
         13    1    3    3    0    0 -0.33672372810E+02 -0.11110965836E+02 -0.55059504364E+02  0.65489169130E+02  0.00000000000E+00 0. -1.
<mgrwt>
<rscale>  0 0.92208507E+02</rscale>
<asrwt>0</asrwt>
<pdfrwt beam="2">  1        4 0.11314410E-01 0.92208507E+02</pdfrwt>
<pdfrwt beam="1">  1       -4 0.44465519E-02 0.92208507E+02</pdfrwt>
<totfact> 0.25515693E+04</totfact>
</mgrwt>
</event>
<event>
 5    1  0.6113696E+000  0.9416590E+02  0.7546771E-02  0.1293066E+00
          4   -1    0    0  501    0  0.00000000000E+00  0.00000000000E+00  0.25007231267E+02  0.25007231267E+02  0.00000000000E+00 0. -1.
         -4   -1    0    0    0  501 -0.00000000000E+00 -0.00000000000E+00 -0.88646527211E+02  0.88646527211E+02  0.00000000000E+00 0.  1.
         23    2    1    2    0    0  0.00000000000E+00  0.00000000000E+00 -0.63639295943E+02  0.11365375848E+03  0.94165900559E+02 0.  0.
        -13    1    3    3    0    0  0.46387920692E+02  0.75263359519E+01 -0.28338413956E+02  0.54877596745E+02  0.00000000000E+00 0. -1.
         13    1    3    3    0    0 -0.46387920692E+02 -0.75263359519E+01 -0.35300881988E+02  0.58776161733E+02  0.00000000000E+00 0.  1.
<mgrwt>
<rscale>  0 0.94165901E+02</rscale>
<asrwt>0</asrwt>
<pdfrwt beam="1">  1        4 0.38472663E-02 0.94165901E+02</pdfrwt>
<pdfrwt beam="2">  1       -4 0.13637928E-01 0.94165901E+02</pdfrwt>
<totfact> 0.23488100E+04</totfact>
</mgrwt>
</event>
<event>
 5    1  0.6113696E+000  0.9078020E+02  0.7546771E-02  0.1300973E+00
          2   -1    0    0  501    0  0.00000000000E+00  0.00000000000E+00  0.26295997811E+03  0.26295997811E+03  0.00000000000E+00 0. -1.
         -2   -1    0    0    0  501 -0.00000000000E+00 -0.00000000000E+00 -0.78348844438E+01  0.78348844438E+01  0.00000000000E+00 0.  1.
         23    2    1    2    0    0  0.00000000000E+00  0.00000000000E+00  0.25512509366E+03  0.27079486255E+03  0.90780196999E+02 0.  0.
        -13    1    3    3    0    0 -0.29033483832E+02 -0.21028607924E+02  0.44513909155E+02  0.57154471766E+02  0.00000000000E+00 0.  1.
         13    1    3    3    0    0  0.29033483832E+02  0.21028607924E+02  0.21061118451E+03  0.21364039078E+03  0.00000000000E+00 0. -1.
<mgrwt>
<rscale>  0 0.90780197E+02</rscale>
<asrwt>0</asrwt>
<pdfrwt beam="1">  1        2 0.40455374E-01 0.90780197E+02</pdfrwt>
<pdfrwt beam="2">  1       -2 0.12053670E-02 0.90780197E+02</pdfrwt>
<totfact> 0.17304799E+05</totfact>
</mgrwt>
</event>
<event>
 5    1  0.6113696E+000  0.1251736E+03  0.7546771E-02  0.1234798E+00
          2   -1    0    0  501    0  0.00000000000E+00  0.00000000000E+00  0.20173877967E+03  0.20173877967E+03  0.00000000000E+00 0. -1.
         -2   -1    0    0    0  501 -0.00000000000E+00 -0.00000000000E+00 -0.19416740102E+02  0.19416740102E+02  0.00000000000E+00 0.  1.
         23    2    1    2    0    0  0.00000000000E+00  0.00000000000E+00  0.18232203957E+03  0.22115551977E+03  0.12517363066E+03 0.  0.
        -13    1    3    3    0    0  0.26706412579E+02  0.55383350482E+02  0.11180764268E+03  0.12759896921E+03  0.00000000000E+00 0. -1.
         13    1    3    3    0    0 -0.26706412579E+02 -0.55383350482E+02  0.70514396894E+02  0.93556550560E+02  0.00000000000E+00 0.  1.
<mgrwt>
<rscale>  0 0.12517363E+03</rscale>
<asrwt>0</asrwt>
<pdfrwt beam="1">  1        2 0.31036734E-01 0.12517363E+03</pdfrwt>
<pdfrwt beam="2">  1       -2 0.29871909E-02 0.12517363E+03</pdfrwt>
<totfact> 0.64969858E+04</totfact>
</mgrwt>
</event>
<event>
 5    1  0.6113696E+000  0.9190077E+02  0.7546771E-02  0.1298313E+00
          1   -1    0    0  501    0  0.00000000000E+00  0.00000000000E+00  0.10687384074E+03  0.10687384074E+03  0.00000000000E+00 0. -1.
         -1   -1    0    0    0  501 -0.00000000000E+00 -0.00000000000E+00 -0.19756358738E+02  0.19756358738E+02  0.00000000000E+00 0.  1.
         23    2    1    2    0    0  0.00000000000E+00  0.00000000000E+00  0.87117482004E+02  0.12663019948E+03  0.91900771214E+02 0.  0.
        -13    1    3    3    0    0  0.89169773328E+01  0.41473716810E+02  0.19225756875E+02  0.46574793593E+02  0.00000000000E+00 0.  1.
         13    1    3    3    0    0 -0.89169773328E+01 -0.41473716810E+02  0.67891725129E+02  0.80055405888E+02  0.00000000000E+00 0. -1.
<mgrwt>
<rscale>  0 0.91900771E+02</rscale>
<asrwt>0</asrwt>
<pdfrwt beam="1">  1        1 0.16442129E-01 0.91900771E+02</pdfrwt>
<pdfrwt beam="2">  1       -1 0.30394399E-02 0.91900771E+02</pdfrwt>
<totfact> 0.10337037E+05</totfact>
</mgrwt>
</event>
<event>
 5    1  0.6113696E+000  0.9078819E+02  0.7546771E-02  0.1300954E+00
         -1   -1    0    0    0  501 -0.00000000000E+00  0.00000000000E+00  0.10304208886E+02  0.10304208886E+02  0.00000000000E+00 0.  1.
          1   -1    0    0  501    0  0.00000000000E+00 -0.00000000000E+00 -0.19997884798E+03  0.19997884798E+03  0.00000000000E+00 0. -1.
         23    2    1    2    0    0  0.00000000000E+00  0.00000000000E+00 -0.18967463910E+03  0.21028305687E+03  0.90788189154E+02 0.  0.
        -13    1    3    3    0    0  0.37779888019E+02  0.95707349890E+00 -0.36591239646E+02  0.52603752216E+02  0.00000000000E+00 0.  1.
         13    1    3    3    0    0 -0.37779888019E+02 -0.95707349890E+00 -0.15308339945E+03  0.15767930465E+03  0.00000000000E+00 0. -1.
<mgrwt>
<rscale>  0 0.90788189E+02</rscale>
<asrwt>0</asrwt>
<pdfrwt beam="2">  1        1 0.30765976E-01 0.90788189E+02</pdfrwt>
<pdfrwt beam="1">  1       -1 0.15852629E-02 0.90788189E+02</pdfrwt>
<totfact> 0.11976724E+05</totfact>
</mgrwt>
</event>
<event>
 5    1  0.6113696E+000  0.9178007E+02  0.7546771E-02  0.1298597E+00
          2   -1    0    0  501    0  0.00000000000E+00  0.00000000000E+00  0.40141544129E+03  0.40141544129E+03  0.00000000000E+00 0.  1.
         -2   -1    0    0    0  501 -0.00000000000E+00 -0.00000000000E+00 -0.52461745819E+01  0.52461745819E+01  0.00000000000E+00 0. -1.
         23    2    1    2    0    0  0.00000000000E+00  0.00000000000E+00  0.39616926671E+03  0.40666161587E+03  0.91780073761E+02 0.  0.
        -13    1    3    3    0    0  0.38765122901E+02 -0.23505634676E+02  0.16655225008E+03  0.17261199732E+03  0.00000000000E+00 0.  1.
         13    1    3    3    0    0 -0.38765122901E+02  0.23505634676E+02  0.22961701663E+03  0.23404961855E+03  0.00000000000E+00 0. -1.
<mgrwt>
<rscale>  0 0.91780074E+02</rscale>
<asrwt>0</asrwt>
<pdfrwt beam="1">  1        2 0.61756198E-01 0.91780074E+02</pdfrwt>
<pdfrwt beam="2">  1       -2 0.80710410E-03 0.91780074E+02</pdfrwt>
<totfact> 0.19640537E+05</totfact>
</mgrwt>
</event>
<event>
 5    1  0.6113696E+000  0.9132998E+02  0.7546771E-02  0.1299663E+00
          1   -1    0    0  501    0  0.00000000000E+00  0.00000000000E+00  0.55247913917E+02  0.55247913917E+02  0.00000000000E+00 0. -1.
         -1   -1    0    0    0  501 -0.00000000000E+00 -0.00000000000E+00 -0.37744253913E+02  0.37744253913E+02  0.00000000000E+00 0.  1.
         23    2    1    2    0    0  0.00000000000E+00  0.00000000000E+00  0.17503660004E+02  0.92992167830E+02  0.91329979547E+02 0.  0.
        -13    1    3    3    0    0  0.17732692595E+02  0.25245544756E+02  0.43032144964E+02  0.52948573322E+02  0.00000000000E+00 0. -1.
         13    1    3    3    0    0 -0.17732692595E+02 -0.25245544756E+02 -0.25528484959E+02  0.40043594507E+02  0.00000000000E+00 0.  1.
<mgrwt>
<rscale>  0 0.91329980E+02</rscale>
<asrwt>0</asrwt>
<pdfrwt beam="1">  1        1 0.84996791E-02 0.91329980E+02</pdfrwt>
<pdfrwt beam="2">  1       -1 0.58068083E-02 0.91329980E+02</pdfrwt>
<totfact> 0.94735511E+04</totfact>
</mgrwt>
</event>
<event>
 5    1  0.6113696E+000  0.9308600E+02  0.7546771E-02  0.1295546E+00
         -2   -1    0    0    0  501 -0.00000000000E+00  0.00000000000E+00  0.81310480064E+02  0.81310480064E+02  0.00000000000E+00 0. -1.
          2   -1    0    0  501    0  0.00000000000E+00 -0.00000000000E+00 -0.26641719790E+02  0.26641719790E+02  0.00000000000E+00 0.  1.
         23    2    1    2    0    0  0.00000000000E+00  0.00000000000E+00  0.54668760273E+02  0.10795219985E+03  0.93086003801E+02 0.  0.
        -13    1    3    3    0    0  0.21074892511E+01 -0.37160031109E+02  0.59742690571E+02  0.70388198582E+02  0.00000000000E+00 0. -1.
         13    1    3    3    0    0 -0.21074892511E+01  0.37160031109E+02 -0.50739302974E+01  0.37564001273E+02  0.00000000000E+00 0.  1.
<mgrwt>
<rscale>  0 0.93086004E+02</rscale>
<asrwt>0</asrwt>
<pdfrwt beam="2">  1        2 0.40987262E-02 0.93086004E+02</pdfrwt>
<pdfrwt beam="1">  1       -2 0.12509304E-01 0.93086004E+02</pdfrwt>
<totfact> 0.80486063E+04</totfact>
</mgrwt>
</event>
<event>
 5    1  0.6113696E+000  0.9161846E+02  0.7546771E-02  0.1298979E+00
          2   -1    0    0  501    0  0.00000000000E+00  0.00000000000E+00  0.20170763987E+03  0.20170763987E+03  0.00000000000E+00 0. -1.
         -2   -1    0    0    0  501 -0.00000000000E+00 -0.00000000000E+00 -0.10403600414E+02  0.10403600414E+02  0.00000000000E+00 0.  1.
         23    2    1    2    0    0  0.00000000000E+00  0.00000000000E+00  0.19130403945E+03  0.21211124028E+03  0.91618462892E+02 0.  0.
        -13    1    3    3    0    0 -0.31651127436E+02 -0.31912563759E+02  0.75168416911E+02  0.87581370705E+02  0.00000000000E+00 0.  1.
         13    1    3    3    0    0  0.31651127436E+02  0.31912563759E+02  0.11613562254E+03  0.12452986958E+03  0.00000000000E+00 0. -1.
<mgrwt>
<rscale>  0 0.91618463E+02</rscale>
<asrwt>0</asrwt>
<pdfrwt beam="1">  1        2 0.31031942E-01 0.91618463E+02</pdfrwt>
<pdfrwt beam="2">  1       -2 0.16005541E-02 0.91618463E+02</pdfrwt>
<totfact> 0.15314911E+05</totfact>
</mgrwt>
</event>
<event>
 5    1  0.6113696E+000  0.1001275E+03  0.7546771E-02  0.1280028E+00
          1   -1    0    0  501    0  0.00000000000E+00  0.00000000000E+00  0.96248684635E+01  0.96248684635E+01  0.00000000000E+00 0. -1.
         -1   -1    0    0    0  501 -0.00000000000E+00 -0.00000000000E+00 -0.26040660414E+03  0.26040660414E+03  0.00000000000E+00 0.  1.
         23    2    1    2    0    0  0.00000000000E+00  0.00000000000E+00 -0.25078173568E+03  0.27003147261E+03  0.10012750495E+03 0.  0.
        -13    1    3    3    0    0 -0.10261106428E+02 -0.43931109769E+02 -0.18392902171E+03  0.18938088007E+03  0.00000000000E+00 0.  1.
         13    1    3    3    0    0  0.10261106428E+02  0.43931109769E+02 -0.66852713969E+02  0.80650592532E+02  0.00000000000E+00 0. -1.
<mgrwt>
<rscale>  0 0.10012750E+03</rscale>
<asrwt>0</asrwt>
<pdfrwt beam="1">  1        1 0.14807491E-02 0.10012750E+03</pdfrwt>
<pdfrwt beam="2">  1       -1 0.40062550E-01 0.10012750E+03</pdfrwt>
<totfact> 0.49960970E+04</totfact>
</mgrwt>
</event>
<event>
 5    1  0.6113696E+000  0.9853645E+02  0.7546771E-02  0.1283404E+00
          1   -1    0    0  501    0  0.00000000000E+00  0.00000000000E+00  0.17807998199E+02  0.17807998199E+02  0.00000000000E+00 0. -1.
         -1   -1    0    0    0  501 -0.00000000000E+00 -0.00000000000E+00 -0.13630716533E+03  0.13630716533E+03  0.00000000000E+00 0.  1.
         23    2    1    2    0    0  0.00000000000E+00  0.00000000000E+00 -0.11849916713E+03  0.15411516353E+03  0.98536445130E+02 0.  0.
        -13    1    3    3    0    0  0.38947668233E+02  0.29817242612E+02 -0.66479610915E+02  0.82616750633E+02  0.00000000000E+00 0. -1.
         13    1    3    3    0    0 -0.38947668233E+02 -0.29817242612E+02 -0.52019556216E+02  0.71498412896E+02  0.00000000000E+00 0.  1.
<mgrwt>
<rscale>  0 0.98536445E+02</rscale>
<asrwt>0</asrwt>
<pdfrwt beam="1">  1        1 0.27396920E-02 0.98536445E+02</pdfrwt>
<pdfrwt beam="2">  1       -1 0.20970333E-01 0.98536445E+02</pdfrwt>
<totfact> 0.62476219E+04</totfact>
</mgrwt>
</event>
<event>
 5    1  0.6113696E+000  0.7032238E+02  0.7546771E-02  0.1359000E+00
         -4   -1    0    0    0  501 -0.00000000000E+00  0.00000000000E+00  0.17597668958E+02  0.17597668958E+02  0.00000000000E+00 0.  1.
          4   -1    0    0  501    0  0.00000000000E+00 -0.00000000000E+00 -0.70254157443E+02  0.70254157443E+02  0.00000000000E+00 0. -1.
         23    2    1    2    0    0  0.00000000000E+00  0.00000000000E+00 -0.52656488485E+02  0.87851826401E+02  0.70322383510E+02 0.  0.
        -13    1    3    3    0    0  0.27954362616E+02 -0.23234767274E+01  0.15705577139E+00  0.28051196051E+02  0.00000000000E+00 0.  1.
         13    1    3    3    0    0 -0.27954362616E+02  0.23234767274E+01 -0.52813544256E+02  0.59800630350E+02  0.00000000000E+00 0. -1.
<mgrwt>
<rscale>  0 0.70322384E+02</rscale>
<asrwt>0</asrwt>
<pdfrwt beam="2">  1        4 0.10808332E-01 0.70322384E+02</pdfrwt>
<pdfrwt beam="1">  1       -4 0.27073337E-02 0.70322384E+02</pdfrwt>
<totfact> 0.54373618E+04</totfact>
</mgrwt>
</event>
<event>
 5    1  0.6113696E+000  0.9089214E+02  0.7546771E-02  0.1300706E+00
         -2   -1    0    0    0  501 -0.00000000000E+00  0.00000000000E+00  0.10465028125E+02  0.10465028125E+02  0.00000000000E+00 0.  1.
          2   -1    0    0  501    0  0.00000000000E+00 -0.00000000000E+00 -0.19735688146E+03  0.19735688146E+03  0.00000000000E+00 0. -1.
         23    2    1    2    0    0  0.00000000000E+00  0.00000000000E+00 -0.18689185334E+03  0.20782190959E+03  0.90892140808E+02 0.  0.
        -13    1    3    3    0    0 -0.27661816147E+02 -0.12128972851E+02 -0.17108680428E+03  0.17373250316E+03  0.00000000000E+00 0. -1.
         13    1    3    3    0    0  0.27661816147E+02  0.12128972851E+02 -0.15805049059E+02  0.34089406430E+02  0.00000000000E+00 0.  1.
<mgrwt>
<rscale>  0 0.90892141E+02</rscale>
<asrwt>0</asrwt>
<pdfrwt beam="2">  1        2 0.30362592E-01 0.90892141E+02</pdfrwt>
<pdfrwt beam="1">  1       -2 0.16100046E-02 0.90892141E+02</pdfrwt>
<totfact> 0.15523989E+05</totfact>
</mgrwt>
</event>
<event>
 5    1  0.6113696E+000  0.8544289E+02  0.7546771E-02  0.1314278E+00
          2   -1    0    0  501    0  0.00000000000E+00  0.00000000000E+00  0.67793046366E+01  0.67793046366E+01  0.00000000000E+00 0.  1.
         -2   -1    0    0    0  501 -0.00000000000E+00 -0.00000000000E+00 -0.26921962695E+03  0.26921962695E+03  0.00000000000E+00 0. -1.
         23    2    1    2    0    0  0.00000000000E+00  0.00000000000E+00 -0.26244032232E+03  0.27599893159E+03  0.85442890055E+02 0.  0.
        -13    1    3    3    0    0 -0.41793253929E+02 -0.72132033038E+01 -0.14782217614E+03  0.15378589706E+03  0.00000000000E+00 0.  1.
         13    1    3    3    0    0  0.41793253929E+02  0.72132033038E+01 -0.11461814617E+03  0.12221303452E+03  0.00000000000E+00 0. -1.
<mgrwt>
<rscale>  0 0.85442890E+02</rscale>
<asrwt>0</asrwt>
<pdfrwt beam="1">  1        2 0.10429700E-02 0.85442890E+02</pdfrwt>
<pdfrwt beam="2">  1       -2 0.41418402E-01 0.85442890E+02</pdfrwt>
<totfact> 0.63894335E+04</totfact>
</mgrwt>
</event>
<event>
 5    1  0.6113696E+000  0.7914776E+02  0.7546771E-02  0.1331488E+00
         -2   -1    0    0    0  501 -0.00000000000E+00  0.00000000000E+00  0.25498783925E+02  0.25498783925E+02  0.00000000000E+00 0.  1.
          2   -1    0    0  501    0  0.00000000000E+00 -0.00000000000E+00 -0.61418304309E+02  0.61418304309E+02  0.00000000000E+00 0. -1.
         23    2    1    2    0    0  0.00000000000E+00  0.00000000000E+00 -0.35919520384E+02  0.86917088234E+02  0.79147762334E+02 0.  0.
        -13    1    3    3    0    0 -0.38309974157E+02  0.98935190285E+01 -0.17140740237E+02  0.43120074381E+02  0.00000000000E+00 0.  1.
         13    1    3    3    0    0  0.38309974157E+02 -0.98935190285E+01 -0.18778780147E+02  0.43797013854E+02  0.00000000000E+00 0. -1.
<mgrwt>
<rscale>  0 0.79147762E+02</rscale>
<asrwt>0</asrwt>
<pdfrwt beam="2">  1        2 0.94489697E-02 0.79147762E+02</pdfrwt>
<pdfrwt beam="1">  1       -2 0.39228899E-02 0.79147762E+02</pdfrwt>
<totfact> 0.15820036E+05</totfact>
</mgrwt>
</event>
<event>
 5    1  0.6113696E+000  0.9153385E+02  0.7546771E-02  0.1299179E+00
         -2   -1    0    0    0  501 -0.00000000000E+00  0.00000000000E+00  0.21457260873E+02  0.21457260873E+02  0.00000000000E+00 0.  1.
          2   -1    0    0  501    0  0.00000000000E+00 -0.00000000000E+00 -0.97617832836E+02  0.97617832836E+02  0.00000000000E+00 0. -1.
         23    2    1    2    0    0  0.00000000000E+00  0.00000000000E+00 -0.76160571963E+02  0.11907509371E+03  0.91533847401E+02 0.  0.
        -13    1    3    3    0    0 -0.14405219579E+02 -0.32645476380E+02 -0.75363182408E+02  0.83383731878E+02  0.00000000000E+00 0. -1.
         13    1    3    3    0    0  0.14405219579E+02  0.32645476380E+02 -0.79738955492E+00  0.35691361831E+02  0.00000000000E+00 0.  1.
<mgrwt>
<rscale>  0 0.91533847E+02</rscale>
<asrwt>0</asrwt>
<pdfrwt beam="2">  1        2 0.15018128E-01 0.91533847E+02</pdfrwt>
<pdfrwt beam="1">  1       -2 0.33011170E-02 0.91533847E+02</pdfrwt>
<totfact> 0.12047585E+05</totfact>
</mgrwt>
</event>
<event>
 5    1  0.6113696E+000  0.9209716E+02  0.7546771E-02  0.1297851E+00
          2   -1    0    0  501    0  0.00000000000E+00  0.00000000000E+00  0.35239039738E+02  0.35239039738E+02  0.00000000000E+00 0. -1.
         -2   -1    0    0    0  501 -0.00000000000E+00 -0.00000000000E+00 -0.60173930596E+02  0.60173930596E+02  0.00000000000E+00 0.  1.
         23    2    1    2    0    0  0.00000000000E+00  0.00000000000E+00 -0.24934890858E+02  0.95412970334E+02  0.92097155906E+02 0.  0.
        -13    1    3    3    0    0 -0.45245299981E+02  0.67892851404E+01 -0.17874546619E+02  0.49119558018E+02  0.00000000000E+00 0.  1.
         13    1    3    3    0    0  0.45245299981E+02 -0.67892851404E+01 -0.70603442390E+01  0.46293412316E+02  0.00000000000E+00 0. -1.
<mgrwt>
<rscale>  0 0.92097156E+02</rscale>
<asrwt>0</asrwt>
<pdfrwt beam="1">  1        2 0.54213908E-02 0.92097156E+02</pdfrwt>
<pdfrwt beam="2">  1       -2 0.92575277E-02 0.92097156E+02</pdfrwt>
<totfact> 0.89622647E+04</totfact>
</mgrwt>
</event>
<event>
 5    1  0.6113696E+000  0.9086811E+02  0.7546771E-02  0.1300763E+00
          2   -1    0    0  501    0  0.00000000000E+00  0.00000000000E+00  0.11538327274E+02  0.11538327274E+02  0.00000000000E+00 0. -1.
         -2   -1    0    0    0  501 -0.00000000000E+00 -0.00000000000E+00 -0.17890403659E+03  0.17890403659E+03  0.00000000000E+00 0.  1.
         23    2    1    2    0    0  0.00000000000E+00  0.00000000000E+00 -0.16736570931E+03  0.19044236386E+03  0.90868109363E+02 0.  0.
        -13    1    3    3    0    0 -0.13046040414E+02 -0.35855835549E+02 -0.13537819388E+03  0.14065239241E+03  0.00000000000E+00 0.  1.
         13    1    3    3    0    0  0.13046040414E+02  0.35855835549E+02 -0.31987515440E+02  0.49789971454E+02  0.00000000000E+00 0. -1.
<mgrwt>
<rscale>  0 0.90868109E+02</rscale>
<asrwt>0</asrwt>
<pdfrwt beam="1">  1        2 0.17751272E-02 0.90868109E+02</pdfrwt>
<pdfrwt beam="2">  1       -2 0.27523698E-01 0.90868109E+02</pdfrwt>
<totfact> 0.65861109E+04</totfact>
</mgrwt>
</event>
<event>
 5    1  0.6113696E+000  0.8957997E+02  0.7546771E-02  0.1303872E+00
         -2   -1    0    0    0  501 -0.00000000000E+00  0.00000000000E+00  0.56581041584E+01  0.56581041584E+01  0.00000000000E+00 0.  1.
          2   -1    0    0  501    0  0.00000000000E+00 -0.00000000000E+00 -0.35456097617E+03  0.35456097617E+03  0.00000000000E+00 0. -1.
         23    2    1    2    0    0  0.00000000000E+00  0.00000000000E+00 -0.34890287201E+03  0.36021908033E+03  0.89579973960E+02 0.  0.
        -13    1    3    3    0    0 -0.39437332219E+02 -0.20318866646E+02 -0.19923437514E+03  0.20411392837E+03  0.00000000000E+00 0. -1.
         13    1    3    3    0    0  0.39437332219E+02  0.20318866646E+02 -0.14966849687E+03  0.15610515196E+03  0.00000000000E+00 0.  1.
<mgrwt>
<rscale>  0 0.89579974E+02</rscale>
<asrwt>0</asrwt>
<pdfrwt beam="2">  1        2 0.54547832E-01 0.89579974E+02</pdfrwt>
<pdfrwt beam="1">  1       -2 0.87047773E-03 0.89579974E+02</pdfrwt>
<totfact> 0.20028166E+05</totfact>
</mgrwt>
</event>
<event>
 5    1  0.6113696E+000  0.9116624E+02  0.7546771E-02  0.1300052E+00
          1   -1    0    0  501    0  0.00000000000E+00  0.00000000000E+00  0.11863309953E+03  0.11863309953E+03  0.00000000000E+00 0. -1.
         -1   -1    0    0    0  501 -0.00000000000E+00 -0.00000000000E+00 -0.17514681002E+02  0.17514681002E+02  0.00000000000E+00 0.  1.
         23    2    1    2    0    0  0.00000000000E+00  0.00000000000E+00  0.10111841853E+03  0.13614778053E+03  0.91166241439E+02 0.  0.
        -13    1    3    3    0    0  0.14634330630E+02 -0.23745532765E+02 -0.32821407192E+01  0.28085341496E+02  0.00000000000E+00 0.  1.
         13    1    3    3    0    0 -0.14634330630E+02  0.23745532765E+02  0.10440055924E+03  0.10806243903E+03  0.00000000000E+00 0. -1.
<mgrwt>
<rscale>  0 0.91166241E+02</rscale>
<asrwt>0</asrwt>
<pdfrwt beam="1">  1        1 0.18251246E-01 0.91166241E+02</pdfrwt>
<pdfrwt beam="2">  1       -1 0.26945664E-02 0.91166241E+02</pdfrwt>
<totfact> 0.10755878E+05</totfact>
</mgrwt>
</event>
<event>
 5    1  0.6113696E+000  0.9289702E+02  0.7546771E-02  0.1295984E+00
         -1   -1    0    0    0  501 -0.00000000000E+00  0.00000000000E+00  0.51119243855E+02  0.51119243855E+02  0.00000000000E+00 0.  1.
          1   -1    0    0  501    0  0.00000000000E+00 -0.00000000000E+00 -0.42204534020E+02  0.42204534020E+02  0.00000000000E+00 0. -1.
         23    2    1    2    0    0  0.00000000000E+00  0.00000000000E+00  0.89147098356E+01  0.93323777875E+02  0.92897015374E+02 0.  0.
        -13    1    3    3    0    0  0.16205750095E+02 -0.82577436682E+01 -0.38478279850E+02  0.42560482691E+02  0.00000000000E+00 0. -1.
         13    1    3    3    0    0 -0.16205750095E+02  0.82577436682E+01  0.47392989686E+02  0.50763295184E+02  0.00000000000E+00 0.  1.
<mgrwt>
<rscale>  0 0.92897015E+02</rscale>
<asrwt>0</asrwt>
<pdfrwt beam="2">  1        1 0.64930052E-02 0.92897015E+02</pdfrwt>
<pdfrwt beam="1">  1       -1 0.78644991E-02 0.92897015E+02</pdfrwt>
<totfact> 0.86703704E+04</totfact>
</mgrwt>
</event>
<event>
 5    1  0.6113696E+000  0.9658079E+02  0.7546771E-02  0.1287655E+00
         -2   -1    0    0    0  501 -0.00000000000E+00  0.00000000000E+00  0.79050355791E+02  0.79050355791E+02  0.00000000000E+00 0.  1.
          2   -1    0    0  501    0  0.00000000000E+00 -0.00000000000E+00 -0.29499706358E+02  0.29499706358E+02  0.00000000000E+00 0. -1.
         23    2    1    2    0    0  0.00000000000E+00  0.00000000000E+00  0.49550649433E+02  0.10855006215E+03  0.96580790705E+02 0.  0.
        -13    1    3    3    0    0  0.40479353087E+02 -0.30758262322E+01 -0.46176200782E+01  0.40857816247E+02  0.00000000000E+00 0. -1.
         13    1    3    3    0    0 -0.40479353087E+02  0.30758262322E+01  0.54168269511E+02  0.67692245901E+02  0.00000000000E+00 0.  1.
<mgrwt>
<rscale>  0 0.96580791E+02</rscale>
<asrwt>0</asrwt>
<pdfrwt beam="2">  1        2 0.45384164E-02 0.96580791E+02</pdfrwt>
<pdfrwt beam="1">  1       -2 0.12161593E-01 0.96580791E+02</pdfrwt>
<totfact> 0.74111954E+04</totfact>
</mgrwt>
</event>
<event>
 5    1  0.6113696E+000  0.6815965E+02  0.7546771E-02  0.1366465E+00
         -4   -1    0    0    0  501 -0.00000000000E+00  0.00000000000E+00  0.12399001996E+02  0.12399001996E+02  0.00000000000E+00 0.  1.
          4   -1    0    0  501    0  0.00000000000E+00 -0.00000000000E+00 -0.93671611056E+02  0.93671611056E+02  0.00000000000E+00 0. -1.
         23    2    1    2    0    0  0.00000000000E+00  0.00000000000E+00 -0.81272609060E+02  0.10607061305E+03  0.68159650599E+02 0.  0.
        -13    1    3    3    0    0 -0.30844209096E+02 -0.14298978812E+02 -0.36950862048E+02  0.50211475142E+02  0.00000000000E+00 0. -1.
         13    1    3    3    0    0  0.30844209096E+02  0.14298978812E+02 -0.44321747012E+02  0.55859137910E+02  0.00000000000E+00 0.  1.
<mgrwt>
<rscale>  0 0.68159651E+02</rscale>
<asrwt>0</asrwt>
<pdfrwt beam="2">  1        4 0.14411017E-01 0.68159651E+02</pdfrwt>
<pdfrwt beam="1">  1       -4 0.19075388E-02 0.68159651E+02</pdfrwt>
<totfact> 0.56364683E+04</totfact>
</mgrwt>
</event>
<event>
 5    1  0.6113696E+000  0.9145194E+02  0.7546771E-02  0.1299373E+00
          3   -1    0    0  501    0  0.00000000000E+00  0.00000000000E+00  0.21624674954E+02  0.21624674954E+02  0.00000000000E+00 0. -1.
         -3   -1    0    0    0  501 -0.00000000000E+00 -0.00000000000E+00 -0.96688831481E+02  0.96688831481E+02  0.00000000000E+00 0.  1.
         23    2    1    2    0    0  0.00000000000E+00  0.00000000000E+00 -0.75064156527E+02  0.11831350644E+03  0.91451944812E+02 0.  0.
        -13    1    3    3    0    0  0.24304109166E+02 -0.10775377634E+02 -0.85662513690E+02  0.89693169958E+02  0.00000000000E+00 0.  1.
         13    1    3    3    0    0 -0.24304109166E+02  0.10775377634E+02  0.10598357163E+02  0.28620336477E+02  0.00000000000E+00 0. -1.
<mgrwt>
<rscale>  0 0.91451945E+02</rscale>
<asrwt>0</asrwt>
<pdfrwt beam="1">  1        3 0.33268730E-02 0.91451945E+02</pdfrwt>
<pdfrwt beam="2">  1       -3 0.14875205E-01 0.91451945E+02</pdfrwt>
<totfact> 0.33091327E+04</totfact>
</mgrwt>
</event>
<event>
 5    1  0.6113696E+000  0.9036530E+02  0.7546771E-02  0.1301969E+00
          2   -1    0    0  501    0  0.00000000000E+00  0.00000000000E+00  0.71564644957E+02  0.71564644957E+02  0.00000000000E+00 0.  1.
         -2   -1    0    0    0  501 -0.00000000000E+00 -0.00000000000E+00 -0.28526264064E+02  0.28526264064E+02  0.00000000000E+00 0. -1.
         23    2    1    2    0    0  0.00000000000E+00  0.00000000000E+00  0.43038380893E+02  0.10009090902E+03  0.90365302184E+02 0.  0.
        -13    1    3    3    0    0 -0.13546301848E+02 -0.30040995380E+02  0.55757329523E+02  0.64767611449E+02  0.00000000000E+00 0.  1.
         13    1    3    3    0    0  0.13546301848E+02  0.30040995380E+02 -0.12718948630E+02  0.35323297573E+02  0.00000000000E+00 0. -1.
<mgrwt>
<rscale>  0 0.90365302E+02</rscale>
<asrwt>0</asrwt>
<pdfrwt beam="1">  1        2 0.11009945E-01 0.90365302E+02</pdfrwt>
<pdfrwt beam="2">  1       -2 0.43886560E-02 0.90365302E+02</pdfrwt>
<totfact> 0.11411272E+05</totfact>
</mgrwt>
</event>
<event>
 5    1  0.6113696E+000  0.1105939E+03  0.7546771E-02  0.1259474E+00
         -2   -1    0    0    0  501 -0.00000000000E+00  0.00000000000E+00  0.13284045187E+02  0.13284045187E+02  0.00000000000E+00 0.  1.
          2   -1    0    0  501    0  0.00000000000E+00 -0.00000000000E+00 -0.23018253239E+03  0.23018253239E+03  0.00000000000E+00 0. -1.
         23    2    1    2    0    0  0.00000000000E+00  0.00000000000E+00 -0.21689848721E+03  0.24346657758E+03  0.11059394489E+03 0.  0.
        -13    1    3    3    0    0 -0.10368967740E+02  0.37830459023E+02 -0.22646610230E+02  0.45293797332E+02  0.00000000000E+00 0.  1.
         13    1    3    3    0    0  0.10368967740E+02 -0.37830459023E+02 -0.19425187698E+03  0.19817278025E+03  0.00000000000E+00 0. -1.
<mgrwt>
<rscale>  0 0.11059394E+03</rscale>
<asrwt>0</asrwt>
<pdfrwt beam="2">  1        2 0.35412694E-01 0.11059394E+03</pdfrwt>
<pdfrwt beam="1">  1       -2 0.20436994E-02 0.11059394E+03</pdfrwt>
<totfact> 0.96399754E+04</totfact>
</mgrwt>
</event>
<event>
 5    1  0.6113696E+000  0.9052971E+02  0.7546771E-02  0.1301574E+00
          1   -1    0    0  501    0  0.00000000000E+00  0.00000000000E+00  0.27484934085E+02  0.27484934085E+02  0.00000000000E+00 0. -1.
         -1   -1    0    0    0  501 -0.00000000000E+00 -0.00000000000E+00 -0.74546546011E+02  0.74546546011E+02  0.00000000000E+00 0.  1.
         23    2    1    2    0    0  0.00000000000E+00  0.00000000000E+00 -0.47061611926E+02  0.10203148010E+03  0.90529705698E+02 0.  0.
        -13    1    3    3    0    0 -0.35048460451E+02  0.25486708535E+02 -0.87953037311E+01  0.44219048607E+02  0.00000000000E+00 0.  1.
         13    1    3    3    0    0  0.35048460451E+02 -0.25486708535E+02 -0.38266308195E+02  0.57812431490E+02  0.00000000000E+00 0. -1.
<mgrwt>
<rscale>  0 0.90529706E+02</rscale>
<asrwt>0</asrwt>
<pdfrwt beam="1">  1        1 0.42284514E-02 0.90529706E+02</pdfrwt>
<pdfrwt beam="2">  1       -1 0.11468699E-01 0.90529706E+02</pdfrwt>
<totfact> 0.87226276E+04</totfact>
</mgrwt>
</event>
<event>
 5    1  0.6113696E+000  0.8763376E+02  0.7546771E-02  0.1308685E+00
          1   -1    0    0  501    0  0.00000000000E+00  0.00000000000E+00  0.14080542349E+03  0.14080542349E+03  0.00000000000E+00 0. -1.
         -1   -1    0    0    0  501 -0.00000000000E+00 -0.00000000000E+00 -0.13635263799E+02  0.13635263799E+02  0.00000000000E+00 0.  1.
         23    2    1    2    0    0  0.00000000000E+00  0.00000000000E+00  0.12717015969E+03  0.15444068729E+03  0.87633762752E+02 0.  0.
        -13    1    3    3    0    0  0.27921120882E+02 -0.24578208394E+02  0.10439545507E+03  0.11082458373E+03  0.00000000000E+00 0. -1.
         13    1    3    3    0    0 -0.27921120882E+02  0.24578208394E+02  0.22774704618E+02  0.43616103558E+02  0.00000000000E+00 0.  1.
<mgrwt>
<rscale>  0 0.87633763E+02</rscale>
<asrwt>0</asrwt>
<pdfrwt beam="1">  1        1 0.21662372E-01 0.87633763E+02</pdfrwt>
<pdfrwt beam="2">  1       -1 0.20977330E-02 0.87633763E+02</pdfrwt>
<totfact> 0.12333236E+05</totfact>
</mgrwt>
</event>
<event>
 5    1  0.6113696E+000  0.9139870E+02  0.7546771E-02  0.1299499E+00
         -2   -1    0    0    0  501 -0.00000000000E+00  0.00000000000E+00  0.37309665176E+02  0.37309665176E+02  0.00000000000E+00 0.  1.
          2   -1    0    0  501    0  0.00000000000E+00 -0.00000000000E+00 -0.55975590117E+02  0.55975590117E+02  0.00000000000E+00 0. -1.
         23    2    1    2    0    0  0.00000000000E+00  0.00000000000E+00 -0.18665924941E+02  0.93285255293E+02  0.91398698575E+02 0.  0.
        -13    1    3    3    0    0 -0.10350622118E+02  0.31631771171E+02  0.22629989431E+02  0.40246996749E+02  0.00000000000E+00 0.  1.
         13    1    3    3    0    0  0.10350622118E+02 -0.31631771171E+02 -0.41295914371E+02  0.53038258544E+02  0.00000000000E+00 0. -1.
<mgrwt>
<rscale>  0 0.91398699E+02</rscale>
<asrwt>0</asrwt>
<pdfrwt beam="2">  1        2 0.86116293E-02 0.91398699E+02</pdfrwt>
<pdfrwt beam="1">  1       -2 0.57399485E-02 0.91398699E+02</pdfrwt>
<totfact> 0.10340893E+05</totfact>
</mgrwt>
</event>
<event>
 5    1  0.6113696E+000  0.9150366E+02  0.7546771E-02  0.1299251E+00
          3   -1    0    0  501    0  0.00000000000E+00  0.00000000000E+00  0.70013096559E+02  0.70013096559E+02  0.00000000000E+00 0. -1.
         -3   -1    0    0    0  501 -0.00000000000E+00 -0.00000000000E+00 -0.29897694373E+02  0.29897694373E+02  0.00000000000E+00 0.  1.
         23    2    1    2    0    0  0.00000000000E+00  0.00000000000E+00  0.40115402186E+02  0.99910790933E+02  0.91503664693E+02 0.  0.
        -13    1    3    3    0    0 -0.28961414446E+02  0.43790142545E+01 -0.18318194609E+02  0.34547004882E+02  0.00000000000E+00 0.  1.
         13    1    3    3    0    0  0.28961414446E+02 -0.43790142545E+01  0.58433596794E+02  0.65363786051E+02  0.00000000000E+00 0. -1.
<mgrwt>
<rscale>  0 0.91503665E+02</rscale>
<asrwt>0</asrwt>
<pdfrwt beam="1">  1        3 0.10771246E-01 0.91503665E+02</pdfrwt>
<pdfrwt beam="2">  1       -3 0.45996453E-02 0.91503665E+02</pdfrwt>
<totfact> 0.34340886E+04</totfact>
</mgrwt>
</event>
<event>
 5    1  0.6113696E+000  0.9401346E+02  0.7546771E-02  0.1293414E+00
          2   -1    0    0  501    0  0.00000000000E+00  0.00000000000E+00  0.94497947508E+02  0.94497947508E+02  0.00000000000E+00 0. -1.
         -2   -1    0    0    0  501 -0.00000000000E+00 -0.00000000000E+00 -0.23382862247E+02  0.23382862247E+02  0.00000000000E+00 0.  1.
         23    2    1    2    0    0  0.00000000000E+00  0.00000000000E+00  0.71115085261E+02  0.11788080975E+03  0.94013456254E+02 0.  0.
        -13    1    3    3    0    0  0.24035138708E+02 -0.40383687258E+02  0.34241037142E+02  0.58146184001E+02  0.00000000000E+00 0.  1.
         13    1    3    3    0    0 -0.24035138708E+02  0.40383687258E+02  0.36874048119E+02  0.59734625754E+02  0.00000000000E+00 0. -1.
<mgrwt>
<rscale>  0 0.94013456E+02</rscale>
<asrwt>0</asrwt>
<pdfrwt beam="1">  1        2 0.14538146E-01 0.94013456E+02</pdfrwt>
<pdfrwt beam="2">  1       -2 0.35973635E-02 0.94013456E+02</pdfrwt>
<totfact> 0.11079120E+05</totfact>
</mgrwt>
</event>
<event>
 5    1  0.6113696E+000  0.9092277E+02  0.7546771E-02  0.1300632E+00
         -2   -1    0    0    0  501 -0.00000000000E+00  0.00000000000E+00  0.17527395624E+02  0.17527395624E+02  0.00000000000E+00 0.  1.
          2   -1    0    0  501    0  0.00000000000E+00 -0.00000000000E+00 -0.11791469008E+03  0.11791469008E+03  0.00000000000E+00 0. -1.
         23    2    1    2    0    0  0.00000000000E+00  0.00000000000E+00 -0.10038729445E+03  0.13544208570E+03  0.90922767729E+02 0.  0.
        -13    1    3    3    0    0 -0.37884878155E+02 -0.79236524087E+01 -0.85717369134E+02  0.94050601442E+02  0.00000000000E+00 0. -1.
         13    1    3    3    0    0  0.37884878155E+02  0.79236524087E+01 -0.14669925320E+02  0.41391484260E+02  0.00000000000E+00 0.  1.
<mgrwt>
<rscale>  0 0.90922768E+02</rscale>
<asrwt>0</asrwt>
<pdfrwt beam="2">  1        2 0.18140723E-01 0.90922768E+02</pdfrwt>
<pdfrwt beam="1">  1       -2 0.26965222E-02 0.90922768E+02</pdfrwt>
<totfact> 0.13012846E+05</totfact>
</mgrwt>
</event>
<event>
 5    1  0.6113696E+000  0.9468565E+02  0.7546771E-02  0.1291886E+00
         -3   -1    0    0    0  501 -0.00000000000E+00  0.00000000000E+00  0.27788213656E+02  0.27788213656E+02  0.00000000000E+00 0.  1.
          3   -1    0    0  501    0  0.00000000000E+00 -0.00000000000E+00 -0.80658044967E+02  0.80658044967E+02  0.00000000000E+00 0. -1.
         23    2    1    2    0    0  0.00000000000E+00  0.00000000000E+00 -0.52869831311E+02  0.10844625862E+03  0.94685648050E+02 0.  0.
        -13    1    3    3    0    0  0.45852573296E+02  0.96632655902E+01 -0.34161077967E+02  0.57989795892E+02  0.00000000000E+00 0.  1.
         13    1    3    3    0    0 -0.45852573296E+02 -0.96632655902E+01 -0.18708753344E+02  0.50456462732E+02  0.00000000000E+00 0. -1.
<mgrwt>
<rscale>  0 0.94685648E+02</rscale>
<asrwt>0</asrwt>
<pdfrwt beam="2">  1        3 0.12408930E-01 0.94685648E+02</pdfrwt>
<pdfrwt beam="1">  1       -3 0.42751099E-02 0.94685648E+02</pdfrwt>
<totfact> 0.30721050E+04</totfact>
</mgrwt>
</event>
<event>
 5    1  0.6113696E+000  0.9897521E+02  0.7546771E-02  0.1282466E+00
          2   -1    0    0  501    0  0.00000000000E+00  0.00000000000E+00  0.46840973007E+03  0.46840973007E+03  0.00000000000E+00 0. -1.
         -2   -1    0    0    0  501 -0.00000000000E+00 -0.00000000000E+00 -0.52283777065E+01  0.52283777065E+01  0.00000000000E+00 0.  1.
         23    2    1    2    0    0  0.00000000000E+00  0.00000000000E+00  0.46318135236E+03  0.47363810778E+03  0.98975208820E+02 0.  0.
        -13    1    3    3    0    0  0.46650321549E+02 -0.11838542470E+02  0.28669983004E+03  0.29071153423E+03  0.00000000000E+00 0.  1.
         13    1    3    3    0    0 -0.46650321549E+02  0.11838542470E+02  0.17648152232E+03  0.18292657355E+03  0.00000000000E+00 0. -1.
<mgrwt>
<rscale>  0 0.98975209E+02</rscale>
<asrwt>0</asrwt>
<pdfrwt beam="1">  1        2 0.72063002E-01 0.98975209E+02</pdfrwt>
<pdfrwt beam="2">  1       -2 0.80436617E-03 0.98975209E+02</pdfrwt>
<totfact> 0.16951701E+05</totfact>
</mgrwt>
</event>
<event>
 5    1  0.6113696E+000  0.9108348E+02  0.7546771E-02  0.1300249E+00
         -1   -1    0    0    0  501 -0.00000000000E+00  0.00000000000E+00  0.11313190962E+02  0.11313190962E+02  0.00000000000E+00 0.  1.
          1   -1    0    0  501    0  0.00000000000E+00 -0.00000000000E+00 -0.18333024108E+03  0.18333024108E+03  0.00000000000E+00 0. -1.
         23    2    1    2    0    0  0.00000000000E+00  0.00000000000E+00 -0.17201705012E+03  0.19464343204E+03  0.91083478776E+02 0.  0.
        -13    1    3    3    0    0 -0.59326255478E+01 -0.42589900665E+02 -0.53957100692E+02  0.68996118728E+02  0.00000000000E+00 0.  1.
         13    1    3    3    0    0  0.59326255478E+01  0.42589900665E+02 -0.11805994942E+03  0.12564731331E+03  0.00000000000E+00 0. -1.
<mgrwt>
<rscale>  0 0.91083479E+02</rscale>
<asrwt>0</asrwt>
<pdfrwt beam="2">  1        1 0.28204652E-01 0.91083479E+02</pdfrwt>
<pdfrwt beam="1">  1       -1 0.17404909E-02 0.91083479E+02</pdfrwt>
<totfact> 0.11675542E+05</totfact>
</mgrwt>
</event>
<event>
 5    1  0.6113696E+000  0.8891037E+02  0.7546771E-02  0.1305512E+00
          3   -1    0    0  501    0  0.00000000000E+00  0.00000000000E+00  0.12151687548E+02  0.12151687548E+02  0.00000000000E+00 0. -1.
         -3   -1    0    0    0  501 -0.00000000000E+00 -0.00000000000E+00 -0.16263284849E+03  0.16263284849E+03  0.00000000000E+00 0.  1.
         23    2    1    2    0    0  0.00000000000E+00  0.00000000000E+00 -0.15048116094E+03  0.17478453603E+03  0.88910371945E+02 0.  0.
        -13    1    3    3    0    0  0.48793785925E+00  0.32981584425E+02 -0.13382955282E+03  0.13783458275E+03  0.00000000000E+00 0.  1.
         13    1    3    3    0    0 -0.48793785925E+00 -0.32981584425E+02 -0.16651608116E+02  0.36949953280E+02  0.00000000000E+00 0. -1.
<mgrwt>
<rscale>  0 0.88910372E+02</rscale>
<asrwt>0</asrwt>
<pdfrwt beam="1">  1        3 0.18694905E-02 0.88910372E+02</pdfrwt>
<pdfrwt beam="2">  1       -3 0.25020437E-01 0.88910372E+02</pdfrwt>
<totfact> 0.31951634E+04</totfact>
</mgrwt>
</event>
<event>
 5    1  0.6113696E+000  0.1013310E+03  0.7546771E-02  0.1277522E+00
         -2   -1    0    0    0  501 -0.00000000000E+00  0.00000000000E+00  0.28085598733E+02  0.28085598733E+02  0.00000000000E+00 0. -1.
          2   -1    0    0  501    0  0.00000000000E+00 -0.00000000000E+00 -0.91398844828E+02  0.91398844828E+02  0.00000000000E+00 0.  1.
         23    2    1    2    0    0  0.00000000000E+00  0.00000000000E+00 -0.63313246095E+02  0.11948444356E+03  0.10133096823E+03 0.  0.
        -13    1    3    3    0    0 -0.34766982970E+02 -0.16893751963E+02 -0.70278959088E+02  0.80207693214E+02  0.00000000000E+00 0.  1.
         13    1    3    3    0    0  0.34766982970E+02  0.16893751963E+02  0.69657129935E+01  0.39276750346E+02  0.00000000000E+00 0. -1.
<mgrwt>
<rscale>  0 0.10133097E+03</rscale>
<asrwt>0</asrwt>
<pdfrwt beam="2">  1        2 0.14061361E-01 0.10133097E+03</pdfrwt>
<pdfrwt beam="1">  1       -2 0.43208614E-02 0.10133097E+03</pdfrwt>
<totfact> 0.88957465E+04</totfact>
</mgrwt>
</event>
<event>
 5    1  0.6113696E+000  0.8990408E+02  0.7546771E-02  0.1303084E+00
          4   -1    0    0  501    0  0.00000000000E+00  0.00000000000E+00  0.75087738907E+02  0.75087738907E+02  0.00000000000E+00 0. -1.
         -4   -1    0    0    0  501 -0.00000000000E+00 -0.00000000000E+00 -0.26910999247E+02  0.26910999247E+02  0.00000000000E+00 0.  1.
         23    2    1    2    0    0  0.00000000000E+00  0.00000000000E+00  0.48176739660E+02  0.10199873815E+03  0.89904084116E+02 0.  0.
        -13    1    3    3    0    0  0.39574218816E+02 -0.11296362407E+02  0.44602936576E+02  0.60688949156E+02  0.00000000000E+00 0.  1.
         13    1    3    3    0    0 -0.39574218816E+02  0.11296362407E+02  0.35738030843E+01  0.41309788997E+02  0.00000000000E+00 0. -1.
<mgrwt>
<rscale>  0 0.89904084E+02</rscale>
<asrwt>0</asrwt>
<pdfrwt beam="1">  1        4 0.11551960E-01 0.89904084E+02</pdfrwt>
<pdfrwt beam="2">  1       -4 0.41401538E-02 0.89904084E+02</pdfrwt>
<totfact> 0.27354775E+04</totfact>
</mgrwt>
</event>
<event>
 5    1  0.6113696E+000  0.9110935E+02  0.7546771E-02  0.1300187E+00
          1   -1    0    0  501    0  0.00000000000E+00  0.00000000000E+00  0.13804747427E+03  0.13804747427E+03  0.00000000000E+00 0. -1.
         -1   -1    0    0    0  501 -0.00000000000E+00 -0.00000000000E+00 -0.15032714819E+02  0.15032714819E+02  0.00000000000E+00 0.  1.
         23    2    1    2    0    0  0.00000000000E+00  0.00000000000E+00  0.12301475945E+03  0.15308018909E+03  0.91109347759E+02 0.  0.
        -13    1    3    3    0    0  0.29987573179E+02 -0.32873435240E+02  0.45104216102E+02  0.63358563745E+02  0.00000000000E+00 0. -1.
         13    1    3    3    0    0 -0.29987573179E+02  0.32873435240E+02  0.77910543353E+02  0.89721625348E+02  0.00000000000E+00 0.  1.
<mgrwt>
<rscale>  0 0.91109348E+02</rscale>
<asrwt>0</asrwt>
<pdfrwt beam="1">  1        1 0.21238072E-01 0.91109348E+02</pdfrwt>
<pdfrwt beam="2">  1       -1 0.23127255E-02 0.91109348E+02</pdfrwt>
<totfact> 0.11067077E+05</totfact>
</mgrwt>
</event>
<event>
 5    1  0.6113696E+000  0.9558213E+02  0.7546771E-02  0.1289870E+00
         -1   -1    0    0    0  501 -0.00000000000E+00  0.00000000000E+00  0.54268981839E+02  0.54268981839E+02  0.00000000000E+00 0.  1.
          1   -1    0    0  501    0  0.00000000000E+00 -0.00000000000E+00 -0.42086393834E+02  0.42086393834E+02  0.00000000000E+00 0. -1.
         23    2    1    2    0    0  0.00000000000E+00  0.00000000000E+00  0.12182588005E+02  0.96355375673E+02  0.95582126836E+02 0.  0.
        -13    1    3    3    0    0 -0.25064800675E+02 -0.25663252364E+02  0.37924260173E+02  0.52202454583E+02  0.00000000000E+00 0. -1.
         13    1    3    3    0    0  0.25064800675E+02  0.25663252364E+02 -0.25741672168E+02  0.44152921090E+02  0.00000000000E+00 0.  1.
<mgrwt>
<rscale>  0 0.95582127E+02</rscale>
<asrwt>0</asrwt>
<pdfrwt beam="2">  1        1 0.64748298E-02 0.95582127E+02</pdfrwt>
<pdfrwt beam="1">  1       -1 0.83490741E-02 0.95582127E+02</pdfrwt>
<totfact> 0.79939001E+04</totfact>
</mgrwt>
</event>
<event>
 5    1  0.6113696E+000  0.9209423E+02  0.7546771E-02  0.1297858E+00
          4   -1    0    0  501    0  0.00000000000E+00  0.00000000000E+00  0.25953646329E+03  0.25953646329E+03  0.00000000000E+00 0. -1.
         -4   -1    0    0    0  501 -0.00000000000E+00 -0.00000000000E+00 -0.81697065843E+01  0.81697065843E+01  0.00000000000E+00 0.  1.
         23    2    1    2    0    0  0.00000000000E+00  0.00000000000E+00  0.25136675671E+03  0.26770616988E+03  0.92094228984E+02 0.  0.
        -13    1    3    3    0    0  0.29953739396E+02 -0.31791996498E+02  0.16804591549E+03  0.17363002983E+03  0.00000000000E+00 0.  1.
         13    1    3    3    0    0 -0.29953739396E+02  0.31791996498E+02  0.83320841215E+02  0.94076140046E+02  0.00000000000E+00 0. -1.
<mgrwt>
<rscale>  0 0.92094229E+02</rscale>
<asrwt>0</asrwt>
<pdfrwt beam="1">  1        4 0.39928680E-01 0.92094229E+02</pdfrwt>
<pdfrwt beam="2">  1       -4 0.12568781E-02 0.92094229E+02</pdfrwt>
<totfact> 0.18356105E+04</totfact>
</mgrwt>
</event>
<event>
 5    1  0.6113696E+000  0.8522168E+02  0.7546771E-02  0.1314854E+00
         -1   -1    0    0    0  501 -0.00000000000E+00  0.00000000000E+00  0.39575614806E+01  0.39575614806E+01  0.00000000000E+00 0.  1.
          1   -1    0    0  501    0  0.00000000000E+00 -0.00000000000E+00 -0.45878844908E+03  0.45878844908E+03  0.00000000000E+00 0. -1.
         23    2    1    2    0    0  0.00000000000E+00  0.00000000000E+00 -0.45483088760E+03  0.46274601056E+03  0.85221675502E+02 0.  0.
        -13    1    3    3    0    0  0.98304329056E+01 -0.41454212888E+02 -0.23160146589E+03  0.23548742680E+03  0.00000000000E+00 0.  1.
         13    1    3    3    0    0 -0.98304329056E+01  0.41454212888E+02 -0.22322942171E+03  0.22725858376E+03  0.00000000000E+00 0. -1.
<mgrwt>
<rscale>  0 0.85221676E+02</rscale>
<asrwt>0</asrwt>
<pdfrwt beam="2">  1        1 0.70582813E-01 0.85221676E+02</pdfrwt>
<pdfrwt beam="1">  1       -1 0.60885583E-03 0.85221676E+02</pdfrwt>
<totfact> 0.16464183E+05</totfact>
</mgrwt>
</event>
<event>
 5    1  0.6113696E+000  0.7476616E+02  0.7546771E-02  0.1344597E+00
         -2   -1    0    0    0  501 -0.00000000000E+00  0.00000000000E+00  0.18181944119E+02  0.18181944119E+02  0.00000000000E+00 0.  1.
          2   -1    0    0  501    0  0.00000000000E+00 -0.00000000000E+00 -0.76861669650E+02  0.76861669650E+02  0.00000000000E+00 0. -1.
         23    2    1    2    0    0  0.00000000000E+00  0.00000000000E+00 -0.58679725531E+02  0.95043613769E+02  0.74766157651E+02 0.  0.
        -13    1    3    3    0    0 -0.25893265139E+02  0.93847846619E+01 -0.61473097694E+02  0.67360797967E+02  0.00000000000E+00 0. -1.
         13    1    3    3    0    0  0.25893265139E+02 -0.93847846619E+01  0.27933721630E+01  0.27682815802E+02  0.00000000000E+00 0.  1.
<mgrwt>
<rscale>  0 0.74766158E+02</rscale>
<asrwt>0</asrwt>
<pdfrwt beam="2">  1        2 0.11824872E-01 0.74766158E+02</pdfrwt>
<pdfrwt beam="1">  1       -2 0.27972222E-02 0.74766158E+02</pdfrwt>
<totfact> 0.19559871E+05</totfact>
</mgrwt>
</event>
<event>
 5    1  0.6113696E+000  0.9242265E+02  0.7546771E-02  0.1297089E+00
          1   -1    0    0  501    0  0.00000000000E+00  0.00000000000E+00  0.72216672305E+02  0.72216672305E+02  0.00000000000E+00 0. -1.
         -1   -1    0    0    0  501 -0.00000000000E+00 -0.00000000000E+00 -0.29570549870E+02  0.29570549870E+02  0.00000000000E+00 0.  1.
         23    2    1    2    0    0  0.00000000000E+00  0.00000000000E+00  0.42646122436E+02  0.10178722218E+03  0.92422653280E+02 0.  0.
        -13    1    3    3    0    0  0.25888473576E+02 -0.31232423296E+02 -0.30510270472E+01  0.40681520314E+02  0.00000000000E+00 0.  1.
         13    1    3    3    0    0 -0.25888473576E+02  0.31232423296E+02  0.45697149483E+02  0.61105701861E+02  0.00000000000E+00 0. -1.
<mgrwt>
<rscale>  0 0.92422653E+02</rscale>
<asrwt>0</asrwt>
<pdfrwt beam="1">  1        1 0.11110257E-01 0.92422653E+02</pdfrwt>
<pdfrwt beam="2">  1       -1 0.45493154E-02 0.92422653E+02</pdfrwt>
<totfact> 0.95498983E+04</totfact>
</mgrwt>
</event>
<event>
 5    1  0.6113696E+000  0.8908552E+02  0.7546771E-02  0.1305081E+00
         -1   -1    0    0    0  501 -0.00000000000E+00  0.00000000000E+00  0.93551170762E+02  0.93551170762E+02  0.00000000000E+00 0.  1.
          1   -1    0    0  501    0  0.00000000000E+00 -0.00000000000E+00 -0.21208258655E+02  0.21208258655E+02  0.00000000000E+00 0. -1.
         23    2    1    2    0    0  0.00000000000E+00  0.00000000000E+00  0.72342912107E+02  0.11475942942E+03  0.89085519069E+02 0.  0.
        -13    1    3    3    0    0  0.29384291354E+02 -0.32136443091E+02  0.24096063237E+02  0.49767537777E+02  0.00000000000E+00 0. -1.
         13    1    3    3    0    0 -0.29384291354E+02  0.32136443091E+02  0.48246848870E+02  0.64991891639E+02  0.00000000000E+00 0.  1.
<mgrwt>
<rscale>  0 0.89085519E+02</rscale>
<asrwt>0</asrwt>
<pdfrwt beam="2">  1        1 0.32628091E-02 0.89085519E+02</pdfrwt>
<pdfrwt beam="1">  1       -1 0.14392488E-01 0.89085519E+02</pdfrwt>
<totfact> 0.87426983E+04</totfact>
</mgrwt>
</event>
<event>
 5    1  0.6113696E+000  0.9335786E+02  0.7546771E-02  0.1294918E+00
          1   -1    0    0  501    0  0.00000000000E+00  0.00000000000E+00  0.26535696773E+03  0.26535696773E+03  0.00000000000E+00 0. -1.
         -1   -1    0    0    0  501 -0.00000000000E+00 -0.00000000000E+00 -0.82112885253E+01  0.82112885253E+01  0.00000000000E+00 0.  1.
         23    2    1    2    0    0  0.00000000000E+00  0.00000000000E+00  0.25714567921E+03  0.27356825626E+03  0.93357862535E+02 0.  0.
        -13    1    3    3    0    0  0.15455424984E+02  0.34875579461E+02  0.49739846378E+02  0.62683558625E+02  0.00000000000E+00 0.  1.
         13    1    3    3    0    0 -0.15455424984E+02 -0.34875579461E+02  0.20740583283E+03  0.21088469763E+03  0.00000000000E+00 0. -1.
<mgrwt>
<rscale>  0 0.93357863E+02</rscale>
<asrwt>0</asrwt>
<pdfrwt beam="1">  1        1 0.40824142E-01 0.93357863E+02</pdfrwt>
<pdfrwt beam="2">  1       -1 0.12632754E-02 0.93357863E+02</pdfrwt>
<totfact> 0.11745351E+05</totfact>
</mgrwt>
</event>
<event>
 5    1  0.6113696E+000  0.9175521E+02  0.7546771E-02  0.1298656E+00
         -1   -1    0    0    0  501 -0.00000000000E+00  0.00000000000E+00  0.10968564741E+03  0.10968564741E+03  0.00000000000E+00 0.  1.
          1   -1    0    0  501    0  0.00000000000E+00 -0.00000000000E+00 -0.19188968361E+02  0.19188968361E+02  0.00000000000E+00 0. -1.
         23    2    1    2    0    0  0.00000000000E+00  0.00000000000E+00  0.90496679046E+02  0.12887461577E+03  0.91755205145E+02 0.  0.
        -13    1    3    3    0    0 -0.10532449035E+02  0.16322519564E+02  0.10362413208E+03  0.10542920789E+03  0.00000000000E+00 0.  1.
         13    1    3    3    0    0  0.10532449035E+02 -0.16322519564E+02 -0.13127453030E+02  0.23445407880E+02  0.00000000000E+00 0. -1.
<mgrwt>
<rscale>  0 0.91755205E+02</rscale>
<asrwt>0</asrwt>
<pdfrwt beam="2">  1        1 0.29521491E-02 0.91755205E+02</pdfrwt>
<pdfrwt beam="1">  1       -1 0.16874715E-01 0.91755205E+02</pdfrwt>
<totfact> 0.78656470E+04</totfact>
</mgrwt>
</event>
<event>
 5    1  0.6113696E+000  0.9178976E+02  0.7546771E-02  0.1298575E+00
         -2   -1    0    0    0  501 -0.00000000000E+00  0.00000000000E+00  0.21885364688E+02  0.21885364688E+02  0.00000000000E+00 0.  1.
          2   -1    0    0  501    0  0.00000000000E+00 -0.00000000000E+00 -0.96244234672E+02  0.96244234672E+02  0.00000000000E+00 0. -1.
         23    2    1    2    0    0  0.00000000000E+00  0.00000000000E+00 -0.74358869984E+02  0.11812959936E+03  0.91789763589E+02 0.  0.
        -13    1    3    3    0    0  0.70100794145E+01  0.29901018045E+02  0.67118454036E+01  0.31436618174E+02  0.00000000000E+00 0.  1.
         13    1    3    3    0    0 -0.70100794145E+01 -0.29901018045E+02 -0.81070715387E+02  0.86692981186E+02  0.00000000000E+00 0. -1.
<mgrwt>
<rscale>  0 0.91789764E+02</rscale>
<asrwt>0</asrwt>
<pdfrwt beam="2">  1        2 0.14806805E-01 0.91789764E+02</pdfrwt>
<pdfrwt beam="1">  1       -2 0.33669793E-02 0.91789764E+02</pdfrwt>
<totfact> 0.11903936E+05</totfact>
</mgrwt>
</event>
<event>
 5    1  0.6113696E+000  0.8702875E+02  0.7546771E-02  0.1310211E+00
         -1   -1    0    0    0  501 -0.00000000000E+00  0.00000000000E+00  0.58763288184E+02  0.58763288184E+02  0.00000000000E+00 0.  1.
          1   -1    0    0  501    0  0.00000000000E+00 -0.00000000000E+00 -0.32222514216E+02  0.32222514216E+02  0.00000000000E+00 0. -1.
         23    2    1    2    0    0  0.00000000000E+00  0.00000000000E+00  0.26540773968E+02  0.90985802400E+02  0.87028751316E+02 0.  0.
        -13    1    3    3    0    0 -0.19871072972E+02 -0.78777344446E+01 -0.26355243498E+02  0.33934010975E+02  0.00000000000E+00 0. -1.
         13    1    3    3    0    0  0.19871072972E+02  0.78777344446E+01  0.52896017466E+02  0.57051791425E+02  0.00000000000E+00 0.  1.
<mgrwt>
<rscale>  0 0.87028751E+02</rscale>
<asrwt>0</asrwt>
<pdfrwt beam="2">  1        1 0.49573099E-02 0.87028751E+02</pdfrwt>
<pdfrwt beam="1">  1       -1 0.90405059E-02 0.87028751E+02</pdfrwt>
<totfact> 0.10009445E+05</totfact>
</mgrwt>
</event>
<event>
 5    1  0.6113696E+000  0.9223652E+02  0.7546771E-02  0.1297524E+00
         -1   -1    0    0    0  501 -0.00000000000E+00  0.00000000000E+00  0.73847005262E+02  0.73847005262E+02  0.00000000000E+00 0.  1.
          1   -1    0    0  501    0  0.00000000000E+00 -0.00000000000E+00 -0.28801358251E+02  0.28801358251E+02  0.00000000000E+00 0. -1.
         23    2    1    2    0    0  0.00000000000E+00  0.00000000000E+00  0.45045647011E+02  0.10264836351E+03  0.92236523228E+02 0.  0.
        -13    1    3    3    0    0 -0.29919560395E+02  0.14241950788E+02  0.58219816720E+02  0.66989255224E+02  0.00000000000E+00 0.  1.
         13    1    3    3    0    0  0.29919560395E+02 -0.14241950788E+02 -0.13174169709E+02  0.35659108290E+02  0.00000000000E+00 0. -1.
<mgrwt>
<rscale>  0 0.92236523E+02</rscale>
<asrwt>0</asrwt>
<pdfrwt beam="2">  1        1 0.44309782E-02 0.92236523E+02</pdfrwt>
<pdfrwt beam="1">  1       -1 0.11361078E-01 0.92236523E+02</pdfrwt>
<totfact> 0.83290232E+04</totfact>
</mgrwt>
</event>
<event>
 5    1  0.6113696E+000  0.8460200E+02  0.7546771E-02  0.1316477E+00
          1   -1    0    0  501    0  0.00000000000E+00  0.00000000000E+00  0.85284815261E+02  0.85284815261E+02  0.00000000000E+00 0. -1.
         -1   -1    0    0    0  501 -0.00000000000E+00 -0.00000000000E+00 -0.20981160634E+02  0.20981160634E+02  0.00000000000E+00 0.  1.
         23    2    1    2    0    0  0.00000000000E+00  0.00000000000E+00  0.64303654627E+02  0.10626597589E+03  0.84601995452E+02 0.  0.
        -13    1    3    3    0    0  0.36943612167E+02  0.10948936261E+02  0.54076075707E+02  0.66399786514E+02  0.00000000000E+00 0. -1.
         13    1    3    3    0    0 -0.36943612167E+02 -0.10948936261E+02  0.10227578921E+02  0.39866189381E+02  0.00000000000E+00 0.  1.
<mgrwt>
<rscale>  0 0.84601995E+02</rscale>
<asrwt>0</asrwt>
<pdfrwt beam="1">  1        1 0.13120741E-01 0.84601995E+02</pdfrwt>
<pdfrwt beam="2">  1       -1 0.32278709E-02 0.84601995E+02</pdfrwt>
<totfact> 0.12478371E+05</totfact>
</mgrwt>
</event>
<event>
 5    1  0.6113696E+000  0.9042044E+02  0.7546771E-02  0.1301837E+00
         -2   -1    0    0    0  501 -0.00000000000E+00  0.00000000000E+00  0.18990284250E+02  0.18990284250E+02  0.00000000000E+00 0.  1.
          2   -1    0    0  501    0  0.00000000000E+00 -0.00000000000E+00 -0.10763208113E+03  0.10763208113E+03  0.00000000000E+00 0. -1.
         23    2    1    2    0    0  0.00000000000E+00  0.00000000000E+00 -0.88641796877E+02  0.12662236538E+03  0.90420436076E+02 0.  0.
        -13    1    3    3    0    0  0.31384638351E+02 -0.30152965650E+01  0.10537095756E+01  0.31546756436E+02  0.00000000000E+00 0.  1.
         13    1    3    3    0    0 -0.31384638351E+02  0.30152965650E+01 -0.89695506453E+02  0.95075608941E+02  0.00000000000E+00 0. -1.
<mgrwt>
<rscale>  0 0.90420436E+02</rscale>
<asrwt>0</asrwt>
<pdfrwt beam="2">  1        2 0.16558781E-01 0.90420436E+02</pdfrwt>
<pdfrwt beam="1">  1       -2 0.29215823E-02 0.90420436E+02</pdfrwt>
<totfact> 0.12838307E+05</totfact>
</mgrwt>
</event>
<event>
 5    1  0.6113696E+000  0.8893479E+02  0.7546771E-02  0.1305452E+00
         -2   -1    0    0    0  501 -0.00000000000E+00  0.00000000000E+00  0.72853227752E+02  0.72853227752E+02  0.00000000000E+00 0.  1.
          2   -1    0    0  501    0  0.00000000000E+00 -0.00000000000E+00 -0.27141543805E+02  0.27141543805E+02  0.00000000000E+00 0. -1.
         23    2    1    2    0    0  0.00000000000E+00  0.00000000000E+00  0.45711683946E+02  0.99994771557E+02  0.88934786724E+02 0.  0.
        -13    1    3    3    0    0  0.13255939175E+02  0.38079475043E+02  0.17734738991E+01  0.40359776419E+02  0.00000000000E+00 0. -1.
         13    1    3    3    0    0 -0.13255939175E+02 -0.38079475043E+02  0.43938210047E+02  0.59634995138E+02  0.00000000000E+00 0.  1.
<mgrwt>
<rscale>  0 0.88934787E+02</rscale>
<asrwt>0</asrwt>
<pdfrwt beam="2">  1        2 0.41756222E-02 0.88934787E+02</pdfrwt>
<pdfrwt beam="1">  1       -2 0.11208189E-01 0.88934787E+02</pdfrwt>
<totfact> 0.92748819E+04</totfact>
</mgrwt>
</event>
<event>
 5    1  0.6113696E+000  0.9369745E+02  0.7546771E-02  0.1294137E+00
         -2   -1    0    0    0  501 -0.00000000000E+00  0.00000000000E+00  0.11008491721E+02  0.11008491721E+02  0.00000000000E+00 0. -1.
          2   -1    0    0  501    0  0.00000000000E+00 -0.00000000000E+00 -0.19937365475E+03  0.19937365475E+03  0.00000000000E+00 0.  1.
         23    2    1    2    0    0  0.00000000000E+00  0.00000000000E+00 -0.18836516303E+03  0.21038214647E+03  0.93697454132E+02 0.  0.
        -13    1    3    3    0    0  0.35378209615E+02 -0.20151574755E+02 -0.42146032863E+02  0.58600271047E+02  0.00000000000E+00 0. -1.
         13    1    3    3    0    0 -0.35378209615E+02  0.20151574755E+02 -0.14621913017E+03  0.15178187543E+03  0.00000000000E+00 0.  1.
<mgrwt>
<rscale>  0 0.93697454E+02</rscale>
<asrwt>0</asrwt>
<pdfrwt beam="2">  1        2 0.30672870E-01 0.93697454E+02</pdfrwt>
<pdfrwt beam="1">  1       -2 0.16936141E-02 0.93697454E+02</pdfrwt>
<totfact> 0.14354108E+05</totfact>
</mgrwt>
</event>
<event>
 5    1  0.6113696E+000  0.9089376E+02  0.7546771E-02  0.1300702E+00
          2   -1    0    0  501    0  0.00000000000E+00  0.00000000000E+00  0.16721121372E+02  0.16721121372E+02  0.00000000000E+00 0. -1.
         -2   -1    0    0    0  501 -0.00000000000E+00 -0.00000000000E+00 -0.12352155149E+03  0.12352155149E+03  0.00000000000E+00 0.  1.
         23    2    1    2    0    0  0.00000000000E+00  0.00000000000E+00 -0.10680043011E+03  0.14024267286E+03  0.90893758959E+02 0.  0.
        -13    1    3    3    0    0 -0.24828800559E+02  0.37386980862E+02 -0.64436550136E+02  0.78525949014E+02  0.00000000000E+00 0.  1.
         13    1    3    3    0    0  0.24828800559E+02 -0.37386980862E+02 -0.42363879978E+02  0.61716723843E+02  0.00000000000E+00 0. -1.
<mgrwt>
<rscale>  0 0.90893759E+02</rscale>
<asrwt>0</asrwt>
<pdfrwt beam="1">  1        2 0.25724801E-02 0.90893759E+02</pdfrwt>
<pdfrwt beam="2">  1       -2 0.19003316E-01 0.90893759E+02</pdfrwt>
<totfact> 0.75294922E+04</totfact>
</mgrwt>
</event>
<event>
 5    1  0.6113696E+000  0.9151798E+02  0.7546771E-02  0.1299217E+00
         -2   -1    0    0    0  501 -0.00000000000E+00  0.00000000000E+00  0.10667794029E+02  0.10667794029E+02  0.00000000000E+00 0.  1.
          2   -1    0    0  501    0  0.00000000000E+00 -0.00000000000E+00 -0.19628096849E+03  0.19628096849E+03  0.00000000000E+00 0. -1.
         23    2    1    2    0    0  0.00000000000E+00  0.00000000000E+00 -0.18561317446E+03  0.20694876252E+03  0.91517975143E+02 0.  0.
        -13    1    3    3    0    0 -0.36895441872E+02  0.50360884402E+01 -0.15294370933E+03  0.15741160707E+03  0.00000000000E+00 0. -1.
         13    1    3    3    0    0  0.36895441872E+02 -0.50360884402E+01 -0.32669465132E+02  0.49537155447E+02  0.00000000000E+00 0.  1.
<mgrwt>
<rscale>  0 0.91517975E+02</rscale>
<asrwt>0</asrwt>
<pdfrwt beam="2">  1        2 0.30197072E-01 0.91517975E+02</pdfrwt>
<pdfrwt beam="1">  1       -2 0.16411991E-02 0.91517975E+02</pdfrwt>
<totfact> 0.15209552E+05</totfact>
</mgrwt>
</event>
<event>
 5    1  0.6113696E+000  0.9035767E+02  0.7546771E-02  0.1301988E+00
         -1   -1    0    0    0  501 -0.00000000000E+00  0.00000000000E+00  0.27067665087E+02  0.27067665087E+02  0.00000000000E+00 0.  1.
          1   -1    0    0  501    0  0.00000000000E+00 -0.00000000000E+00 -0.75408324096E+02  0.75408324096E+02  0.00000000000E+00 0. -1.
         23    2    1    2    0    0  0.00000000000E+00  0.00000000000E+00 -0.48340659010E+02  0.10247598918E+03  0.90357672865E+02 0.  0.
        -13    1    3    3    0    0 -0.20574095933E+02  0.66270838986E+00 -0.69780855823E+02  0.72753697124E+02  0.00000000000E+00 0. -1.
         13    1    3    3    0    0  0.20574095933E+02 -0.66270838986E+00  0.21440196813E+02  0.29722292059E+02  0.00000000000E+00 0.  1.
<mgrwt>
<rscale>  0 0.90357673E+02</rscale>
<asrwt>0</asrwt>
<pdfrwt beam="2">  1        1 0.11601280E-01 0.90357673E+02</pdfrwt>
<pdfrwt beam="1">  1       -1 0.41642562E-02 0.90357673E+02</pdfrwt>
<totfact> 0.10231917E+05</totfact>
</mgrwt>
</event>
<event>
 5    1  0.6113696E+000  0.9199608E+02  0.7546771E-02  0.1298089E+00
          1   -1    0    0  501    0  0.00000000000E+00  0.00000000000E+00  0.12685500347E+03  0.12685500347E+03  0.00000000000E+00 0. -1.
         -1   -1    0    0    0  501 -0.00000000000E+00 -0.00000000000E+00 -0.16679038430E+02  0.16679038430E+02  0.00000000000E+00 0.  1.
         23    2    1    2    0    0  0.00000000000E+00  0.00000000000E+00  0.11017596504E+03  0.14353404190E+03  0.91996075522E+02 0.  0.
        -13    1    3    3    0    0 -0.12263318771E+02 -0.20580520830E+02  0.11635261978E+03  0.11879342976E+03  0.00000000000E+00 0. -1.
         13    1    3    3    0    0  0.12263318771E+02  0.20580520830E+02 -0.61766547449E+01  0.24740612133E+02  0.00000000000E+00 0.  1.
<mgrwt>
<rscale>  0 0.91996076E+02</rscale>
<asrwt>0</asrwt>
<pdfrwt beam="1">  1        1 0.19516154E-01 0.91996076E+02</pdfrwt>
<pdfrwt beam="2">  1       -1 0.25660060E-02 0.91996076E+02</pdfrwt>
<totfact> 0.10618598E+05</totfact>
</mgrwt>
</event>
<event>
 5    1  0.6113696E+000  0.8959914E+02  0.7546771E-02  0.1303825E+00
         -1   -1    0    0    0  501 -0.00000000000E+00  0.00000000000E+00  0.94280381779E+02  0.94280381779E+02  0.00000000000E+00 0.  1.
          1   -1    0    0  501    0  0.00000000000E+00 -0.00000000000E+00 -0.21287581276E+02  0.21287581276E+02  0.00000000000E+00 0. -1.
         23    2    1    2    0    0  0.00000000000E+00  0.00000000000E+00  0.72992800504E+02  0.11556796306E+03  0.89599135930E+02 0.  0.
        -13    1    3    3    0    0  0.24356851377E+02  0.18364428002E+02  0.78815772321E+02  0.84512924404E+02  0.00000000000E+00 0.  1.
         13    1    3    3    0    0 -0.24356851377E+02 -0.18364428002E+02 -0.58229718170E+01  0.31055038651E+02  0.00000000000E+00 0. -1.
<mgrwt>
<rscale>  0 0.89599136E+02</rscale>
<asrwt>0</asrwt>
<pdfrwt beam="2">  1        1 0.32750125E-02 0.89599136E+02</pdfrwt>
<pdfrwt beam="1">  1       -1 0.14504674E-01 0.89599136E+02</pdfrwt>
<totfact> 0.86026314E+04</totfact>
</mgrwt>
</event>
<event>
 5    1  0.6113696E+000  0.8917068E+02  0.7546771E-02  0.1304873E+00
          1   -1    0    0  501    0  0.00000000000E+00  0.00000000000E+00  0.77561188450E+02  0.77561188450E+02  0.00000000000E+00 0.  1.
         -1   -1    0    0    0  501 -0.00000000000E+00 -0.00000000000E+00 -0.25629474175E+02  0.25629474175E+02  0.00000000000E+00 0. -1.
         23    2    1    2    0    0  0.00000000000E+00  0.00000000000E+00  0.51931714275E+02  0.10319066262E+03  0.89170678506E+02 0.  0.
        -13    1    3    3    0    0  0.12784346628E+02 -0.15809339512E+02  0.71884240834E+02  0.74704208816E+02  0.00000000000E+00 0.  1.
         13    1    3    3    0    0 -0.12784346628E+02  0.15809339512E+02 -0.19952526559E+02  0.28486453809E+02  0.00000000000E+00 0. -1.
<mgrwt>
<rscale>  0 0.89170679E+02</rscale>
<asrwt>0</asrwt>
<pdfrwt beam="1">  1        1 0.11932490E-01 0.89170679E+02</pdfrwt>
<pdfrwt beam="2">  1       -1 0.39429961E-02 0.89170679E+02</pdfrwt>
<totfact> 0.10655899E+05</totfact>
</mgrwt>
</event>
<event>
 5    1  0.6113696E+000  0.9199741E+02  0.7546771E-02  0.1298086E+00
          1   -1    0    0  501    0  0.00000000000E+00  0.00000000000E+00  0.18440209719E+03  0.18440209719E+03  0.00000000000E+00 0. -1.
         -1   -1    0    0    0  501 -0.00000000000E+00 -0.00000000000E+00 -0.11474277835E+02  0.11474277835E+02  0.00000000000E+00 0.  1.
         23    2    1    2    0    0  0.00000000000E+00  0.00000000000E+00  0.17292781935E+03  0.19587637502E+03  0.91997410759E+02 0.  0.
        -13    1    3    3    0    0  0.38420414224E+02  0.20831847002E+02  0.11700715846E+03  0.12490303923E+03  0.00000000000E+00 0.  1.
         13    1    3    3    0    0 -0.38420414224E+02 -0.20831847002E+02  0.55920660891E+02  0.70973335790E+02  0.00000000000E+00 0. -1.
<mgrwt>
<rscale>  0 0.91997411E+02</rscale>
<asrwt>0</asrwt>
<pdfrwt beam="1">  1        1 0.28369551E-01 0.91997411E+02</pdfrwt>
<pdfrwt beam="2">  1       -1 0.17652736E-02 0.91997411E+02</pdfrwt>
<totfact> 0.11378948E+05</totfact>
</mgrwt>
</event>
<event>
 5    1  0.6113696E+000  0.9243450E+02  0.7546771E-02  0.1297061E+00
          2   -1    0    0  501    0  0.00000000000E+00  0.00000000000E+00  0.17878411762E+02  0.17878411762E+02  0.00000000000E+00 0.  1.
         -2   -1    0    0    0  501 -0.00000000000E+00 -0.00000000000E+00 -0.11947560720E+03  0.11947560720E+03  0.00000000000E+00 0. -1.
         23    2    1    2    0    0  0.00000000000E+00  0.00000000000E+00 -0.10159719544E+03  0.13735401896E+03  0.92434497911E+02 0.  0.
        -13    1    3    3    0    0 -0.40787433258E+02 -0.38602203196E+01 -0.82582807558E+02  0.92186962836E+02  0.00000000000E+00 0. -1.
         13    1    3    3    0    0  0.40787433258E+02  0.38602203196E+01 -0.19014387881E+02  0.45167056127E+02  0.00000000000E+00 0.  1.
<mgrwt>
<rscale>  0 0.92434498E+02</rscale>
<asrwt>0</asrwt>
<pdfrwt beam="1">  1        2 0.27505250E-02 0.92434498E+02</pdfrwt>
<pdfrwt beam="2">  1       -2 0.18380862E-01 0.92434498E+02</pdfrwt>
<totfact> 0.72969291E+04</totfact>
</mgrwt>
</event>
<event>
 5    1  0.6113696E+000  0.9182121E+02  0.7546771E-02  0.1298500E+00
          1   -1    0    0  501    0  0.00000000000E+00  0.00000000000E+00  0.31312796066E+03  0.31312796066E+03  0.00000000000E+00 0. -1.
         -1   -1    0    0    0  501 -0.00000000000E+00 -0.00000000000E+00 -0.67313811568E+01  0.67313811568E+01  0.00000000000E+00 0.  1.
         23    2    1    2    0    0  0.00000000000E+00  0.00000000000E+00  0.30639657950E+03  0.31985934182E+03  0.91821210056E+02 0.  0.
        -13    1    3    3    0    0  0.14701752416E+02  0.42443994336E+02  0.12012345921E+03  0.12824694784E+03  0.00000000000E+00 0.  1.
         13    1    3    3    0    0 -0.14701752416E+02 -0.42443994336E+02  0.18627312030E+03  0.19161239397E+03  0.00000000000E+00 0. -1.
<mgrwt>
<rscale>  0 0.91821210E+02</rscale>
<asrwt>0</asrwt>
<pdfrwt beam="1">  1        1 0.48173521E-01 0.91821210E+02</pdfrwt>
<pdfrwt beam="2">  1       -1 0.10355973E-02 0.91821210E+02</pdfrwt>
<totfact> 0.12676308E+05</totfact>
</mgrwt>
</event>
<event>
 5    1  0.6113696E+000  0.8751361E+02  0.7546771E-02  0.1308987E+00
         -2   -1    0    0    0  501 -0.00000000000E+00  0.00000000000E+00  0.47382144973E+03  0.47382144973E+03  0.00000000000E+00 0.  1.
          2   -1    0    0  501    0  0.00000000000E+00 -0.00000000000E+00 -0.40408853143E+01  0.40408853143E+01  0.00000000000E+00 0. -1.
         23    2    1    2    0    0  0.00000000000E+00  0.00000000000E+00  0.46978056441E+03  0.47786233504E+03  0.87513613519E+02 0.  0.
        -13    1    3    3    0    0  0.37439853424E+02 -0.22548918243E+02  0.22335622218E+03  0.22759217545E+03  0.00000000000E+00 0.  1.
         13    1    3    3    0    0 -0.37439853424E+02  0.22548918243E+02  0.24642434223E+03  0.25027015959E+03  0.00000000000E+00 0. -1.
<mgrwt>
<rscale>  0 0.87513614E+02</rscale>
<asrwt>0</asrwt>
<pdfrwt beam="2">  1        2 0.62167504E-03 0.87513614E+02</pdfrwt>
<pdfrwt beam="1">  1       -2 0.72895563E-01 0.87513614E+02</pdfrwt>
<totfact> 0.42059009E+04</totfact>
</mgrwt>
</event>
<event>
 5    1  0.6113696E+000  0.9253333E+02  0.7546771E-02  0.1296830E+00
         -2   -1    0    0    0  501 -0.00000000000E+00  0.00000000000E+00  0.14898950261E+03  0.14898950261E+03  0.00000000000E+00 0.  1.
          2   -1    0    0  501    0  0.00000000000E+00 -0.00000000000E+00 -0.14367483933E+02  0.14367483933E+02  0.00000000000E+00 0. -1.
         23    2    1    2    0    0  0.00000000000E+00  0.00000000000E+00  0.13462201868E+03  0.16335698655E+03  0.92533329886E+02 0.  0.
        -13    1    3    3    0    0 -0.39366879679E+02 -0.19314265856E+02  0.93365382380E+02  0.10314982651E+03  0.00000000000E+00 0.  1.
         13    1    3    3    0    0  0.39366879679E+02  0.19314265856E+02  0.41256636300E+02  0.60207160039E+02  0.00000000000E+00 0. -1.
<mgrwt>
<rscale>  0 0.92533330E+02</rscale>
<asrwt>0</asrwt>
<pdfrwt beam="2">  1        2 0.22103822E-02 0.92533330E+02</pdfrwt>
<pdfrwt beam="1">  1       -2 0.22921461E-01 0.92533330E+02</pdfrwt>
<totfact> 0.67456568E+04</totfact>
</mgrwt>
</event>
<event>
 5    1  0.6113696E+000  0.9047445E+02  0.7546771E-02  0.1301707E+00
         -1   -1    0    0    0  501 -0.00000000000E+00  0.00000000000E+00  0.25062801868E+02  0.25062801868E+02  0.00000000000E+00 0.  1.
          1   -1    0    0  501    0  0.00000000000E+00 -0.00000000000E+00 -0.81651150257E+02  0.81651150257E+02  0.00000000000E+00 0. -1.
         23    2    1    2    0    0  0.00000000000E+00  0.00000000000E+00 -0.56588348389E+02  0.10671395212E+03  0.90474451669E+02 0.  0.
        -13    1    3    3    0    0  0.12703915673E+02  0.28363588230E+02  0.10477312235E+02  0.32797205405E+02  0.00000000000E+00 0.  1.
         13    1    3    3    0    0 -0.12703915673E+02 -0.28363588230E+02 -0.67065660624E+02  0.73916746720E+02  0.00000000000E+00 0. -1.
<mgrwt>
<rscale>  0 0.90474452E+02</rscale>
<asrwt>0</asrwt>
<pdfrwt beam="2">  1        1 0.12561716E-01 0.90474452E+02</pdfrwt>
<pdfrwt beam="1">  1       -1 0.38558156E-02 0.90474452E+02</pdfrwt>
<totfact> 0.10323462E+05</totfact>
</mgrwt>
</event>
<event>
 5    1  0.6113696E+000  0.8835775E+02  0.7546771E-02  0.1306878E+00
          3   -1    0    0  501    0  0.00000000000E+00  0.00000000000E+00  0.29812725276E+03  0.29812725276E+03  0.00000000000E+00 0. -1.
         -3   -1    0    0    0  501 -0.00000000000E+00 -0.00000000000E+00 -0.65467787606E+01  0.65467787606E+01  0.00000000000E+00 0.  1.
         23    2    1    2    0    0  0.00000000000E+00  0.00000000000E+00  0.29158047400E+03  0.30467403153E+03  0.88357753850E+02 0.  0.
        -13    1    3    3    0    0 -0.37650256104E+02  0.22693404850E+02  0.16091546258E+03  0.16681222529E+03  0.00000000000E+00 0.  1.
         13    1    3    3    0    0  0.37650256104E+02 -0.22693404850E+02  0.13066501142E+03  0.13786180624E+03  0.00000000000E+00 0. -1.
<mgrwt>
<rscale>  0 0.88357754E+02</rscale>
<asrwt>0</asrwt>
<pdfrwt beam="1">  1        3 0.45865721E-01 0.88357754E+02</pdfrwt>
<pdfrwt beam="2">  1       -3 0.10071970E-02 0.88357754E+02</pdfrwt>
<totfact> 0.25942219E+04</totfact>
</mgrwt>
</event>
<event>
 5    1  0.6113696E+000  0.9159132E+02  0.7546771E-02  0.1299043E+00
          1   -1    0    0  501    0  0.00000000000E+00  0.00000000000E+00  0.35491038258E+02  0.35491038258E+02  0.00000000000E+00 0. -1.
         -1   -1    0    0    0  501 -0.00000000000E+00 -0.00000000000E+00 -0.59092166547E+02  0.59092166547E+02  0.00000000000E+00 0.  1.
         23    2    1    2    0    0  0.00000000000E+00  0.00000000000E+00 -0.23601128289E+02  0.94583204806E+02  0.91591317136E+02 0.  0.
        -13    1    3    3    0    0  0.54567402991E+01 -0.27197502872E+02 -0.49429320561E+02  0.56681018942E+02  0.00000000000E+00 0.  1.
         13    1    3    3    0    0 -0.54567402991E+01  0.27197502872E+02  0.25828192272E+02  0.37902185863E+02  0.00000000000E+00 0. -1.
<mgrwt>
<rscale>  0 0.91591317E+02</rscale>
<asrwt>0</asrwt>
<pdfrwt beam="1">  1        1 0.54601598E-02 0.91591317E+02</pdfrwt>
<pdfrwt beam="2">  1       -1 0.90911024E-02 0.91591317E+02</pdfrwt>
<totfact> 0.87874203E+04</totfact>
</mgrwt>
</event>
<event>
 5    1  0.6113696E+000  0.9171406E+02  0.7546771E-02  0.1298753E+00
         -2   -1    0    0    0  501 -0.00000000000E+00  0.00000000000E+00  0.62207172537E+01  0.62207172537E+01  0.00000000000E+00 0.  1.
          2   -1    0    0  501    0  0.00000000000E+00 -0.00000000000E+00 -0.33804257658E+03  0.33804257658E+03  0.00000000000E+00 0. -1.
         23    2    1    2    0    0  0.00000000000E+00  0.00000000000E+00 -0.33182185933E+03  0.34426329383E+03  0.91714061923E+02 0.  0.
        -13    1    3    3    0    0 -0.40168443960E+02  0.20798349669E+02 -0.13762316943E+03  0.14486618654E+03  0.00000000000E+00 0.  1.
         13    1    3    3    0    0  0.40168443960E+02 -0.20798349669E+02 -0.19419868990E+03  0.19939710729E+03  0.00000000000E+00 0. -1.
<mgrwt>
<rscale>  0 0.91714062E+02</rscale>
<asrwt>0</asrwt>
<pdfrwt beam="2">  1        2 0.52006583E-01 0.91714062E+02</pdfrwt>
<pdfrwt beam="1">  1       -2 0.95703283E-03 0.91714062E+02</pdfrwt>
<totfact> 0.18486916E+05</totfact>
</mgrwt>
</event>
<event>
 5    1  0.6113696E+000  0.8944448E+02  0.7546771E-02  0.1304203E+00
         -1   -1    0    0    0  501 -0.00000000000E+00  0.00000000000E+00  0.71420943100E+02  0.71420943100E+02  0.00000000000E+00 0.  1.
          1   -1    0    0  501    0  0.00000000000E+00 -0.00000000000E+00 -0.28004092619E+02  0.28004092619E+02  0.00000000000E+00 0. -1.
         23    2    1    2    0    0  0.00000000000E+00  0.00000000000E+00  0.43416850481E+02  0.99425035718E+02  0.89444478991E+02 0.  0.
        -13    1    3    3    0    0  0.65859403725E+01  0.27277655011E+02  0.60416985789E+02  0.66615743224E+02  0.00000000000E+00 0.  1.
         13    1    3    3    0    0 -0.65859403725E+01 -0.27277655011E+02 -0.17000135308E+02  0.32809292494E+02  0.00000000000E+00 0. -1.
<mgrwt>
<rscale>  0 0.89444479E+02</rscale>
<asrwt>0</asrwt>
<pdfrwt beam="2">  1        1 0.43083220E-02 0.89444479E+02</pdfrwt>
<pdfrwt beam="1">  1       -1 0.10987837E-01 0.89444479E+02</pdfrwt>
<totfact> 0.90579073E+04</totfact>
</mgrwt>
</event>
<event>
 5    1  0.6113696E+000  0.9220407E+02  0.7546771E-02  0.1297600E+00
          2   -1    0    0  501    0  0.00000000000E+00  0.00000000000E+00  0.31586391802E+02  0.31586391802E+02  0.00000000000E+00 0. -1.
         -2   -1    0    0    0  501 -0.00000000000E+00 -0.00000000000E+00 -0.67288392027E+02  0.67288392027E+02  0.00000000000E+00 0.  1.
         23    2    1    2    0    0  0.00000000000E+00  0.00000000000E+00 -0.35702000225E+02  0.98874783830E+02  0.92204067466E+02 0.  0.
        -13    1    3    3    0    0 -0.45932458213E+02  0.64733148079E+00 -0.22030095777E+02  0.50946392173E+02  0.00000000000E+00 0. -1.
         13    1    3    3    0    0  0.45932458213E+02 -0.64733148079E+00 -0.13671904448E+02  0.47928391656E+02  0.00000000000E+00 0.  1.
<mgrwt>
<rscale>  0 0.92204067E+02</rscale>
<asrwt>0</asrwt>
<pdfrwt beam="1">  1        2 0.48594449E-02 0.92204067E+02</pdfrwt>
<pdfrwt beam="2">  1       -2 0.10352060E-01 0.92204067E+02</pdfrwt>
<totfact> 0.86759862E+04</totfact>
</mgrwt>
</event>
<event>
 5    1  0.6113696E+000  0.9114853E+02  0.7546771E-02  0.1300094E+00
          1   -1    0    0  501    0  0.00000000000E+00  0.00000000000E+00  0.19998888179E+02  0.19998888179E+02  0.00000000000E+00 0. -1.
         -1   -1    0    0    0  501 -0.00000000000E+00 -0.00000000000E+00 -0.10385645543E+03  0.10385645543E+03  0.00000000000E+00 0.  1.
         23    2    1    2    0    0  0.00000000000E+00  0.00000000000E+00 -0.83857567253E+02  0.12385534361E+03  0.91148530187E+02 0.  0.
        -13    1    3    3    0    0  0.63525357887E+01  0.44833949539E+02 -0.34923769077E+02  0.57184852791E+02  0.00000000000E+00 0. -1.
         13    1    3    3    0    0 -0.63525357887E+01 -0.44833949539E+02 -0.48933798175E+02  0.66670490819E+02  0.00000000000E+00 0.  1.
<mgrwt>
<rscale>  0 0.91148530E+02</rscale>
<asrwt>0</asrwt>
<pdfrwt beam="1">  1        1 0.30767520E-02 0.91148530E+02</pdfrwt>
<pdfrwt beam="2">  1       -1 0.15977917E-01 0.91148530E+02</pdfrwt>
<totfact> 0.80859545E+04</totfact>
</mgrwt>
</event>
<event>
 5    1  0.6113696E+000  0.9077584E+02  0.7546771E-02  0.1300984E+00
          1   -1    0    0  501    0  0.00000000000E+00  0.00000000000E+00  0.29729650582E+02  0.29729650582E+02  0.00000000000E+00 0. -1.
         -1   -1    0    0    0  501 -0.00000000000E+00 -0.00000000000E+00 -0.69293224952E+02  0.69293224952E+02  0.00000000000E+00 0.  1.
         23    2    1    2    0    0  0.00000000000E+00  0.00000000000E+00 -0.39563574370E+02  0.99022875534E+02  0.90775841842E+02 0.  0.
        -13    1    3    3    0    0 -0.31788341491E+02  0.84051053128E+01 -0.53911969540E+02  0.63147802098E+02  0.00000000000E+00 0.  1.
         13    1    3    3    0    0  0.31788341491E+02 -0.84051053128E+01  0.14348395170E+02  0.35875073436E+02  0.00000000000E+00 0. -1.
<mgrwt>
<rscale>  0 0.90775842E+02</rscale>
<asrwt>0</asrwt>
<pdfrwt beam="1">  1        1 0.45737925E-02 0.90775842E+02</pdfrwt>
<pdfrwt beam="2">  1       -1 0.10660496E-01 0.90775842E+02</pdfrwt>
<totfact> 0.87660096E+04</totfact>
</mgrwt>
</event>
<event>
 5    1  0.6113696E+000  0.8849303E+02  0.7546771E-02  0.1306543E+00
         -1   -1    0    0    0  501 -0.00000000000E+00  0.00000000000E+00  0.29854756390E+02  0.29854756390E+02  0.00000000000E+00 0.  1.
          1   -1    0    0  501    0  0.00000000000E+00 -0.00000000000E+00 -0.65575950549E+02  0.65575950549E+02  0.00000000000E+00 0. -1.
         23    2    1    2    0    0  0.00000000000E+00  0.00000000000E+00 -0.35721194159E+02  0.95430706939E+02  0.88493028622E+02 0.  0.
        -13    1    3    3    0    0 -0.27171324005E+02  0.24630139910E+02  0.88355676923E+01  0.37722564820E+02  0.00000000000E+00 0.  1.
         13    1    3    3    0    0  0.27171324005E+02 -0.24630139910E+02 -0.44556761851E+02  0.57708142119E+02  0.00000000000E+00 0. -1.
<mgrwt>
<rscale>  0 0.88493029E+02</rscale>
<asrwt>0</asrwt>
<pdfrwt beam="2">  1        1 0.10088608E-01 0.88493029E+02</pdfrwt>
<pdfrwt beam="1">  1       -1 0.45930395E-02 0.88493029E+02</pdfrwt>
<totfact> 0.10606656E+05</totfact>
</mgrwt>
</event>
<event>
 5    1  0.6113696E+000  0.9506725E+02  0.7546771E-02  0.1291025E+00
          1   -1    0    0  501    0  0.00000000000E+00  0.00000000000E+00  0.59745596954E+02  0.59745596954E+02  0.00000000000E+00 0. -1.
         -1   -1    0    0    0  501 -0.00000000000E+00 -0.00000000000E+00 -0.37817775417E+02  0.37817775417E+02  0.00000000000E+00 0.  1.
         23    2    1    2    0    0  0.00000000000E+00  0.00000000000E+00  0.21927821537E+02  0.97563372371E+02  0.95067251306E+02 0.  0.
        -13    1    3    3    0    0  0.41638793241E+02 -0.96347076763E+01  0.32314702216E+02  0.53580375828E+02  0.00000000000E+00 0. -1.
         13    1    3    3    0    0 -0.41638793241E+02  0.96347076763E+01 -0.10386880679E+02  0.43982996542E+02  0.00000000000E+00 0.  1.
<mgrwt>
<rscale>  0 0.95067251E+02</rscale>
<asrwt>0</asrwt>
<pdfrwt beam="1">  1        1 0.91916303E-02 0.95067251E+02</pdfrwt>
<pdfrwt beam="2">  1       -1 0.58181193E-02 0.95067251E+02</pdfrwt>
<totfact> 0.85728011E+04</totfact>
</mgrwt>
</event>
<event>
 5    1  0.6113696E+000  0.9057130E+02  0.7546771E-02  0.1301474E+00
          2   -1    0    0  501    0  0.00000000000E+00  0.00000000000E+00  0.18606028811E+02  0.18606028811E+02  0.00000000000E+00 0. -1.
         -2   -1    0    0    0  501 -0.00000000000E+00 -0.00000000000E+00 -0.11022179527E+03  0.11022179527E+03  0.00000000000E+00 0.  1.
         23    2    1    2    0    0  0.00000000000E+00  0.00000000000E+00 -0.91615766459E+02  0.12882782408E+03  0.90571295637E+02 0.  0.
        -13    1    3    3    0    0 -0.15537093598E+02 -0.34500415724E+02 -0.81199709873E+02  0.89582770922E+02  0.00000000000E+00 0.  1.
         13    1    3    3    0    0  0.15537093598E+02  0.34500415724E+02 -0.10416056587E+02  0.39245053159E+02  0.00000000000E+00 0. -1.
<mgrwt>
<rscale>  0 0.90571296E+02</rscale>
<asrwt>0</asrwt>
<pdfrwt beam="1">  1        2 0.28624659E-02 0.90571296E+02</pdfrwt>
<pdfrwt beam="2">  1       -2 0.16957199E-01 0.90571296E+02</pdfrwt>
<totfact> 0.78777232E+04</totfact>
</mgrwt>
</event>
<event>
 5    1  0.6113696E+000  0.9774133E+02  0.7546771E-02  0.1285119E+00
         -2   -1    0    0    0  501 -0.00000000000E+00  0.00000000000E+00  0.13264360708E+02  0.13264360708E+02  0.00000000000E+00 0.  1.
          2   -1    0    0  501    0  0.00000000000E+00 -0.00000000000E+00 -0.18005706374E+03  0.18005706374E+03  0.00000000000E+00 0. -1.
         23    2    1    2    0    0  0.00000000000E+00  0.00000000000E+00 -0.16679270304E+03  0.19332142445E+03  0.97741328853E+02 0.  0.
        -13    1    3    3    0    0 -0.43270062111E+02  0.21907620123E+02 -0.71512592778E+02  0.86407713894E+02  0.00000000000E+00 0.  1.
         13    1    3    3    0    0  0.43270062111E+02 -0.21907620123E+02 -0.95280110258E+02  0.10691371056E+03  0.00000000000E+00 0. -1.
<mgrwt>
<rscale>  0 0.97741329E+02</rscale>
<asrwt>0</asrwt>
<pdfrwt beam="2">  1        2 0.27701085E-01 0.97741329E+02</pdfrwt>
<pdfrwt beam="1">  1       -2 0.20406710E-02 0.97741329E+02</pdfrwt>
<totfact> 0.12335596E+05</totfact>
</mgrwt>
</event>
<event>
 5    1  0.6113696E+000  0.9116056E+02  0.7546771E-02  0.1300065E+00
          1   -1    0    0  501    0  0.00000000000E+00  0.00000000000E+00  0.32497977652E+02  0.32497977652E+02  0.00000000000E+00 0. -1.
         -1   -1    0    0    0  501 -0.00000000000E+00 -0.00000000000E+00 -0.63928965453E+02  0.63928965453E+02  0.00000000000E+00 0.  1.
         23    2    1    2    0    0  0.00000000000E+00  0.00000000000E+00 -0.31430987802E+02  0.96426943105E+02  0.91160563635E+02 0.  0.
        -13    1    3    3    0    0  0.43781678266E+02 -0.14276336981E+01 -0.29040403243E+02  0.52556812215E+02  0.00000000000E+00 0.  1.
         13    1    3    3    0    0 -0.43781678266E+02  0.14276336981E+01 -0.23905845589E+01  0.43870130889E+02  0.00000000000E+00 0. -1.
<mgrwt>
<rscale>  0 0.91160564E+02</rscale>
<asrwt>0</asrwt>
<pdfrwt beam="1">  1        1 0.49996889E-02 0.91160564E+02</pdfrwt>
<pdfrwt beam="2">  1       -1 0.98352255E-02 0.91160564E+02</pdfrwt>
<totfact> 0.87842755E+04</totfact>
</mgrwt>
</event>
<event>
 4    1  0.6113696E+000  0.4575896E+02  0.7546771E-02  0.1469659E+00
          2   -1    0    0  501    0  0.00000000000E+00  0.00000000000E+00  0.41903103584E+02  0.41903103584E+02  0.00000000000E+00 0.  1.
         -2   -1    0    0    0  501 -0.00000000000E+00 -0.00000000000E+00 -0.12492404532E+02  0.12492404532E+02  0.00000000000E+00 0. -1.
        -13    1    1    2    0    0 -0.46167889444E+01  0.17358452310E+02 -0.21412379409E+01  0.18089099112E+02  0.00000000000E+00 0. -1.
         13    1    1    2    0    0  0.46167889444E+01 -0.17358452310E+02  0.31551936993E+02  0.36306409004E+02  0.00000000000E+00 0.  1.
<mgrwt>
<rscale>  0 0.45758956E+02</rscale>
<asrwt>0</asrwt>
<pdfrwt beam="1">  1        2 0.64466312E-02 0.45758956E+02</pdfrwt>
<pdfrwt beam="2">  1       -2 0.19219084E-02 0.45758956E+02</pdfrwt>
<totfact> 0.62359468E+05</totfact>
</mgrwt>
</event>
<event>
 5    1  0.6113696E+000  0.9250960E+02  0.7546771E-02  0.1296886E+00
          2   -1    0    0  501    0  0.00000000000E+00  0.00000000000E+00  0.58924108460E+02  0.58924108460E+02  0.00000000000E+00 0.  1.
         -2   -1    0    0    0  501 -0.00000000000E+00 -0.00000000000E+00 -0.36309530863E+02  0.36309530863E+02  0.00000000000E+00 0. -1.
         23    2    1    2    0    0  0.00000000000E+00  0.00000000000E+00  0.22614577597E+02  0.95233639323E+02  0.92509604576E+02 0.  0.
        -13    1    3    3    0    0 -0.45451269996E+02 -0.73206658681E+01  0.15922220748E+02  0.48712700670E+02  0.00000000000E+00 0.  1.
         13    1    3    3    0    0  0.45451269996E+02  0.73206658681E+01  0.66923568489E+01  0.46520938653E+02  0.00000000000E+00 0. -1.
<mgrwt>
<rscale>  0 0.92509605E+02</rscale>
<asrwt>0</asrwt>
<pdfrwt beam="1">  1        2 0.90652474E-02 0.92509605E+02</pdfrwt>
<pdfrwt beam="2">  1       -2 0.55860817E-02 0.92509605E+02</pdfrwt>
<totfact> 0.10130939E+05</totfact>
</mgrwt>
</event>
<event>
 5    1  0.6113696E+000  0.8962097E+02  0.7546771E-02  0.1303772E+00
         -3   -1    0    0    0  501 -0.00000000000E+00  0.00000000000E+00  0.27923753201E+03  0.27923753201E+03  0.00000000000E+00 0.  1.
          3   -1    0    0  501    0  0.00000000000E+00 -0.00000000000E+00 -0.71909380002E+01  0.71909380002E+01  0.00000000000E+00 0. -1.
         23    2    1    2    0    0  0.00000000000E+00  0.00000000000E+00  0.27204659401E+03  0.28642847001E+03  0.89620974776E+02 0.  0.
        -13    1    3    3    0    0  0.33688580243E+02 -0.19572044122E+02  0.65277264134E+02  0.76020435165E+02  0.00000000000E+00 0.  1.
         13    1    3    3    0    0 -0.33688580243E+02  0.19572044122E+02  0.20676932987E+03  0.21040803484E+03  0.00000000000E+00 0. -1.
<mgrwt>
<rscale>  0 0.89620975E+02</rscale>
<asrwt>0</asrwt>
<pdfrwt beam="2">  1        3 0.11062984E-02 0.89620975E+02</pdfrwt>
<pdfrwt beam="1">  1       -3 0.42959612E-01 0.89620975E+02</pdfrwt>
<totfact> 0.25718373E+04</totfact>
</mgrwt>
</event>
<event>
 5    1  0.6113696E+000  0.9431821E+02  0.7546771E-02  0.1292719E+00
         -1   -1    0    0    0  501 -0.00000000000E+00  0.00000000000E+00  0.93323104148E+01  0.93323104148E+01  0.00000000000E+00 0.  1.
          1   -1    0    0  501    0  0.00000000000E+00 -0.00000000000E+00 -0.23830981087E+03  0.23830981087E+03  0.00000000000E+00 0. -1.
         23    2    1    2    0    0  0.00000000000E+00  0.00000000000E+00 -0.22897750045E+03  0.24764212128E+03  0.94318208845E+02 0.  0.
        -13    1    3    3    0    0  0.16234533369E+02 -0.32606135879E+02 -0.35840628259E+02  0.51100594954E+02  0.00000000000E+00 0.  1.
         13    1    3    3    0    0 -0.16234533369E+02  0.32606135879E+02 -0.19313687219E+03  0.19654152633E+03  0.00000000000E+00 0. -1.
<mgrwt>
<rscale>  0 0.94318209E+02</rscale>
<asrwt>0</asrwt>
<pdfrwt beam="2">  1        1 0.36663039E-01 0.94318209E+02</pdfrwt>
<pdfrwt beam="1">  1       -1 0.14357404E-02 0.94318209E+02</pdfrwt>
<totfact> 0.11188715E+05</totfact>
</mgrwt>
</event>
<event>
 5    1  0.6113696E+000  0.9003113E+02  0.7546771E-02  0.1302776E+00
         -1   -1    0    0    0  501 -0.00000000000E+00  0.00000000000E+00  0.15355943543E+02  0.15355943543E+02  0.00000000000E+00 0.  1.
          1   -1    0    0  501    0  0.00000000000E+00 -0.00000000000E+00 -0.13196201598E+03  0.13196201598E+03  0.00000000000E+00 0. -1.
         23    2    1    2    0    0  0.00000000000E+00  0.00000000000E+00 -0.11660607244E+03  0.14731795953E+03  0.90031133888E+02 0.  0.
        -13    1    3    3    0    0 -0.56145240947E+01 -0.43273759371E+02 -0.76395820824E+02  0.87979898672E+02  0.00000000000E+00 0. -1.
         13    1    3    3    0    0  0.56145240947E+01  0.43273759371E+02 -0.40210251614E+02  0.59338060853E+02  0.00000000000E+00 0.  1.
<mgrwt>
<rscale>  0 0.90031134E+02</rscale>
<asrwt>0</asrwt>
<pdfrwt beam="2">  1        1 0.20301849E-01 0.90031134E+02</pdfrwt>
<pdfrwt beam="1">  1       -1 0.23624528E-02 0.90031134E+02</pdfrwt>
<totfact> 0.11336710E+05</totfact>
</mgrwt>
</event>
<event>
 5    1  0.6113696E+000  0.9237886E+02  0.7546771E-02  0.1297191E+00
          4   -1    0    0  501    0  0.00000000000E+00  0.00000000000E+00  0.67529408503E+02  0.67529408503E+02  0.00000000000E+00 0. -1.
         -4   -1    0    0    0  501 -0.00000000000E+00 -0.00000000000E+00 -0.31593102303E+02  0.31593102303E+02  0.00000000000E+00 0.  1.
         23    2    1    2    0    0  0.00000000000E+00  0.00000000000E+00  0.35936306201E+02  0.99122510806E+02  0.92378861463E+02 0.  0.
        -13    1    3    3    0    0 -0.40701719367E+01 -0.37619029382E+02 -0.10455325930E+02  0.39256483688E+02  0.00000000000E+00 0.  1.
         13    1    3    3    0    0  0.40701719367E+01  0.37619029382E+02  0.46391632130E+02  0.59866027118E+02  0.00000000000E+00 0. -1.
<mgrwt>
<rscale>  0 0.92378861E+02</rscale>
<asrwt>0</asrwt>
<pdfrwt beam="1">  1        4 0.10389140E-01 0.92378861E+02</pdfrwt>
<pdfrwt beam="2">  1       -4 0.48604773E-02 0.92378861E+02</pdfrwt>
<totfact> 0.25585258E+04</totfact>
</mgrwt>
</event>
<event>
 5    1  0.6113696E+000  0.8190071E+02  0.7546771E-02  0.1323742E+00
         -2   -1    0    0    0  501 -0.00000000000E+00  0.00000000000E+00  0.13501322404E+03  0.13501322404E+03  0.00000000000E+00 0.  1.
          2   -1    0    0  501    0  0.00000000000E+00 -0.00000000000E+00 -0.12420497350E+02  0.12420497350E+02  0.00000000000E+00 0. -1.
         23    2    1    2    0    0  0.00000000000E+00  0.00000000000E+00  0.12259272669E+03  0.14743372139E+03  0.81900705525E+02 0.  0.
        -13    1    3    3    0    0  0.85051451337E+01 -0.21391377924E+02  0.12226288713E+03  0.12441118162E+03  0.00000000000E+00 0.  1.
         13    1    3    3    0    0 -0.85051451337E+01  0.21391377924E+02  0.32983956095E+00  0.23022539768E+02  0.00000000000E+00 0. -1.
<mgrwt>
<rscale>  0 0.81900706E+02</rscale>
<asrwt>0</asrwt>
<pdfrwt beam="2">  1        2 0.19108458E-02 0.81900706E+02</pdfrwt>
<pdfrwt beam="1">  1       -2 0.20771264E-01 0.81900706E+02</pdfrwt>
<totfact> 0.95007426E+04</totfact>
</mgrwt>
</event>
<event>
 5    1  0.6113696E+000  0.9152640E+02  0.7546771E-02  0.1299197E+00
         -4   -1    0    0    0  501 -0.00000000000E+00  0.00000000000E+00  0.19120883825E+02  0.19120883825E+02  0.00000000000E+00 0. -1.
          4   -1    0    0  501    0  0.00000000000E+00 -0.00000000000E+00 -0.10952790988E+03  0.10952790988E+03  0.00000000000E+00 0.  1.
         23    2    1    2    0    0  0.00000000000E+00  0.00000000000E+00 -0.90407026059E+02  0.12864879371E+03  0.91526399261E+02 0.  0.
        -13    1    3    3    0    0 -0.66828106972E+01 -0.41524901021E+02 -0.70554609702E+02  0.82139699986E+02  0.00000000000E+00 0.  1.
         13    1    3    3    0    0  0.66828106972E+01  0.41524901021E+02 -0.19852416357E+02  0.46509093722E+02  0.00000000000E+00 0. -1.
<mgrwt>
<rscale>  0 0.91526399E+02</rscale>
<asrwt>0</asrwt>
<pdfrwt beam="2">  1        4 0.16850447E-01 0.91526399E+02</pdfrwt>
<pdfrwt beam="1">  1       -4 0.29416745E-02 0.91526399E+02</pdfrwt>
<totfact> 0.24536261E+04</totfact>
</mgrwt>
</event>
<event>
 5    1  0.6113696E+000  0.8221949E+02  0.7546771E-02  0.1322868E+00
          1   -1    0    0  501    0  0.00000000000E+00  0.00000000000E+00  0.51014646437E+02  0.51014646437E+02  0.00000000000E+00 0. -1.
         -1   -1    0    0    0  501 -0.00000000000E+00 -0.00000000000E+00 -0.33127960842E+02  0.33127960842E+02  0.00000000000E+00 0.  1.
         23    2    1    2    0    0  0.00000000000E+00  0.00000000000E+00  0.17886685595E+02  0.84142607279E+02  0.82219491838E+02 0.  0.
        -13    1    3    3    0    0 -0.21367608477E+02  0.33323181295E+02  0.20293384318E+02  0.44484048273E+02  0.00000000000E+00 0.  1.
         13    1    3    3    0    0  0.21367608477E+02 -0.33323181295E+02 -0.24066987234E+01  0.39658559006E+02  0.00000000000E+00 0. -1.
<mgrwt>
<rscale>  0 0.82219492E+02</rscale>
<asrwt>0</asrwt>
<pdfrwt beam="1">  1        1 0.78484072E-02 0.82219492E+02</pdfrwt>
<pdfrwt beam="2">  1       -1 0.50966094E-02 0.82219492E+02</pdfrwt>
<totfact> 0.12521703E+05</totfact>
</mgrwt>
</event>
<event>
 5    1  0.6113696E+000  0.1012398E+03  0.7546771E-02  0.1277710E+00
         -1   -1    0    0    0  501 -0.00000000000E+00  0.00000000000E+00  0.20440654627E+02  0.20440654627E+02  0.00000000000E+00 0.  1.
          1   -1    0    0  501    0  0.00000000000E+00 -0.00000000000E+00 -0.12535674633E+03  0.12535674633E+03  0.00000000000E+00 0. -1.
         23    2    1    2    0    0  0.00000000000E+00  0.00000000000E+00 -0.10491609170E+03  0.14579740095E+03  0.10123979369E+03 0.  0.
        -13    1    3    3    0    0  0.38439459457E+02  0.31077996161E+02 -0.68163938399E+02  0.84200691130E+02  0.00000000000E+00 0. -1.
         13    1    3    3    0    0 -0.38439459457E+02 -0.31077996161E+02 -0.36752153301E+02  0.61596709823E+02  0.00000000000E+00 0.  1.
<mgrwt>
<rscale>  0 0.10123979E+03</rscale>
<asrwt>0</asrwt>
<pdfrwt beam="2">  1        1 0.19285653E-01 0.10123979E+03</pdfrwt>
<pdfrwt beam="1">  1       -1 0.31447161E-02 0.10123979E+03</pdfrwt>
<totfact> 0.81589938E+04</totfact>
</mgrwt>
</event>
<event>
 5    1  0.6113696E+000  0.9276406E+02  0.7546771E-02  0.1296293E+00
          3   -1    0    0  501    0  0.00000000000E+00  0.00000000000E+00  0.11097837429E+02  0.11097837429E+02  0.00000000000E+00 0. -1.
         -3   -1    0    0    0  501 -0.00000000000E+00 -0.00000000000E+00 -0.19384792398E+03  0.19384792398E+03  0.00000000000E+00 0.  1.
         23    2    1    2    0    0  0.00000000000E+00  0.00000000000E+00 -0.18275008655E+03  0.20494576141E+03  0.92764060847E+02 0.  0.
        -13    1    3    3    0    0 -0.28176146080E+02 -0.21252902214E+02 -0.24885373752E+02  0.43184058253E+02  0.00000000000E+00 0. -1.
         13    1    3    3    0    0  0.28176146080E+02  0.21252902214E+02 -0.15786471280E+03  0.16176170316E+03  0.00000000000E+00 0.  1.
<mgrwt>
<rscale>  0 0.92764061E+02</rscale>
<asrwt>0</asrwt>
<pdfrwt beam="1">  1        3 0.17073596E-02 0.92764061E+02</pdfrwt>
<pdfrwt beam="2">  1       -3 0.29822758E-01 0.92764061E+02</pdfrwt>
<totfact> 0.26955721E+04</totfact>
</mgrwt>
</event>
<event>
 5    1  0.6113696E+000  0.9271896E+02  0.7546771E-02  0.1296398E+00
          4   -1    0    0  501    0  0.00000000000E+00  0.00000000000E+00  0.94692959081E+02  0.94692959081E+02  0.00000000000E+00 0. -1.
         -4   -1    0    0    0  501 -0.00000000000E+00 -0.00000000000E+00 -0.22696526864E+02  0.22696526864E+02  0.00000000000E+00 0.  1.
         23    2    1    2    0    0  0.00000000000E+00  0.00000000000E+00  0.71996432217E+02  0.11738948595E+03  0.92718957925E+02 0.  0.
        -13    1    3    3    0    0 -0.46283053963E+02  0.19534822971E+01  0.33710810336E+02  0.57291848554E+02  0.00000000000E+00 0.  1.
         13    1    3    3    0    0  0.46283053963E+02 -0.19534822971E+01  0.38285621881E+02  0.60097637392E+02  0.00000000000E+00 0. -1.
<mgrwt>
<rscale>  0 0.92718958E+02</rscale>
<asrwt>0</asrwt>
<pdfrwt beam="1">  1        4 0.14568147E-01 0.92718958E+02</pdfrwt>
<pdfrwt beam="2">  1       -4 0.34917734E-02 0.92718958E+02</pdfrwt>
<totfact> 0.24291630E+04</totfact>
</mgrwt>
</event>
<event>
 5    1  0.6113696E+000  0.9264787E+02  0.7546771E-02  0.1296563E+00
          2   -1    0    0  501    0  0.00000000000E+00  0.00000000000E+00  0.14854655805E+03  0.14854655805E+03  0.00000000000E+00 0. -1.
         -2   -1    0    0    0  501 -0.00000000000E+00 -0.00000000000E+00 -0.14446022130E+02  0.14446022130E+02  0.00000000000E+00 0.  1.
         23    2    1    2    0    0  0.00000000000E+00  0.00000000000E+00  0.13410053592E+03  0.16299258018E+03  0.92647868078E+02 0.  0.
        -13    1    3    3    0    0  0.23273386094E+02 -0.31389187215E+02  0.23281022416E+02  0.45485575505E+02  0.00000000000E+00 0.  1.
         13    1    3    3    0    0 -0.23273386094E+02  0.31389187215E+02  0.11081951350E+03  0.11750700467E+03  0.00000000000E+00 0. -1.
<mgrwt>
<rscale>  0 0.92647868E+02</rscale>
<asrwt>0</asrwt>
<pdfrwt beam="1">  1        2 0.22853316E-01 0.92647868E+02</pdfrwt>
<pdfrwt beam="2">  1       -2 0.22224650E-02 0.92647868E+02</pdfrwt>
<totfact> 0.13341158E+05</totfact>
</mgrwt>
</event>
<event>
 5    1  0.6113696E+000  0.8987797E+02  0.7546771E-02  0.1303147E+00
          1   -1    0    0  501    0  0.00000000000E+00  0.00000000000E+00  0.12083155555E+03  0.12083155555E+03  0.00000000000E+00 0. -1.
         -1   -1    0    0    0  501 -0.00000000000E+00 -0.00000000000E+00 -0.16713453511E+02  0.16713453511E+02  0.00000000000E+00 0.  1.
         23    2    1    2    0    0  0.00000000000E+00  0.00000000000E+00  0.10411810204E+03  0.13754500906E+03  0.89877974749E+02 0.  0.
        -13    1    3    3    0    0  0.39348030344E+02  0.20938624196E+02  0.60826130936E+02  0.75408962861E+02  0.00000000000E+00 0. -1.
         13    1    3    3    0    0 -0.39348030344E+02 -0.20938624196E+02  0.43291971100E+02  0.62136046196E+02  0.00000000000E+00 0.  1.
<mgrwt>
<rscale>  0 0.89877975E+02</rscale>
<asrwt>0</asrwt>
<pdfrwt beam="1">  1        1 0.18589469E-01 0.89877975E+02</pdfrwt>
<pdfrwt beam="2">  1       -1 0.25713006E-02 0.89877975E+02</pdfrwt>
<totfact> 0.11214077E+05</totfact>
</mgrwt>
</event>
<event>
 5    1  0.6113696E+000  0.9178290E+02  0.7546771E-02  0.1298591E+00
         -1   -1    0    0    0  501 -0.00000000000E+00  0.00000000000E+00  0.11713835670E+02  0.11713835670E+02  0.00000000000E+00 0.  1.
          1   -1    0    0  501    0  0.00000000000E+00 -0.00000000000E+00 -0.17978953744E+03  0.17978953744E+03  0.00000000000E+00 0. -1.
         23    2    1    2    0    0  0.00000000000E+00  0.00000000000E+00 -0.16807570177E+03  0.19150337311E+03  0.91782898117E+02 0.  0.
        -13    1    3    3    0    0  0.17185799022E+02  0.41852591813E+02 -0.68006665145E+02  0.81681684812E+02  0.00000000000E+00 0. -1.
         13    1    3    3    0    0 -0.17185799022E+02 -0.41852591813E+02 -0.10006903663E+03  0.10982168830E+03  0.00000000000E+00 0.  1.
<mgrwt>
<rscale>  0 0.91782898E+02</rscale>
<asrwt>0</asrwt>
<pdfrwt beam="2">  1        1 0.27659927E-01 0.91782898E+02</pdfrwt>
<pdfrwt beam="1">  1       -1 0.18021287E-02 0.91782898E+02</pdfrwt>
<totfact> 0.11395090E+05</totfact>
</mgrwt>
</event>
<event>
 5    1  0.6113696E+000  0.8761982E+02  0.7546771E-02  0.1308720E+00
         -4   -1    0    0    0  501 -0.00000000000E+00  0.00000000000E+00  0.92978167456E+01  0.92978167456E+01  0.00000000000E+00 0.  1.
          4   -1    0    0  501    0  0.00000000000E+00 -0.00000000000E+00 -0.20642567906E+03  0.20642567906E+03  0.00000000000E+00 0. -1.
         23    2    1    2    0    0  0.00000000000E+00  0.00000000000E+00 -0.19712786231E+03  0.21572349580E+03  0.87619818202E+02 0.  0.
        -13    1    3    3    0    0 -0.14688121023E+02 -0.34197431122E+02 -0.41664544320E+02  0.55867158939E+02  0.00000000000E+00 0.  1.
         13    1    3    3    0    0  0.14688121023E+02  0.34197431122E+02 -0.15546331799E+03  0.15985633686E+03  0.00000000000E+00 0. -1.
<mgrwt>
<rscale>  0 0.87619818E+02</rscale>
<asrwt>0</asrwt>
<pdfrwt beam="2">  1        4 0.31757796E-01 0.87619818E+02</pdfrwt>
<pdfrwt beam="1">  1       -4 0.14304334E-02 0.87619818E+02</pdfrwt>
<totfact> 0.23065127E+04</totfact>
</mgrwt>
</event>
<event>
 5    1  0.6113696E+000  0.9584118E+02  0.7546771E-02  0.1289293E+00
          1   -1    0    0  501    0  0.00000000000E+00  0.00000000000E+00  0.19130320068E+02  0.19130320068E+02  0.00000000000E+00 0. -1.
         -1   -1    0    0    0  501 -0.00000000000E+00 -0.00000000000E+00 -0.12003891464E+03  0.12003891464E+03  0.00000000000E+00 0.  1.
         23    2    1    2    0    0  0.00000000000E+00  0.00000000000E+00 -0.10090859457E+03  0.13916923470E+03  0.95841178157E+02 0.  0.
        -13    1    3    3    0    0 -0.36454216939E+02  0.11979456093E+02 -0.87725780237E+01  0.39362106474E+02  0.00000000000E+00 0.  1.
         13    1    3    3    0    0  0.36454216939E+02 -0.11979456093E+02 -0.92136016544E+02  0.99807128230E+02  0.00000000000E+00 0. -1.
<mgrwt>
<rscale>  0 0.95841178E+02</rscale>
<asrwt>0</asrwt>
<pdfrwt beam="1">  1        1 0.29431262E-02 0.95841178E+02</pdfrwt>
<pdfrwt beam="2">  1       -1 0.18467525E-01 0.95841178E+02</pdfrwt>
<totfact> 0.69007342E+04</totfact>
</mgrwt>
</event>
<event>
 5    1  0.6113696E+000  0.9025811E+02  0.7546771E-02  0.1302228E+00
         -1   -1    0    0    0  501 -0.00000000000E+00  0.00000000000E+00  0.11162536722E+03  0.11162536722E+03  0.00000000000E+00 0.  1.
          1   -1    0    0  501    0  0.00000000000E+00 -0.00000000000E+00 -0.18245239921E+02  0.18245239921E+02  0.00000000000E+00 0. -1.
         23    2    1    2    0    0  0.00000000000E+00  0.00000000000E+00  0.93380127298E+02  0.12987060714E+03  0.90258110023E+02 0.  0.
        -13    1    3    3    0    0 -0.21455696585E+02 -0.67562558605E+01 -0.96037716430E+01  0.24458665928E+02  0.00000000000E+00 0. -1.
         13    1    3    3    0    0  0.21455696585E+02  0.67562558605E+01  0.10298389894E+03  0.10541194121E+03  0.00000000000E+00 0.  1.
<mgrwt>
<rscale>  0 0.90258110E+02</rscale>
<asrwt>0</asrwt>
<pdfrwt beam="2">  1        1 0.28069601E-02 0.90258110E+02</pdfrwt>
<pdfrwt beam="1">  1       -1 0.17173133E-01 0.90258110E+02</pdfrwt>
<totfact> 0.81786585E+04</totfact>
</mgrwt>
</event>
<event>
 5    1  0.6113696E+000  0.7905516E+02  0.7546771E-02  0.1331754E+00
         -2   -1    0    0    0  501 -0.00000000000E+00  0.00000000000E+00  0.47765176784E+01  0.47765176784E+01  0.00000000000E+00 0.  1.
          2   -1    0    0  501    0  0.00000000000E+00 -0.00000000000E+00 -0.32710637994E+03  0.32710637994E+03  0.00000000000E+00 0. -1.
         23    2    1    2    0    0  0.00000000000E+00  0.00000000000E+00 -0.32232986227E+03  0.33188289762E+03  0.79055155594E+02 0.  0.
        -13    1    3    3    0    0 -0.21555122533E+02  0.32209520465E+02 -0.19377890454E+03  0.19761665001E+03  0.00000000000E+00 0. -1.
         13    1    3    3    0    0  0.21555122533E+02 -0.32209520465E+02 -0.12855095772E+03  0.13426624761E+03  0.00000000000E+00 0.  1.
<mgrwt>
<rscale>  0 0.79055156E+02</rscale>
<asrwt>0</asrwt>
<pdfrwt beam="2">  1        2 0.50324075E-01 0.79055156E+02</pdfrwt>
<pdfrwt beam="1">  1       -2 0.73484863E-03 0.79055156E+02</pdfrwt>
<totfact> 0.27045821E+05</totfact>
</mgrwt>
</event>
<event>
 5    1  0.6113696E+000  0.9037495E+02  0.7546771E-02  0.1301946E+00
         -4   -1    0    0    0  501 -0.00000000000E+00  0.00000000000E+00  0.22265285482E+02  0.22265285482E+02  0.00000000000E+00 0. -1.
          4   -1    0    0  501    0  0.00000000000E+00 -0.00000000000E+00 -0.91708135790E+02  0.91708135790E+02  0.00000000000E+00 0.  1.
         23    2    1    2    0    0  0.00000000000E+00  0.00000000000E+00 -0.69442850308E+02  0.11397342127E+03  0.90374948397E+02 0.  0.
        -13    1    3    3    0    0  0.11268556337E+02  0.36271106057E+02 -0.65595226083E+02  0.75797804595E+02  0.00000000000E+00 0.  1.
         13    1    3    3    0    0 -0.11268556337E+02 -0.36271106057E+02 -0.38476242243E+01  0.38175616677E+02  0.00000000000E+00 0. -1.
<mgrwt>
<rscale>  0 0.90374948E+02</rscale>
<asrwt>0</asrwt>
<pdfrwt beam="2">  1        4 0.14108944E-01 0.90374948E+02</pdfrwt>
<pdfrwt beam="1">  1       -4 0.34254286E-02 0.90374948E+02</pdfrwt>
<totfact> 0.26237143E+04</totfact>
</mgrwt>
</event>
<event>
 5    1  0.6113696E+000  0.8294257E+02  0.7546771E-02  0.1320902E+00
          1   -1    0    0  501    0  0.00000000000E+00  0.00000000000E+00  0.18107002680E+02  0.18107002680E+02  0.00000000000E+00 0. -1.
         -1   -1    0    0    0  501 -0.00000000000E+00 -0.00000000000E+00 -0.94983556245E+02  0.94983556245E+02  0.00000000000E+00 0.  1.
         23    2    1    2    0    0  0.00000000000E+00  0.00000000000E+00 -0.76876553565E+02  0.11309055893E+03  0.82942570673E+02 0.  0.
        -13    1    3    3    0    0 -0.31165921402E+02 -0.54319746499E+01 -0.18764953642E+01  0.31691359079E+02  0.00000000000E+00 0. -1.
         13    1    3    3    0    0  0.31165921402E+02  0.54319746499E+01 -0.75000058201E+02  0.81399199846E+02  0.00000000000E+00 0.  1.
<mgrwt>
<rscale>  0 0.82942571E+02</rscale>
<asrwt>0</asrwt>
<pdfrwt beam="1">  1        1 0.27856928E-02 0.82942571E+02</pdfrwt>
<pdfrwt beam="2">  1       -1 0.14612855E-01 0.82942571E+02</pdfrwt>
<totfact> 0.10472571E+05</totfact>
</mgrwt>
</event>
<event>
 5    1  0.6113696E+000  0.9186060E+02  0.7546771E-02  0.1298408E+00
         -3   -1    0    0    0  501 -0.00000000000E+00  0.00000000000E+00  0.26240564093E+03  0.26240564093E+03  0.00000000000E+00 0.  1.
          3   -1    0    0  501    0  0.00000000000E+00 -0.00000000000E+00 -0.80394324612E+01  0.80394324612E+01  0.00000000000E+00 0. -1.
         23    2    1    2    0    0  0.00000000000E+00  0.00000000000E+00  0.25436620847E+03  0.27044507339E+03  0.91860599338E+02 0.  0.
        -13    1    3    3    0    0  0.16085351666E+02  0.40655808424E+02  0.16860572464E+03  0.17418244366E+03  0.00000000000E+00 0.  1.
         13    1    3    3    0    0 -0.16085351666E+02 -0.40655808424E+02  0.85760483827E+02  0.96262629732E+02  0.00000000000E+00 0. -1.
<mgrwt>
<rscale>  0 0.91860599E+02</rscale>
<asrwt>0</asrwt>
<pdfrwt beam="2">  1        3 0.12368360E-02 0.91860599E+02</pdfrwt>
<pdfrwt beam="1">  1       -3 0.40370092E-01 0.91860599E+02</pdfrwt>
<totfact> 0.24713793E+04</totfact>
</mgrwt>
</event>
<event>
 5    1  0.6113696E+000  0.9061222E+02  0.7546771E-02  0.1301376E+00
          1   -1    0    0  501    0  0.00000000000E+00  0.00000000000E+00  0.26753129995E+02  0.26753129995E+02  0.00000000000E+00 0. -1.
         -1   -1    0    0    0  501 -0.00000000000E+00 -0.00000000000E+00 -0.76725370322E+02  0.76725370322E+02  0.00000000000E+00 0.  1.
         23    2    1    2    0    0  0.00000000000E+00  0.00000000000E+00 -0.49972240328E+02  0.10347850032E+03  0.90612224476E+02 0.  0.
        -13    1    3    3    0    0 -0.17099165332E+02  0.41714406412E+02 -0.30115008781E+02  0.54216113022E+02  0.00000000000E+00 0. -1.
         13    1    3    3    0    0  0.17099165332E+02 -0.41714406412E+02 -0.19857231547E+02  0.49262387295E+02  0.00000000000E+00 0.  1.
<mgrwt>
<rscale>  0 0.90612224E+02</rscale>
<asrwt>0</asrwt>
<pdfrwt beam="1">  1        1 0.41158663E-02 0.90612224E+02</pdfrwt>
<pdfrwt beam="2">  1       -1 0.11803903E-01 0.90612224E+02</pdfrwt>
<totfact> 0.86610272E+04</totfact>
</mgrwt>
</event>
<event>
 5    1  0.6113696E+000  0.9271591E+02  0.7546771E-02  0.1296405E+00
         -2   -1    0    0    0  501 -0.00000000000E+00  0.00000000000E+00  0.28320418700E+03  0.28320418700E+03  0.00000000000E+00 0.  1.
          2   -1    0    0  501    0  0.00000000000E+00 -0.00000000000E+00 -0.75883757860E+01  0.75883757860E+01  0.00000000000E+00 0. -1.
         23    2    1    2    0    0  0.00000000000E+00  0.00000000000E+00  0.27561581122E+03  0.29079256279E+03  0.92715905759E+02 0.  0.
        -13    1    3    3    0    0  0.26099543213E+02 -0.26975690716E+02  0.52478364632E+02  0.64520173589E+02  0.00000000000E+00 0.  1.
         13    1    3    3    0    0 -0.26099543213E+02  0.26975690716E+02  0.22313744659E+03  0.22627238920E+03  0.00000000000E+00 0. -1.
<mgrwt>
<rscale>  0 0.92715906E+02</rscale>
<asrwt>0</asrwt>
<pdfrwt beam="2">  1        2 0.11674427E-02 0.92715906E+02</pdfrwt>
<pdfrwt beam="1">  1       -2 0.43569867E-01 0.92715906E+02</pdfrwt>
<totfact> 0.50427465E+04</totfact>
</mgrwt>
</event>
<event>
 5    1  0.6113696E+000  0.9279097E+02  0.7546771E-02  0.1296230E+00
          1   -1    0    0  501    0  0.00000000000E+00  0.00000000000E+00  0.14433730945E+03  0.14433730945E+03  0.00000000000E+00 0. -1.
         -1   -1    0    0    0  501 -0.00000000000E+00 -0.00000000000E+00 -0.14913266839E+02  0.14913266839E+02  0.00000000000E+00 0.  1.
         23    2    1    2    0    0  0.00000000000E+00  0.00000000000E+00  0.12942404261E+03  0.15925057629E+03  0.92790965309E+02 0.  0.
        -13    1    3    3    0    0 -0.33870979209E+02  0.22574071722E+02  0.10292304407E+03  0.11067965011E+03  0.00000000000E+00 0.  1.
         13    1    3    3    0    0  0.33870979209E+02 -0.22574071722E+02  0.26500998540E+02  0.48570926183E+02  0.00000000000E+00 0. -1.
<mgrwt>
<rscale>  0 0.92790965E+02</rscale>
<asrwt>0</asrwt>
<pdfrwt beam="1">  1        1 0.22205739E-01 0.92790965E+02</pdfrwt>
<pdfrwt beam="2">  1       -1 0.22943488E-02 0.92790965E+02</pdfrwt>
<totfact> 0.10618323E+05</totfact>
</mgrwt>
</event>
<event>
 5    1  0.6113696E+000  0.9232329E+02  0.7546771E-02  0.1297321E+00
         -2   -1    0    0    0  501 -0.00000000000E+00  0.00000000000E+00  0.21428617689E+03  0.21428617689E+03  0.00000000000E+00 0.  1.
          2   -1    0    0  501    0  0.00000000000E+00 -0.00000000000E+00 -0.99441665378E+01  0.99441665378E+01  0.00000000000E+00 0. -1.
         23    2    1    2    0    0  0.00000000000E+00  0.00000000000E+00  0.20434201035E+03  0.22423034342E+03  0.92323289147E+02 0.  0.
        -13    1    3    3    0    0  0.27460653284E+02 -0.34975780085E+02  0.13226251888E+03  0.13953768871E+03  0.00000000000E+00 0.  1.
         13    1    3    3    0    0 -0.27460653284E+02  0.34975780085E+02  0.72079491470E+02  0.84692654711E+02  0.00000000000E+00 0. -1.
<mgrwt>
<rscale>  0 0.92323289E+02</rscale>
<asrwt>0</asrwt>
<pdfrwt beam="2">  1        2 0.15298719E-02 0.92323289E+02</pdfrwt>
<pdfrwt beam="1">  1       -2 0.32967101E-01 0.92323289E+02</pdfrwt>
<totfact> 0.58542050E+04</totfact>
</mgrwt>
</event>
<event>
 5    1  0.6113696E+000  0.9067842E+02  0.7546771E-02  0.1301217E+00
          2   -1    0    0  501    0  0.00000000000E+00  0.00000000000E+00  0.88609092328E+02  0.88609092328E+02  0.00000000000E+00 0. -1.
         -2   -1    0    0    0  501 -0.00000000000E+00 -0.00000000000E+00 -0.23199020577E+02  0.23199020577E+02  0.00000000000E+00 0.  1.
         23    2    1    2    0    0  0.00000000000E+00  0.00000000000E+00  0.65410071751E+02  0.11180811291E+03  0.90678424253E+02 0.  0.
        -13    1    3    3    0    0 -0.36081115098E+02  0.52193310509E+01 -0.53059000661E+00  0.36460523983E+02  0.00000000000E+00 0.  1.
         13    1    3    3    0    0  0.36081115098E+02 -0.52193310509E+01  0.65940661758E+02  0.75347588922E+02  0.00000000000E+00 0. -1.
<mgrwt>
<rscale>  0 0.90678424E+02</rscale>
<asrwt>0</asrwt>
<pdfrwt beam="1">  1        2 0.13632168E-01 0.90678424E+02</pdfrwt>
<pdfrwt beam="2">  1       -2 0.35690801E-02 0.90678424E+02</pdfrwt>
<totfact> 0.12011982E+05</totfact>
</mgrwt>
</event>
<event>
 5    1  0.6113696E+000  0.9127711E+02  0.7546771E-02  0.1299788E+00
          1   -1    0    0  501    0  0.00000000000E+00  0.00000000000E+00  0.73049677641E+02  0.73049677641E+02  0.00000000000E+00 0. -1.
         -1   -1    0    0    0  501 -0.00000000000E+00 -0.00000000000E+00 -0.28513164491E+02  0.28513164491E+02  0.00000000000E+00 0.  1.
         23    2    1    2    0    0  0.00000000000E+00  0.00000000000E+00  0.44536513150E+02  0.10156284213E+03  0.91277105007E+02 0.  0.
        -13    1    3    3    0    0 -0.38670245823E+02  0.60410592501E+01 -0.38501623000E+01  0.39328184023E+02  0.00000000000E+00 0.  1.
         13    1    3    3    0    0  0.38670245823E+02 -0.60410592501E+01  0.48386675450E+02  0.62234658109E+02  0.00000000000E+00 0. -1.
<mgrwt>
<rscale>  0 0.91277105E+02</rscale>
<asrwt>0</asrwt>
<pdfrwt beam="1">  1        1 0.11238412E-01 0.91277105E+02</pdfrwt>
<pdfrwt beam="2">  1       -1 0.43866407E-02 0.91277105E+02</pdfrwt>
<totfact> 0.99020312E+04</totfact>
</mgrwt>
</event>
<event>
 5    1  0.6113696E+000  0.9170981E+02  0.7546771E-02  0.1298763E+00
          4   -1    0    0  501    0  0.00000000000E+00  0.00000000000E+00  0.79941817527E+02  0.79941817527E+02  0.00000000000E+00 0. -1.
         -4   -1    0    0    0  501 -0.00000000000E+00 -0.00000000000E+00 -0.26302535810E+02  0.26302535810E+02  0.00000000000E+00 0.  1.
         23    2    1    2    0    0  0.00000000000E+00  0.00000000000E+00  0.53639281717E+02  0.10624435334E+03  0.91709814485E+02 0.  0.
        -13    1    3    3    0    0  0.43134675915E+02  0.71305692732E+01  0.10799552249E+02  0.45034160514E+02  0.00000000000E+00 0.  1.
         13    1    3    3    0    0 -0.43134675915E+02 -0.71305692732E+01  0.42839729468E+02  0.61210192822E+02  0.00000000000E+00 0. -1.
<mgrwt>
<rscale>  0 0.91709814E+02</rscale>
<asrwt>0</asrwt>
<pdfrwt beam="1">  1        4 0.12298741E-01 0.91709814E+02</pdfrwt>
<pdfrwt beam="2">  1       -4 0.40465440E-02 0.91709814E+02</pdfrwt>
<totfact> 0.25667914E+04</totfact>
</mgrwt>
</event>
<event>
 5    1  0.6113696E+000  0.7750783E+02  0.7546771E-02  0.1336276E+00
         -4   -1    0    0    0  501 -0.00000000000E+00  0.00000000000E+00  0.23730886431E+02  0.23730886431E+02  0.00000000000E+00 0.  1.
          4   -1    0    0  501    0  0.00000000000E+00 -0.00000000000E+00 -0.63287384610E+02  0.63287384610E+02  0.00000000000E+00 0. -1.
         23    2    1    2    0    0  0.00000000000E+00  0.00000000000E+00 -0.39556498179E+02  0.87018271041E+02  0.77507825067E+02 0.  0.
        -13    1    3    3    0    0 -0.19085410622E+02  0.91387829726E+00  0.18074956686E+02  0.26301941589E+02  0.00000000000E+00 0.  1.
         13    1    3    3    0    0  0.19085410622E+02 -0.91387829726E+00 -0.57631454865E+02  0.60716329452E+02  0.00000000000E+00 0. -1.
<mgrwt>
<rscale>  0 0.77507825E+02</rscale>
<asrwt>0</asrwt>
<pdfrwt beam="2">  1        4 0.97365206E-02 0.77507825E+02</pdfrwt>
<pdfrwt beam="1">  1       -4 0.36509056E-02 0.77507825E+02</pdfrwt>
<totfact> 0.42189769E+04</totfact>
</mgrwt>
</event>
<event>
 5    1  0.6113696E+000  0.9221200E+02  0.7546771E-02  0.1297582E+00
         -4   -1    0    0    0  501 -0.00000000000E+00  0.00000000000E+00  0.67169238379E+01  0.67169238379E+01  0.00000000000E+00 0.  1.
          4   -1    0    0  501    0  0.00000000000E+00 -0.00000000000E+00 -0.31647871417E+03  0.31647871417E+03  0.00000000000E+00 0. -1.
         23    2    1    2    0    0  0.00000000000E+00  0.00000000000E+00 -0.30976179033E+03  0.32319563801E+03  0.92212003978E+02 0.  0.
        -13    1    3    3    0    0  0.44084869772E+02  0.11521783484E+02 -0.17954919935E+03  0.18524076826E+03  0.00000000000E+00 0.  1.
         13    1    3    3    0    0 -0.44084869772E+02 -0.11521783484E+02 -0.13021259098E+03  0.13795486975E+03  0.00000000000E+00 0. -1.
<mgrwt>
<rscale>  0 0.92212004E+02</rscale>
<asrwt>0</asrwt>
<pdfrwt beam="2">  1        4 0.48689045E-01 0.92212004E+02</pdfrwt>
<pdfrwt beam="1">  1       -4 0.10333726E-02 0.92212004E+02</pdfrwt>
<totfact> 0.16628117E+04</totfact>
</mgrwt>
</event>
<event>
 5    1  0.6113696E+000  0.9146881E+02  0.7546771E-02  0.1299333E+00
          4   -1    0    0  501    0  0.00000000000E+00  0.00000000000E+00  0.62200733254E+02  0.62200733254E+02  0.00000000000E+00 0. -1.
         -4   -1    0    0    0  501 -0.00000000000E+00 -0.00000000000E+00 -0.33627190599E+02  0.33627190599E+02  0.00000000000E+00 0.  1.
         23    2    1    2    0    0  0.00000000000E+00  0.00000000000E+00  0.28573542655E+02  0.95827923853E+02  0.91468812446E+02 0.  0.
        -13    1    3    3    0    0 -0.35936707232E+02 -0.12788925062E+02 -0.12147260033E+02  0.40031980431E+02  0.00000000000E+00 0.  1.
         13    1    3    3    0    0  0.35936707232E+02  0.12788925062E+02  0.40720802687E+02  0.55795943423E+02  0.00000000000E+00 0. -1.
<mgrwt>
<rscale>  0 0.91468812E+02</rscale>
<asrwt>0</asrwt>
<pdfrwt beam="1">  1        4 0.95693436E-02 0.91468812E+02</pdfrwt>
<pdfrwt beam="2">  1       -4 0.51734139E-02 0.91468812E+02</pdfrwt>
<totfact> 0.26488093E+04</totfact>
</mgrwt>
</event>
<event>
 5    1  0.6113696E+000  0.9210014E+02  0.7546771E-02  0.1297844E+00
         -4   -1    0    0    0  501 -0.00000000000E+00  0.00000000000E+00  0.32500774327E+02  0.32500774327E+02  0.00000000000E+00 0.  1.
          4   -1    0    0  501    0  0.00000000000E+00 -0.00000000000E+00 -0.65247944964E+02  0.65247944964E+02  0.00000000000E+00 0. -1.
         23    2    1    2    0    0  0.00000000000E+00  0.00000000000E+00 -0.32747170636E+02  0.97748719291E+02  0.92100135387E+02 0.  0.
        -13    1    3    3    0    0  0.29486237487E+02  0.33754181163E+02 -0.51502538391E+01  0.45114388633E+02  0.00000000000E+00 0.  1.
         13    1    3    3    0    0 -0.29486237487E+02 -0.33754181163E+02 -0.27596916797E+02  0.52634330658E+02  0.00000000000E+00 0. -1.
<mgrwt>
<rscale>  0 0.92100135E+02</rscale>
<asrwt>0</asrwt>
<pdfrwt beam="2">  1        4 0.10038145E-01 0.92100135E+02</pdfrwt>
<pdfrwt beam="1">  1       -4 0.50001191E-02 0.92100135E+02</pdfrwt>
<totfact> 0.25879707E+04</totfact>
</mgrwt>
</event>
<event>
 5    1  0.6113696E+000  0.9302483E+02  0.7546771E-02  0.1295688E+00
         -2   -1    0    0    0  501 -0.00000000000E+00  0.00000000000E+00  0.11902664705E+02  0.11902664705E+02  0.00000000000E+00 0.  1.
          2   -1    0    0  501    0  0.00000000000E+00 -0.00000000000E+00 -0.18175801434E+03  0.18175801434E+03  0.00000000000E+00 0. -1.
         23    2    1    2    0    0  0.00000000000E+00  0.00000000000E+00 -0.16985534963E+03  0.19366067904E+03  0.93024828989E+02 0.  0.
        -13    1    3    3    0    0  0.11607877389E+02  0.43252252370E+02 -0.11108780443E+03  0.11977479053E+03  0.00000000000E+00 0.  1.
         13    1    3    3    0    0 -0.11607877389E+02 -0.43252252370E+02 -0.58767545196E+02  0.73885888510E+02  0.00000000000E+00 0. -1.
<mgrwt>
<rscale>  0 0.93024829E+02</rscale>
<asrwt>0</asrwt>
<pdfrwt beam="2">  1        2 0.27962773E-01 0.93024829E+02</pdfrwt>
<pdfrwt beam="1">  1       -2 0.18311791E-02 0.93024829E+02</pdfrwt>
<totfact> 0.14156738E+05</totfact>
</mgrwt>
</event>
<event>
 5    1  0.6113696E+000  0.9032231E+02  0.7546771E-02  0.1302073E+00
          2   -1    0    0  501    0  0.00000000000E+00  0.00000000000E+00  0.36491248630E+03  0.36491248630E+03  0.00000000000E+00 0. -1.
         -2   -1    0    0    0  501 -0.00000000000E+00 -0.00000000000E+00 -0.55890938360E+01  0.55890938360E+01  0.00000000000E+00 0.  1.
         23    2    1    2    0    0  0.00000000000E+00  0.00000000000E+00  0.35932339247E+03  0.37050158014E+03  0.90322314582E+02 0.  0.
        -13    1    3    3    0    0  0.15904410751E+02  0.40140696111E+02  0.12535024996E+03  0.13257794285E+03  0.00000000000E+00 0. -1.
         13    1    3    3    0    0 -0.15904410751E+02 -0.40140696111E+02  0.23397314250E+03  0.23792363728E+03  0.00000000000E+00 0.  1.
<mgrwt>
<rscale>  0 0.90322315E+02</rscale>
<asrwt>0</asrwt>
<pdfrwt beam="1">  1        2 0.56140364E-01 0.90322315E+02</pdfrwt>
<pdfrwt beam="2">  1       -2 0.85986088E-03 0.90322315E+02</pdfrwt>
<totfact> 0.19800396E+05</totfact>
</mgrwt>
</event>
<event>
 5    1  0.6113696E+000  0.7663033E+02  0.7546771E-02  0.1338895E+00
         -3   -1    0    0    0  501 -0.00000000000E+00  0.00000000000E+00  0.14864203715E+02  0.14864203715E+02  0.00000000000E+00 0.  1.
          3   -1    0    0  501    0  0.00000000000E+00 -0.00000000000E+00 -0.98764242179E+02  0.98764242179E+02  0.00000000000E+00 0. -1.
         23    2    1    2    0    0  0.00000000000E+00  0.00000000000E+00 -0.83900038464E+02  0.11362844589E+03  0.76630328605E+02 0.  0.
        -13    1    3    3    0    0  0.22725086343E+02  0.17485561902E+02 -0.79634403197E+02  0.84639308816E+02  0.00000000000E+00 0. -1.
         13    1    3    3    0    0 -0.22725086343E+02 -0.17485561902E+02 -0.42656352670E+01  0.28989137078E+02  0.00000000000E+00 0.  1.
<mgrwt>
<rscale>  0 0.76630329E+02</rscale>
<asrwt>0</asrwt>
<pdfrwt beam="2">  1        3 0.15194499E-01 0.76630329E+02</pdfrwt>
<pdfrwt beam="1">  1       -3 0.22868005E-02 0.76630329E+02</pdfrwt>
<totfact> 0.53740318E+04</totfact>
</mgrwt>
</event>
<event>
 5    1  0.6113696E+000  0.9482852E+02  0.7546771E-02  0.1291563E+00
          2   -1    0    0  501    0  0.00000000000E+00  0.00000000000E+00  0.17130008235E+02  0.17130008235E+02  0.00000000000E+00 0. -1.
         -2   -1    0    0    0  501 -0.00000000000E+00 -0.00000000000E+00 -0.13123823307E+03  0.13123823307E+03  0.00000000000E+00 0.  1.
         23    2    1    2    0    0  0.00000000000E+00  0.00000000000E+00 -0.11410822484E+03  0.14836824131E+03  0.94828519196E+02 0.  0.
        -13    1    3    3    0    0 -0.40915647644E+02  0.22320836936E+02 -0.70676160120E+02  0.84660673237E+02  0.00000000000E+00 0.  1.
         13    1    3    3    0    0  0.40915647644E+02 -0.22320836936E+02 -0.43432064716E+02  0.63707568068E+02  0.00000000000E+00 0. -1.
<mgrwt>
<rscale>  0 0.94828519E+02</rscale>
<asrwt>0</asrwt>
<pdfrwt beam="1">  1        2 0.26353858E-02 0.94828519E+02</pdfrwt>
<pdfrwt beam="2">  1       -2 0.20190498E-01 0.94828519E+02</pdfrwt>
<totfact> 0.66311878E+04</totfact>
</mgrwt>
</event>
<event>
 5    1  0.6113696E+000  0.9108463E+02  0.7546771E-02  0.1300246E+00
          4   -1    0    0  501    0  0.00000000000E+00  0.00000000000E+00  0.77765489631E+02  0.77765489631E+02  0.00000000000E+00 0. -1.
         -4   -1    0    0    0  501 -0.00000000000E+00 -0.00000000000E+00 -0.26671242957E+02  0.26671242957E+02  0.00000000000E+00 0.  1.
         23    2    1    2    0    0  0.00000000000E+00  0.00000000000E+00  0.51094246674E+02  0.10443673259E+03  0.91084625874E+02 0.  0.
        -13    1    3    3    0    0 -0.39216734887E+02 -0.22733307725E+02  0.30590385682E+02  0.54685713595E+02  0.00000000000E+00 0.  1.
         13    1    3    3    0    0  0.39216734887E+02  0.22733307725E+02  0.20503860992E+02  0.49751018993E+02  0.00000000000E+00 0. -1.
<mgrwt>
<rscale>  0 0.91084626E+02</rscale>
<asrwt>0</asrwt>
<pdfrwt beam="1">  1        4 0.11963921E-01 0.91084626E+02</pdfrwt>
<pdfrwt beam="2">  1       -4 0.41032682E-02 0.91084626E+02</pdfrwt>
<totfact> 0.26258389E+04</totfact>
</mgrwt>
</event>
<event>
 5    1  0.6113696E+000  0.9115886E+02  0.7546771E-02  0.1300069E+00
          1   -1    0    0  501    0  0.00000000000E+00  0.00000000000E+00  0.67767118996E+02  0.67767118996E+02  0.00000000000E+00 0. -1.
         -1   -1    0    0    0  501 -0.00000000000E+00 -0.00000000000E+00 -0.30656228891E+02  0.30656228891E+02  0.00000000000E+00 0.  1.
         23    2    1    2    0    0  0.00000000000E+00  0.00000000000E+00  0.37110890105E+02  0.98423347887E+02  0.91158857194E+02 0.  0.
        -13    1    3    3    0    0  0.26607983029E+02 -0.13842116545E+02  0.55610939873E+02  0.63183586357E+02  0.00000000000E+00 0. -1.
         13    1    3    3    0    0 -0.26607983029E+02  0.13842116545E+02 -0.18500049768E+02  0.35239761531E+02  0.00000000000E+00 0.  1.
<mgrwt>
<rscale>  0 0.91158857E+02</rscale>
<asrwt>0</asrwt>
<pdfrwt beam="1">  1        1 0.10425711E-01 0.91158857E+02</pdfrwt>
<pdfrwt beam="2">  1       -1 0.47163429E-02 0.91158857E+02</pdfrwt>
<totfact> 0.98229258E+04</totfact>
</mgrwt>
</event>
<event>
 5    1  0.6113696E+000  0.9691600E+02  0.7546771E-02  0.1286918E+00
         -2   -1    0    0    0  501 -0.00000000000E+00  0.00000000000E+00  0.24431695558E+03  0.24431695558E+03  0.00000000000E+00 0. -1.
          2   -1    0    0  501    0  0.00000000000E+00 -0.00000000000E+00 -0.96111935640E+01  0.96111935640E+01  0.00000000000E+00 0.  1.
         23    2    1    2    0    0  0.00000000000E+00  0.00000000000E+00  0.23470576202E+03  0.25392814914E+03  0.96915995605E+02 0.  0.
        -13    1    3    3    0    0 -0.84896521262E+01 -0.33987846748E+02  0.29631681743E+02  0.45883379155E+02  0.00000000000E+00 0.  1.
         13    1    3    3    0    0  0.84896521262E+01  0.33987846748E+02  0.20507408027E+03  0.20804476999E+03  0.00000000000E+00 0. -1.
<mgrwt>
<rscale>  0 0.96915996E+02</rscale>
<asrwt>0</asrwt>
<pdfrwt beam="2">  1        2 0.14786453E-02 0.96915996E+02</pdfrwt>
<pdfrwt beam="1">  1       -2 0.37587219E-01 0.96915996E+02</pdfrwt>
<totfact> 0.48570675E+04</totfact>
</mgrwt>
</event>
<event>
 5    1  0.6113696E+000  0.8853873E+02  0.7546771E-02  0.1306429E+00
          1   -1    0    0  501    0  0.00000000000E+00  0.00000000000E+00  0.17130064208E+02  0.17130064208E+02  0.00000000000E+00 0. -1.
         -1   -1    0    0    0  501 -0.00000000000E+00 -0.00000000000E+00 -0.11440567471E+03  0.11440567471E+03  0.00000000000E+00 0.  1.
         23    2    1    2    0    0  0.00000000000E+00  0.00000000000E+00 -0.97275610498E+02  0.13153573891E+03  0.88538727200E+02 0.  0.
        -13    1    3    3    0    0  0.17864341101E+01 -0.34388849914E+02 -0.89969078918E+02  0.96333895938E+02  0.00000000000E+00 0.  1.
         13    1    3    3    0    0 -0.17864341101E+01  0.34388849914E+02 -0.73065315799E+01  0.35201842977E+02  0.00000000000E+00 0. -1.
<mgrwt>
<rscale>  0 0.88538727E+02</rscale>
<asrwt>0</asrwt>
<pdfrwt beam="1">  1        1 0.26353945E-02 0.88538727E+02</pdfrwt>
<pdfrwt beam="2">  1       -1 0.17600873E-01 0.88538727E+02</pdfrwt>
<totfact> 0.85528145E+04</totfact>
</mgrwt>
</event>
<event>
 5    1  0.6113696E+000  0.9074060E+02  0.7546771E-02  0.1301068E+00
          2   -1    0    0  501    0  0.00000000000E+00  0.00000000000E+00  0.41195884655E+02  0.41195884655E+02  0.00000000000E+00 0.  1.
         -2   -1    0    0    0  501 -0.00000000000E+00 -0.00000000000E+00 -0.49967709514E+02  0.49967709514E+02  0.00000000000E+00 0. -1.
         23    2    1    2    0    0  0.00000000000E+00  0.00000000000E+00 -0.87718248586E+01  0.91163594169E+02  0.90740597256E+02 0.  0.
        -13    1    3    3    0    0 -0.11354518306E+02 -0.95367256549E+01  0.38692751562E+02  0.41436737874E+02  0.00000000000E+00 0.  1.
         13    1    3    3    0    0  0.11354518306E+02  0.95367256549E+01 -0.47464576421E+02  0.49726856295E+02  0.00000000000E+00 0. -1.
<mgrwt>
<rscale>  0 0.90740597E+02</rscale>
<asrwt>0</asrwt>
<pdfrwt beam="1">  1        2 0.63378284E-02 0.90740597E+02</pdfrwt>
<pdfrwt beam="2">  1       -2 0.76873399E-02 0.90740597E+02</pdfrwt>
<totfact> 0.97459012E+04</totfact>
</mgrwt>
</event>
<event>
 5    1  0.6113696E+000  0.8654876E+02  0.7546771E-02  0.1311431E+00
          2   -1    0    0  501    0  0.00000000000E+00  0.00000000000E+00  0.36319897079E+03  0.36319897079E+03  0.00000000000E+00 0. -1.
         -2   -1    0    0    0  501 -0.00000000000E+00 -0.00000000000E+00 -0.51560502272E+01  0.51560502272E+01  0.00000000000E+00 0.  1.
         23    2    1    2    0    0  0.00000000000E+00  0.00000000000E+00  0.35804292057E+03  0.36835502102E+03  0.86548763963E+02 0.  0.
        -13    1    3    3    0    0  0.27841384342E+02  0.32798917446E+02  0.15916783405E+03  0.16487968663E+03  0.00000000000E+00 0.  1.
         13    1    3    3    0    0 -0.27841384342E+02 -0.32798917446E+02  0.19887508652E+03  0.20347533439E+03  0.00000000000E+00 0. -1.
<mgrwt>
<rscale>  0 0.86548764E+02</rscale>
<asrwt>0</asrwt>
<pdfrwt beam="1">  1        2 0.55876745E-01 0.86548764E+02</pdfrwt>
<pdfrwt beam="2">  1       -2 0.79323878E-03 0.86548764E+02</pdfrwt>
<totfact> 0.22132303E+05</totfact>
</mgrwt>
</event>
<event>
 5    1  0.6113696E+000  0.9397286E+02  0.7546771E-02  0.1293506E+00
          1   -1    0    0  501    0  0.00000000000E+00  0.00000000000E+00  0.57048374867E+02  0.57048374867E+02  0.00000000000E+00 0. -1.
         -1   -1    0    0    0  501 -0.00000000000E+00 -0.00000000000E+00 -0.38699164717E+02  0.38699164717E+02  0.00000000000E+00 0.  1.
         23    2    1    2    0    0  0.00000000000E+00  0.00000000000E+00  0.18349210150E+02  0.95747539584E+02  0.93972856843E+02 0.  0.
        -13    1    3    3    0    0  0.30948761620E+02  0.29649911509E+02  0.28793933528E+02  0.51633648974E+02  0.00000000000E+00 0. -1.
         13    1    3    3    0    0 -0.30948761620E+02 -0.29649911509E+02 -0.10444723378E+02  0.44113890610E+02  0.00000000000E+00 0.  1.
<mgrwt>
<rscale>  0 0.93972857E+02</rscale>
<asrwt>0</asrwt>
<pdfrwt beam="1">  1        1 0.87766730E-02 0.93972857E+02</pdfrwt>
<pdfrwt beam="2">  1       -1 0.59537177E-02 0.93972857E+02</pdfrwt>
<totfact> 0.87914935E+04</totfact>
</mgrwt>
</event>
<event>
 5    1  0.6113696E+000  0.9088938E+02  0.7546771E-02  0.1300712E+00
          2   -1    0    0  501    0  0.00000000000E+00  0.00000000000E+00  0.67640032036E+02  0.67640032036E+02  0.00000000000E+00 0. -1.
         -2   -1    0    0    0  501 -0.00000000000E+00 -0.00000000000E+00 -0.30532511234E+02  0.30532511234E+02  0.00000000000E+00 0.  1.
         23    2    1    2    0    0  0.00000000000E+00  0.00000000000E+00  0.37107520803E+02  0.98172543270E+02  0.90889384154E+02 0.  0.
        -13    1    3    3    0    0  0.33370533012E+02 -0.14766209862E+02 -0.10701406447E+02  0.38028325327E+02  0.00000000000E+00 0.  1.
         13    1    3    3    0    0 -0.33370533012E+02  0.14766209862E+02  0.47808927250E+02  0.60144217943E+02  0.00000000000E+00 0. -1.
<mgrwt>
<rscale>  0 0.90889384E+02</rscale>
<asrwt>0</asrwt>
<pdfrwt beam="1">  1        2 0.10406159E-01 0.90889384E+02</pdfrwt>
<pdfrwt beam="2">  1       -2 0.46973094E-02 0.90889384E+02</pdfrwt>
<totfact> 0.11055130E+05</totfact>
</mgrwt>
</event>
<event>
 5    1  0.6113696E+000  0.8983619E+02  0.7546771E-02  0.1303249E+00
          1   -1    0    0  501    0  0.00000000000E+00  0.00000000000E+00  0.13260929649E+03  0.13260929649E+03  0.00000000000E+00 0. -1.
         -1   -1    0    0    0  501 -0.00000000000E+00 -0.00000000000E+00 -0.15214886625E+02  0.15214886625E+02  0.00000000000E+00 0.  1.
         23    2    1    2    0    0  0.00000000000E+00  0.00000000000E+00  0.11739440986E+03  0.14782418311E+03  0.89836193409E+02 0.  0.
        -13    1    3    3    0    0  0.21070665196E+02  0.17563647347E+02  0.16829473147E+00  0.27431422913E+02  0.00000000000E+00 0.  1.
         13    1    3    3    0    0 -0.21070665196E+02 -0.17563647347E+02  0.11722611513E+03  0.12039276020E+03  0.00000000000E+00 0. -1.
<mgrwt>
<rscale>  0 0.89836193E+02</rscale>
<asrwt>0</asrwt>
<pdfrwt beam="1">  1        1 0.20401430E-01 0.89836193E+02</pdfrwt>
<pdfrwt beam="2">  1       -1 0.23407519E-02 0.89836193E+02</pdfrwt>
<totfact> 0.11413145E+05</totfact>
</mgrwt>
</event>
<event>
 5    1  0.6113696E+000  0.9188155E+02  0.7546771E-02  0.1298358E+00
          1   -1    0    0  501    0  0.00000000000E+00  0.00000000000E+00  0.84308020886E+02  0.84308020886E+02  0.00000000000E+00 0. -1.
         -1   -1    0    0    0  501 -0.00000000000E+00 -0.00000000000E+00 -0.25033856365E+02  0.25033856365E+02  0.00000000000E+00 0.  1.
         23    2    1    2    0    0  0.00000000000E+00  0.00000000000E+00  0.59274164522E+02  0.10934187725E+03  0.91881551690E+02 0.  0.
        -13    1    3    3    0    0 -0.17740276377E+01  0.14295015330E+02 -0.22276915463E+02  0.26528392335E+02  0.00000000000E+00 0.  1.
         13    1    3    3    0    0  0.17740276377E+01 -0.14295015330E+02  0.81551079984E+02  0.82813484916E+02  0.00000000000E+00 0. -1.
<mgrwt>
<rscale>  0 0.91881552E+02</rscale>
<asrwt>0</asrwt>
<pdfrwt beam="1">  1        1 0.12970465E-01 0.91881552E+02</pdfrwt>
<pdfrwt beam="2">  1       -1 0.38513626E-02 0.91881552E+02</pdfrwt>
<totfact> 0.99462481E+04</totfact>
</mgrwt>
</event>
<event>
 5    1  0.6113696E+000  0.9111487E+02  0.7546771E-02  0.1300174E+00
         -1   -1    0    0    0  501 -0.00000000000E+00  0.00000000000E+00  0.84663200641E+01  0.84663200641E+01  0.00000000000E+00 0.  1.
          1   -1    0    0  501    0  0.00000000000E+00 -0.00000000000E+00 -0.24514543931E+03  0.24514543931E+03  0.00000000000E+00 0. -1.
         23    2    1    2    0    0  0.00000000000E+00  0.00000000000E+00 -0.23667911925E+03  0.25361175938E+03  0.91114867096E+02 0.  0.
        -13    1    3    3    0    0  0.41051339220E+02  0.15673283998E+02 -0.15181201069E+03  0.15804350943E+03  0.00000000000E+00 0.  1.
         13    1    3    3    0    0 -0.41051339220E+02 -0.15673283998E+02 -0.84867108565E+02  0.95568249953E+02  0.00000000000E+00 0. -1.
<mgrwt>
<rscale>  0 0.91114867E+02</rscale>
<asrwt>0</asrwt>
<pdfrwt beam="2">  1        1 0.37714685E-01 0.91114867E+02</pdfrwt>
<pdfrwt beam="1">  1       -1 0.13025107E-02 0.91114867E+02</pdfrwt>
<totfact> 0.12342263E+05</totfact>
</mgrwt>
</event>
<event>
 5    1  0.6113696E+000  0.9152012E+02  0.7546771E-02  0.1299212E+00
         -2   -1    0    0    0  501 -0.00000000000E+00  0.00000000000E+00  0.12508876226E+02  0.12508876226E+02  0.00000000000E+00 0.  1.
          2   -1    0    0  501    0  0.00000000000E+00 -0.00000000000E+00 -0.16739977796E+03  0.16739977796E+03  0.00000000000E+00 0. -1.
         23    2    1    2    0    0  0.00000000000E+00  0.00000000000E+00 -0.15489090173E+03  0.17990865418E+03  0.91520120252E+02 0.  0.
        -13    1    3    3    0    0  0.99465180193E+01  0.35235571041E+02 -0.23484651639E+02  0.43497213128E+02  0.00000000000E+00 0.  1.
         13    1    3    3    0    0 -0.99465180193E+01 -0.35235571041E+02 -0.13140625009E+03  0.13641144106E+03  0.00000000000E+00 0. -1.
<mgrwt>
<rscale>  0 0.91520120E+02</rscale>
<asrwt>0</asrwt>
<pdfrwt beam="2">  1        2 0.25753811E-01 0.91520120E+02</pdfrwt>
<pdfrwt beam="1">  1       -2 0.19244426E-02 0.91520120E+02</pdfrwt>
<totfact> 0.14372506E+05</totfact>
</mgrwt>
</event>
<event>
 5    1  0.6113696E+000  0.9138989E+02  0.7546771E-02  0.1299520E+00
         -3   -1    0    0    0  501 -0.00000000000E+00  0.00000000000E+00  0.61832143604E+02  0.61832143604E+02  0.00000000000E+00 0.  1.
          3   -1    0    0  501    0  0.00000000000E+00 -0.00000000000E+00 -0.33769297887E+02  0.33769297887E+02  0.00000000000E+00 0. -1.
         23    2    1    2    0    0  0.00000000000E+00  0.00000000000E+00  0.28062845717E+02  0.95601441491E+02  0.91389891702E+02 0.  0.
        -13    1    3    3    0    0 -0.41419639320E+02 -0.30435805682E+01  0.33966877629E+02  0.53652573843E+02  0.00000000000E+00 0. -1.
         13    1    3    3    0    0  0.41419639320E+02  0.30435805682E+01 -0.59040319123E+01  0.41948867648E+02  0.00000000000E+00 0.  1.
<mgrwt>
<rscale>  0 0.91389892E+02</rscale>
<asrwt>0</asrwt>
<pdfrwt beam="2">  1        3 0.51952766E-02 0.91389892E+02</pdfrwt>
<pdfrwt beam="1">  1       -3 0.95126375E-02 0.91389892E+02</pdfrwt>
<totfact> 0.34779538E+04</totfact>
</mgrwt>
</event>
<event>
 5    1  0.6113696E+000  0.9198018E+02  0.7546771E-02  0.1298126E+00
         -3   -1    0    0    0  501 -0.00000000000E+00  0.00000000000E+00  0.11245967957E+02  0.11245967957E+02  0.00000000000E+00 0.  1.
          3   -1    0    0  501    0  0.00000000000E+00 -0.00000000000E+00 -0.18807525800E+03  0.18807525800E+03  0.00000000000E+00 0. -1.
         23    2    1    2    0    0  0.00000000000E+00  0.00000000000E+00 -0.17682929004E+03  0.19932122595E+03  0.91980178840E+02 0.  0.
        -13    1    3    3    0    0 -0.30297481170E+02  0.11508948435E+02 -0.17706096762E+02  0.36931004886E+02  0.00000000000E+00 0.  1.
         13    1    3    3    0    0  0.30297481170E+02 -0.11508948435E+02 -0.15912319328E+03  0.16239022107E+03  0.00000000000E+00 0. -1.
<mgrwt>
<rscale>  0 0.91980179E+02</rscale>
<asrwt>0</asrwt>
<pdfrwt beam="2">  1        3 0.28934656E-01 0.91980179E+02</pdfrwt>
<pdfrwt beam="1">  1       -3 0.17301489E-02 0.91980179E+02</pdfrwt>
<totfact> 0.27864966E+04</totfact>
</mgrwt>
</event>
<event>
 5    1  0.6113696E+000  0.9126195E+02  0.7546771E-02  0.1299824E+00
         -1   -1    0    0    0  501 -0.00000000000E+00  0.00000000000E+00  0.34325264305E+02  0.34325264305E+02  0.00000000000E+00 0.  1.
          1   -1    0    0  501    0  0.00000000000E+00 -0.00000000000E+00 -0.60660453313E+02  0.60660453313E+02  0.00000000000E+00 0. -1.
         23    2    1    2    0    0  0.00000000000E+00  0.00000000000E+00 -0.26335189008E+02  0.94985717618E+02  0.91261954677E+02 0.  0.
        -13    1    3    3    0    0 -0.12943130495E+02  0.11855835916E+02 -0.57006294369E+02  0.59647322404E+02  0.00000000000E+00 0. -1.
         13    1    3    3    0    0  0.12943130495E+02 -0.11855835916E+02  0.30671105361E+02  0.35338395215E+02  0.00000000000E+00 0.  1.
<mgrwt>
<rscale>  0 0.91261955E+02</rscale>
<asrwt>0</asrwt>
<pdfrwt beam="2">  1        1 0.93323774E-02 0.91261955E+02</pdfrwt>
<pdfrwt beam="1">  1       -1 0.52808099E-02 0.91261955E+02</pdfrwt>
<totfact> 0.96281472E+04</totfact>
</mgrwt>
</event>
<event>
 5    1  0.6113696E+000  0.9014582E+02  0.7546771E-02  0.1302499E+00
         -2   -1    0    0    0  501 -0.00000000000E+00  0.00000000000E+00  0.42743354569E+02  0.42743354569E+02  0.00000000000E+00 0. -1.
          2   -1    0    0  501    0  0.00000000000E+00 -0.00000000000E+00 -0.47529430380E+02  0.47529430380E+02  0.00000000000E+00 0.  1.
         23    2    1    2    0    0  0.00000000000E+00  0.00000000000E+00 -0.47860758119E+01  0.90272784949E+02  0.90145821760E+02 0.  0.
        -13    1    3    3    0    0 -0.28786569519E+02 -0.10518289811E+02 -0.35489037608E+02  0.46891073730E+02  0.00000000000E+00 0.  1.
         13    1    3    3    0    0  0.28786569519E+02  0.10518289811E+02  0.30702961796E+02  0.43381711219E+02  0.00000000000E+00 0. -1.
<mgrwt>
<rscale>  0 0.90145822E+02</rscale>
<asrwt>0</asrwt>
<pdfrwt beam="2">  1        2 0.73122200E-02 0.90145822E+02</pdfrwt>
<pdfrwt beam="1">  1       -2 0.65759007E-02 0.90145822E+02</pdfrwt>
<totfact> 0.10304329E+05</totfact>
</mgrwt>
</event>
<event>
 5    1  0.6113696E+000  0.9228875E+02  0.7546771E-02  0.1297402E+00
         -1   -1    0    0    0  501 -0.00000000000E+00  0.00000000000E+00  0.35984814100E+03  0.35984814100E+03  0.00000000000E+00 0.  1.
          1   -1    0    0  501    0  0.00000000000E+00 -0.00000000000E+00 -0.59172270960E+01  0.59172270960E+01  0.00000000000E+00 0. -1.
         23    2    1    2    0    0  0.00000000000E+00  0.00000000000E+00  0.35393091390E+03  0.36576536809E+03  0.92288746234E+02 0.  0.
        -13    1    3    3    0    0  0.31199016641E+02 -0.28673887690E+02  0.10456301488E+03  0.11282284589E+03  0.00000000000E+00 0. -1.
         13    1    3    3    0    0 -0.31199016641E+02  0.28673887690E+02  0.24936789902E+03  0.25294252220E+03  0.00000000000E+00 0.  1.
<mgrwt>
<rscale>  0 0.92288746E+02</rscale>
<asrwt>0</asrwt>
<pdfrwt beam="2">  1        1 0.91034291E-03 0.92288746E+02</pdfrwt>
<pdfrwt beam="1">  1       -1 0.55361235E-01 0.92288746E+02</pdfrwt>
<totfact> 0.54323423E+04</totfact>
</mgrwt>
</event>
<event>
 5    1  0.6113696E+000  0.9178919E+02  0.7546771E-02  0.1298576E+00
          2   -1    0    0  501    0  0.00000000000E+00  0.00000000000E+00  0.30164512601E+02  0.30164512601E+02  0.00000000000E+00 0. -1.
         -2   -1    0    0    0  501 -0.00000000000E+00 -0.00000000000E+00 -0.69827552130E+02  0.69827552130E+02  0.00000000000E+00 0.  1.
         23    2    1    2    0    0  0.00000000000E+00  0.00000000000E+00 -0.39663039528E+02  0.99992064731E+02  0.91789194923E+02 0.  0.
        -13    1    3    3    0    0 -0.21083113953E+02  0.21229857305E+02  0.18079519345E+02  0.34958168643E+02  0.00000000000E+00 0. -1.
         13    1    3    3    0    0  0.21083113953E+02 -0.21229857305E+02 -0.57742558873E+02  0.65033896088E+02  0.00000000000E+00 0.  1.
<mgrwt>
<rscale>  0 0.91789195E+02</rscale>
<asrwt>0</asrwt>
<pdfrwt beam="1">  1        2 0.46406944E-02 0.91789195E+02</pdfrwt>
<pdfrwt beam="2">  1       -2 0.10742700E-01 0.91789195E+02</pdfrwt>
<totfact> 0.86850456E+04</totfact>
</mgrwt>
</event>
<event>
 5    1  0.6113696E+000  0.9175274E+02  0.7546771E-02  0.1298662E+00
          1   -1    0    0  501    0  0.00000000000E+00  0.00000000000E+00  0.17066064393E+02  0.17066064393E+02  0.00000000000E+00 0. -1.
         -1   -1    0    0    0  501 -0.00000000000E+00 -0.00000000000E+00 -0.12332317984E+03  0.12332317984E+03  0.00000000000E+00 0.  1.
         23    2    1    2    0    0  0.00000000000E+00  0.00000000000E+00 -0.10625711545E+03  0.14038924423E+03  0.91752740087E+02 0.  0.
        -13    1    3    3    0    0 -0.42182303974E+02 -0.13596390680E+02 -0.34996422570E+02  0.56470861519E+02  0.00000000000E+00 0.  1.
         13    1    3    3    0    0  0.42182303974E+02  0.13596390680E+02 -0.71260692878E+02  0.83918382715E+02  0.00000000000E+00 0. -1.
<mgrwt>
<rscale>  0 0.91752740E+02</rscale>
<asrwt>0</asrwt>
<pdfrwt beam="1">  1        1 0.26255484E-02 0.91752740E+02</pdfrwt>
<pdfrwt beam="2">  1       -1 0.18972797E-01 0.91752740E+02</pdfrwt>
<totfact> 0.76826674E+04</totfact>
</mgrwt>
</event>
<event>
 5    1  0.6113696E+000  0.9172782E+02  0.7546771E-02  0.1298721E+00
          2   -1    0    0  501    0  0.00000000000E+00  0.00000000000E+00  0.12846615884E+02  0.12846615884E+02  0.00000000000E+00 0.  1.
         -2   -1    0    0    0  501 -0.00000000000E+00 -0.00000000000E+00 -0.16373946761E+03  0.16373946761E+03  0.00000000000E+00 0. -1.
         23    2    1    2    0    0  0.00000000000E+00  0.00000000000E+00 -0.15089285173E+03  0.17658608350E+03  0.91727815748E+02 0.  0.
        -13    1    3    3    0    0 -0.37340814781E+02  0.11520700113E+02 -0.12166649794E+03  0.12778810469E+03  0.00000000000E+00 0. -1.
         13    1    3    3    0    0  0.37340814781E+02 -0.11520700113E+02 -0.29226353784E+02  0.48797978801E+02  0.00000000000E+00 0.  1.
<mgrwt>
<rscale>  0 0.91727816E+02</rscale>
<asrwt>0</asrwt>
<pdfrwt beam="1">  1        2 0.19764024E-02 0.91727816E+02</pdfrwt>
<pdfrwt beam="2">  1       -2 0.25190688E-01 0.91727816E+02</pdfrwt>
<totfact> 0.66581113E+04</totfact>
</mgrwt>
</event>
<event>
 5    1  0.6113696E+000  0.9271177E+02  0.7546771E-02  0.1296415E+00
          1   -1    0    0  501    0  0.00000000000E+00  0.00000000000E+00  0.11656263305E+02  0.11656263305E+02  0.00000000000E+00 0. -1.
         -1   -1    0    0    0  501 -0.00000000000E+00 -0.00000000000E+00 -0.18435308326E+03  0.18435308326E+03  0.00000000000E+00 0.  1.
         23    2    1    2    0    0  0.00000000000E+00  0.00000000000E+00 -0.17269681996E+03  0.19600934657E+03  0.92711770120E+02 0.  0.
        -13    1    3    3    0    0 -0.18990853903E+02  0.34693981824E+02 -0.35233193532E+02  0.52968885520E+02  0.00000000000E+00 0. -1.
         13    1    3    3    0    0  0.18990853903E+02 -0.34693981824E+02 -0.13746362642E+03  0.14304046105E+03  0.00000000000E+00 0.  1.
<mgrwt>
<rscale>  0 0.92711770E+02</rscale>
<asrwt>0</asrwt>
<pdfrwt beam="1">  1        1 0.17932715E-02 0.92711770E+02</pdfrwt>
<pdfrwt beam="2">  1       -1 0.28362010E-01 0.92711770E+02</pdfrwt>
<totfact> 0.67990283E+04</totfact>
</mgrwt>
</event>
<event>
 5    1  0.6113696E+000  0.9118021E+02  0.7546771E-02  0.1300019E+00
          2   -1    0    0  501    0  0.00000000000E+00  0.00000000000E+00  0.15240578073E+03  0.15240578073E+03  0.00000000000E+00 0. -1.
         -2   -1    0    0    0  501 -0.00000000000E+00 -0.00000000000E+00 -0.13637656452E+02  0.13637656452E+02  0.00000000000E+00 0.  1.
         23    2    1    2    0    0  0.00000000000E+00  0.00000000000E+00  0.13876812427E+03  0.16604343718E+03  0.91180210107E+02 0.  0.
        -13    1    3    3    0    0  0.35030449262E+02 -0.18597938788E+02  0.28443219257E+02  0.48806069544E+02  0.00000000000E+00 0.  1.
         13    1    3    3    0    0 -0.35030449262E+02  0.18597938788E+02  0.11032490502E+03  0.11723736763E+03  0.00000000000E+00 0. -1.
<mgrwt>
<rscale>  0 0.91180210E+02</rscale>
<asrwt>0</asrwt>
<pdfrwt beam="1">  1        2 0.23447042E-01 0.91180210E+02</pdfrwt>
<pdfrwt beam="2">  1       -2 0.20981011E-02 0.91180210E+02</pdfrwt>
<totfact> 0.14055572E+05</totfact>
</mgrwt>
</event>
<event>
 5    1  0.6113696E+000  0.9060857E+02  0.7546771E-02  0.1301385E+00
          2   -1    0    0  501    0  0.00000000000E+00  0.00000000000E+00  0.20000380872E+03  0.20000380872E+03  0.00000000000E+00 0. -1.
         -2   -1    0    0    0  501 -0.00000000000E+00 -0.00000000000E+00 -0.10262195338E+02  0.10262195338E+02  0.00000000000E+00 0.  1.
         23    2    1    2    0    0  0.00000000000E+00  0.00000000000E+00  0.18974161338E+03  0.21026600406E+03  0.90608568103E+02 0.  0.
        -13    1    3    3    0    0 -0.31397913724E+02 -0.30394488980E+02  0.67137560652E+02  0.80106841136E+02  0.00000000000E+00 0.  1.
         13    1    3    3    0    0  0.31397913724E+02  0.30394488980E+02  0.12260405273E+03  0.13015916292E+03  0.00000000000E+00 0. -1.
<mgrwt>
<rscale>  0 0.90608568E+02</rscale>
<asrwt>0</asrwt>
<pdfrwt beam="1">  1        2 0.30769814E-01 0.90608568E+02</pdfrwt>
<pdfrwt beam="2">  1       -2 0.15787994E-02 0.90608568E+02</pdfrwt>
<totfact> 0.15730443E+05</totfact>
</mgrwt>
</event>
<event>
 5    1  0.6113696E+000  0.9474808E+02  0.7546771E-02  0.1291744E+00
          1   -1    0    0  501    0  0.00000000000E+00  0.00000000000E+00  0.48403556683E+02  0.48403556683E+02  0.00000000000E+00 0. -1.
         -1   -1    0    0    0  501 -0.00000000000E+00 -0.00000000000E+00 -0.46366419436E+02  0.46366419436E+02  0.00000000000E+00 0.  1.
         23    2    1    2    0    0  0.00000000000E+00  0.00000000000E+00  0.20371372471E+01  0.94769976119E+02  0.94748078848E+02 0.  0.
        -13    1    3    3    0    0  0.25784973053E+02 -0.26101417014E+02 -0.28957521814E+02  0.46740634089E+02  0.00000000000E+00 0.  1.
         13    1    3    3    0    0 -0.25784973053E+02  0.26101417014E+02  0.30994659061E+02  0.48029342029E+02  0.00000000000E+00 0. -1.
<mgrwt>
<rscale>  0 0.94748079E+02</rscale>
<asrwt>0</asrwt>
<pdfrwt beam="1">  1        1 0.74467010E-02 0.94748079E+02</pdfrwt>
<pdfrwt beam="2">  1       -1 0.71332953E-02 0.94748079E+02</pdfrwt>
<totfact> 0.83757853E+04</totfact>
</mgrwt>
</event>
<event>
 5    1  0.6113696E+000  0.9045896E+02  0.7546771E-02  0.1301744E+00
          1   -1    0    0  501    0  0.00000000000E+00  0.00000000000E+00  0.69027145776E+02  0.69027145776E+02  0.00000000000E+00 0. -1.
         -1   -1    0    0    0  501 -0.00000000000E+00 -0.00000000000E+00 -0.29636251231E+02  0.29636251231E+02  0.00000000000E+00 0.  1.
         23    2    1    2    0    0  0.00000000000E+00  0.00000000000E+00  0.39390894545E+02  0.98663397007E+02  0.90458959400E+02 0.  0.
        -13    1    3    3    0    0  0.24684233390E+02  0.92147113144E+01  0.59792260622E+02  0.65340161562E+02  0.00000000000E+00 0. -1.
         13    1    3    3    0    0 -0.24684233390E+02 -0.92147113144E+01 -0.20401366077E+02  0.33323235444E+02  0.00000000000E+00 0.  1.
<mgrwt>
<rscale>  0 0.90458959E+02</rscale>
<asrwt>0</asrwt>
<pdfrwt beam="1">  1        1 0.10619561E-01 0.90458959E+02</pdfrwt>
<pdfrwt beam="2">  1       -1 0.45594233E-02 0.90458959E+02</pdfrwt>
<totfact> 0.10062269E+05</totfact>
</mgrwt>
</event>
<event>
 5    1  0.6113696E+000  0.9018347E+02  0.7546771E-02  0.1302408E+00
         -3   -1    0    0    0  501 -0.00000000000E+00  0.00000000000E+00  0.25991717721E+02  0.25991717721E+02  0.00000000000E+00 0.  1.
          3   -1    0    0  501    0  0.00000000000E+00 -0.00000000000E+00 -0.78227404284E+02  0.78227404284E+02  0.00000000000E+00 0. -1.
         23    2    1    2    0    0  0.00000000000E+00  0.00000000000E+00 -0.52235686563E+02  0.10421912200E+03  0.90183470995E+02 0.  0.
        -13    1    3    3    0    0 -0.37460068309E+02  0.37248071520E+01  0.25673609898E+01  0.37732244148E+02  0.00000000000E+00 0.  1.
         13    1    3    3    0    0  0.37460068309E+02 -0.37248071520E+01 -0.54803047553E+02  0.66486877857E+02  0.00000000000E+00 0. -1.
<mgrwt>
<rscale>  0 0.90183471E+02</rscale>
<asrwt>0</asrwt>
<pdfrwt beam="2">  1        3 0.12034985E-01 0.90183471E+02</pdfrwt>
<pdfrwt beam="1">  1       -3 0.39987258E-02 0.90183471E+02</pdfrwt>
<totfact> 0.35398400E+04</totfact>
</mgrwt>
</event>
<event>
 5    1  0.6113696E+000  0.8937793E+02  0.7546771E-02  0.1304365E+00
          1   -1    0    0  501    0  0.00000000000E+00  0.00000000000E+00  0.19157777227E+03  0.19157777227E+03  0.00000000000E+00 0. -1.
         -1   -1    0    0    0  501 -0.00000000000E+00 -0.00000000000E+00 -0.10424506138E+02  0.10424506138E+02  0.00000000000E+00 0.  1.
         23    2    1    2    0    0  0.00000000000E+00  0.00000000000E+00  0.18115326613E+03  0.20200227841E+03  0.89377931572E+02 0.  0.
        -13    1    3    3    0    0 -0.25205948653E+02 -0.23547098002E+02  0.15479258192E+03  0.15858924645E+03  0.00000000000E+00 0.  1.
         13    1    3    3    0    0  0.25205948653E+02  0.23547098002E+02  0.26360684211E+02  0.43413031959E+02  0.00000000000E+00 0. -1.
<mgrwt>
<rscale>  0 0.89377932E+02</rscale>
<asrwt>0</asrwt>
<pdfrwt beam="1">  1        1 0.29473501E-01 0.89377932E+02</pdfrwt>
<pdfrwt beam="2">  1       -1 0.16037703E-02 0.89377932E+02</pdfrwt>
<totfact> 0.12386409E+05</totfact>
</mgrwt>
</event>
<event>
 5    1  0.6113696E+000  0.9144305E+02  0.7546771E-02  0.1299394E+00
          1   -1    0    0  501    0  0.00000000000E+00  0.00000000000E+00  0.62959497986E+02  0.62959497986E+02  0.00000000000E+00 0. -1.
         -1   -1    0    0    0  501 -0.00000000000E+00 -0.00000000000E+00 -0.33203213060E+02  0.33203213060E+02  0.00000000000E+00 0.  1.
         23    2    1    2    0    0  0.00000000000E+00  0.00000000000E+00  0.29756284926E+02  0.96162711046E+02  0.91443045132E+02 0.  0.
        -13    1    3    3    0    0  0.17686455596E+02  0.15015049679E+02  0.56309502161E+02  0.60901744327E+02  0.00000000000E+00 0. -1.
         13    1    3    3    0    0 -0.17686455596E+02 -0.15015049679E+02 -0.26553217235E+02  0.35260966719E+02  0.00000000000E+00 0.  1.
<mgrwt>
<rscale>  0 0.91443045E+02</rscale>
<asrwt>0</asrwt>
<pdfrwt beam="1">  1        1 0.96860766E-02 0.91443045E+02</pdfrwt>
<pdfrwt beam="2">  1       -1 0.51081866E-02 0.91443045E+02</pdfrwt>
<totfact> 0.96296436E+04</totfact>
</mgrwt>
</event>
<event>
 5    1  0.6113696E+000  0.9106473E+02  0.7546771E-02  0.1300294E+00
         -2   -1    0    0    0  501 -0.00000000000E+00  0.00000000000E+00  0.11015329714E+02  0.11015329714E+02  0.00000000000E+00 0.  1.
          2   -1    0    0  501    0  0.00000000000E+00 -0.00000000000E+00 -0.18821011600E+03  0.18821011600E+03  0.00000000000E+00 0. -1.
         23    2    1    2    0    0  0.00000000000E+00  0.00000000000E+00 -0.17719478628E+03  0.19922544571E+03  0.91064734847E+02 0.  0.
        -13    1    3    3    0    0  0.23616444275E+02  0.33407284078E+02 -0.44874800910E+02  0.60725042827E+02  0.00000000000E+00 0.  1.
         13    1    3    3    0    0 -0.23616444275E+02 -0.33407284078E+02 -0.13231998537E+03  0.13850040288E+03  0.00000000000E+00 0. -1.
<mgrwt>
<rscale>  0 0.91064735E+02</rscale>
<asrwt>0</asrwt>
<pdfrwt beam="2">  1        2 0.28955404E-01 0.91064735E+02</pdfrwt>
<pdfrwt beam="1">  1       -2 0.16946660E-02 0.91064735E+02</pdfrwt>
<totfact> 0.15183759E+05</totfact>
</mgrwt>
</event>
<event>
 5    1  0.6113696E+000  0.1115533E+03  0.7546771E-02  0.1257720E+00
          3   -1    0    0  501    0  0.00000000000E+00  0.00000000000E+00  0.80595414721E+02  0.80595414721E+02  0.00000000000E+00 0. -1.
         -3   -1    0    0    0  501 -0.00000000000E+00 -0.00000000000E+00 -0.38600609680E+02  0.38600609680E+02  0.00000000000E+00 0.  1.
         23    2    1    2    0    0  0.00000000000E+00  0.00000000000E+00  0.41994805041E+02  0.11919602440E+03  0.11155325447E+03 0.  0.
        -13    1    3    3    0    0  0.46847415576E+02 -0.35906455303E+01 -0.11119508252E+02  0.48282673344E+02  0.00000000000E+00 0.  1.
         13    1    3    3    0    0 -0.46847415576E+02  0.35906455303E+01  0.53114313293E+02  0.70913351056E+02  0.00000000000E+00 0. -1.
<mgrwt>
<rscale>  0 0.11155325E+03</rscale>
<asrwt>0</asrwt>
<pdfrwt beam="1">  1        3 0.12399295E-01 0.11155325E+03</pdfrwt>
<pdfrwt beam="2">  1       -3 0.59385553E-02 0.11155325E+03</pdfrwt>
<totfact> 0.19120877E+04</totfact>
</mgrwt>
</event>
<event>
 5    1  0.6113696E+000  0.8885789E+02  0.7546771E-02  0.1305641E+00
         -1   -1    0    0    0  501 -0.00000000000E+00  0.00000000000E+00  0.24019333682E+02  0.24019333682E+02  0.00000000000E+00 0.  1.
          1   -1    0    0  501    0  0.00000000000E+00 -0.00000000000E+00 -0.82180927691E+02  0.82180927691E+02  0.00000000000E+00 0. -1.
         23    2    1    2    0    0  0.00000000000E+00  0.00000000000E+00 -0.58161594009E+02  0.10620026137E+03  0.88857889340E+02 0.  0.
        -13    1    3    3    0    0 -0.19859537372E+02  0.38078953612E+02 -0.15478778501E+02  0.45650854501E+02  0.00000000000E+00 0.  1.
         13    1    3    3    0    0  0.19859537372E+02 -0.38078953612E+02 -0.42682815507E+02  0.60549406871E+02  0.00000000000E+00 0. -1.
<mgrwt>
<rscale>  0 0.88857889E+02</rscale>
<asrwt>0</asrwt>
<pdfrwt beam="2">  1        1 0.12643220E-01 0.88857889E+02</pdfrwt>
<pdfrwt beam="1">  1       -1 0.36952821E-02 0.88857889E+02</pdfrwt>
<totfact> 0.10856076E+05</totfact>
</mgrwt>
</event>
<event>
 5    1  0.6113696E+000  0.8901340E+02  0.7546771E-02  0.1305259E+00
         -1   -1    0    0    0  501 -0.00000000000E+00  0.00000000000E+00  0.72567392437E+02  0.72567392437E+02  0.00000000000E+00 0.  1.
          1   -1    0    0  501    0  0.00000000000E+00 -0.00000000000E+00 -0.27296645921E+02  0.27296645921E+02  0.00000000000E+00 0. -1.
         23    2    1    2    0    0  0.00000000000E+00  0.00000000000E+00  0.45270746516E+02  0.99864038357E+02  0.89013401614E+02 0.  0.
        -13    1    3    3    0    0  0.46489120107E+01 -0.31453410452E+02 -0.12304474904E+02  0.34092954031E+02  0.00000000000E+00 0. -1.
         13    1    3    3    0    0 -0.46489120107E+01  0.31453410452E+02  0.57575221419E+02  0.65771084326E+02  0.00000000000E+00 0.  1.
<mgrwt>
<rscale>  0 0.89013402E+02</rscale>
<asrwt>0</asrwt>
<pdfrwt beam="2">  1        1 0.41994840E-02 0.89013402E+02</pdfrwt>
<pdfrwt beam="1">  1       -1 0.11164214E-01 0.89013402E+02</pdfrwt>
<totfact> 0.91465685E+04</totfact>
</mgrwt>
</event>
<event>
 5    1  0.6113696E+000  0.9187114E+02  0.7546771E-02  0.1298383E+00
          2   -1    0    0  501    0  0.00000000000E+00  0.00000000000E+00  0.19438633517E+02  0.19438633517E+02  0.00000000000E+00 0. -1.
         -2   -1    0    0    0  501 -0.00000000000E+00 -0.00000000000E+00 -0.10855066226E+03  0.10855066226E+03  0.00000000000E+00 0.  1.
         23    2    1    2    0    0  0.00000000000E+00  0.00000000000E+00 -0.89112028744E+02  0.12798929578E+03  0.91871138923E+02 0.  0.
        -13    1    3    3    0    0 -0.38576168453E+02  0.11954258387E+02 -0.75047995359E+02  0.85224566139E+02  0.00000000000E+00 0.  1.
         13    1    3    3    0    0  0.38576168453E+02 -0.11954258387E+02 -0.14064033385E+02  0.42764729640E+02  0.00000000000E+00 0. -1.
<mgrwt>
<rscale>  0 0.91871139E+02</rscale>
<asrwt>0</asrwt>
<pdfrwt beam="1">  1        2 0.29905591E-02 0.91871139E+02</pdfrwt>
<pdfrwt beam="2">  1       -2 0.16700102E-01 0.91871139E+02</pdfrwt>
<totfact> 0.76381087E+04</totfact>
</mgrwt>
</event>
<event>
 5    1  0.6113696E+000  0.9095766E+02  0.7546771E-02  0.1300549E+00
         -2   -1    0    0    0  501 -0.00000000000E+00  0.00000000000E+00  0.97612628441E+01  0.97612628441E+01  0.00000000000E+00 0. -1.
          2   -1    0    0  501    0  0.00000000000E+00 -0.00000000000E+00 -0.21189101301E+03  0.21189101301E+03  0.00000000000E+00 0.  1.
         23    2    1    2    0    0  0.00000000000E+00  0.00000000000E+00 -0.20212975017E+03  0.22165227586E+03  0.90957657673E+02 0.  0.
        -13    1    3    3    0    0 -0.19125971154E+02  0.32473651529E+02 -0.39033022466E+02  0.54257881077E+02  0.00000000000E+00 0. -1.
         13    1    3    3    0    0  0.19125971154E+02 -0.32473651529E+02 -0.16309672770E+03  0.16739439478E+03  0.00000000000E+00 0.  1.
<mgrwt>
<rscale>  0 0.90957658E+02</rscale>
<asrwt>0</asrwt>
<pdfrwt beam="2">  1        2 0.32598613E-01 0.90957658E+02</pdfrwt>
<pdfrwt beam="1">  1       -2 0.15017329E-02 0.90957658E+02</pdfrwt>
<totfact> 0.15898333E+05</totfact>
</mgrwt>
</event>
<event>
 5    1  0.6113696E+000  0.9203612E+02  0.7546771E-02  0.1297995E+00
          2   -1    0    0  501    0  0.00000000000E+00  0.00000000000E+00  0.37708905404E+02  0.37708905404E+02  0.00000000000E+00 0.  1.
         -2   -1    0    0    0  501 -0.00000000000E+00 -0.00000000000E+00 -0.56158132198E+02  0.56158132198E+02  0.00000000000E+00 0. -1.
         23    2    1    2    0    0  0.00000000000E+00  0.00000000000E+00 -0.18449226793E+02  0.93867037602E+02  0.92036116709E+02 0.  0.
        -13    1    3    3    0    0  0.41887463322E+02  0.39186580160E+01  0.97943149102E+01  0.43195417220E+02  0.00000000000E+00 0.  1.
         13    1    3    3    0    0 -0.41887463322E+02 -0.39186580160E+01 -0.28243541704E+02  0.50671620382E+02  0.00000000000E+00 0. -1.
<mgrwt>
<rscale>  0 0.92036117E+02</rscale>
<asrwt>0</asrwt>
<pdfrwt beam="1">  1        2 0.58013701E-02 0.92036117E+02</pdfrwt>
<pdfrwt beam="2">  1       -2 0.86397126E-02 0.92036117E+02</pdfrwt>
<totfact> 0.91407607E+04</totfact>
</mgrwt>
</event>
<event>
 5    1  0.6113696E+000  0.8954822E+02  0.7546771E-02  0.1303949E+00
         -3   -1    0    0    0  501 -0.00000000000E+00  0.00000000000E+00  0.18486624990E+02  0.18486624990E+02  0.00000000000E+00 0.  1.
          3   -1    0    0  501    0  0.00000000000E+00 -0.00000000000E+00 -0.10844169776E+03  0.10844169776E+03  0.00000000000E+00 0. -1.
         23    2    1    2    0    0  0.00000000000E+00  0.00000000000E+00 -0.89955072767E+02  0.12692832275E+03  0.89548221640E+02 0.  0.
        -13    1    3    3    0    0  0.16781228235E+02 -0.18694394619E+02  0.75559974063E+01  0.26233244329E+02  0.00000000000E+00 0.  1.
         13    1    3    3    0    0 -0.16781228235E+02  0.18694394619E+02 -0.97511070174E+02  0.10069507842E+03  0.00000000000E+00 0. -1.
<mgrwt>
<rscale>  0 0.89548222E+02</rscale>
<asrwt>0</asrwt>
<pdfrwt beam="2">  1        3 0.16683337E-01 0.89548222E+02</pdfrwt>
<pdfrwt beam="1">  1       -3 0.28440963E-02 0.89548222E+02</pdfrwt>
<totfact> 0.34418020E+04</totfact>
</mgrwt>
</event>
<event>
 5    1  0.6113696E+000  0.1000706E+03  0.7546771E-02  0.1280148E+00
          2   -1    0    0  501    0  0.00000000000E+00  0.00000000000E+00  0.15984979471E+03  0.15984979471E+03  0.00000000000E+00 0. -1.
         -2   -1    0    0    0  501 -0.00000000000E+00 -0.00000000000E+00 -0.15661771705E+02  0.15661771705E+02  0.00000000000E+00 0.  1.
         23    2    1    2    0    0  0.00000000000E+00  0.00000000000E+00  0.14418802301E+03  0.17551156642E+03  0.10007059492E+03 0.  0.
        -13    1    3    3    0    0  0.18061321117E+02  0.29473933040E+02  0.86480664727E+01  0.35633033874E+02  0.00000000000E+00 0.  1.
         13    1    3    3    0    0 -0.18061321117E+02 -0.29473933040E+02  0.13553995653E+03  0.13987853254E+03  0.00000000000E+00 0. -1.
<mgrwt>
<rscale>  0 0.10007059E+03</rscale>
<asrwt>0</asrwt>
<pdfrwt beam="1">  1        2 0.24592275E-01 0.10007059E+03</pdfrwt>
<pdfrwt beam="2">  1       -2 0.24095035E-02 0.10007059E+03</pdfrwt>
<totfact> 0.11085994E+05</totfact>
</mgrwt>
</event>
<event>
 5    1  0.6113696E+000  0.9350073E+02  0.7546771E-02  0.1294589E+00
         -2   -1    0    0    0  501 -0.00000000000E+00  0.00000000000E+00  0.13785761035E+03  0.13785761035E+03  0.00000000000E+00 0.  1.
          2   -1    0    0  501    0  0.00000000000E+00 -0.00000000000E+00 -0.15854014470E+02  0.15854014470E+02  0.00000000000E+00 0. -1.
         23    2    1    2    0    0  0.00000000000E+00  0.00000000000E+00  0.12200359588E+03  0.15371162482E+03  0.93500728326E+02 0.  0.
        -13    1    3    3    0    0 -0.99408277683E+01  0.19391107475E+02  0.12899828035E+03  0.13082580571E+03  0.00000000000E+00 0.  1.
         13    1    3    3    0    0  0.99408277683E+01 -0.19391107475E+02 -0.69946844666E+01  0.22885819116E+02  0.00000000000E+00 0. -1.
<mgrwt>
<rscale>  0 0.93500728E+02</rscale>
<asrwt>0</asrwt>
<pdfrwt beam="2">  1        2 0.24390792E-02 0.93500728E+02</pdfrwt>
<pdfrwt beam="1">  1       -2 0.21208862E-01 0.93500728E+02</pdfrwt>
<totfact> 0.67551847E+04</totfact>
</mgrwt>
</event>
<event>
 5    1  0.6113696E+000  0.9135498E+02  0.7546771E-02  0.1299603E+00
          1   -1    0    0  501    0  0.00000000000E+00  0.00000000000E+00  0.22349774680E+03  0.22349774680E+03  0.00000000000E+00 0. -1.
         -1   -1    0    0    0  501 -0.00000000000E+00 -0.00000000000E+00 -0.93353653305E+01  0.93353653305E+01  0.00000000000E+00 0.  1.
         23    2    1    2    0    0  0.00000000000E+00  0.00000000000E+00  0.21416238147E+03  0.23283311213E+03  0.91354980529E+02 0.  0.
        -13    1    3    3    0    0  0.27820817526E+02 -0.34545169717E+02  0.13489159282E+03  0.14199686071E+03  0.00000000000E+00 0. -1.
         13    1    3    3    0    0 -0.27820817526E+02  0.34545169717E+02  0.79270788647E+02  0.90836251416E+02  0.00000000000E+00 0.  1.
<mgrwt>
<rscale>  0 0.91354981E+02</rscale>
<asrwt>0</asrwt>
<pdfrwt beam="1">  1        1 0.34384265E-01 0.91354981E+02</pdfrwt>
<pdfrwt beam="2">  1       -1 0.14362102E-02 0.91354981E+02</pdfrwt>
<totfact> 0.12036428E+05</totfact>
</mgrwt>
</event>
<event>
 5    1  0.6113696E+000  0.8925446E+02  0.7546771E-02  0.1304667E+00
         -1   -1    0    0    0  501 -0.00000000000E+00  0.00000000000E+00  0.77515007019E+02  0.77515007019E+02  0.00000000000E+00 0.  1.
          1   -1    0    0  501    0  0.00000000000E+00 -0.00000000000E+00 -0.25692957052E+02  0.25692957052E+02  0.00000000000E+00 0. -1.
         23    2    1    2    0    0  0.00000000000E+00  0.00000000000E+00  0.51822049967E+02  0.10320796407E+03  0.89254461988E+02 0.  0.
        -13    1    3    3    0    0  0.22083367940E+02  0.38512826134E+02  0.31169081515E+02  0.54244120040E+02  0.00000000000E+00 0. -1.
         13    1    3    3    0    0 -0.22083367940E+02 -0.38512826134E+02  0.20652968452E+02  0.48963844031E+02  0.00000000000E+00 0.  1.
<mgrwt>
<rscale>  0 0.89254462E+02</rscale>
<asrwt>0</asrwt>
<pdfrwt beam="2">  1        1 0.39527627E-02 0.89254462E+02</pdfrwt>
<pdfrwt beam="1">  1       -1 0.11925386E-01 0.89254462E+02</pdfrwt>
<totfact> 0.89861918E+04</totfact>
</mgrwt>
</event>
<event>
 5    1  0.6113696E+000  0.9059888E+02  0.7546771E-02  0.1301408E+00
          2   -1    0    0  501    0  0.00000000000E+00  0.00000000000E+00  0.18757012006E+02  0.18757012006E+02  0.00000000000E+00 0.  1.
         -2   -1    0    0    0  501 -0.00000000000E+00 -0.00000000000E+00 -0.10940118161E+03  0.10940118161E+03  0.00000000000E+00 0. -1.
         23    2    1    2    0    0  0.00000000000E+00  0.00000000000E+00 -0.90644169608E+02  0.12815819362E+03  0.90598880281E+02 0.  0.
        -13    1    3    3    0    0  0.18585975392E+02 -0.32395742626E+02 -0.90606666691E+01  0.38431995811E+02  0.00000000000E+00 0.  1.
         13    1    3    3    0    0 -0.18585975392E+02  0.32395742626E+02 -0.81583502938E+02  0.89726197809E+02  0.00000000000E+00 0. -1.
<mgrwt>
<rscale>  0 0.90598880E+02</rscale>
<asrwt>0</asrwt>
<pdfrwt beam="1">  1        2 0.28856942E-02 0.90598880E+02</pdfrwt>
<pdfrwt beam="2">  1       -2 0.16830951E-01 0.90598880E+02</pdfrwt>
<totfact> 0.78899732E+04</totfact>
</mgrwt>
</event>
<event>
 5    1  0.6113696E+000  0.9213308E+02  0.7546771E-02  0.1297767E+00
          2   -1    0    0  501    0  0.00000000000E+00  0.00000000000E+00  0.15240662937E+03  0.15240662937E+03  0.00000000000E+00 0. -1.
         -2   -1    0    0    0  501 -0.00000000000E+00 -0.00000000000E+00 -0.13924105373E+02  0.13924105373E+02  0.00000000000E+00 0.  1.
         23    2    1    2    0    0  0.00000000000E+00  0.00000000000E+00  0.13848252400E+03  0.16633073475E+03  0.92133076947E+02 0.  0.
        -13    1    3    3    0    0  0.26943580244E+02  0.36144353860E+02  0.52137699391E+02  0.68925398295E+02  0.00000000000E+00 0.  1.
         13    1    3    3    0    0 -0.26943580244E+02 -0.36144353860E+02  0.86344824610E+02  0.97405336452E+02  0.00000000000E+00 0. -1.
<mgrwt>
<rscale>  0 0.92133077E+02</rscale>
<asrwt>0</asrwt>
<pdfrwt beam="1">  1        2 0.23447173E-01 0.92133077E+02</pdfrwt>
<pdfrwt beam="2">  1       -2 0.21421702E-02 0.92133077E+02</pdfrwt>
<totfact> 0.13664135E+05</totfact>
</mgrwt>
</event>
<event>
 5    1  0.6113696E+000  0.9997117E+02  0.7546771E-02  0.1280357E+00
          2   -1    0    0  501    0  0.00000000000E+00  0.00000000000E+00  0.23110192468E+02  0.23110192468E+02  0.00000000000E+00 0. -1.
         -2   -1    0    0    0  501 -0.00000000000E+00 -0.00000000000E+00 -0.10811501467E+03  0.10811501467E+03  0.00000000000E+00 0.  1.
         23    2    1    2    0    0  0.00000000000E+00  0.00000000000E+00 -0.85004822199E+02  0.13122520713E+03  0.99971171797E+02 0.  0.
        -13    1    3    3    0    0 -0.38492285841E+02  0.24967779736E+02 -0.68541264871E+02  0.82480004148E+02  0.00000000000E+00 0.  1.
         13    1    3    3    0    0  0.38492285841E+02 -0.24967779736E+02 -0.16463557328E+02  0.48745202986E+02  0.00000000000E+00 0. -1.
<mgrwt>
<rscale>  0 0.99971172E+02</rscale>
<asrwt>0</asrwt>
<pdfrwt beam="1">  1        2 0.35554143E-02 0.99971172E+02</pdfrwt>
<pdfrwt beam="2">  1       -2 0.16633079E-01 0.99971172E+02</pdfrwt>
<totfact> 0.61929095E+04</totfact>
</mgrwt>
</event>
<event>
 5    1  0.6113696E+000  0.8439251E+02  0.7546771E-02  0.1317029E+00
          1   -1    0    0  501    0  0.00000000000E+00  0.00000000000E+00  0.13855488778E+02  0.13855488778E+02  0.00000000000E+00 0. -1.
         -1   -1    0    0    0  501 -0.00000000000E+00 -0.00000000000E+00 -0.12850676857E+03  0.12850676857E+03  0.00000000000E+00 0.  1.
         23    2    1    2    0    0  0.00000000000E+00  0.00000000000E+00 -0.11465127979E+03  0.14236225735E+03  0.84392513646E+02 0.  0.
        -13    1    3    3    0    0  0.34946218175E+02 -0.10783524295E+02 -0.92830970071E+02  0.99775305388E+02  0.00000000000E+00 0.  1.
         13    1    3    3    0    0 -0.34946218175E+02  0.10783524295E+02 -0.21820309720E+02  0.42586951960E+02  0.00000000000E+00 0. -1.
<mgrwt>
<rscale>  0 0.84392514E+02</rscale>
<asrwt>0</asrwt>
<pdfrwt beam="1">  1        1 0.21316137E-02 0.84392514E+02</pdfrwt>
<pdfrwt beam="2">  1       -1 0.19770272E-01 0.84392514E+02</pdfrwt>
<totfact> 0.94523693E+04</totfact>
</mgrwt>
</event>
<event>
 5    1  0.6113696E+000  0.8246477E+02  0.7546771E-02  0.1322199E+00
          2   -1    0    0  501    0  0.00000000000E+00  0.00000000000E+00  0.93751426993E+01  0.93751426993E+01  0.00000000000E+00 0. -1.
         -2   -1    0    0    0  501 -0.00000000000E+00 -0.00000000000E+00 -0.18134226779E+03  0.18134226779E+03  0.00000000000E+00 0.  1.
         23    2    1    2    0    0  0.00000000000E+00  0.00000000000E+00 -0.17196712509E+03  0.19071741049E+03  0.82464771581E+02 0.  0.
        -13    1    3    3    0    0 -0.29569148184E+02 -0.28000232478E+02 -0.71037974111E+02  0.81882484750E+02  0.00000000000E+00 0. -1.
         13    1    3    3    0    0  0.29569148184E+02  0.28000232478E+02 -0.10092915098E+03  0.10883492574E+03  0.00000000000E+00 0.  1.
<mgrwt>
<rscale>  0 0.82464772E+02</rscale>
<asrwt>0</asrwt>
<pdfrwt beam="1">  1        2 0.14423297E-02 0.82464772E+02</pdfrwt>
<pdfrwt beam="2">  1       -2 0.27898809E-01 0.82464772E+02</pdfrwt>
<totfact> 0.83821651E+04</totfact>
</mgrwt>
</event>
<event>
 5    1  0.6113696E+000  0.9086132E+02  0.7546771E-02  0.1300779E+00
         -2   -1    0    0    0  501 -0.00000000000E+00  0.00000000000E+00  0.11265063533E+02  0.11265063533E+02  0.00000000000E+00 0.  1.
          2   -1    0    0  501    0  0.00000000000E+00 -0.00000000000E+00 -0.18321643463E+03  0.18321643463E+03  0.00000000000E+00 0. -1.
         23    2    1    2    0    0  0.00000000000E+00  0.00000000000E+00 -0.17195137110E+03  0.19448149817E+03  0.90861317982E+02 0.  0.
        -13    1    3    3    0    0 -0.39718251026E+02 -0.10807590430E+02 -0.44826048895E+02  0.60858180510E+02  0.00000000000E+00 0.  1.
         13    1    3    3    0    0  0.39718251026E+02  0.10807590430E+02 -0.12712532220E+03  0.13362331765E+03  0.00000000000E+00 0. -1.
<mgrwt>
<rscale>  0 0.90861318E+02</rscale>
<asrwt>0</asrwt>
<pdfrwt beam="2">  1        2 0.28187142E-01 0.90861318E+02</pdfrwt>
<pdfrwt beam="1">  1       -2 0.17330868E-02 0.90861318E+02</pdfrwt>
<totfact> 0.15129608E+05</totfact>
</mgrwt>
</event>
<event>
 5    1  0.6113696E+000  0.8969844E+02  0.7546771E-02  0.1303584E+00
          1   -1    0    0  501    0  0.00000000000E+00  0.00000000000E+00  0.15036545115E+03  0.15036545115E+03  0.00000000000E+00 0. -1.
         -1   -1    0    0    0  501 -0.00000000000E+00 -0.00000000000E+00 -0.13377092367E+02  0.13377092367E+02  0.00000000000E+00 0.  1.
         23    2    1    2    0    0  0.00000000000E+00  0.00000000000E+00  0.13698835878E+03  0.16374254352E+03  0.89698439872E+02 0.  0.
        -13    1    3    3    0    0 -0.14248994990E+02  0.29770200626E+02  0.12392844890E+03  0.12824803761E+03  0.00000000000E+00 0. -1.
         13    1    3    3    0    0  0.14248994990E+02 -0.29770200626E+02  0.13059909883E+02  0.35494505909E+02  0.00000000000E+00 0.  1.
<mgrwt>
<rscale>  0 0.89698440E+02</rscale>
<asrwt>0</asrwt>
<pdfrwt beam="1">  1        1 0.23133145E-01 0.89698440E+02</pdfrwt>
<pdfrwt beam="2">  1       -1 0.20580143E-02 0.89698440E+02</pdfrwt>
<totfact> 0.11723232E+05</totfact>
</mgrwt>
</event>
<event>
 5    1  0.6113696E+000  0.9257699E+02  0.7546771E-02  0.1296728E+00
         -1   -1    0    0    0  501 -0.00000000000E+00  0.00000000000E+00  0.56629575426E+02  0.56629575426E+02  0.00000000000E+00 0.  1.
          1   -1    0    0  501    0  0.00000000000E+00 -0.00000000000E+00 -0.37835788853E+02  0.37835788853E+02  0.00000000000E+00 0. -1.
         23    2    1    2    0    0  0.00000000000E+00  0.00000000000E+00  0.18793786573E+02  0.94465364279E+02  0.92576987608E+02 0.  0.
        -13    1    3    3    0    0 -0.18263149900E+02 -0.39965010510E+02  0.24249903812E+02  0.50187673230E+02  0.00000000000E+00 0.  1.
         13    1    3    3    0    0  0.18263149900E+02  0.39965010510E+02 -0.54561172382E+01  0.44277691049E+02  0.00000000000E+00 0. -1.
<mgrwt>
<rscale>  0 0.92576988E+02</rscale>
<asrwt>0</asrwt>
<pdfrwt beam="2">  1        1 0.58208905E-02 0.92576988E+02</pdfrwt>
<pdfrwt beam="1">  1       -1 0.87122424E-02 0.92576988E+02</pdfrwt>
<totfact> 0.86090530E+04</totfact>
</mgrwt>
</event>
<event>
 5    1  0.6113696E+000  0.9106629E+02  0.7546771E-02  0.1300290E+00
          3   -1    0    0  501    0  0.00000000000E+00  0.00000000000E+00  0.11106266091E+03  0.11106266091E+03  0.00000000000E+00 0. -1.
         -3   -1    0    0    0  501 -0.00000000000E+00 -0.00000000000E+00 -0.18667546964E+02  0.18667546964E+02  0.00000000000E+00 0.  1.
         23    2    1    2    0    0  0.00000000000E+00  0.00000000000E+00  0.92395113946E+02  0.12973020787E+03  0.91066293183E+02 0.  0.
        -13    1    3    3    0    0 -0.88667200352E+01 -0.26018028344E+02 -0.55147040101E+01  0.28035129452E+02  0.00000000000E+00 0.  1.
         13    1    3    3    0    0  0.88667200352E+01  0.26018028344E+02  0.97909817956E+02  0.10169507842E+03  0.00000000000E+00 0. -1.
<mgrwt>
<rscale>  0 0.91066293E+02</rscale>
<asrwt>0</asrwt>
<pdfrwt beam="1">  1        3 0.17086563E-01 0.91066293E+02</pdfrwt>
<pdfrwt beam="2">  1       -3 0.28719304E-02 0.91066293E+02</pdfrwt>
<totfact> 0.32701224E+04</totfact>
</mgrwt>
</event>
<event>
 5    1  0.6113696E+000  0.9215277E+02  0.7546771E-02  0.1297721E+00
         -1   -1    0    0    0  501 -0.00000000000E+00  0.00000000000E+00  0.19018337441E+02  0.19018337441E+02  0.00000000000E+00 0.  1.
          1   -1    0    0  501    0  0.00000000000E+00 -0.00000000000E+00 -0.11163086438E+03  0.11163086438E+03  0.00000000000E+00 0. -1.
         23    2    1    2    0    0  0.00000000000E+00  0.00000000000E+00 -0.92612526943E+02  0.13064920183E+03  0.92152774189E+02 0.  0.
        -13    1    3    3    0    0  0.21010644907E+02  0.40720249806E+02 -0.39441166809E+02  0.60458180446E+02  0.00000000000E+00 0. -1.
         13    1    3    3    0    0 -0.21010644907E+02 -0.40720249806E+02 -0.53171360134E+02  0.70191021379E+02  0.00000000000E+00 0.  1.
<mgrwt>
<rscale>  0 0.92152774E+02</rscale>
<asrwt>0</asrwt>
<pdfrwt beam="2">  1        1 0.17173979E-01 0.92152774E+02</pdfrwt>
<pdfrwt beam="1">  1       -1 0.29258981E-02 0.92152774E+02</pdfrwt>
<totfact> 0.10336702E+05</totfact>
</mgrwt>
</event>
<event>
 5    1  0.6113696E+000  0.9370256E+02  0.7546771E-02  0.1294125E+00
         -2   -1    0    0    0  501 -0.00000000000E+00  0.00000000000E+00  0.57211386859E+01  0.57211386859E+01  0.00000000000E+00 0.  1.
          2   -1    0    0  501    0  0.00000000000E+00 -0.00000000000E+00 -0.38367227874E+03  0.38367227874E+03  0.00000000000E+00 0. -1.
         23    2    1    2    0    0  0.00000000000E+00  0.00000000000E+00 -0.37795114006E+03  0.38939341743E+03  0.93702557417E+02 0.  0.
        -13    1    3    3    0    0  0.82245735769E+01 -0.45966743306E+02 -0.20477638530E+03  0.21003321898E+03  0.00000000000E+00 0. -1.
         13    1    3    3    0    0 -0.82245735769E+01  0.45966743306E+02 -0.17317475476E+03  0.17936019845E+03  0.00000000000E+00 0.  1.
<mgrwt>
<rscale>  0 0.93702557E+02</rscale>
<asrwt>0</asrwt>
<pdfrwt beam="2">  1        2 0.59026503E-01 0.93702557E+02</pdfrwt>
<pdfrwt beam="1">  1       -2 0.88017520E-03 0.93702557E+02</pdfrwt>
<totfact> 0.18286054E+05</totfact>
</mgrwt>
</event>
<event>
 5    1  0.6113696E+000  0.1026980E+03  0.7546771E-02  0.1274723E+00
         -1   -1    0    0    0  501 -0.00000000000E+00  0.00000000000E+00  0.29144153857E+02  0.29144153857E+02  0.00000000000E+00 0.  1.
          1   -1    0    0  501    0  0.00000000000E+00 -0.00000000000E+00 -0.90471723815E+02  0.90471723815E+02  0.00000000000E+00 0. -1.
         23    2    1    2    0    0  0.00000000000E+00  0.00000000000E+00 -0.61327569959E+02  0.11961587767E+03  0.10269803968E+03 0.  0.
        -13    1    3    3    0    0 -0.13723542211E+02  0.14116478118E+02  0.24573477695E+02  0.31487558992E+02  0.00000000000E+00 0.  1.
         13    1    3    3    0    0  0.13723542211E+02 -0.14116478118E+02 -0.85901047654E+02  0.88128318680E+02  0.00000000000E+00 0. -1.
<mgrwt>
<rscale>  0 0.10269804E+03</rscale>
<asrwt>0</asrwt>
<pdfrwt beam="2">  1        1 0.13918727E-01 0.10269804E+03</pdfrwt>
<pdfrwt beam="1">  1       -1 0.44837160E-02 0.10269804E+03</pdfrwt>
<totfact> 0.74003111E+04</totfact>
</mgrwt>
</event>
<event>
 5    1  0.6113696E+000  0.9112275E+02  0.7546771E-02  0.1300155E+00
         -2   -1    0    0    0  501 -0.00000000000E+00  0.00000000000E+00  0.15169556103E+02  0.15169556103E+02  0.00000000000E+00 0.  1.
          2   -1    0    0  501    0  0.00000000000E+00 -0.00000000000E+00 -0.13684244117E+03  0.13684244117E+03  0.00000000000E+00 0. -1.
         23    2    1    2    0    0  0.00000000000E+00  0.00000000000E+00 -0.12167288507E+03  0.15201199727E+03  0.91122754319E+02 0.  0.
        -13    1    3    3    0    0 -0.25728443493E+02 -0.30590162406E+02 -0.24359096910E+02  0.46808935502E+02  0.00000000000E+00 0. -1.
         13    1    3    3    0    0  0.25728443493E+02  0.30590162406E+02 -0.97313788158E+02  0.10520306177E+03  0.00000000000E+00 0.  1.
<mgrwt>
<rscale>  0 0.91122754E+02</rscale>
<asrwt>0</asrwt>
<pdfrwt beam="2">  1        2 0.21052683E-01 0.91122754E+02</pdfrwt>
<pdfrwt beam="1">  1       -2 0.23337779E-02 0.91122754E+02</pdfrwt>
<totfact> 0.13577750E+05</totfact>
</mgrwt>
</event>
<event>
 5    1  0.6113696E+000  0.9147181E+02  0.7546771E-02  0.1299326E+00
          4   -1    0    0  501    0  0.00000000000E+00  0.00000000000E+00  0.20232847416E+03  0.20232847416E+03  0.00000000000E+00 0. -1.
         -4   -1    0    0    0  501 -0.00000000000E+00 -0.00000000000E+00 -0.10338499453E+02  0.10338499453E+02  0.00000000000E+00 0.  1.
         23    2    1    2    0    0  0.00000000000E+00  0.00000000000E+00  0.19198997470E+03  0.21266697361E+03  0.91471805916E+02 0.  0.
        -13    1    3    3    0    0  0.26569706604E+01  0.43412627136E+02  0.12887937932E+03  0.13602062381E+03  0.00000000000E+00 0. -1.
         13    1    3    3    0    0 -0.26569706604E+01 -0.43412627136E+02  0.63110595387E+02  0.76646349802E+02  0.00000000000E+00 0.  1.
<mgrwt>
<rscale>  0 0.91471806E+02</rscale>
<asrwt>0</asrwt>
<pdfrwt beam="1">  1        4 0.31127455E-01 0.91471806E+02</pdfrwt>
<pdfrwt beam="2">  1       -4 0.15905385E-02 0.91471806E+02</pdfrwt>
<totfact> 0.20688651E+04</totfact>
</mgrwt>
</event>
<event>
 5    1  0.6113696E+000  0.7830721E+02  0.7546771E-02  0.1333925E+00
          3   -1    0    0  501    0  0.00000000000E+00  0.00000000000E+00  0.14403157391E+03  0.14403157391E+03  0.00000000000E+00 0. -1.
         -3   -1    0    0    0  501 -0.00000000000E+00 -0.00000000000E+00 -0.10643531673E+02  0.10643531673E+02  0.00000000000E+00 0.  1.
         23    2    1    2    0    0  0.00000000000E+00  0.00000000000E+00  0.13338804223E+03  0.15467510558E+03  0.78307205769E+02 0.  0.
        -13    1    3    3    0    0 -0.29240203627E+02  0.14532403614E+02  0.24016867403E+02  0.40533815300E+02  0.00000000000E+00 0.  1.
         13    1    3    3    0    0  0.29240203627E+02 -0.14532403614E+02  0.10937117483E+03  0.11414129028E+03  0.00000000000E+00 0. -1.
<mgrwt>
<rscale>  0 0.78307206E+02</rscale>
<asrwt>0</asrwt>
<pdfrwt beam="1">  1        3 0.22158702E-01 0.78307206E+02</pdfrwt>
<pdfrwt beam="2">  1       -3 0.16374665E-02 0.78307206E+02</pdfrwt>
<totfact> 0.46644087E+04</totfact>
</mgrwt>
</event>
<event>
 5    1  0.6113696E+000  0.9266298E+02  0.7546771E-02  0.1296528E+00
          1   -1    0    0  501    0  0.00000000000E+00  0.00000000000E+00  0.74174696026E+02  0.74174696026E+02  0.00000000000E+00 0. -1.
         -1   -1    0    0    0  501 -0.00000000000E+00 -0.00000000000E+00 -0.28939884131E+02  0.28939884131E+02  0.00000000000E+00 0.  1.
         23    2    1    2    0    0  0.00000000000E+00  0.00000000000E+00  0.45234811895E+02  0.10311458016E+03  0.92662983082E+02 0.  0.
        -13    1    3    3    0    0 -0.32539476426E+01  0.19753405223E+02  0.69113210925E+02  0.71954298812E+02  0.00000000000E+00 0. -1.
         13    1    3    3    0    0  0.32539476426E+01 -0.19753405223E+02 -0.23878399030E+02  0.31160281344E+02  0.00000000000E+00 0.  1.
<mgrwt>
<rscale>  0 0.92662983E+02</rscale>
<asrwt>0</asrwt>
<pdfrwt beam="1">  1        1 0.11411492E-01 0.92662983E+02</pdfrwt>
<pdfrwt beam="2">  1       -1 0.44522899E-02 0.92662983E+02</pdfrwt>
<totfact> 0.95215355E+04</totfact>
</mgrwt>
</event>
<event>
 5    1  0.6113696E+000  0.9068851E+02  0.7546771E-02  0.1301193E+00
          2   -1    0    0  501    0  0.00000000000E+00  0.00000000000E+00  0.80432164576E+02  0.80432164576E+02  0.00000000000E+00 0.  1.
         -2   -1    0    0    0  501 -0.00000000000E+00 -0.00000000000E+00 -0.25563172667E+02  0.25563172667E+02  0.00000000000E+00 0. -1.
         23    2    1    2    0    0  0.00000000000E+00  0.00000000000E+00  0.54868991909E+02  0.10599533724E+03  0.90688506682E+02 0.  0.
        -13    1    3    3    0    0  0.17542307863E+02 -0.69237733755E+01  0.75630818632E+02  0.77946724947E+02  0.00000000000E+00 0.  1.
         13    1    3    3    0    0 -0.17542307863E+02  0.69237733755E+01 -0.20761826723E+02  0.28048612297E+02  0.00000000000E+00 0. -1.
<mgrwt>
<rscale>  0 0.90688507E+02</rscale>
<asrwt>0</asrwt>
<pdfrwt beam="1">  1        2 0.12374179E-01 0.90688507E+02</pdfrwt>
<pdfrwt beam="2">  1       -2 0.39327958E-02 0.90688507E+02</pdfrwt>
<totfact> 0.11676087E+05</totfact>
</mgrwt>
</event>
<event>
 5    1  0.6113696E+000  0.9361212E+02  0.7546771E-02  0.1294333E+00
          2   -1    0    0  501    0  0.00000000000E+00  0.00000000000E+00  0.26624550571E+03  0.26624550571E+03  0.00000000000E+00 0. -1.
         -2   -1    0    0    0  501 -0.00000000000E+00 -0.00000000000E+00 -0.82285231315E+01  0.82285231315E+01  0.00000000000E+00 0.  1.
         23    2    1    2    0    0  0.00000000000E+00  0.00000000000E+00  0.25801698258E+03  0.27447402884E+03  0.93612121062E+02 0.  0.
        -13    1    3    3    0    0  0.52134547856E+01 -0.39940644351E+02  0.59107142634E+02  0.71526844558E+02  0.00000000000E+00 0.  1.
         13    1    3    3    0    0 -0.52134547856E+01  0.39940644351E+02  0.19890983995E+03  0.20294718429E+03  0.00000000000E+00 0. -1.
<mgrwt>
<rscale>  0 0.93612121E+02</rscale>
<asrwt>0</asrwt>
<pdfrwt beam="1">  1        2 0.40960841E-01 0.93612121E+02</pdfrwt>
<pdfrwt beam="2">  1       -2 0.12659268E-02 0.93612121E+02</pdfrwt>
<totfact> 0.16011544E+05</totfact>
</mgrwt>
</event>
<event>
 5    1  0.6113696E+000  0.8921863E+02  0.7546771E-02  0.1304755E+00
          2   -1    0    0  501    0  0.00000000000E+00  0.00000000000E+00  0.66978474525E+02  0.66978474525E+02  0.00000000000E+00 0. -1.
         -2   -1    0    0    0  501 -0.00000000000E+00 -0.00000000000E+00 -0.29710900294E+02  0.29710900294E+02  0.00000000000E+00 0.  1.
         23    2    1    2    0    0  0.00000000000E+00  0.00000000000E+00  0.37267574230E+02  0.96689374819E+02  0.89218625376E+02 0.  0.
        -13    1    3    3    0    0  0.43187332889E+02 -0.10952820028E+02  0.16239543832E+02  0.47421859649E+02  0.00000000000E+00 0. -1.
         13    1    3    3    0    0 -0.43187332889E+02  0.10952820028E+02  0.21028030398E+02  0.49267515171E+02  0.00000000000E+00 0.  1.
<mgrwt>
<rscale>  0 0.89218625E+02</rscale>
<asrwt>0</asrwt>
<pdfrwt beam="1">  1        2 0.10304381E-01 0.89218625E+02</pdfrwt>
<pdfrwt beam="2">  1       -2 0.45709077E-02 0.89218625E+02</pdfrwt>
<totfact> 0.11612284E+05</totfact>
</mgrwt>
</event>
<event>
 5    1  0.6113696E+000  0.9164374E+02  0.7546771E-02  0.1298919E+00
         -1   -1    0    0    0  501 -0.00000000000E+00  0.00000000000E+00  0.80485358668E+01  0.80485358668E+01  0.00000000000E+00 0.  1.
          1   -1    0    0  501    0  0.00000000000E+00 -0.00000000000E+00 -0.26087273748E+03  0.26087273748E+03  0.00000000000E+00 0. -1.
         23    2    1    2    0    0  0.00000000000E+00  0.00000000000E+00 -0.25282420161E+03  0.26892127334E+03  0.91643735940E+02 0.  0.
        -13    1    3    3    0    0 -0.33481475095E+02  0.30750935464E+02 -0.14327273600E+03  0.15031202908E+03  0.00000000000E+00 0.  1.
         13    1    3    3    0    0  0.33481475095E+02 -0.30750935464E+02 -0.10955146561E+03  0.11860924426E+03  0.00000000000E+00 0. -1.
<mgrwt>
<rscale>  0 0.91643736E+02</rscale>
<asrwt>0</asrwt>
<pdfrwt beam="2">  1        1 0.40134261E-01 0.91643736E+02</pdfrwt>
<pdfrwt beam="1">  1       -1 0.12382365E-02 0.91643736E+02</pdfrwt>
<totfact> 0.12301098E+05</totfact>
</mgrwt>
</event>
<event>
 5    1  0.6113696E+000  0.8776930E+02  0.7546771E-02  0.1308345E+00
         -2   -1    0    0    0  501 -0.00000000000E+00  0.00000000000E+00  0.12529386613E+02  0.12529386613E+02  0.00000000000E+00 0.  1.
          2   -1    0    0  501    0  0.00000000000E+00 -0.00000000000E+00 -0.15370765967E+03  0.15370765967E+03  0.00000000000E+00 0. -1.
         23    2    1    2    0    0  0.00000000000E+00  0.00000000000E+00 -0.14117827306E+03  0.16623704629E+03  0.87769304278E+02 0.  0.
        -13    1    3    3    0    0 -0.62084558328E+01 -0.43426403627E+02 -0.72881794027E+02  0.85065582678E+02  0.00000000000E+00 0.  1.
         13    1    3    3    0    0  0.62084558328E+01  0.43426403627E+02 -0.68296479034E+02  0.81171463607E+02  0.00000000000E+00 0. -1.
<mgrwt>
<rscale>  0 0.87769304E+02</rscale>
<asrwt>0</asrwt>
<pdfrwt beam="2">  1        2 0.23647334E-01 0.87769304E+02</pdfrwt>
<pdfrwt beam="1">  1       -2 0.19275978E-02 0.87769304E+02</pdfrwt>
<totfact> 0.15626973E+05</totfact>
</mgrwt>
</event>
<event>
 5    1  0.6113696E+000  0.9595781E+02  0.7546771E-02  0.1289033E+00
          2   -1    0    0  501    0  0.00000000000E+00  0.00000000000E+00  0.12588474152E+02  0.12588474152E+02  0.00000000000E+00 0. -1.
         -2   -1    0    0    0  501 -0.00000000000E+00 -0.00000000000E+00 -0.18286372992E+03  0.18286372992E+03  0.00000000000E+00 0.  1.
         23    2    1    2    0    0  0.00000000000E+00  0.00000000000E+00 -0.17027525577E+03  0.19545220408E+03  0.95957810261E+02 0.  0.
        -13    1    3    3    0    0  0.42074468748E+02 -0.17920011959E+02 -0.11469573571E+03  0.12347671659E+03  0.00000000000E+00 0.  1.
         13    1    3    3    0    0 -0.42074468748E+02  0.17920011959E+02 -0.55579520063E+02  0.71975487490E+02  0.00000000000E+00 0. -1.
<mgrwt>
<rscale>  0 0.95957810E+02</rscale>
<asrwt>0</asrwt>
<pdfrwt beam="1">  1        2 0.19366883E-02 0.95957810E+02</pdfrwt>
<pdfrwt beam="2">  1       -2 0.28132882E-01 0.95957810E+02</pdfrwt>
<totfact> 0.56806395E+04</totfact>
</mgrwt>
</event>
<event>
 5    1  0.6113696E+000  0.9112221E+02  0.7546771E-02  0.1300157E+00
         -1   -1    0    0    0  501 -0.00000000000E+00  0.00000000000E+00  0.95329105919E+01  0.95329105919E+01  0.00000000000E+00 0.  1.
          1   -1    0    0  501    0  0.00000000000E+00 -0.00000000000E+00 -0.21775242697E+03  0.21775242697E+03  0.00000000000E+00 0. -1.
         23    2    1    2    0    0  0.00000000000E+00  0.00000000000E+00 -0.20821951638E+03  0.22728533756E+03  0.91122212823E+02 0.  0.
        -13    1    3    3    0    0 -0.23164658074E+02 -0.26977006440E+02 -0.17516222443E+03  0.17873490181E+03  0.00000000000E+00 0. -1.
         13    1    3    3    0    0  0.23164658074E+02  0.26977006440E+02 -0.33057291949E+02  0.48550435746E+02  0.00000000000E+00 0.  1.
<mgrwt>
<rscale>  0 0.91122213E+02</rscale>
<asrwt>0</asrwt>
<pdfrwt beam="2">  1        1 0.33500372E-01 0.91122213E+02</pdfrwt>
<pdfrwt beam="1">  1       -1 0.14666017E-02 0.91122213E+02</pdfrwt>
<totfact> 0.12057531E+05</totfact>
</mgrwt>
</event>
<event>
 5    1  0.6113696E+000  0.9348672E+02  0.7546771E-02  0.1294621E+00
          3   -1    0    0  501    0  0.00000000000E+00  0.00000000000E+00  0.22349378333E+02  0.22349378333E+02  0.00000000000E+00 0. -1.
         -3   -1    0    0    0  501 -0.00000000000E+00 -0.00000000000E+00 -0.97762968899E+02  0.97762968899E+02  0.00000000000E+00 0.  1.
         23    2    1    2    0    0  0.00000000000E+00  0.00000000000E+00 -0.75413590566E+02  0.12011234723E+03  0.93486717321E+02 0.  0.
        -13    1    3    3    0    0 -0.34947384472E+02 -0.27106914773E+02 -0.57142528626E+02  0.72259069242E+02  0.00000000000E+00 0.  1.
         13    1    3    3    0    0  0.34947384472E+02  0.27106914773E+02 -0.18271061940E+02  0.47853277990E+02  0.00000000000E+00 0. -1.
<mgrwt>
<rscale>  0 0.93486717E+02</rscale>
<asrwt>0</asrwt>
<pdfrwt beam="1">  1        3 0.34383660E-02 0.93486717E+02</pdfrwt>
<pdfrwt beam="2">  1       -3 0.15040456E-01 0.93486717E+02</pdfrwt>
<totfact> 0.31050378E+04</totfact>
</mgrwt>
</event>
<event>
 5    1  0.6113696E+000  0.9240704E+02  0.7546771E-02  0.1297125E+00
          2   -1    0    0  501    0  0.00000000000E+00  0.00000000000E+00  0.68019242987E+02  0.68019242987E+02  0.00000000000E+00 0. -1.
         -2   -1    0    0    0  501 -0.00000000000E+00 -0.00000000000E+00 -0.31384723149E+02  0.31384723149E+02  0.00000000000E+00 0.  1.
         23    2    1    2    0    0  0.00000000000E+00  0.00000000000E+00  0.36634519838E+02  0.99403966136E+02  0.92407036744E+02 0.  0.
        -13    1    3    3    0    0  0.24685159890E+02 -0.29425477504E+01 -0.23577102506E+02  0.34262157968E+02  0.00000000000E+00 0.  1.
         13    1    3    3    0    0 -0.24685159890E+02  0.29425477504E+01  0.60211622344E+02  0.65141808168E+02  0.00000000000E+00 0. -1.
<mgrwt>
<rscale>  0 0.92407037E+02</rscale>
<asrwt>0</asrwt>
<pdfrwt beam="1">  1        2 0.10464499E-01 0.92407037E+02</pdfrwt>
<pdfrwt beam="2">  1       -2 0.48284190E-02 0.92407037E+02</pdfrwt>
<totfact> 0.10569333E+05</totfact>
</mgrwt>
</event>
<event>
 5    1  0.6113696E+000  0.9555497E+02  0.7546771E-02  0.1289931E+00
          1   -1    0    0  501    0  0.00000000000E+00  0.00000000000E+00  0.82343409033E+02  0.82343409033E+02  0.00000000000E+00 0. -1.
         -1   -1    0    0    0  501 -0.00000000000E+00 -0.00000000000E+00 -0.27721561719E+02  0.27721561719E+02  0.00000000000E+00 0.  1.
         23    2    1    2    0    0  0.00000000000E+00  0.00000000000E+00  0.54621847314E+02  0.11006497075E+03  0.95554966289E+02 0.  0.
        -13    1    3    3    0    0  0.14167258080E+02  0.45360817590E+02  0.32997484044E+02  0.57854549753E+02  0.00000000000E+00 0. -1.
         13    1    3    3    0    0 -0.14167258080E+02 -0.45360817590E+02  0.21624363271E+02  0.52210420998E+02  0.00000000000E+00 0.  1.
<mgrwt>
<rscale>  0 0.95554966E+02</rscale>
<asrwt>0</asrwt>
<pdfrwt beam="1">  1        1 0.12668217E-01 0.95554966E+02</pdfrwt>
<pdfrwt beam="2">  1       -1 0.42648557E-02 0.95554966E+02</pdfrwt>
<totfact> 0.88945110E+04</totfact>
</mgrwt>
</event>
<event>
 5    1  0.6113696E+000  0.9013803E+02  0.7546771E-02  0.1302518E+00
          1   -1    0    0  501    0  0.00000000000E+00  0.00000000000E+00  0.13968765400E+02  0.13968765400E+02  0.00000000000E+00 0. -1.
         -1   -1    0    0    0  501 -0.00000000000E+00 -0.00000000000E+00 -0.14541128683E+03  0.14541128683E+03  0.00000000000E+00 0.  1.
         23    2    1    2    0    0  0.00000000000E+00  0.00000000000E+00 -0.13144252143E+03  0.15938005223E+03  0.90138030867E+02 0.  0.
        -13    1    3    3    0    0 -0.30019553053E+02 -0.20454473314E+02 -0.18551758382E+02  0.40788807082E+02  0.00000000000E+00 0.  1.
         13    1    3    3    0    0  0.30019553053E+02  0.20454473314E+02 -0.11289076304E+03  0.11859124514E+03  0.00000000000E+00 0. -1.
<mgrwt>
<rscale>  0 0.90138031E+02</rscale>
<asrwt>0</asrwt>
<pdfrwt beam="1">  1        1 0.21490408E-02 0.90138031E+02</pdfrwt>
<pdfrwt beam="2">  1       -1 0.22370967E-01 0.90138031E+02</pdfrwt>
<totfact> 0.77599806E+04</totfact>
</mgrwt>
</event>
<event>
 5    1  0.6113696E+000  0.9389986E+02  0.7546771E-02  0.1293673E+00
         -1   -1    0    0    0  501 -0.00000000000E+00  0.00000000000E+00  0.59171470677E+02  0.59171470677E+02  0.00000000000E+00 0. -1.
          1   -1    0    0  501    0  0.00000000000E+00 -0.00000000000E+00 -0.37252684186E+02  0.37252684186E+02  0.00000000000E+00 0.  1.
         23    2    1    2    0    0  0.00000000000E+00  0.00000000000E+00  0.21918786491E+02  0.96424154863E+02  0.93899863897E+02 0.  0.
        -13    1    3    3    0    0  0.10834216515E+02  0.31403628741E+01  0.57759276572E+02  0.58850455874E+02  0.00000000000E+00 0. -1.
         13    1    3    3    0    0 -0.10834216515E+02 -0.31403628741E+01 -0.35840490081E+02  0.37573698989E+02  0.00000000000E+00 0.  1.
<mgrwt>
<rscale>  0 0.93899864E+02</rscale>
<asrwt>0</asrwt>
<pdfrwt beam="2">  1        1 0.57311822E-02 0.93899864E+02</pdfrwt>
<pdfrwt beam="1">  1       -1 0.91033032E-02 0.93899864E+02</pdfrwt>
<totfact> 0.82480002E+04</totfact>
</mgrwt>
</event>
<event>
 5    1  0.6113696E+000  0.1076458E+03  0.7546771E-02  0.1264993E+00
          2   -1    0    0  501    0  0.00000000000E+00  0.00000000000E+00  0.11677190305E+03  0.11677190305E+03  0.00000000000E+00 0. -1.
         -2   -1    0    0    0  501 -0.00000000000E+00 -0.00000000000E+00 -0.24808244687E+02  0.24808244687E+02  0.00000000000E+00 0.  1.
         23    2    1    2    0    0  0.00000000000E+00  0.00000000000E+00  0.91963658366E+02  0.14158014774E+03  0.10764582562E+03 0.  0.
        -13    1    3    3    0    0 -0.36437462425E+02  0.34759442951E+02  0.20992315328E+02  0.54558086889E+02  0.00000000000E+00 0.  1.
         13    1    3    3    0    0  0.36437462425E+02 -0.34759442951E+02  0.70971343038E+02  0.87022060851E+02  0.00000000000E+00 0. -1.
<mgrwt>
<rscale>  0 0.10764583E+03</rscale>
<asrwt>0</asrwt>
<pdfrwt beam="1">  1        2 0.17964908E-01 0.10764583E+03</pdfrwt>
<pdfrwt beam="2">  1       -2 0.38166531E-02 0.10764583E+03</pdfrwt>
<totfact> 0.81262712E+04</totfact>
</mgrwt>
</event>
<event>
 5    1  0.6113696E+000  0.9153065E+02  0.7546771E-02  0.1299187E+00
          1   -1    0    0  501    0  0.00000000000E+00  0.00000000000E+00  0.12845199010E+03  0.12845199010E+03  0.00000000000E+00 0. -1.
         -1   -1    0    0    0  501 -0.00000000000E+00 -0.00000000000E+00 -0.16305431187E+02  0.16305431187E+02  0.00000000000E+00 0.  1.
         23    2    1    2    0    0  0.00000000000E+00  0.00000000000E+00  0.11214655892E+03  0.14475742129E+03  0.91530652471E+02 0.  0.
        -13    1    3    3    0    0  0.35515910117E+02 -0.28760518278E+02  0.59920565797E+02  0.75359282696E+02  0.00000000000E+00 0.  1.
         13    1    3    3    0    0 -0.35515910117E+02  0.28760518278E+02  0.52225993119E+02  0.69398138594E+02  0.00000000000E+00 0. -1.
<mgrwt>
<rscale>  0 0.91530652E+02</rscale>
<asrwt>0</asrwt>
<pdfrwt beam="1">  1        1 0.19761844E-01 0.91530652E+02</pdfrwt>
<pdfrwt beam="2">  1       -1 0.25085280E-02 0.91530652E+02</pdfrwt>
<totfact> 0.10789625E+05</totfact>
</mgrwt>
</event>
<event>
 5    1  0.6113696E+000  0.8949085E+02  0.7546771E-02  0.1304089E+00
          1   -1    0    0  501    0  0.00000000000E+00  0.00000000000E+00  0.20194938078E+03  0.20194938078E+03  0.00000000000E+00 0. -1.
         -1   -1    0    0    0  501 -0.00000000000E+00 -0.00000000000E+00 -0.99141331967E+01  0.99141331967E+01  0.00000000000E+00 0.  1.
         23    2    1    2    0    0  0.00000000000E+00  0.00000000000E+00  0.19203524759E+03  0.21186351398E+03  0.89490850037E+02 0.  0.
        -13    1    3    3    0    0  0.19773323315E+02 -0.24371167442E+02  0.20511199603E+02  0.37491964826E+02  0.00000000000E+00 0.  1.
         13    1    3    3    0    0 -0.19773323315E+02  0.24371167442E+02  0.17152404798E+03  0.17437154915E+03  0.00000000000E+00 0. -1.
<mgrwt>
<rscale>  0 0.89490850E+02</rscale>
<asrwt>0</asrwt>
<pdfrwt beam="1">  1        1 0.31069132E-01 0.89490850E+02</pdfrwt>
<pdfrwt beam="2">  1       -1 0.15252514E-02 0.89490850E+02</pdfrwt>
<totfact> 0.12470679E+05</totfact>
</mgrwt>
</event>
<event>
 5    1  0.6113696E+000  0.9117945E+02  0.7546771E-02  0.1300020E+00
         -1   -1    0    0    0  501 -0.00000000000E+00  0.00000000000E+00  0.10094861066E+02  0.10094861066E+02  0.00000000000E+00 0.  1.
          1   -1    0    0  501    0  0.00000000000E+00 -0.00000000000E+00 -0.20588923762E+03  0.20588923762E+03  0.00000000000E+00 0. -1.
         23    2    1    2    0    0  0.00000000000E+00  0.00000000000E+00 -0.19579437655E+03  0.21598409868E+03  0.91179454894E+02 0.  0.
        -13    1    3    3    0    0 -0.25282986888E+02 -0.28719075188E+02 -0.15661277565E+03  0.16121903176E+03  0.00000000000E+00 0. -1.
         13    1    3    3    0    0  0.25282986888E+02  0.28719075188E+02 -0.39181600903E+02  0.54765066922E+02  0.00000000000E+00 0.  1.
<mgrwt>
<rscale>  0 0.91179455E+02</rscale>
<asrwt>0</asrwt>
<pdfrwt beam="2">  1        1 0.31675267E-01 0.91179455E+02</pdfrwt>
<pdfrwt beam="1">  1       -1 0.15530556E-02 0.91179455E+02</pdfrwt>
<totfact> 0.11906605E+05</totfact>
</mgrwt>
</event>
<event>
 5    1  0.6113696E+000  0.8928562E+02  0.7546771E-02  0.1304591E+00
          2   -1    0    0  501    0  0.00000000000E+00  0.00000000000E+00  0.12324298578E+03  0.12324298578E+03  0.00000000000E+00 0. -1.
         -2   -1    0    0    0  501 -0.00000000000E+00 -0.00000000000E+00 -0.16171148806E+02  0.16171148806E+02  0.00000000000E+00 0.  1.
         23    2    1    2    0    0  0.00000000000E+00  0.00000000000E+00  0.10707183697E+03  0.13941413458E+03  0.89285623980E+02 0.  0.
        -13    1    3    3    0    0 -0.13420316504E+01 -0.23112628820E+02  0.11313683784E+03  0.11548133501E+03  0.00000000000E+00 0. -1.
         13    1    3    3    0    0  0.13420316504E+01  0.23112628820E+02 -0.60650008666E+01  0.23932799573E+02  0.00000000000E+00 0.  1.
<mgrwt>
<rscale>  0 0.89285624E+02</rscale>
<asrwt>0</asrwt>
<pdfrwt beam="1">  1        2 0.18960459E-01 0.89285624E+02</pdfrwt>
<pdfrwt beam="2">  1       -2 0.24878691E-02 0.89285624E+02</pdfrwt>
<totfact> 0.13868378E+05</totfact>
</mgrwt>
</event>
<event>
 5    1  0.6113696E+000  0.9129713E+02  0.7546771E-02  0.1299741E+00
         -2   -1    0    0    0  501 -0.00000000000E+00  0.00000000000E+00  0.79869358729E+01  0.79869358729E+01  0.00000000000E+00 0. -1.
          2   -1    0    0  501    0  0.00000000000E+00 -0.00000000000E+00 -0.26089998288E+03  0.26089998288E+03  0.00000000000E+00 0.  1.
         23    2    1    2    0    0  0.00000000000E+00  0.00000000000E+00 -0.25291304701E+03  0.26888691876E+03  0.91297128816E+02 0.  0.
        -13    1    3    3    0    0  0.44330945229E+02  0.24679042258E+01 -0.15769050736E+03  0.16382191357E+03  0.00000000000E+00 0. -1.
         13    1    3    3    0    0 -0.44330945229E+02 -0.24679042258E+01 -0.95222539655E+02  0.10506500518E+03  0.00000000000E+00 0.  1.
<mgrwt>
<rscale>  0 0.91297129E+02</rscale>
<asrwt>0</asrwt>
<pdfrwt beam="2">  1        2 0.40138461E-01 0.91297129E+02</pdfrwt>
<pdfrwt beam="1">  1       -2 0.12287593E-02 0.91297129E+02</pdfrwt>
<totfact> 0.16994045E+05</totfact>
</mgrwt>
</event>
<event>
 5    1  0.6113696E+000  0.9138688E+02  0.7546771E-02  0.1299528E+00
          2   -1    0    0  501    0  0.00000000000E+00  0.00000000000E+00  0.82136972820E+02  0.82136972820E+02  0.00000000000E+00 0. -1.
         -2   -1    0    0    0  501 -0.00000000000E+00 -0.00000000000E+00 -0.25419615671E+02  0.25419615671E+02  0.00000000000E+00 0.  1.
         23    2    1    2    0    0  0.00000000000E+00  0.00000000000E+00  0.56717357149E+02  0.10755658849E+03  0.91386876114E+02 0.  0.
        -13    1    3    3    0    0 -0.27416366307E+02  0.36513631216E+02  0.26324287575E+02  0.52705507515E+02  0.00000000000E+00 0. -1.
         13    1    3    3    0    0  0.27416366307E+02 -0.36513631216E+02  0.30393069574E+02  0.54851080976E+02  0.00000000000E+00 0.  1.
<mgrwt>
<rscale>  0 0.91386876E+02</rscale>
<asrwt>0</asrwt>
<pdfrwt beam="1">  1        2 0.12636457E-01 0.91386876E+02</pdfrwt>
<pdfrwt beam="2">  1       -2 0.39107101E-02 0.91386876E+02</pdfrwt>
<totfact> 0.11499040E+05</totfact>
</mgrwt>
</event>
<event>
 5    1  0.6113696E+000  0.9026543E+02  0.7546771E-02  0.1302210E+00
         -1   -1    0    0    0  501 -0.00000000000E+00  0.00000000000E+00  0.48269232759E+02  0.48269232759E+02  0.00000000000E+00 0.  1.
          1   -1    0    0  501    0  0.00000000000E+00 -0.00000000000E+00 -0.42200005655E+02  0.42200005655E+02  0.00000000000E+00 0. -1.
         23    2    1    2    0    0  0.00000000000E+00  0.00000000000E+00  0.60692271036E+01  0.90469238413E+02  0.90265428496E+02 0.  0.
        -13    1    3    3    0    0  0.21273405215E+01 -0.37722619080E+02  0.27777199102E+02  0.46894502427E+02  0.00000000000E+00 0.  1.
         13    1    3    3    0    0 -0.21273405215E+01  0.37722619080E+02 -0.21707971999E+02  0.43574735986E+02  0.00000000000E+00 0. -1.
<mgrwt>
<rscale>  0 0.90265428E+02</rscale>
<asrwt>0</asrwt>
<pdfrwt beam="2">  1        1 0.64923086E-02 0.90265428E+02</pdfrwt>
<pdfrwt beam="1">  1       -1 0.74260358E-02 0.90265428E+02</pdfrwt>
<totfact> 0.94022070E+04</totfact>
</mgrwt>
</event>
<event>
 5    1  0.6113696E+000  0.9052108E+02  0.7546771E-02  0.1301595E+00
          2   -1    0    0  501    0  0.00000000000E+00  0.00000000000E+00  0.24879755885E+03  0.24879755885E+03  0.00000000000E+00 0. -1.
         -2   -1    0    0    0  501 -0.00000000000E+00 -0.00000000000E+00 -0.82336674538E+01  0.82336674538E+01  0.00000000000E+00 0.  1.
         23    2    1    2    0    0  0.00000000000E+00  0.00000000000E+00  0.24056389139E+03  0.25703122630E+03  0.90521077388E+02 0.  0.
        -13    1    3    3    0    0  0.32297719682E+02 -0.28726446181E+02  0.82169103741E+02  0.92844563742E+02  0.00000000000E+00 0. -1.
         13    1    3    3    0    0 -0.32297719682E+02  0.28726446181E+02  0.15839478765E+03  0.16418666256E+03  0.00000000000E+00 0.  1.
<mgrwt>
<rscale>  0 0.90521077E+02</rscale>
<asrwt>0</asrwt>
<pdfrwt beam="1">  1        2 0.38276542E-01 0.90521077E+02</pdfrwt>
<pdfrwt beam="2">  1       -2 0.12667183E-02 0.90521077E+02</pdfrwt>
<totfact> 0.17082941E+05</totfact>
</mgrwt>
</event>
<event>
 5    1  0.6113696E+000  0.9132695E+02  0.7546771E-02  0.1299670E+00
          3   -1    0    0  501    0  0.00000000000E+00  0.00000000000E+00  0.11824731367E+03  0.11824731367E+03  0.00000000000E+00 0. -1.
         -3   -1    0    0    0  501 -0.00000000000E+00 -0.00000000000E+00 -0.17633827544E+02  0.17633827544E+02  0.00000000000E+00 0.  1.
         23    2    1    2    0    0  0.00000000000E+00  0.00000000000E+00  0.10061348612E+03  0.13588114121E+03  0.91326945351E+02 0.  0.
        -13    1    3    3    0    0 -0.28039699265E+02 -0.98293741492E+01 -0.12836381945E+01  0.29740360758E+02  0.00000000000E+00 0.  1.
         13    1    3    3    0    0  0.28039699265E+02  0.98293741492E+01  0.10189712432E+03  0.10614078045E+03  0.00000000000E+00 0. -1.
<mgrwt>
<rscale>  0 0.91326945E+02</rscale>
<asrwt>0</asrwt>
<pdfrwt beam="1">  1        3 0.18191894E-01 0.91326945E+02</pdfrwt>
<pdfrwt beam="2">  1       -3 0.27128966E-02 0.91326945E+02</pdfrwt>
<totfact> 0.32049726E+04</totfact>
</mgrwt>
</event>
<event>
 5    1  0.6113696E+000  0.9126343E+02  0.7546771E-02  0.1299821E+00
         -1   -1    0    0    0  501 -0.00000000000E+00  0.00000000000E+00  0.54377832102E+02  0.54377832102E+02  0.00000000000E+00 0.  1.
          1   -1    0    0  501    0  0.00000000000E+00 -0.00000000000E+00 -0.38292321284E+02  0.38292321284E+02  0.00000000000E+00 0. -1.
         23    2    1    2    0    0  0.00000000000E+00  0.00000000000E+00  0.16085510817E+02  0.92670153386E+02  0.91263430082E+02 0.  0.
        -13    1    3    3    0    0  0.15599669181E+02 -0.16989259977E+02  0.48023105763E+02  0.53274790663E+02  0.00000000000E+00 0.  1.
         13    1    3    3    0    0 -0.15599669181E+02  0.16989259977E+02 -0.31937594945E+02  0.39395362722E+02  0.00000000000E+00 0. -1.
<mgrwt>
<rscale>  0 0.91263430E+02</rscale>
<asrwt>0</asrwt>
<pdfrwt beam="2">  1        1 0.58911263E-02 0.91263430E+02</pdfrwt>
<pdfrwt beam="1">  1       -1 0.83658204E-02 0.91263430E+02</pdfrwt>
<totfact> 0.89820759E+04</totfact>
</mgrwt>
</event>
<event>
 5    1  0.6113696E+000  0.9125647E+02  0.7546771E-02  0.1299837E+00
         -4   -1    0    0    0  501 -0.00000000000E+00  0.00000000000E+00  0.21020042984E+02  0.21020042984E+02  0.00000000000E+00 0. -1.
          4   -1    0    0  501    0  0.00000000000E+00 -0.00000000000E+00 -0.99045262928E+02  0.99045262928E+02  0.00000000000E+00 0.  1.
         23    2    1    2    0    0  0.00000000000E+00  0.00000000000E+00 -0.78025219944E+02  0.12006530591E+03  0.91256466819E+02 0.  0.
        -13    1    3    3    0    0 -0.22943086759E+02 -0.31793930908E+02 -0.83060519042E+01  0.40077796482E+02  0.00000000000E+00 0. -1.
         13    1    3    3    0    0  0.22943086759E+02  0.31793930908E+02 -0.69719168040E+02  0.79987509430E+02  0.00000000000E+00 0.  1.
<mgrwt>
<rscale>  0 0.91256467E+02</rscale>
<asrwt>0</asrwt>
<pdfrwt beam="2">  1        4 0.15237733E-01 0.91256467E+02</pdfrwt>
<pdfrwt beam="1">  1       -4 0.32338528E-02 0.91256467E+02</pdfrwt>
<totfact> 0.25209357E+04</totfact>
</mgrwt>
</event>
<event>
 5    1  0.6113696E+000  0.9087353E+02  0.7546771E-02  0.1300750E+00
         -2   -1    0    0    0  501 -0.00000000000E+00  0.00000000000E+00  0.37280779441E+02  0.37280779441E+02  0.00000000000E+00 0.  1.
          2   -1    0    0  501    0  0.00000000000E+00 -0.00000000000E+00 -0.55377056059E+02  0.55377056059E+02  0.00000000000E+00 0. -1.
         23    2    1    2    0    0  0.00000000000E+00  0.00000000000E+00 -0.18096276618E+02  0.92657835500E+02  0.90873534388E+02 0.  0.
        -13    1    3    3    0    0 -0.28163584617E+02 -0.35251322098E+02 -0.35898421135E+01  0.45262900642E+02  0.00000000000E+00 0.  1.
         13    1    3    3    0    0  0.28163584617E+02  0.35251322098E+02 -0.14506434504E+02  0.47394934858E+02  0.00000000000E+00 0. -1.
<mgrwt>
<rscale>  0 0.90873534E+02</rscale>
<asrwt>0</asrwt>
<pdfrwt beam="2">  1        2 0.85195470E-02 0.90873534E+02</pdfrwt>
<pdfrwt beam="1">  1       -2 0.57355046E-02 0.90873534E+02</pdfrwt>
<totfact> 0.10481266E+05</totfact>
</mgrwt>
</event>
<event>
 5    1  0.6113696E+000  0.9326587E+02  0.7546771E-02  0.1295130E+00
          1   -1    0    0  501    0  0.00000000000E+00  0.00000000000E+00  0.18235374824E+02  0.18235374824E+02  0.00000000000E+00 0. -1.
         -1   -1    0    0    0  501 -0.00000000000E+00 -0.00000000000E+00 -0.11925340778E+03  0.11925340778E+03  0.00000000000E+00 0.  1.
         23    2    1    2    0    0  0.00000000000E+00  0.00000000000E+00 -0.10101803296E+03  0.13748878261E+03  0.93265869213E+02 0.  0.
        -13    1    3    3    0    0  0.20932711806E+02 -0.38971394016E+02 -0.28759159912E+02  0.52763976859E+02  0.00000000000E+00 0. -1.
         13    1    3    3    0    0 -0.20932711806E+02  0.38971394016E+02 -0.72258873048E+02  0.84724805749E+02  0.00000000000E+00 0.  1.
<mgrwt>
<rscale>  0 0.93265869E+02</rscale>
<asrwt>0</asrwt>
<pdfrwt beam="1">  1        1 0.28054423E-02 0.93265869E+02</pdfrwt>
<pdfrwt beam="2">  1       -1 0.18346678E-01 0.93265869E+02</pdfrwt>
<totfact> 0.74152805E+04</totfact>
</mgrwt>
</event>
<event>
 5    1  0.6113696E+000  0.1161902E+03  0.7546771E-02  0.1249518E+00
         -2   -1    0    0    0  501 -0.00000000000E+00  0.00000000000E+00  0.10116224562E+02  0.10116224562E+02  0.00000000000E+00 0.  1.
          2   -1    0    0  501    0  0.00000000000E+00 -0.00000000000E+00 -0.33362664911E+03  0.33362664911E+03  0.00000000000E+00 0. -1.
         23    2    1    2    0    0  0.00000000000E+00  0.00000000000E+00 -0.32351042455E+03  0.34374287368E+03  0.11619022510E+03 0.  0.
        -13    1    3    3    0    0  0.32210548745E+02 -0.38046562122E+02 -0.73497093975E+02  0.88808125543E+02  0.00000000000E+00 0.  1.
         13    1    3    3    0    0 -0.32210548745E+02  0.38046562122E+02 -0.25001333058E+03  0.25493474813E+03  0.00000000000E+00 0. -1.
<mgrwt>
<rscale>  0 0.11619023E+03</rscale>
<asrwt>0</asrwt>
<pdfrwt beam="2">  1        2 0.51327176E-01 0.11619023E+03</pdfrwt>
<pdfrwt beam="1">  1       -2 0.15563423E-02 0.11619023E+03</pdfrwt>
<totfact> 0.97122051E+04</totfact>
</mgrwt>
</event>
<event>
 5    1  0.6113696E+000  0.9098499E+02  0.7546771E-02  0.1300484E+00
          3   -1    0    0  501    0  0.00000000000E+00  0.00000000000E+00  0.59230911097E+02  0.59230911097E+02  0.00000000000E+00 0. -1.
         -3   -1    0    0    0  501 -0.00000000000E+00 -0.00000000000E+00 -0.34940658295E+02  0.34940658295E+02  0.00000000000E+00 0.  1.
         23    2    1    2    0    0  0.00000000000E+00  0.00000000000E+00  0.24290252801E+02  0.94171569392E+02  0.90984988325E+02 0.  0.
        -13    1    3    3    0    0  0.42786611369E+02  0.14556222671E+02  0.67680546871E+01  0.45698843477E+02  0.00000000000E+00 0.  1.
         13    1    3    3    0    0 -0.42786611369E+02 -0.14556222671E+02  0.17522198114E+02  0.48472725915E+02  0.00000000000E+00 0. -1.
<mgrwt>
<rscale>  0 0.90984988E+02</rscale>
<asrwt>0</asrwt>
<pdfrwt beam="1">  1        3 0.91124478E-02 0.90984988E+02</pdfrwt>
<pdfrwt beam="2">  1       -3 0.53754859E-02 0.90984988E+02</pdfrwt>
<totfact> 0.35311667E+04</totfact>
</mgrwt>
</event>
<event>
 5    1  0.6113696E+000  0.9054365E+02  0.7546771E-02  0.1301540E+00
         -1   -1    0    0    0  501 -0.00000000000E+00  0.00000000000E+00  0.13818982857E+03  0.13818982857E+03  0.00000000000E+00 0.  1.
          1   -1    0    0  501    0  0.00000000000E+00 -0.00000000000E+00 -0.14831325200E+02  0.14831325200E+02  0.00000000000E+00 0. -1.
         23    2    1    2    0    0  0.00000000000E+00  0.00000000000E+00  0.12335850337E+03  0.15302115377E+03  0.90543653270E+02 0.  0.
        -13    1    3    3    0    0 -0.49912480606E+01 -0.41681405079E+02  0.90324384572E+02  0.99602944409E+02  0.00000000000E+00 0. -1.
         13    1    3    3    0    0  0.49912480606E+01  0.41681405079E+02  0.33034118795E+02  0.53418209359E+02  0.00000000000E+00 0.  1.
<mgrwt>
<rscale>  0 0.90543653E+02</rscale>
<asrwt>0</asrwt>
<pdfrwt beam="2">  1        1 0.22817424E-02 0.90543653E+02</pdfrwt>
<pdfrwt beam="1">  1       -1 0.21259973E-01 0.90543653E+02</pdfrwt>
<totfact> 0.77589207E+04</totfact>
</mgrwt>
</event>
<event>
 5    1  0.6113696E+000  0.9336603E+02  0.7546771E-02  0.1294899E+00
          1   -1    0    0  501    0  0.00000000000E+00  0.00000000000E+00  0.10370999911E+03  0.10370999911E+03  0.00000000000E+00 0. -1.
         -1   -1    0    0    0  501 -0.00000000000E+00 -0.00000000000E+00 -0.21013441237E+02  0.21013441237E+02  0.00000000000E+00 0.  1.
         23    2    1    2    0    0  0.00000000000E+00  0.00000000000E+00  0.82696557874E+02  0.12472344035E+03  0.93366031769E+02 0.  0.
        -13    1    3    3    0    0  0.33683251828E+02  0.26757307298E+02  0.65570716037E+02  0.78422150883E+02  0.00000000000E+00 0. -1.
         13    1    3    3    0    0 -0.33683251828E+02 -0.26757307298E+02  0.17125841837E+02  0.46301289465E+02  0.00000000000E+00 0.  1.
<mgrwt>
<rscale>  0 0.93366032E+02</rscale>
<asrwt>0</asrwt>
<pdfrwt beam="1">  1        1 0.15955384E-01 0.93366032E+02</pdfrwt>
<pdfrwt beam="2">  1       -1 0.32328372E-02 0.93366032E+02</pdfrwt>
<totfact> 0.98498289E+04</totfact>
</mgrwt>
</event>
<event>
 5    1  0.6113696E+000  0.8867265E+02  0.7546771E-02  0.1306098E+00
         -1   -1    0    0    0  501 -0.00000000000E+00  0.00000000000E+00  0.63160242299E+02  0.63160242299E+02  0.00000000000E+00 0.  1.
          1   -1    0    0  501    0  0.00000000000E+00 -0.00000000000E+00 -0.31122581768E+02  0.31122581768E+02  0.00000000000E+00 0. -1.
         23    2    1    2    0    0  0.00000000000E+00  0.00000000000E+00  0.32037660531E+02  0.94282824067E+02  0.88672652051E+02 0.  0.
        -13    1    3    3    0    0 -0.41113646612E+02 -0.53586203623E+01  0.32718002281E+02  0.52815853900E+02  0.00000000000E+00 0. -1.
         13    1    3    3    0    0  0.41113646612E+02  0.53586203623E+01 -0.68034174982E+00  0.41466970167E+02  0.00000000000E+00 0.  1.
<mgrwt>
<rscale>  0 0.88672652E+02</rscale>
<asrwt>0</asrwt>
<pdfrwt beam="2">  1        1 0.47880895E-02 0.88672652E+02</pdfrwt>
<pdfrwt beam="1">  1       -1 0.97169603E-02 0.88672652E+02</pdfrwt>
<totfact> 0.94412287E+04</totfact>
</mgrwt>
</event>
<event>
 5    1  0.6113696E+000  0.8942508E+02  0.7546771E-02  0.1304250E+00
         -1   -1    0    0    0  501 -0.00000000000E+00  0.00000000000E+00  0.16573319522E+02  0.16573319522E+02  0.00000000000E+00 0.  1.
          1   -1    0    0  501    0  0.00000000000E+00 -0.00000000000E+00 -0.12062828533E+03  0.12062828533E+03  0.00000000000E+00 0. -1.
         23    2    1    2    0    0  0.00000000000E+00  0.00000000000E+00 -0.10405496581E+03  0.13720160486E+03  0.89425077383E+02 0.  0.
        -13    1    3    3    0    0 -0.12704967656E+02  0.41278606058E+02 -0.34275613856E+02  0.55137620791E+02  0.00000000000E+00 0.  1.
         13    1    3    3    0    0  0.12704967656E+02 -0.41278606058E+02 -0.69779351955E+02  0.82063984065E+02  0.00000000000E+00 0. -1.
<mgrwt>
<rscale>  0 0.89425077E+02</rscale>
<asrwt>0</asrwt>
<pdfrwt beam="2">  1        1 0.18558198E-01 0.89425077E+02</pdfrwt>
<pdfrwt beam="1">  1       -1 0.25497415E-02 0.89425077E+02</pdfrwt>
<totfact> 0.11364988E+05</totfact>
</mgrwt>
</event>
<event>
 5    1  0.6113696E+000  0.9154139E+02  0.7546771E-02  0.1299161E+00
         -1   -1    0    0    0  501 -0.00000000000E+00  0.00000000000E+00  0.74274311281E+01  0.74274311281E+01  0.00000000000E+00 0.  1.
          1   -1    0    0  501    0  0.00000000000E+00 -0.00000000000E+00 -0.28205665775E+03  0.28205665775E+03  0.00000000000E+00 0. -1.
         23    2    1    2    0    0  0.00000000000E+00  0.00000000000E+00 -0.27462922662E+03  0.28948408888E+03  0.91541387354E+02 0.  0.
        -13    1    3    3    0    0  0.27577981586E+02  0.29322632080E+02 -0.68422644720E+02  0.79385263940E+02  0.00000000000E+00 0.  1.
         13    1    3    3    0    0 -0.27577981586E+02 -0.29322632080E+02 -0.20620658190E+03  0.21009882494E+03  0.00000000000E+00 0. -1.
<mgrwt>
<rscale>  0 0.91541387E+02</rscale>
<asrwt>0</asrwt>
<pdfrwt beam="2">  1        1 0.43393329E-01 0.91541387E+02</pdfrwt>
<pdfrwt beam="1">  1       -1 0.11426818E-02 0.91541387E+02</pdfrwt>
<totfact> 0.12527109E+05</totfact>
</mgrwt>
</event>
<event>
 5    1  0.6113696E+000  0.9084419E+02  0.7546771E-02  0.1300820E+00
         -2   -1    0    0    0  501 -0.00000000000E+00  0.00000000000E+00  0.29266022026E+02  0.29266022026E+02  0.00000000000E+00 0.  1.
          2   -1    0    0  501    0  0.00000000000E+00 -0.00000000000E+00 -0.70497000411E+02  0.70497000411E+02  0.00000000000E+00 0. -1.
         23    2    1    2    0    0  0.00000000000E+00  0.00000000000E+00 -0.41230978385E+02  0.99763022437E+02  0.90844191158E+02 0.  0.
        -13    1    3    3    0    0 -0.19625358513E+02 -0.92238976237E+00 -0.65589316476E+02  0.68468707710E+02  0.00000000000E+00 0. -1.
         13    1    3    3    0    0  0.19625358513E+02  0.92238976237E+00  0.24358338091E+02  0.31294314727E+02  0.00000000000E+00 0.  1.
<mgrwt>
<rscale>  0 0.90844191E+02</rscale>
<asrwt>0</asrwt>
<pdfrwt beam="2">  1        2 0.10845692E-01 0.90844191E+02</pdfrwt>
<pdfrwt beam="1">  1       -2 0.45024650E-02 0.90844191E+02</pdfrwt>
<totfact> 0.11197499E+05</totfact>
</mgrwt>
</event>
<event>
 5    1  0.6113696E+000  0.9097748E+02  0.7546771E-02  0.1300502E+00
          3   -1    0    0  501    0  0.00000000000E+00  0.00000000000E+00  0.60213604986E+01  0.60213604986E+01  0.00000000000E+00 0. -1.
         -3   -1    0    0    0  501 -0.00000000000E+00 -0.00000000000E+00 -0.34364750120E+03  0.34364750120E+03  0.00000000000E+00 0.  1.
         23    2    1    2    0    0  0.00000000000E+00  0.00000000000E+00 -0.33762614071E+03  0.34966886170E+03  0.90977480493E+02 0.  0.
        -13    1    3    3    0    0 -0.44864610962E+02 -0.22685364984E-01 -0.19767534038E+03  0.20270267395E+03  0.00000000000E+00 0.  1.
         13    1    3    3    0    0  0.44864610962E+02  0.22685364984E-01 -0.13995080033E+03  0.14696618776E+03  0.00000000000E+00 0. -1.
<mgrwt>
<rscale>  0 0.90977480E+02</rscale>
<asrwt>0</asrwt>
<pdfrwt beam="1">  1        3 0.92636260E-03 0.90977480E+02</pdfrwt>
<pdfrwt beam="2">  1       -3 0.52868878E-01 0.90977480E+02</pdfrwt>
<totfact> 0.22348114E+04</totfact>
</mgrwt>
</event>
<event>
 5    1  0.6113696E+000  0.9038835E+02  0.7546771E-02  0.1301914E+00
         -1   -1    0    0    0  501 -0.00000000000E+00  0.00000000000E+00  0.14286430848E+03  0.14286430848E+03  0.00000000000E+00 0.  1.
          1   -1    0    0  501    0  0.00000000000E+00 -0.00000000000E+00 -0.14296877517E+02  0.14296877517E+02  0.00000000000E+00 0. -1.
         23    2    1    2    0    0  0.00000000000E+00  0.00000000000E+00  0.12856743096E+03  0.15716118599E+03  0.90388351459E+02 0.  0.
        -13    1    3    3    0    0 -0.29896671112E+02 -0.33888816629E+02  0.65154269907E+02  0.79292759589E+02  0.00000000000E+00 0. -1.
         13    1    3    3    0    0  0.29896671112E+02  0.33888816629E+02  0.63413161052E+02  0.77868426405E+02  0.00000000000E+00 0.  1.
<mgrwt>
<rscale>  0 0.90388351E+02</rscale>
<asrwt>0</asrwt>
<pdfrwt beam="2">  1        1 0.21995197E-02 0.90388351E+02</pdfrwt>
<pdfrwt beam="1">  1       -1 0.21979123E-01 0.90388351E+02</pdfrwt>
<totfact> 0.77355264E+04</totfact>
</mgrwt>
</event>
<event>
 5    1  0.6113696E+000  0.8894594E+02  0.7546771E-02  0.1305425E+00
         -3   -1    0    0    0  501 -0.00000000000E+00  0.00000000000E+00  0.18319822444E+02  0.18319822444E+02  0.00000000000E+00 0. -1.
          3   -1    0    0  501    0  0.00000000000E+00 -0.00000000000E+00 -0.10796201605E+03  0.10796201605E+03  0.00000000000E+00 0.  1.
         23    2    1    2    0    0  0.00000000000E+00  0.00000000000E+00 -0.89642193609E+02  0.12628183850E+03  0.88945937844E+02 0.  0.
        -13    1    3    3    0    0 -0.26599954253E+02 -0.16809128040E+02 -0.20041182966E+00  0.31466561881E+02  0.00000000000E+00 0. -1.
         13    1    3    3    0    0  0.26599954253E+02  0.16809128040E+02 -0.89441781779E+02  0.94815276615E+02  0.00000000000E+00 0.  1.
<mgrwt>
<rscale>  0 0.88945938E+02</rscale>
<asrwt>0</asrwt>
<pdfrwt beam="2">  1        3 0.16609541E-01 0.88945938E+02</pdfrwt>
<pdfrwt beam="1">  1       -3 0.28184342E-02 0.88945938E+02</pdfrwt>
<totfact> 0.35097695E+04</totfact>
</mgrwt>
</event>
<event>
 5    1  0.6113696E+000  0.8951482E+02  0.7546771E-02  0.1304031E+00
          3   -1    0    0  501    0  0.00000000000E+00  0.00000000000E+00  0.38768471125E+03  0.38768471125E+03  0.00000000000E+00 0. -1.
         -3   -1    0    0    0  501 -0.00000000000E+00 -0.00000000000E+00 -0.51671522848E+01  0.51671522848E+01  0.00000000000E+00 0.  1.
         23    2    1    2    0    0  0.00000000000E+00  0.00000000000E+00  0.38251755896E+03  0.39285186353E+03  0.89514824281E+02 0.  0.
        -13    1    3    3    0    0  0.31040493743E+01  0.44459037643E+02  0.17317188705E+03  0.17881483052E+03  0.00000000000E+00 0.  1.
         13    1    3    3    0    0 -0.31040493743E+01 -0.44459037643E+02  0.20934567191E+03  0.21403703301E+03  0.00000000000E+00 0. -1.
<mgrwt>
<rscale>  0 0.89514824E+02</rscale>
<asrwt>0</asrwt>
<pdfrwt beam="1">  1        3 0.59643779E-01 0.89514824E+02</pdfrwt>
<pdfrwt beam="2">  1       -3 0.79494681E-03 0.89514824E+02</pdfrwt>
<totfact> 0.21880904E+04</totfact>
</mgrwt>
</event>
<event>
 5    1  0.6113696E+000  0.9079763E+02  0.7546771E-02  0.1300932E+00
          1   -1    0    0  501    0  0.00000000000E+00  0.00000000000E+00  0.22728059774E+03  0.22728059774E+03  0.00000000000E+00 0. -1.
         -1   -1    0    0    0  501 -0.00000000000E+00 -0.00000000000E+00 -0.90683165855E+01  0.90683165855E+01  0.00000000000E+00 0.  1.
         23    2    1    2    0    0  0.00000000000E+00  0.00000000000E+00  0.21821228115E+03  0.23634891432E+03  0.90797630233E+02 0.  0.
        -13    1    3    3    0    0  0.33028528791E+02 -0.22475499072E+02  0.52973533524E+02  0.66349280529E+02  0.00000000000E+00 0.  1.
         13    1    3    3    0    0 -0.33028528791E+02  0.22475499072E+02  0.16523874763E+03  0.16999963379E+03  0.00000000000E+00 0. -1.
<mgrwt>
<rscale>  0 0.90797630E+02</rscale>
<asrwt>0</asrwt>
<pdfrwt beam="1">  1        1 0.34966241E-01 0.90797630E+02</pdfrwt>
<pdfrwt beam="2">  1       -1 0.13951258E-02 0.90797630E+02</pdfrwt>
<totfact> 0.12275342E+05</totfact>
</mgrwt>
</event>
<event>
 5    1  0.6113696E+000  0.8990378E+02  0.7546771E-02  0.1303085E+00
         -2   -1    0    0    0  501 -0.00000000000E+00  0.00000000000E+00  0.12376449725E+03  0.12376449725E+03  0.00000000000E+00 0.  1.
          2   -1    0    0  501    0  0.00000000000E+00 -0.00000000000E+00 -0.16326753355E+02  0.16326753355E+02  0.00000000000E+00 0. -1.
         23    2    1    2    0    0  0.00000000000E+00  0.00000000000E+00  0.10743774389E+03  0.14009125060E+03  0.89903780136E+02 0.  0.
        -13    1    3    3    0    0 -0.24128058574E+02 -0.11415974692E+02  0.11007843243E+03  0.11326848183E+03  0.00000000000E+00 0.  1.
         13    1    3    3    0    0  0.24128058574E+02  0.11415974692E+02 -0.26406885420E+01  0.26822768774E+02  0.00000000000E+00 0. -1.
<mgrwt>
<rscale>  0 0.89903780E+02</rscale>
<asrwt>0</asrwt>
<pdfrwt beam="2">  1        2 0.25118083E-02 0.89903780E+02</pdfrwt>
<pdfrwt beam="1">  1       -2 0.19040691E-01 0.89903780E+02</pdfrwt>
<totfact> 0.77343660E+04</totfact>
</mgrwt>
</event>
<event>
 5    1  0.6113696E+000  0.8887447E+02  0.7546771E-02  0.1305600E+00
         -4   -1    0    0    0  501 -0.00000000000E+00  0.00000000000E+00  0.91411974120E+02  0.91411974120E+02  0.00000000000E+00 0.  1.
          4   -1    0    0  501    0  0.00000000000E+00 -0.00000000000E+00 -0.21601849343E+02  0.21601849343E+02  0.00000000000E+00 0. -1.
         23    2    1    2    0    0  0.00000000000E+00  0.00000000000E+00  0.69810124778E+02  0.11301382346E+03  0.88874466369E+02 0.  0.
        -13    1    3    3    0    0 -0.20166065779E+02  0.31804485040E+02  0.49081672776E+01  0.37977435191E+02  0.00000000000E+00 0. -1.
         13    1    3    3    0    0  0.20166065779E+02 -0.31804485040E+02  0.64901957500E+02  0.75036388272E+02  0.00000000000E+00 0.  1.
<mgrwt>
<rscale>  0 0.88874466E+02</rscale>
<asrwt>0</asrwt>
<pdfrwt beam="2">  1        4 0.33233615E-02 0.88874466E+02</pdfrwt>
<pdfrwt beam="1">  1       -4 0.14063380E-01 0.88874466E+02</pdfrwt>
<totfact> 0.27507097E+04</totfact>
</mgrwt>
</event>
<event>
 5    1  0.6113696E+000  0.9207261E+02  0.7546771E-02  0.1297909E+00
         -2   -1    0    0    0  501 -0.00000000000E+00  0.00000000000E+00  0.70080059844E+01  0.70080059844E+01  0.00000000000E+00 0.  1.
          2   -1    0    0  501    0  0.00000000000E+00 -0.00000000000E+00 -0.30241719953E+03  0.30241719953E+03  0.00000000000E+00 0. -1.
         23    2    1    2    0    0  0.00000000000E+00  0.00000000000E+00 -0.29540919355E+03  0.30942520552E+03  0.92072613607E+02 0.  0.
        -13    1    3    3    0    0  0.45379623275E+02 -0.73451597056E+01 -0.15599118456E+03  0.16262383355E+03  0.00000000000E+00 0.  1.
         13    1    3    3    0    0 -0.45379623275E+02  0.73451597056E+01 -0.13941800899E+03  0.14680137196E+03  0.00000000000E+00 0. -1.
<mgrwt>
<rscale>  0 0.92072614E+02</rscale>
<asrwt>0</asrwt>
<pdfrwt beam="2">  1        2 0.46525716E-01 0.92072614E+02</pdfrwt>
<pdfrwt beam="1">  1       -2 0.10781549E-02 0.92072614E+02</pdfrwt>
<totfact> 0.17555316E+05</totfact>
</mgrwt>
</event>
<event>
 5    1  0.6113696E+000  0.8932367E+02  0.7546771E-02  0.1304498E+00
          1   -1    0    0  501    0  0.00000000000E+00  0.00000000000E+00  0.14412834758E+02  0.14412834758E+02  0.00000000000E+00 0. -1.
         -1   -1    0    0    0  501 -0.00000000000E+00 -0.00000000000E+00 -0.13839605335E+03  0.13839605335E+03  0.00000000000E+00 0.  1.
         23    2    1    2    0    0  0.00000000000E+00  0.00000000000E+00 -0.12398321859E+03  0.15280888811E+03  0.89323668716E+02 0.  0.
        -13    1    3    3    0    0 -0.25607296753E+02  0.21250600770E+02 -0.11031372043E+02  0.35057279547E+02  0.00000000000E+00 0.  1.
         13    1    3    3    0    0  0.25607296753E+02 -0.21250600770E+02 -0.11295184655E+03  0.11775160856E+03  0.00000000000E+00 0. -1.
<mgrwt>
<rscale>  0 0.89323669E+02</rscale>
<asrwt>0</asrwt>
<pdfrwt beam="1">  1        1 0.22173593E-02 0.89323669E+02</pdfrwt>
<pdfrwt beam="2">  1       -1 0.21291700E-01 0.89323669E+02</pdfrwt>
<totfact> 0.80334938E+04</totfact>
</mgrwt>
</event>
<event>
 5    1  0.6113696E+000  0.9081758E+02  0.7546771E-02  0.1300884E+00
         -2   -1    0    0    0  501 -0.00000000000E+00  0.00000000000E+00  0.95423499358E+01  0.95423499358E+01  0.00000000000E+00 0. -1.
          2   -1    0    0  501    0  0.00000000000E+00 -0.00000000000E+00 -0.21608494811E+03  0.21608494811E+03  0.00000000000E+00 0.  1.
         23    2    1    2    0    0  0.00000000000E+00  0.00000000000E+00 -0.20654259818E+03  0.22562729805E+03  0.90817579592E+02 0.  0.
        -13    1    3    3    0    0  0.41436991403E+02  0.11517401847E+02 -0.13946889483E+03  0.14594946875E+03  0.00000000000E+00 0.  1.
         13    1    3    3    0    0 -0.41436991403E+02 -0.11517401847E+02 -0.67073703342E+02  0.79677829299E+02  0.00000000000E+00 0. -1.
<mgrwt>
<rscale>  0 0.90817580E+02</rscale>
<asrwt>0</asrwt>
<pdfrwt beam="2">  1        2 0.33243835E-01 0.90817580E+02</pdfrwt>
<pdfrwt beam="1">  1       -2 0.14680540E-02 0.90817580E+02</pdfrwt>
<totfact> 0.16078801E+05</totfact>
</mgrwt>
</event>
<event>
 5    1  0.6113696E+000  0.9266483E+02  0.7546771E-02  0.1296524E+00
          3   -1    0    0  501    0  0.00000000000E+00  0.00000000000E+00  0.18782342116E+02  0.18782342116E+02  0.00000000000E+00 0. -1.
         -3   -1    0    0    0  501 -0.00000000000E+00 -0.00000000000E+00 -0.11429312526E+03  0.11429312526E+03  0.00000000000E+00 0.  1.
         23    2    1    2    0    0  0.00000000000E+00  0.00000000000E+00 -0.95510783143E+02  0.13307546737E+03  0.92664827849E+02 0.  0.
        -13    1    3    3    0    0 -0.21144084278E+02  0.14725830801E+02 -0.10305473814E+03  0.10622712199E+03  0.00000000000E+00 0.  1.
         13    1    3    3    0    0  0.21144084278E+02 -0.14725830801E+02  0.75439550013E+01  0.26848345382E+02  0.00000000000E+00 0. -1.
<mgrwt>
<rscale>  0 0.92664828E+02</rscale>
<asrwt>0</asrwt>
<pdfrwt beam="1">  1        3 0.28895911E-02 0.92664828E+02</pdfrwt>
<pdfrwt beam="2">  1       -3 0.17583558E-01 0.92664828E+02</pdfrwt>
<totfact> 0.30982156E+04</totfact>
</mgrwt>
</event>
<event>
 5    1  0.6113696E+000  0.8546893E+02  0.7546771E-02  0.1314211E+00
          1   -1    0    0  501    0  0.00000000000E+00  0.00000000000E+00  0.72498793786E+01  0.72498793786E+01  0.00000000000E+00 0. -1.
         -1   -1    0    0    0  501 -0.00000000000E+00 -0.00000000000E+00 -0.25189861439E+03  0.25189861439E+03  0.00000000000E+00 0.  1.
         23    2    1    2    0    0  0.00000000000E+00  0.00000000000E+00 -0.24464873501E+03  0.25914849377E+03  0.85468931665E+02 0.  0.
        -13    1    3    3    0    0 -0.75472846186E+01  0.38334710125E+02 -0.17481725897E+03  0.17913007994E+03  0.00000000000E+00 0.  1.
         13    1    3    3    0    0  0.75472846186E+01 -0.38334710125E+02 -0.69831476039E+02  0.80018413826E+02  0.00000000000E+00 0. -1.
<mgrwt>
<rscale>  0 0.85468932E+02</rscale>
<asrwt>0</asrwt>
<pdfrwt beam="1">  1        1 0.11153662E-02 0.85468932E+02</pdfrwt>
<pdfrwt beam="2">  1       -1 0.38753628E-01 0.85468932E+02</pdfrwt>
<totfact> 0.76444160E+04</totfact>
</mgrwt>
</event>
<event>
 5    1  0.6113696E+000  0.9321469E+02  0.7546771E-02  0.1295248E+00
         -2   -1    0    0    0  501 -0.00000000000E+00  0.00000000000E+00  0.12582121297E+02  0.12582121297E+02  0.00000000000E+00 0.  1.
          2   -1    0    0  501    0  0.00000000000E+00 -0.00000000000E+00 -0.17264532525E+03  0.17264532525E+03  0.00000000000E+00 0. -1.
         23    2    1    2    0    0  0.00000000000E+00  0.00000000000E+00 -0.16006320395E+03  0.18522744654E+03  0.93214686045E+02 0.  0.
        -13    1    3    3    0    0  0.25594191703E+02  0.36994073584E+02 -0.10425639400E+03  0.11354743423E+03  0.00000000000E+00 0. -1.
         13    1    3    3    0    0 -0.25594191703E+02 -0.36994073584E+02 -0.55806809948E+02  0.71680012317E+02  0.00000000000E+00 0.  1.
<mgrwt>
<rscale>  0 0.93214686E+02</rscale>
<asrwt>0</asrwt>
<pdfrwt beam="2">  1        2 0.26560817E-01 0.93214686E+02</pdfrwt>
<pdfrwt beam="1">  1       -2 0.19357112E-02 0.93214686E+02</pdfrwt>
<totfact> 0.13824042E+05</totfact>
</mgrwt>
</event>
<event>
 5    1  0.6113696E+000  0.9320606E+02  0.7546771E-02  0.1295268E+00
         -3   -1    0    0    0  501 -0.00000000000E+00  0.00000000000E+00  0.85943173462E+01  0.85943173462E+01  0.00000000000E+00 0.  1.
          3   -1    0    0  501    0  0.00000000000E+00 -0.00000000000E+00 -0.25270679305E+03  0.25270679305E+03  0.00000000000E+00 0. -1.
         23    2    1    2    0    0  0.00000000000E+00  0.00000000000E+00 -0.24411247570E+03  0.26130111040E+03  0.93206059352E+02 0.  0.
        -13    1    3    3    0    0  0.37526493898E+02 -0.23036185390E+02 -0.16484384691E+03  0.17062355478E+03  0.00000000000E+00 0. -1.
         13    1    3    3    0    0 -0.37526493898E+02  0.23036185390E+02 -0.79268628789E+02  0.90677555611E+02  0.00000000000E+00 0.  1.
<mgrwt>
<rscale>  0 0.93206059E+02</rscale>
<asrwt>0</asrwt>
<pdfrwt beam="2">  1        3 0.38877969E-01 0.93206059E+02</pdfrwt>
<pdfrwt beam="1">  1       -3 0.13222026E-02 0.93206059E+02</pdfrwt>
<totfact> 0.24134648E+04</totfact>
</mgrwt>
</event>
<event>
 5    1  0.6113696E+000  0.8993772E+02  0.7546771E-02  0.1303003E+00
          1   -1    0    0  501    0  0.00000000000E+00  0.00000000000E+00  0.41072056776E+02  0.41072056776E+02  0.00000000000E+00 0. -1.
         -1   -1    0    0    0  501 -0.00000000000E+00 -0.00000000000E+00 -0.49235381143E+02  0.49235381143E+02  0.00000000000E+00 0.  1.
         23    2    1    2    0    0  0.00000000000E+00  0.00000000000E+00 -0.81633243665E+01  0.90307437919E+02  0.89937720000E+02 0.  0.
        -13    1    3    3    0    0  0.41057242510E+02  0.18144722492E+02 -0.13742373659E+01  0.44908981787E+02  0.00000000000E+00 0.  1.
         13    1    3    3    0    0 -0.41057242510E+02 -0.18144722492E+02 -0.67890870006E+01  0.45398456132E+02  0.00000000000E+00 0. -1.
<mgrwt>
<rscale>  0 0.89937720E+02</rscale>
<asrwt>0</asrwt>
<pdfrwt beam="1">  1        1 0.63187780E-02 0.89937720E+02</pdfrwt>
<pdfrwt beam="2">  1       -1 0.75746740E-02 0.89937720E+02</pdfrwt>
<totfact> 0.94603758E+04</totfact>
</mgrwt>
</event>
<event>
 5    1  0.6113696E+000  0.9171872E+02  0.7546771E-02  0.1298742E+00
         -2   -1    0    0    0  501 -0.00000000000E+00  0.00000000000E+00  0.49983478698E+02  0.49983478698E+02  0.00000000000E+00 0. -1.
          2   -1    0    0  501    0  0.00000000000E+00 -0.00000000000E+00 -0.42075521610E+02  0.42075521610E+02  0.00000000000E+00 0.  1.
         23    2    1    2    0    0  0.00000000000E+00  0.00000000000E+00  0.79079570877E+01  0.92059000308E+02  0.91718720839E+02 0.  0.
        -13    1    3    3    0    0 -0.24510112442E+02  0.14624088411E+02 -0.32074477453E+02  0.42934620968E+02  0.00000000000E+00 0.  1.
         13    1    3    3    0    0  0.24510112442E+02 -0.14624088411E+02  0.39982434540E+02  0.49124379340E+02  0.00000000000E+00 0. -1.
<mgrwt>
<rscale>  0 0.91718721E+02</rscale>
<asrwt>0</asrwt>
<pdfrwt beam="2">  1        2 0.64731571E-02 0.91718721E+02</pdfrwt>
<pdfrwt beam="1">  1       -2 0.76897660E-02 0.91718721E+02</pdfrwt>
<totfact> 0.95004192E+04</totfact>
</mgrwt>
</event>
<event>
 5    1  0.6113696E+000  0.9188492E+02  0.7546771E-02  0.1298350E+00
          4   -1    0    0  501    0  0.00000000000E+00  0.00000000000E+00  0.93619948923E+02  0.93619948923E+02  0.00000000000E+00 0. -1.
         -4   -1    0    0    0  501 -0.00000000000E+00 -0.00000000000E+00 -0.22545510728E+02  0.22545510728E+02  0.00000000000E+00 0.  1.
         23    2    1    2    0    0  0.00000000000E+00  0.00000000000E+00  0.71074438195E+02  0.11616545965E+03  0.91884918518E+02 0.  0.
        -13    1    3    3    0    0 -0.36075374959E+02  0.28250362186E+02  0.39767058650E+02  0.60670706241E+02  0.00000000000E+00 0. -1.
         13    1    3    3    0    0  0.36075374959E+02 -0.28250362186E+02  0.31307379546E+02  0.55494753410E+02  0.00000000000E+00 0.  1.
<mgrwt>
<rscale>  0 0.91884919E+02</rscale>
<asrwt>0</asrwt>
<pdfrwt beam="1">  1        4 0.14403069E-01 0.91884919E+02</pdfrwt>
<pdfrwt beam="2">  1       -4 0.34685402E-02 0.91884919E+02</pdfrwt>
<totfact> 0.24963171E+04</totfact>
</mgrwt>
</event>
<event>
 5    1  0.6113696E+000  0.9120589E+02  0.7546771E-02  0.1299957E+00
         -1   -1    0    0    0  501 -0.00000000000E+00  0.00000000000E+00  0.20587976608E+02  0.20587976608E+02  0.00000000000E+00 0.  1.
          1   -1    0    0  501    0  0.00000000000E+00 -0.00000000000E+00 -0.10101180488E+03  0.10101180488E+03  0.00000000000E+00 0. -1.
         23    2    1    2    0    0  0.00000000000E+00  0.00000000000E+00 -0.80423828268E+02  0.12159978148E+03  0.91205891825E+02 0.  0.
        -13    1    3    3    0    0  0.12458058921E+02  0.42105543407E+02 -0.56624837736E+02  0.71655092396E+02  0.00000000000E+00 0. -1.
         13    1    3    3    0    0 -0.12458058921E+02 -0.42105543407E+02 -0.23798990532E+02  0.49944689088E+02  0.00000000000E+00 0.  1.
<mgrwt>
<rscale>  0 0.91205892E+02</rscale>
<asrwt>0</asrwt>
<pdfrwt beam="2">  1        1 0.15540278E-01 0.91205892E+02</pdfrwt>
<pdfrwt beam="1">  1       -1 0.31673810E-02 0.91205892E+02</pdfrwt>
<totfact> 0.10453603E+05</totfact>
</mgrwt>
</event>
<event>
 5    1  0.6113696E+000  0.8926703E+02  0.7546771E-02  0.1304636E+00
          1   -1    0    0  501    0  0.00000000000E+00  0.00000000000E+00  0.12171697818E+03  0.12171697818E+03  0.00000000000E+00 0. -1.
         -1   -1    0    0    0  501 -0.00000000000E+00 -0.00000000000E+00 -0.16367073131E+02  0.16367073131E+02  0.00000000000E+00 0.  1.
         23    2    1    2    0    0  0.00000000000E+00  0.00000000000E+00  0.10534990505E+03  0.13808405132E+03  0.89267030493E+02 0.  0.
        -13    1    3    3    0    0 -0.78532949933E+01  0.38052300216E+02  0.86653169986E+02  0.94965381390E+02  0.00000000000E+00 0. -1.
         13    1    3    3    0    0  0.78532949933E+01 -0.38052300216E+02  0.18696735067E+02  0.43118669926E+02  0.00000000000E+00 0.  1.
<mgrwt>
<rscale>  0 0.89267030E+02</rscale>
<asrwt>0</asrwt>
<pdfrwt beam="1">  1        1 0.18725688E-01 0.89267030E+02</pdfrwt>
<pdfrwt beam="2">  1       -1 0.25180113E-02 0.89267030E+02</pdfrwt>
<totfact> 0.11437192E+05</totfact>
</mgrwt>
</event>
<event>
 5    1  0.6113696E+000  0.9232730E+02  0.7546771E-02  0.1297312E+00
          2   -1    0    0  501    0  0.00000000000E+00  0.00000000000E+00  0.10128020270E+03  0.10128020270E+03  0.00000000000E+00 0. -1.
         -2   -1    0    0    0  501 -0.00000000000E+00 -0.00000000000E+00 -0.21041453760E+02  0.21041453760E+02  0.00000000000E+00 0.  1.
         23    2    1    2    0    0  0.00000000000E+00  0.00000000000E+00  0.80238748944E+02  0.12232165646E+03  0.92327302614E+02 0.  0.
        -13    1    3    3    0    0  0.38789766178E+02  0.22745395157E+02  0.53956733769E+02  0.70237654288E+02  0.00000000000E+00 0.  1.
         13    1    3    3    0    0 -0.38789766178E+02 -0.22745395157E+02  0.26282015176E+02  0.52084002176E+02  0.00000000000E+00 0. -1.
<mgrwt>
<rscale>  0 0.92327303E+02</rscale>
<asrwt>0</asrwt>
<pdfrwt beam="1">  1        2 0.15581569E-01 0.92327303E+02</pdfrwt>
<pdfrwt beam="2">  1       -2 0.32371468E-02 0.92327303E+02</pdfrwt>
<totfact> 0.11896902E+05</totfact>
</mgrwt>
</event>
<event>
 5    1  0.6113696E+000  0.9214355E+02  0.7546771E-02  0.1297742E+00
         -2   -1    0    0    0  501 -0.00000000000E+00  0.00000000000E+00  0.86542384367E+01  0.86542384367E+01  0.00000000000E+00 0. -1.
          2   -1    0    0  501    0  0.00000000000E+00 -0.00000000000E+00 -0.24526808871E+03  0.24526808871E+03  0.00000000000E+00 0.  1.
         23    2    1    2    0    0  0.00000000000E+00  0.00000000000E+00 -0.23661385027E+03  0.25392232714E+03  0.92143551497E+02 0.  0.
        -13    1    3    3    0    0  0.33222993598E+02  0.19485284094E+02 -0.18797637932E+03  0.19188163743E+03  0.00000000000E+00 0.  1.
         13    1    3    3    0    0 -0.33222993598E+02 -0.19485284094E+02 -0.48637470948E+02  0.62040689713E+02  0.00000000000E+00 0. -1.
<mgrwt>
<rscale>  0 0.92143551E+02</rscale>
<asrwt>0</asrwt>
<pdfrwt beam="2">  1        2 0.37733545E-01 0.92143551E+02</pdfrwt>
<pdfrwt beam="1">  1       -2 0.13314215E-02 0.92143551E+02</pdfrwt>
<totfact> 0.16202835E+05</totfact>
</mgrwt>
</event>
<event>
 5    1  0.6113696E+000  0.9240883E+02  0.7546771E-02  0.1297121E+00
         -1   -1    0    0    0  501 -0.00000000000E+00  0.00000000000E+00  0.90279347939E+01  0.90279347939E+01  0.00000000000E+00 0.  1.
          1   -1    0    0  501    0  0.00000000000E+00 -0.00000000000E+00 -0.23647137178E+03  0.23647137178E+03  0.00000000000E+00 0. -1.
         23    2    1    2    0    0  0.00000000000E+00  0.00000000000E+00 -0.22744343699E+03  0.24549930658E+03  0.92408833454E+02 0.  0.
        -13    1    3    3    0    0  0.30704784832E+02 -0.31030031237E+02 -0.73501401796E+02  0.85487441862E+02  0.00000000000E+00 0.  1.
         13    1    3    3    0    0 -0.30704784832E+02  0.31030031237E+02 -0.15394203519E+03  0.16001186472E+03  0.00000000000E+00 0. -1.
<mgrwt>
<rscale>  0 0.92408833E+02</rscale>
<asrwt>0</asrwt>
<pdfrwt beam="2">  1        1 0.36380211E-01 0.92408833E+02</pdfrwt>
<pdfrwt beam="1">  1       -1 0.13889131E-02 0.92408833E+02</pdfrwt>
<totfact> 0.11801719E+05</totfact>
</mgrwt>
</event>
<event>
 5    1  0.6113696E+000  0.9122643E+02  0.7546771E-02  0.1299909E+00
          1   -1    0    0  501    0  0.00000000000E+00  0.00000000000E+00  0.13559531970E+02  0.13559531970E+02  0.00000000000E+00 0. -1.
         -1   -1    0    0    0  501 -0.00000000000E+00 -0.00000000000E+00 -0.15343932882E+03  0.15343932882E+03  0.00000000000E+00 0.  1.
         23    2    1    2    0    0  0.00000000000E+00  0.00000000000E+00 -0.13987979685E+03  0.16699886079E+03  0.91226432237E+02 0.  0.
        -13    1    3    3    0    0 -0.24290031477E+02  0.15951159322E+01 -0.14055482957E+03  0.14264715258E+03  0.00000000000E+00 0.  1.
         13    1    3    3    0    0  0.24290031477E+02 -0.15951159322E+01  0.67503271087E+00  0.24351708218E+02  0.00000000000E+00 0. -1.
<mgrwt>
<rscale>  0 0.91226432E+02</rscale>
<asrwt>0</asrwt>
<pdfrwt beam="1">  1        1 0.20860818E-02 0.91226432E+02</pdfrwt>
<pdfrwt beam="2">  1       -1 0.23606051E-01 0.91226432E+02</pdfrwt>
<totfact> 0.74284641E+04</totfact>
</mgrwt>
</event>
<event>
 5    1  0.6113696E+000  0.9171054E+02  0.7546771E-02  0.1298761E+00
          2   -1    0    0  501    0  0.00000000000E+00  0.00000000000E+00  0.15263728267E+03  0.15263728267E+03  0.00000000000E+00 0. -1.
         -2   -1    0    0    0  501 -0.00000000000E+00 -0.00000000000E+00 -0.13775834114E+02  0.13775834114E+02  0.00000000000E+00 0.  1.
         23    2    1    2    0    0  0.00000000000E+00  0.00000000000E+00  0.13886144855E+03  0.16641311678E+03  0.91710542156E+02 0.  0.
        -13    1    3    3    0    0 -0.26900384632E+02  0.15296348178E+02  0.80277486288E+01  0.31969574739E+02  0.00000000000E+00 0.  1.
         13    1    3    3    0    0  0.26900384632E+02 -0.15296348178E+02  0.13083369992E+03  0.13444354204E+03  0.00000000000E+00 0. -1.
<mgrwt>
<rscale>  0 0.91710542E+02</rscale>
<asrwt>0</asrwt>
<pdfrwt beam="1">  1        2 0.23482658E-01 0.91710542E+02</pdfrwt>
<pdfrwt beam="2">  1       -2 0.21193592E-02 0.91710542E+02</pdfrwt>
<totfact> 0.13843078E+05</totfact>
</mgrwt>
</event>
<event>
 5    1  0.6113696E+000  0.9074909E+02  0.7546771E-02  0.1301048E+00
          4   -1    0    0  501    0  0.00000000000E+00  0.00000000000E+00  0.56475875812E+02  0.56475875812E+02  0.00000000000E+00 0. -1.
         -4   -1    0    0    0  501 -0.00000000000E+00 -0.00000000000E+00 -0.36455377137E+02  0.36455377137E+02  0.00000000000E+00 0.  1.
         23    2    1    2    0    0  0.00000000000E+00  0.00000000000E+00  0.20020498675E+02  0.92931252949E+02  0.90749090395E+02 0.  0.
        -13    1    3    3    0    0 -0.70037386078E+01 -0.27133971967E+02 -0.26534634428E+02  0.38592636778E+02  0.00000000000E+00 0.  1.
         13    1    3    3    0    0  0.70037386078E+01  0.27133971967E+02  0.46555133103E+02  0.54338616172E+02  0.00000000000E+00 0. -1.
<mgrwt>
<rscale>  0 0.90749090E+02</rscale>
<asrwt>0</asrwt>
<pdfrwt beam="1">  1        4 0.86885963E-02 0.90749090E+02</pdfrwt>
<pdfrwt beam="2">  1       -4 0.56085195E-02 0.90749090E+02</pdfrwt>
<totfact> 0.27248985E+04</totfact>
</mgrwt>
</event>
<event>
 5    1  0.6113696E+000  0.9682132E+02  0.7546771E-02  0.1287126E+00
          3   -1    0    0  501    0  0.00000000000E+00  0.00000000000E+00  0.59864311323E+02  0.59864311323E+02  0.00000000000E+00 0. -1.
         -3   -1    0    0    0  501 -0.00000000000E+00 -0.00000000000E+00 -0.39148398606E+02  0.39148398606E+02  0.00000000000E+00 0.  1.
         23    2    1    2    0    0  0.00000000000E+00  0.00000000000E+00  0.20715912717E+02  0.99012709929E+02  0.96821318354E+02 0.  0.
        -13    1    3    3    0    0  0.17857690483E+02  0.34152410873E+01 -0.35524343655E+02  0.39906640715E+02  0.00000000000E+00 0.  1.
         13    1    3    3    0    0 -0.17857690483E+02 -0.34152410873E+01  0.56240256372E+02  0.59106069213E+02  0.00000000000E+00 0. -1.
<mgrwt>
<rscale>  0 0.96821318E+02</rscale>
<asrwt>0</asrwt>
<pdfrwt beam="1">  1        3 0.92098940E-02 0.96821318E+02</pdfrwt>
<pdfrwt beam="2">  1       -3 0.60228306E-02 0.96821318E+02</pdfrwt>
<totfact> 0.29480933E+04</totfact>
</mgrwt>
</event>
<event>
 4    1  0.6113696E+000  0.3167138E+02  0.7546771E-02  0.1580316E+00
         -1   -1    0    0    0  501 -0.00000000000E+00  0.00000000000E+00  0.16591848649E+02  0.16591848649E+02  0.00000000000E+00 0.  1.
          1   -1    0    0  501    0  0.00000000000E+00 -0.00000000000E+00 -0.15113988593E+02  0.15113988593E+02  0.00000000000E+00 0. -1.
        -13    1    1    2    0    0  0.78124718787E+01 -0.82426433846E+01 -0.10309070399E+02  0.15337953557E+02  0.00000000000E+00 0. -1.
         13    1    1    2    0    0 -0.78124718787E+01  0.82426433846E+01  0.11786930454E+02  0.16367883686E+02  0.00000000000E+00 0.  1.
<mgrwt>
<rscale>  0 0.31671376E+02</rscale>
<asrwt>0</asrwt>
<pdfrwt beam="2">  1        1 0.23252290E-02 0.31671376E+02</pdfrwt>
<pdfrwt beam="1">  1       -1 0.25525921E-02 0.31671376E+02</pdfrwt>
<totfact> 0.13338580E+06</totfact>
</mgrwt>
</event>
<event>
 5    1  0.6113696E+000  0.9055403E+02  0.7546771E-02  0.1301516E+00
         -4   -1    0    0    0  501 -0.00000000000E+00  0.00000000000E+00  0.71542147868E+02  0.71542147868E+02  0.00000000000E+00 0. -1.
          4   -1    0    0  501    0  0.00000000000E+00 -0.00000000000E+00 -0.28654547323E+02  0.28654547323E+02  0.00000000000E+00 0.  1.
         23    2    1    2    0    0  0.00000000000E+00  0.00000000000E+00  0.42887600545E+02  0.10019669519E+03  0.90554025017E+02 0.  0.
        -13    1    3    3    0    0  0.94610277091E+00  0.41302206832E+02  0.94422432608E+00  0.41323830404E+02  0.00000000000E+00 0.  1.
         13    1    3    3    0    0 -0.94610277091E+00 -0.41302206832E+02  0.41943376219E+02  0.58872864788E+02  0.00000000000E+00 0. -1.
<mgrwt>
<rscale>  0 0.90554025E+02</rscale>
<asrwt>0</asrwt>
<pdfrwt beam="2">  1        4 0.44083919E-02 0.90554025E+02</pdfrwt>
<pdfrwt beam="1">  1       -4 0.11006484E-01 0.90554025E+02</pdfrwt>
<totfact> 0.26941150E+04</totfact>
</mgrwt>
</event>
<event>
 5    1  0.6113696E+000  0.9082214E+02  0.7546771E-02  0.1300873E+00
          3   -1    0    0  501    0  0.00000000000E+00  0.00000000000E+00  0.15795717151E+03  0.15795717151E+03  0.00000000000E+00 0. -1.
         -3   -1    0    0    0  501 -0.00000000000E+00 -0.00000000000E+00 -0.13055219119E+02  0.13055219119E+02  0.00000000000E+00 0.  1.
         23    2    1    2    0    0  0.00000000000E+00  0.00000000000E+00  0.14490195239E+03  0.17101239063E+03  0.90822144557E+02 0.  0.
        -13    1    3    3    0    0  0.31249099623E+02  0.12690748855E+02  0.12970601920E+03  0.13401944915E+03  0.00000000000E+00 0. -1.
         13    1    3    3    0    0 -0.31249099623E+02 -0.12690748855E+02  0.15195933192E+02  0.36992941480E+02  0.00000000000E+00 0.  1.
<mgrwt>
<rscale>  0 0.90822145E+02</rscale>
<asrwt>0</asrwt>
<pdfrwt beam="1">  1        3 0.24301102E-01 0.90822145E+02</pdfrwt>
<pdfrwt beam="2">  1       -3 0.20084954E-02 0.90822145E+02</pdfrwt>
<totfact> 0.30387327E+04</totfact>
</mgrwt>
</event>
<event>
 5    1  0.6113696E+000  0.8990974E+02  0.7546771E-02  0.1303070E+00
         -2   -1    0    0    0  501 -0.00000000000E+00  0.00000000000E+00  0.13518344103E+02  0.13518344103E+02  0.00000000000E+00 0.  1.
          2   -1    0    0  501    0  0.00000000000E+00 -0.00000000000E+00 -0.14949612930E+03  0.14949612930E+03  0.00000000000E+00 0. -1.
         23    2    1    2    0    0  0.00000000000E+00  0.00000000000E+00 -0.13597778520E+03  0.16301447341E+03  0.89909735136E+02 0.  0.
        -13    1    3    3    0    0  0.39276923126E+02 -0.16476837346E+01 -0.28450693377E+02  0.48526626769E+02  0.00000000000E+00 0.  1.
         13    1    3    3    0    0 -0.39276923126E+02  0.16476837346E+01 -0.10752709182E+03  0.11448784664E+03  0.00000000000E+00 0. -1.
<mgrwt>
<rscale>  0 0.89909735E+02</rscale>
<asrwt>0</asrwt>
<pdfrwt beam="2">  1        2 0.22999403E-01 0.89909735E+02</pdfrwt>
<pdfrwt beam="1">  1       -2 0.20797453E-02 0.89909735E+02</pdfrwt>
<totfact> 0.14504823E+05</totfact>
</mgrwt>
</event>
<event>
 5    1  0.6113696E+000  0.9233354E+02  0.7546771E-02  0.1297297E+00
          1   -1    0    0  501    0  0.00000000000E+00  0.00000000000E+00  0.35366468265E+02  0.35366468265E+02  0.00000000000E+00 0. -1.
         -1   -1    0    0    0  501 -0.00000000000E+00 -0.00000000000E+00 -0.60265301740E+02  0.60265301740E+02  0.00000000000E+00 0.  1.
         23    2    1    2    0    0  0.00000000000E+00  0.00000000000E+00 -0.24898833474E+02  0.95631770005E+02  0.92333544966E+02 0.  0.
        -13    1    3    3    0    0  0.41516658174E+02  0.13860045139E+01  0.84150737949E+01  0.42383574430E+02  0.00000000000E+00 0. -1.
         13    1    3    3    0    0 -0.41516658174E+02 -0.13860045139E+01 -0.33313907269E+02  0.53248195575E+02  0.00000000000E+00 0.  1.
<mgrwt>
<rscale>  0 0.92333545E+02</rscale>
<asrwt>0</asrwt>
<pdfrwt beam="1">  1        1 0.54409951E-02 0.92333545E+02</pdfrwt>
<pdfrwt beam="2">  1       -1 0.92715848E-02 0.92333545E+02</pdfrwt>
<totfact> 0.85828446E+04</totfact>
</mgrwt>
</event>
<event>
 5    1  0.6113696E+000  0.9258573E+02  0.7546771E-02  0.1296708E+00
          2   -1    0    0  501    0  0.00000000000E+00  0.00000000000E+00  0.42601460613E+02  0.42601460613E+02  0.00000000000E+00 0. -1.
         -2   -1    0    0    0  501 -0.00000000000E+00 -0.00000000000E+00 -0.50304125776E+02  0.50304125776E+02  0.00000000000E+00 0.  1.
         23    2    1    2    0    0  0.00000000000E+00  0.00000000000E+00 -0.77026651636E+01  0.92905586389E+02  0.92585727473E+02 0.  0.
        -13    1    3    3    0    0  0.24994894887E+02  0.10177081467E+02  0.33891259531E+02  0.43323610540E+02  0.00000000000E+00 0. -1.
         13    1    3    3    0    0 -0.24994894887E+02 -0.10177081467E+02 -0.41593924695E+02  0.49581975849E+02  0.00000000000E+00 0.  1.
<mgrwt>
<rscale>  0 0.92585727E+02</rscale>
<asrwt>0</asrwt>
<pdfrwt beam="1">  1        2 0.65540709E-02 0.92585727E+02</pdfrwt>
<pdfrwt beam="2">  1       -2 0.77390963E-02 0.92585727E+02</pdfrwt>
<totfact> 0.92752806E+04</totfact>
</mgrwt>
</event>
<event>
 5    1  0.6113696E+000  0.9048050E+02  0.7546771E-02  0.1301692E+00
          1   -1    0    0  501    0  0.00000000000E+00  0.00000000000E+00  0.21587343120E+02  0.21587343120E+02  0.00000000000E+00 0. -1.
         -1   -1    0    0    0  501 -0.00000000000E+00 -0.00000000000E+00 -0.94809265237E+02  0.94809265237E+02  0.00000000000E+00 0.  1.
         23    2    1    2    0    0  0.00000000000E+00  0.00000000000E+00 -0.73221922117E+02  0.11639660836E+03  0.90480498222E+02 0.  0.
        -13    1    3    3    0    0 -0.19288442759E+02 -0.37552423542E+02 -0.15691116979E+02  0.45038202562E+02  0.00000000000E+00 0.  1.
         13    1    3    3    0    0  0.19288442759E+02  0.37552423542E+02 -0.57530805138E+02  0.71358405796E+02  0.00000000000E+00 0. -1.
<mgrwt>
<rscale>  0 0.90480498E+02</rscale>
<asrwt>0</asrwt>
<pdfrwt beam="1">  1        1 0.33211297E-02 0.90480498E+02</pdfrwt>
<pdfrwt beam="2">  1       -1 0.14586041E-01 0.90480498E+02</pdfrwt>
<totfact> 0.83806173E+04</totfact>
</mgrwt>
</event>
<event>
 5    1  0.6113696E+000  0.8842414E+02  0.7546771E-02  0.1306713E+00
          2   -1    0    0  501    0  0.00000000000E+00  0.00000000000E+00  0.11892970479E+03  0.11892970479E+03  0.00000000000E+00 0.  1.
         -2   -1    0    0    0  501 -0.00000000000E+00 -0.00000000000E+00 -0.16435820520E+02  0.16435820520E+02  0.00000000000E+00 0. -1.
         23    2    1    2    0    0  0.00000000000E+00  0.00000000000E+00  0.10249388427E+03  0.13536552531E+03  0.88424143366E+02 0.  0.
        -13    1    3    3    0    0 -0.32317335998E+02 -0.27994533749E+01  0.52582323435E+01  0.32861773424E+02  0.00000000000E+00 0. -1.
         13    1    3    3    0    0  0.32317335998E+02  0.27994533749E+01  0.97235651928E+02  0.10250375189E+03  0.00000000000E+00 0.  1.
<mgrwt>
<rscale>  0 0.88424143E+02</rscale>
<asrwt>0</asrwt>
<pdfrwt beam="1">  1        2 0.18296877E-01 0.88424143E+02</pdfrwt>
<pdfrwt beam="2">  1       -2 0.25285878E-02 0.88424143E+02</pdfrwt>
<totfact> 0.14078306E+05</totfact>
</mgrwt>
</event>
<event>
 5    1  0.6113696E+000  0.9646020E+02  0.7546771E-02  0.1287921E+00
          1   -1    0    0  501    0  0.00000000000E+00  0.00000000000E+00  0.25024353282E+03  0.25024353282E+03  0.00000000000E+00 0. -1.
         -1   -1    0    0    0  501 -0.00000000000E+00 -0.00000000000E+00 -0.92955142037E+01  0.92955142037E+01  0.00000000000E+00 0.  1.
         23    2    1    2    0    0  0.00000000000E+00  0.00000000000E+00  0.24094801861E+03  0.25953904702E+03  0.96460195183E+02 0.  0.
        -13    1    3    3    0    0  0.25499793509E+02  0.40562203272E+02  0.10558760348E+03  0.11594944507E+03  0.00000000000E+00 0. -1.
         13    1    3    3    0    0 -0.25499793509E+02 -0.40562203272E+02  0.13536041514E+03  0.14358960195E+03  0.00000000000E+00 0.  1.
<mgrwt>
<rscale>  0 0.96460195E+02</rscale>
<asrwt>0</asrwt>
<pdfrwt beam="1">  1        1 0.38499000E-01 0.96460195E+02</pdfrwt>
<pdfrwt beam="2">  1       -1 0.14300793E-02 0.96460195E+02</pdfrwt>
<totfact> 0.10635487E+05</totfact>
</mgrwt>
</event>
<event>
 5    1  0.6113696E+000  0.8950300E+02  0.7546771E-02  0.1304060E+00
         -4   -1    0    0    0  501 -0.00000000000E+00  0.00000000000E+00  0.20890523024E+03  0.20890523024E+03  0.00000000000E+00 0.  1.
          4   -1    0    0  501    0  0.00000000000E+00 -0.00000000000E+00 -0.95866279988E+01  0.95866279988E+01  0.00000000000E+00 0. -1.
         23    2    1    2    0    0  0.00000000000E+00  0.00000000000E+00  0.19931860224E+03  0.21849185824E+03  0.89502999487E+02 0.  0.
        -13    1    3    3    0    0 -0.28620900749E+02 -0.33962262351E+02  0.86264982320E+02  0.97026998296E+02  0.00000000000E+00 0. -1.
         13    1    3    3    0    0  0.28620900749E+02  0.33962262351E+02  0.11305361992E+03  0.12146485994E+03  0.00000000000E+00 0.  1.
<mgrwt>
<rscale>  0 0.89502999E+02</rscale>
<asrwt>0</asrwt>
<pdfrwt beam="2">  1        4 0.14748660E-02 0.89502999E+02</pdfrwt>
<pdfrwt beam="1">  1       -4 0.32139263E-01 0.89502999E+02</pdfrwt>
<totfact> 0.21682580E+04</totfact>
</mgrwt>
</event>
<event>
 5    1  0.6113696E+000  0.8807527E+02  0.7546771E-02  0.1307581E+00
          2   -1    0    0  501    0  0.00000000000E+00  0.00000000000E+00  0.16593294076E+03  0.16593294076E+03  0.00000000000E+00 0. -1.
         -2   -1    0    0    0  501 -0.00000000000E+00 -0.00000000000E+00 -0.11687332572E+02  0.11687332572E+02  0.00000000000E+00 0.  1.
         23    2    1    2    0    0  0.00000000000E+00  0.00000000000E+00  0.15424560819E+03  0.17762027333E+03  0.88075273791E+02 0.  0.
        -13    1    3    3    0    0  0.23123858432E+02  0.35163751745E+02  0.10327070638E+03  0.11151699898E+03  0.00000000000E+00 0.  1.
         13    1    3    3    0    0 -0.23123858432E+02 -0.35163751745E+02  0.50974901807E+02  0.66103274350E+02  0.00000000000E+00 0. -1.
<mgrwt>
<rscale>  0 0.88075274E+02</rscale>
<asrwt>0</asrwt>
<pdfrwt beam="1">  1        2 0.25528143E-01 0.88075274E+02</pdfrwt>
<pdfrwt beam="2">  1       -2 0.17980513E-02 0.88075274E+02</pdfrwt>
<totfact> 0.15891841E+05</totfact>
</mgrwt>
</event>
<event>
 5    1  0.6113696E+000  0.9212625E+02  0.7546771E-02  0.1297783E+00
          2   -1    0    0  501    0  0.00000000000E+00  0.00000000000E+00  0.22890286997E+03  0.22890286997E+03  0.00000000000E+00 0. -1.
         -2   -1    0    0    0  501 -0.00000000000E+00 -0.00000000000E+00 -0.92694833926E+01  0.92694833926E+01  0.00000000000E+00 0.  1.
         23    2    1    2    0    0  0.00000000000E+00  0.00000000000E+00  0.21963338657E+03  0.23817235336E+03  0.92126247111E+02 0.  0.
        -13    1    3    3    0    0  0.56137099478E+01 -0.32433762041E+02  0.19312332554E+03  0.19590834982E+03  0.00000000000E+00 0. -1.
         13    1    3    3    0    0 -0.56137099478E+01  0.32433762041E+02  0.26510061031E+02  0.42264003542E+02  0.00000000000E+00 0.  1.
<mgrwt>
<rscale>  0 0.92126247E+02</rscale>
<asrwt>0</asrwt>
<pdfrwt beam="1">  1        2 0.35215822E-01 0.92126247E+02</pdfrwt>
<pdfrwt beam="2">  1       -2 0.14260745E-02 0.92126247E+02</pdfrwt>
<totfact> 0.15802773E+05</totfact>
</mgrwt>
</event>
<event>
 5    1  0.6113696E+000  0.8940547E+02  0.7546771E-02  0.1304298E+00
         -1   -1    0    0    0  501 -0.00000000000E+00  0.00000000000E+00  0.19943124400E+02  0.19943124400E+02  0.00000000000E+00 0.  1.
          1   -1    0    0  501    0  0.00000000000E+00 -0.00000000000E+00 -0.10020168402E+03  0.10020168402E+03  0.00000000000E+00 0. -1.
         23    2    1    2    0    0  0.00000000000E+00  0.00000000000E+00 -0.80258559619E+02  0.12014480842E+03  0.89405472975E+02 0.  0.
        -13    1    3    3    0    0  0.21183920198E+02 -0.27773933947E+02 -0.26421433626E+01  0.35030426823E+02  0.00000000000E+00 0.  1.
         13    1    3    3    0    0 -0.21183920198E+02  0.27773933947E+02 -0.77616416256E+02  0.85114381595E+02  0.00000000000E+00 0. -1.
<mgrwt>
<rscale>  0 0.89405473E+02</rscale>
<asrwt>0</asrwt>
<pdfrwt beam="2">  1        1 0.15415644E-01 0.89405473E+02</pdfrwt>
<pdfrwt beam="1">  1       -1 0.30681730E-02 0.89405473E+02</pdfrwt>
<totfact> 0.11021468E+05</totfact>
</mgrwt>
</event>
<event>
 5    1  0.6113696E+000  0.9160480E+02  0.7546771E-02  0.1299011E+00
          4   -1    0    0  501    0  0.00000000000E+00  0.00000000000E+00  0.18541377223E+03  0.18541377223E+03  0.00000000000E+00 0. -1.
         -4   -1    0    0    0  501 -0.00000000000E+00 -0.00000000000E+00 -0.11314476599E+02  0.11314476599E+02  0.00000000000E+00 0.  1.
         23    2    1    2    0    0  0.00000000000E+00  0.00000000000E+00  0.17409929563E+03  0.19672824883E+03  0.91604798717E+02 0.  0.
        -13    1    3    3    0    0 -0.26514944603E+02  0.25320065238E+02  0.14600879017E+03  0.15054140559E+03  0.00000000000E+00 0. -1.
         13    1    3    3    0    0  0.26514944603E+02 -0.25320065238E+02  0.28090505458E+02  0.46186843233E+02  0.00000000000E+00 0.  1.
<mgrwt>
<rscale>  0 0.91604799E+02</rscale>
<asrwt>0</asrwt>
<pdfrwt beam="1">  1        4 0.28525193E-01 0.91604799E+02</pdfrwt>
<pdfrwt beam="2">  1       -4 0.17406889E-02 0.91604799E+02</pdfrwt>
<totfact> 0.21254853E+04</totfact>
</mgrwt>
</event>
<event>
 5    1  0.6113696E+000  0.9151634E+02  0.7546771E-02  0.1299221E+00
         -3   -1    0    0    0  501 -0.00000000000E+00  0.00000000000E+00  0.20679905873E+02  0.20679905873E+02  0.00000000000E+00 0.  1.
          3   -1    0    0  501    0  0.00000000000E+00 -0.00000000000E+00 -0.10124852852E+03  0.10124852852E+03  0.00000000000E+00 0. -1.
         23    2    1    2    0    0  0.00000000000E+00  0.00000000000E+00 -0.80568622651E+02  0.12192843440E+03  0.91516338206E+02 0.  0.
        -13    1    3    3    0    0  0.13284378887E+02 -0.42998320635E+02 -0.51309535116E+02  0.68249532553E+02  0.00000000000E+00 0. -1.
         13    1    3    3    0    0 -0.13284378887E+02  0.42998320635E+02 -0.29259087535E+02  0.53678901845E+02  0.00000000000E+00 0.  1.
<mgrwt>
<rscale>  0 0.91516338E+02</rscale>
<asrwt>0</asrwt>
<pdfrwt beam="2">  1        3 0.15576697E-01 0.91516338E+02</pdfrwt>
<pdfrwt beam="1">  1       -3 0.31815240E-02 0.91516338E+02</pdfrwt>
<totfact> 0.32781770E+04</totfact>
</mgrwt>
</event>
<event>
 5    1  0.6113696E+000  0.8711962E+02  0.7546771E-02  0.1309981E+00
         -1   -1    0    0    0  501 -0.00000000000E+00  0.00000000000E+00  0.53788471488E+01  0.53788471488E+01  0.00000000000E+00 0.  1.
          1   -1    0    0  501    0  0.00000000000E+00 -0.00000000000E+00 -0.35276279191E+03  0.35276279191E+03  0.00000000000E+00 0. -1.
         23    2    1    2    0    0  0.00000000000E+00  0.00000000000E+00 -0.34738394476E+03  0.35814163906E+03  0.87119622071E+02 0.  0.
        -13    1    3    3    0    0  0.21114268551E+02 -0.37309604081E+02 -0.20543886763E+03  0.20986411610E+03  0.00000000000E+00 0.  1.
         13    1    3    3    0    0 -0.21114268551E+02  0.37309604081E+02 -0.14194507713E+03  0.14827752296E+03  0.00000000000E+00 0. -1.
<mgrwt>
<rscale>  0 0.87119622E+02</rscale>
<asrwt>0</asrwt>
<pdfrwt beam="2">  1        1 0.54271226E-01 0.87119622E+02</pdfrwt>
<pdfrwt beam="1">  1       -1 0.82751453E-03 0.87119622E+02</pdfrwt>
<totfact> 0.14895293E+05</totfact>
</mgrwt>
</event>
<event>
 5    1  0.6113696E+000  0.9125237E+02  0.7546771E-02  0.1299847E+00
          1   -1    0    0  501    0  0.00000000000E+00  0.00000000000E+00  0.27897154228E+02  0.27897154228E+02  0.00000000000E+00 0. -1.
         -1   -1    0    0    0  501 -0.00000000000E+00 -0.00000000000E+00 -0.74622254054E+02  0.74622254054E+02  0.00000000000E+00 0.  1.
         23    2    1    2    0    0  0.00000000000E+00  0.00000000000E+00 -0.46725099825E+02  0.10251940828E+03  0.91252365015E+02 0.  0.
        -13    1    3    3    0    0  0.11042466950E+02  0.28757297713E+02  0.14450733237E+02  0.34025607110E+02  0.00000000000E+00 0. -1.
         13    1    3    3    0    0 -0.11042466950E+02 -0.28757297713E+02 -0.61175833063E+02  0.68493801172E+02  0.00000000000E+00 0.  1.
<mgrwt>
<rscale>  0 0.91252365E+02</rscale>
<asrwt>0</asrwt>
<pdfrwt beam="1">  1        1 0.42918699E-02 0.91252365E+02</pdfrwt>
<pdfrwt beam="2">  1       -1 0.11480347E-01 0.91252365E+02</pdfrwt>
<totfact> 0.85459053E+04</totfact>
</mgrwt>
</event>
<event>
 5    1  0.6113696E+000  0.8558586E+02  0.7546771E-02  0.1313908E+00
         -2   -1    0    0    0  501 -0.00000000000E+00  0.00000000000E+00  0.33891614025E+03  0.33891614025E+03  0.00000000000E+00 0.  1.
          2   -1    0    0  501    0  0.00000000000E+00 -0.00000000000E+00 -0.54032096613E+01  0.54032096613E+01  0.00000000000E+00 0. -1.
         23    2    1    2    0    0  0.00000000000E+00  0.00000000000E+00  0.33351293059E+03  0.34431934991E+03  0.85585862463E+02 0.  0.
        -13    1    3    3    0    0 -0.40550368880E+02  0.87225495503E+01  0.20910787171E+03  0.21318188782E+03  0.00000000000E+00 0.  1.
         13    1    3    3    0    0  0.40550368880E+02 -0.87225495503E+01  0.12440505888E+03  0.13113746208E+03  0.00000000000E+00 0. -1.
<mgrwt>
<rscale>  0 0.85585862E+02</rscale>
<asrwt>0</asrwt>
<pdfrwt beam="2">  1        2 0.83126329E-03 0.85585862E+02</pdfrwt>
<pdfrwt beam="1">  1       -2 0.52140928E-01 0.85585862E+02</pdfrwt>
<totfact> 0.55887361E+04</totfact>
</mgrwt>
</event>
<event>
 5    1  0.6113696E+000  0.8814755E+02  0.7546771E-02  0.1307401E+00
         -2   -1    0    0    0  501 -0.00000000000E+00  0.00000000000E+00  0.10150620496E+02  0.10150620496E+02  0.00000000000E+00 0.  1.
          2   -1    0    0  501    0  0.00000000000E+00 -0.00000000000E+00 -0.19136738742E+03  0.19136738742E+03  0.00000000000E+00 0. -1.
         23    2    1    2    0    0  0.00000000000E+00  0.00000000000E+00 -0.18121676693E+03  0.20151800792E+03  0.88147551865E+02 0.  0.
        -13    1    3    3    0    0 -0.41101478342E+02 -0.10832515097E+02 -0.63964963065E+02  0.76799683627E+02  0.00000000000E+00 0.  1.
         13    1    3    3    0    0  0.41101478342E+02  0.10832515097E+02 -0.11725180386E+03  0.12471832429E+03  0.00000000000E+00 0. -1.
<mgrwt>
<rscale>  0 0.88147552E+02</rscale>
<asrwt>0</asrwt>
<pdfrwt beam="2">  1        2 0.29441137E-01 0.88147552E+02</pdfrwt>
<pdfrwt beam="1">  1       -2 0.15616339E-02 0.88147552E+02</pdfrwt>
<totfact> 0.16671459E+05</totfact>
</mgrwt>
</event>
<event>
 5    1  0.6113696E+000  0.9909099E+02  0.7546771E-02  0.1282219E+00
         -2   -1    0    0    0  501 -0.00000000000E+00  0.00000000000E+00  0.20312073656E+02  0.20312073656E+02  0.00000000000E+00 0.  1.
          2   -1    0    0  501    0  0.00000000000E+00 -0.00000000000E+00 -0.12085207639E+03  0.12085207639E+03  0.00000000000E+00 0. -1.
         23    2    1    2    0    0  0.00000000000E+00  0.00000000000E+00 -0.10054000274E+03  0.14116415005E+03  0.99090994084E+02 0.  0.
        -13    1    3    3    0    0  0.26970503767E+02 -0.19109728246E+02  0.23081519418E+01  0.33134835935E+02  0.00000000000E+00 0.  1.
         13    1    3    3    0    0 -0.26970503767E+02  0.19109728246E+02 -0.10284815468E+03  0.10802931411E+03  0.00000000000E+00 0. -1.
<mgrwt>
<rscale>  0 0.99090994E+02</rscale>
<asrwt>0</asrwt>
<pdfrwt beam="2">  1        2 0.18592626E-01 0.99090994E+02</pdfrwt>
<pdfrwt beam="1">  1       -2 0.31249345E-02 0.99090994E+02</pdfrwt>
<totfact> 0.10351847E+05</totfact>
</mgrwt>
</event>
<event>
 5    1  0.6113696E+000  0.9130203E+02  0.7546771E-02  0.1299729E+00
          2   -1    0    0  501    0  0.00000000000E+00  0.00000000000E+00  0.36839876147E+03  0.36839876147E+03  0.00000000000E+00 0. -1.
         -2   -1    0    0    0  501 -0.00000000000E+00 -0.00000000000E+00 -0.56569548646E+01  0.56569548646E+01  0.00000000000E+00 0.  1.
         23    2    1    2    0    0  0.00000000000E+00  0.00000000000E+00  0.36274180660E+03  0.37405571633E+03  0.91302029896E+02 0.  0.
        -13    1    3    3    0    0 -0.39276922186E+02  0.15478202764E+02  0.25253966750E+03  0.25604400996E+03  0.00000000000E+00 0. -1.
         13    1    3    3    0    0  0.39276922186E+02 -0.15478202764E+02  0.11020213911E+03  0.11801170637E+03  0.00000000000E+00 0.  1.
<mgrwt>
<rscale>  0 0.91302030E+02</rscale>
<asrwt>0</asrwt>
<pdfrwt beam="1">  1        2 0.56676714E-01 0.91302030E+02</pdfrwt>
<pdfrwt beam="2">  1       -2 0.87030104E-03 0.91302030E+02</pdfrwt>
<totfact> 0.19307430E+05</totfact>
</mgrwt>
</event>
<event>
 5    1  0.6113696E+000  0.9304840E+02  0.7546771E-02  0.1295633E+00
         -3   -1    0    0    0  501 -0.00000000000E+00  0.00000000000E+00  0.19793732861E+03  0.19793732861E+03  0.00000000000E+00 0.  1.
          3   -1    0    0  501    0  0.00000000000E+00 -0.00000000000E+00 -0.10935284513E+02  0.10935284513E+02  0.00000000000E+00 0. -1.
         23    2    1    2    0    0  0.00000000000E+00  0.00000000000E+00  0.18700204410E+03  0.20887261313E+03  0.93048396098E+02 0.  0.
        -13    1    3    3    0    0 -0.35458035488E+02 -0.16523601073E+02  0.15003186981E+03  0.15504793979E+03  0.00000000000E+00 0.  1.
         13    1    3    3    0    0  0.35458035488E+02  0.16523601073E+02  0.36970174286E+02  0.53824673337E+02  0.00000000000E+00 0. -1.
<mgrwt>
<rscale>  0 0.93048396E+02</rscale>
<asrwt>0</asrwt>
<pdfrwt beam="2">  1        3 0.16823516E-02 0.93048396E+02</pdfrwt>
<pdfrwt beam="1">  1       -3 0.30451894E-01 0.93048396E+02</pdfrwt>
<totfact> 0.26545508E+04</totfact>
</mgrwt>
</event>
<event>
 5    1  0.6113696E+000  0.9132942E+02  0.7546771E-02  0.1299664E+00
         -1   -1    0    0    0  501 -0.00000000000E+00  0.00000000000E+00  0.22544619852E+02  0.22544619852E+02  0.00000000000E+00 0.  1.
          1   -1    0    0  501    0  0.00000000000E+00 -0.00000000000E+00 -0.92495040173E+02  0.92495040173E+02  0.00000000000E+00 0. -1.
         23    2    1    2    0    0  0.00000000000E+00  0.00000000000E+00 -0.69950420321E+02  0.11503966002E+03  0.91329415171E+02 0.  0.
        -13    1    3    3    0    0  0.43116132821E+02 -0.13483716168E+02 -0.26576891037E+02  0.52413191549E+02  0.00000000000E+00 0. -1.
         13    1    3    3    0    0 -0.43116132821E+02  0.13483716168E+02 -0.43373529284E+02  0.62626468475E+02  0.00000000000E+00 0.  1.
<mgrwt>
<rscale>  0 0.91329415E+02</rscale>
<asrwt>0</asrwt>
<pdfrwt beam="2">  1        1 0.14230006E-01 0.91329415E+02</pdfrwt>
<pdfrwt beam="1">  1       -1 0.34684030E-02 0.91329415E+02</pdfrwt>
<totfact> 0.10264757E+05</totfact>
</mgrwt>
</event>
<event>
 5    1  0.6113696E+000  0.8972585E+02  0.7546771E-02  0.1303517E+00
          2   -1    0    0  501    0  0.00000000000E+00  0.00000000000E+00  0.75845256115E+02  0.75845256115E+02  0.00000000000E+00 0.  1.
         -2   -1    0    0    0  501 -0.00000000000E+00 -0.00000000000E+00 -0.26536692654E+02  0.26536692654E+02  0.00000000000E+00 0. -1.
         23    2    1    2    0    0  0.00000000000E+00  0.00000000000E+00  0.49308563461E+02  0.10238194877E+03  0.89725854709E+02 0.  0.
        -13    1    3    3    0    0 -0.27200109325E+01 -0.22967071448E+02 -0.19210223978E+02  0.30065221364E+02  0.00000000000E+00 0. -1.
         13    1    3    3    0    0  0.27200109325E+01  0.22967071448E+02  0.68518787440E+02  0.72316727405E+02  0.00000000000E+00 0.  1.
<mgrwt>
<rscale>  0 0.89725855E+02</rscale>
<asrwt>0</asrwt>
<pdfrwt beam="1">  1        2 0.11668501E-01 0.89725855E+02</pdfrwt>
<pdfrwt beam="2">  1       -2 0.40825681E-02 0.89725855E+02</pdfrwt>
<totfact> 0.11828879E+05</totfact>
</mgrwt>
</event>
<event>
 5    1  0.6113696E+000  0.9081850E+02  0.7546771E-02  0.1300882E+00
         -1   -1    0    0    0  501 -0.00000000000E+00  0.00000000000E+00  0.11679405593E+03  0.11679405593E+03  0.00000000000E+00 0.  1.
          1   -1    0    0  501    0  0.00000000000E+00 -0.00000000000E+00 -0.17655006212E+02  0.17655006212E+02  0.00000000000E+00 0. -1.
         23    2    1    2    0    0  0.00000000000E+00  0.00000000000E+00  0.99139049721E+02  0.13444906214E+03  0.90818495539E+02 0.  0.
        -13    1    3    3    0    0  0.21912483608E+02  0.39567422350E+02  0.55539459359E+02  0.71626596982E+02  0.00000000000E+00 0. -1.
         13    1    3    3    0    0 -0.21912483608E+02 -0.39567422350E+02  0.43599590361E+02  0.62822465162E+02  0.00000000000E+00 0.  1.
<mgrwt>
<rscale>  0 0.90818496E+02</rscale>
<asrwt>0</asrwt>
<pdfrwt beam="2">  1        1 0.27161549E-02 0.90818496E+02</pdfrwt>
<pdfrwt beam="1">  1       -1 0.17968316E-01 0.90818496E+02</pdfrwt>
<totfact> 0.79770823E+04</totfact>
</mgrwt>
</event>
<event>
 5    1  0.6113696E+000  0.9162368E+02  0.7546771E-02  0.1298967E+00
          2   -1    0    0  501    0  0.00000000000E+00  0.00000000000E+00  0.43069510009E+02  0.43069510009E+02  0.00000000000E+00 0.  1.
         -2   -1    0    0    0  501 -0.00000000000E+00 -0.00000000000E+00 -0.48728782650E+02  0.48728782650E+02  0.00000000000E+00 0. -1.
         23    2    1    2    0    0  0.00000000000E+00  0.00000000000E+00 -0.56592726410E+01  0.91798292660E+02  0.91623682356E+02 0.  0.
        -13    1    3    3    0    0 -0.28841551848E+02 -0.84518877726E+01  0.31811611517E+02  0.43763548156E+02  0.00000000000E+00 0.  1.
         13    1    3    3    0    0  0.28841551848E+02  0.84518877726E+01 -0.37470884158E+02  0.48034744503E+02  0.00000000000E+00 0. -1.
<mgrwt>
<rscale>  0 0.91623682E+02</rscale>
<asrwt>0</asrwt>
<pdfrwt beam="1">  1        2 0.66260784E-02 0.91623682E+02</pdfrwt>
<pdfrwt beam="2">  1       -2 0.74967358E-02 0.91623682E+02</pdfrwt>
<totfact> 0.95869470E+04</totfact>
</mgrwt>
</event>
<event>
 5    1  0.6113696E+000  0.8885042E+02  0.7546771E-02  0.1305660E+00
          3   -1    0    0  501    0  0.00000000000E+00  0.00000000000E+00  0.13002654235E+03  0.13002654235E+03  0.00000000000E+00 0. -1.
         -3   -1    0    0    0  501 -0.00000000000E+00 -0.00000000000E+00 -0.15178434828E+02  0.15178434828E+02  0.00000000000E+00 0.  1.
         23    2    1    2    0    0  0.00000000000E+00  0.00000000000E+00  0.11484810753E+03  0.14520497718E+03  0.88850422599E+02 0.  0.
        -13    1    3    3    0    0  0.21120011238E+02  0.73008106795E+01 -0.53249010455E+01  0.22971967317E+02  0.00000000000E+00 0.  1.
         13    1    3    3    0    0 -0.21120011238E+02 -0.73008106795E+01  0.12017300857E+03  0.12223300987E+03  0.00000000000E+00 0. -1.
<mgrwt>
<rscale>  0 0.88850423E+02</rscale>
<asrwt>0</asrwt>
<pdfrwt beam="1">  1        3 0.20004083E-01 0.88850423E+02</pdfrwt>
<pdfrwt beam="2">  1       -3 0.23351439E-02 0.88850423E+02</pdfrwt>
<totfact> 0.33888106E+04</totfact>
</mgrwt>
</event>
<event>
 5    1  0.6113696E+000  0.8989248E+02  0.7546771E-02  0.1303112E+00
         -4   -1    0    0    0  501 -0.00000000000E+00  0.00000000000E+00  0.71884967515E+01  0.71884967515E+01  0.00000000000E+00 0.  1.
          4   -1    0    0  501    0  0.00000000000E+00 -0.00000000000E+00 -0.28102741525E+03  0.28102741525E+03  0.00000000000E+00 0. -1.
         23    2    1    2    0    0  0.00000000000E+00  0.00000000000E+00 -0.27383891849E+03  0.28821591200E+03  0.89892483814E+02 0.  0.
        -13    1    3    3    0    0  0.43909522334E+02 -0.83570835452E+01 -0.15205261159E+03  0.15848622555E+03  0.00000000000E+00 0. -1.
         13    1    3    3    0    0 -0.43909522334E+02  0.83570835452E+01 -0.12178630691E+03  0.12972968645E+03  0.00000000000E+00 0.  1.
<mgrwt>
<rscale>  0 0.89892484E+02</rscale>
<asrwt>0</asrwt>
<pdfrwt beam="2">  1        4 0.43234983E-01 0.89892484E+02</pdfrwt>
<pdfrwt beam="1">  1       -4 0.11059227E-02 0.89892484E+02</pdfrwt>
<totfact> 0.18883443E+04</totfact>
</mgrwt>
</event>
<event>
 5    1  0.6113696E+000  0.8734947E+02  0.7546771E-02  0.1309400E+00
          1   -1    0    0  501    0  0.00000000000E+00  0.00000000000E+00  0.31984904509E+02  0.31984904509E+02  0.00000000000E+00 0. -1.
         -1   -1    0    0    0  501 -0.00000000000E+00 -0.00000000000E+00 -0.59636956876E+02  0.59636956876E+02  0.00000000000E+00 0.  1.
         23    2    1    2    0    0  0.00000000000E+00  0.00000000000E+00 -0.27652052367E+02  0.91621861385E+02  0.87349467563E+02 0.  0.
        -13    1    3    3    0    0 -0.34459780446E+02  0.55181229164E+01 -0.41369815598E+02  0.54123819077E+02  0.00000000000E+00 0.  1.
         13    1    3    3    0    0  0.34459780446E+02 -0.55181229164E+01  0.13717763230E+02  0.37498042308E+02  0.00000000000E+00 0. -1.
<mgrwt>
<rscale>  0 0.87349468E+02</rscale>
<asrwt>0</asrwt>
<pdfrwt beam="1">  1        1 0.49207546E-02 0.87349468E+02</pdfrwt>
<pdfrwt beam="2">  1       -1 0.91749163E-02 0.87349468E+02</pdfrwt>
<totfact> 0.98945867E+04</totfact>
</mgrwt>
</event>
<event>
 5    1  0.6113696E+000  0.9017939E+02  0.7546771E-02  0.1302418E+00
         -1   -1    0    0    0  501 -0.00000000000E+00  0.00000000000E+00  0.63265828956E+02  0.63265828956E+02  0.00000000000E+00 0.  1.
          1   -1    0    0  501    0  0.00000000000E+00 -0.00000000000E+00 -0.32135523529E+02  0.32135523529E+02  0.00000000000E+00 0. -1.
         23    2    1    2    0    0  0.00000000000E+00  0.00000000000E+00  0.31130305428E+02  0.95401352485E+02  0.90179388665E+02 0.  0.
        -13    1    3    3    0    0 -0.61622845907E+00  0.37836353713E+02  0.41502444715E+02  0.56164244116E+02  0.00000000000E+00 0.  1.
         13    1    3    3    0    0  0.61622845907E+00 -0.37836353713E+02 -0.10372139287E+02  0.39237108369E+02  0.00000000000E+00 0. -1.
<mgrwt>
<rscale>  0 0.90179389E+02</rscale>
<asrwt>0</asrwt>
<pdfrwt beam="2">  1        1 0.49439267E-02 0.90179389E+02</pdfrwt>
<pdfrwt beam="1">  1       -1 0.97332044E-02 0.90179389E+02</pdfrwt>
<totfact> 0.90437560E+04</totfact>
</mgrwt>
</event>
<event>
 5    1  0.6113696E+000  0.9472954E+02  0.7546771E-02  0.1291786E+00
          3   -1    0    0  501    0  0.00000000000E+00  0.00000000000E+00  0.21509436803E+03  0.21509436803E+03  0.00000000000E+00 0. -1.
         -3   -1    0    0    0  501 -0.00000000000E+00 -0.00000000000E+00 -0.10429940899E+02  0.10429940899E+02  0.00000000000E+00 0.  1.
         23    2    1    2    0    0  0.00000000000E+00  0.00000000000E+00  0.20466442713E+03  0.22552430893E+03  0.94729542304E+02 0.  0.
        -13    1    3    3    0    0 -0.11116894689E+02 -0.37118903763E+02  0.37481216364E+02  0.53909553367E+02  0.00000000000E+00 0.  1.
         13    1    3    3    0    0  0.11116894689E+02  0.37118903763E+02  0.16718321077E+03  0.17161475557E+03  0.00000000000E+00 0. -1.
<mgrwt>
<rscale>  0 0.94729542E+02</rscale>
<asrwt>0</asrwt>
<pdfrwt beam="1">  1        3 0.33091438E-01 0.94729542E+02</pdfrwt>
<pdfrwt beam="2">  1       -3 0.16046065E-02 0.94729542E+02</pdfrwt>
<totfact> 0.24557242E+04</totfact>
</mgrwt>
</event>
<event>
 5    1  0.6113696E+000  0.1116192E+03  0.7546771E-02  0.1257600E+00
         -2   -1    0    0    0  501 -0.00000000000E+00  0.00000000000E+00  0.26680014839E+02  0.26680014839E+02  0.00000000000E+00 0.  1.
          2   -1    0    0  501    0  0.00000000000E+00 -0.00000000000E+00 -0.11674322881E+03  0.11674322881E+03  0.00000000000E+00 0. -1.
         23    2    1    2    0    0  0.00000000000E+00  0.00000000000E+00 -0.90063213972E+02  0.14342324365E+03  0.11161919328E+03 0.  0.
        -13    1    3    3    0    0  0.22201729822E+02  0.13396263384E+02 -0.10853299583E+03  0.11158757934E+03  0.00000000000E+00 0. -1.
         13    1    3    3    0    0 -0.22201729822E+02 -0.13396263384E+02  0.18469781860E+02  0.31835664304E+02  0.00000000000E+00 0.  1.
<mgrwt>
<rscale>  0 0.11161919E+03</rscale>
<asrwt>0</asrwt>
<pdfrwt beam="2">  1        2 0.17960497E-01 0.11161919E+03</pdfrwt>
<pdfrwt beam="1">  1       -2 0.41046177E-02 0.11161919E+03</pdfrwt>
<totfact> 0.73378137E+04</totfact>
</mgrwt>
</event>
<event>
 5    1  0.6113696E+000  0.9097426E+02  0.7546771E-02  0.1300509E+00
         -2   -1    0    0    0  501 -0.00000000000E+00  0.00000000000E+00  0.12335055267E+02  0.12335055267E+02  0.00000000000E+00 0.  1.
          2   -1    0    0  501    0  0.00000000000E+00 -0.00000000000E+00 -0.16773974603E+03  0.16773974603E+03  0.00000000000E+00 0. -1.
         23    2    1    2    0    0  0.00000000000E+00  0.00000000000E+00 -0.15540469076E+03  0.18007480129E+03  0.90974260923E+02 0.  0.
        -13    1    3    3    0    0  0.44963597114E+02 -0.54004463597E+01 -0.69260437156E+02  0.82752027415E+02  0.00000000000E+00 0. -1.
         13    1    3    3    0    0 -0.44963597114E+02  0.54004463597E+01 -0.86144253605E+02  0.97322773879E+02  0.00000000000E+00 0.  1.
<mgrwt>
<rscale>  0 0.90974261E+02</rscale>
<asrwt>0</asrwt>
<pdfrwt beam="2">  1        2 0.25806113E-01 0.90974261E+02</pdfrwt>
<pdfrwt beam="1">  1       -2 0.18977010E-02 0.90974261E+02</pdfrwt>
<totfact> 0.14617492E+05</totfact>
</mgrwt>
</event>
<event>
 5    1  0.6113696E+000  0.8637280E+02  0.7546771E-02  0.1311881E+00
         -2   -1    0    0    0  501 -0.00000000000E+00  0.00000000000E+00  0.41535768002E+02  0.41535768002E+02  0.00000000000E+00 0. -1.
          2   -1    0    0  501    0  0.00000000000E+00 -0.00000000000E+00 -0.44902626470E+02  0.44902626470E+02  0.00000000000E+00 0.  1.
         23    2    1    2    0    0  0.00000000000E+00  0.00000000000E+00 -0.33668584684E+01  0.86438394472E+02  0.86372798398E+02 0.  0.
        -13    1    3    3    0    0  0.16222137966E+02 -0.34060017408E+02  0.19352109062E+02  0.42399842820E+02  0.00000000000E+00 0. -1.
         13    1    3    3    0    0 -0.16222137966E+02  0.34060017408E+02 -0.22718967531E+02  0.44038551653E+02  0.00000000000E+00 0.  1.
<mgrwt>
<rscale>  0 0.86372798E+02</rscale>
<asrwt>0</asrwt>
<pdfrwt beam="2">  1        2 0.69080964E-02 0.86372798E+02</pdfrwt>
<pdfrwt beam="1">  1       -2 0.63901182E-02 0.86372798E+02</pdfrwt>
<totfact> 0.11471099E+05</totfact>
</mgrwt>
</event>
<event>
 5    1  0.6113696E+000  0.9010826E+02  0.7546771E-02  0.1302590E+00
          1   -1    0    0  501    0  0.00000000000E+00  0.00000000000E+00  0.20426149989E+02  0.20426149989E+02  0.00000000000E+00 0. -1.
         -1   -1    0    0    0  501 -0.00000000000E+00 -0.00000000000E+00 -0.99376274371E+02  0.99376274371E+02  0.00000000000E+00 0.  1.
         23    2    1    2    0    0  0.00000000000E+00  0.00000000000E+00 -0.78950124382E+02  0.11980242436E+03  0.90108261234E+02 0.  0.
        -13    1    3    3    0    0 -0.23188630106E+02 -0.38468641212E+02 -0.44142815541E+02  0.62977274367E+02  0.00000000000E+00 0.  1.
         13    1    3    3    0    0  0.23188630106E+02  0.38468641212E+02 -0.34807308841E+02  0.56825149992E+02  0.00000000000E+00 0. -1.
<mgrwt>
<rscale>  0 0.90108261E+02</rscale>
<asrwt>0</asrwt>
<pdfrwt beam="1">  1        1 0.31424846E-02 0.90108261E+02</pdfrwt>
<pdfrwt beam="2">  1       -1 0.15288657E-01 0.90108261E+02</pdfrwt>
<totfact> 0.83973466E+04</totfact>
</mgrwt>
</event>
<event>
 5    1  0.6113696E+000  0.8967503E+02  0.7546771E-02  0.1303641E+00
         -2   -1    0    0    0  501 -0.00000000000E+00  0.00000000000E+00  0.18645229273E+02  0.18645229273E+02  0.00000000000E+00 0.  1.
          2   -1    0    0  501    0  0.00000000000E+00 -0.00000000000E+00 -0.10782397088E+03  0.10782397088E+03  0.00000000000E+00 0. -1.
         23    2    1    2    0    0  0.00000000000E+00  0.00000000000E+00 -0.89178741607E+02  0.12646920015E+03  0.89675027923E+02 0.  0.
        -13    1    3    3    0    0 -0.35625673085E+02  0.25898573725E+02 -0.56429048957E+02  0.71583254116E+02  0.00000000000E+00 0. -1.
         13    1    3    3    0    0  0.35625673085E+02 -0.25898573725E+02 -0.32749692650E+02  0.54885946037E+02  0.00000000000E+00 0.  1.
<mgrwt>
<rscale>  0 0.89675028E+02</rscale>
<asrwt>0</asrwt>
<pdfrwt beam="2">  1        2 0.16588304E-01 0.89675028E+02</pdfrwt>
<pdfrwt beam="1">  1       -2 0.28684967E-02 0.89675028E+02</pdfrwt>
<totfact> 0.13139783E+05</totfact>
</mgrwt>
</event>
<event>
 5    1  0.6113696E+000  0.9242716E+02  0.7546771E-02  0.1297078E+00
          2   -1    0    0  501    0  0.00000000000E+00  0.00000000000E+00  0.53930666928E+02  0.53930666928E+02  0.00000000000E+00 0.  1.
         -2   -1    0    0    0  501 -0.00000000000E+00 -0.00000000000E+00 -0.39600753070E+02  0.39600753070E+02  0.00000000000E+00 0. -1.
         23    2    1    2    0    0  0.00000000000E+00  0.00000000000E+00  0.14329913858E+02  0.93531419998E+02  0.92427161027E+02 0.  0.
        -13    1    3    3    0    0 -0.35164759212E+02  0.23377603249E+02  0.26167549756E+02  0.49677090135E+02  0.00000000000E+00 0.  1.
         13    1    3    3    0    0  0.35164759212E+02 -0.23377603249E+02 -0.11837635897E+02  0.43854329863E+02  0.00000000000E+00 0. -1.
<mgrwt>
<rscale>  0 0.92427161E+02</rscale>
<asrwt>0</asrwt>
<pdfrwt beam="1">  1        2 0.82970257E-02 0.92427161E+02</pdfrwt>
<pdfrwt beam="2">  1       -2 0.60924235E-02 0.92427161E+02</pdfrwt>
<totfact> 0.99186691E+04</totfact>
</mgrwt>
</event>
<event>
 5    1  0.6113696E+000  0.9036329E+02  0.7546771E-02  0.1301974E+00
          1   -1    0    0  501    0  0.00000000000E+00  0.00000000000E+00  0.94535806986E+01  0.94535806986E+01  0.00000000000E+00 0. -1.
         -1   -1    0    0    0  501 -0.00000000000E+00 -0.00000000000E+00 -0.21593733972E+03  0.21593733972E+03  0.00000000000E+00 0.  1.
         23    2    1    2    0    0  0.00000000000E+00  0.00000000000E+00 -0.20648375902E+03  0.22539092042E+03  0.90363290487E+02 0.  0.
        -13    1    3    3    0    0 -0.28137616809E+01  0.39606669463E+02 -0.15701509602E+03  0.16195785223E+03  0.00000000000E+00 0.  1.
         13    1    3    3    0    0  0.28137616809E+01 -0.39606669463E+02 -0.49468663001E+02  0.63433068189E+02  0.00000000000E+00 0. -1.
<mgrwt>
<rscale>  0 0.90363290E+02</rscale>
<asrwt>0</asrwt>
<pdfrwt beam="1">  1        1 0.14543972E-02 0.90363290E+02</pdfrwt>
<pdfrwt beam="2">  1       -1 0.33221126E-01 0.90363290E+02</pdfrwt>
<totfact> 0.69479549E+04</totfact>
</mgrwt>
</event>
<event>
 5    1  0.6113696E+000  0.9136521E+02  0.7546771E-02  0.1299579E+00
          4   -1    0    0  501    0  0.00000000000E+00  0.00000000000E+00  0.76081348759E+02  0.76081348759E+02  0.00000000000E+00 0. -1.
         -4   -1    0    0    0  501 -0.00000000000E+00 -0.00000000000E+00 -0.27429855332E+02  0.27429855332E+02  0.00000000000E+00 0.  1.
         23    2    1    2    0    0  0.00000000000E+00  0.00000000000E+00  0.48651493427E+02  0.10351120409E+03  0.91365209788E+02 0.  0.
        -13    1    3    3    0    0  0.16082508744E+01 -0.45428529859E+02  0.29463171223E+02  0.54170252488E+02  0.00000000000E+00 0. -1.
         13    1    3    3    0    0 -0.16082508744E+01  0.45428529859E+02  0.19188322204E+02  0.49340951603E+02  0.00000000000E+00 0.  1.
<mgrwt>
<rscale>  0 0.91365210E+02</rscale>
<asrwt>0</asrwt>
<pdfrwt beam="1">  1        4 0.11704823E-01 0.91365210E+02</pdfrwt>
<pdfrwt beam="2">  1       -4 0.42199778E-02 0.91365210E+02</pdfrwt>
<totfact> 0.26096156E+04</totfact>
</mgrwt>
</event>
<event>
 5    1  0.6113696E+000  0.9098445E+02  0.7546771E-02  0.1300485E+00
          1   -1    0    0  501    0  0.00000000000E+00  0.00000000000E+00  0.13168854801E+02  0.13168854801E+02  0.00000000000E+00 0. -1.
         -1   -1    0    0    0  501 -0.00000000000E+00 -0.00000000000E+00 -0.15715433884E+03  0.15715433884E+03  0.00000000000E+00 0.  1.
         23    2    1    2    0    0  0.00000000000E+00  0.00000000000E+00 -0.14398548404E+03  0.17032319364E+03  0.90984452949E+02 0.  0.
        -13    1    3    3    0    0  0.31739424733E+01 -0.44625526803E+02 -0.56552276062E+02  0.72108747604E+02  0.00000000000E+00 0.  1.
         13    1    3    3    0    0 -0.31739424733E+01  0.44625526803E+02 -0.87433207980E+02  0.98214446040E+02  0.00000000000E+00 0. -1.
<mgrwt>
<rscale>  0 0.90984453E+02</rscale>
<asrwt>0</asrwt>
<pdfrwt beam="1">  1        1 0.20259776E-02 0.90984453E+02</pdfrwt>
<pdfrwt beam="2">  1       -1 0.24177591E-01 0.90984453E+02</pdfrwt>
<totfact> 0.74371899E+04</totfact>
</mgrwt>
</event>
<event>
 5    1  0.6113696E+000  0.9280895E+02  0.7546771E-02  0.1296189E+00
          2   -1    0    0  501    0  0.00000000000E+00  0.00000000000E+00  0.13337702883E+02  0.13337702883E+02  0.00000000000E+00 0. -1.
         -2   -1    0    0    0  501 -0.00000000000E+00 -0.00000000000E+00 -0.16145024954E+03  0.16145024954E+03  0.00000000000E+00 0.  1.
         23    2    1    2    0    0  0.00000000000E+00  0.00000000000E+00 -0.14811254666E+03  0.17478795242E+03  0.92808953419E+02 0.  0.
        -13    1    3    3    0    0 -0.41984572072E+02  0.13916415370E+02 -0.47622464323E+02  0.64994384504E+02  0.00000000000E+00 0.  1.
         13    1    3    3    0    0  0.41984572072E+02 -0.13916415370E+02 -0.10049008233E+03  0.10979356792E+03  0.00000000000E+00 0. -1.
<mgrwt>
<rscale>  0 0.92808953E+02</rscale>
<asrwt>0</asrwt>
<pdfrwt beam="1">  1        2 0.20519543E-02 0.92808953E+02</pdfrwt>
<pdfrwt beam="2">  1       -2 0.24838499E-01 0.92808953E+02</pdfrwt>
<totfact> 0.64976542E+04</totfact>
</mgrwt>
</event>
<event>
 5    1  0.6113696E+000  0.8576206E+02  0.7546771E-02  0.1313452E+00
         -2   -1    0    0    0  501 -0.00000000000E+00  0.00000000000E+00  0.95008046407E+02  0.95008046407E+02  0.00000000000E+00 0.  1.
          2   -1    0    0  501    0  0.00000000000E+00 -0.00000000000E+00 -0.19353967499E+02  0.19353967499E+02  0.00000000000E+00 0. -1.
         23    2    1    2    0    0  0.00000000000E+00  0.00000000000E+00  0.75654078908E+02  0.11436201391E+03  0.85762057864E+02 0.  0.
        -13    1    3    3    0    0  0.23412330952E+02 -0.21051176840E+02 -0.99289092537E+00  0.31500398717E+02  0.00000000000E+00 0. -1.
         13    1    3    3    0    0 -0.23412330952E+02  0.21051176840E+02  0.76646969833E+02  0.82861615188E+02  0.00000000000E+00 0.  1.
<mgrwt>
<rscale>  0 0.85762058E+02</rscale>
<asrwt>0</asrwt>
<pdfrwt beam="2">  1        2 0.29775335E-02 0.85762058E+02</pdfrwt>
<pdfrwt beam="1">  1       -2 0.14616622E-01 0.85762058E+02</pdfrwt>
<totfact> 0.94315053E+04</totfact>
</mgrwt>
</event>
<event>
 5    1  0.6113696E+000  0.9187402E+02  0.7546771E-02  0.1298376E+00
         -1   -1    0    0    0  501 -0.00000000000E+00  0.00000000000E+00  0.61565554893E+01  0.61565554893E+01  0.00000000000E+00 0.  1.
          1   -1    0    0  501    0  0.00000000000E+00 -0.00000000000E+00 -0.34275805223E+03  0.34275805223E+03  0.00000000000E+00 0. -1.
         23    2    1    2    0    0  0.00000000000E+00  0.00000000000E+00 -0.33660149674E+03  0.34891460772E+03  0.91874021746E+02 0.  0.
        -13    1    3    3    0    0  0.40045204530E+02 -0.21078166046E+02 -0.19827688088E+03  0.20337558600E+03  0.00000000000E+00 0. -1.
         13    1    3    3    0    0 -0.40045204530E+02  0.21078166046E+02 -0.13832461587E+03  0.14553902172E+03  0.00000000000E+00 0.  1.
<mgrwt>
<rscale>  0 0.91874022E+02</rscale>
<asrwt>0</asrwt>
<pdfrwt beam="2">  1        1 0.52732016E-01 0.91874022E+02</pdfrwt>
<pdfrwt beam="1">  1       -1 0.94716223E-03 0.91874022E+02</pdfrwt>
<totfact> 0.12870162E+05</totfact>
</mgrwt>
</event>
<event>
 5    1  0.6113696E+000  0.9251120E+02  0.7546771E-02  0.1296882E+00
         -1   -1    0    0    0  501 -0.00000000000E+00  0.00000000000E+00  0.99354867551E+01  0.99354867551E+01  0.00000000000E+00 0.  1.
          1   -1    0    0  501    0  0.00000000000E+00 -0.00000000000E+00 -0.21534732223E+03  0.21534732223E+03  0.00000000000E+00 0. -1.
         23    2    1    2    0    0  0.00000000000E+00  0.00000000000E+00 -0.20541183547E+03  0.22528280898E+03  0.92511198625E+02 0.  0.
        -13    1    3    3    0    0 -0.12497402349E+02 -0.42264078185E+02 -0.68513915558E+02  0.81465293195E+02  0.00000000000E+00 0.  1.
         13    1    3    3    0    0  0.12497402349E+02  0.42264078185E+02 -0.13689791992E+03  0.14381751579E+03  0.00000000000E+00 0. -1.
<mgrwt>
<rscale>  0 0.92511199E+02</rscale>
<asrwt>0</asrwt>
<pdfrwt beam="2">  1        1 0.33130358E-01 0.92511199E+02</pdfrwt>
<pdfrwt beam="1">  1       -1 0.15285364E-02 0.92511199E+02</pdfrwt>
<totfact> 0.11552991E+05</totfact>
</mgrwt>
</event>
<event>
 5    1  0.6113696E+000  0.9363925E+02  0.7546771E-02  0.1294271E+00
         -1   -1    0    0    0  501 -0.00000000000E+00  0.00000000000E+00  0.11303075993E+02  0.11303075993E+02  0.00000000000E+00 0.  1.
          1   -1    0    0  501    0  0.00000000000E+00 -0.00000000000E+00 -0.19393632953E+03  0.19393632953E+03  0.00000000000E+00 0. -1.
         23    2    1    2    0    0  0.00000000000E+00  0.00000000000E+00 -0.18263325354E+03  0.20523940553E+03  0.93639245416E+02 0.  0.
        -13    1    3    3    0    0  0.24885298289E+02 -0.21730492752E+02 -0.18603206186E+02  0.37915322320E+02  0.00000000000E+00 0.  1.
         13    1    3    3    0    0 -0.24885298289E+02  0.21730492752E+02 -0.16403004735E+03  0.16732408321E+03  0.00000000000E+00 0. -1.
<mgrwt>
<rscale>  0 0.93639245E+02</rscale>
<asrwt>0</asrwt>
<pdfrwt beam="2">  1        1 0.29836358E-01 0.93639245E+02</pdfrwt>
<pdfrwt beam="1">  1       -1 0.17389348E-02 0.93639245E+02</pdfrwt>
<totfact> 0.10956212E+05</totfact>
</mgrwt>
</event>
<event>
 5    1  0.6113696E+000  0.9159735E+02  0.7546771E-02  0.1299029E+00
         -1   -1    0    0    0  501 -0.00000000000E+00  0.00000000000E+00  0.73677079927E+02  0.73677079927E+02  0.00000000000E+00 0.  1.
          1   -1    0    0  501    0  0.00000000000E+00 -0.00000000000E+00 -0.28469078789E+02  0.28469078789E+02  0.00000000000E+00 0. -1.
         23    2    1    2    0    0  0.00000000000E+00  0.00000000000E+00  0.45208001137E+02  0.10214615872E+03  0.91597349163E+02 0.  0.
        -13    1    3    3    0    0  0.29072910937E+02  0.16240252438E+02  0.57665941976E+02  0.66590846320E+02  0.00000000000E+00 0.  1.
         13    1    3    3    0    0 -0.29072910937E+02 -0.16240252438E+02 -0.12457940839E+02  0.35555312396E+02  0.00000000000E+00 0. -1.
<mgrwt>
<rscale>  0 0.91597349E+02</rscale>
<asrwt>0</asrwt>
<pdfrwt beam="2">  1        1 0.43798583E-02 0.91597349E+02</pdfrwt>
<pdfrwt beam="1">  1       -1 0.11334935E-01 0.91597349E+02</pdfrwt>
<totfact> 0.84816498E+04</totfact>
</mgrwt>
</event>
<event>
 5    1  0.6113696E+000  0.9435890E+02  0.7546771E-02  0.1292627E+00
         -2   -1    0    0    0  501 -0.00000000000E+00  0.00000000000E+00  0.43929785017E+02  0.43929785017E+02  0.00000000000E+00 0.  1.
          2   -1    0    0  501    0  0.00000000000E+00 -0.00000000000E+00 -0.50669508990E+02  0.50669508990E+02  0.00000000000E+00 0. -1.
         23    2    1    2    0    0  0.00000000000E+00  0.00000000000E+00 -0.67397239728E+01  0.94599294006E+02  0.94358902851E+02 0.  0.
        -13    1    3    3    0    0 -0.34622318416E+02  0.30011394920E+02  0.79065430325E+01  0.46496259853E+02  0.00000000000E+00 0. -1.
         13    1    3    3    0    0  0.34622318416E+02 -0.30011394920E+02 -0.14646267005E+02  0.48103034153E+02  0.00000000000E+00 0.  1.
<mgrwt>
<rscale>  0 0.94358903E+02</rscale>
<asrwt>0</asrwt>
<pdfrwt beam="2">  1        2 0.77953091E-02 0.94358903E+02</pdfrwt>
<pdfrwt beam="1">  1       -2 0.67584285E-02 0.94358903E+02</pdfrwt>
<totfact> 0.91944430E+04</totfact>
</mgrwt>
</event>
<event>
 5    1  0.6113696E+000  0.9220132E+02  0.7546771E-02  0.1297607E+00
          1   -1    0    0  501    0  0.00000000000E+00  0.00000000000E+00  0.13599916656E+02  0.13599916656E+02  0.00000000000E+00 0. -1.
         -1   -1    0    0    0  501 -0.00000000000E+00 -0.00000000000E+00 -0.15627088640E+03  0.15627088640E+03  0.00000000000E+00 0.  1.
         23    2    1    2    0    0  0.00000000000E+00  0.00000000000E+00 -0.14267096975E+03  0.16987080306E+03  0.92201323871E+02 0.  0.
        -13    1    3    3    0    0 -0.39599768325E+02 -0.16533920386E+02 -0.10237080971E+03  0.11100132817E+03  0.00000000000E+00 0.  1.
         13    1    3    3    0    0  0.39599768325E+02  0.16533920386E+02 -0.40300160035E+02  0.58869474888E+02  0.00000000000E+00 0. -1.
<mgrwt>
<rscale>  0 0.92201324E+02</rscale>
<asrwt>0</asrwt>
<pdfrwt beam="1">  1        1 0.20922949E-02 0.92201324E+02</pdfrwt>
<pdfrwt beam="2">  1       -1 0.24041674E-01 0.92201324E+02</pdfrwt>
<totfact> 0.71944364E+04</totfact>
</mgrwt>
</event>
<event>
 5    1  0.6113696E+000  0.9096602E+02  0.7546771E-02  0.1300529E+00
         -1   -1    0    0    0  501 -0.00000000000E+00  0.00000000000E+00  0.10671838178E+02  0.10671838178E+02  0.00000000000E+00 0.  1.
          1   -1    0    0  501    0  0.00000000000E+00 -0.00000000000E+00 -0.19384702008E+03  0.19384702008E+03  0.00000000000E+00 0. -1.
         23    2    1    2    0    0  0.00000000000E+00  0.00000000000E+00 -0.18317518190E+03  0.20451885826E+03  0.90966016281E+02 0.  0.
        -13    1    3    3    0    0  0.83647758269E+01 -0.29629866726E+02 -0.16685714113E+03  0.16967381655E+03  0.00000000000E+00 0. -1.
         13    1    3    3    0    0 -0.83647758269E+01  0.29629866726E+02 -0.16318040770E+02  0.34845041705E+02  0.00000000000E+00 0.  1.
<mgrwt>
<rscale>  0 0.90966016E+02</rscale>
<asrwt>0</asrwt>
<pdfrwt beam="2">  1        1 0.29822614E-01 0.90966016E+02</pdfrwt>
<pdfrwt beam="1">  1       -1 0.16418215E-02 0.90966016E+02</pdfrwt>
<totfact> 0.11842530E+05</totfact>
</mgrwt>
</event>
<event>
 5    1  0.6113696E+000  0.9196727E+02  0.7546771E-02  0.1298156E+00
          1   -1    0    0  501    0  0.00000000000E+00  0.00000000000E+00  0.92184420178E+01  0.92184420178E+01  0.00000000000E+00 0. -1.
         -1   -1    0    0    0  501 -0.00000000000E+00 -0.00000000000E+00 -0.22937656066E+03  0.22937656066E+03  0.00000000000E+00 0.  1.
         23    2    1    2    0    0  0.00000000000E+00  0.00000000000E+00 -0.22015811864E+03  0.23859500267E+03  0.91967266452E+02 0.  0.
        -13    1    3    3    0    0 -0.41996642818E+02 -0.10960027354E+02 -0.14948020579E+03  0.15565401418E+03  0.00000000000E+00 0. -1.
         13    1    3    3    0    0  0.41996642818E+02  0.10960027354E+02 -0.70677912849E+02  0.82940988494E+02  0.00000000000E+00 0.  1.
<mgrwt>
<rscale>  0 0.91967266E+02</rscale>
<asrwt>0</asrwt>
<pdfrwt beam="1">  1        1 0.14182221E-02 0.91967266E+02</pdfrwt>
<pdfrwt beam="2">  1       -1 0.35288696E-01 0.91967266E+02</pdfrwt>
<totfact> 0.65133174E+04</totfact>
</mgrwt>
</event>
<event>
 5    1  0.6113696E+000  0.9285096E+02  0.7546771E-02  0.1296091E+00
          2   -1    0    0  501    0  0.00000000000E+00  0.00000000000E+00  0.70439726038E+02  0.70439726038E+02  0.00000000000E+00 0. -1.
         -2   -1    0    0    0  501 -0.00000000000E+00 -0.00000000000E+00 -0.30598150485E+02  0.30598150485E+02  0.00000000000E+00 0.  1.
         23    2    1    2    0    0  0.00000000000E+00  0.00000000000E+00  0.39841575553E+02  0.10103787652E+03  0.92850963106E+02 0.  0.
        -13    1    3    3    0    0 -0.36707227414E+02  0.28104248528E+02  0.15296885336E+02  0.48695626403E+02  0.00000000000E+00 0. -1.
         13    1    3    3    0    0  0.36707227414E+02 -0.28104248528E+02  0.24544690217E+02  0.52342250120E+02  0.00000000000E+00 0.  1.
<mgrwt>
<rscale>  0 0.92850963E+02</rscale>
<asrwt>0</asrwt>
<pdfrwt beam="1">  1        2 0.10836881E-01 0.92850963E+02</pdfrwt>
<pdfrwt beam="2">  1       -2 0.47074078E-02 0.92850963E+02</pdfrwt>
<totfact> 0.10530072E+05</totfact>
</mgrwt>
</event>
<event>
 5    1  0.6113696E+000  0.9595695E+02  0.7546771E-02  0.1289035E+00
         -3   -1    0    0    0  501 -0.00000000000E+00  0.00000000000E+00  0.17083412360E+02  0.17083412360E+02  0.00000000000E+00 0.  1.
          3   -1    0    0  501    0  0.00000000000E+00 -0.00000000000E+00 -0.13474673325E+03  0.13474673325E+03  0.00000000000E+00 0. -1.
         23    2    1    2    0    0  0.00000000000E+00  0.00000000000E+00 -0.11766332089E+03  0.15183014561E+03  0.95956948852E+02 0.  0.
        -13    1    3    3    0    0 -0.33612804898E+02  0.30077443117E+02 -0.32954797589E+02  0.55861363407E+02  0.00000000000E+00 0.  1.
         13    1    3    3    0    0  0.33612804898E+02 -0.30077443117E+02 -0.84708523302E+02  0.95968782204E+02  0.00000000000E+00 0. -1.
<mgrwt>
<rscale>  0 0.95956949E+02</rscale>
<asrwt>0</asrwt>
<pdfrwt beam="2">  1        3 0.20730267E-01 0.95956949E+02</pdfrwt>
<pdfrwt beam="1">  1       -3 0.26282173E-02 0.95956949E+02</pdfrwt>
<totfact> 0.27148289E+04</totfact>
</mgrwt>
</event>
<event>
 5    1  0.6113696E+000  0.9224022E+02  0.7546771E-02  0.1297516E+00
          3   -1    0    0  501    0  0.00000000000E+00  0.00000000000E+00  0.34834449980E+02  0.34834449980E+02  0.00000000000E+00 0. -1.
         -3   -1    0    0    0  501 -0.00000000000E+00 -0.00000000000E+00 -0.61062100486E+02  0.61062100486E+02  0.00000000000E+00 0.  1.
         23    2    1    2    0    0  0.00000000000E+00  0.00000000000E+00 -0.26227650506E+02  0.95896550466E+02  0.92240223006E+02 0.  0.
        -13    1    3    3    0    0 -0.28581769026E+02  0.34473230882E+02 -0.16427121256E+01  0.44810932497E+02  0.00000000000E+00 0.  1.
         13    1    3    3    0    0  0.28581769026E+02 -0.34473230882E+02 -0.24584938380E+02  0.51085617969E+02  0.00000000000E+00 0. -1.
<mgrwt>
<rscale>  0 0.92240223E+02</rscale>
<asrwt>0</asrwt>
<pdfrwt beam="1">  1        3 0.53591461E-02 0.92240223E+02</pdfrwt>
<pdfrwt beam="2">  1       -3 0.93941693E-02 0.92240223E+02</pdfrwt>
<totfact> 0.33889783E+04</totfact>
</mgrwt>
</event>
<event>
 5    1  0.6113696E+000  0.9230020E+02  0.7546771E-02  0.1297375E+00
          1   -1    0    0  501    0  0.00000000000E+00  0.00000000000E+00  0.21188963909E+03  0.21188963909E+03  0.00000000000E+00 0. -1.
         -1   -1    0    0    0  501 -0.00000000000E+00 -0.00000000000E+00 -0.10051608608E+02  0.10051608608E+02  0.00000000000E+00 0.  1.
         23    2    1    2    0    0  0.00000000000E+00  0.00000000000E+00  0.20183803048E+03  0.22194124770E+03  0.92300199787E+02 0.  0.
        -13    1    3    3    0    0  0.34843325169E+02 -0.28390767911E+02  0.12610826920E+03  0.13387826027E+03  0.00000000000E+00 0.  1.
         13    1    3    3    0    0 -0.34843325169E+02  0.28390767911E+02  0.75729761279E+02  0.88062987429E+02  0.00000000000E+00 0. -1.
<mgrwt>
<rscale>  0 0.92300200E+02</rscale>
<asrwt>0</asrwt>
<pdfrwt beam="1">  1        1 0.32598403E-01 0.92300200E+02</pdfrwt>
<pdfrwt beam="2">  1       -1 0.15464015E-02 0.92300200E+02</pdfrwt>
<totfact> 0.11587289E+05</totfact>
</mgrwt>
</event>
<event>
 5    1  0.6113696E+000  0.8871902E+02  0.7546771E-02  0.1305984E+00
         -2   -1    0    0    0  501 -0.00000000000E+00  0.00000000000E+00  0.43737323917E+02  0.43737323917E+02  0.00000000000E+00 0.  1.
          2   -1    0    0  501    0  0.00000000000E+00 -0.00000000000E+00 -0.44990544185E+02  0.44990544185E+02  0.00000000000E+00 0. -1.
         23    2    1    2    0    0  0.00000000000E+00  0.00000000000E+00 -0.12532202672E+01  0.88727868102E+02  0.88719017222E+02 0.  0.
        -13    1    3    3    0    0 -0.38806458323E+02 -0.12922747278E+02 -0.17798861824E+02  0.44606480326E+02  0.00000000000E+00 0. -1.
         13    1    3    3    0    0  0.38806458323E+02  0.12922747278E+02  0.16545641557E+02  0.44121387777E+02  0.00000000000E+00 0.  1.
<mgrwt>
<rscale>  0 0.88719017E+02</rscale>
<asrwt>0</asrwt>
<pdfrwt beam="2">  1        2 0.69216222E-02 0.88719017E+02</pdfrwt>
<pdfrwt beam="1">  1       -2 0.67288190E-02 0.88719017E+02</pdfrwt>
<totfact> 0.10633673E+05</totfact>
</mgrwt>
</event>
<event>
 5    1  0.6113696E+000  0.6877906E+02  0.7546771E-02  0.1364295E+00
         -2   -1    0    0    0  501 -0.00000000000E+00  0.00000000000E+00  0.49060975084E+01  0.49060975084E+01  0.00000000000E+00 0.  1.
          2   -1    0    0  501    0  0.00000000000E+00 -0.00000000000E+00 -0.24105507410E+03  0.24105507410E+03  0.00000000000E+00 0. -1.
         23    2    1    2    0    0  0.00000000000E+00  0.00000000000E+00 -0.23614897659E+03  0.24596117161E+03  0.68779057813E+02 0.  0.
        -13    1    3    3    0    0 -0.47002705591E+01 -0.33051268849E+02 -0.14759865268E+03  0.15132693478E+03  0.00000000000E+00 0. -1.
         13    1    3    3    0    0  0.47002705591E+01  0.33051268849E+02 -0.88550323909E+02  0.94634236829E+02  0.00000000000E+00 0.  1.
<mgrwt>
<rscale>  0 0.68779058E+02</rscale>
<asrwt>0</asrwt>
<pdfrwt beam="2">  1        2 0.37085392E-01 0.68779058E+02</pdfrwt>
<pdfrwt beam="1">  1       -2 0.75478432E-03 0.68779058E+02</pdfrwt>
<totfact> 0.34821534E+05</totfact>
</mgrwt>
</event>
<event>
 5    1  0.6113696E+000  0.9389379E+02  0.7546771E-02  0.1293687E+00
         -1   -1    0    0    0  501 -0.00000000000E+00  0.00000000000E+00  0.29702776908E+02  0.29702776908E+02  0.00000000000E+00 0.  1.
          1   -1    0    0  501    0  0.00000000000E+00 -0.00000000000E+00 -0.74202189354E+02  0.74202189354E+02  0.00000000000E+00 0. -1.
         23    2    1    2    0    0  0.00000000000E+00  0.00000000000E+00 -0.44499412446E+02  0.10390496626E+03  0.93893792691E+02 0.  0.
        -13    1    3    3    0    0 -0.43852755756E+02  0.82145630737E+01 -0.38418054443E+02  0.58876906687E+02  0.00000000000E+00 0. -1.
         13    1    3    3    0    0  0.43852755756E+02 -0.82145630737E+01 -0.60813580027E+01  0.45028059574E+02  0.00000000000E+00 0.  1.
<mgrwt>
<rscale>  0 0.93893793E+02</rscale>
<asrwt>0</asrwt>
<pdfrwt beam="2">  1        1 0.11415721E-01 0.93893793E+02</pdfrwt>
<pdfrwt beam="1">  1       -1 0.45696580E-02 0.93893793E+02</pdfrwt>
<totfact> 0.91811292E+04</totfact>
</mgrwt>
</event>
<event>
 5    1  0.6113696E+000  0.9107948E+02  0.7546771E-02  0.1300258E+00
          2   -1    0    0  501    0  0.00000000000E+00  0.00000000000E+00  0.17583068493E+03  0.17583068493E+03  0.00000000000E+00 0. -1.
         -2   -1    0    0    0  501 -0.00000000000E+00 -0.00000000000E+00 -0.11794686685E+02  0.11794686685E+02  0.00000000000E+00 0.  1.
         23    2    1    2    0    0  0.00000000000E+00  0.00000000000E+00  0.16403599825E+03  0.18762537162E+03  0.91079478223E+02 0.  0.
        -13    1    3    3    0    0 -0.77819335478E+00  0.44388206642E+02  0.10291975960E+03  0.11208655312E+03  0.00000000000E+00 0. -1.
         13    1    3    3    0    0  0.77819335478E+00 -0.44388206642E+02  0.61116238645E+02  0.75538818497E+02  0.00000000000E+00 0.  1.
<mgrwt>
<rscale>  0 0.91079478E+02</rscale>
<asrwt>0</asrwt>
<pdfrwt beam="1">  1        2 0.27050873E-01 0.91079478E+02</pdfrwt>
<pdfrwt beam="2">  1       -2 0.18145673E-02 0.91079478E+02</pdfrwt>
<totfact> 0.14814332E+05</totfact>
</mgrwt>
</event>
<event>
 5    1  0.6113696E+000  0.9202565E+02  0.7546771E-02  0.1298019E+00
         -2   -1    0    0    0  501 -0.00000000000E+00  0.00000000000E+00  0.21217948448E+02  0.21217948448E+02  0.00000000000E+00 0.  1.
          2   -1    0    0  501    0  0.00000000000E+00 -0.00000000000E+00 -0.99782502251E+02  0.99782502251E+02  0.00000000000E+00 0. -1.
         23    2    1    2    0    0  0.00000000000E+00  0.00000000000E+00 -0.78564553803E+02  0.12100045070E+03  0.92025648354E+02 0.  0.
        -13    1    3    3    0    0 -0.24982352529E+02 -0.24556853935E+02 -0.55853559121E-01  0.35030845447E+02  0.00000000000E+00 0.  1.
         13    1    3    3    0    0  0.24982352529E+02  0.24556853935E+02 -0.78508700244E+02  0.85969605252E+02  0.00000000000E+00 0. -1.
<mgrwt>
<rscale>  0 0.92025648E+02</rscale>
<asrwt>0</asrwt>
<pdfrwt beam="2">  1        2 0.15351154E-01 0.92025648E+02</pdfrwt>
<pdfrwt beam="1">  1       -2 0.32642998E-02 0.92025648E+02</pdfrwt>
<totfact> 0.11950186E+05</totfact>
</mgrwt>
</event>
<event>
 5    1  0.6113696E+000  0.9977177E+02  0.7546771E-02  0.1280777E+00
         -4   -1    0    0    0  501 -0.00000000000E+00  0.00000000000E+00  0.11136730970E+02  0.11136730970E+02  0.00000000000E+00 0.  1.
          4   -1    0    0  501    0  0.00000000000E+00 -0.00000000000E+00 -0.22345887270E+03  0.22345887270E+03  0.00000000000E+00 0. -1.
         23    2    1    2    0    0  0.00000000000E+00  0.00000000000E+00 -0.21232214173E+03  0.23459560367E+03  0.99771766512E+02 0.  0.
        -13    1    3    3    0    0  0.47212926538E+02 -0.16099073002E+02 -0.10757336139E+03  0.11857600375E+03  0.00000000000E+00 0.  1.
         13    1    3    3    0    0 -0.47212926538E+02  0.16099073002E+02 -0.10474878034E+03  0.11601959992E+03  0.00000000000E+00 0. -1.
<mgrwt>
<rscale>  0 0.99771767E+02</rscale>
<asrwt>0</asrwt>
<pdfrwt beam="2">  1        4 0.34378288E-01 0.99771767E+02</pdfrwt>
<pdfrwt beam="1">  1       -4 0.17133432E-02 0.99771767E+02</pdfrwt>
<totfact> 0.15715054E+04</totfact>
</mgrwt>
</event>
<event>
 5    1  0.6113696E+000  0.9027915E+02  0.7546771E-02  0.1302177E+00
         -3   -1    0    0    0  501 -0.00000000000E+00  0.00000000000E+00  0.45668314936E+02  0.45668314936E+02  0.00000000000E+00 0.  1.
          3   -1    0    0  501    0  0.00000000000E+00 -0.00000000000E+00 -0.44616955215E+02  0.44616955215E+02  0.00000000000E+00 0. -1.
         23    2    1    2    0    0  0.00000000000E+00  0.00000000000E+00  0.10513597209E+01  0.90285270151E+02  0.90279148473E+02 0.  0.
        -13    1    3    3    0    0  0.90882003054E+01  0.39069546791E+02  0.21228684772E+02  0.45383718759E+02  0.00000000000E+00 0.  1.
         13    1    3    3    0    0 -0.90882003054E+01 -0.39069546791E+02 -0.20177325051E+02  0.44901551392E+02  0.00000000000E+00 0. -1.
<mgrwt>
<rscale>  0 0.90279148E+02</rscale>
<asrwt>0</asrwt>
<pdfrwt beam="2">  1        3 0.68641469E-02 0.90279148E+02</pdfrwt>
<pdfrwt beam="1">  1       -3 0.70258946E-02 0.90279148E+02</pdfrwt>
<totfact> 0.36373271E+04</totfact>
</mgrwt>
</event>
<event>
 5    1  0.6113696E+000  0.9327897E+02  0.7546771E-02  0.1295100E+00
          1   -1    0    0  501    0  0.00000000000E+00  0.00000000000E+00  0.36202281122E+02  0.36202281122E+02  0.00000000000E+00 0. -1.
         -1   -1    0    0    0  501 -0.00000000000E+00 -0.00000000000E+00 -0.60085759439E+02  0.60085759439E+02  0.00000000000E+00 0.  1.
         23    2    1    2    0    0  0.00000000000E+00  0.00000000000E+00 -0.23883478317E+02  0.96288040561E+02  0.93278969863E+02 0.  0.
        -13    1    3    3    0    0 -0.26917817745E+02  0.25012168935E+02  0.17708789377E+02  0.40789443832E+02  0.00000000000E+00 0. -1.
         13    1    3    3    0    0  0.26917817745E+02 -0.25012168935E+02 -0.41592267694E+02  0.55498596729E+02  0.00000000000E+00 0.  1.
<mgrwt>
<rscale>  0 0.93278970E+02</rscale>
<asrwt>0</asrwt>
<pdfrwt beam="1">  1        1 0.55695818E-02 0.93278970E+02</pdfrwt>
<pdfrwt beam="2">  1       -1 0.92439629E-02 0.93278970E+02</pdfrwt>
<totfact> 0.83676917E+04</totfact>
</mgrwt>
</event>
<event>
 5    1  0.6113696E+000  0.8952191E+02  0.7546771E-02  0.1304014E+00
          1   -1    0    0  501    0  0.00000000000E+00  0.00000000000E+00  0.34141031246E+02  0.34141031246E+02  0.00000000000E+00 0. -1.
         -1   -1    0    0    0  501 -0.00000000000E+00 -0.00000000000E+00 -0.58684320802E+02  0.58684320802E+02  0.00000000000E+00 0.  1.
         23    2    1    2    0    0  0.00000000000E+00  0.00000000000E+00 -0.24543289557E+02  0.92825352048E+02  0.89521913075E+02 0.  0.
        -13    1    3    3    0    0  0.37250229855E+02 -0.24807364788E+02 -0.11496906877E+02  0.46207833099E+02  0.00000000000E+00 0.  1.
         13    1    3    3    0    0 -0.37250229855E+02  0.24807364788E+02 -0.13046382679E+02  0.46617518949E+02  0.00000000000E+00 0. -1.
<mgrwt>
<rscale>  0 0.89521913E+02</rscale>
<asrwt>0</asrwt>
<pdfrwt beam="1">  1        1 0.52524664E-02 0.89521913E+02</pdfrwt>
<pdfrwt beam="2">  1       -1 0.90283570E-02 0.89521913E+02</pdfrwt>
<totfact> 0.93209044E+04</totfact>
</mgrwt>
</event>
<event>
 5    1  0.6113696E+000  0.9307582E+02  0.7546771E-02  0.1295570E+00
         -4   -1    0    0    0  501 -0.00000000000E+00  0.00000000000E+00  0.10049022801E+03  0.10049022801E+03  0.00000000000E+00 0.  1.
          4   -1    0    0  501    0  0.00000000000E+00 -0.00000000000E+00 -0.21552115165E+02  0.21552115165E+02  0.00000000000E+00 0. -1.
         23    2    1    2    0    0  0.00000000000E+00  0.00000000000E+00  0.78938112848E+02  0.12204234318E+03  0.93075817851E+02 0.  0.
        -13    1    3    3    0    0  0.10948800004E+02 -0.14270793060E+02  0.95748188922E+02  0.97423033406E+02  0.00000000000E+00 0.  1.
         13    1    3    3    0    0 -0.10948800004E+02  0.14270793060E+02 -0.16810076074E+02  0.24619309773E+02  0.00000000000E+00 0. -1.
<mgrwt>
<rscale>  0 0.93075818E+02</rscale>
<asrwt>0</asrwt>
<pdfrwt beam="2">  1        4 0.33157101E-02 0.93075818E+02</pdfrwt>
<pdfrwt beam="1">  1       -4 0.15460035E-01 0.93075818E+02</pdfrwt>
<totfact> 0.23790689E+04</totfact>
</mgrwt>
</event>
<event>
 5    1  0.6113696E+000  0.1005411E+03  0.7546771E-02  0.1279162E+00
         -3   -1    0    0    0  501 -0.00000000000E+00  0.00000000000E+00  0.45711278612E+02  0.45711278612E+02  0.00000000000E+00 0.  1.
          3   -1    0    0  501    0  0.00000000000E+00 -0.00000000000E+00 -0.55284518878E+02  0.55284518878E+02  0.00000000000E+00 0. -1.
         23    2    1    2    0    0  0.00000000000E+00  0.00000000000E+00 -0.95732402660E+01  0.10099579749E+03  0.10054105719E+03 0.  0.
        -13    1    3    3    0    0  0.28404489169E+02  0.40670921030E+02 -0.12958969703E+02  0.51272543512E+02  0.00000000000E+00 0.  1.
         13    1    3    3    0    0 -0.28404489169E+02 -0.40670921030E+02  0.33857294369E+01  0.49723253979E+02  0.00000000000E+00 0. -1.
<mgrwt>
<rscale>  0 0.10054106E+03</rscale>
<asrwt>0</asrwt>
<pdfrwt beam="2">  1        3 0.85053106E-02 0.10054106E+03</pdfrwt>
<pdfrwt beam="1">  1       -3 0.70325044E-02 0.10054106E+03</pdfrwt>
<totfact> 0.26466527E+04</totfact>
</mgrwt>
</event>
<event>
 5    1  0.6113696E+000  0.1236234E+03  0.7546771E-02  0.1237236E+00
          2   -1    0    0  501    0  0.00000000000E+00  0.00000000000E+00  0.10551685945E+03  0.10551685945E+03  0.00000000000E+00 0.  1.
         -2   -1    0    0    0  501 -0.00000000000E+00 -0.00000000000E+00 -0.36209244750E+02  0.36209244750E+02  0.00000000000E+00 0. -1.
         23    2    1    2    0    0  0.00000000000E+00  0.00000000000E+00  0.69307614701E+02  0.14172610420E+03  0.12362339243E+03 0.  0.
        -13    1    3    3    0    0 -0.70668577027E+01 -0.38393346825E+02 -0.20287750680E+02  0.43995254129E+02  0.00000000000E+00 0. -1.
         13    1    3    3    0    0  0.70668577027E+01  0.38393346825E+02  0.89595365381E+02  0.97730850073E+02  0.00000000000E+00 0.  1.
<mgrwt>
<rscale>  0 0.12362339E+03</rscale>
<asrwt>0</asrwt>
<pdfrwt beam="1">  1        2 0.16233363E-01 0.12362339E+03</pdfrwt>
<pdfrwt beam="2">  1       -2 0.55706531E-02 0.12362339E+03</pdfrwt>
<totfact> 0.52941477E+04</totfact>
</mgrwt>
</event>
<event>
 5    1  0.6113696E+000  0.8997568E+02  0.7546771E-02  0.1302911E+00
         -1   -1    0    0    0  501 -0.00000000000E+00  0.00000000000E+00  0.14513353525E+02  0.14513353525E+02  0.00000000000E+00 0.  1.
          1   -1    0    0  501    0  0.00000000000E+00 -0.00000000000E+00 -0.13945128848E+03  0.13945128848E+03  0.00000000000E+00 0. -1.
         23    2    1    2    0    0  0.00000000000E+00  0.00000000000E+00 -0.12493793495E+03  0.15396464200E+03  0.89975682253E+02 0.  0.
        -13    1    3    3    0    0 -0.32382605618E+00  0.44978891377E+02 -0.61036967505E+02  0.75820293688E+02  0.00000000000E+00 0.  1.
         13    1    3    3    0    0  0.32382605618E+00 -0.44978891377E+02 -0.63900967449E+02  0.78144348315E+02  0.00000000000E+00 0. -1.
<mgrwt>
<rscale>  0 0.89975682E+02</rscale>
<asrwt>0</asrwt>
<pdfrwt beam="2">  1        1 0.21454044E-01 0.89975682E+02</pdfrwt>
<pdfrwt beam="1">  1       -1 0.22328236E-02 0.89975682E+02</pdfrwt>
<totfact> 0.11468255E+05</totfact>
</mgrwt>
</event>
<event>
 5    1  0.6113696E+000  0.9109755E+02  0.7546771E-02  0.1300215E+00
          2   -1    0    0  501    0  0.00000000000E+00  0.00000000000E+00  0.45785633481E+02  0.45785633481E+02  0.00000000000E+00 0.  1.
         -2   -1    0    0    0  501 -0.00000000000E+00 -0.00000000000E+00 -0.45313144623E+02  0.45313144623E+02  0.00000000000E+00 0. -1.
         23    2    1    2    0    0  0.00000000000E+00  0.00000000000E+00  0.47248885787E+00  0.91098778105E+02  0.91097552802E+02 0.  0.
        -13    1    3    3    0    0 -0.45504555979E+02 -0.18215219907E+01  0.10779649424E+01  0.45553754682E+02  0.00000000000E+00 0. -1.
         13    1    3    3    0    0  0.45504555979E+02  0.18215219907E+01 -0.60547608454E+00  0.45545023422E+02  0.00000000000E+00 0.  1.
<mgrwt>
<rscale>  0 0.91097553E+02</rscale>
<asrwt>0</asrwt>
<pdfrwt beam="1">  1        2 0.70439436E-02 0.91097553E+02</pdfrwt>
<pdfrwt beam="2">  1       -2 0.69712530E-02 0.91097553E+02</pdfrwt>
<totfact> 0.99032332E+04</totfact>
</mgrwt>
</event>
<event>
 5    1  0.6113696E+000  0.9690412E+02  0.7546771E-02  0.1286944E+00
         -1   -1    0    0    0  501 -0.00000000000E+00  0.00000000000E+00  0.32672722838E+02  0.32672722838E+02  0.00000000000E+00 0.  1.
          1   -1    0    0  501    0  0.00000000000E+00 -0.00000000000E+00 -0.71852046336E+02  0.71852046336E+02  0.00000000000E+00 0. -1.
         23    2    1    2    0    0  0.00000000000E+00  0.00000000000E+00 -0.39179323498E+02  0.10452476917E+03  0.96904117463E+02 0.  0.
        -13    1    3    3    0    0  0.15872697300E+02  0.45623820819E+02 -0.23643752801E+02  0.53781991338E+02  0.00000000000E+00 0.  1.
         13    1    3    3    0    0 -0.15872697300E+02 -0.45623820819E+02 -0.15535570697E+02  0.50742777837E+02  0.00000000000E+00 0. -1.
<mgrwt>
<rscale>  0 0.96904117E+02</rscale>
<asrwt>0</asrwt>
<pdfrwt beam="2">  1        1 0.11054161E-01 0.96904117E+02</pdfrwt>
<pdfrwt beam="1">  1       -1 0.50265728E-02 0.96904117E+02</pdfrwt>
<totfact> 0.83685324E+04</totfact>
</mgrwt>
</event>
<event>
 5    1  0.6113696E+000  0.9117799E+02  0.7546771E-02  0.1300024E+00
          1   -1    0    0  501    0  0.00000000000E+00  0.00000000000E+00  0.63742554876E+02  0.63742554876E+02  0.00000000000E+00 0. -1.
         -1   -1    0    0    0  501 -0.00000000000E+00 -0.00000000000E+00 -0.32605478803E+02  0.32605478803E+02  0.00000000000E+00 0.  1.
         23    2    1    2    0    0  0.00000000000E+00  0.00000000000E+00  0.31137076073E+02  0.96348033679E+02  0.91177991245E+02 0.  0.
        -13    1    3    3    0    0  0.32186842287E+02 -0.29941633397E+02  0.28063729856E+01  0.44049630603E+02  0.00000000000E+00 0. -1.
         13    1    3    3    0    0 -0.32186842287E+02  0.29941633397E+02  0.28330703087E+02  0.52298403076E+02  0.00000000000E+00 0.  1.
<mgrwt>
<rscale>  0 0.91177991E+02</rscale>
<asrwt>0</asrwt>
<pdfrwt beam="1">  1        1 0.98065469E-02 0.91177991E+02</pdfrwt>
<pdfrwt beam="2">  1       -1 0.50162275E-02 0.91177991E+02</pdfrwt>
<totfact> 0.97257263E+04</totfact>
</mgrwt>
</event>
<event>
 5    1  0.6113696E+000  0.1036986E+03  0.7546771E-02  0.1272705E+00
         -1   -1    0    0    0  501 -0.00000000000E+00  0.00000000000E+00  0.50967561254E+02  0.50967561254E+02  0.00000000000E+00 0.  1.
          1   -1    0    0  501    0  0.00000000000E+00 -0.00000000000E+00 -0.52746320359E+02  0.52746320359E+02  0.00000000000E+00 0. -1.
         23    2    1    2    0    0  0.00000000000E+00  0.00000000000E+00 -0.17787591046E+01  0.10371388161E+03  0.10369862707E+03 0.  0.
        -13    1    3    3    0    0  0.36350434775E+00 -0.14912704732E+02 -0.50553812897E+02  0.52708717460E+02  0.00000000000E+00 0. -1.
         13    1    3    3    0    0 -0.36350434775E+00  0.14912704732E+02  0.48775053793E+02  0.51005164153E+02  0.00000000000E+00 0.  1.
<mgrwt>
<rscale>  0 0.10369863E+03</rscale>
<asrwt>0</asrwt>
<pdfrwt beam="2">  1        1 0.81148186E-02 0.10369863E+03</pdfrwt>
<pdfrwt beam="1">  1       -1 0.78411632E-02 0.10369863E+03</pdfrwt>
<totfact> 0.65759800E+04</totfact>
</mgrwt>
</event>
<event>
 5    1  0.6113696E+000  0.9139707E+02  0.7546771E-02  0.1299503E+00
          2   -1    0    0  501    0  0.00000000000E+00  0.00000000000E+00  0.89560849394E+02  0.89560849394E+02  0.00000000000E+00 0. -1.
         -2   -1    0    0    0  501 -0.00000000000E+00 -0.00000000000E+00 -0.23317735683E+02  0.23317735683E+02  0.00000000000E+00 0.  1.
         23    2    1    2    0    0  0.00000000000E+00  0.00000000000E+00  0.66243113711E+02  0.11287858508E+03  0.91397072463E+02 0.  0.
        -13    1    3    3    0    0 -0.32151319223E+02  0.26008033381E+02  0.57140720524E+02  0.70535005990E+02  0.00000000000E+00 0. -1.
         13    1    3    3    0    0  0.32151319223E+02 -0.26008033381E+02  0.91023931874E+01  0.42343579086E+02  0.00000000000E+00 0.  1.
<mgrwt>
<rscale>  0 0.91397072E+02</rscale>
<asrwt>0</asrwt>
<pdfrwt beam="1">  1        2 0.13778592E-01 0.91397072E+02</pdfrwt>
<pdfrwt beam="2">  1       -2 0.35873440E-02 0.91397072E+02</pdfrwt>
<totfact> 0.11789658E+05</totfact>
</mgrwt>
</event>
<event>
 5    1  0.6113696E+000  0.9190720E+02  0.7546771E-02  0.1298298E+00
          2   -1    0    0  501    0  0.00000000000E+00  0.00000000000E+00  0.20449575244E+03  0.20449575244E+03  0.00000000000E+00 0. -1.
         -2   -1    0    0    0  501 -0.00000000000E+00 -0.00000000000E+00 -0.10326539913E+02  0.10326539913E+02  0.00000000000E+00 0.  1.
         23    2    1    2    0    0  0.00000000000E+00  0.00000000000E+00  0.19416921252E+03  0.21482229235E+03  0.91907204278E+02 0.  0.
        -13    1    3    3    0    0 -0.29075708676E+02  0.21932603477E+02  0.31583756917E+02  0.48207568195E+02  0.00000000000E+00 0.  1.
         13    1    3    3    0    0  0.29075708676E+02 -0.21932603477E+02  0.16258545561E+03  0.16661472415E+03  0.00000000000E+00 0. -1.
<mgrwt>
<rscale>  0 0.91907204E+02</rscale>
<asrwt>0</asrwt>
<pdfrwt beam="1">  1        2 0.31460882E-01 0.91907204E+02</pdfrwt>
<pdfrwt beam="2">  1       -2 0.15886986E-02 0.91907204E+02</pdfrwt>
<totfact> 0.15261401E+05</totfact>
</mgrwt>
</event>
<event>
 5    1  0.6113696E+000  0.9761475E+02  0.7546771E-02  0.1285393E+00
         -1   -1    0    0    0  501 -0.00000000000E+00  0.00000000000E+00  0.51790224005E+02  0.51790224005E+02  0.00000000000E+00 0.  1.
          1   -1    0    0  501    0  0.00000000000E+00 -0.00000000000E+00 -0.45996321495E+02  0.45996321495E+02  0.00000000000E+00 0. -1.
         23    2    1    2    0    0  0.00000000000E+00  0.00000000000E+00  0.57939025100E+01  0.97786545501E+02  0.97614748756E+02 0.  0.
        -13    1    3    3    0    0  0.22725889868E+02  0.38020722051E+02  0.23429814947E+02  0.50109855358E+02  0.00000000000E+00 0. -1.
         13    1    3    3    0    0 -0.22725889868E+02 -0.38020722051E+02 -0.17635912437E+02  0.47676690143E+02  0.00000000000E+00 0.  1.
<mgrwt>
<rscale>  0 0.97614749E+02</rscale>
<asrwt>0</asrwt>
<pdfrwt beam="2">  1        1 0.70763572E-02 0.97614749E+02</pdfrwt>
<pdfrwt beam="1">  1       -1 0.79677268E-02 0.97614749E+02</pdfrwt>
<totfact> 0.76369478E+04</totfact>
</mgrwt>
</event>
<event>
 5    1  0.6113696E+000  0.8194324E+02  0.7546771E-02  0.1323626E+00
         -1   -1    0    0    0  501 -0.00000000000E+00  0.00000000000E+00  0.20093163558E+02  0.20093163558E+02  0.00000000000E+00 0.  1.
          1   -1    0    0  501    0  0.00000000000E+00 -0.00000000000E+00 -0.83544507839E+02  0.83544507839E+02  0.00000000000E+00 0. -1.
         23    2    1    2    0    0  0.00000000000E+00  0.00000000000E+00 -0.63451344281E+02  0.10363767140E+03  0.81943235484E+02 0.  0.
        -13    1    3    3    0    0 -0.24685787275E+02  0.27289889836E+02 -0.89409610957E+01  0.37869076645E+02  0.00000000000E+00 0.  1.
         13    1    3    3    0    0  0.24685787275E+02 -0.27289889836E+02 -0.54510383185E+02  0.65768594752E+02  0.00000000000E+00 0. -1.
<mgrwt>
<rscale>  0 0.81943235E+02</rscale>
<asrwt>0</asrwt>
<pdfrwt beam="2">  1        1 0.12853001E-01 0.81943235E+02</pdfrwt>
<pdfrwt beam="1">  1       -1 0.30912559E-02 0.81943235E+02</pdfrwt>
<totfact> 0.13561781E+05</totfact>
</mgrwt>
</event>
<event>
 5    1  0.6113696E+000  0.9043690E+02  0.7546771E-02  0.1301797E+00
         -3   -1    0    0    0  501 -0.00000000000E+00  0.00000000000E+00  0.63351900063E+02  0.63351900063E+02  0.00000000000E+00 0.  1.
          3   -1    0    0  501    0  0.00000000000E+00 -0.00000000000E+00 -0.32275405993E+02  0.32275405993E+02  0.00000000000E+00 0. -1.
         23    2    1    2    0    0  0.00000000000E+00  0.00000000000E+00  0.31076494070E+02  0.95627306055E+02  0.90436901648E+02 0.  0.
        -13    1    3    3    0    0 -0.41108449569E+02 -0.33094023846E+00  0.35452465058E+02  0.54285278172E+02  0.00000000000E+00 0.  1.
         13    1    3    3    0    0  0.41108449569E+02  0.33094023846E+00 -0.43759709883E+01  0.41342027884E+02  0.00000000000E+00 0. -1.
<mgrwt>
<rscale>  0 0.90436902E+02</rscale>
<asrwt>0</asrwt>
<pdfrwt beam="2">  1        3 0.49654471E-02 0.90436902E+02</pdfrwt>
<pdfrwt beam="1">  1       -3 0.97464462E-02 0.90436902E+02</pdfrwt>
<totfact> 0.35783702E+04</totfact>
</mgrwt>
</event>
<event>
 5    1  0.6113696E+000  0.9087081E+02  0.7546771E-02  0.1300757E+00
          2   -1    0    0  501    0  0.00000000000E+00  0.00000000000E+00  0.10190855650E+03  0.10190855650E+03  0.00000000000E+00 0. -1.
         -2   -1    0    0    0  501 -0.00000000000E+00 -0.00000000000E+00 -0.20257140732E+02  0.20257140732E+02  0.00000000000E+00 0.  1.
         23    2    1    2    0    0  0.00000000000E+00  0.00000000000E+00  0.81651415767E+02  0.12216569723E+03  0.90870808753E+02 0.  0.
        -13    1    3    3    0    0  0.19908424195E+02  0.19453600957E+02 -0.74524155524E+01  0.28815385503E+02  0.00000000000E+00 0.  1.
         13    1    3    3    0    0 -0.19908424195E+02 -0.19453600957E+02  0.89103831319E+02  0.93350311729E+02  0.00000000000E+00 0. -1.
<mgrwt>
<rscale>  0 0.90870809E+02</rscale>
<asrwt>0</asrwt>
<pdfrwt beam="1">  1        2 0.15678239E-01 0.90870809E+02</pdfrwt>
<pdfrwt beam="2">  1       -2 0.31164832E-02 0.90870809E+02</pdfrwt>
<totfact> 0.12453249E+05</totfact>
</mgrwt>
</event>
<event>
 5    1  0.6113696E+000  0.9093829E+02  0.7546771E-02  0.1300595E+00
          1   -1    0    0  501    0  0.00000000000E+00  0.00000000000E+00  0.13871319891E+02  0.13871319891E+02  0.00000000000E+00 0. -1.
         -1   -1    0    0    0  501 -0.00000000000E+00 -0.00000000000E+00 -0.14904444339E+03  0.14904444339E+03  0.00000000000E+00 0.  1.
         23    2    1    2    0    0  0.00000000000E+00  0.00000000000E+00 -0.13517312350E+03  0.16291576328E+03  0.90938290114E+02 0.  0.
        -13    1    3    3    0    0 -0.27326412324E+02 -0.13289655853E+02 -0.69900756087E+01  0.31180264915E+02  0.00000000000E+00 0. -1.
         13    1    3    3    0    0  0.27326412324E+02  0.13289655853E+02 -0.12818304789E+03  0.13173549836E+03  0.00000000000E+00 0.  1.
<mgrwt>
<rscale>  0 0.90938290E+02</rscale>
<asrwt>0</asrwt>
<pdfrwt beam="1">  1        1 0.21340492E-02 0.90938290E+02</pdfrwt>
<pdfrwt beam="2">  1       -1 0.22929915E-01 0.90938290E+02</pdfrwt>
<totfact> 0.75411322E+04</totfact>
</mgrwt>
</event>
<event>
 5    1  0.6113696E+000  0.8769987E+02  0.7546771E-02  0.1308519E+00
         -2   -1    0    0    0  501 -0.00000000000E+00  0.00000000000E+00  0.41844943705E+03  0.41844943705E+03  0.00000000000E+00 0.  1.
          2   -1    0    0  501    0  0.00000000000E+00 -0.00000000000E+00 -0.45950991583E+01  0.45950991583E+01  0.00000000000E+00 0. -1.
         23    2    1    2    0    0  0.00000000000E+00  0.00000000000E+00  0.41385433789E+03  0.42304453621E+03  0.87699866727E+02 0.  0.
        -13    1    3    3    0    0 -0.70243170363E+01 -0.43244955220E+02  0.21575543624E+03  0.22015875056E+03  0.00000000000E+00 0.  1.
         13    1    3    3    0    0  0.70243170363E+01  0.43244955220E+02  0.19809890165E+03  0.20288578565E+03  0.00000000000E+00 0. -1.
<mgrwt>
<rscale>  0 0.87699867E+02</rscale>
<asrwt>0</asrwt>
<pdfrwt beam="2">  1        2 0.70693866E-03 0.87699867E+02</pdfrwt>
<pdfrwt beam="1">  1       -2 0.64376806E-01 0.87699867E+02</pdfrwt>
<totfact> 0.45762365E+04</totfact>
</mgrwt>
</event>
<event>
 5    1  0.6113696E+000  0.9164512E+02  0.7546771E-02  0.1298916E+00
          2   -1    0    0  501    0  0.00000000000E+00  0.00000000000E+00  0.12752065451E+02  0.12752065451E+02  0.00000000000E+00 0.  1.
         -2   -1    0    0    0  501 -0.00000000000E+00 -0.00000000000E+00 -0.16465623028E+03  0.16465623028E+03  0.00000000000E+00 0. -1.
         23    2    1    2    0    0  0.00000000000E+00  0.00000000000E+00 -0.15190416483E+03  0.17740829573E+03  0.91645120445E+02 0.  0.
        -13    1    3    3    0    0  0.27532098118E+02 -0.26828270929E+02 -0.12422870663E+03  0.13004054790E+03  0.00000000000E+00 0. -1.
         13    1    3    3    0    0 -0.27532098118E+02  0.26828270929E+02 -0.27675458202E+02  0.47367747831E+02  0.00000000000E+00 0.  1.
<mgrwt>
<rscale>  0 0.91645120E+02</rscale>
<asrwt>0</asrwt>
<pdfrwt beam="1">  1        2 0.19618564E-02 0.91645120E+02</pdfrwt>
<pdfrwt beam="2">  1       -2 0.25331726E-01 0.91645120E+02</pdfrwt>
<totfact> 0.66591036E+04</totfact>
</mgrwt>
</event>
<event>
 5    1  0.6113696E+000  0.9654055E+02  0.7546771E-02  0.1287744E+00
          1   -1    0    0  501    0  0.00000000000E+00  0.00000000000E+00  0.12551374675E+03  0.12551374675E+03  0.00000000000E+00 0. -1.
         -1   -1    0    0    0  501 -0.00000000000E+00 -0.00000000000E+00 -0.18563860533E+02  0.18563860533E+02  0.00000000000E+00 0.  1.
         23    2    1    2    0    0  0.00000000000E+00  0.00000000000E+00  0.10694988622E+03  0.14407760728E+03  0.96540554995E+02 0.  0.
        -13    1    3    3    0    0  0.11726307231E+01 -0.48111554707E+02  0.47906266166E+02  0.67905133069E+02  0.00000000000E+00 0.  1.
         13    1    3    3    0    0 -0.11726307231E+01  0.48111554707E+02  0.59043620051E+02  0.76172474214E+02  0.00000000000E+00 0. -1.
<mgrwt>
<rscale>  0 0.96540555E+02</rscale>
<asrwt>0</asrwt>
<pdfrwt beam="1">  1        1 0.19309807E-01 0.96540555E+02</pdfrwt>
<pdfrwt beam="2">  1       -1 0.28559786E-02 0.96540555E+02</pdfrwt>
<totfact> 0.92949918E+04</totfact>
</mgrwt>
</event>
<event>
 5    1  0.6113696E+000  0.8984412E+02  0.7546771E-02  0.1303230E+00
         -2   -1    0    0    0  501 -0.00000000000E+00  0.00000000000E+00  0.22736582833E+03  0.22736582833E+03  0.00000000000E+00 0.  1.
          2   -1    0    0  501    0  0.00000000000E+00 -0.00000000000E+00 -0.88755266707E+01  0.88755266707E+01  0.00000000000E+00 0. -1.
         23    2    1    2    0    0  0.00000000000E+00  0.00000000000E+00  0.21849030165E+03  0.23624135500E+03  0.89844119970E+02 0.  0.
        -13    1    3    3    0    0 -0.24515696057E+02 -0.36455368878E+02  0.84581702232E+02  0.95310427686E+02  0.00000000000E+00 0. -1.
         13    1    3    3    0    0  0.24515696057E+02  0.36455368878E+02  0.13390859942E+03  0.14093092731E+03  0.00000000000E+00 0.  1.
<mgrwt>
<rscale>  0 0.89844120E+02</rscale>
<asrwt>0</asrwt>
<pdfrwt beam="2">  1        2 0.13654658E-02 0.89844120E+02</pdfrwt>
<pdfrwt beam="1">  1       -2 0.34979354E-01 0.89844120E+02</pdfrwt>
<totfact> 0.61076697E+04</totfact>
</mgrwt>
</event>
<event>
 5    1  0.6113696E+000  0.9039598E+02  0.7546771E-02  0.1301896E+00
          1   -1    0    0  501    0  0.00000000000E+00  0.00000000000E+00  0.81450692350E+01  0.81450692350E+01  0.00000000000E+00 0. -1.
         -1   -1    0    0    0  501 -0.00000000000E+00 -0.00000000000E+00 -0.25080922420E+03  0.25080922420E+03  0.00000000000E+00 0.  1.
         23    2    1    2    0    0  0.00000000000E+00  0.00000000000E+00 -0.24266415496E+03  0.25895429343E+03  0.90395984333E+02 0.  0.
        -13    1    3    3    0    0 -0.34979370756E+02 -0.28495336152E+02 -0.11358267440E+03  0.12221523835E+03  0.00000000000E+00 0.  1.
         13    1    3    3    0    0  0.34979370756E+02  0.28495336152E+02 -0.12908148056E+03  0.13673905508E+03  0.00000000000E+00 0. -1.
<mgrwt>
<rscale>  0 0.90395984E+02</rscale>
<asrwt>0</asrwt>
<pdfrwt beam="1">  1        1 0.12530875E-02 0.90395984E+02</pdfrwt>
<pdfrwt beam="2">  1       -1 0.38586036E-01 0.90395984E+02</pdfrwt>
<totfact> 0.66162328E+04</totfact>
</mgrwt>
</event>
<event>
 5    1  0.6113696E+000  0.9484419E+02  0.7546771E-02  0.1291527E+00
         -2   -1    0    0    0  501 -0.00000000000E+00  0.00000000000E+00  0.30774916605E+03  0.30774916605E+03  0.00000000000E+00 0.  1.
          2   -1    0    0  501    0  0.00000000000E+00 -0.00000000000E+00 -0.73074289107E+01  0.73074289107E+01  0.00000000000E+00 0. -1.
         23    2    1    2    0    0  0.00000000000E+00  0.00000000000E+00  0.30044173714E+03  0.31505659496E+03  0.94844191245E+02 0.  0.
        -13    1    3    3    0    0 -0.45598581791E+02  0.19730495862E+00  0.10696228694E+03  0.11627639665E+03  0.00000000000E+00 0. -1.
         13    1    3    3    0    0  0.45598581791E+02 -0.19730495862E+00  0.19347945020E+03  0.19878019831E+03  0.00000000000E+00 0.  1.
<mgrwt>
<rscale>  0 0.94844191E+02</rscale>
<asrwt>0</asrwt>
<pdfrwt beam="2">  1        2 0.11242201E-02 0.94844191E+02</pdfrwt>
<pdfrwt beam="1">  1       -2 0.47346016E-01 0.94844191E+02</pdfrwt>
<totfact> 0.45405821E+04</totfact>
</mgrwt>
</event>
<event>
 5    1  0.6113696E+000  0.9345940E+02  0.7546771E-02  0.1294684E+00
         -4   -1    0    0    0  501 -0.00000000000E+00  0.00000000000E+00  0.29728781093E+02  0.29728781093E+02  0.00000000000E+00 0.  1.
          4   -1    0    0  501    0  0.00000000000E+00 -0.00000000000E+00 -0.73452886507E+02  0.73452886507E+02  0.00000000000E+00 0. -1.
         23    2    1    2    0    0  0.00000000000E+00  0.00000000000E+00 -0.43724105413E+02  0.10318166760E+03  0.93459398321E+02 0.  0.
        -13    1    3    3    0    0  0.69116493250E+01  0.24235753788E+02  0.21582794014E+02  0.33180712100E+02  0.00000000000E+00 0.  1.
         13    1    3    3    0    0 -0.69116493250E+01 -0.24235753788E+02 -0.65306899427E+02  0.70000955499E+02  0.00000000000E+00 0. -1.
<mgrwt>
<rscale>  0 0.93459398E+02</rscale>
<asrwt>0</asrwt>
<pdfrwt beam="2">  1        4 0.11300444E-01 0.93459398E+02</pdfrwt>
<pdfrwt beam="1">  1       -4 0.45736587E-02 0.93459398E+02</pdfrwt>
<totfact> 0.24555287E+04</totfact>
</mgrwt>
</event>
<event>
 5    1  0.6113696E+000  0.9152140E+02  0.7546771E-02  0.1299209E+00
          3   -1    0    0  501    0  0.00000000000E+00  0.00000000000E+00  0.10484441883E+02  0.10484441883E+02  0.00000000000E+00 0. -1.
         -3   -1    0    0    0  501 -0.00000000000E+00 -0.00000000000E+00 -0.19972847588E+03  0.19972847588E+03  0.00000000000E+00 0.  1.
         23    2    1    2    0    0  0.00000000000E+00  0.00000000000E+00 -0.18924403400E+03  0.21021291776E+03  0.91521398540E+02 0.  0.
        -13    1    3    3    0    0 -0.26138459361E+02 -0.37426901668E+02 -0.10190334379E+03  0.11166146829E+03  0.00000000000E+00 0. -1.
         13    1    3    3    0    0  0.26138459361E+02  0.37426901668E+02 -0.87340690213E+02  0.98551449472E+02  0.00000000000E+00 0.  1.
<mgrwt>
<rscale>  0 0.91521399E+02</rscale>
<asrwt>0</asrwt>
<pdfrwt beam="1">  1        3 0.16129911E-02 0.91521399E+02</pdfrwt>
<pdfrwt beam="2">  1       -3 0.30727457E-01 0.91521399E+02</pdfrwt>
<totfact> 0.27693631E+04</totfact>
</mgrwt>
</event>
<event>
 5    1  0.6113696E+000  0.9143348E+02  0.7546771E-02  0.1299417E+00
          3   -1    0    0  501    0  0.00000000000E+00  0.00000000000E+00  0.84278276128E+02  0.84278276128E+02  0.00000000000E+00 0. -1.
         -3   -1    0    0    0  501 -0.00000000000E+00 -0.00000000000E+00 -0.24799041289E+02  0.24799041289E+02  0.00000000000E+00 0.  1.
         23    2    1    2    0    0  0.00000000000E+00  0.00000000000E+00  0.59479234840E+02  0.10907731742E+03  0.91433482914E+02 0.  0.
        -13    1    3    3    0    0 -0.17308291749E+02  0.45372631304E+01 -0.20448192096E+02  0.27171534370E+02  0.00000000000E+00 0.  1.
         13    1    3    3    0    0  0.17308291749E+02 -0.45372631304E+01  0.79927426936E+02  0.81905783047E+02  0.00000000000E+00 0. -1.
<mgrwt>
<rscale>  0 0.91433483E+02</rscale>
<asrwt>0</asrwt>
<pdfrwt beam="1">  1        3 0.12965889E-01 0.91433483E+02</pdfrwt>
<pdfrwt beam="2">  1       -3 0.38152372E-02 0.91433483E+02</pdfrwt>
<totfact> 0.33751338E+04</totfact>
</mgrwt>
</event>
<event>
 5    1  0.6113696E+000  0.9106286E+02  0.7546771E-02  0.1300298E+00
         -1   -1    0    0    0  501 -0.00000000000E+00  0.00000000000E+00  0.62128508496E+01  0.62128508496E+01  0.00000000000E+00 0.  1.
          1   -1    0    0  501    0  0.00000000000E+00 -0.00000000000E+00 -0.33368114415E+03  0.33368114415E+03  0.00000000000E+00 0. -1.
         23    2    1    2    0    0  0.00000000000E+00  0.00000000000E+00 -0.32746829330E+03  0.33989399500E+03  0.91062861364E+02 0.  0.
        -13    1    3    3    0    0  0.27132296011E+02  0.36066542574E+02 -0.18617718114E+03  0.19156956897E+03  0.00000000000E+00 0. -1.
         13    1    3    3    0    0 -0.27132296011E+02 -0.36066542574E+02 -0.14129111216E+03  0.14832442603E+03  0.00000000000E+00 0.  1.
<mgrwt>
<rscale>  0 0.91062861E+02</rscale>
<asrwt>0</asrwt>
<pdfrwt beam="2">  1        1 0.51335557E-01 0.91062861E+02</pdfrwt>
<pdfrwt beam="1">  1       -1 0.95582327E-03 0.91062861E+02</pdfrwt>
<totfact> 0.13113491E+05</totfact>
</mgrwt>
</event>
<event>
 5    1  0.6113696E+000  0.8929278E+02  0.7546771E-02  0.1304573E+00
         -3   -1    0    0    0  501 -0.00000000000E+00  0.00000000000E+00  0.66137340869E+02  0.66137340869E+02  0.00000000000E+00 0.  1.
          3   -1    0    0  501    0  0.00000000000E+00 -0.00000000000E+00 -0.30138803609E+02  0.30138803609E+02  0.00000000000E+00 0. -1.
         23    2    1    2    0    0  0.00000000000E+00  0.00000000000E+00  0.35998537260E+02  0.96276144478E+02  0.89292784203E+02 0.  0.
        -13    1    3    3    0    0  0.29301833911E+02  0.27215374948E+02  0.39401787489E+02  0.56140671188E+02  0.00000000000E+00 0.  1.
         13    1    3    3    0    0 -0.29301833911E+02 -0.27215374948E+02 -0.34032502286E+01  0.40135473290E+02  0.00000000000E+00 0. -1.
<mgrwt>
<rscale>  0 0.89292784E+02</rscale>
<asrwt>0</asrwt>
<pdfrwt beam="2">  1        3 0.46367390E-02 0.89292784E+02</pdfrwt>
<pdfrwt beam="1">  1       -3 0.10174976E-01 0.89292784E+02</pdfrwt>
<totfact> 0.36989748E+04</totfact>
</mgrwt>
</event>
<event>
 5    1  0.6113696E+000  0.9013024E+02  0.7546771E-02  0.1302537E+00
         -1   -1    0    0    0  501 -0.00000000000E+00  0.00000000000E+00  0.73741619488E+02  0.73741619488E+02  0.00000000000E+00 0.  1.
          1   -1    0    0  501    0  0.00000000000E+00 -0.00000000000E+00 -0.27540282549E+02  0.27540282549E+02  0.00000000000E+00 0. -1.
         23    2    1    2    0    0  0.00000000000E+00  0.00000000000E+00  0.46201336939E+02  0.10128190204E+03  0.90130239905E+02 0.  0.
        -13    1    3    3    0    0 -0.73788591603E+01  0.44248461252E+02  0.18268486401E+02  0.48436674959E+02  0.00000000000E+00 0.  1.
         13    1    3    3    0    0  0.73788591603E+01 -0.44248461252E+02  0.27932850538E+02  0.52845227078E+02  0.00000000000E+00 0. -1.
<mgrwt>
<rscale>  0 0.90130240E+02</rscale>
<asrwt>0</asrwt>
<pdfrwt beam="2">  1        1 0.42369666E-02 0.90130240E+02</pdfrwt>
<pdfrwt beam="1">  1       -1 0.11344864E-01 0.90130240E+02</pdfrwt>
<totfact> 0.88372927E+04</totfact>
</mgrwt>
</event>
<event>
 5    1  0.6113696E+000  0.9312427E+02  0.7546771E-02  0.1295457E+00
         -2   -1    0    0    0  501 -0.00000000000E+00  0.00000000000E+00  0.40539186376E+03  0.40539186376E+03  0.00000000000E+00 0.  1.
          2   -1    0    0  501    0  0.00000000000E+00 -0.00000000000E+00 -0.53479914370E+01  0.53479914370E+01  0.00000000000E+00 0. -1.
         23    2    1    2    0    0  0.00000000000E+00  0.00000000000E+00  0.40004387232E+03  0.41073985520E+03  0.93124265710E+02 0.  0.
        -13    1    3    3    0    0 -0.28439434079E+02  0.36162520670E+02  0.16836857424E+03  0.17454084365E+03  0.00000000000E+00 0.  1.
         13    1    3    3    0    0  0.28439434079E+02 -0.36162520670E+02  0.23167529809E+03  0.23619901155E+03  0.00000000000E+00 0. -1.
<mgrwt>
<rscale>  0 0.93124266E+02</rscale>
<asrwt>0</asrwt>
<pdfrwt beam="2">  1        2 0.82276823E-03 0.93124266E+02</pdfrwt>
<pdfrwt beam="1">  1       -2 0.62367955E-01 0.93124266E+02</pdfrwt>
<totfact> 0.40053738E+04</totfact>
</mgrwt>
</event>
<event>
 5    1  0.6113696E+000  0.9675653E+02  0.7546771E-02  0.1287268E+00
          1   -1    0    0  501    0  0.00000000000E+00  0.00000000000E+00  0.74658182122E+02  0.74658182122E+02  0.00000000000E+00 0. -1.
         -1   -1    0    0    0  501 -0.00000000000E+00 -0.00000000000E+00 -0.31348965022E+02  0.31348965022E+02  0.00000000000E+00 0.  1.
         23    2    1    2    0    0  0.00000000000E+00  0.00000000000E+00  0.43309217100E+02  0.10600714714E+03  0.96756534456E+02 0.  0.
        -13    1    3    3    0    0  0.39528948004E+02 -0.42844345812E+01 -0.85405029043E+01  0.40667361604E+02  0.00000000000E+00 0.  1.
         13    1    3    3    0    0 -0.39528948004E+02  0.42844345812E+01  0.51849720004E+02  0.65339785541E+02  0.00000000000E+00 0. -1.
<mgrwt>
<rscale>  0 0.96756534E+02</rscale>
<asrwt>0</asrwt>
<pdfrwt beam="1">  1        1 0.11485874E-01 0.96756534E+02</pdfrwt>
<pdfrwt beam="2">  1       -1 0.48229177E-02 0.96756534E+02</pdfrwt>
<totfact> 0.84562123E+04</totfact>
</mgrwt>
</event>
<event>
 5    1  0.6113696E+000  0.9644988E+02  0.7546771E-02  0.1287944E+00
          1   -1    0    0  501    0  0.00000000000E+00  0.00000000000E+00  0.20586917147E+03  0.20586917147E+03  0.00000000000E+00 0. -1.
         -1   -1    0    0    0  501 -0.00000000000E+00 -0.00000000000E+00 -0.11296713347E+02  0.11296713347E+02  0.00000000000E+00 0.  1.
         23    2    1    2    0    0  0.00000000000E+00  0.00000000000E+00  0.19457245813E+03  0.21716588482E+03  0.96449883716E+02 0.  0.
        -13    1    3    3    0    0  0.33364653394E+02  0.22664503370E+02  0.15680521592E+03  0.16190971419E+03  0.00000000000E+00 0.  1.
         13    1    3    3    0    0 -0.33364653394E+02 -0.22664503370E+02  0.37767242209E+02  0.55256170634E+02  0.00000000000E+00 0. -1.
<mgrwt>
<rscale>  0 0.96449884E+02</rscale>
<asrwt>0</asrwt>
<pdfrwt beam="1">  1        1 0.31672177E-01 0.96449884E+02</pdfrwt>
<pdfrwt beam="2">  1       -1 0.17379561E-02 0.96449884E+02</pdfrwt>
<totfact> 0.10235746E+05</totfact>
</mgrwt>
</event>
<event>
 5    1  0.6113696E+000  0.9140732E+02  0.7546771E-02  0.1299479E+00
         -3   -1    0    0    0  501 -0.00000000000E+00  0.00000000000E+00  0.23687700891E+02  0.23687700891E+02  0.00000000000E+00 0.  1.
          3   -1    0    0  501    0  0.00000000000E+00 -0.00000000000E+00 -0.88181816230E+02  0.88181816230E+02  0.00000000000E+00 0. -1.
         23    2    1    2    0    0  0.00000000000E+00  0.00000000000E+00 -0.64494115340E+02  0.11186951712E+03  0.91407318895E+02 0.  0.
        -13    1    3    3    0    0  0.88765762045E+01 -0.38416826411E+02 -0.60533213261E+02  0.72242065753E+02  0.00000000000E+00 0. -1.
         13    1    3    3    0    0 -0.88765762045E+01  0.38416826411E+02 -0.39609020790E+01  0.39627451368E+02  0.00000000000E+00 0.  1.
<mgrwt>
<rscale>  0 0.91407319E+02</rscale>
<asrwt>0</asrwt>
<pdfrwt beam="2">  1        3 0.13566433E-01 0.91407319E+02</pdfrwt>
<pdfrwt beam="1">  1       -3 0.36442617E-02 0.91407319E+02</pdfrwt>
<totfact> 0.33580264E+04</totfact>
</mgrwt>
</event>
<event>
 5    1  0.6113696E+000  0.1017653E+03  0.7546771E-02  0.1276627E+00
          2   -1    0    0  501    0  0.00000000000E+00  0.00000000000E+00  0.38858468097E+03  0.38858468097E+03  0.00000000000E+00 0.  1.
         -2   -1    0    0    0  501 -0.00000000000E+00 -0.00000000000E+00 -0.66627516924E+01  0.66627516924E+01  0.00000000000E+00 0. -1.
         23    2    1    2    0    0  0.00000000000E+00  0.00000000000E+00  0.38192192928E+03  0.39524743267E+03  0.10176528368E+03 0.  0.
        -13    1    3    3    0    0 -0.39540864845E+02 -0.28659166454E+02  0.24646360998E+03  0.25125512703E+03  0.00000000000E+00 0.  1.
         13    1    3    3    0    0  0.39540864845E+02  0.28659166454E+02  0.13545831931E+03  0.14399230564E+03  0.00000000000E+00 0. -1.
<mgrwt>
<rscale>  0 0.10176528E+03</rscale>
<asrwt>0</asrwt>
<pdfrwt beam="1">  1        2 0.59782241E-01 0.10176528E+03</pdfrwt>
<pdfrwt beam="2">  1       -2 0.10250390E-02 0.10176528E+03</pdfrwt>
<totfact> 0.14729179E+05</totfact>
</mgrwt>
</event>
<event>
 5    1  0.6113696E+000  0.8873975E+02  0.7546771E-02  0.1305933E+00
          1   -1    0    0  501    0  0.00000000000E+00  0.00000000000E+00  0.95980969687E+02  0.95980969687E+02  0.00000000000E+00 0. -1.
         -1   -1    0    0    0  501 -0.00000000000E+00 -0.00000000000E+00 -0.20511210172E+02  0.20511210172E+02  0.00000000000E+00 0.  1.
         23    2    1    2    0    0  0.00000000000E+00  0.00000000000E+00  0.75469759515E+02  0.11649217986E+03  0.88739750771E+02 0.  0.
        -13    1    3    3    0    0 -0.18574540880E+02 -0.20550792105E+02  0.83234841674E+02  0.87723357742E+02  0.00000000000E+00 0. -1.
         13    1    3    3    0    0  0.18574540880E+02  0.20550792105E+02 -0.77650821591E+01  0.28768822116E+02  0.00000000000E+00 0.  1.
<mgrwt>
<rscale>  0 0.88739751E+02</rscale>
<asrwt>0</asrwt>
<pdfrwt beam="1">  1        1 0.14766303E-01 0.88739751E+02</pdfrwt>
<pdfrwt beam="2">  1       -1 0.31555708E-02 0.88739751E+02</pdfrwt>
<totfact> 0.11168623E+05</totfact>
</mgrwt>
</event>
<event>
 5    1  0.6113696E+000  0.9105237E+02  0.7546771E-02  0.1300323E+00
          4   -1    0    0  501    0  0.00000000000E+00  0.00000000000E+00  0.13117103632E+03  0.13117103632E+03  0.00000000000E+00 0. -1.
         -4   -1    0    0    0  501 -0.00000000000E+00 -0.00000000000E+00 -0.15800998087E+02  0.15800998087E+02  0.00000000000E+00 0.  1.
         23    2    1    2    0    0  0.00000000000E+00  0.00000000000E+00  0.11537003823E+03  0.14697203440E+03  0.91052365018E+02 0.  0.
        -13    1    3    3    0    0  0.17995942052E+02  0.31861445040E+02  0.10140513763E+03  0.10780541521E+03  0.00000000000E+00 0. -1.
         13    1    3    3    0    0 -0.17995942052E+02 -0.31861445040E+02  0.13964900600E+02  0.39166619195E+02  0.00000000000E+00 0.  1.
<mgrwt>
<rscale>  0 0.91052365E+02</rscale>
<asrwt>0</asrwt>
<pdfrwt beam="1">  1        4 0.20180159E-01 0.91052365E+02</pdfrwt>
<pdfrwt beam="2">  1       -4 0.24309229E-02 0.91052365E+02</pdfrwt>
<totfact> 0.23913969E+04</totfact>
</mgrwt>
</event>
<event>
 5    1  0.6113696E+000  0.9173614E+02  0.7546771E-02  0.1298701E+00
          2   -1    0    0  501    0  0.00000000000E+00  0.00000000000E+00  0.30656179330E+03  0.30656179330E+03  0.00000000000E+00 0.  1.
         -2   -1    0    0    0  501 -0.00000000000E+00 -0.00000000000E+00 -0.68628251635E+01  0.68628251635E+01  0.00000000000E+00 0. -1.
         23    2    1    2    0    0  0.00000000000E+00  0.00000000000E+00  0.29969896814E+03  0.31342461847E+03  0.91736143134E+02 0.  0.
        -13    1    3    3    0    0  0.10191243918E+02  0.42365928967E+02  0.19878506968E+03  0.20350488279E+03  0.00000000000E+00 0. -1.
         13    1    3    3    0    0 -0.10191243918E+02 -0.42365928967E+02  0.10091389846E+03  0.10991973568E+03  0.00000000000E+00 0.  1.
<mgrwt>
<rscale>  0 0.91736143E+02</rscale>
<asrwt>0</asrwt>
<pdfrwt beam="1">  1        2 0.47163342E-01 0.91736143E+02</pdfrwt>
<pdfrwt beam="2">  1       -2 0.10558195E-02 0.91736143E+02</pdfrwt>
<totfact> 0.17817958E+05</totfact>
</mgrwt>
</event>
<event>
 5    1  0.6113696E+000  0.8977082E+02  0.7546771E-02  0.1303408E+00
          3   -1    0    0  501    0  0.00000000000E+00  0.00000000000E+00  0.15964014028E+03  0.15964014028E+03  0.00000000000E+00 0. -1.
         -3   -1    0    0    0  501 -0.00000000000E+00 -0.00000000000E+00 -0.12620258736E+02  0.12620258736E+02  0.00000000000E+00 0.  1.
         23    2    1    2    0    0  0.00000000000E+00  0.00000000000E+00  0.14701988154E+03  0.17226039901E+03  0.89770816526E+02 0.  0.
        -13    1    3    3    0    0  0.30282263642E+02  0.24521126273E+02  0.11626284413E+03  0.12261871818E+03  0.00000000000E+00 0. -1.
         13    1    3    3    0    0 -0.30282263642E+02 -0.24521126273E+02  0.30757037418E+02  0.49641680831E+02  0.00000000000E+00 0.  1.
<mgrwt>
<rscale>  0 0.89770817E+02</rscale>
<asrwt>0</asrwt>
<pdfrwt beam="1">  1        3 0.24560020E-01 0.89770817E+02</pdfrwt>
<pdfrwt beam="2">  1       -3 0.19415784E-02 0.89770817E+02</pdfrwt>
<totfact> 0.31282279E+04</totfact>
</mgrwt>
</event>
<event>
 5    1  0.6113696E+000  0.9112553E+02  0.7546771E-02  0.1300149E+00
          1   -1    0    0  501    0  0.00000000000E+00  0.00000000000E+00  0.11930667173E+03  0.11930667173E+03  0.00000000000E+00 0. -1.
         -1   -1    0    0    0  501 -0.00000000000E+00 -0.00000000000E+00 -0.17400248335E+02  0.17400248335E+02  0.00000000000E+00 0.  1.
         23    2    1    2    0    0  0.00000000000E+00  0.00000000000E+00  0.10190642340E+03  0.13670692007E+03  0.91125533550E+02 0.  0.
        -13    1    3    3    0    0 -0.22736400786E+02  0.38013114581E+02  0.34933662369E+02  0.56411892074E+02  0.00000000000E+00 0.  1.
         13    1    3    3    0    0  0.22736400786E+02 -0.38013114581E+02  0.66972761026E+02  0.80295027993E+02  0.00000000000E+00 0. -1.
<mgrwt>
<rscale>  0 0.91125534E+02</rscale>
<asrwt>0</asrwt>
<pdfrwt beam="1">  1        1 0.18354872E-01 0.91125534E+02</pdfrwt>
<pdfrwt beam="2">  1       -1 0.26769614E-02 0.91125534E+02</pdfrwt>
<totfact> 0.10779503E+05</totfact>
</mgrwt>
</event>
<event>
 5    1  0.6113696E+000  0.9085397E+02  0.7546771E-02  0.1300797E+00
          2   -1    0    0  501    0  0.00000000000E+00  0.00000000000E+00  0.19891156142E+03  0.19891156142E+03  0.00000000000E+00 0. -1.
         -2   -1    0    0    0  501 -0.00000000000E+00 -0.00000000000E+00 -0.10374514856E+02  0.10374514856E+02  0.00000000000E+00 0.  1.
         23    2    1    2    0    0  0.00000000000E+00  0.00000000000E+00  0.18853704656E+03  0.20928607627E+03  0.90853969622E+02 0.  0.
        -13    1    3    3    0    0  0.32291430799E+02 -0.17617768463E+02  0.15566946188E+03  0.15995656795E+03  0.00000000000E+00 0. -1.
         13    1    3    3    0    0 -0.32291430799E+02  0.17617768463E+02  0.32867584681E+02  0.49329508323E+02  0.00000000000E+00 0.  1.
<mgrwt>
<rscale>  0 0.90853970E+02</rscale>
<asrwt>0</asrwt>
<pdfrwt beam="1">  1        2 0.30601776E-01 0.90853970E+02</pdfrwt>
<pdfrwt beam="2">  1       -2 0.15960794E-02 0.90853970E+02</pdfrwt>
<totfact> 0.15585608E+05</totfact>
</mgrwt>
</event>
<event>
 5    1  0.6113696E+000  0.9395400E+02  0.7546771E-02  0.1293549E+00
          2   -1    0    0  501    0  0.00000000000E+00  0.00000000000E+00  0.65549425724E+02  0.65549425724E+02  0.00000000000E+00 0. -1.
         -2   -1    0    0    0  501 -0.00000000000E+00 -0.00000000000E+00 -0.33666787129E+02  0.33666787129E+02  0.00000000000E+00 0.  1.
         23    2    1    2    0    0  0.00000000000E+00  0.00000000000E+00  0.31882638596E+02  0.99216212853E+02  0.93954000709E+02 0.  0.
        -13    1    3    3    0    0  0.95526112142E+01 -0.42178104618E+02  0.35315365963E+02  0.55833860365E+02  0.00000000000E+00 0.  1.
         13    1    3    3    0    0 -0.95526112142E+01  0.42178104618E+02 -0.34327273670E+01  0.43382352488E+02  0.00000000000E+00 0. -1.
<mgrwt>
<rscale>  0 0.93954001E+02</rscale>
<asrwt>0</asrwt>
<pdfrwt beam="1">  1        2 0.10084527E-01 0.93954001E+02</pdfrwt>
<pdfrwt beam="2">  1       -2 0.51795057E-02 0.93954001E+02</pdfrwt>
<totfact> 0.99833947E+04</totfact>
</mgrwt>
</event>
<event>
 5    1  0.6113696E+000  0.8771607E+02  0.7546771E-02  0.1308479E+00
          1   -1    0    0  501    0  0.00000000000E+00  0.00000000000E+00  0.47398361909E+02  0.47398361909E+02  0.00000000000E+00 0. -1.
         -1   -1    0    0    0  501 -0.00000000000E+00 -0.00000000000E+00 -0.40582148957E+02  0.40582148957E+02  0.00000000000E+00 0.  1.
         23    2    1    2    0    0  0.00000000000E+00  0.00000000000E+00  0.68162129516E+01  0.87980510866E+02  0.87716073403E+02 0.  0.
        -13    1    3    3    0    0  0.11716299033E+02 -0.42046722634E+02  0.77022320460E+01  0.44322939047E+02  0.00000000000E+00 0. -1.
         13    1    3    3    0    0 -0.11716299033E+02  0.42046722634E+02 -0.88601909438E+00  0.43657571819E+02  0.00000000000E+00 0.  1.
<mgrwt>
<rscale>  0 0.87716073E+02</rscale>
<asrwt>0</asrwt>
<pdfrwt beam="1">  1        1 0.72920557E-02 0.87716073E+02</pdfrwt>
<pdfrwt beam="2">  1       -1 0.62434075E-02 0.87716073E+02</pdfrwt>
<totfact> 0.10362214E+05</totfact>
</mgrwt>
</event>
<event>
 5    1  0.6113696E+000  0.9152474E+02  0.7546771E-02  0.1299201E+00
         -2   -1    0    0    0  501 -0.00000000000E+00  0.00000000000E+00  0.38418189649E+02  0.38418189649E+02  0.00000000000E+00 0.  1.
          2   -1    0    0  501    0  0.00000000000E+00 -0.00000000000E+00 -0.54510491129E+02  0.54510491129E+02  0.00000000000E+00 0. -1.
         23    2    1    2    0    0  0.00000000000E+00  0.00000000000E+00 -0.16092301479E+02  0.92928680778E+02  0.91524737335E+02 0.  0.
        -13    1    3    3    0    0 -0.10711683159E+02 -0.69520163532E+01  0.36572489144E+02  0.38737806464E+02  0.00000000000E+00 0.  1.
         13    1    3    3    0    0  0.10711683159E+02  0.69520163532E+01 -0.52664790623E+02  0.54190874314E+02  0.00000000000E+00 0. -1.
<mgrwt>
<rscale>  0 0.91524737E+02</rscale>
<asrwt>0</asrwt>
<pdfrwt beam="2">  1        2 0.83862294E-02 0.91524737E+02</pdfrwt>
<pdfrwt beam="1">  1       -2 0.59104908E-02 0.91524737E+02</pdfrwt>
<totfact> 0.10228378E+05</totfact>
</mgrwt>
</event>
<event>
 5    1  0.6113696E+000  0.9150945E+02  0.7546771E-02  0.1299237E+00
          2   -1    0    0  501    0  0.00000000000E+00  0.00000000000E+00  0.36620674241E+02  0.36620674241E+02  0.00000000000E+00 0. -1.
         -2   -1    0    0    0  501 -0.00000000000E+00 -0.00000000000E+00 -0.57167015121E+02  0.57167015121E+02  0.00000000000E+00 0.  1.
         23    2    1    2    0    0  0.00000000000E+00  0.00000000000E+00 -0.20546340879E+02  0.93787689362E+02  0.91509445154E+02 0.  0.
        -13    1    3    3    0    0  0.36804943535E+02 -0.31073829792E+01 -0.37949828542E+02  0.52957050371E+02  0.00000000000E+00 0.  1.
         13    1    3    3    0    0 -0.36804943535E+02  0.31073829792E+01  0.17403487662E+02  0.40830638991E+02  0.00000000000E+00 0. -1.
<mgrwt>
<rscale>  0 0.91509445E+02</rscale>
<asrwt>0</asrwt>
<pdfrwt beam="1">  1        2 0.56339499E-02 0.91509445E+02</pdfrwt>
<pdfrwt beam="2">  1       -2 0.87949254E-02 0.91509445E+02</pdfrwt>
<totfact> 0.92244434E+04</totfact>
</mgrwt>
</event>
<event>
 5    1  0.6113696E+000  0.9053693E+02  0.7546771E-02  0.1301557E+00
         -1   -1    0    0    0  501 -0.00000000000E+00  0.00000000000E+00  0.20278023766E+02  0.20278023766E+02  0.00000000000E+00 0.  1.
          1   -1    0    0  501    0  0.00000000000E+00 -0.00000000000E+00 -0.10105688439E+03  0.10105688439E+03  0.00000000000E+00 0. -1.
         23    2    1    2    0    0  0.00000000000E+00  0.00000000000E+00 -0.80778860624E+02  0.12133490816E+03  0.90536929557E+02 0.  0.
        -13    1    3    3    0    0  0.15890813345E+02 -0.23500968259E+02 -0.87665740427E+02  0.92141714236E+02  0.00000000000E+00 0. -1.
         13    1    3    3    0    0 -0.15890813345E+02  0.23500968259E+02  0.68868798025E+01  0.29193193920E+02  0.00000000000E+00 0.  1.
<mgrwt>
<rscale>  0 0.90536930E+02</rscale>
<asrwt>0</asrwt>
<pdfrwt beam="2">  1        1 0.15547213E-01 0.90536930E+02</pdfrwt>
<pdfrwt beam="1">  1       -1 0.31196959E-02 0.90536930E+02</pdfrwt>
<totfact> 0.10666045E+05</totfact>
</mgrwt>
</event>
<event>
 5    1  0.6113696E+000  0.9176303E+02  0.7546771E-02  0.1298638E+00
         -2   -1    0    0    0  501 -0.00000000000E+00  0.00000000000E+00  0.35043130759E+02  0.35043130759E+02  0.00000000000E+00 0.  1.
          2   -1    0    0  501    0  0.00000000000E+00 -0.00000000000E+00 -0.60072068293E+02  0.60072068293E+02  0.00000000000E+00 0. -1.
         23    2    1    2    0    0  0.00000000000E+00  0.00000000000E+00 -0.25028937534E+02  0.95115199052E+02  0.91763028375E+02 0.  0.
        -13    1    3    3    0    0  0.48706963477E+01 -0.22801376928E+02 -0.53473658048E+02  0.58335740140E+02  0.00000000000E+00 0. -1.
         13    1    3    3    0    0 -0.48706963477E+01  0.22801376928E+02  0.28444720514E+02  0.36779458911E+02  0.00000000000E+00 0.  1.
<mgrwt>
<rscale>  0 0.91763028E+02</rscale>
<asrwt>0</asrwt>
<pdfrwt beam="2">  1        2 0.92418566E-02 0.91763028E+02</pdfrwt>
<pdfrwt beam="1">  1       -2 0.53912509E-02 0.91763028E+02</pdfrwt>
<totfact> 0.10419996E+05</totfact>
</mgrwt>
</event>
<event>
 5    1  0.6113696E+000  0.9100421E+02  0.7546771E-02  0.1300438E+00
         -1   -1    0    0    0  501 -0.00000000000E+00  0.00000000000E+00  0.29174187556E+03  0.29174187556E+03  0.00000000000E+00 0.  1.
          1   -1    0    0  501    0  0.00000000000E+00 -0.00000000000E+00 -0.70968263322E+01  0.70968263322E+01  0.00000000000E+00 0. -1.
         23    2    1    2    0    0  0.00000000000E+00  0.00000000000E+00  0.28464504922E+03  0.29883870189E+03  0.91004207038E+02 0.  0.
        -13    1    3    3    0    0  0.11317769594E+02 -0.40101959291E+02  0.82292690476E+02  0.92240695755E+02  0.00000000000E+00 0.  1.
         13    1    3    3    0    0 -0.11317769594E+02  0.40101959291E+02  0.20235235875E+03  0.20659800613E+03  0.00000000000E+00 0. -1.
<mgrwt>
<rscale>  0 0.91004207E+02</rscale>
<asrwt>0</asrwt>
<pdfrwt beam="2">  1        1 0.10918197E-02 0.91004207E+02</pdfrwt>
<pdfrwt beam="1">  1       -1 0.44883356E-01 0.91004207E+02</pdfrwt>
<totfact> 0.61552583E+04</totfact>
</mgrwt>
</event>
<event>
 5    1  0.6113696E+000  0.9001990E+02  0.7546771E-02  0.1302804E+00
          1   -1    0    0  501    0  0.00000000000E+00  0.00000000000E+00  0.24907452213E+02  0.24907452213E+02  0.00000000000E+00 0. -1.
         -1   -1    0    0    0  501 -0.00000000000E+00 -0.00000000000E+00 -0.81336924354E+02  0.81336924354E+02  0.00000000000E+00 0.  1.
         23    2    1    2    0    0  0.00000000000E+00  0.00000000000E+00 -0.56429472141E+02  0.10624437657E+03  0.90019899055E+02 0.  0.
        -13    1    3    3    0    0  0.19751416712E+02 -0.19038208417E+02 -0.70329739910E+02  0.75490689211E+02  0.00000000000E+00 0.  1.
         13    1    3    3    0    0 -0.19751416712E+02  0.19038208417E+02  0.13900267769E+02  0.30753687355E+02  0.00000000000E+00 0. -1.
<mgrwt>
<rscale>  0 0.90019899E+02</rscale>
<asrwt>0</asrwt>
<pdfrwt beam="1">  1        1 0.38319157E-02 0.90019899E+02</pdfrwt>
<pdfrwt beam="2">  1       -1 0.12513373E-01 0.90019899E+02</pdfrwt>
<totfact> 0.87216684E+04</totfact>
</mgrwt>
</event>
<event>
 5    1  0.6113696E+000  0.8985561E+02  0.7546771E-02  0.1303202E+00
          2   -1    0    0  501    0  0.00000000000E+00  0.00000000000E+00  0.44955387210E+02  0.44955387210E+02  0.00000000000E+00 0. -1.
         -2   -1    0    0    0  501 -0.00000000000E+00 -0.00000000000E+00 -0.44900235399E+02  0.44900235399E+02  0.00000000000E+00 0.  1.
         23    2    1    2    0    0  0.00000000000E+00  0.00000000000E+00  0.55151811362E-01  0.89855622609E+02  0.89855605683E+02 0.  0.
        -13    1    3    3    0    0 -0.30352118483E+02  0.31378463361E+02 -0.10586021567E+02  0.44921296864E+02  0.00000000000E+00 0.  1.
         13    1    3    3    0    0  0.30352118483E+02 -0.31378463361E+02  0.10641173378E+02  0.44934325745E+02  0.00000000000E+00 0. -1.
<mgrwt>
<rscale>  0 0.89855606E+02</rscale>
<asrwt>0</asrwt>
<pdfrwt beam="1">  1        2 0.69162134E-02 0.89855606E+02</pdfrwt>
<pdfrwt beam="2">  1       -2 0.69077285E-02 0.89855606E+02</pdfrwt>
<totfact> 0.10251762E+05</totfact>
</mgrwt>
</event>
<event>
 5    1  0.6113696E+000  0.9158831E+02  0.7546771E-02  0.1299050E+00
         -2   -1    0    0    0  501 -0.00000000000E+00  0.00000000000E+00  0.32822300893E+02  0.32822300893E+02  0.00000000000E+00 0.  1.
          2   -1    0    0  501    0  0.00000000000E+00 -0.00000000000E+00 -0.63892672104E+02  0.63892672104E+02  0.00000000000E+00 0. -1.
         23    2    1    2    0    0  0.00000000000E+00  0.00000000000E+00 -0.31070371211E+02  0.96714972996E+02  0.91588307302E+02 0.  0.
        -13    1    3    3    0    0  0.29522381619E+02 -0.22543743185E+02 -0.43817052507E+02  0.57443236884E+02  0.00000000000E+00 0. -1.
         13    1    3    3    0    0 -0.29522381619E+02  0.22543743185E+02  0.12746681296E+02  0.39271736113E+02  0.00000000000E+00 0.  1.
<mgrwt>
<rscale>  0 0.91588307E+02</rscale>
<asrwt>0</asrwt>
<pdfrwt beam="2">  1        2 0.98296418E-02 0.91588307E+02</pdfrwt>
<pdfrwt beam="1">  1       -2 0.50495848E-02 0.91588307E+02</pdfrwt>
<totfact> 0.10652562E+05</totfact>
</mgrwt>
</event>
<event>
 5    1  0.6113696E+000  0.1151933E+03  0.7546771E-02  0.1251244E+00
         -4   -1    0    0    0  501 -0.00000000000E+00  0.00000000000E+00  0.12301473801E+03  0.12301473801E+03  0.00000000000E+00 0. -1.
          4   -1    0    0  501    0  0.00000000000E+00 -0.00000000000E+00 -0.26967276464E+02  0.26967276464E+02  0.00000000000E+00 0.  1.
         23    2    1    2    0    0  0.00000000000E+00  0.00000000000E+00  0.96047461549E+02  0.14998201448E+03  0.11519327149E+03 0.  0.
        -13    1    3    3    0    0 -0.64354599794E+01 -0.56945819328E+02  0.40529464606E+02  0.70191730178E+02  0.00000000000E+00 0.  1.
         13    1    3    3    0    0  0.64354599794E+01  0.56945819328E+02  0.55517996943E+02  0.79790284300E+02  0.00000000000E+00 0. -1.
<mgrwt>
<rscale>  0 0.11519327E+03</rscale>
<asrwt>0</asrwt>
<pdfrwt beam="2">  1        4 0.41488118E-02 0.11519327E+03</pdfrwt>
<pdfrwt beam="1">  1       -4 0.18925344E-01 0.11519327E+03</pdfrwt>
<totfact> 0.12482891E+04</totfact>
</mgrwt>
</event>
<event>
 5    1  0.6113696E+000  0.9133511E+02  0.7546771E-02  0.1299650E+00
         -1   -1    0    0    0  501 -0.00000000000E+00  0.00000000000E+00  0.21688530800E+02  0.21688530800E+02  0.00000000000E+00 0.  1.
          1   -1    0    0  501    0  0.00000000000E+00 -0.00000000000E+00 -0.96157995034E+02  0.96157995034E+02  0.00000000000E+00 0. -1.
         23    2    1    2    0    0  0.00000000000E+00  0.00000000000E+00 -0.74469464234E+02  0.11784652583E+03  0.91335111255E+02 0.  0.
        -13    1    3    3    0    0  0.35962354385E+02 -0.28144597456E+02 -0.37674820617E+02  0.59201363223E+02  0.00000000000E+00 0.  1.
         13    1    3    3    0    0 -0.35962354385E+02  0.28144597456E+02 -0.36794643617E+02  0.58645162612E+02  0.00000000000E+00 0. -1.
<mgrwt>
<rscale>  0 0.91335111E+02</rscale>
<asrwt>0</asrwt>
<pdfrwt beam="2">  1        1 0.14793538E-01 0.91335111E+02</pdfrwt>
<pdfrwt beam="1">  1       -1 0.33366971E-02 0.91335111E+02</pdfrwt>
<totfact> 0.10328618E+05</totfact>
</mgrwt>
</event>
<event>
 5    1  0.6113696E+000  0.9175912E+02  0.7546771E-02  0.1298647E+00
         -1   -1    0    0    0  501 -0.00000000000E+00  0.00000000000E+00  0.93519246877E+02  0.93519246877E+02  0.00000000000E+00 0.  1.
          1   -1    0    0  501    0  0.00000000000E+00 -0.00000000000E+00 -0.22508031419E+02  0.22508031419E+02  0.00000000000E+00 0. -1.
         23    2    1    2    0    0  0.00000000000E+00  0.00000000000E+00  0.71011215459E+02  0.11602727830E+03  0.91759122641E+02 0.  0.
        -13    1    3    3    0    0 -0.78473955716E+01  0.44849414765E+02  0.28365788659E+02  0.53643914737E+02  0.00000000000E+00 0. -1.
         13    1    3    3    0    0  0.78473955716E+01 -0.44849414765E+02  0.42645426800E+02  0.62383363559E+02  0.00000000000E+00 0.  1.
<mgrwt>
<rscale>  0 0.91759123E+02</rscale>
<asrwt>0</asrwt>
<pdfrwt beam="2">  1        1 0.34627741E-02 0.91759123E+02</pdfrwt>
<pdfrwt beam="1">  1       -1 0.14387576E-01 0.91759123E+02</pdfrwt>
<totfact> 0.81036358E+04</totfact>
</mgrwt>
</event>
<event>
 5    1  0.6113696E+000  0.9172940E+02  0.7546771E-02  0.1298717E+00
         -2   -1    0    0    0  501 -0.00000000000E+00  0.00000000000E+00  0.16937466314E+02  0.16937466314E+02  0.00000000000E+00 0.  1.
          2   -1    0    0  501    0  0.00000000000E+00 -0.00000000000E+00 -0.12419630217E+03  0.12419630217E+03  0.00000000000E+00 0. -1.
         23    2    1    2    0    0  0.00000000000E+00  0.00000000000E+00 -0.10725883585E+03  0.14113376848E+03  0.91729399523E+02 0.  0.
        -13    1    3    3    0    0 -0.34320755242E+02  0.29364543225E+02 -0.41380473647E+02  0.61257932045E+02  0.00000000000E+00 0. -1.
         13    1    3    3    0    0  0.34320755242E+02 -0.29364543225E+02 -0.65878362206E+02  0.79875836435E+02  0.00000000000E+00 0.  1.
<mgrwt>
<rscale>  0 0.91729400E+02</rscale>
<asrwt>0</asrwt>
<pdfrwt beam="2">  1        2 0.19107123E-01 0.91729400E+02</pdfrwt>
<pdfrwt beam="1">  1       -2 0.26057641E-02 0.91729400E+02</pdfrwt>
<totfact> 0.12915884E+05</totfact>
</mgrwt>
</event>
<event>
 5    1  0.6113696E+000  0.8888530E+02  0.7546771E-02  0.1305574E+00
         -3   -1    0    0    0  501 -0.00000000000E+00  0.00000000000E+00  0.54323901604E+02  0.54323901604E+02  0.00000000000E+00 0.  1.
          3   -1    0    0  501    0  0.00000000000E+00 -0.00000000000E+00 -0.36358750605E+02  0.36358750605E+02  0.00000000000E+00 0. -1.
         23    2    1    2    0    0  0.00000000000E+00  0.00000000000E+00  0.17965150999E+02  0.90682652208E+02  0.88885301153E+02 0.  0.
        -13    1    3    3    0    0 -0.12434266557E+02  0.41992031912E+02  0.12660711888E+01  0.43812608519E+02  0.00000000000E+00 0. -1.
         13    1    3    3    0    0  0.12434266557E+02 -0.41992031912E+02  0.16699079810E+02  0.46870043690E+02  0.00000000000E+00 0.  1.
<mgrwt>
<rscale>  0 0.88885301E+02</rscale>
<asrwt>0</asrwt>
<pdfrwt beam="2">  1        3 0.55936540E-02 0.88885301E+02</pdfrwt>
<pdfrwt beam="1">  1       -3 0.83575233E-02 0.88885301E+02</pdfrwt>
<totfact> 0.37910230E+04</totfact>
</mgrwt>
</event>
<event>
 5    1  0.6113696E+000  0.9100569E+02  0.7546771E-02  0.1300434E+00
         -2   -1    0    0    0  501 -0.00000000000E+00  0.00000000000E+00  0.60077559374E+01  0.60077559374E+01  0.00000000000E+00 0.  1.
          2   -1    0    0  501    0  0.00000000000E+00 -0.00000000000E+00 -0.34463931337E+03  0.34463931337E+03  0.00000000000E+00 0. -1.
         23    2    1    2    0    0  0.00000000000E+00  0.00000000000E+00 -0.33863155743E+03  0.35064706930E+03  0.91005689517E+02 0.  0.
        -13    1    3    3    0    0  0.23273682249E+01  0.42654200884E+02 -0.10891892586E+03  0.11699628159E+03  0.00000000000E+00 0.  1.
         13    1    3    3    0    0 -0.23273682249E+01 -0.42654200884E+02 -0.22971263157E+03  0.23365078771E+03  0.00000000000E+00 0. -1.
<mgrwt>
<rscale>  0 0.91005690E+02</rscale>
<asrwt>0</asrwt>
<pdfrwt beam="2">  1        2 0.53021439E-01 0.91005690E+02</pdfrwt>
<pdfrwt beam="1">  1       -2 0.92427003E-03 0.91005690E+02</pdfrwt>
<totfact> 0.19007248E+05</totfact>
</mgrwt>
</event>
<event>
 5    1  0.6113696E+000  0.9241881E+02  0.7546771E-02  0.1297098E+00
          2   -1    0    0  501    0  0.00000000000E+00  0.00000000000E+00  0.21483149225E+02  0.21483149225E+02  0.00000000000E+00 0. -1.
         -2   -1    0    0    0  501 -0.00000000000E+00 -0.00000000000E+00 -0.99394599242E+02  0.99394599242E+02  0.00000000000E+00 0.  1.
         23    2    1    2    0    0  0.00000000000E+00  0.00000000000E+00 -0.77911450017E+02  0.12087774847E+03  0.92418807776E+02 0.  0.
        -13    1    3    3    0    0 -0.24107665280E+02  0.29460300613E+02 -0.73218121766E+02  0.82522616248E+02  0.00000000000E+00 0.  1.
         13    1    3    3    0    0  0.24107665280E+02 -0.29460300613E+02 -0.46933282512E+01  0.38355132219E+02  0.00000000000E+00 0. -1.
<mgrwt>
<rscale>  0 0.92418808E+02</rscale>
<asrwt>0</asrwt>
<pdfrwt beam="1">  1        2 0.33050999E-02 0.92418808E+02</pdfrwt>
<pdfrwt beam="2">  1       -2 0.15291477E-01 0.92418808E+02</pdfrwt>
<totfact> 0.77302514E+04</totfact>
</mgrwt>
</event>
<event>
 5    1  0.6113696E+000  0.9191097E+02  0.7546771E-02  0.1298289E+00
         -1   -1    0    0    0  501 -0.00000000000E+00  0.00000000000E+00  0.32085559145E+02  0.32085559145E+02  0.00000000000E+00 0.  1.
          1   -1    0    0  501    0  0.00000000000E+00 -0.00000000000E+00 -0.65821091091E+02  0.65821091091E+02  0.00000000000E+00 0. -1.
         23    2    1    2    0    0  0.00000000000E+00  0.00000000000E+00 -0.33735531946E+02  0.97906650236E+02  0.91910968033E+02 0.  0.
        -13    1    3    3    0    0 -0.35459894137E+02  0.26398318622E+02 -0.34936238866E+01  0.44345019181E+02  0.00000000000E+00 0.  1.
         13    1    3    3    0    0  0.35459894137E+02 -0.26398318622E+02 -0.30241908059E+02  0.53561631056E+02  0.00000000000E+00 0. -1.
<mgrwt>
<rscale>  0 0.91910968E+02</rscale>
<asrwt>0</asrwt>
<pdfrwt beam="2">  1        1 0.10126322E-01 0.91910968E+02</pdfrwt>
<pdfrwt beam="1">  1       -1 0.49362399E-02 0.91910968E+02</pdfrwt>
<totfact> 0.95592263E+04</totfact>
</mgrwt>
</event>
<event>
 5    1  0.6113696E+000  0.8332866E+02  0.7546771E-02  0.1319862E+00
          2   -1    0    0  501    0  0.00000000000E+00  0.00000000000E+00  0.38462827392E+03  0.38462827392E+03  0.00000000000E+00 0. -1.
         -2   -1    0    0    0  501 -0.00000000000E+00 -0.00000000000E+00 -0.45132318939E+01  0.45132318939E+01  0.00000000000E+00 0.  1.
         23    2    1    2    0    0  0.00000000000E+00  0.00000000000E+00  0.38011504202E+03  0.38914150581E+03  0.83328664771E+02 0.  0.
        -13    1    3    3    0    0 -0.31113678442E+02 -0.25765794534E+02  0.14243779776E+03  0.14805560910E+03  0.00000000000E+00 0.  1.
         13    1    3    3    0    0  0.31113678442E+02  0.25765794534E+02  0.23767724426E+03  0.24108589671E+03  0.00000000000E+00 0. -1.
<mgrwt>
<rscale>  0 0.83328665E+02</rscale>
<asrwt>0</asrwt>
<pdfrwt beam="1">  1        2 0.59173555E-01 0.83328665E+02</pdfrwt>
<pdfrwt beam="2">  1       -2 0.69434367E-03 0.83328665E+02</pdfrwt>
<totfact> 0.24969208E+05</totfact>
</mgrwt>
</event>
<event>
 5    1  0.6113696E+000  0.9135116E+02  0.7546771E-02  0.1299612E+00
          2   -1    0    0  501    0  0.00000000000E+00  0.00000000000E+00  0.32026169311E+02  0.32026169311E+02  0.00000000000E+00 0. -1.
         -2   -1    0    0    0  501 -0.00000000000E+00 -0.00000000000E+00 -0.65142306765E+02  0.65142306765E+02  0.00000000000E+00 0.  1.
         23    2    1    2    0    0  0.00000000000E+00  0.00000000000E+00 -0.33116137454E+02  0.97168476076E+02  0.91351158630E+02 0.  0.
        -13    1    3    3    0    0  0.17957989191E+02 -0.18468044215E+02 -0.56678729367E+02  0.62257821963E+02  0.00000000000E+00 0.  1.
         13    1    3    3    0    0 -0.17957989191E+02  0.18468044215E+02  0.23562591913E+02  0.34910654113E+02  0.00000000000E+00 0. -1.
<mgrwt>
<rscale>  0 0.91351159E+02</rscale>
<asrwt>0</asrwt>
<pdfrwt beam="1">  1        2 0.49271030E-02 0.91351159E+02</pdfrwt>
<pdfrwt beam="2">  1       -2 0.10021893E-01 0.91351159E+02</pdfrwt>
<totfact> 0.89508008E+04</totfact>
</mgrwt>
</event>
<event>
 5    1  0.6113696E+000  0.7571367E+02  0.7546771E-02  0.1341675E+00
          1   -1    0    0  501    0  0.00000000000E+00  0.00000000000E+00  0.16572871343E+02  0.16572871343E+02  0.00000000000E+00 0. -1.
         -1   -1    0    0    0  501 -0.00000000000E+00 -0.00000000000E+00 -0.86475063706E+02  0.86475063706E+02  0.00000000000E+00 0.  1.
         23    2    1    2    0    0  0.00000000000E+00  0.00000000000E+00 -0.69902192364E+02  0.10304793505E+03  0.75713673934E+02 0.  0.
        -13    1    3    3    0    0  0.31590876396E+01 -0.26024741444E+02 -0.72121514292E+02  0.76738385608E+02  0.00000000000E+00 0.  1.
         13    1    3    3    0    0 -0.31590876396E+01  0.26024741444E+02  0.22193219280E+01  0.26309549441E+02  0.00000000000E+00 0. -1.
<mgrwt>
<rscale>  0 0.75713674E+02</rscale>
<asrwt>0</asrwt>
<pdfrwt beam="1">  1        1 0.25496725E-02 0.75713674E+02</pdfrwt>
<pdfrwt beam="2">  1       -1 0.13303856E-01 0.75713674E+02</pdfrwt>
<totfact> 0.13433322E+05</totfact>
</mgrwt>
</event>
<event>
 5    1  0.6113696E+000  0.9217818E+02  0.7546771E-02  0.1297661E+00
         -1   -1    0    0    0  501 -0.00000000000E+00  0.00000000000E+00  0.12096650743E+03  0.12096650743E+03  0.00000000000E+00 0.  1.
          1   -1    0    0  501    0  0.00000000000E+00 -0.00000000000E+00 -0.17560265976E+02  0.17560265976E+02  0.00000000000E+00 0. -1.
         23    2    1    2    0    0  0.00000000000E+00  0.00000000000E+00  0.10340624145E+03  0.13852677340E+03  0.92178176260E+02 0.  0.
        -13    1    3    3    0    0  0.34993324931E+02  0.21154448207E+02  0.83659086988E+02  0.93117593957E+02  0.00000000000E+00 0. -1.
         13    1    3    3    0    0 -0.34993324931E+02 -0.21154448207E+02  0.19747154465E+02  0.45409179448E+02  0.00000000000E+00 0.  1.
<mgrwt>
<rscale>  0 0.92178176E+02</rscale>
<asrwt>0</asrwt>
<pdfrwt beam="2">  1        1 0.27015795E-02 0.92178176E+02</pdfrwt>
<pdfrwt beam="1">  1       -1 0.18610231E-01 0.92178176E+02</pdfrwt>
<totfact> 0.76215957E+04</totfact>
</mgrwt>
</event>
<event>
 4    1  0.6113696E+000  0.4815806E+02  0.7546771E-02  0.1455537E+00
          2   -1    0    0  501    0  0.00000000000E+00  0.00000000000E+00  0.41243451733E+02  0.41243451733E+02  0.00000000000E+00 0. -1.
         -2   -1    0    0    0  501 -0.00000000000E+00 -0.00000000000E+00 -0.14057984118E+02  0.14057984118E+02  0.00000000000E+00 0.  1.
        -13    1    1    2    0    0  0.53297060451E+01  0.11195010608E+02 -0.10110396419E+02  0.15998566960E+02  0.00000000000E+00 0.  1.
         13    1    1    2    0    0 -0.53297060451E+01 -0.11195010608E+02  0.37295864034E+02  0.39302868891E+02  0.00000000000E+00 0. -1.
<mgrwt>
<rscale>  0 0.48158064E+02</rscale>
<asrwt>0</asrwt>
<pdfrwt beam="1">  1        2 0.63451464E-02 0.48158064E+02</pdfrwt>
<pdfrwt beam="2">  1       -2 0.21627668E-02 0.48158064E+02</pdfrwt>
<totfact> 0.54557676E+05</totfact>
</mgrwt>
</event>
<event>
 5    1  0.6113696E+000  0.9034816E+02  0.7546771E-02  0.1302011E+00
          1   -1    0    0  501    0  0.00000000000E+00  0.00000000000E+00  0.14687968700E+02  0.14687968700E+02  0.00000000000E+00 0. -1.
         -1   -1    0    0    0  501 -0.00000000000E+00 -0.00000000000E+00 -0.13893666846E+03  0.13893666846E+03  0.00000000000E+00 0.  1.
         23    2    1    2    0    0  0.00000000000E+00  0.00000000000E+00 -0.12424869976E+03  0.15362463716E+03  0.90348158533E+02 0.  0.
        -13    1    3    3    0    0 -0.12691319717E+02 -0.39241193544E+02 -0.30782437141E+02  0.51463572585E+02  0.00000000000E+00 0. -1.
         13    1    3    3    0    0  0.12691319717E+02  0.39241193544E+02 -0.93466262618E+02  0.10216106457E+03  0.00000000000E+00 0.  1.
<mgrwt>
<rscale>  0 0.90348159E+02</rscale>
<asrwt>0</asrwt>
<pdfrwt beam="1">  1        1 0.22596873E-02 0.90348159E+02</pdfrwt>
<pdfrwt beam="2">  1       -1 0.21374873E-01 0.90348159E+02</pdfrwt>
<totfact> 0.77931056E+04</totfact>
</mgrwt>
</event>
<event>
 5    1  0.6113696E+000  0.8548539E+02  0.7546771E-02  0.1314168E+00
         -1   -1    0    0    0  501 -0.00000000000E+00  0.00000000000E+00  0.99730665179E+01  0.99730665179E+01  0.00000000000E+00 0.  1.
          1   -1    0    0  501    0  0.00000000000E+00 -0.00000000000E+00 -0.18318716684E+03  0.18318716684E+03  0.00000000000E+00 0. -1.
         23    2    1    2    0    0  0.00000000000E+00  0.00000000000E+00 -0.17321410032E+03  0.19316023336E+03  0.85485385889E+02 0.  0.
        -13    1    3    3    0    0 -0.10258940205E+02 -0.36804780534E+02 -0.43314010225E+02  0.57757607344E+02  0.00000000000E+00 0.  1.
         13    1    3    3    0    0  0.10258940205E+02  0.36804780534E+02 -0.12990009010E+03  0.13540262602E+03  0.00000000000E+00 0. -1.
<mgrwt>
<rscale>  0 0.85485386E+02</rscale>
<asrwt>0</asrwt>
<pdfrwt beam="2">  1        1 0.28182640E-01 0.85485386E+02</pdfrwt>
<pdfrwt beam="1">  1       -1 0.15343180E-02 0.85485386E+02</pdfrwt>
<totfact> 0.13832297E+05</totfact>
</mgrwt>
</event>
<event>
 5    1  0.6113696E+000  0.9109241E+02  0.7546771E-02  0.1300228E+00
          1   -1    0    0  501    0  0.00000000000E+00  0.00000000000E+00  0.31619316411E+02  0.31619316411E+02  0.00000000000E+00 0. -1.
         -1   -1    0    0    0  501 -0.00000000000E+00 -0.00000000000E+00 -0.65607260136E+02  0.65607260136E+02  0.00000000000E+00 0.  1.
         23    2    1    2    0    0  0.00000000000E+00  0.00000000000E+00 -0.33987943725E+02  0.97226576547E+02  0.91092408401E+02 0.  0.
        -13    1    3    3    0    0 -0.25414571122E+02 -0.35182464631E+02 -0.31735266366E+02  0.53766470724E+02  0.00000000000E+00 0.  1.
         13    1    3    3    0    0  0.25414571122E+02  0.35182464631E+02 -0.22526773592E+01  0.43460105823E+02  0.00000000000E+00 0. -1.
<mgrwt>
<rscale>  0 0.91092408E+02</rscale>
<asrwt>0</asrwt>
<pdfrwt beam="1">  1        1 0.48645103E-02 0.91092408E+02</pdfrwt>
<pdfrwt beam="2">  1       -1 0.10093424E-01 0.91092408E+02</pdfrwt>
<totfact> 0.87649652E+04</totfact>
</mgrwt>
</event>
<event>
 5    1  0.6113696E+000  0.9186990E+02  0.7546771E-02  0.1298386E+00
         -2   -1    0    0    0  501 -0.00000000000E+00  0.00000000000E+00  0.96142251134E+02  0.96142251134E+02  0.00000000000E+00 0.  1.
          2   -1    0    0  501    0  0.00000000000E+00 -0.00000000000E+00 -0.21946849769E+02  0.21946849769E+02  0.00000000000E+00 0. -1.
         23    2    1    2    0    0  0.00000000000E+00  0.00000000000E+00  0.74195401364E+02  0.11808910090E+03  0.91869898054E+02 0.  0.
        -13    1    3    3    0    0 -0.15442464682E+02 -0.57524145218E+01  0.92211915099E+02  0.93672820362E+02  0.00000000000E+00 0.  1.
         13    1    3    3    0    0  0.15442464682E+02  0.57524145218E+01 -0.18016513735E+02  0.24416280541E+02  0.00000000000E+00 0. -1.
<mgrwt>
<rscale>  0 0.91869898E+02</rscale>
<asrwt>0</asrwt>
<pdfrwt beam="2">  1        2 0.33764385E-02 0.91869898E+02</pdfrwt>
<pdfrwt beam="1">  1       -2 0.14791115E-01 0.91869898E+02</pdfrwt>
<totfact> 0.79235898E+04</totfact>
</mgrwt>
</event>
<event>
 5    1  0.6113696E+000  0.8547999E+02  0.7546771E-02  0.1314182E+00
         -2   -1    0    0    0  501 -0.00000000000E+00  0.00000000000E+00  0.94777113637E+02  0.94777113637E+02  0.00000000000E+00 0.  1.
          2   -1    0    0  501    0  0.00000000000E+00 -0.00000000000E+00 -0.19273714051E+02  0.19273714051E+02  0.00000000000E+00 0. -1.
         23    2    1    2    0    0  0.00000000000E+00  0.00000000000E+00  0.75503399585E+02  0.11405082769E+03  0.85479985654E+02 0.  0.
        -13    1    3    3    0    0 -0.10962218630E+02  0.16562418930E+02  0.88245647624E+02  0.90453182823E+02  0.00000000000E+00 0.  1.
         13    1    3    3    0    0  0.10962218630E+02 -0.16562418930E+02 -0.12742248039E+02  0.23597644865E+02  0.00000000000E+00 0. -1.
<mgrwt>
<rscale>  0 0.85479986E+02</rscale>
<asrwt>0</asrwt>
<pdfrwt beam="2">  1        2 0.29651868E-02 0.85479986E+02</pdfrwt>
<pdfrwt beam="1">  1       -2 0.14581094E-01 0.85479986E+02</pdfrwt>
<totfact> 0.95155571E+04</totfact>
</mgrwt>
</event>
<event>
 5    1  0.6113696E+000  0.9230284E+02  0.7546771E-02  0.1297369E+00
         -1   -1    0    0    0  501 -0.00000000000E+00  0.00000000000E+00  0.42580307662E+02  0.42580307662E+02  0.00000000000E+00 0.  1.
          1   -1    0    0  501    0  0.00000000000E+00 -0.00000000000E+00 -0.50022032789E+02  0.50022032789E+02  0.00000000000E+00 0. -1.
         23    2    1    2    0    0  0.00000000000E+00  0.00000000000E+00 -0.74417251268E+01  0.92602340451E+02  0.92302839524E+02 0.  0.
        -13    1    3    3    0    0  0.23101999308E+02 -0.16924392516E+02 -0.40029676791E+02  0.49219025367E+02  0.00000000000E+00 0. -1.
         13    1    3    3    0    0 -0.23101999308E+02  0.16924392516E+02  0.32587951664E+02  0.43383315084E+02  0.00000000000E+00 0.  1.
<mgrwt>
<rscale>  0 0.92302840E+02</rscale>
<asrwt>0</asrwt>
<pdfrwt beam="2">  1        1 0.76956974E-02 0.92302840E+02</pdfrwt>
<pdfrwt beam="1">  1       -1 0.65508165E-02 0.92302840E+02</pdfrwt>
<totfact> 0.90601514E+04</totfact>
</mgrwt>
</event>
<event>
 5    1  0.6113696E+000  0.9092971E+02  0.7546771E-02  0.1300616E+00
          1   -1    0    0  501    0  0.00000000000E+00  0.00000000000E+00  0.12008523794E+02  0.12008523794E+02  0.00000000000E+00 0. -1.
         -1   -1    0    0    0  501 -0.00000000000E+00 -0.00000000000E+00 -0.17213215152E+03  0.17213215152E+03  0.00000000000E+00 0.  1.
         23    2    1    2    0    0  0.00000000000E+00  0.00000000000E+00 -0.16012362772E+03  0.18414067531E+03  0.90929709936E+02 0.  0.
        -13    1    3    3    0    0 -0.43442480018E+02  0.12408396968E+01 -0.10709990922E+03  0.11558191601E+03  0.00000000000E+00 0.  1.
         13    1    3    3    0    0  0.43442480018E+02 -0.12408396968E+01 -0.53023718501E+02  0.68558759301E+02  0.00000000000E+00 0. -1.
<mgrwt>
<rscale>  0 0.90929710E+02</rscale>
<asrwt>0</asrwt>
<pdfrwt beam="1">  1        1 0.18474653E-02 0.90929710E+02</pdfrwt>
<pdfrwt beam="2">  1       -1 0.26481868E-01 0.90929710E+02</pdfrwt>
<totfact> 0.72819850E+04</totfact>
</mgrwt>
</event>
<event>
 5    1  0.6113696E+000  0.9034774E+02  0.7546771E-02  0.1302012E+00
         -2   -1    0    0    0  501 -0.00000000000E+00  0.00000000000E+00  0.62246541950E+01  0.62246541950E+01  0.00000000000E+00 0.  1.
          2   -1    0    0  501    0  0.00000000000E+00 -0.00000000000E+00 -0.32783806730E+03  0.32783806730E+03  0.00000000000E+00 0. -1.
         23    2    1    2    0    0  0.00000000000E+00  0.00000000000E+00 -0.32161341311E+03  0.33406272150E+03  0.90347741552E+02 0.  0.
        -13    1    3    3    0    0  0.22432099219E+00 -0.43833438443E+02 -0.12042781495E+03  0.12815724427E+03  0.00000000000E+00 0.  1.
         13    1    3    3    0    0 -0.22432099219E+00  0.43833438443E+02 -0.20118559816E+03  0.20590547723E+03  0.00000000000E+00 0. -1.
<mgrwt>
<rscale>  0 0.90347742E+02</rscale>
<asrwt>0</asrwt>
<pdfrwt beam="2">  1        2 0.50436627E-01 0.90347742E+02</pdfrwt>
<pdfrwt beam="1">  1       -2 0.95763908E-03 0.90347742E+02</pdfrwt>
<totfact> 0.19024451E+05</totfact>
</mgrwt>
</event>
<event>
 5    1  0.6113696E+000  0.7574210E+02  0.7546771E-02  0.1341588E+00
         -4   -1    0    0    0  501 -0.00000000000E+00  0.00000000000E+00  0.34258978079E+02  0.34258978079E+02  0.00000000000E+00 0.  1.
          4   -1    0    0  501    0  0.00000000000E+00 -0.00000000000E+00 -0.41863963474E+02  0.41863963474E+02  0.00000000000E+00 0. -1.
         23    2    1    2    0    0  0.00000000000E+00  0.00000000000E+00 -0.76049853943E+01  0.76122941553E+02  0.75742104722E+02 0.  0.
        -13    1    3    3    0    0  0.66549262097E+01 -0.33034136832E+02  0.13566601459E+02  0.36326229012E+02  0.00000000000E+00 0.  1.
         13    1    3    3    0    0 -0.66549262097E+01  0.33034136832E+02 -0.21171586854E+02  0.39796712540E+02  0.00000000000E+00 0. -1.
<mgrwt>
<rscale>  0 0.75742105E+02</rscale>
<asrwt>0</asrwt>
<pdfrwt beam="2">  1        4 0.64406098E-02 0.75742105E+02</pdfrwt>
<pdfrwt beam="1">  1       -4 0.52706120E-02 0.75742105E+02</pdfrwt>
<totfact> 0.46108843E+04</totfact>
</mgrwt>
</event>
<event>
 5    1  0.6113696E+000  0.9190503E+02  0.7546771E-02  0.1298303E+00
         -1   -1    0    0    0  501 -0.00000000000E+00  0.00000000000E+00  0.51580513445E+02  0.51580513445E+02  0.00000000000E+00 0.  1.
          1   -1    0    0  501    0  0.00000000000E+00 -0.00000000000E+00 -0.40938595353E+02  0.40938595353E+02  0.00000000000E+00 0. -1.
         23    2    1    2    0    0  0.00000000000E+00  0.00000000000E+00  0.10641918093E+02  0.92519108798E+02  0.91905032898E+02 0.  0.
        -13    1    3    3    0    0 -0.41021223949E+02 -0.15851499207E+02  0.18737533858E+02  0.47802782518E+02  0.00000000000E+00 0.  1.
         13    1    3    3    0    0  0.41021223949E+02  0.15851499207E+02 -0.80956157654E+01  0.44716326280E+02  0.00000000000E+00 0. -1.
<mgrwt>
<rscale>  0 0.91905033E+02</rscale>
<asrwt>0</asrwt>
<pdfrwt beam="2">  1        1 0.62982454E-02 0.91905033E+02</pdfrwt>
<pdfrwt beam="1">  1       -1 0.79354636E-02 0.91905033E+02</pdfrwt>
<totfact> 0.88960752E+04</totfact>
</mgrwt>
</event>
<event>
 5    1  0.6113696E+000  0.9332881E+02  0.7546771E-02  0.1294985E+00
          3   -1    0    0  501    0  0.00000000000E+00  0.00000000000E+00  0.27029194034E+03  0.27029194034E+03  0.00000000000E+00 0. -1.
         -3   -1    0    0    0  501 -0.00000000000E+00 -0.00000000000E+00 -0.80563507468E+01  0.80563507468E+01  0.00000000000E+00 0.  1.
         23    2    1    2    0    0  0.00000000000E+00  0.00000000000E+00  0.26223558960E+03  0.27834829109E+03  0.93328809602E+02 0.  0.
        -13    1    3    3    0    0 -0.21530110497E+02  0.40497433526E+02  0.15677012098E+03  0.16334153977E+03  0.00000000000E+00 0. -1.
         13    1    3    3    0    0  0.21530110497E+02 -0.40497433526E+02  0.10546546861E+03  0.11500675132E+03  0.00000000000E+00 0.  1.
<mgrwt>
<rscale>  0 0.93328810E+02</rscale>
<asrwt>0</asrwt>
<pdfrwt beam="1">  1        3 0.41583368E-01 0.93328810E+02</pdfrwt>
<pdfrwt beam="2">  1       -3 0.12394388E-02 0.93328810E+02</pdfrwt>
<totfact> 0.23377742E+04</totfact>
</mgrwt>
</event>
<event>
 5    1  0.6113696E+000  0.9423224E+02  0.7546771E-02  0.1292915E+00
         -2   -1    0    0    0  501 -0.00000000000E+00  0.00000000000E+00  0.84506535352E+01  0.84506535352E+01  0.00000000000E+00 0.  1.
          2   -1    0    0  501    0  0.00000000000E+00 -0.00000000000E+00 -0.26269314273E+03  0.26269314273E+03  0.00000000000E+00 0. -1.
         23    2    1    2    0    0  0.00000000000E+00  0.00000000000E+00 -0.25424248920E+03  0.27114379627E+03  0.94232239394E+02 0.  0.
        -13    1    3    3    0    0  0.41607965122E+02  0.41519508187E+01 -0.64643414424E+02  0.76988521778E+02  0.00000000000E+00 0.  1.
         13    1    3    3    0    0 -0.41607965122E+02 -0.41519508187E+01 -0.18959907477E+03  0.19415527449E+03  0.00000000000E+00 0. -1.
<mgrwt>
<rscale>  0 0.94232239E+02</rscale>
<asrwt>0</asrwt>
<pdfrwt beam="2">  1        2 0.40414325E-01 0.94232239E+02</pdfrwt>
<pdfrwt beam="1">  1       -2 0.13001007E-02 0.94232239E+02</pdfrwt>
<totfact> 0.15651187E+05</totfact>
</mgrwt>
</event>
<event>
 5    1  0.6113696E+000  0.9021545E+02  0.7546771E-02  0.1302331E+00
         -4   -1    0    0    0  501 -0.00000000000E+00  0.00000000000E+00  0.33003866476E+03  0.33003866476E+03  0.00000000000E+00 0.  1.
          4   -1    0    0  501    0  0.00000000000E+00 -0.00000000000E+00 -0.61650554484E+01  0.61650554484E+01  0.00000000000E+00 0. -1.
         23    2    1    2    0    0  0.00000000000E+00  0.00000000000E+00  0.32387360931E+03  0.33620372021E+03  0.90215445869E+02 0.  0.
        -13    1    3    3    0    0  0.29158087056E+02  0.28577230239E+02  0.23341271160E+03  0.23695642229E+03  0.00000000000E+00 0.  1.
         13    1    3    3    0    0 -0.29158087056E+02 -0.28577230239E+02  0.90460897708E+02  0.99247297913E+02  0.00000000000E+00 0. -1.
<mgrwt>
<rscale>  0 0.90215446E+02</rscale>
<asrwt>0</asrwt>
<pdfrwt beam="2">  1        4 0.94847033E-03 0.90215446E+02</pdfrwt>
<pdfrwt beam="1">  1       -4 0.50775165E-01 0.90215446E+02</pdfrwt>
<totfact> 0.17247450E+04</totfact>
</mgrwt>
</event>
<event>
 5    1  0.6113696E+000  0.9109582E+02  0.7546771E-02  0.1300220E+00
          4   -1    0    0  501    0  0.00000000000E+00  0.00000000000E+00  0.35672341994E+02  0.35672341994E+02  0.00000000000E+00 0. -1.
         -4   -1    0    0    0  501 -0.00000000000E+00 -0.00000000000E+00 -0.58157439684E+02  0.58157439684E+02  0.00000000000E+00 0.  1.
         23    2    1    2    0    0  0.00000000000E+00  0.00000000000E+00 -0.22485097690E+02  0.93829781678E+02  0.91095819397E+02 0.  0.
        -13    1    3    3    0    0  0.20325987295E+02  0.13322829843E+01  0.30719426398E+02  0.36859244372E+02  0.00000000000E+00 0. -1.
         13    1    3    3    0    0 -0.20325987295E+02 -0.13322829843E+01 -0.53204524088E+02  0.56970537305E+02  0.00000000000E+00 0.  1.
<mgrwt>
<rscale>  0 0.91095819E+02</rscale>
<asrwt>0</asrwt>
<pdfrwt beam="1">  1        4 0.54880527E-02 0.91095819E+02</pdfrwt>
<pdfrwt beam="2">  1       -4 0.89472983E-02 0.91095819E+02</pdfrwt>
<totfact> 0.26911454E+04</totfact>
</mgrwt>
</event>
<event>
 5    1  0.6113696E+000  0.9193167E+02  0.7546771E-02  0.1298240E+00
         -4   -1    0    0    0  501 -0.00000000000E+00  0.00000000000E+00  0.87129841884E+02  0.87129841884E+02  0.00000000000E+00 0.  1.
          4   -1    0    0  501    0  0.00000000000E+00 -0.00000000000E+00 -0.24249531209E+02  0.24249531209E+02  0.00000000000E+00 0. -1.
         23    2    1    2    0    0  0.00000000000E+00  0.00000000000E+00  0.62880310675E+02  0.11137937309E+03  0.91931666362E+02 0.  0.
        -13    1    3    3    0    0 -0.42398447400E+02  0.16230285113E+02  0.40160531399E+02  0.60612859848E+02  0.00000000000E+00 0.  1.
         13    1    3    3    0    0  0.42398447400E+02 -0.16230285113E+02  0.22719779275E+02  0.50766513245E+02  0.00000000000E+00 0. -1.
<mgrwt>
<rscale>  0 0.91931666E+02</rscale>
<asrwt>0</asrwt>
<pdfrwt beam="2">  1        4 0.37306972E-02 0.91931666E+02</pdfrwt>
<pdfrwt beam="1">  1       -4 0.13404591E-01 0.91931666E+02</pdfrwt>
<totfact> 0.25201380E+04</totfact>
</mgrwt>
</event>
<event>
 5    1  0.6113696E+000  0.9162716E+02  0.7546771E-02  0.1298958E+00
         -1   -1    0    0    0  501 -0.00000000000E+00  0.00000000000E+00  0.28531392884E+02  0.28531392884E+02  0.00000000000E+00 0.  1.
          1   -1    0    0  501    0  0.00000000000E+00 -0.00000000000E+00 -0.73564027323E+02  0.73564027323E+02  0.00000000000E+00 0. -1.
         23    2    1    2    0    0  0.00000000000E+00  0.00000000000E+00 -0.45032634438E+02  0.10209542021E+03  0.91627161163E+02 0.  0.
        -13    1    3    3    0    0  0.13492344447E+02  0.94692077550E+01  0.25112751663E+02  0.30039300096E+02  0.00000000000E+00 0.  1.
         13    1    3    3    0    0 -0.13492344447E+02 -0.94692077550E+01 -0.70145386101E+02  0.72056120111E+02  0.00000000000E+00 0. -1.
<mgrwt>
<rscale>  0 0.91627161E+02</rscale>
<asrwt>0</asrwt>
<pdfrwt beam="2">  1        1 0.11317542E-01 0.91627161E+02</pdfrwt>
<pdfrwt beam="1">  1       -1 0.43894452E-02 0.91627161E+02</pdfrwt>
<totfact> 0.98087902E+04</totfact>
</mgrwt>
</event>
<event>
 5    1  0.6113696E+000  0.9064433E+02  0.7546771E-02  0.1301299E+00
          1   -1    0    0  501    0  0.00000000000E+00  0.00000000000E+00  0.13789569207E+03  0.13789569207E+03  0.00000000000E+00 0. -1.
         -1   -1    0    0    0  501 -0.00000000000E+00 -0.00000000000E+00 -0.14896031678E+02  0.14896031678E+02  0.00000000000E+00 0.  1.
         23    2    1    2    0    0  0.00000000000E+00  0.00000000000E+00  0.12299966039E+03  0.15279172375E+03  0.90644329053E+02 0.  0.
        -13    1    3    3    0    0 -0.28576371474E+02 -0.19621076419E+02  0.12283736871E+02  0.36776158554E+02  0.00000000000E+00 0.  1.
         13    1    3    3    0    0  0.28576371474E+02  0.19621076419E+02  0.11071592352E+03  0.11601556519E+03  0.00000000000E+00 0. -1.
<mgrwt>
<rscale>  0 0.90644329E+02</rscale>
<asrwt>0</asrwt>
<pdfrwt beam="1">  1        1 0.21214721E-01 0.90644329E+02</pdfrwt>
<pdfrwt beam="2">  1       -1 0.22916973E-02 0.90644329E+02</pdfrwt>
<totfact> 0.11218829E+05</totfact>
</mgrwt>
</event>
<event>
 5    1  0.6113696E+000  0.9304256E+02  0.7546771E-02  0.1295647E+00
          2   -1    0    0  501    0  0.00000000000E+00  0.00000000000E+00  0.16763777429E+03  0.16763777429E+03  0.00000000000E+00 0. -1.
         -2   -1    0    0    0  501 -0.00000000000E+00 -0.00000000000E+00 -0.12910153834E+02  0.12910153834E+02  0.00000000000E+00 0.  1.
         23    2    1    2    0    0  0.00000000000E+00  0.00000000000E+00  0.15472762046E+03  0.18054792813E+03  0.93042559176E+02 0.  0.
        -13    1    3    3    0    0  0.36151666297E+02 -0.25645672201E+02  0.10477802890E+03  0.11376765278E+03  0.00000000000E+00 0. -1.
         13    1    3    3    0    0 -0.36151666297E+02  0.25645672201E+02  0.49949591559E+02  0.66780275348E+02  0.00000000000E+00 0.  1.
<mgrwt>
<rscale>  0 0.93042559E+02</rscale>
<asrwt>0</asrwt>
<pdfrwt beam="1">  1        2 0.25790425E-01 0.93042559E+02</pdfrwt>
<pdfrwt beam="2">  1       -2 0.19861776E-02 0.93042559E+02</pdfrwt>
<totfact> 0.13750603E+05</totfact>
</mgrwt>
</event>
<event>
 5    1  0.6113696E+000  0.9689424E+02  0.7546771E-02  0.1286966E+00
         -2   -1    0    0    0  501 -0.00000000000E+00  0.00000000000E+00  0.11283207727E+02  0.11283207727E+02  0.00000000000E+00 0.  1.
          2   -1    0    0  501    0  0.00000000000E+00 -0.00000000000E+00 -0.20801916318E+03  0.20801916318E+03  0.00000000000E+00 0. -1.
         23    2    1    2    0    0  0.00000000000E+00  0.00000000000E+00 -0.19673595546E+03  0.21930237091E+03  0.96894239858E+02 0.  0.
        -13    1    3    3    0    0 -0.39809588618E+02  0.23250019055E+02 -0.13207215571E+03  0.13988717255E+03  0.00000000000E+00 0.  1.
         13    1    3    3    0    0  0.39809588618E+02 -0.23250019055E+02 -0.64663799750E+02  0.79415198357E+02  0.00000000000E+00 0. -1.
<mgrwt>
<rscale>  0 0.96894240E+02</rscale>
<asrwt>0</asrwt>
<pdfrwt beam="2">  1        2 0.32002944E-01 0.96894240E+02</pdfrwt>
<pdfrwt beam="1">  1       -2 0.17358783E-02 0.96894240E+02</pdfrwt>
<totfact> 0.13313013E+05</totfact>
</mgrwt>
</event>
<event>
 5    1  0.6113696E+000  0.9032003E+02  0.7546771E-02  0.1302079E+00
          3   -1    0    0  501    0  0.00000000000E+00  0.00000000000E+00  0.23011411309E+03  0.23011411309E+03  0.00000000000E+00 0. -1.
         -3   -1    0    0    0  501 -0.00000000000E+00 -0.00000000000E+00 -0.88626772159E+01  0.88626772159E+01  0.00000000000E+00 0.  1.
         23    2    1    2    0    0  0.00000000000E+00  0.00000000000E+00  0.22125143588E+03  0.23897679031E+03  0.90320033374E+02 0.  0.
        -13    1    3    3    0    0 -0.73537684686E+01  0.42500324740E+02  0.75219056064E+02  0.86707911455E+02  0.00000000000E+00 0. -1.
         13    1    3    3    0    0  0.73537684686E+01 -0.42500324740E+02  0.14603237981E+03  0.15226887885E+03  0.00000000000E+00 0.  1.
<mgrwt>
<rscale>  0 0.90320033E+02</rscale>
<asrwt>0</asrwt>
<pdfrwt beam="1">  1        3 0.35402167E-01 0.90320033E+02</pdfrwt>
<pdfrwt beam="2">  1       -3 0.13634890E-02 0.90320033E+02</pdfrwt>
<totfact> 0.27284906E+04</totfact>
</mgrwt>
</event>
<event>
 5    1  0.6113696E+000  0.8854503E+02  0.7546771E-02  0.1306414E+00
         -1   -1    0    0    0  501 -0.00000000000E+00  0.00000000000E+00  0.70965023648E+02  0.70965023648E+02  0.00000000000E+00 0.  1.
          1   -1    0    0  501    0  0.00000000000E+00 -0.00000000000E+00 -0.27620022367E+02  0.27620022367E+02  0.00000000000E+00 0. -1.
         23    2    1    2    0    0  0.00000000000E+00  0.00000000000E+00  0.43345001281E+02  0.98585046016E+02  0.88545029007E+02 0.  0.
        -13    1    3    3    0    0 -0.50604180073E+01  0.13009332141E+02 -0.25105799042E+02  0.28725453847E+02  0.00000000000E+00 0. -1.
         13    1    3    3    0    0  0.50604180073E+01 -0.13009332141E+02  0.68450800323E+02  0.69859592169E+02  0.00000000000E+00 0.  1.
<mgrwt>
<rscale>  0 0.88545029E+02</rscale>
<asrwt>0</asrwt>
<pdfrwt beam="2">  1        1 0.42492342E-02 0.88545029E+02</pdfrwt>
<pdfrwt beam="1">  1       -1 0.10917696E-01 0.88545029E+02</pdfrwt>
<totfact> 0.93036949E+04</totfact>
</mgrwt>
</event>
<event>
 5    1  0.6113696E+000  0.9204906E+02  0.7546771E-02  0.1297964E+00
         -2   -1    0    0    0  501 -0.00000000000E+00  0.00000000000E+00  0.44083183228E+02  0.44083183228E+02  0.00000000000E+00 0.  1.
          2   -1    0    0  501    0  0.00000000000E+00 -0.00000000000E+00 -0.48051369448E+02  0.48051369448E+02  0.00000000000E+00 0. -1.
         23    2    1    2    0    0  0.00000000000E+00  0.00000000000E+00 -0.39681862200E+01  0.92134552676E+02  0.92049059175E+02 0.  0.
        -13    1    3    3    0    0  0.22948076916E+02  0.31170641681E+02 -0.26907705904E+02  0.47140723096E+02  0.00000000000E+00 0. -1.
         13    1    3    3    0    0 -0.22948076916E+02 -0.31170641681E+02  0.22939519684E+02  0.44993829580E+02  0.00000000000E+00 0.  1.
<mgrwt>
<rscale>  0 0.92049059E+02</rscale>
<asrwt>0</asrwt>
<pdfrwt beam="2">  1        2 0.73925184E-02 0.92049059E+02</pdfrwt>
<pdfrwt beam="1">  1       -2 0.67820282E-02 0.92049059E+02</pdfrwt>
<totfact> 0.97342008E+04</totfact>
</mgrwt>
</event>
<event>
 5    1  0.6113696E+000  0.9224176E+02  0.7546771E-02  0.1297512E+00
         -2   -1    0    0    0  501 -0.00000000000E+00  0.00000000000E+00  0.25009484264E+03  0.25009484264E+03  0.00000000000E+00 0.  1.
          2   -1    0    0  501    0  0.00000000000E+00 -0.00000000000E+00 -0.85053160494E+01  0.85053160494E+01  0.00000000000E+00 0. -1.
         23    2    1    2    0    0  0.00000000000E+00  0.00000000000E+00  0.24158952659E+03  0.25860015869E+03  0.92241762321E+02 0.  0.
        -13    1    3    3    0    0 -0.40127325256E+02 -0.18281267276E+02  0.15869174252E+03  0.16470420793E+03  0.00000000000E+00 0.  1.
         13    1    3    3    0    0  0.40127325256E+02  0.18281267276E+02  0.82897784073E+02  0.93895950763E+02  0.00000000000E+00 0. -1.
<mgrwt>
<rscale>  0 0.92241762E+02</rscale>
<asrwt>0</asrwt>
<pdfrwt beam="2">  1        2 0.13085104E-02 0.92241762E+02</pdfrwt>
<pdfrwt beam="1">  1       -2 0.38476124E-01 0.92241762E+02</pdfrwt>
<totfact> 0.54515482E+04</totfact>
</mgrwt>
</event>
<event>
 5    1  0.6113696E+000  0.9130975E+02  0.7546771E-02  0.1299711E+00
          3   -1    0    0  501    0  0.00000000000E+00  0.00000000000E+00  0.27464877226E+02  0.27464877226E+02  0.00000000000E+00 0. -1.
         -3   -1    0    0    0  501 -0.00000000000E+00 -0.00000000000E+00 -0.75892116422E+02  0.75892116422E+02  0.00000000000E+00 0.  1.
         23    2    1    2    0    0  0.00000000000E+00  0.00000000000E+00 -0.48427239196E+02  0.10335699365E+03  0.91309751066E+02 0.  0.
        -13    1    3    3    0    0 -0.40904658679E+01  0.30993500721E+02 -0.61875682456E+02  0.69324808527E+02  0.00000000000E+00 0.  1.
         13    1    3    3    0    0  0.40904658679E+01 -0.30993500721E+02  0.13448443260E+02  0.34032185120E+02  0.00000000000E+00 0. -1.
<mgrwt>
<rscale>  0 0.91309751E+02</rscale>
<asrwt>0</asrwt>
<pdfrwt beam="1">  1        3 0.42253657E-02 0.91309751E+02</pdfrwt>
<pdfrwt beam="2">  1       -3 0.11675710E-01 0.91309751E+02</pdfrwt>
<totfact> 0.34289233E+04</totfact>
</mgrwt>
</event>
<event>
 5    1  0.6113696E+000  0.7953845E+02  0.7546771E-02  0.1330366E+00
          2   -1    0    0  501    0  0.00000000000E+00  0.00000000000E+00  0.15938447446E+03  0.15938447446E+03  0.00000000000E+00 0. -1.
         -2   -1    0    0    0  501 -0.00000000000E+00 -0.00000000000E+00 -0.99231211473E+01  0.99231211473E+01  0.00000000000E+00 0.  1.
         23    2    1    2    0    0  0.00000000000E+00  0.00000000000E+00  0.14946135331E+03  0.16930759561E+03  0.79538454827E+02 0.  0.
        -13    1    3    3    0    0 -0.35317948828E+02  0.83328540020E+01  0.40092404563E+02  0.54075825180E+02  0.00000000000E+00 0.  1.
         13    1    3    3    0    0  0.35317948828E+02 -0.83328540020E+01  0.10936894875E+03  0.11523177043E+03  0.00000000000E+00 0. -1.
<mgrwt>
<rscale>  0 0.79538455E+02</rscale>
<asrwt>0</asrwt>
<pdfrwt beam="1">  1        2 0.24520687E-01 0.79538455E+02</pdfrwt>
<pdfrwt beam="2">  1       -2 0.15266341E-02 0.79538455E+02</pdfrwt>
<totfact> 0.20596007E+05</totfact>
</mgrwt>
</event>
<event>
 5    1  0.6113696E+000  0.9193517E+02  0.7546771E-02  0.1298232E+00
         -2   -1    0    0    0  501 -0.00000000000E+00  0.00000000000E+00  0.17555410218E+02  0.17555410218E+02  0.00000000000E+00 0.  1.
          2   -1    0    0  501    0  0.00000000000E+00 -0.00000000000E+00 -0.12036283316E+03  0.12036283316E+03  0.00000000000E+00 0. -1.
         23    2    1    2    0    0  0.00000000000E+00  0.00000000000E+00 -0.10280742294E+03  0.13791824337E+03  0.91935170877E+02 0.  0.
        -13    1    3    3    0    0 -0.27520468384E+02 -0.36521594022E+02 -0.44396800375E+02  0.63736009394E+02  0.00000000000E+00 0.  1.
         13    1    3    3    0    0  0.27520468384E+02  0.36521594022E+02 -0.58410622563E+02  0.74182233979E+02  0.00000000000E+00 0. -1.
<mgrwt>
<rscale>  0 0.91935171E+02</rscale>
<asrwt>0</asrwt>
<pdfrwt beam="2">  1        2 0.18517359E-01 0.91935171E+02</pdfrwt>
<pdfrwt beam="1">  1       -2 0.27008324E-02 0.91935171E+02</pdfrwt>
<totfact> 0.12707538E+05</totfact>
</mgrwt>
</event>
<event>
 5    1  0.6113696E+000  0.9417834E+02  0.7546771E-02  0.1293037E+00
         -1   -1    0    0    0  501 -0.00000000000E+00  0.00000000000E+00  0.87237086639E+01  0.87237086639E+01  0.00000000000E+00 0.  1.
          1   -1    0    0  501    0  0.00000000000E+00 -0.00000000000E+00 -0.25417974704E+03  0.25417974704E+03  0.00000000000E+00 0. -1.
         23    2    1    2    0    0  0.00000000000E+00  0.00000000000E+00 -0.24545603838E+03  0.26290345571E+03  0.94178342764E+02 0.  0.
        -13    1    3    3    0    0  0.38053996035E+02  0.14893007200E+02 -0.57410438947E+02  0.70468906461E+02  0.00000000000E+00 0.  1.
         13    1    3    3    0    0 -0.38053996035E+02 -0.14893007200E+02 -0.18804559943E+03  0.19243454924E+03  0.00000000000E+00 0. -1.
<mgrwt>
<rscale>  0 0.94178343E+02</rscale>
<asrwt>0</asrwt>
<pdfrwt beam="2">  1        1 0.39104580E-01 0.94178343E+02</pdfrwt>
<pdfrwt beam="1">  1       -1 0.13421089E-02 0.94178343E+02</pdfrwt>
<totfact> 0.11376493E+05</totfact>
</mgrwt>
</event>
<event>
 5    1  0.6113696E+000  0.9180475E+02  0.7546771E-02  0.1298539E+00
         -3   -1    0    0    0  501 -0.00000000000E+00  0.00000000000E+00  0.40508486540E+02  0.40508486540E+02  0.00000000000E+00 0.  1.
          3   -1    0    0  501    0  0.00000000000E+00 -0.00000000000E+00 -0.52014489238E+02  0.52014489238E+02  0.00000000000E+00 0. -1.
         23    2    1    2    0    0  0.00000000000E+00  0.00000000000E+00 -0.11506002698E+02  0.92522975777E+02  0.91804754499E+02 0.  0.
        -13    1    3    3    0    0 -0.90399530124E+01  0.42565982327E+02  0.89710404123E+01  0.44430430653E+02  0.00000000000E+00 0.  1.
         13    1    3    3    0    0  0.90399530124E+01 -0.42565982327E+02 -0.20477043110E+02  0.48092545124E+02  0.00000000000E+00 0. -1.
<mgrwt>
<rscale>  0 0.91804754E+02</rscale>
<asrwt>0</asrwt>
<pdfrwt beam="2">  1        3 0.80022291E-02 0.91804754E+02</pdfrwt>
<pdfrwt beam="1">  1       -3 0.62320749E-02 0.91804754E+02</pdfrwt>
<totfact> 0.34581584E+04</totfact>
</mgrwt>
</event>
<event>
 5    1  0.6113696E+000  0.8729952E+02  0.7546771E-02  0.1309526E+00
         -2   -1    0    0    0  501 -0.00000000000E+00  0.00000000000E+00  0.47229826991E+02  0.47229826991E+02  0.00000000000E+00 0. -1.
          2   -1    0    0  501    0  0.00000000000E+00 -0.00000000000E+00 -0.40341067720E+02  0.40341067720E+02  0.00000000000E+00 0.  1.
         23    2    1    2    0    0  0.00000000000E+00  0.00000000000E+00  0.68887592706E+01  0.87570894711E+02  0.87299522314E+02 0.  0.
        -13    1    3    3    0    0  0.16594627323E+02  0.36288930320E+02 -0.14303372241E+02  0.42389321500E+02  0.00000000000E+00 0.  1.
         13    1    3    3    0    0 -0.16594627323E+02 -0.36288930320E+02  0.21192131512E+02  0.45181573211E+02  0.00000000000E+00 0. -1.
<mgrwt>
<rscale>  0 0.87299522E+02</rscale>
<asrwt>0</asrwt>
<pdfrwt beam="2">  1        2 0.62063181E-02 0.87299522E+02</pdfrwt>
<pdfrwt beam="1">  1       -2 0.72661273E-02 0.87299522E+02</pdfrwt>
<totfact> 0.10833929E+05</totfact>
</mgrwt>
</event>
<event>
 5    1  0.6113696E+000  0.9115749E+02  0.7546771E-02  0.1300073E+00
         -2   -1    0    0    0  501 -0.00000000000E+00  0.00000000000E+00  0.10940002056E+02  0.10940002056E+02  0.00000000000E+00 0.  1.
          2   -1    0    0  501    0  0.00000000000E+00 -0.00000000000E+00 -0.18989229908E+03  0.18989229908E+03  0.00000000000E+00 0. -1.
         23    2    1    2    0    0  0.00000000000E+00  0.00000000000E+00 -0.17895229702E+03  0.20083230113E+03  0.91157493217E+02 0.  0.
        -13    1    3    3    0    0  0.62201755983E+01  0.31764730592E+02 -0.18778722738E+02  0.37420971684E+02  0.00000000000E+00 0.  1.
         13    1    3    3    0    0 -0.62201755983E+01 -0.31764730592E+02 -0.16017357428E+03  0.16341132945E+03  0.00000000000E+00 0. -1.
<mgrwt>
<rscale>  0 0.91157493E+02</rscale>
<asrwt>0</asrwt>
<pdfrwt beam="2">  1        2 0.29214199E-01 0.91157493E+02</pdfrwt>
<pdfrwt beam="1">  1       -2 0.16830773E-02 0.91157493E+02</pdfrwt>
<totfact> 0.15190453E+05</totfact>
</mgrwt>
</event>
<event>
 5    1  0.6113696E+000  0.9120423E+02  0.7546771E-02  0.1299961E+00
         -1   -1    0    0    0  501 -0.00000000000E+00  0.00000000000E+00  0.10240223872E+03  0.10240223872E+03  0.00000000000E+00 0.  1.
          1   -1    0    0  501    0  0.00000000000E+00 -0.00000000000E+00 -0.20307691414E+02  0.20307691414E+02  0.00000000000E+00 0. -1.
         23    2    1    2    0    0  0.00000000000E+00  0.00000000000E+00  0.82094547307E+02  0.12270993014E+03  0.91204233763E+02 0.  0.
        -13    1    3    3    0    0 -0.20939702028E+02  0.18613745198E+02 -0.73626347659E+01  0.28968103528E+02  0.00000000000E+00 0. -1.
         13    1    3    3    0    0  0.20939702028E+02 -0.18613745198E+02  0.89457182073E+02  0.93741826608E+02  0.00000000000E+00 0.  1.
<mgrwt>
<rscale>  0 0.91204234E+02</rscale>
<asrwt>0</asrwt>
<pdfrwt beam="2">  1        1 0.31242603E-02 0.91204234E+02</pdfrwt>
<pdfrwt beam="1">  1       -1 0.15754190E-01 0.91204234E+02</pdfrwt>
<totfact> 0.80947370E+04</totfact>
</mgrwt>
</event>
<event>
 5    1  0.6113696E+000  0.9204188E+02  0.7546771E-02  0.1297981E+00
         -4   -1    0    0    0  501 -0.00000000000E+00  0.00000000000E+00  0.67145852407E+01  0.67145852407E+01  0.00000000000E+00 0.  1.
          4   -1    0    0  501    0  0.00000000000E+00 -0.00000000000E+00 -0.31542184118E+03  0.31542184118E+03  0.00000000000E+00 0. -1.
         23    2    1    2    0    0  0.00000000000E+00  0.00000000000E+00 -0.30870725594E+03  0.32213642642E+03  0.92041878281E+02 0.  0.
        -13    1    3    3    0    0 -0.41799435230E+02 -0.17278294500E+02 -0.18409128169E+03  0.18956616850E+03  0.00000000000E+00 0.  1.
         13    1    3    3    0    0  0.41799435230E+02  0.17278294500E+02 -0.12461597425E+03  0.13257025792E+03  0.00000000000E+00 0. -1.
<mgrwt>
<rscale>  0 0.92041878E+02</rscale>
<asrwt>0</asrwt>
<pdfrwt beam="2">  1        4 0.48526431E-01 0.92041878E+02</pdfrwt>
<pdfrwt beam="1">  1       -4 0.10330132E-02 0.92041878E+02</pdfrwt>
<totfact> 0.16739627E+04</totfact>
</mgrwt>
</event>
<event>
 5    1  0.6113696E+000  0.9212448E+02  0.7546771E-02  0.1297787E+00
          1   -1    0    0  501    0  0.00000000000E+00  0.00000000000E+00  0.18683308629E+02  0.18683308629E+02  0.00000000000E+00 0. -1.
         -1   -1    0    0    0  501 -0.00000000000E+00 -0.00000000000E+00 -0.11356285974E+03  0.11356285974E+03  0.00000000000E+00 0.  1.
         23    2    1    2    0    0  0.00000000000E+00  0.00000000000E+00 -0.94879551113E+02  0.13224616837E+03  0.92124480078E+02 0.  0.
        -13    1    3    3    0    0  0.22288219953E+02 -0.77810698095E+01  0.93388336357E+01  0.25387469542E+02  0.00000000000E+00 0. -1.
         13    1    3    3    0    0 -0.22288219953E+02  0.77810698095E+01 -0.10421838475E+03  0.10685869883E+03  0.00000000000E+00 0.  1.
<mgrwt>
<rscale>  0 0.92124480E+02</rscale>
<asrwt>0</asrwt>
<pdfrwt beam="1">  1        1 0.28743552E-02 0.92124480E+02</pdfrwt>
<pdfrwt beam="2">  1       -1 0.17471209E-01 0.92124480E+02</pdfrwt>
<totfact> 0.77313156E+04</totfact>
</mgrwt>
</event>
<event>
 5    1  0.6113696E+000  0.8964861E+02  0.7546771E-02  0.1303705E+00
          2   -1    0    0  501    0  0.00000000000E+00  0.00000000000E+00  0.25785602017E+02  0.25785602017E+02  0.00000000000E+00 0.  1.
         -2   -1    0    0    0  501 -0.00000000000E+00 -0.00000000000E+00 -0.77920171821E+02  0.77920171821E+02  0.00000000000E+00 0. -1.
         23    2    1    2    0    0  0.00000000000E+00  0.00000000000E+00 -0.52134569804E+02  0.10370577384E+03  0.89648614929E+02 0.  0.
        -13    1    3    3    0    0  0.15432927014E+02 -0.41506991646E+02 -0.34099608485E+02  0.55890865896E+02  0.00000000000E+00 0. -1.
         13    1    3    3    0    0 -0.15432927014E+02  0.41506991646E+02 -0.18034961319E+02  0.47814907942E+02  0.00000000000E+00 0.  1.
<mgrwt>
<rscale>  0 0.89648615E+02</rscale>
<asrwt>0</asrwt>
<pdfrwt beam="1">  1        2 0.39670157E-02 0.89648615E+02</pdfrwt>
<pdfrwt beam="2">  1       -2 0.11987719E-01 0.89648615E+02</pdfrwt>
<totfact> 0.89323443E+04</totfact>
</mgrwt>
</event>
<event>
 5    1  0.6113696E+000  0.9131997E+02  0.7546771E-02  0.1299686E+00
         -1   -1    0    0    0  501 -0.00000000000E+00  0.00000000000E+00  0.17588028207E+02  0.17588028207E+02  0.00000000000E+00 0.  1.
          1   -1    0    0  501    0  0.00000000000E+00 -0.00000000000E+00 -0.11853713242E+03  0.11853713242E+03  0.00000000000E+00 0. -1.
         23    2    1    2    0    0  0.00000000000E+00  0.00000000000E+00 -0.10094910421E+03  0.13612516063E+03  0.91319974343E+02 0.  0.
        -13    1    3    3    0    0 -0.65249397481E+01  0.31422557614E+02 -0.20601402245E+01  0.32158920123E+02  0.00000000000E+00 0.  1.
         13    1    3    3    0    0  0.65249397481E+01 -0.31422557614E+02 -0.98888963988E+02  0.10396624050E+03  0.00000000000E+00 0. -1.
<mgrwt>
<rscale>  0 0.91319974E+02</rscale>
<asrwt>0</asrwt>
<pdfrwt beam="2">  1        1 0.18236482E-01 0.91319974E+02</pdfrwt>
<pdfrwt beam="1">  1       -1 0.27058504E-02 0.91319974E+02</pdfrwt>
<totfact> 0.10705274E+05</totfact>
</mgrwt>
</event>
<event>
 5    1  0.6113696E+000  0.9109852E+02  0.7546771E-02  0.1300213E+00
          3   -1    0    0  501    0  0.00000000000E+00  0.00000000000E+00  0.43854869990E+02  0.43854869990E+02  0.00000000000E+00 0. -1.
         -3   -1    0    0    0  501 -0.00000000000E+00 -0.00000000000E+00 -0.47309110516E+02  0.47309110516E+02  0.00000000000E+00 0.  1.
         23    2    1    2    0    0  0.00000000000E+00  0.00000000000E+00 -0.34542405259E+01  0.91163980506E+02  0.91098515708E+02 0.  0.
        -13    1    3    3    0    0  0.33604757408E+02  0.16644450868E+02 -0.27599469232E+02  0.46562304143E+02  0.00000000000E+00 0.  1.
         13    1    3    3    0    0 -0.33604757408E+02 -0.16644450868E+02  0.24145228706E+02  0.44601676364E+02  0.00000000000E+00 0. -1.
<mgrwt>
<rscale>  0 0.91098516E+02</rscale>
<asrwt>0</asrwt>
<pdfrwt beam="1">  1        3 0.67469031E-02 0.91098516E+02</pdfrwt>
<pdfrwt beam="2">  1       -3 0.72783247E-02 0.91098516E+02</pdfrwt>
<totfact> 0.35422662E+04</totfact>
</mgrwt>
</event>
<event>
 5    1  0.6113696E+000  0.8751891E+02  0.7546771E-02  0.1308974E+00
          1   -1    0    0  501    0  0.00000000000E+00  0.00000000000E+00  0.11372162786E+03  0.11372162786E+03  0.00000000000E+00 0. -1.
         -1   -1    0    0    0  501 -0.00000000000E+00 -0.00000000000E+00 -0.16838395359E+02  0.16838395359E+02  0.00000000000E+00 0.  1.
         23    2    1    2    0    0  0.00000000000E+00  0.00000000000E+00  0.96883232505E+02  0.13056002322E+03  0.87518906090E+02 0.  0.
        -13    1    3    3    0    0  0.14367403036E+02  0.16111473070E+02 -0.83423508185E+01  0.23142961169E+02  0.00000000000E+00 0.  1.
         13    1    3    3    0    0 -0.14367403036E+02 -0.16111473070E+02  0.10522558332E+03  0.10741706205E+03  0.00000000000E+00 0. -1.
<mgrwt>
<rscale>  0 0.87518906E+02</rscale>
<asrwt>0</asrwt>
<pdfrwt beam="1">  1        1 0.17495635E-01 0.87518906E+02</pdfrwt>
<pdfrwt beam="2">  1       -1 0.25905224E-02 0.87518906E+02</pdfrwt>
<totfact> 0.11925597E+05</totfact>
</mgrwt>
</event>
<event>
 5    1  0.6113696E+000  0.8656940E+02  0.7546771E-02  0.1311379E+00
          2   -1    0    0  501    0  0.00000000000E+00  0.00000000000E+00  0.14965128207E+02  0.14965128207E+02  0.00000000000E+00 0. -1.
         -2   -1    0    0    0  501 -0.00000000000E+00 -0.00000000000E+00 -0.12519540064E+03  0.12519540064E+03  0.00000000000E+00 0.  1.
         23    2    1    2    0    0  0.00000000000E+00  0.00000000000E+00 -0.11023027243E+03  0.14016052884E+03  0.86569399246E+02 0.  0.
        -13    1    3    3    0    0 -0.18551932225E+02 -0.81761577159E+01 -0.11703292230E+03  0.11877595988E+03  0.00000000000E+00 0.  1.
         13    1    3    3    0    0  0.18551932225E+02  0.81761577159E+01  0.68026498713E+01  0.21384568959E+02  0.00000000000E+00 0. -1.
<mgrwt>
<rscale>  0 0.86569399E+02</rscale>
<asrwt>0</asrwt>
<pdfrwt beam="1">  1        2 0.23023274E-02 0.86569399E+02</pdfrwt>
<pdfrwt beam="2">  1       -2 0.19260831E-01 0.86569399E+02</pdfrwt>
<totfact> 0.84725648E+04</totfact>
</mgrwt>
</event>
<event>
 5    1  0.6113696E+000  0.9045123E+02  0.7546771E-02  0.1301763E+00
          2   -1    0    0  501    0  0.00000000000E+00  0.00000000000E+00  0.48966994788E+02  0.48966994788E+02  0.00000000000E+00 0. -1.
         -2   -1    0    0    0  501 -0.00000000000E+00 -0.00000000000E+00 -0.41770097110E+02  0.41770097110E+02  0.00000000000E+00 0.  1.
         23    2    1    2    0    0  0.00000000000E+00  0.00000000000E+00  0.71968976773E+01  0.90737091898E+02  0.90451227244E+02 0.  0.
        -13    1    3    3    0    0 -0.29164956976E+02  0.15579201912E+02 -0.27354372692E+02  0.42913493834E+02  0.00000000000E+00 0.  1.
         13    1    3    3    0    0  0.29164956976E+02 -0.15579201912E+02  0.34551270370E+02  0.47823598064E+02  0.00000000000E+00 0. -1.
<mgrwt>
<rscale>  0 0.90451227E+02</rscale>
<asrwt>0</asrwt>
<pdfrwt beam="1">  1        2 0.75333839E-02 0.90451227E+02</pdfrwt>
<pdfrwt beam="2">  1       -2 0.64261688E-02 0.90451227E+02</pdfrwt>
<totfact> 0.10284467E+05</totfact>
</mgrwt>
</event>
<event>
 5    1  0.6113696E+000  0.9343228E+02  0.7546771E-02  0.1294747E+00
          1   -1    0    0  501    0  0.00000000000E+00  0.00000000000E+00  0.18599979876E+02  0.18599979876E+02  0.00000000000E+00 0. -1.
         -1   -1    0    0    0  501 -0.00000000000E+00 -0.00000000000E+00 -0.11733334514E+03  0.11733334514E+03  0.00000000000E+00 0.  1.
         23    2    1    2    0    0  0.00000000000E+00  0.00000000000E+00 -0.98733365264E+02  0.13593332501E+03  0.93432282608E+02 0.  0.
        -13    1    3    3    0    0 -0.40918682538E+02 -0.14130782764E+02 -0.74915585987E+02  0.86523769139E+02  0.00000000000E+00 0. -1.
         13    1    3    3    0    0  0.40918682538E+02  0.14130782764E+02 -0.23817779277E+02  0.49409555876E+02  0.00000000000E+00 0.  1.
<mgrwt>
<rscale>  0 0.93432283E+02</rscale>
<asrwt>0</asrwt>
<pdfrwt beam="1">  1        1 0.28615353E-02 0.93432283E+02</pdfrwt>
<pdfrwt beam="2">  1       -1 0.18051284E-01 0.93432283E+02</pdfrwt>
<totfact> 0.74056329E+04</totfact>
</mgrwt>
</event>
<event>
 5    1  0.6113696E+000  0.9115778E+02  0.7546771E-02  0.1300072E+00
          2   -1    0    0  501    0  0.00000000000E+00  0.00000000000E+00  0.24486992132E+02  0.24486992132E+02  0.00000000000E+00 0. -1.
         -2   -1    0    0    0  501 -0.00000000000E+00 -0.00000000000E+00 -0.84838315919E+02  0.84838315919E+02  0.00000000000E+00 0.  1.
         23    2    1    2    0    0  0.00000000000E+00  0.00000000000E+00 -0.60351323788E+02  0.10932530805E+03  0.91157779139E+02 0.  0.
        -13    1    3    3    0    0 -0.13856752616E+02  0.36018811284E+02 -0.10924888694E+01  0.38607743930E+02  0.00000000000E+00 0. -1.
         13    1    3    3    0    0  0.13856752616E+02 -0.36018811284E+02 -0.59258834918E+02  0.70717564121E+02  0.00000000000E+00 0.  1.
<mgrwt>
<rscale>  0 0.91157779E+02</rscale>
<asrwt>0</asrwt>
<pdfrwt beam="1">  1        2 0.37672296E-02 0.91157779E+02</pdfrwt>
<pdfrwt beam="2">  1       -2 0.13052048E-01 0.91157779E+02</pdfrwt>
<totfact> 0.83741199E+04</totfact>
</mgrwt>
</event>
<event>
 5    1  0.6113696E+000  0.8033380E+02  0.7546771E-02  0.1328107E+00
          4   -1    0    0  501    0  0.00000000000E+00  0.00000000000E+00  0.11140712719E+02  0.11140712719E+02  0.00000000000E+00 0. -1.
         -4   -1    0    0    0  501 -0.00000000000E+00 -0.00000000000E+00 -0.14481838643E+03  0.14481838643E+03  0.00000000000E+00 0.  1.
         23    2    1    2    0    0  0.00000000000E+00  0.00000000000E+00 -0.13367767371E+03  0.15595909915E+03  0.80333804582E+02 0.  0.
        -13    1    3    3    0    0 -0.35813167471E+02 -0.12178178758E+02 -0.40612914404E+02  0.55500448815E+02  0.00000000000E+00 0.  1.
         13    1    3    3    0    0  0.35813167471E+02  0.12178178758E+02 -0.93064759308E+02  0.10045865034E+03  0.00000000000E+00 0. -1.
<mgrwt>
<rscale>  0 0.80333805E+02</rscale>
<asrwt>0</asrwt>
<pdfrwt beam="1">  1        4 0.17139558E-02 0.80333805E+02</pdfrwt>
<pdfrwt beam="2">  1       -4 0.22279752E-01 0.80333805E+02</pdfrwt>
<totfact> 0.32747782E+04</totfact>
</mgrwt>
</event>
<event>
 5    1  0.6113696E+000  0.9001425E+02  0.7546771E-02  0.1302817E+00
         -2   -1    0    0    0  501 -0.00000000000E+00  0.00000000000E+00  0.17032328770E+03  0.17032328770E+03  0.00000000000E+00 0.  1.
          2   -1    0    0  501    0  0.00000000000E+00 -0.00000000000E+00 -0.11892920308E+02  0.11892920308E+02  0.00000000000E+00 0. -1.
         23    2    1    2    0    0  0.00000000000E+00  0.00000000000E+00  0.15843036739E+03  0.18221620800E+03  0.90014249699E+02 0.  0.
        -13    1    3    3    0    0  0.41994825744E+02 -0.15454441610E+02  0.88973112843E+02  0.99592268594E+02  0.00000000000E+00 0.  1.
         13    1    3    3    0    0 -0.41994825744E+02  0.15454441610E+02  0.69457254544E+02  0.82623939410E+02  0.00000000000E+00 0. -1.
<mgrwt>
<rscale>  0 0.90014250E+02</rscale>
<asrwt>0</asrwt>
<pdfrwt beam="2">  1        2 0.18296802E-02 0.90014250E+02</pdfrwt>
<pdfrwt beam="1">  1       -2 0.26203581E-01 0.90014250E+02</pdfrwt>
<totfact> 0.68790001E+04</totfact>
</mgrwt>
</event>
<event>
 5    1  0.6113696E+000  0.9082488E+02  0.7546771E-02  0.1300866E+00
         -2   -1    0    0    0  501 -0.00000000000E+00  0.00000000000E+00  0.39430179262E+02  0.39430179262E+02  0.00000000000E+00 0.  1.
          2   -1    0    0  501    0  0.00000000000E+00 -0.00000000000E+00 -0.52302315079E+02  0.52302315079E+02  0.00000000000E+00 0. -1.
         23    2    1    2    0    0  0.00000000000E+00  0.00000000000E+00 -0.12872135817E+02  0.91732494340E+02  0.90824878956E+02 0.  0.
        -13    1    3    3    0    0  0.38589680723E+02 -0.22466856944E+02 -0.14787100448E+02  0.47038085196E+02  0.00000000000E+00 0. -1.
         13    1    3    3    0    0 -0.38589680723E+02  0.22466856944E+02  0.19149646310E+01  0.44694409145E+02  0.00000000000E+00 0.  1.
<mgrwt>
<rscale>  0 0.90824879E+02</rscale>
<asrwt>0</asrwt>
<pdfrwt beam="2">  1        2 0.80465100E-02 0.90824879E+02</pdfrwt>
<pdfrwt beam="1">  1       -2 0.60661815E-02 0.90824879E+02</pdfrwt>
<totfact> 0.10340726E+05</totfact>
</mgrwt>
</event>
<event>
 5    1  0.6113696E+000  0.8298670E+02  0.7546771E-02  0.1320783E+00
          1   -1    0    0  501    0  0.00000000000E+00  0.00000000000E+00  0.22414805430E+03  0.22414805430E+03  0.00000000000E+00 0. -1.
         -1   -1    0    0    0  501 -0.00000000000E+00 -0.00000000000E+00 -0.76810744701E+01  0.76810744701E+01  0.00000000000E+00 0.  1.
         23    2    1    2    0    0  0.00000000000E+00  0.00000000000E+00  0.21646697983E+03  0.23182912877E+03  0.82986695256E+02 0.  0.
        -13    1    3    3    0    0 -0.40306976676E+02 -0.97505670648E+01  0.11215641257E+03  0.11957753471E+03  0.00000000000E+00 0. -1.
         13    1    3    3    0    0  0.40306976676E+02  0.97505670648E+01  0.10431056725E+03  0.11225159405E+03  0.00000000000E+00 0.  1.
<mgrwt>
<rscale>  0 0.82986695E+02</rscale>
<asrwt>0</asrwt>
<pdfrwt beam="1">  1        1 0.34484311E-01 0.82986695E+02</pdfrwt>
<pdfrwt beam="2">  1       -1 0.11817039E-02 0.82986695E+02</pdfrwt>
<totfact> 0.15552583E+05</totfact>
</mgrwt>
</event>
<event>
 5    1  0.6113696E+000  0.9057373E+02  0.7546771E-02  0.1301468E+00
          4   -1    0    0  501    0  0.00000000000E+00  0.00000000000E+00  0.12149735872E+03  0.12149735872E+03  0.00000000000E+00 0. -1.
         -4   -1    0    0    0  501 -0.00000000000E+00 -0.00000000000E+00 -0.16880201787E+02  0.16880201787E+02  0.00000000000E+00 0.  1.
         23    2    1    2    0    0  0.00000000000E+00  0.00000000000E+00  0.10461715694E+03  0.13837756051E+03  0.90573725369E+02 0.  0.
        -13    1    3    3    0    0 -0.38747745617E+02 -0.15290029843E+02  0.79455425088E+02  0.89712526321E+02  0.00000000000E+00 0. -1.
         13    1    3    3    0    0  0.38747745617E+02  0.15290029843E+02  0.25161731848E+02  0.48665034189E+02  0.00000000000E+00 0.  1.
<mgrwt>
<rscale>  0 0.90573725E+02</rscale>
<asrwt>0</asrwt>
<pdfrwt beam="1">  1        4 0.18691901E-01 0.90573725E+02</pdfrwt>
<pdfrwt beam="2">  1       -4 0.25969542E-02 0.90573725E+02</pdfrwt>
<totfact> 0.24707546E+04</totfact>
</mgrwt>
</event>
<event>
 5    1  0.6113696E+000  0.9442111E+02  0.7546771E-02  0.1292485E+00
          1   -1    0    0  501    0  0.00000000000E+00  0.00000000000E+00  0.23219044547E+02  0.23219044547E+02  0.00000000000E+00 0. -1.
         -1   -1    0    0    0  501 -0.00000000000E+00 -0.00000000000E+00 -0.95991744764E+02  0.95991744764E+02  0.00000000000E+00 0.  1.
         23    2    1    2    0    0  0.00000000000E+00  0.00000000000E+00 -0.72772700216E+02  0.11921078931E+03  0.94421112000E+02 0.  0.
        -13    1    3    3    0    0 -0.44105834462E+02  0.54294538390E+01 -0.56509294042E+02  0.71889525771E+02  0.00000000000E+00 0.  1.
         13    1    3    3    0    0  0.44105834462E+02 -0.54294538390E+01 -0.16263406175E+02  0.47321263539E+02  0.00000000000E+00 0. -1.
<mgrwt>
<rscale>  0 0.94421112E+02</rscale>
<asrwt>0</asrwt>
<pdfrwt beam="1">  1        1 0.35721607E-02 0.94421112E+02</pdfrwt>
<pdfrwt beam="2">  1       -1 0.14767961E-01 0.94421112E+02</pdfrwt>
<totfact> 0.74923955E+04</totfact>
</mgrwt>
</event>
<event>
 5    1  0.6113696E+000  0.8948207E+02  0.7546771E-02  0.1304111E+00
         -1   -1    0    0    0  501 -0.00000000000E+00  0.00000000000E+00  0.11445173402E+02  0.11445173402E+02  0.00000000000E+00 0.  1.
          1   -1    0    0  501    0  0.00000000000E+00 -0.00000000000E+00 -0.17489994107E+03  0.17489994107E+03  0.00000000000E+00 0. -1.
         23    2    1    2    0    0  0.00000000000E+00  0.00000000000E+00 -0.16345476766E+03  0.18634511447E+03  0.89482068673E+02 0.  0.
        -13    1    3    3    0    0 -0.41367074633E+02 -0.13645557174E+02 -0.10299771413E+03  0.11183007292E+03  0.00000000000E+00 0.  1.
         13    1    3    3    0    0  0.41367074633E+02  0.13645557174E+02 -0.60457053537E+02  0.74515041546E+02  0.00000000000E+00 0. -1.
<mgrwt>
<rscale>  0 0.89482069E+02</rscale>
<asrwt>0</asrwt>
<pdfrwt beam="2">  1        1 0.26907680E-01 0.89482069E+02</pdfrwt>
<pdfrwt beam="1">  1       -1 0.17607961E-02 0.89482069E+02</pdfrwt>
<totfact> 0.12135279E+05</totfact>
</mgrwt>
</event>
<event>
 5    1  0.6113696E+000  0.9220745E+02  0.7546771E-02  0.1297592E+00
         -1   -1    0    0    0  501 -0.00000000000E+00  0.00000000000E+00  0.64304289618E+01  0.64304289618E+01  0.00000000000E+00 0.  1.
          1   -1    0    0  501    0  0.00000000000E+00 -0.00000000000E+00 -0.33054612645E+03  0.33054612645E+03  0.00000000000E+00 0. -1.
         23    2    1    2    0    0  0.00000000000E+00  0.00000000000E+00 -0.32411569749E+03  0.33697655541E+03  0.92207448392E+02 0.  0.
        -13    1    3    3    0    0  0.21911849463E+02 -0.40087505232E+02 -0.18470902035E+03  0.19027495742E+03  0.00000000000E+00 0. -1.
         13    1    3    3    0    0 -0.21911849463E+02  0.40087505232E+02 -0.13940667714E+03  0.14670159799E+03  0.00000000000E+00 0.  1.
<mgrwt>
<rscale>  0 0.92207448E+02</rscale>
<asrwt>0</asrwt>
<pdfrwt beam="2">  1        1 0.50853256E-01 0.92207448E+02</pdfrwt>
<pdfrwt beam="1">  1       -1 0.98929666E-03 0.92207448E+02</pdfrwt>
<totfact> 0.12662338E+05</totfact>
</mgrwt>
</event>
<event>
 5    1  0.6113696E+000  0.9848721E+02  0.7546771E-02  0.1283510E+00
         -1   -1    0    0    0  501 -0.00000000000E+00  0.00000000000E+00  0.12624380746E+02  0.12624380746E+02  0.00000000000E+00 0.  1.
          1   -1    0    0  501    0  0.00000000000E+00 -0.00000000000E+00 -0.19208330261E+03  0.19208330261E+03  0.00000000000E+00 0. -1.
         23    2    1    2    0    0  0.00000000000E+00  0.00000000000E+00 -0.17945892187E+03  0.20470768336E+03  0.98487212310E+02 0.  0.
        -13    1    3    3    0    0 -0.36484565985E+02 -0.25439303222E+02 -0.13365716199E+03  0.14086347523E+03  0.00000000000E+00 0. -1.
         13    1    3    3    0    0  0.36484565985E+02  0.25439303222E+02 -0.45801759882E+02  0.63844208131E+02  0.00000000000E+00 0.  1.
<mgrwt>
<rscale>  0 0.98487212E+02</rscale>
<asrwt>0</asrwt>
<pdfrwt beam="2">  1        1 0.29551276E-01 0.98487212E+02</pdfrwt>
<pdfrwt beam="1">  1       -1 0.19422125E-02 0.98487212E+02</pdfrwt>
<totfact> 0.95420564E+04</totfact>
</mgrwt>
</event>
<event>
 5    1  0.6113696E+000  0.8941408E+02  0.7546771E-02  0.1304277E+00
          2   -1    0    0  501    0  0.00000000000E+00  0.00000000000E+00  0.56244714985E+02  0.56244714985E+02  0.00000000000E+00 0. -1.
         -2   -1    0    0    0  501 -0.00000000000E+00 -0.00000000000E+00 -0.35536125990E+02  0.35536125990E+02  0.00000000000E+00 0.  1.
         23    2    1    2    0    0  0.00000000000E+00  0.00000000000E+00  0.20708588995E+02  0.91780840976E+02  0.89414076699E+02 0.  0.
        -13    1    3    3    0    0  0.24587556215E+02 -0.30504211104E+02 -0.11748543559E+02  0.40903338390E+02  0.00000000000E+00 0.  1.
         13    1    3    3    0    0 -0.24587556215E+02  0.30504211104E+02  0.32457132554E+02  0.50877502586E+02  0.00000000000E+00 0. -1.
<mgrwt>
<rscale>  0 0.89414077E+02</rscale>
<asrwt>0</asrwt>
<pdfrwt beam="1">  1        2 0.86530330E-02 0.89414077E+02</pdfrwt>
<pdfrwt beam="2">  1       -2 0.54670963E-02 0.89414077E+02</pdfrwt>
<totfact> 0.11016522E+05</totfact>
</mgrwt>
</event>
<event>
 5    1  0.6113696E+000  0.8840509E+02  0.7546771E-02  0.1306761E+00
         -3   -1    0    0    0  501 -0.00000000000E+00  0.00000000000E+00  0.64386663366E+02  0.64386663366E+02  0.00000000000E+00 0.  1.
          3   -1    0    0  501    0  0.00000000000E+00 -0.00000000000E+00 -0.30345800753E+02  0.30345800753E+02  0.00000000000E+00 0. -1.
         23    2    1    2    0    0  0.00000000000E+00  0.00000000000E+00  0.34040862614E+02  0.94732464119E+02  0.88405087131E+02 0.  0.
        -13    1    3    3    0    0  0.38760403839E+02  0.21133844297E+02  0.19381924635E+02  0.48214803568E+02  0.00000000000E+00 0.  1.
         13    1    3    3    0    0 -0.38760403839E+02 -0.21133844297E+02  0.14658937979E+02  0.46517660551E+02  0.00000000000E+00 0. -1.
<mgrwt>
<rscale>  0 0.88405087E+02</rscale>
<asrwt>0</asrwt>
<pdfrwt beam="2">  1        3 0.46685848E-02 0.88405087E+02</pdfrwt>
<pdfrwt beam="1">  1       -3 0.99056405E-02 0.88405087E+02</pdfrwt>
<totfact> 0.38132625E+04</totfact>
</mgrwt>
</event>
<event>
 5    1  0.6113696E+000  0.8224266E+02  0.7546771E-02  0.1322805E+00
         -3   -1    0    0    0  501 -0.00000000000E+00  0.00000000000E+00  0.12690706355E+02  0.12690706355E+02  0.00000000000E+00 0.  1.
          3   -1    0    0  501    0  0.00000000000E+00 -0.00000000000E+00 -0.13324425728E+03  0.13324425728E+03  0.00000000000E+00 0. -1.
         23    2    1    2    0    0  0.00000000000E+00  0.00000000000E+00 -0.12055355092E+03  0.14593496363E+03  0.82242659068E+02 0.  0.
        -13    1    3    3    0    0  0.60090905921E+01  0.25940433576E+02 -0.46727079986E+01  0.27034227636E+02  0.00000000000E+00 0.  1.
         13    1    3    3    0    0 -0.60090905921E+01 -0.25940433576E+02 -0.11588084293E+03  0.11890073600E+03  0.00000000000E+00 0. -1.
<mgrwt>
<rscale>  0 0.82242659E+02</rscale>
<asrwt>0</asrwt>
<pdfrwt beam="2">  1        3 0.20499117E-01 0.82242659E+02</pdfrwt>
<pdfrwt beam="1">  1       -3 0.19524163E-02 0.82242659E+02</pdfrwt>
<totfact> 0.41643769E+04</totfact>
</mgrwt>
</event>
<event>
 5    1  0.6113696E+000  0.9223697E+02  0.7546771E-02  0.1297523E+00
         -2   -1    0    0    0  501 -0.00000000000E+00  0.00000000000E+00  0.25463449253E+02  0.25463449253E+02  0.00000000000E+00 0.  1.
          2   -1    0    0  501    0  0.00000000000E+00 -0.00000000000E+00 -0.83528147909E+02  0.83528147909E+02  0.00000000000E+00 0. -1.
         23    2    1    2    0    0  0.00000000000E+00  0.00000000000E+00 -0.58064698656E+02  0.10899159716E+03  0.92236972099E+02 0.  0.
        -13    1    3    3    0    0  0.32885302007E+02 -0.25920628593E+02 -0.61928195376E+01  0.42328159522E+02  0.00000000000E+00 0.  1.
         13    1    3    3    0    0 -0.32885302007E+02  0.25920628593E+02 -0.51871879118E+02  0.66663437640E+02  0.00000000000E+00 0. -1.
<mgrwt>
<rscale>  0 0.92236972E+02</rscale>
<asrwt>0</asrwt>
<pdfrwt beam="2">  1        2 0.12850485E-01 0.92236972E+02</pdfrwt>
<pdfrwt beam="1">  1       -2 0.39174536E-02 0.92236972E+02</pdfrwt>
<totfact> 0.11261409E+05</totfact>
</mgrwt>
</event>
<event>
 5    1  0.6113696E+000  0.9216322E+02  0.7546771E-02  0.1297696E+00
          2   -1    0    0  501    0  0.00000000000E+00  0.00000000000E+00  0.10005069136E+03  0.10005069136E+03  0.00000000000E+00 0. -1.
         -2   -1    0    0    0  501 -0.00000000000E+00 -0.00000000000E+00 -0.21224387573E+02  0.21224387573E+02  0.00000000000E+00 0.  1.
         23    2    1    2    0    0  0.00000000000E+00  0.00000000000E+00  0.78826303786E+02  0.12127507893E+03  0.92163217183E+02 0.  0.
        -13    1    3    3    0    0  0.24560615065E+02 -0.32345234114E+00 -0.11892160314E+02  0.27290143105E+02  0.00000000000E+00 0.  1.
         13    1    3    3    0    0 -0.24560615065E+02  0.32345234114E+00  0.90718464100E+02  0.93984935827E+02  0.00000000000E+00 0. -1.
<mgrwt>
<rscale>  0 0.92163217E+02</rscale>
<asrwt>0</asrwt>
<pdfrwt beam="1">  1        2 0.15392414E-01 0.92163217E+02</pdfrwt>
<pdfrwt beam="2">  1       -2 0.32652904E-02 0.92163217E+02</pdfrwt>
<totfact> 0.11910790E+05</totfact>
</mgrwt>
</event>
<event>
 5    1  0.6113696E+000  0.1033769E+03  0.7546771E-02  0.1273351E+00
          2   -1    0    0  501    0  0.00000000000E+00  0.00000000000E+00  0.85673891836E+02  0.85673891836E+02  0.00000000000E+00 0. -1.
         -2   -1    0    0    0  501 -0.00000000000E+00 -0.00000000000E+00 -0.31184496688E+02  0.31184496688E+02  0.00000000000E+00 0.  1.
         23    2    1    2    0    0  0.00000000000E+00  0.00000000000E+00  0.54489395147E+02  0.11685838852E+03  0.10337692579E+03 0.  0.
        -13    1    3    3    0    0  0.21885466392E+02  0.46824688600E+02  0.26775754785E+02  0.58210532947E+02  0.00000000000E+00 0. -1.
         13    1    3    3    0    0 -0.21885466392E+02 -0.46824688600E+02  0.27713640362E+02  0.58647855577E+02  0.00000000000E+00 0.  1.
<mgrwt>
<rscale>  0 0.10337693E+03</rscale>
<asrwt>0</asrwt>
<pdfrwt beam="1">  1        2 0.13180599E-01 0.10337693E+03</pdfrwt>
<pdfrwt beam="2">  1       -2 0.47976149E-02 0.10337693E+03</pdfrwt>
<totfact> 0.82415272E+04</totfact>
</mgrwt>
</event>
<event>
 5    1  0.6113696E+000  0.9309619E+02  0.7546771E-02  0.1295522E+00
         -2   -1    0    0    0  501 -0.00000000000E+00  0.00000000000E+00  0.18714291703E+02  0.18714291703E+02  0.00000000000E+00 0.  1.
          2   -1    0    0  501    0  0.00000000000E+00 -0.00000000000E+00 -0.11577915760E+03  0.11577915760E+03  0.00000000000E+00 0. -1.
         23    2    1    2    0    0  0.00000000000E+00  0.00000000000E+00 -0.97064865895E+02  0.13449344930E+03  0.93096185281E+02 0.  0.
        -13    1    3    3    0    0  0.23011849133E+02  0.35889987725E+01 -0.10675645599E+03  0.10926741055E+03  0.00000000000E+00 0. -1.
         13    1    3    3    0    0 -0.23011849133E+02 -0.35889987725E+01  0.96915900928E+01  0.25226038754E+02  0.00000000000E+00 0.  1.
<mgrwt>
<rscale>  0 0.93096185E+02</rscale>
<asrwt>0</asrwt>
<pdfrwt beam="2">  1        2 0.17812178E-01 0.93096185E+02</pdfrwt>
<pdfrwt beam="1">  1       -2 0.28791217E-02 0.93096185E+02</pdfrwt>
<totfact> 0.12125795E+05</totfact>
</mgrwt>
</event>
<event>
 5    1  0.6113696E+000  0.8998332E+02  0.7546771E-02  0.1302892E+00
          1   -1    0    0  501    0  0.00000000000E+00  0.00000000000E+00  0.73874835099E+02  0.73874835099E+02  0.00000000000E+00 0. -1.
         -1   -1    0    0    0  501 -0.00000000000E+00 -0.00000000000E+00 -0.27401069577E+02  0.27401069577E+02  0.00000000000E+00 0.  1.
         23    2    1    2    0    0  0.00000000000E+00  0.00000000000E+00  0.46473765522E+02  0.10127590468E+03  0.89983320599E+02 0.  0.
        -13    1    3    3    0    0 -0.28410243302E+02  0.21941905735E+02  0.53763788724E+02  0.64646222858E+02  0.00000000000E+00 0. -1.
         13    1    3    3    0    0  0.28410243302E+02 -0.21941905735E+02 -0.72900232019E+01  0.36629681818E+02  0.00000000000E+00 0.  1.
<mgrwt>
<rscale>  0 0.89983321E+02</rscale>
<asrwt>0</asrwt>
<pdfrwt beam="1">  1        1 0.11365359E-01 0.89983321E+02</pdfrwt>
<pdfrwt beam="2">  1       -1 0.42155492E-02 0.89983321E+02</pdfrwt>
<totfact> 0.10316308E+05</totfact>
</mgrwt>
</event>
<event>
 5    1  0.6113696E+000  0.1188919E+03  0.7546771E-02  0.1244936E+00
          1   -1    0    0  501    0  0.00000000000E+00  0.00000000000E+00  0.32316066055E+02  0.32316066055E+02  0.00000000000E+00 0. -1.
         -1   -1    0    0    0  501 -0.00000000000E+00 -0.00000000000E+00 -0.10935182454E+03  0.10935182454E+03  0.00000000000E+00 0.  1.
         23    2    1    2    0    0  0.00000000000E+00  0.00000000000E+00 -0.77035758484E+02  0.14166789059E+03  0.11889189687E+03 0.  0.
        -13    1    3    3    0    0 -0.58993611720E+02 -0.67588962805E+01 -0.41865293587E+02  0.72654192651E+02  0.00000000000E+00 0. -1.
         13    1    3    3    0    0  0.58993611720E+02  0.67588962805E+01 -0.35170464897E+02  0.69013697943E+02  0.00000000000E+00 0.  1.
<mgrwt>
<rscale>  0 0.11889190E+03</rscale>
<asrwt>0</asrwt>
<pdfrwt beam="1">  1        1 0.49717025E-02 0.11889190E+03</pdfrwt>
<pdfrwt beam="2">  1       -1 0.16823357E-01 0.11889190E+03</pdfrwt>
<totfact> 0.40220240E+04</totfact>
</mgrwt>
</event>
<event>
 5    1  0.6113696E+000  0.8861542E+02  0.7546771E-02  0.1306240E+00
          2   -1    0    0  501    0  0.00000000000E+00  0.00000000000E+00  0.18775793293E+03  0.18775793293E+03  0.00000000000E+00 0. -1.
         -2   -1    0    0    0  501 -0.00000000000E+00 -0.00000000000E+00 -0.10455873436E+02  0.10455873436E+02  0.00000000000E+00 0.  1.
         23    2    1    2    0    0  0.00000000000E+00  0.00000000000E+00  0.17730205950E+03  0.19821380637E+03  0.88615420405E+02 0.  0.
        -13    1    3    3    0    0 -0.29874642444E+02  0.31049374825E+02  0.65555163576E+02  0.78447673067E+02  0.00000000000E+00 0. -1.
         13    1    3    3    0    0  0.29874642444E+02 -0.31049374825E+02  0.11174689592E+03  0.11976613330E+03  0.00000000000E+00 0.  1.
<mgrwt>
<rscale>  0 0.88615420E+02</rscale>
<asrwt>0</asrwt>
<pdfrwt beam="1">  1        2 0.28885833E-01 0.88615420E+02</pdfrwt>
<pdfrwt beam="2">  1       -2 0.16085960E-02 0.88615420E+02</pdfrwt>
<totfact> 0.16325096E+05</totfact>
</mgrwt>
</event>
<event>
 5    1  0.6113696E+000  0.8641606E+02  0.7546771E-02  0.1311770E+00
         -2   -1    0    0    0  501 -0.00000000000E+00  0.00000000000E+00  0.17086954656E+03  0.17086954656E+03  0.00000000000E+00 0.  1.
          2   -1    0    0  501    0  0.00000000000E+00 -0.00000000000E+00 -0.10926076013E+02  0.10926076013E+02  0.00000000000E+00 0. -1.
         23    2    1    2    0    0  0.00000000000E+00  0.00000000000E+00  0.15994347055E+03  0.18179562257E+03  0.86416055314E+02 0.  0.
        -13    1    3    3    0    0  0.25187584098E+02 -0.12088632343E+02  0.14931123597E+03  0.15190258263E+03  0.00000000000E+00 0.  1.
         13    1    3    3    0    0 -0.25187584098E+02  0.12088632343E+02  0.10632234577E+02  0.29893039937E+02  0.00000000000E+00 0. -1.
<mgrwt>
<rscale>  0 0.86416055E+02</rscale>
<asrwt>0</asrwt>
<pdfrwt beam="2">  1        2 0.16809349E-02 0.86416055E+02</pdfrwt>
<pdfrwt beam="1">  1       -2 0.26287621E-01 0.86416055E+02</pdfrwt>
<totfact> 0.76199935E+04</totfact>
</mgrwt>
</event>
<event>
 5    1  0.6113696E+000  0.1075488E+03  0.7546771E-02  0.1265178E+00
         -2   -1    0    0    0  501 -0.00000000000E+00  0.00000000000E+00  0.19909060697E+02  0.19909060697E+02  0.00000000000E+00 0. -1.
          2   -1    0    0  501    0  0.00000000000E+00 -0.00000000000E+00 -0.14524483728E+03  0.14524483728E+03  0.00000000000E+00 0.  1.
         23    2    1    2    0    0  0.00000000000E+00  0.00000000000E+00 -0.12533577658E+03  0.16515389798E+03  0.10754884065E+03 0.  0.
        -13    1    3    3    0    0  0.41280167210E+02 -0.17255851426E+02 -0.10847646361E+03  0.11734121088E+03  0.00000000000E+00 0.  1.
         13    1    3    3    0    0 -0.41280167210E+02  0.17255851426E+02 -0.16859312969E+02  0.47812687094E+02  0.00000000000E+00 0. -1.
<mgrwt>
<rscale>  0 0.10754884E+03</rscale>
<asrwt>0</asrwt>
<pdfrwt beam="2">  1        2 0.22345359E-01 0.10754884E+03</pdfrwt>
<pdfrwt beam="1">  1       -2 0.30629325E-02 0.10754884E+03</pdfrwt>
<totfact> 0.87840763E+04</totfact>
</mgrwt>
</event>
<event>
 5    1  0.6113696E+000  0.9189916E+02  0.7546771E-02  0.1298317E+00
          3   -1    0    0  501    0  0.00000000000E+00  0.00000000000E+00  0.37600277868E+02  0.37600277868E+02  0.00000000000E+00 0. -1.
         -3   -1    0    0    0  501 -0.00000000000E+00 -0.00000000000E+00 -0.56152884032E+02  0.56152884032E+02  0.00000000000E+00 0.  1.
         23    2    1    2    0    0  0.00000000000E+00  0.00000000000E+00 -0.18552606165E+02  0.93753161900E+02  0.91899163058E+02 0.  0.
        -13    1    3    3    0    0 -0.36597140949E+02  0.15362517419E+02  0.14342579389E+02  0.42202692458E+02  0.00000000000E+00 0. -1.
         13    1    3    3    0    0  0.36597140949E+02 -0.15362517419E+02 -0.32895185554E+02  0.51550469443E+02  0.00000000000E+00 0.  1.
<mgrwt>
<rscale>  0 0.91899163E+02</rscale>
<asrwt>0</asrwt>
<pdfrwt beam="1">  1        3 0.57846582E-02 0.91899163E+02</pdfrwt>
<pdfrwt beam="2">  1       -3 0.86389052E-02 0.91899163E+02</pdfrwt>
<totfact> 0.34393502E+04</totfact>
</mgrwt>
</event>
<event>
 5    1  0.6113696E+000  0.9101957E+02  0.7546771E-02  0.1300401E+00
         -4   -1    0    0    0  501 -0.00000000000E+00  0.00000000000E+00  0.19728371186E+03  0.19728371186E+03  0.00000000000E+00 0.  1.
          4   -1    0    0  501    0  0.00000000000E+00 -0.00000000000E+00 -0.10498284202E+02  0.10498284202E+02  0.00000000000E+00 0. -1.
         23    2    1    2    0    0  0.00000000000E+00  0.00000000000E+00  0.18678542766E+03  0.20778199606E+03  0.91019568787E+02 0.  0.
        -13    1    3    3    0    0 -0.43340079588E+02 -0.94392074598E+00  0.61770235323E+02  0.75464001067E+02  0.00000000000E+00 0.  1.
         13    1    3    3    0    0  0.43340079588E+02  0.94392074598E+00  0.12501519234E+03  0.13231799500E+03  0.00000000000E+00 0. -1.
<mgrwt>
<rscale>  0 0.91019569E+02</rscale>
<asrwt>0</asrwt>
<pdfrwt beam="2">  1        4 0.16151208E-02 0.91019569E+02</pdfrwt>
<pdfrwt beam="1">  1       -4 0.30351338E-01 0.91019569E+02</pdfrwt>
<totfact> 0.21163139E+04</totfact>
</mgrwt>
</event>
<event>
 5    1  0.6113696E+000  0.8066467E+02  0.7546771E-02  0.1327176E+00
          1   -1    0    0  501    0  0.00000000000E+00  0.00000000000E+00  0.60157512031E+01  0.60157512031E+01  0.00000000000E+00 0.  1.
         -1   -1    0    0    0  501 -0.00000000000E+00 -0.00000000000E+00 -0.27040636081E+03  0.27040636081E+03  0.00000000000E+00 0. -1.
         23    2    1    2    0    0  0.00000000000E+00  0.00000000000E+00 -0.26439060961E+03  0.27642211201E+03  0.80664673566E+02 0.  0.
        -13    1    3    3    0    0  0.32740343402E+01 -0.38607170974E+02 -0.93811349528E+02  0.10149779432E+03  0.00000000000E+00 0.  1.
         13    1    3    3    0    0 -0.32740343402E+01  0.38607170974E+02 -0.17057926008E+03  0.17492431769E+03  0.00000000000E+00 0. -1.
<mgrwt>
<rscale>  0 0.80664674E+02</rscale>
<asrwt>0</asrwt>
<pdfrwt beam="1">  1        1 0.92550012E-03 0.80664674E+02</pdfrwt>
<pdfrwt beam="2">  1       -1 0.41600981E-01 0.80664674E+02</pdfrwt>
<totfact> 0.86652064E+04</totfact>
</mgrwt>
</event>
<event>
 5    1  0.6113696E+000  0.5812808E+02  0.7546771E-02  0.1405860E+00
         -1   -1    0    0    0  501 -0.00000000000E+00  0.00000000000E+00  0.48986907824E+01  0.48986907824E+01  0.00000000000E+00 0.  1.
          1   -1    0    0  501    0  0.00000000000E+00 -0.00000000000E+00 -0.17243759744E+03  0.17243759744E+03  0.00000000000E+00 0. -1.
         23    2    1    2    0    0  0.00000000000E+00  0.00000000000E+00 -0.16753890666E+03  0.17733628822E+03  0.58128081651E+02 0.  0.
        -13    1    3    3    0    0 -0.23863556432E+00  0.25979466500E+02 -0.44023817555E+02  0.51118354225E+02  0.00000000000E+00 0.  1.
         13    1    3    3    0    0  0.23863556432E+00 -0.25979466500E+02 -0.12351508910E+03  0.12621793400E+03  0.00000000000E+00 0. -1.
<mgrwt>
<rscale>  0 0.58128082E+02</rscale>
<asrwt>0</asrwt>
<pdfrwt beam="2">  1        1 0.26528855E-01 0.58128082E+02</pdfrwt>
<pdfrwt beam="1">  1       -1 0.75364492E-03 0.58128082E+02</pdfrwt>
<totfact> 0.37436956E+05</totfact>
</mgrwt>
</event>
<event>
 5    1  0.6113696E+000  0.9102584E+02  0.7546771E-02  0.1300386E+00
          1   -1    0    0  501    0  0.00000000000E+00  0.00000000000E+00  0.11924094596E+02  0.11924094596E+02  0.00000000000E+00 0. -1.
         -1   -1    0    0    0  501 -0.00000000000E+00 -0.00000000000E+00 -0.17371767396E+03  0.17371767396E+03  0.00000000000E+00 0.  1.
         23    2    1    2    0    0  0.00000000000E+00  0.00000000000E+00 -0.16179357936E+03  0.18564176855E+03  0.91025841983E+02 0.  0.
        -13    1    3    3    0    0 -0.17947500457E+02  0.40967197760E+02 -0.98081650340E+02  0.10779811779E+03  0.00000000000E+00 0.  1.
         13    1    3    3    0    0  0.17947500457E+02 -0.40967197760E+02 -0.63711929023E+02  0.77843650767E+02  0.00000000000E+00 0. -1.
<mgrwt>
<rscale>  0 0.91025842E+02</rscale>
<asrwt>0</asrwt>
<pdfrwt beam="1">  1        1 0.18344763E-02 0.91025842E+02</pdfrwt>
<pdfrwt beam="2">  1       -1 0.26725793E-01 0.91025842E+02</pdfrwt>
<totfact> 0.72449043E+04</totfact>
</mgrwt>
</event>
<event>
 5    1  0.6113696E+000  0.9000953E+02  0.7546771E-02  0.1302829E+00
         -3   -1    0    0    0  501 -0.00000000000E+00  0.00000000000E+00  0.21100161156E+02  0.21100161156E+02  0.00000000000E+00 0.  1.
          3   -1    0    0  501    0  0.00000000000E+00 -0.00000000000E+00 -0.95991148772E+02  0.95991148772E+02  0.00000000000E+00 0. -1.
         23    2    1    2    0    0  0.00000000000E+00  0.00000000000E+00 -0.74890987616E+02  0.11709130993E+03  0.90009526354E+02 0.  0.
        -13    1    3    3    0    0  0.35330169205E+02 -0.26913573408E+02 -0.27986820136E+02  0.52495936900E+02  0.00000000000E+00 0.  1.
         13    1    3    3    0    0 -0.35330169205E+02  0.26913573408E+02 -0.46904167480E+02  0.64595373028E+02  0.00000000000E+00 0. -1.
<mgrwt>
<rscale>  0 0.90009526E+02</rscale>
<asrwt>0</asrwt>
<pdfrwt beam="2">  1        3 0.14767869E-01 0.90009526E+02</pdfrwt>
<pdfrwt beam="1">  1       -3 0.32461787E-02 0.90009526E+02</pdfrwt>
<totfact> 0.34635376E+04</totfact>
</mgrwt>
</event>
<event>
 5    1  0.6113696E+000  0.8961847E+02  0.7546771E-02  0.1303778E+00
          4   -1    0    0  501    0  0.00000000000E+00  0.00000000000E+00  0.79938246565E+02  0.79938246565E+02  0.00000000000E+00 0. -1.
         -4   -1    0    0    0  501 -0.00000000000E+00 -0.00000000000E+00 -0.25117734329E+02  0.25117734329E+02  0.00000000000E+00 0.  1.
         23    2    1    2    0    0  0.00000000000E+00  0.00000000000E+00  0.54820512236E+02  0.10505598089E+03  0.89618472201E+02 0.  0.
        -13    1    3    3    0    0 -0.87314371480E+01 -0.15309712362E+02 -0.20883966138E+02  0.27327007318E+02  0.00000000000E+00 0.  1.
         13    1    3    3    0    0  0.87314371480E+01  0.15309712362E+02  0.75704478374E+02  0.77728973576E+02  0.00000000000E+00 0. -1.
<mgrwt>
<rscale>  0 0.89618472E+02</rscale>
<asrwt>0</asrwt>
<pdfrwt beam="1">  1        4 0.12298192E-01 0.89618472E+02</pdfrwt>
<pdfrwt beam="2">  1       -4 0.38642669E-02 0.89618472E+02</pdfrwt>
<totfact> 0.27394654E+04</totfact>
</mgrwt>
</event>
<event>
 5    1  0.6113696E+000  0.9197997E+02  0.7546771E-02  0.1298127E+00
          1   -1    0    0  501    0  0.00000000000E+00  0.00000000000E+00  0.26584901524E+02  0.26584901524E+02  0.00000000000E+00 0. -1.
         -1   -1    0    0    0  501 -0.00000000000E+00 -0.00000000000E+00 -0.79559390968E+02  0.79559390968E+02  0.00000000000E+00 0.  1.
         23    2    1    2    0    0  0.00000000000E+00  0.00000000000E+00 -0.52974489444E+02  0.10614429249E+03  0.91979966823E+02 0.  0.
        -13    1    3    3    0    0 -0.25778388799E+02 -0.35940962272E+02 -0.41029417425E+02  0.60329853243E+02  0.00000000000E+00 0.  1.
         13    1    3    3    0    0  0.25778388799E+02  0.35940962272E+02 -0.11945072019E+02  0.45814439249E+02  0.00000000000E+00 0. -1.
<mgrwt>
<rscale>  0 0.91979967E+02</rscale>
<asrwt>0</asrwt>
<pdfrwt beam="1">  1        1 0.40899850E-02 0.91979967E+02</pdfrwt>
<pdfrwt beam="2">  1       -1 0.12239906E-01 0.91979967E+02</pdfrwt>
<totfact> 0.82846871E+04</totfact>
</mgrwt>
</event>
<event>
 5    1  0.6113696E+000  0.9134830E+02  0.7546771E-02  0.1299619E+00
         -1   -1    0    0    0  501 -0.00000000000E+00  0.00000000000E+00  0.31196191170E+02  0.31196191170E+02  0.00000000000E+00 0.  1.
          1   -1    0    0  501    0  0.00000000000E+00 -0.00000000000E+00 -0.66871237149E+02  0.66871237149E+02  0.00000000000E+00 0. -1.
         23    2    1    2    0    0  0.00000000000E+00  0.00000000000E+00 -0.35675045979E+02  0.98067428320E+02  0.91348298242E+02 0.  0.
        -13    1    3    3    0    0  0.26409015372E+02 -0.17701034319E+02 -0.53042357925E+02  0.61840556620E+02  0.00000000000E+00 0.  1.
         13    1    3    3    0    0 -0.26409015372E+02  0.17701034319E+02  0.17367311946E+02  0.36226871699E+02  0.00000000000E+00 0. -1.
<mgrwt>
<rscale>  0 0.91348298E+02</rscale>
<asrwt>0</asrwt>
<pdfrwt beam="2">  1        1 0.10287883E-01 0.91348298E+02</pdfrwt>
<pdfrwt beam="1">  1       -1 0.47994140E-02 0.91348298E+02</pdfrwt>
<totfact> 0.97467697E+04</totfact>
</mgrwt>
</event>
<event>
 5    1  0.6113696E+000  0.8413937E+02  0.7546771E-02  0.1317699E+00
         -4   -1    0    0    0  501 -0.00000000000E+00  0.00000000000E+00  0.53850095308E+01  0.53850095308E+01  0.00000000000E+00 0.  1.
          4   -1    0    0  501    0  0.00000000000E+00 -0.00000000000E+00 -0.32866389401E+03  0.32866389401E+03  0.00000000000E+00 0. -1.
         23    2    1    2    0    0  0.00000000000E+00  0.00000000000E+00 -0.32327888448E+03  0.33404890354E+03  0.84139365381E+02 0.  0.
        -13    1    3    3    0    0 -0.34534318199E+02 -0.18454203693E+02 -0.10056030207E+03  0.10791455472E+03  0.00000000000E+00 0.  1.
         13    1    3    3    0    0  0.34534318199E+02  0.18454203693E+02 -0.22271858241E+03  0.22613434883E+03  0.00000000000E+00 0. -1.
<mgrwt>
<rscale>  0 0.84139365E+02</rscale>
<asrwt>0</asrwt>
<pdfrwt beam="2">  1        4 0.50563669E-01 0.84139365E+02</pdfrwt>
<pdfrwt beam="1">  1       -4 0.82846311E-03 0.84139365E+02</pdfrwt>
<totfact> 0.20797492E+04</totfact>
</mgrwt>
</event>
<event>
 5    1  0.6113696E+000  0.9300778E+02  0.7546771E-02  0.1295727E+00
         -2   -1    0    0    0  501 -0.00000000000E+00  0.00000000000E+00  0.33592377933E+02  0.33592377933E+02  0.00000000000E+00 0.  1.
          2   -1    0    0  501    0  0.00000000000E+00 -0.00000000000E+00 -0.64378055957E+02  0.64378055957E+02  0.00000000000E+00 0. -1.
         23    2    1    2    0    0  0.00000000000E+00  0.00000000000E+00 -0.30785678023E+02  0.97970433890E+02  0.93007784326E+02 0.  0.
        -13    1    3    3    0    0  0.12263582755E+02  0.44638592773E+02 -0.10727933289E+02  0.47519343213E+02  0.00000000000E+00 0. -1.
         13    1    3    3    0    0 -0.12263582755E+02 -0.44638592773E+02 -0.20057744734E+02  0.50451090677E+02  0.00000000000E+00 0.  1.
<mgrwt>
<rscale>  0 0.93007784E+02</rscale>
<asrwt>0</asrwt>
<pdfrwt beam="2">  1        2 0.99043162E-02 0.93007784E+02</pdfrwt>
<pdfrwt beam="1">  1       -2 0.51680582E-02 0.93007784E+02</pdfrwt>
<totfact> 0.10221739E+05</totfact>
</mgrwt>
</event>
<event>
 5    1  0.6113696E+000  0.9004205E+02  0.7546771E-02  0.1302750E+00
         -1   -1    0    0    0  501 -0.00000000000E+00  0.00000000000E+00  0.32510282810E+02  0.32510282810E+02  0.00000000000E+00 0.  1.
          1   -1    0    0  501    0  0.00000000000E+00 -0.00000000000E+00 -0.62346199512E+02  0.62346199512E+02  0.00000000000E+00 0. -1.
         23    2    1    2    0    0  0.00000000000E+00  0.00000000000E+00 -0.29835916702E+02  0.94856482322E+02  0.90042047473E+02 0.  0.
        -13    1    3    3    0    0  0.33741958311E+02 -0.19001311209E+02  0.92733863823E+01  0.39819157114E+02  0.00000000000E+00 0.  1.
         13    1    3    3    0    0 -0.33741958311E+02  0.19001311209E+02 -0.39109303085E+02  0.55037325208E+02  0.00000000000E+00 0. -1.
<mgrwt>
<rscale>  0 0.90042047E+02</rscale>
<asrwt>0</asrwt>
<pdfrwt beam="2">  1        1 0.95917228E-02 0.90042047E+02</pdfrwt>
<pdfrwt beam="1">  1       -1 0.50015821E-02 0.90042047E+02</pdfrwt>
<totfact> 0.10034904E+05</totfact>
</mgrwt>
</event>
<event>
 5    1  0.6113696E+000  0.9082972E+02  0.7546771E-02  0.1300855E+00
         -2   -1    0    0    0  501 -0.00000000000E+00  0.00000000000E+00  0.36831829024E+02  0.36831829024E+02  0.00000000000E+00 0.  1.
          2   -1    0    0  501    0  0.00000000000E+00 -0.00000000000E+00 -0.55998016126E+02  0.55998016126E+02  0.00000000000E+00 0. -1.
         23    2    1    2    0    0  0.00000000000E+00  0.00000000000E+00 -0.19166187103E+02  0.92829845150E+02  0.90829716627E+02 0.  0.
        -13    1    3    3    0    0  0.40776079266E+02 -0.17170354848E+02 -0.20055670270E+02  0.48577151377E+02  0.00000000000E+00 0.  1.
         13    1    3    3    0    0 -0.40776079266E+02  0.17170354848E+02  0.88948316728E+00  0.44252693773E+02  0.00000000000E+00 0. -1.
<mgrwt>
<rscale>  0 0.90829717E+02</rscale>
<asrwt>0</asrwt>
<pdfrwt beam="2">  1        2 0.86150794E-02 0.90829717E+02</pdfrwt>
<pdfrwt beam="1">  1       -2 0.56664352E-02 0.90829717E+02</pdfrwt>
<totfact> 0.10526538E+05</totfact>
</mgrwt>
</event>
<event>
 5    1  0.6113696E+000  0.9374251E+02  0.7546771E-02  0.1294034E+00
         -2   -1    0    0    0  501 -0.00000000000E+00  0.00000000000E+00  0.19220307806E+03  0.19220307806E+03  0.00000000000E+00 0. -1.
          2   -1    0    0  501    0  0.00000000000E+00 -0.00000000000E+00 -0.11430174305E+02  0.11430174305E+02  0.00000000000E+00 0.  1.
         23    2    1    2    0    0  0.00000000000E+00  0.00000000000E+00  0.18077290375E+03  0.20363325236E+03  0.93742512963E+02 0.  0.
        -13    1    3    3    0    0  0.38842962352E+02 -0.16434207197E+02  0.13480140719E+03  0.14124545398E+03  0.00000000000E+00 0. -1.
         13    1    3    3    0    0 -0.38842962352E+02  0.16434207197E+02  0.45971496566E+02  0.62387798382E+02  0.00000000000E+00 0.  1.
<mgrwt>
<rscale>  0 0.93742513E+02</rscale>
<asrwt>0</asrwt>
<pdfrwt beam="2">  1        2 0.17584885E-02 0.93742513E+02</pdfrwt>
<pdfrwt beam="1">  1       -2 0.29569702E-01 0.93742513E+02</pdfrwt>
<totfact> 0.59051219E+04</totfact>
</mgrwt>
</event>
<event>
 5    1  0.6113696E+000  0.9227565E+02  0.7546771E-02  0.1297433E+00
         -2   -1    0    0    0  501 -0.00000000000E+00  0.00000000000E+00  0.22199420574E+02  0.22199420574E+02  0.00000000000E+00 0.  1.
          2   -1    0    0  501    0  0.00000000000E+00 -0.00000000000E+00 -0.95889836098E+02  0.95889836098E+02  0.00000000000E+00 0. -1.
         23    2    1    2    0    0  0.00000000000E+00  0.00000000000E+00 -0.73690415524E+02  0.11808925667E+03  0.92275647932E+02 0.  0.
        -13    1    3    3    0    0  0.44680181778E+02  0.51878738050E+01 -0.49987761882E+02  0.67245884754E+02  0.00000000000E+00 0.  1.
         13    1    3    3    0    0 -0.44680181778E+02 -0.51878738050E+01 -0.23702653642E+02  0.50843371919E+02  0.00000000000E+00 0. -1.
<mgrwt>
<rscale>  0 0.92275648E+02</rscale>
<asrwt>0</asrwt>
<pdfrwt beam="2">  1        2 0.14752282E-01 0.92275648E+02</pdfrwt>
<pdfrwt beam="1">  1       -2 0.34152956E-02 0.92275648E+02</pdfrwt>
<totfact> 0.11718435E+05</totfact>
</mgrwt>
</event>
<event>
 5    1  0.6113696E+000  0.8715085E+02  0.7546771E-02  0.1309902E+00
         -1   -1    0    0    0  501 -0.00000000000E+00  0.00000000000E+00  0.14249206795E+02  0.14249206795E+02  0.00000000000E+00 0.  1.
          1   -1    0    0  501    0  0.00000000000E+00 -0.00000000000E+00 -0.13325777719E+03  0.13325777719E+03  0.00000000000E+00 0. -1.
         23    2    1    2    0    0  0.00000000000E+00  0.00000000000E+00 -0.11900857039E+03  0.14750698398E+03  0.87150849088E+02 0.  0.
        -13    1    3    3    0    0 -0.41721772139E+02  0.12433153835E+02 -0.62683410736E+02  0.76318409091E+02  0.00000000000E+00 0. -1.
         13    1    3    3    0    0  0.41721772139E+02 -0.12433153835E+02 -0.56325159656E+02  0.71188574891E+02  0.00000000000E+00 0.  1.
<mgrwt>
<rscale>  0 0.87150849E+02</rscale>
<asrwt>0</asrwt>
<pdfrwt beam="2">  1        1 0.20501197E-01 0.87150849E+02</pdfrwt>
<pdfrwt beam="1">  1       -1 0.21921856E-02 0.87150849E+02</pdfrwt>
<totfact> 0.12395960E+05</totfact>
</mgrwt>
</event>
<event>
 5    1  0.6113696E+000  0.9168086E+02  0.7546771E-02  0.1298832E+00
         -2   -1    0    0    0  501 -0.00000000000E+00  0.00000000000E+00  0.79906271679E+02  0.79906271679E+02  0.00000000000E+00 0.  1.
          2   -1    0    0  501    0  0.00000000000E+00 -0.00000000000E+00 -0.26297621284E+02  0.26297621284E+02  0.00000000000E+00 0. -1.
         23    2    1    2    0    0  0.00000000000E+00  0.00000000000E+00  0.53608650395E+02  0.10620389296E+03  0.91680856691E+02 0.  0.
        -13    1    3    3    0    0 -0.15840752516E+02  0.21190790822E+01  0.76574457091E+02  0.78224468137E+02  0.00000000000E+00 0.  1.
         13    1    3    3    0    0  0.15840752516E+02 -0.21190790822E+01 -0.22965806696E+02  0.27979424827E+02  0.00000000000E+00 0. -1.
<mgrwt>
<rscale>  0 0.91680857E+02</rscale>
<asrwt>0</asrwt>
<pdfrwt beam="2">  1        2 0.40457879E-02 0.91680857E+02</pdfrwt>
<pdfrwt beam="1">  1       -2 0.12293272E-01 0.91680857E+02</pdfrwt>
<totfact> 0.83960314E+04</totfact>
</mgrwt>
</event>
<event>
 5    1  0.6113696E+000  0.9436234E+02  0.7546771E-02  0.1292619E+00
         -2   -1    0    0    0  501 -0.00000000000E+00  0.00000000000E+00  0.33831924379E+02  0.33831924379E+02  0.00000000000E+00 0.  1.
          2   -1    0    0  501    0  0.00000000000E+00 -0.00000000000E+00 -0.65797698754E+02  0.65797698754E+02  0.00000000000E+00 0. -1.
         23    2    1    2    0    0  0.00000000000E+00  0.00000000000E+00 -0.31965774375E+02  0.99629623134E+02  0.94362339280E+02 0.  0.
        -13    1    3    3    0    0  0.10348437850E+02  0.32441551455E+02  0.18497644440E+02  0.38751868040E+02  0.00000000000E+00 0.  1.
         13    1    3    3    0    0 -0.10348437850E+02 -0.32441551455E+02 -0.50463418816E+02  0.60877755094E+02  0.00000000000E+00 0. -1.
<mgrwt>
<rscale>  0 0.94362339E+02</rscale>
<asrwt>0</asrwt>
<pdfrwt beam="2">  1        2 0.10122723E-01 0.94362339E+02</pdfrwt>
<pdfrwt beam="1">  1       -2 0.52049114E-02 0.94362339E+02</pdfrwt>
<totfact> 0.98722064E+04</totfact>
</mgrwt>
</event>
<event>
 5    1  0.6113696E+000  0.8958249E+02  0.7546771E-02  0.1303866E+00
         -1   -1    0    0    0  501 -0.00000000000E+00  0.00000000000E+00  0.12287873951E+02  0.12287873951E+02  0.00000000000E+00 0.  1.
          1   -1    0    0  501    0  0.00000000000E+00 -0.00000000000E+00 -0.16327119274E+03  0.16327119274E+03  0.00000000000E+00 0. -1.
         23    2    1    2    0    0  0.00000000000E+00  0.00000000000E+00 -0.15098331879E+03  0.17555906670E+03  0.89582494636E+02 0.  0.
        -13    1    3    3    0    0  0.20902006950E+02 -0.21306074645E+02 -0.10040403187E+02  0.31490512976E+02  0.00000000000E+00 0.  1.
         13    1    3    3    0    0 -0.20902006950E+02  0.21306074645E+02 -0.14094291561E+03  0.14406855372E+03  0.00000000000E+00 0. -1.
<mgrwt>
<rscale>  0 0.89582495E+02</rscale>
<asrwt>0</asrwt>
<pdfrwt beam="2">  1        1 0.25118642E-01 0.89582495E+02</pdfrwt>
<pdfrwt beam="1">  1       -1 0.18904424E-02 0.89582495E+02</pdfrwt>
<totfact> 0.11944065E+05</totfact>
</mgrwt>
</event>
<event>
 5    1  0.6113696E+000  0.9048503E+02  0.7546771E-02  0.1301681E+00
          2   -1    0    0  501    0  0.00000000000E+00  0.00000000000E+00  0.20106984635E+03  0.20106984635E+03  0.00000000000E+00 0. -1.
         -2   -1    0    0    0  501 -0.00000000000E+00 -0.00000000000E+00 -0.10179970790E+02  0.10179970790E+02  0.00000000000E+00 0.  1.
         23    2    1    2    0    0  0.00000000000E+00  0.00000000000E+00  0.19088987556E+03  0.21124981714E+03  0.90485029978E+02 0.  0.
        -13    1    3    3    0    0  0.32625790210E+02 -0.23039342504E+02  0.14505980148E+03  0.15045796588E+03  0.00000000000E+00 0.  1.
         13    1    3    3    0    0 -0.32625790210E+02  0.23039342504E+02  0.45830074075E+02  0.60791851259E+02  0.00000000000E+00 0. -1.
<mgrwt>
<rscale>  0 0.90485030E+02</rscale>
<asrwt>0</asrwt>
<pdfrwt beam="1">  1        2 0.30933820E-01 0.90485030E+02</pdfrwt>
<pdfrwt beam="2">  1       -2 0.15661495E-02 0.90485030E+02</pdfrwt>
<totfact> 0.15818587E+05</totfact>
</mgrwt>
</event>
<event>
 5    1  0.6113696E+000  0.9455576E+02  0.7546771E-02  0.1292180E+00
         -1   -1    0    0    0  501 -0.00000000000E+00  0.00000000000E+00  0.74732713706E+02  0.74732713706E+02  0.00000000000E+00 0.  1.
          1   -1    0    0  501    0  0.00000000000E+00 -0.00000000000E+00 -0.29909227250E+02  0.29909227250E+02  0.00000000000E+00 0. -1.
         23    2    1    2    0    0  0.00000000000E+00  0.00000000000E+00  0.44823486456E+02  0.10464194096E+03  0.94555755346E+02 0.  0.
        -13    1    3    3    0    0 -0.46277866904E+02  0.95798323556E+01  0.23889701540E+02  0.52954055489E+02  0.00000000000E+00 0. -1.
         13    1    3    3    0    0  0.46277866904E+02 -0.95798323556E+01  0.20933784917E+02  0.51687885467E+02  0.00000000000E+00 0.  1.
<mgrwt>
<rscale>  0 0.94555755E+02</rscale>
<asrwt>0</asrwt>
<pdfrwt beam="2">  1        1 0.46014196E-02 0.94555755E+02</pdfrwt>
<pdfrwt beam="1">  1       -1 0.11497341E-01 0.94555755E+02</pdfrwt>
<totfact> 0.78009635E+04</totfact>
</mgrwt>
</event>
<event>
 5    1  0.6113696E+000  0.8936477E+02  0.7546771E-02  0.1304397E+00
          2   -1    0    0  501    0  0.00000000000E+00  0.00000000000E+00  0.21613995365E+02  0.21613995365E+02  0.00000000000E+00 0.  1.
         -2   -1    0    0    0  501 -0.00000000000E+00 -0.00000000000E+00 -0.92371429407E+02  0.92371429407E+02  0.00000000000E+00 0. -1.
         23    2    1    2    0    0  0.00000000000E+00  0.00000000000E+00 -0.70757434042E+02  0.11398542477E+03  0.89364772636E+02 0.  0.
        -13    1    3    3    0    0  0.10570354320E+02  0.28367854315E+02 -0.77297099449E+02  0.83013909269E+02  0.00000000000E+00 0. -1.
         13    1    3    3    0    0 -0.10570354320E+02 -0.28367854315E+02  0.65396654070E+01  0.30971515503E+02  0.00000000000E+00 0.  1.
<mgrwt>
<rscale>  0 0.89364773E+02</rscale>
<asrwt>0</asrwt>
<pdfrwt beam="1">  1        2 0.33252301E-02 0.89364773E+02</pdfrwt>
<pdfrwt beam="2">  1       -2 0.14210989E-01 0.89364773E+02</pdfrwt>
<totfact> 0.85852833E+04</totfact>
</mgrwt>
</event>
<event>
 5    1  0.6113696E+000  0.9129870E+02  0.7546771E-02  0.1299737E+00
         -1   -1    0    0    0  501 -0.00000000000E+00  0.00000000000E+00  0.11851621683E+03  0.11851621683E+03  0.00000000000E+00 0.  1.
          1   -1    0    0  501    0  0.00000000000E+00 -0.00000000000E+00 -0.17582937021E+02  0.17582937021E+02  0.00000000000E+00 0. -1.
         23    2    1    2    0    0  0.00000000000E+00  0.00000000000E+00  0.10093327981E+03  0.13609915386E+03  0.91298700462E+02 0.  0.
        -13    1    3    3    0    0 -0.36780042777E+02 -0.26262231093E+02  0.40876564886E+02  0.60937425984E+02  0.00000000000E+00 0.  1.
         13    1    3    3    0    0  0.36780042777E+02  0.26262231093E+02  0.60056714928E+02  0.75161727871E+02  0.00000000000E+00 0. -1.
<mgrwt>
<rscale>  0 0.91298700E+02</rscale>
<asrwt>0</asrwt>
<pdfrwt beam="2">  1        1 0.27050673E-02 0.91298700E+02</pdfrwt>
<pdfrwt beam="1">  1       -1 0.18233264E-01 0.91298700E+02</pdfrwt>
<totfact> 0.78458480E+04</totfact>
</mgrwt>
</event>
<event>
 5    1  0.6113696E+000  0.8969424E+02  0.7546771E-02  0.1303594E+00
         -3   -1    0    0    0  501 -0.00000000000E+00  0.00000000000E+00  0.31615068514E+02  0.31615068514E+02  0.00000000000E+00 0.  1.
          3   -1    0    0  501    0  0.00000000000E+00 -0.00000000000E+00 -0.63617267778E+02  0.63617267778E+02  0.00000000000E+00 0. -1.
         23    2    1    2    0    0  0.00000000000E+00  0.00000000000E+00 -0.32002199264E+02  0.95232336293E+02  0.89694242391E+02 0.  0.
        -13    1    3    3    0    0  0.38363945473E+02  0.18734982437E+01 -0.40581381623E+02  0.55876209986E+02  0.00000000000E+00 0. -1.
         13    1    3    3    0    0 -0.38363945473E+02 -0.18734982437E+01  0.85791823586E+01  0.39356126307E+02  0.00000000000E+00 0.  1.
<mgrwt>
<rscale>  0 0.89694242E+02</rscale>
<asrwt>0</asrwt>
<pdfrwt beam="2">  1        3 0.97872720E-02 0.89694242E+02</pdfrwt>
<pdfrwt beam="1">  1       -3 0.48638567E-02 0.89694242E+02</pdfrwt>
<totfact> 0.36623811E+04</totfact>
</mgrwt>
</event>
<event>
 5    1  0.6113696E+000  0.9656675E+02  0.7546771E-02  0.1287686E+00
         -4   -1    0    0    0  501 -0.00000000000E+00  0.00000000000E+00  0.20529713039E+02  0.20529713039E+02  0.00000000000E+00 0.  1.
          4   -1    0    0  501    0  0.00000000000E+00 -0.00000000000E+00 -0.11355659525E+03  0.11355659525E+03  0.00000000000E+00 0. -1.
         23    2    1    2    0    0  0.00000000000E+00  0.00000000000E+00 -0.93026882213E+02  0.13408630829E+03  0.96566750264E+02 0.  0.
        -13    1    3    3    0    0  0.87991062830E+01  0.46896696411E+02 -0.56769810031E+02  0.74158854742E+02  0.00000000000E+00 0.  1.
         13    1    3    3    0    0 -0.87991062830E+01 -0.46896696411E+02 -0.36257072182E+02  0.59927453549E+02  0.00000000000E+00 0. -1.
<mgrwt>
<rscale>  0 0.96566750E+02</rscale>
<asrwt>0</asrwt>
<pdfrwt beam="2">  1        4 0.17470246E-01 0.96566750E+02</pdfrwt>
<pdfrwt beam="1">  1       -4 0.31584174E-02 0.96566750E+02</pdfrwt>
<totfact> 0.20964929E+04</totfact>
</mgrwt>
</event>
<event>
 5    1  0.6113696E+000  0.8745005E+02  0.7546771E-02  0.1309147E+00
          1   -1    0    0  501    0  0.00000000000E+00  0.00000000000E+00  0.47021773044E+02  0.47021773044E+02  0.00000000000E+00 0. -1.
         -1   -1    0    0    0  501 -0.00000000000E+00 -0.00000000000E+00 -0.40659411051E+02  0.40659411051E+02  0.00000000000E+00 0.  1.
         23    2    1    2    0    0  0.00000000000E+00  0.00000000000E+00  0.63623619929E+01  0.87681184095E+02  0.87450045135E+02 0.  0.
        -13    1    3    3    0    0 -0.81629272797E+01  0.36861652198E+02 -0.18933016916E+02  0.42235931552E+02  0.00000000000E+00 0.  1.
         13    1    3    3    0    0  0.81629272797E+01 -0.36861652198E+02  0.25295378909E+02  0.45445252543E+02  0.00000000000E+00 0. -1.
<mgrwt>
<rscale>  0 0.87450045E+02</rscale>
<asrwt>0</asrwt>
<pdfrwt beam="1">  1        1 0.72341189E-02 0.87450045E+02</pdfrwt>
<pdfrwt beam="2">  1       -1 0.62552940E-02 0.87450045E+02</pdfrwt>
<totfact> 0.10438056E+05</totfact>
</mgrwt>
</event>
<event>
 5    1  0.6113696E+000  0.9089747E+02  0.7546771E-02  0.1300693E+00
          2   -1    0    0  501    0  0.00000000000E+00  0.00000000000E+00  0.41829776543E+02  0.41829776543E+02  0.00000000000E+00 0. -1.
         -2   -1    0    0    0  501 -0.00000000000E+00 -0.00000000000E+00 -0.49380787268E+02  0.49380787268E+02  0.00000000000E+00 0.  1.
         23    2    1    2    0    0  0.00000000000E+00  0.00000000000E+00 -0.75510107257E+01  0.91210563811E+02  0.90897465244E+02 0.  0.
        -13    1    3    3    0    0 -0.29486326919E+02  0.40454067670E+01  0.30690710793E+02  0.42751941711E+02  0.00000000000E+00 0. -1.
         13    1    3    3    0    0  0.29486326919E+02 -0.40454067670E+01 -0.38241721519E+02  0.48458622100E+02  0.00000000000E+00 0.  1.
<mgrwt>
<rscale>  0 0.90897465E+02</rscale>
<asrwt>0</asrwt>
<pdfrwt beam="1">  1        2 0.64353502E-02 0.90897465E+02</pdfrwt>
<pdfrwt beam="2">  1       -2 0.75970442E-02 0.90897465E+02</pdfrwt>
<totfact> 0.97357589E+04</totfact>
</mgrwt>
</event>
<event>
 5    1  0.6113696E+000  0.9075086E+02  0.7546771E-02  0.1301044E+00
          1   -1    0    0  501    0  0.00000000000E+00  0.00000000000E+00  0.44102095680E+02  0.44102095680E+02  0.00000000000E+00 0. -1.
         -1   -1    0    0    0  501 -0.00000000000E+00 -0.00000000000E+00 -0.46685528137E+02  0.46685528137E+02  0.00000000000E+00 0.  1.
         23    2    1    2    0    0  0.00000000000E+00  0.00000000000E+00 -0.25834324572E+01  0.90787623817E+02  0.90750859583E+02 0.  0.
        -13    1    3    3    0    0 -0.14594074891E+02  0.31779621508E+02  0.27633631586E+02  0.44570718636E+02  0.00000000000E+00 0. -1.
         13    1    3    3    0    0  0.14594074891E+02 -0.31779621508E+02 -0.30217064043E+02  0.46216905181E+02  0.00000000000E+00 0.  1.
<mgrwt>
<rscale>  0 0.90750860E+02</rscale>
<asrwt>0</asrwt>
<pdfrwt beam="1">  1        1 0.67849379E-02 0.90750860E+02</pdfrwt>
<pdfrwt beam="2">  1       -1 0.71823889E-02 0.90750860E+02</pdfrwt>
<totfact> 0.93230661E+04</totfact>
</mgrwt>
</event>
<event>
 5    1  0.6113696E+000  0.8834092E+02  0.7546771E-02  0.1306920E+00
          3   -1    0    0  501    0  0.00000000000E+00  0.00000000000E+00  0.10568262874E+03  0.10568262874E+03  0.00000000000E+00 0. -1.
         -3   -1    0    0    0  501 -0.00000000000E+00 -0.00000000000E+00 -0.18461213365E+02  0.18461213365E+02  0.00000000000E+00 0.  1.
         23    2    1    2    0    0  0.00000000000E+00  0.00000000000E+00  0.87221415375E+02  0.12414384211E+03  0.88340920488E+02 0.  0.
        -13    1    3    3    0    0 -0.22803968764E+02  0.75026842445E+01 -0.84931787155E+01  0.25464590060E+02  0.00000000000E+00 0.  1.
         13    1    3    3    0    0  0.22803968764E+02 -0.75026842445E+01  0.95714594091E+02  0.98679252045E+02  0.00000000000E+00 0. -1.
<mgrwt>
<rscale>  0 0.88340920E+02</rscale>
<asrwt>0</asrwt>
<pdfrwt beam="1">  1        3 0.16258866E-01 0.88340920E+02</pdfrwt>
<pdfrwt beam="2">  1       -3 0.28401867E-02 0.88340920E+02</pdfrwt>
<totfact> 0.35907389E+04</totfact>
</mgrwt>
</event>
<event>
 5    1  0.6113696E+000  0.9147020E+02  0.7546771E-02  0.1299330E+00
          4   -1    0    0  501    0  0.00000000000E+00  0.00000000000E+00  0.10463809985E+03  0.10463809985E+03  0.00000000000E+00 0. -1.
         -4   -1    0    0    0  501 -0.00000000000E+00 -0.00000000000E+00 -0.19989843173E+02  0.19989843173E+02  0.00000000000E+00 0.  1.
         23    2    1    2    0    0  0.00000000000E+00  0.00000000000E+00  0.84648256676E+02  0.12462794302E+03  0.91470196367E+02 0.  0.
        -13    1    3    3    0    0  0.30287410171E+02  0.34269022023E+02  0.42217534769E+02  0.62241572340E+02  0.00000000000E+00 0.  1.
         13    1    3    3    0    0 -0.30287410171E+02 -0.34269022023E+02  0.42430721906E+02  0.62386370682E+02  0.00000000000E+00 0. -1.
<mgrwt>
<rscale>  0 0.91470196E+02</rscale>
<asrwt>0</asrwt>
<pdfrwt beam="1">  1        4 0.16098169E-01 0.91470196E+02</pdfrwt>
<pdfrwt beam="2">  1       -4 0.30753606E-02 0.91470196E+02</pdfrwt>
<totfact> 0.24796490E+04</totfact>
</mgrwt>
</event>
<event>
 5    1  0.6113696E+000  0.9313874E+02  0.7546771E-02  0.1295424E+00
         -1   -1    0    0    0  501 -0.00000000000E+00  0.00000000000E+00  0.12902864515E+03  0.12902864515E+03  0.00000000000E+00 0.  1.
          1   -1    0    0  501    0  0.00000000000E+00 -0.00000000000E+00 -0.16807942836E+02  0.16807942836E+02  0.00000000000E+00 0. -1.
         23    2    1    2    0    0  0.00000000000E+00  0.00000000000E+00  0.11222070231E+03  0.14583658798E+03  0.93138737201E+02 0.  0.
        -13    1    3    3    0    0 -0.24127716155E+02  0.31052075764E+02  0.95171572529E+02  0.10297575595E+03  0.00000000000E+00 0.  1.
         13    1    3    3    0    0  0.24127716155E+02 -0.31052075764E+02  0.17049129781E+02  0.42860832031E+02  0.00000000000E+00 0. -1.
<mgrwt>
<rscale>  0 0.93138737E+02</rscale>
<asrwt>0</asrwt>
<pdfrwt beam="2">  1        1 0.25858374E-02 0.93138737E+02</pdfrwt>
<pdfrwt beam="1">  1       -1 0.19850560E-01 0.93138737E+02</pdfrwt>
<totfact> 0.73195671E+04</totfact>
</mgrwt>
</event>
<event>
 5    1  0.6113696E+000  0.9058829E+02  0.7546771E-02  0.1301433E+00
          1   -1    0    0  501    0  0.00000000000E+00  0.00000000000E+00  0.17672023402E+03  0.17672023402E+03  0.00000000000E+00 0. -1.
         -1   -1    0    0    0  501 -0.00000000000E+00 -0.00000000000E+00 -0.11609081615E+02  0.11609081615E+02  0.00000000000E+00 0.  1.
         23    2    1    2    0    0  0.00000000000E+00  0.00000000000E+00  0.16511115240E+03  0.18832931563E+03  0.90588291072E+02 0.  0.
        -13    1    3    3    0    0 -0.34136088223E+02 -0.26101620111E+02  0.52789960029E+02  0.68068693035E+02  0.00000000000E+00 0.  1.
         13    1    3    3    0    0  0.34136088223E+02  0.26101620111E+02  0.11232119237E+03  0.12026062260E+03  0.00000000000E+00 0. -1.
<mgrwt>
<rscale>  0 0.90588291E+02</rscale>
<asrwt>0</asrwt>
<pdfrwt beam="1">  1        1 0.27187726E-01 0.90588291E+02</pdfrwt>
<pdfrwt beam="2">  1       -1 0.17860127E-02 0.90588291E+02</pdfrwt>
<totfact> 0.11764811E+05</totfact>
</mgrwt>
</event>
<event>
 5    1  0.6113696E+000  0.9028912E+02  0.7546771E-02  0.1302153E+00
          1   -1    0    0  501    0  0.00000000000E+00  0.00000000000E+00  0.13368121006E+03  0.13368121006E+03  0.00000000000E+00 0. -1.
         -1   -1    0    0    0  501 -0.00000000000E+00 -0.00000000000E+00 -0.15245458877E+02  0.15245458877E+02  0.00000000000E+00 0.  1.
         23    2    1    2    0    0  0.00000000000E+00  0.00000000000E+00  0.11843575118E+03  0.14892666894E+03  0.90289122060E+02 0.  0.
        -13    1    3    3    0    0  0.33002616794E+02 -0.23446666160E+02  0.26265652279E+02  0.48257676684E+02  0.00000000000E+00 0.  1.
         13    1    3    3    0    0 -0.33002616794E+02  0.23446666160E+02  0.92170098905E+02  0.10066899225E+03  0.00000000000E+00 0. -1.
<mgrwt>
<rscale>  0 0.90289122E+02</rscale>
<asrwt>0</asrwt>
<pdfrwt beam="1">  1        1 0.20566339E-01 0.90289122E+02</pdfrwt>
<pdfrwt beam="2">  1       -1 0.23454553E-02 0.90289122E+02</pdfrwt>
<totfact> 0.11275443E+05</totfact>
</mgrwt>
</event>
<event>
 4    1  0.6113696E+000  0.1338150E+03  0.7546771E-02  0.1221902E+00
         -1   -1    0    0    0  501 -0.00000000000E+00  0.00000000000E+00  0.13224980863E+02  0.13224980863E+02  0.00000000000E+00 0.  1.
          1   -1    0    0  501    0  0.00000000000E+00 -0.00000000000E+00 -0.33849703971E+03  0.33849703971E+03  0.00000000000E+00 0. -1.
        -13    1    1    2    0    0  0.39323957626E+02  0.36306321525E+02 -0.26816940122E+03  0.27345813277E+03  0.00000000000E+00 0. -1.
         13    1    1    2    0    0 -0.39323957626E+02 -0.36306321525E+02 -0.57102657619E+02  0.78263887798E+02  0.00000000000E+00 0.  1.
<mgrwt>
<rscale>  0 0.13381505E+03</rscale>
<asrwt>0</asrwt>
<pdfrwt beam="2">  1        1 0.52076471E-01 0.13381505E+03</pdfrwt>
<pdfrwt beam="1">  1       -1 0.20346123E-02 0.13381505E+03</pdfrwt>
<totfact> 0.46249841E+04</totfact>
</mgrwt>
</event>
<event>
 5    1  0.6113696E+000  0.1062621E+03  0.7546771E-02  0.1267653E+00
         -4   -1    0    0    0  501 -0.00000000000E+00  0.00000000000E+00  0.68783317612E+02  0.68783317612E+02  0.00000000000E+00 0. -1.
          4   -1    0    0  501    0  0.00000000000E+00 -0.00000000000E+00 -0.41040624645E+02  0.41040624645E+02  0.00000000000E+00 0.  1.
         23    2    1    2    0    0  0.00000000000E+00  0.00000000000E+00  0.27742692967E+02  0.10982394226E+03  0.10626213474E+03 0.  0.
        -13    1    3    3    0    0 -0.29245265649E+02 -0.21811652125E+02 -0.26048139653E+02  0.44827885414E+02  0.00000000000E+00 0.  1.
         13    1    3    3    0    0  0.29245265649E+02  0.21811652125E+02  0.53790832620E+02  0.64996056844E+02  0.00000000000E+00 0. -1.
<mgrwt>
<rscale>  0 0.10626213E+03</rscale>
<asrwt>0</asrwt>
<pdfrwt beam="2">  1        4 0.63139422E-02 0.10626213E+03</pdfrwt>
<pdfrwt beam="1">  1       -4 0.10582049E-01 0.10626213E+03</pdfrwt>
<totfact> 0.17008764E+04</totfact>
</mgrwt>
</event>
<event>
 5    1  0.6113696E+000  0.9109211E+02  0.7546771E-02  0.1300228E+00
          1   -1    0    0  501    0  0.00000000000E+00  0.00000000000E+00  0.15435355047E+02  0.15435355047E+02  0.00000000000E+00 0. -1.
         -1   -1    0    0    0  501 -0.00000000000E+00 -0.00000000000E+00 -0.13439555486E+03  0.13439555486E+03  0.00000000000E+00 0.  1.
         23    2    1    2    0    0  0.00000000000E+00  0.00000000000E+00 -0.11896019982E+03  0.14983090991E+03  0.91092109560E+02 0.  0.
        -13    1    3    3    0    0 -0.30073319403E+02 -0.27778522536E+02 -0.26649705598E+02  0.48849336358E+02  0.00000000000E+00 0.  1.
         13    1    3    3    0    0  0.30073319403E+02  0.27778522536E+02 -0.92310494218E+02  0.10098157355E+03  0.00000000000E+00 0. -1.
<mgrwt>
<rscale>  0 0.91092110E+02</rscale>
<asrwt>0</asrwt>
<pdfrwt beam="1">  1        1 0.23746701E-02 0.91092110E+02</pdfrwt>
<pdfrwt beam="2">  1       -1 0.20676238E-01 0.91092110E+02</pdfrwt>
<totfact> 0.76855718E+04</totfact>
</mgrwt>
</event>
<event>
 5    1  0.6113696E+000  0.9350258E+02  0.7546771E-02  0.1294585E+00
         -2   -1    0    0    0  501 -0.00000000000E+00  0.00000000000E+00  0.30674779117E+02  0.30674779117E+02  0.00000000000E+00 0.  1.
          2   -1    0    0  501    0  0.00000000000E+00 -0.00000000000E+00 -0.71253428417E+02  0.71253428417E+02  0.00000000000E+00 0. -1.
         23    2    1    2    0    0  0.00000000000E+00  0.00000000000E+00 -0.40578649300E+02  0.10192820753E+03  0.93502581312E+02 0.  0.
        -13    1    3    3    0    0  0.10192593156E+01  0.42068658797E+02  0.19145093688E+01  0.42124533097E+02  0.00000000000E+00 0.  1.
         13    1    3    3    0    0 -0.10192593156E+01 -0.42068658797E+02 -0.42493158669E+02  0.59803674437E+02  0.00000000000E+00 0. -1.
<mgrwt>
<rscale>  0 0.93502581E+02</rscale>
<asrwt>0</asrwt>
<pdfrwt beam="2">  1        2 0.10962066E-01 0.93502581E+02</pdfrwt>
<pdfrwt beam="1">  1       -2 0.47191968E-02 0.93502581E+02</pdfrwt>
<totfact> 0.10358627E+05</totfact>
</mgrwt>
</event>
<event>
 5    1  0.6113696E+000  0.9321635E+02  0.7546771E-02  0.1295245E+00
          2   -1    0    0  501    0  0.00000000000E+00  0.00000000000E+00  0.65194923797E+02  0.65194923797E+02  0.00000000000E+00 0. -1.
         -2   -1    0    0    0  501 -0.00000000000E+00 -0.00000000000E+00 -0.33320415695E+02  0.33320415695E+02  0.00000000000E+00 0.  1.
         23    2    1    2    0    0  0.00000000000E+00  0.00000000000E+00  0.31874508102E+02  0.98515339492E+02  0.93216349684E+02 0.  0.
        -13    1    3    3    0    0  0.45044268879E+02 -0.11860215757E+02  0.17664505874E+02  0.49816519794E+02  0.00000000000E+00 0. -1.
         13    1    3    3    0    0 -0.45044268879E+02  0.11860215757E+02  0.14210002228E+02  0.48698819698E+02  0.00000000000E+00 0.  1.
<mgrwt>
<rscale>  0 0.93216350E+02</rscale>
<asrwt>0</asrwt>
<pdfrwt beam="1">  1        2 0.10029988E-01 0.93216350E+02</pdfrwt>
<pdfrwt beam="2">  1       -2 0.51262178E-02 0.93216350E+02</pdfrwt>
<totfact> 0.10192691E+05</totfact>
</mgrwt>
</event>
<event>
 5    1  0.6113696E+000  0.9121606E+02  0.7546771E-02  0.1299933E+00
          3   -1    0    0  501    0  0.00000000000E+00  0.00000000000E+00  0.37914931727E+02  0.37914931727E+02  0.00000000000E+00 0. -1.
         -3   -1    0    0    0  501 -0.00000000000E+00 -0.00000000000E+00 -0.54862086242E+02  0.54862086242E+02  0.00000000000E+00 0.  1.
         23    2    1    2    0    0  0.00000000000E+00  0.00000000000E+00 -0.16947154515E+02  0.92777017969E+02  0.91216056794E+02 0.  0.
        -13    1    3    3    0    0 -0.24902577251E+02  0.26277477187E+02 -0.36687195080E+02  0.51542161808E+02  0.00000000000E+00 0.  1.
         13    1    3    3    0    0  0.24902577251E+02 -0.26277477187E+02  0.19740040565E+02  0.41234856160E+02  0.00000000000E+00 0. -1.
<mgrwt>
<rscale>  0 0.91216057E+02</rscale>
<asrwt>0</asrwt>
<pdfrwt beam="1">  1        3 0.58330664E-02 0.91216057E+02</pdfrwt>
<pdfrwt beam="2">  1       -3 0.84403210E-02 0.91216057E+02</pdfrwt>
<totfact> 0.35175420E+04</totfact>
</mgrwt>
</event>
<event>
 5    1  0.6113696E+000  0.9094610E+02  0.7546771E-02  0.1300577E+00
         -3   -1    0    0    0  501 -0.00000000000E+00  0.00000000000E+00  0.54270873631E+02  0.54270873631E+02  0.00000000000E+00 0.  1.
          3   -1    0    0  501    0  0.00000000000E+00 -0.00000000000E+00 -0.38101436456E+02  0.38101436456E+02  0.00000000000E+00 0. -1.
         23    2    1    2    0    0  0.00000000000E+00  0.00000000000E+00  0.16169437176E+02  0.92372310087E+02  0.90946099269E+02 0.  0.
        -13    1    3    3    0    0 -0.26775612141E+02  0.20058735718E+02 -0.23196173754E+02  0.40710548522E+02  0.00000000000E+00 0. -1.
         13    1    3    3    0    0  0.26775612141E+02 -0.20058735718E+02  0.39365610929E+02  0.51661761565E+02  0.00000000000E+00 0.  1.
<mgrwt>
<rscale>  0 0.90946099E+02</rscale>
<asrwt>0</asrwt>
<pdfrwt beam="2">  1        3 0.58617595E-02 0.90946099E+02</pdfrwt>
<pdfrwt beam="1">  1       -3 0.83493652E-02 0.90946099E+02</pdfrwt>
<totfact> 0.35491875E+04</totfact>
</mgrwt>
</event>
<event>
 5    1  0.6113696E+000  0.1146776E+03  0.7546771E-02  0.1252145E+00
         -2   -1    0    0    0  501 -0.00000000000E+00  0.00000000000E+00  0.21169469039E+02  0.21169469039E+02  0.00000000000E+00 0.  1.
          2   -1    0    0  501    0  0.00000000000E+00 -0.00000000000E+00 -0.15530576842E+03  0.15530576842E+03  0.00000000000E+00 0. -1.
         23    2    1    2    0    0  0.00000000000E+00  0.00000000000E+00 -0.13413629938E+03  0.17647523746E+03  0.11467764658E+03 0.  0.
        -13    1    3    3    0    0 -0.39296091489E+02 -0.15718054179E+02 -0.75371118233E+01  0.42988929832E+02  0.00000000000E+00 0.  1.
         13    1    3    3    0    0  0.39296091489E+02  0.15718054179E+02 -0.12659918756E+03  0.13348630763E+03  0.00000000000E+00 0. -1.
<mgrwt>
<rscale>  0 0.11467765E+03</rscale>
<asrwt>0</asrwt>
<pdfrwt beam="2">  1        2 0.23893195E-01 0.11467765E+03</pdfrwt>
<pdfrwt beam="1">  1       -2 0.32568414E-02 0.11467765E+03</pdfrwt>
<totfact> 0.75227682E+04</totfact>
</mgrwt>
</event>
<event>
 5    1  0.6113696E+000  0.9048831E+02  0.7546771E-02  0.1301673E+00
         -1   -1    0    0    0  501 -0.00000000000E+00  0.00000000000E+00  0.16636565492E+03  0.16636565492E+03  0.00000000000E+00 0.  1.
          1   -1    0    0  501    0  0.00000000000E+00 -0.00000000000E+00 -0.12304424150E+02  0.12304424150E+02  0.00000000000E+00 0. -1.
         23    2    1    2    0    0  0.00000000000E+00  0.00000000000E+00  0.15406123077E+03  0.17867007907E+03  0.90488310454E+02 0.  0.
        -13    1    3    3    0    0  0.44788249404E+02  0.23279311884E+01  0.88816147173E+02  0.99497309245E+02  0.00000000000E+00 0.  1.
         13    1    3    3    0    0 -0.44788249404E+02 -0.23279311884E+01  0.65245083599E+02  0.79172769828E+02  0.00000000000E+00 0. -1.
<mgrwt>
<rscale>  0 0.90488310E+02</rscale>
<asrwt>0</asrwt>
<pdfrwt beam="2">  1        1 0.18929885E-02 0.90488310E+02</pdfrwt>
<pdfrwt beam="1">  1       -1 0.25594715E-01 0.90488310E+02</pdfrwt>
<totfact> 0.74385651E+04</totfact>
</mgrwt>
</event>
<event>
 5    1  0.6113696E+000  0.9138878E+02  0.7546771E-02  0.1299523E+00
          1   -1    0    0  501    0  0.00000000000E+00  0.00000000000E+00  0.14794777838E+03  0.14794777838E+03  0.00000000000E+00 0. -1.
         -1   -1    0    0    0  501 -0.00000000000E+00 -0.00000000000E+00 -0.14112934182E+02  0.14112934182E+02  0.00000000000E+00 0.  1.
         23    2    1    2    0    0  0.00000000000E+00  0.00000000000E+00  0.13383484420E+03  0.16206071256E+03  0.91388779588E+02 0.  0.
        -13    1    3    3    0    0  0.14429498099E+02 -0.43326039717E+02  0.64046451199E+02  0.78659418025E+02  0.00000000000E+00 0.  1.
         13    1    3    3    0    0 -0.14429498099E+02  0.43326039717E+02  0.69788392997E+02  0.83401294535E+02  0.00000000000E+00 0. -1.
<mgrwt>
<rscale>  0 0.91388780E+02</rscale>
<asrwt>0</asrwt>
<pdfrwt beam="1">  1        1 0.22761196E-01 0.91388780E+02</pdfrwt>
<pdfrwt beam="2">  1       -1 0.21712207E-02 0.91388780E+02</pdfrwt>
<totfact> 0.11115016E+05</totfact>
</mgrwt>
</event>
<event>
 5    1  0.6113696E+000  0.9188605E+02  0.7546771E-02  0.1298348E+00
         -1   -1    0    0    0  501 -0.00000000000E+00  0.00000000000E+00  0.86172046836E+01  0.86172046836E+01  0.00000000000E+00 0.  1.
          1   -1    0    0  501    0  0.00000000000E+00 -0.00000000000E+00 -0.24494733557E+03  0.24494733557E+03  0.00000000000E+00 0. -1.
         23    2    1    2    0    0  0.00000000000E+00  0.00000000000E+00 -0.23633013089E+03  0.25356454026E+03  0.91886045237E+02 0.  0.
        -13    1    3    3    0    0  0.39404985975E+02  0.22406049289E+02 -0.13881150539E+03  0.14602540187E+03  0.00000000000E+00 0.  1.
         13    1    3    3    0    0 -0.39404985975E+02 -0.22406049289E+02 -0.97518625503E+02  0.10753913838E+03  0.00000000000E+00 0. -1.
<mgrwt>
<rscale>  0 0.91886045E+02</rscale>
<asrwt>0</asrwt>
<pdfrwt beam="2">  1        1 0.37684208E-01 0.91886045E+02</pdfrwt>
<pdfrwt beam="1">  1       -1 0.13257237E-02 0.91886045E+02</pdfrwt>
<totfact> 0.12065188E+05</totfact>
</mgrwt>
</event>
<event>
 5    1  0.6113696E+000  0.9285432E+02  0.7546771E-02  0.1296083E+00
          1   -1    0    0  501    0  0.00000000000E+00  0.00000000000E+00  0.18950696282E+03  0.18950696282E+03  0.00000000000E+00 0. -1.
         -1   -1    0    0    0  501 -0.00000000000E+00 -0.00000000000E+00 -0.11374153531E+02  0.11374153531E+02  0.00000000000E+00 0.  1.
         23    2    1    2    0    0  0.00000000000E+00  0.00000000000E+00  0.17813280929E+03  0.20088111635E+03  0.92854322254E+02 0.  0.
        -13    1    3    3    0    0  0.42286198584E+02 -0.18946404752E+02  0.95333716147E+02  0.10599814281E+03  0.00000000000E+00 0. -1.
         13    1    3    3    0    0 -0.42286198584E+02  0.18946404752E+02  0.82799093145E+02  0.94882973548E+02  0.00000000000E+00 0.  1.
<mgrwt>
<rscale>  0 0.92854322E+02</rscale>
<asrwt>0</asrwt>
<pdfrwt beam="1">  1        1 0.29154915E-01 0.92854322E+02</pdfrwt>
<pdfrwt beam="2">  1       -1 0.17498699E-02 0.92854322E+02</pdfrwt>
<totfact> 0.11157202E+05</totfact>
</mgrwt>
</event>
<event>
 5    1  0.6113696E+000  0.9221763E+02  0.7546771E-02  0.1297569E+00
         -2   -1    0    0    0  501 -0.00000000000E+00  0.00000000000E+00  0.99840862217E+01  0.99840862217E+01  0.00000000000E+00 0.  1.
          2   -1    0    0  501    0  0.00000000000E+00 -0.00000000000E+00 -0.21294117200E+03  0.21294117200E+03  0.00000000000E+00 0. -1.
         23    2    1    2    0    0  0.00000000000E+00  0.00000000000E+00 -0.20295708578E+03  0.22292525823E+03  0.92217634354E+02 0.  0.
        -13    1    3    3    0    0  0.31355238187E+02 -0.32654519392E+02 -0.80327565318E+02  0.92206216431E+02  0.00000000000E+00 0. -1.
         13    1    3    3    0    0 -0.31355238187E+02  0.32654519392E+02 -0.12262952046E+03  0.13071904180E+03  0.00000000000E+00 0.  1.
<mgrwt>
<rscale>  0 0.92217634E+02</rscale>
<asrwt>0</asrwt>
<pdfrwt beam="2">  1        2 0.32760175E-01 0.92217634E+02</pdfrwt>
<pdfrwt beam="1">  1       -2 0.15360135E-02 0.92217634E+02</pdfrwt>
<totfact> 0.15348066E+05</totfact>
</mgrwt>
</event>
<event>
 5    1  0.6113696E+000  0.8978068E+02  0.7546771E-02  0.1303384E+00
         -1   -1    0    0    0  501 -0.00000000000E+00  0.00000000000E+00  0.57983082808E+02  0.57983082808E+02  0.00000000000E+00 0.  1.
          1   -1    0    0  501    0  0.00000000000E+00 -0.00000000000E+00 -0.34753977147E+02  0.34753977147E+02  0.00000000000E+00 0. -1.
         23    2    1    2    0    0  0.00000000000E+00  0.00000000000E+00  0.23229105661E+02  0.92737059955E+02  0.89780682439E+02 0.  0.
        -13    1    3    3    0    0 -0.35425247119E+02  0.25277141167E+02  0.24009982811E+00  0.43519416896E+02  0.00000000000E+00 0. -1.
         13    1    3    3    0    0  0.35425247119E+02 -0.25277141167E+02  0.22989005832E+02  0.49217643058E+02  0.00000000000E+00 0.  1.
<mgrwt>
<rscale>  0 0.89780682E+02</rscale>
<asrwt>0</asrwt>
<pdfrwt beam="2">  1        1 0.53467657E-02 0.89780682E+02</pdfrwt>
<pdfrwt beam="1">  1       -1 0.89204743E-02 0.89780682E+02</pdfrwt>
<totfact> 0.92701544E+04</totfact>
</mgrwt>
</event>
<event>
 5    1  0.6113696E+000  0.9115411E+02  0.7546771E-02  0.1300081E+00
         -1   -1    0    0    0  501 -0.00000000000E+00  0.00000000000E+00  0.64677811925E+02  0.64677811925E+02  0.00000000000E+00 0.  1.
          1   -1    0    0  501    0  0.00000000000E+00 -0.00000000000E+00 -0.32117165607E+02  0.32117165607E+02  0.00000000000E+00 0. -1.
         23    2    1    2    0    0  0.00000000000E+00  0.00000000000E+00  0.32560646318E+02  0.96794977532E+02  0.91154111189E+02 0.  0.
        -13    1    3    3    0    0 -0.20713187430E+02 -0.39946527198E+02  0.23974894916E+02  0.50985848575E+02  0.00000000000E+00 0. -1.
         13    1    3    3    0    0  0.20713187430E+02  0.39946527198E+02  0.85857514024E+01  0.45809128957E+02  0.00000000000E+00 0.  1.
<mgrwt>
<rscale>  0 0.91154111E+02</rscale>
<asrwt>0</asrwt>
<pdfrwt beam="2">  1        1 0.49411024E-02 0.91154111E+02</pdfrwt>
<pdfrwt beam="1">  1       -1 0.99504325E-02 0.91154111E+02</pdfrwt>
<totfact> 0.87696922E+04</totfact>
</mgrwt>
</event>
<event>
 5    1  0.6113696E+000  0.9184066E+02  0.7546771E-02  0.1298455E+00
         -1   -1    0    0    0  501 -0.00000000000E+00  0.00000000000E+00  0.24074119682E+03  0.24074119682E+03  0.00000000000E+00 0.  1.
          1   -1    0    0  501    0  0.00000000000E+00 -0.00000000000E+00 -0.87591020155E+01  0.87591020155E+01  0.00000000000E+00 0. -1.
         23    2    1    2    0    0  0.00000000000E+00  0.00000000000E+00  0.23198209480E+03  0.24950029883E+03  0.91840659889E+02 0.  0.
        -13    1    3    3    0    0  0.29573286200E+02  0.21327584088E+02  0.19182598842E+03  0.19526047970E+03  0.00000000000E+00 0.  1.
         13    1    3    3    0    0 -0.29573286200E+02 -0.21327584088E+02  0.40156106383E+02  0.54239819133E+02  0.00000000000E+00 0. -1.
<mgrwt>
<rscale>  0 0.91840660E+02</rscale>
<asrwt>0</asrwt>
<pdfrwt beam="2">  1        1 0.13475543E-02 0.91840660E+02</pdfrwt>
<pdfrwt beam="1">  1       -1 0.37037102E-01 0.91840660E+02</pdfrwt>
<totfact> 0.64354773E+04</totfact>
</mgrwt>
</event>
<event>
 5    1  0.6113696E+000  0.9230368E+02  0.7546771E-02  0.1297367E+00
          1   -1    0    0  501    0  0.00000000000E+00  0.00000000000E+00  0.20832114437E+03  0.20832114437E+03  0.00000000000E+00 0.  1.
         -1   -1    0    0    0  501 -0.00000000000E+00 -0.00000000000E+00 -0.10224560749E+02  0.10224560749E+02  0.00000000000E+00 0. -1.
         23    2    1    2    0    0  0.00000000000E+00  0.00000000000E+00  0.19809658362E+03  0.21854570512E+03  0.92303676977E+02 0.  0.
        -13    1    3    3    0    0  0.38918210820E+02  0.23613052412E+02  0.11704715936E+03  0.12558758255E+03  0.00000000000E+00 0.  1.
         13    1    3    3    0    0 -0.38918210820E+02 -0.23613052412E+02  0.81049424263E+02  0.92958122566E+02  0.00000000000E+00 0. -1.
<mgrwt>
<rscale>  0 0.92303677E+02</rscale>
<asrwt>0</asrwt>
<pdfrwt beam="1">  1        1 0.32049404E-01 0.92303677E+02</pdfrwt>
<pdfrwt beam="2">  1       -1 0.15730095E-02 0.92303677E+02</pdfrwt>
<totfact> 0.11547744E+05</totfact>
</mgrwt>
</event>
<event>
 5    1  0.6113696E+000  0.9087293E+02  0.7546771E-02  0.1300751E+00
          2   -1    0    0  501    0  0.00000000000E+00  0.00000000000E+00  0.14623966727E+03  0.14623966727E+03  0.00000000000E+00 0. -1.
         -2   -1    0    0    0  501 -0.00000000000E+00 -0.00000000000E+00 -0.14117047756E+02  0.14117047756E+02  0.00000000000E+00 0.  1.
         23    2    1    2    0    0  0.00000000000E+00  0.00000000000E+00  0.13212261952E+03  0.16035671503E+03  0.90872930331E+02 0.  0.
        -13    1    3    3    0    0 -0.26449302299E+02 -0.36131319275E+02  0.52457138868E+02  0.68969480517E+02  0.00000000000E+00 0. -1.
         13    1    3    3    0    0  0.26449302299E+02  0.36131319275E+02  0.79665480648E+02  0.91387234511E+02  0.00000000000E+00 0.  1.
<mgrwt>
<rscale>  0 0.90872930E+02</rscale>
<asrwt>0</asrwt>
<pdfrwt beam="1">  1        2 0.22498409E-01 0.90872930E+02</pdfrwt>
<pdfrwt beam="2">  1       -2 0.21718536E-02 0.90872930E+02</pdfrwt>
<totfact> 0.13987355E+05</totfact>
</mgrwt>
</event>
<event>
 5    1  0.6113696E+000  0.8814433E+02  0.7546771E-02  0.1307409E+00
          2   -1    0    0  501    0  0.00000000000E+00  0.00000000000E+00  0.33936365899E+02  0.33936365899E+02  0.00000000000E+00 0. -1.
         -2   -1    0    0    0  501 -0.00000000000E+00 -0.00000000000E+00 -0.57235232255E+02  0.57235232255E+02  0.00000000000E+00 0.  1.
         23    2    1    2    0    0  0.00000000000E+00  0.00000000000E+00 -0.23298866356E+02  0.91171598154E+02  0.88144331278E+02 0.  0.
        -13    1    3    3    0    0  0.52811325834E+01  0.31530945006E+02  0.19728303662E+02  0.37567230663E+02  0.00000000000E+00 0.  1.
         13    1    3    3    0    0 -0.52811325834E+01 -0.31530945006E+02 -0.43027170018E+02  0.53604367491E+02  0.00000000000E+00 0. -1.
<mgrwt>
<rscale>  0 0.88144331E+02</rscale>
<asrwt>0</asrwt>
<pdfrwt beam="1">  1        2 0.52209794E-02 0.88144331E+02</pdfrwt>
<pdfrwt beam="2">  1       -2 0.88054204E-02 0.88144331E+02</pdfrwt>
<totfact> 0.10089033E+05</totfact>
</mgrwt>
</event>
<event>
 5    1  0.6113696E+000  0.9170948E+02  0.7546771E-02  0.1298764E+00
          2   -1    0    0  501    0  0.00000000000E+00  0.00000000000E+00  0.20147657374E+03  0.20147657374E+03  0.00000000000E+00 0.  1.
         -2   -1    0    0    0  501 -0.00000000000E+00 -0.00000000000E+00 -0.10436236818E+02  0.10436236818E+02  0.00000000000E+00 0. -1.
         23    2    1    2    0    0  0.00000000000E+00  0.00000000000E+00  0.19104033692E+03  0.21191281056E+03  0.91709481229E+02 0.  0.
        -13    1    3    3    0    0  0.29934772343E+02 -0.34200615302E+02  0.81486692788E+02  0.93305164829E+02  0.00000000000E+00 0. -1.
         13    1    3    3    0    0 -0.29934772343E+02  0.34200615302E+02  0.10955364414E+03  0.11860764573E+03  0.00000000000E+00 0.  1.
<mgrwt>
<rscale>  0 0.91709481E+02</rscale>
<asrwt>0</asrwt>
<pdfrwt beam="1">  1        2 0.30996393E-01 0.91709481E+02</pdfrwt>
<pdfrwt beam="2">  1       -2 0.16055750E-02 0.91709481E+02</pdfrwt>
<totfact> 0.15267630E+05</totfact>
</mgrwt>
</event>
<event>
 5    1  0.6113696E+000  0.9072888E+02  0.7546771E-02  0.1301096E+00
         -2   -1    0    0    0  501 -0.00000000000E+00  0.00000000000E+00  0.10456115953E+02  0.10456115953E+02  0.00000000000E+00 0.  1.
          2   -1    0    0  501    0  0.00000000000E+00 -0.00000000000E+00 -0.19681612179E+03  0.19681612179E+03  0.00000000000E+00 0. -1.
         23    2    1    2    0    0  0.00000000000E+00  0.00000000000E+00 -0.18636000583E+03  0.20727223774E+03  0.90728875026E+02 0.  0.
        -13    1    3    3    0    0 -0.23555105127E+02 -0.38431047705E+02 -0.81499007671E+02  0.93133649432E+02  0.00000000000E+00 0.  1.
         13    1    3    3    0    0  0.23555105127E+02  0.38431047705E+02 -0.10486099816E+03  0.11413858831E+03  0.00000000000E+00 0. -1.
<mgrwt>
<rscale>  0 0.90728875E+02</rscale>
<asrwt>0</asrwt>
<pdfrwt beam="2">  1        2 0.30279400E-01 0.90728875E+02</pdfrwt>
<pdfrwt beam="1">  1       -2 0.16086334E-02 0.90728875E+02</pdfrwt>
<totfact> 0.15583822E+05</totfact>
</mgrwt>
</event>
<event>
 5    1  0.6113696E+000  0.9034622E+02  0.7546771E-02  0.1302015E+00
         -1   -1    0    0    0  501 -0.00000000000E+00  0.00000000000E+00  0.67362143330E+02  0.67362143330E+02  0.00000000000E+00 0.  1.
          1   -1    0    0  501    0  0.00000000000E+00 -0.00000000000E+00 -0.30293127679E+02  0.30293127679E+02  0.00000000000E+00 0. -1.
         23    2    1    2    0    0  0.00000000000E+00  0.00000000000E+00  0.37069015651E+02  0.97655271009E+02  0.90346223134E+02 0.  0.
        -13    1    3    3    0    0 -0.14976599118E+02  0.85766875480E+01  0.63658079947E+02  0.65956115964E+02  0.00000000000E+00 0.  1.
         13    1    3    3    0    0  0.14976599118E+02 -0.85766875480E+01 -0.26589064296E+02  0.31699155045E+02  0.00000000000E+00 0. -1.
<mgrwt>
<rscale>  0 0.90346223E+02</rscale>
<asrwt>0</asrwt>
<pdfrwt beam="2">  1        1 0.46604812E-02 0.90346223E+02</pdfrwt>
<pdfrwt beam="1">  1       -1 0.10363407E-01 0.90346223E+02</pdfrwt>
<totfact> 0.89126853E+04</totfact>
</mgrwt>
</event>
<event>
 5    1  0.6113696E+000  0.8621653E+02  0.7546771E-02  0.1312281E+00
         -1   -1    0    0    0  501 -0.00000000000E+00  0.00000000000E+00  0.19095471441E+02  0.19095471441E+02  0.00000000000E+00 0.  1.
          1   -1    0    0  501    0  0.00000000000E+00 -0.00000000000E+00 -0.97317456953E+02  0.97317456953E+02  0.00000000000E+00 0. -1.
         23    2    1    2    0    0  0.00000000000E+00  0.00000000000E+00 -0.78221985512E+02  0.11641292839E+03  0.86216534840E+02 0.  0.
        -13    1    3    3    0    0 -0.15947253693E+02  0.29207972869E+02 -0.21109418730E+01  0.33344814516E+02  0.00000000000E+00 0.  1.
         13    1    3    3    0    0  0.15947253693E+02 -0.29207972869E+02 -0.76111043639E+02  0.83068113878E+02  0.00000000000E+00 0. -1.
<mgrwt>
<rscale>  0 0.86216535E+02</rscale>
<asrwt>0</asrwt>
<pdfrwt beam="2">  1        1 0.14971917E-01 0.86216535E+02</pdfrwt>
<pdfrwt beam="1">  1       -1 0.29377648E-02 0.86216535E+02</pdfrwt>
<totfact> 0.12104487E+05</totfact>
</mgrwt>
</event>
<event>
 5    1  0.6113696E+000  0.9079143E+02  0.7546771E-02  0.1300946E+00
         -2   -1    0    0    0  501 -0.00000000000E+00  0.00000000000E+00  0.55766676280E+02  0.55766676280E+02  0.00000000000E+00 0.  1.
          2   -1    0    0  501    0  0.00000000000E+00 -0.00000000000E+00 -0.36953444489E+02  0.36953444489E+02  0.00000000000E+00 0. -1.
         23    2    1    2    0    0  0.00000000000E+00  0.00000000000E+00  0.18813231791E+02  0.92720120769E+02  0.90791426384E+02 0.  0.
        -13    1    3    3    0    0  0.41087275963E+02 -0.16779978780E+02  0.19150733406E+02  0.48337175382E+02  0.00000000000E+00 0.  1.
         13    1    3    3    0    0 -0.41087275963E+02  0.16779978780E+02 -0.33750161442E+00  0.44382945387E+02  0.00000000000E+00 0. -1.
<mgrwt>
<rscale>  0 0.90791426E+02</rscale>
<asrwt>0</asrwt>
<pdfrwt beam="2">  1        2 0.56851453E-02 0.90791426E+02</pdfrwt>
<pdfrwt beam="1">  1       -2 0.85794887E-02 0.90791426E+02</pdfrwt>
<totfact> 0.94609939E+04</totfact>
</mgrwt>
</event>
<event>
 5    1  0.6113696E+000  0.9020375E+02  0.7546771E-02  0.1302359E+00
         -1   -1    0    0    0  501 -0.00000000000E+00  0.00000000000E+00  0.93223343628E+01  0.93223343628E+01  0.00000000000E+00 0.  1.
          1   -1    0    0  501    0  0.00000000000E+00 -0.00000000000E+00 -0.21820489389E+03  0.21820489389E+03  0.00000000000E+00 0. -1.
         23    2    1    2    0    0  0.00000000000E+00  0.00000000000E+00 -0.20888255953E+03  0.22752722825E+03  0.90203746717E+02 0.  0.
        -13    1    3    3    0    0 -0.35324155837E+02 -0.11844374162E+02 -0.40326731793E+02  0.54902918702E+02  0.00000000000E+00 0.  1.
         13    1    3    3    0    0  0.35324155837E+02  0.11844374162E+02 -0.16855582773E+03  0.17262430955E+03  0.00000000000E+00 0. -1.
<mgrwt>
<rscale>  0 0.90203747E+02</rscale>
<asrwt>0</asrwt>
<pdfrwt beam="2">  1        1 0.33569983E-01 0.90203747E+02</pdfrwt>
<pdfrwt beam="1">  1       -1 0.14342053E-02 0.90203747E+02</pdfrwt>
<totfact> 0.12393700E+05</totfact>
</mgrwt>
</event>
<event>
 5    1  0.6113696E+000  0.9300639E+02  0.7546771E-02  0.1295730E+00
         -1   -1    0    0    0  501 -0.00000000000E+00  0.00000000000E+00  0.12659238302E+03  0.12659238302E+03  0.00000000000E+00 0.  1.
          1   -1    0    0  501    0  0.00000000000E+00 -0.00000000000E+00 -0.17082758738E+02  0.17082758738E+02  0.00000000000E+00 0. -1.
         23    2    1    2    0    0  0.00000000000E+00  0.00000000000E+00  0.10950962429E+03  0.14367514176E+03  0.93006389830E+02 0.  0.
        -13    1    3    3    0    0 -0.67770156788E+01 -0.45946184942E+02  0.58399753754E+02  0.74615756317E+02  0.00000000000E+00 0.  1.
         13    1    3    3    0    0  0.67770156788E+01  0.45946184942E+02  0.51109870533E+02  0.69059385446E+02  0.00000000000E+00 0. -1.
<mgrwt>
<rscale>  0 0.93006390E+02</rscale>
<asrwt>0</asrwt>
<pdfrwt beam="2">  1        1 0.26281168E-02 0.93006390E+02</pdfrwt>
<pdfrwt beam="1">  1       -1 0.19475751E-01 0.93006390E+02</pdfrwt>
<totfact> 0.73765409E+04</totfact>
</mgrwt>
</event>
<event>
 5    1  0.6113696E+000  0.9167773E+02  0.7546771E-02  0.1298839E+00
          2   -1    0    0  501    0  0.00000000000E+00  0.00000000000E+00  0.15042747314E+03  0.15042747314E+03  0.00000000000E+00 0. -1.
         -2   -1    0    0    0  501 -0.00000000000E+00 -0.00000000000E+00 -0.13968204399E+02  0.13968204399E+02  0.00000000000E+00 0.  1.
         23    2    1    2    0    0  0.00000000000E+00  0.00000000000E+00  0.13645926874E+03  0.16439567754E+03  0.91677733221E+02 0.  0.
        -13    1    3    3    0    0 -0.35967895561E+02  0.11448327310E+02  0.21591224923E+02  0.43484879015E+02  0.00000000000E+00 0.  1.
         13    1    3    3    0    0  0.35967895561E+02 -0.11448327310E+02  0.11486804382E+03  0.12091079853E+03  0.00000000000E+00 0. -1.
<mgrwt>
<rscale>  0 0.91677733E+02</rscale>
<asrwt>0</asrwt>
<pdfrwt beam="1">  1        2 0.23142687E-01 0.91677733E+02</pdfrwt>
<pdfrwt beam="2">  1       -2 0.21489546E-02 0.91677733E+02</pdfrwt>
<totfact> 0.13787721E+05</totfact>
</mgrwt>
</event>
<event>
 5    1  0.6113696E+000  0.9103786E+02  0.7546771E-02  0.1300358E+00
         -2   -1    0    0    0  501 -0.00000000000E+00  0.00000000000E+00  0.87968056523E+01  0.87968056523E+01  0.00000000000E+00 0.  1.
          2   -1    0    0  501    0  0.00000000000E+00 -0.00000000000E+00 -0.23553698792E+03  0.23553698792E+03  0.00000000000E+00 0. -1.
         23    2    1    2    0    0  0.00000000000E+00  0.00000000000E+00 -0.22674018226E+03  0.24433379357E+03  0.91037862599E+02 0.  0.
        -13    1    3    3    0    0 -0.50875521464E+01 -0.36875272596E+02 -0.43059651957E+02  0.56919263369E+02  0.00000000000E+00 0.  1.
         13    1    3    3    0    0  0.50875521464E+01  0.36875272596E+02 -0.18368053031E+03  0.18741453020E+03  0.00000000000E+00 0. -1.
<mgrwt>
<rscale>  0 0.91037863E+02</rscale>
<asrwt>0</asrwt>
<pdfrwt beam="2">  1        2 0.36236462E-01 0.91037863E+02</pdfrwt>
<pdfrwt beam="1">  1       -2 0.13533546E-02 0.91037863E+02</pdfrwt>
<totfact> 0.16487981E+05</totfact>
</mgrwt>
</event>
<event>
 5    1  0.6113696E+000  0.9179493E+02  0.7546771E-02  0.1298562E+00
          1   -1    0    0  501    0  0.00000000000E+00  0.00000000000E+00  0.24877499388E+02  0.24877499388E+02  0.00000000000E+00 0.  1.
         -1   -1    0    0    0  501 -0.00000000000E+00 -0.00000000000E+00 -0.84678015770E+02  0.84678015770E+02  0.00000000000E+00 0. -1.
         23    2    1    2    0    0  0.00000000000E+00  0.00000000000E+00 -0.59800516382E+02  0.10955551516E+03  0.91794929826E+02 0.  0.
        -13    1    3    3    0    0  0.10672483775E+02 -0.29782673249E+02  0.97848777472E+01  0.33115757100E+02  0.00000000000E+00 0.  1.
         13    1    3    3    0    0 -0.10672483775E+02  0.29782673249E+02 -0.69585394130E+02  0.76439758058E+02  0.00000000000E+00 0. -1.
<mgrwt>
<rscale>  0 0.91794930E+02</rscale>
<asrwt>0</asrwt>
<pdfrwt beam="1">  1        1 0.38273076E-02 0.91794930E+02</pdfrwt>
<pdfrwt beam="2">  1       -1 0.13027387E-01 0.91794930E+02</pdfrwt>
<totfact> 0.82390989E+04</totfact>
</mgrwt>
</event>
<event>
 5    1  0.6113696E+000  0.9200866E+02  0.7546771E-02  0.1298059E+00
          1   -1    0    0  501    0  0.00000000000E+00  0.00000000000E+00  0.56280039857E+02  0.56280039857E+02  0.00000000000E+00 0. -1.
         -1   -1    0    0    0  501 -0.00000000000E+00 -0.00000000000E+00 -0.37604777845E+02  0.37604777845E+02  0.00000000000E+00 0.  1.
         23    2    1    2    0    0  0.00000000000E+00  0.00000000000E+00  0.18675262013E+02  0.93884817702E+02  0.92008660373E+02 0.  0.
        -13    1    3    3    0    0  0.40074027308E+02  0.18652028421E+02  0.22348020296E+02  0.49530393094E+02  0.00000000000E+00 0. -1.
         13    1    3    3    0    0 -0.40074027308E+02 -0.18652028421E+02 -0.36727582837E+01  0.44354424608E+02  0.00000000000E+00 0.  1.
<mgrwt>
<rscale>  0 0.92008660E+02</rscale>
<asrwt>0</asrwt>
<pdfrwt beam="1">  1        1 0.86584677E-02 0.92008660E+02</pdfrwt>
<pdfrwt beam="2">  1       -1 0.57853504E-02 0.92008660E+02</pdfrwt>
<totfact> 0.93060624E+04</totfact>
</mgrwt>
</event>
<event>
 5    1  0.6113696E+000  0.9235702E+02  0.7546771E-02  0.1297242E+00
          2   -1    0    0  501    0  0.00000000000E+00  0.00000000000E+00  0.12523157932E+03  0.12523157932E+03  0.00000000000E+00 0.  1.
         -2   -1    0    0    0  501 -0.00000000000E+00 -0.00000000000E+00 -0.17028090608E+02  0.17028090608E+02  0.00000000000E+00 0. -1.
         23    2    1    2    0    0  0.00000000000E+00  0.00000000000E+00  0.10820348871E+03  0.14225966993E+03  0.92357017699E+02 0.  0.
        -13    1    3    3    0    0 -0.36857100529E+02 -0.27273832810E+01  0.96748683098E+02  0.10356733153E+03  0.00000000000E+00 0.  1.
         13    1    3    3    0    0  0.36857100529E+02  0.27273832810E+01  0.11454805613E+02  0.38692338397E+02  0.00000000000E+00 0. -1.
<mgrwt>
<rscale>  0 0.92357018E+02</rscale>
<asrwt>0</asrwt>
<pdfrwt beam="1">  1        2 0.19266396E-01 0.92357018E+02</pdfrwt>
<pdfrwt beam="2">  1       -2 0.26197063E-02 0.92357018E+02</pdfrwt>
<totfact> 0.12711424E+05</totfact>
</mgrwt>
</event>
<event>
 5    1  0.6113696E+000  0.9185789E+02  0.7546771E-02  0.1298414E+00
         -1   -1    0    0    0  501 -0.00000000000E+00  0.00000000000E+00  0.29583997785E+03  0.29583997785E+03  0.00000000000E+00 0.  1.
          1   -1    0    0  501    0  0.00000000000E+00 -0.00000000000E+00 -0.71304351441E+01  0.71304351441E+01  0.00000000000E+00 0. -1.
         23    2    1    2    0    0  0.00000000000E+00  0.00000000000E+00  0.28870954270E+03  0.30297041299E+03  0.91857885346E+02 0.  0.
        -13    1    3    3    0    0 -0.35484819203E+02  0.21436784633E+02  0.79156117464E+02  0.89355464641E+02  0.00000000000E+00 0.  1.
         13    1    3    3    0    0  0.35484819203E+02 -0.21436784633E+02  0.20955342524E+03  0.21361494835E+03  0.00000000000E+00 0. -1.
<mgrwt>
<rscale>  0 0.91857885E+02</rscale>
<asrwt>0</asrwt>
<pdfrwt beam="2">  1        1 0.10969903E-02 0.91857885E+02</pdfrwt>
<pdfrwt beam="1">  1       -1 0.45513833E-01 0.91857885E+02</pdfrwt>
<totfact> 0.59743349E+04</totfact>
</mgrwt>
</event>
<event>
 5    1  0.6113696E+000  0.9295193E+02  0.7546771E-02  0.1295857E+00
          2   -1    0    0  501    0  0.00000000000E+00  0.00000000000E+00  0.41284842985E+03  0.41284842985E+03  0.00000000000E+00 0. -1.
         -2   -1    0    0    0  501 -0.00000000000E+00 -0.00000000000E+00 -0.52319811794E+01  0.52319811794E+01  0.00000000000E+00 0.  1.
         23    2    1    2    0    0  0.00000000000E+00  0.00000000000E+00  0.40761644867E+03  0.41808041103E+03  0.92951927682E+02 0.  0.
        -13    1    3    3    0    0 -0.34929148637E+02  0.30389850598E+02  0.22203784035E+03  0.22681355998E+03  0.00000000000E+00 0.  1.
         13    1    3    3    0    0  0.34929148637E+02 -0.30389850598E+02  0.18557860833E+03  0.19126685105E+03  0.00000000000E+00 0. -1.
<mgrwt>
<rscale>  0 0.92951928E+02</rscale>
<asrwt>0</asrwt>
<pdfrwt beam="1">  1        2 0.63515118E-01 0.92951928E+02</pdfrwt>
<pdfrwt beam="2">  1       -2 0.80492050E-03 0.92951928E+02</pdfrwt>
<totfact> 0.19179858E+05</totfact>
</mgrwt>
</event>
<event>
 5    1  0.6113696E+000  0.9181651E+02  0.7546771E-02  0.1298511E+00
         -1   -1    0    0    0  501 -0.00000000000E+00  0.00000000000E+00  0.11552189262E+02  0.11552189262E+02  0.00000000000E+00 0.  1.
          1   -1    0    0  501    0  0.00000000000E+00 -0.00000000000E+00 -0.18243884295E+03  0.18243884295E+03  0.00000000000E+00 0. -1.
         23    2    1    2    0    0  0.00000000000E+00  0.00000000000E+00 -0.17088665369E+03  0.19399103221E+03  0.91816513601E+02 0.  0.
        -13    1    3    3    0    0  0.15830994937E+02 -0.29485754552E+02 -0.19047964337E+02  0.38507857218E+02  0.00000000000E+00 0.  1.
         13    1    3    3    0    0 -0.15830994937E+02  0.29485754552E+02 -0.15183868935E+03  0.15548317499E+03  0.00000000000E+00 0. -1.
<mgrwt>
<rscale>  0 0.91816514E+02</rscale>
<asrwt>0</asrwt>
<pdfrwt beam="2">  1        1 0.28067515E-01 0.91816514E+02</pdfrwt>
<pdfrwt beam="1">  1       -1 0.17772599E-02 0.91816514E+02</pdfrwt>
<totfact> 0.11415854E+05</totfact>
</mgrwt>
</event>
<event>
 5    1  0.6113696E+000  0.9240272E+02  0.7546771E-02  0.1297135E+00
         -2   -1    0    0    0  501 -0.00000000000E+00  0.00000000000E+00  0.85615107020E+01  0.85615107020E+01  0.00000000000E+00 0.  1.
          2   -1    0    0  501    0  0.00000000000E+00 -0.00000000000E+00 -0.24932112204E+03  0.24932112204E+03  0.00000000000E+00 0. -1.
         23    2    1    2    0    0  0.00000000000E+00  0.00000000000E+00 -0.24075961134E+03  0.25788263274E+03  0.92402715427E+02 0.  0.
        -13    1    3    3    0    0 -0.31442696491E+02 -0.14409982153E+02 -0.34892355066E+02  0.49130104725E+02  0.00000000000E+00 0.  1.
         13    1    3    3    0    0  0.31442696491E+02  0.14409982153E+02 -0.20586725627E+03  0.20875252801E+03  0.00000000000E+00 0. -1.
<mgrwt>
<rscale>  0 0.92402715E+02</rscale>
<asrwt>0</asrwt>
<pdfrwt beam="2">  1        2 0.38357089E-01 0.92402715E+02</pdfrwt>
<pdfrwt beam="1">  1       -2 0.13171557E-02 0.92402715E+02</pdfrwt>
<totfact> 0.16179101E+05</totfact>
</mgrwt>
</event>
<event>
 5    1  0.6113696E+000  0.9270632E+02  0.7546771E-02  0.1296427E+00
         -1   -1    0    0    0  501 -0.00000000000E+00  0.00000000000E+00  0.39562407454E+02  0.39562407454E+02  0.00000000000E+00 0.  1.
          1   -1    0    0  501    0  0.00000000000E+00 -0.00000000000E+00 -0.54309522211E+02  0.54309522211E+02  0.00000000000E+00 0. -1.
         23    2    1    2    0    0  0.00000000000E+00  0.00000000000E+00 -0.14747114756E+02  0.93871929665E+02  0.92706320094E+02 0.  0.
        -13    1    3    3    0    0  0.44264452522E+02 -0.13494285379E+02 -0.10086412863E+02  0.47362149649E+02  0.00000000000E+00 0. -1.
         13    1    3    3    0    0 -0.44264452522E+02  0.13494285379E+02 -0.46607018936E+01  0.46509780016E+02  0.00000000000E+00 0.  1.
<mgrwt>
<rscale>  0 0.92706320E+02</rscale>
<asrwt>0</asrwt>
<pdfrwt beam="2">  1        1 0.83553111E-02 0.92706320E+02</pdfrwt>
<pdfrwt beam="1">  1       -1 0.60865242E-02 0.92706320E+02</pdfrwt>
<totfact> 0.90627333E+04</totfact>
</mgrwt>
</event>
<event>
 5    1  0.6113696E+000  0.9100732E+02  0.7546771E-02  0.1300430E+00
         -2   -1    0    0    0  501 -0.00000000000E+00  0.00000000000E+00  0.28070053954E+02  0.28070053954E+02  0.00000000000E+00 0.  1.
          2   -1    0    0  501    0  0.00000000000E+00 -0.00000000000E+00 -0.73764848506E+02  0.73764848506E+02  0.00000000000E+00 0. -1.
         23    2    1    2    0    0  0.00000000000E+00  0.00000000000E+00 -0.45694794552E+02  0.10183490246E+03  0.91007324486E+02 0.  0.
        -13    1    3    3    0    0  0.17999343607E+02  0.41043717366E+01  0.23691207660E+02  0.30034905660E+02  0.00000000000E+00 0.  1.
         13    1    3    3    0    0 -0.17999343607E+02 -0.41043717366E+01 -0.69386002212E+02  0.71799996801E+02  0.00000000000E+00 0. -1.
<mgrwt>
<rscale>  0 0.91007324E+02</rscale>
<asrwt>0</asrwt>
<pdfrwt beam="2">  1        2 0.11348438E-01 0.91007324E+02</pdfrwt>
<pdfrwt beam="1">  1       -2 0.43184698E-02 0.91007324E+02</pdfrwt>
<totfact> 0.11283139E+05</totfact>
</mgrwt>
</event>
<event>
 5    1  0.6113696E+000  0.9212882E+02  0.7546771E-02  0.1297777E+00
         -3   -1    0    0    0  501 -0.00000000000E+00  0.00000000000E+00  0.22400055228E+02  0.22400055228E+02  0.00000000000E+00 0.  1.
          3   -1    0    0  501    0  0.00000000000E+00 -0.00000000000E+00 -0.94728783390E+02  0.94728783390E+02  0.00000000000E+00 0. -1.
         23    2    1    2    0    0  0.00000000000E+00  0.00000000000E+00 -0.72328728162E+02  0.11712883862E+03  0.92128822408E+02 0.  0.
        -13    1    3    3    0    0 -0.93287703012E+01 -0.39011404176E+02 -0.64960424859E+02  0.76346397485E+02  0.00000000000E+00 0. -1.
         13    1    3    3    0    0  0.93287703012E+01  0.39011404176E+02 -0.73683033031E+01  0.40782441132E+02  0.00000000000E+00 0.  1.
<mgrwt>
<rscale>  0 0.92128822E+02</rscale>
<asrwt>0</asrwt>
<pdfrwt beam="2">  1        3 0.14573659E-01 0.92128822E+02</pdfrwt>
<pdfrwt beam="1">  1       -3 0.34461623E-02 0.92128822E+02</pdfrwt>
<totfact> 0.32511283E+04</totfact>
</mgrwt>
</event>
<event>
 5    1  0.6113696E+000  0.8892605E+02  0.7546771E-02  0.1305473E+00
          3   -1    0    0  501    0  0.00000000000E+00  0.00000000000E+00  0.11512350750E+02  0.11512350750E+02  0.00000000000E+00 0. -1.
         -3   -1    0    0    0  501 -0.00000000000E+00 -0.00000000000E+00 -0.17172520565E+03  0.17172520565E+03  0.00000000000E+00 0.  1.
         23    2    1    2    0    0  0.00000000000E+00  0.00000000000E+00 -0.16021285490E+03  0.18323755640E+03  0.88926054675E+02 0.  0.
        -13    1    3    3    0    0  0.39627835305E+02 -0.12129102396E+02 -0.11329875438E+03  0.12064032576E+03  0.00000000000E+00 0.  1.
         13    1    3    3    0    0 -0.39627835305E+02  0.12129102396E+02 -0.46914100518E+02  0.62597230636E+02  0.00000000000E+00 0. -1.
<mgrwt>
<rscale>  0 0.88926055E+02</rscale>
<asrwt>0</asrwt>
<pdfrwt beam="1">  1        3 0.17711309E-02 0.88926055E+02</pdfrwt>
<pdfrwt beam="2">  1       -3 0.26419263E-01 0.88926055E+02</pdfrwt>
<totfact> 0.31434855E+04</totfact>
</mgrwt>
</event>
<event>
 5    1  0.6113696E+000  0.9171857E+02  0.7546771E-02  0.1298743E+00
         -2   -1    0    0    0  501 -0.00000000000E+00  0.00000000000E+00  0.36845304974E+02  0.36845304974E+02  0.00000000000E+00 0.  1.
          2   -1    0    0  501    0  0.00000000000E+00 -0.00000000000E+00 -0.57078474606E+02  0.57078474606E+02  0.00000000000E+00 0. -1.
         23    2    1    2    0    0  0.00000000000E+00  0.00000000000E+00 -0.20233169632E+02  0.93923779580E+02  0.91718565281E+02 0.  0.
        -13    1    3    3    0    0  0.36906425599E+02  0.27195209519E+02 -0.89005434457E+01  0.46699928746E+02  0.00000000000E+00 0. -1.
         13    1    3    3    0    0 -0.36906425599E+02 -0.27195209519E+02 -0.11332626187E+02  0.47223850834E+02  0.00000000000E+00 0.  1.
<mgrwt>
<rscale>  0 0.91718565E+02</rscale>
<asrwt>0</asrwt>
<pdfrwt beam="2">  1        2 0.87813038E-02 0.91718565E+02</pdfrwt>
<pdfrwt beam="1">  1       -2 0.56685085E-02 0.91718565E+02</pdfrwt>
<totfact> 0.10292271E+05</totfact>
</mgrwt>
</event>
<event>
 5    1  0.6113696E+000  0.8945591E+02  0.7546771E-02  0.1304175E+00
          1   -1    0    0  501    0  0.00000000000E+00  0.00000000000E+00  0.15428761889E+02  0.15428761889E+02  0.00000000000E+00 0. -1.
         -1   -1    0    0    0  501 -0.00000000000E+00 -0.00000000000E+00 -0.12966625379E+03  0.12966625379E+03  0.00000000000E+00 0.  1.
         23    2    1    2    0    0  0.00000000000E+00  0.00000000000E+00 -0.11423749191E+03  0.14509501568E+03  0.89455905446E+02 0.  0.
        -13    1    3    3    0    0  0.33207122113E+02  0.29900138536E+02 -0.60304801647E+02  0.75055981409E+02  0.00000000000E+00 0. -1.
         13    1    3    3    0    0 -0.33207122113E+02 -0.29900138536E+02 -0.53932690258E+02  0.70039034274E+02  0.00000000000E+00 0.  1.
<mgrwt>
<rscale>  0 0.89455905E+02</rscale>
<asrwt>0</asrwt>
<pdfrwt beam="1">  1        1 0.23736556E-02 0.89455905E+02</pdfrwt>
<pdfrwt beam="2">  1       -1 0.19948655E-01 0.89455905E+02</pdfrwt>
<totfact> 0.81169981E+04</totfact>
</mgrwt>
</event>
<event>
 5    1  0.6113696E+000  0.9284450E+02  0.7546771E-02  0.1296106E+00
         -1   -1    0    0    0  501 -0.00000000000E+00  0.00000000000E+00  0.53312843247E+02  0.53312843247E+02  0.00000000000E+00 0.  1.
          1   -1    0    0  501    0  0.00000000000E+00 -0.00000000000E+00 -0.40422257093E+02  0.40422257093E+02  0.00000000000E+00 0. -1.
         23    2    1    2    0    0  0.00000000000E+00  0.00000000000E+00  0.12890586154E+02  0.93735100340E+02  0.92844503469E+02 0.  0.
        -13    1    3    3    0    0  0.12671445622E+02  0.42826090603E+02 -0.63405427581E+01  0.45109223590E+02  0.00000000000E+00 0. -1.
         13    1    3    3    0    0 -0.12671445622E+02 -0.42826090603E+02  0.19231128912E+02  0.48625876750E+02  0.00000000000E+00 0.  1.
<mgrwt>
<rscale>  0 0.92844503E+02</rscale>
<asrwt>0</asrwt>
<pdfrwt beam="2">  1        1 0.62188088E-02 0.92844503E+02</pdfrwt>
<pdfrwt beam="1">  1       -1 0.82019759E-02 0.92844503E+02</pdfrwt>
<totfact> 0.86267364E+04</totfact>
</mgrwt>
</event>
<event>
 5    1  0.6113696E+000  0.9038805E+02  0.7546771E-02  0.1301915E+00
         -3   -1    0    0    0  501 -0.00000000000E+00  0.00000000000E+00  0.79916470902E+02  0.79916470902E+02  0.00000000000E+00 0.  1.
          3   -1    0    0  501    0  0.00000000000E+00 -0.00000000000E+00 -0.25557933479E+02  0.25557933479E+02  0.00000000000E+00 0. -1.
         23    2    1    2    0    0  0.00000000000E+00  0.00000000000E+00  0.54358537423E+02  0.10547440438E+03  0.90388048927E+02 0.  0.
        -13    1    3    3    0    0 -0.63954347202E+01  0.26331450567E+02  0.69386020927E+02  0.74489373566E+02  0.00000000000E+00 0.  1.
         13    1    3    3    0    0  0.63954347202E+01 -0.26331450567E+02 -0.15027483503E+02  0.30985030816E+02  0.00000000000E+00 0. -1.
<mgrwt>
<rscale>  0 0.90388049E+02</rscale>
<asrwt>0</asrwt>
<pdfrwt beam="2">  1        3 0.39319898E-02 0.90388049E+02</pdfrwt>
<pdfrwt beam="1">  1       -3 0.12294842E-01 0.90388049E+02</pdfrwt>
<totfact> 0.35089670E+04</totfact>
</mgrwt>
</event>
<event>
 5    1  0.6113696E+000  0.7569409E+02  0.7546771E-02  0.1341735E+00
         -1   -1    0    0    0  501 -0.00000000000E+00  0.00000000000E+00  0.53534373049E+02  0.53534373049E+02  0.00000000000E+00 0.  1.
          1   -1    0    0  501    0  0.00000000000E+00 -0.00000000000E+00 -0.26756615677E+02  0.26756615677E+02  0.00000000000E+00 0. -1.
         23    2    1    2    0    0  0.00000000000E+00  0.00000000000E+00  0.26777757373E+02  0.80290988726E+02  0.75694085507E+02 0.  0.
        -13    1    3    3    0    0  0.18578133646E+02  0.25927870227E+02 -0.82197602017E+01  0.32938821504E+02  0.00000000000E+00 0. -1.
         13    1    3    3    0    0 -0.18578133646E+02 -0.25927870227E+02  0.34997517575E+02  0.47352167222E+02  0.00000000000E+00 0.  1.
<mgrwt>
<rscale>  0 0.75694086E+02</rscale>
<asrwt>0</asrwt>
<pdfrwt beam="2">  1        1 0.41164024E-02 0.75694086E+02</pdfrwt>
<pdfrwt beam="1">  1       -1 0.82360574E-02 0.75694086E+02</pdfrwt>
<totfact> 0.14429288E+05</totfact>
</mgrwt>
</event>
<event>
 5    1  0.6113696E+000  0.9202994E+02  0.7546771E-02  0.1298009E+00
          1   -1    0    0  501    0  0.00000000000E+00  0.00000000000E+00  0.43070788055E+02  0.43070788055E+02  0.00000000000E+00 0. -1.
         -1   -1    0    0    0  501 -0.00000000000E+00 -0.00000000000E+00 -0.49160403399E+02  0.49160403399E+02  0.00000000000E+00 0.  1.
         23    2    1    2    0    0  0.00000000000E+00  0.00000000000E+00 -0.60896153435E+01  0.92231191454E+02  0.92029936770E+02 0.  0.
        -13    1    3    3    0    0 -0.29306633828E+02 -0.32794907623E+02  0.10512249124E+02  0.45220483566E+02  0.00000000000E+00 0.  1.
         13    1    3    3    0    0  0.29306633828E+02  0.32794907623E+02 -0.16601864468E+02  0.47010707888E+02  0.00000000000E+00 0. -1.
<mgrwt>
<rscale>  0 0.92029937E+02</rscale>
<asrwt>0</asrwt>
<pdfrwt beam="1">  1        1 0.66262751E-02 0.92029937E+02</pdfrwt>
<pdfrwt beam="2">  1       -1 0.75631389E-02 0.92029937E+02</pdfrwt>
<totfact> 0.89308476E+04</totfact>
</mgrwt>
</event>
<event>
 5    1  0.6113696E+000  0.8799743E+02  0.7546771E-02  0.1307775E+00
         -2   -1    0    0    0  501 -0.00000000000E+00  0.00000000000E+00  0.97053370354E+02  0.97053370354E+02  0.00000000000E+00 0.  1.
          2   -1    0    0  501    0  0.00000000000E+00 -0.00000000000E+00 -0.19946624245E+02  0.19946624245E+02  0.00000000000E+00 0. -1.
         23    2    1    2    0    0  0.00000000000E+00  0.00000000000E+00  0.77106746109E+02  0.11699999460E+03  0.87997434283E+02 0.  0.
        -13    1    3    3    0    0 -0.25722544420E+02  0.30744731499E+02  0.62669819856E+02  0.74393508636E+02  0.00000000000E+00 0.  1.
         13    1    3    3    0    0  0.25722544420E+02 -0.30744731499E+02  0.14436926253E+02  0.42606485962E+02  0.00000000000E+00 0. -1.
<mgrwt>
<rscale>  0 0.87997434E+02</rscale>
<asrwt>0</asrwt>
<pdfrwt beam="2">  1        2 0.30687115E-02 0.87997434E+02</pdfrwt>
<pdfrwt beam="1">  1       -2 0.14931287E-01 0.87997434E+02</pdfrwt>
<totfact> 0.87936034E+04</totfact>
</mgrwt>
</event>
<event>
 5    1  0.6113696E+000  0.9198331E+02  0.7546771E-02  0.1298119E+00
         -1   -1    0    0    0  501 -0.00000000000E+00  0.00000000000E+00  0.67473230841E+02  0.67473230841E+02  0.00000000000E+00 0.  1.
          1   -1    0    0  501    0  0.00000000000E+00 -0.00000000000E+00 -0.31349207065E+02  0.31349207065E+02  0.00000000000E+00 0. -1.
         23    2    1    2    0    0  0.00000000000E+00  0.00000000000E+00  0.36124023776E+02  0.98822437906E+02  0.91983309029E+02 0.  0.
        -13    1    3    3    0    0  0.12218659215E+02  0.44338883882E+02  0.18067704626E+02  0.49413299904E+02  0.00000000000E+00 0.  1.
         13    1    3    3    0    0 -0.12218659215E+02 -0.44338883882E+02  0.18056319150E+02  0.49409138002E+02  0.00000000000E+00 0. -1.
<mgrwt>
<rscale>  0 0.91983309E+02</rscale>
<asrwt>0</asrwt>
<pdfrwt beam="2">  1        1 0.48229549E-02 0.91983309E+02</pdfrwt>
<pdfrwt beam="1">  1       -1 0.10380497E-01 0.91983309E+02</pdfrwt>
<totfact> 0.85120452E+04</totfact>
</mgrwt>
</event>
<event>
 5    1  0.6113696E+000  0.9191336E+02  0.7546771E-02  0.1298283E+00
          2   -1    0    0  501    0  0.00000000000E+00  0.00000000000E+00  0.77097513367E+02  0.77097513367E+02  0.00000000000E+00 0. -1.
         -2   -1    0    0    0  501 -0.00000000000E+00 -0.00000000000E+00 -0.27394092257E+02  0.27394092257E+02  0.00000000000E+00 0.  1.
         23    2    1    2    0    0  0.00000000000E+00  0.00000000000E+00  0.49703421110E+02  0.10449160562E+03  0.91913359073E+02 0.  0.
        -13    1    3    3    0    0 -0.87705329842E+01 -0.25354774154E+02  0.67270492317E+02  0.72423103757E+02  0.00000000000E+00 0. -1.
         13    1    3    3    0    0  0.87705329842E+01  0.25354774154E+02 -0.17567071207E+02  0.32068501867E+02  0.00000000000E+00 0.  1.
<mgrwt>
<rscale>  0 0.91913359E+02</rscale>
<asrwt>0</asrwt>
<pdfrwt beam="1">  1        2 0.11861156E-01 0.91913359E+02</pdfrwt>
<pdfrwt beam="2">  1       -2 0.42144758E-02 0.91913359E+02</pdfrwt>
<totfact> 0.11113230E+05</totfact>
</mgrwt>
</event>
<event>
 5    1  0.6113696E+000  0.9466965E+02  0.7546771E-02  0.1291922E+00
          2   -1    0    0  501    0  0.00000000000E+00  0.00000000000E+00  0.37334419411E+03  0.37334419411E+03  0.00000000000E+00 0. -1.
         -2   -1    0    0    0  501 -0.00000000000E+00 -0.00000000000E+00 -0.60013935994E+01  0.60013935994E+01  0.00000000000E+00 0.  1.
         23    2    1    2    0    0  0.00000000000E+00  0.00000000000E+00  0.36734280051E+03  0.37934558771E+03  0.94669645756E+02 0.  0.
        -13    1    3    3    0    0 -0.20436625915E+02 -0.40794767692E+02  0.13318951013E+03  0.14078818970E+03  0.00000000000E+00 0. -1.
         13    1    3    3    0    0  0.20436625915E+02  0.40794767692E+02  0.23415329038E+03  0.23855739801E+03  0.00000000000E+00 0.  1.
<mgrwt>
<rscale>  0 0.94669646E+02</rscale>
<asrwt>0</asrwt>
<pdfrwt beam="1">  1        2 0.57437550E-01 0.94669646E+02</pdfrwt>
<pdfrwt beam="2">  1       -2 0.92329162E-03 0.94669646E+02</pdfrwt>
<totfact> 0.17616124E+05</totfact>
</mgrwt>
</event>
<event>
 5    1  0.6113696E+000  0.9374958E+02  0.7546771E-02  0.1294017E+00
         -1   -1    0    0    0  501 -0.00000000000E+00  0.00000000000E+00  0.39233635275E+02  0.39233635275E+02  0.00000000000E+00 0.  1.
          1   -1    0    0  501    0  0.00000000000E+00 -0.00000000000E+00 -0.56004132667E+02  0.56004132667E+02  0.00000000000E+00 0. -1.
         23    2    1    2    0    0  0.00000000000E+00  0.00000000000E+00 -0.16770497392E+02  0.95237767943E+02  0.93749575252E+02 0.  0.
        -13    1    3    3    0    0 -0.26049329465E+02 -0.38848841554E+02 -0.52630823529E+01  0.47069099115E+02  0.00000000000E+00 0.  1.
         13    1    3    3    0    0  0.26049329465E+02  0.38848841554E+02 -0.11507415039E+02  0.48168668827E+02  0.00000000000E+00 0. -1.
<mgrwt>
<rscale>  0 0.93749575E+02</rscale>
<asrwt>0</asrwt>
<pdfrwt beam="2">  1        1 0.86160204E-02 0.93749575E+02</pdfrwt>
<pdfrwt beam="1">  1       -1 0.60359439E-02 0.93749575E+02</pdfrwt>
<totfact> 0.88250152E+04</totfact>
</mgrwt>
</event>
<event>
 5    1  0.6113696E+000  0.9067504E+02  0.7546771E-02  0.1301225E+00
          1   -1    0    0  501    0  0.00000000000E+00  0.00000000000E+00  0.22539176474E+02  0.22539176474E+02  0.00000000000E+00 0. -1.
         -1   -1    0    0    0  501 -0.00000000000E+00 -0.00000000000E+00 -0.91196347815E+02  0.91196347815E+02  0.00000000000E+00 0.  1.
         23    2    1    2    0    0  0.00000000000E+00  0.00000000000E+00 -0.68657171341E+02  0.11373552429E+03  0.90675036855E+02 0.  0.
        -13    1    3    3    0    0 -0.41978780083E+02 -0.16240750079E+02 -0.41142515914E+02  0.60981034397E+02  0.00000000000E+00 0.  1.
         13    1    3    3    0    0  0.41978780083E+02  0.16240750079E+02 -0.27514655426E+02  0.52754489891E+02  0.00000000000E+00 0. -1.
<mgrwt>
<rscale>  0 0.90675037E+02</rscale>
<asrwt>0</asrwt>
<pdfrwt beam="1">  1        1 0.34675656E-02 0.90675037E+02</pdfrwt>
<pdfrwt beam="2">  1       -1 0.14030207E-01 0.90675037E+02</pdfrwt>
<totfact> 0.83928502E+04</totfact>
</mgrwt>
</event>
<event>
 4    1  0.6113696E+000  0.5417486E+02  0.7546771E-02  0.1424042E+00
         -2   -1    0    0    0  501 -0.00000000000E+00  0.00000000000E+00  0.12093670722E+02  0.12093670722E+02  0.00000000000E+00 0. -1.
          2   -1    0    0  501    0  0.00000000000E+00 -0.00000000000E+00 -0.60670478957E+02  0.60670478957E+02  0.00000000000E+00 0.  1.
        -13    1    1    2    0    0 -0.20015119735E+02 -0.17777969200E+02 -0.18739518681E+02  0.32677679956E+02  0.00000000000E+00 0.  1.
         13    1    1    2    0    0  0.20015119735E+02  0.17777969200E+02 -0.29837289555E+02  0.40086469724E+02  0.00000000000E+00 0. -1.
<mgrwt>
<rscale>  0 0.54174857E+02</rscale>
<asrwt>0</asrwt>
<pdfrwt beam="2">  1        2 0.93339200E-02 0.54174857E+02</pdfrwt>
<pdfrwt beam="1">  1       -2 0.18605647E-02 0.54174857E+02</pdfrwt>
<totfact> 0.43356111E+05</totfact>
</mgrwt>
</event>
<event>
 5    1  0.6113696E+000  0.9322883E+02  0.7546771E-02  0.1295216E+00
         -2   -1    0    0    0  501 -0.00000000000E+00  0.00000000000E+00  0.26971028927E+02  0.26971028927E+02  0.00000000000E+00 0.  1.
          2   -1    0    0  501    0  0.00000000000E+00 -0.00000000000E+00 -0.80564359702E+02  0.80564359702E+02  0.00000000000E+00 0. -1.
         23    2    1    2    0    0  0.00000000000E+00  0.00000000000E+00 -0.53593330775E+02  0.10753538863E+03  0.93228829790E+02 0.  0.
        -13    1    3    3    0    0 -0.20259083761E+02  0.27909026490E+02  0.93777467173E+01  0.35739143358E+02  0.00000000000E+00 0.  1.
         13    1    3    3    0    0  0.20259083761E+02 -0.27909026490E+02 -0.62971077493E+02  0.71796245271E+02  0.00000000000E+00 0. -1.
<mgrwt>
<rscale>  0 0.93228830E+02</rscale>
<asrwt>0</asrwt>
<pdfrwt beam="2">  1        2 0.12394517E-01 0.93228830E+02</pdfrwt>
<pdfrwt beam="1">  1       -2 0.41493891E-02 0.93228830E+02</pdfrwt>
<totfact> 0.10816825E+05</totfact>
</mgrwt>
</event>
<event>
 5    1  0.6113696E+000  0.8334898E+02  0.7546771E-02  0.1319807E+00
          2   -1    0    0  501    0  0.00000000000E+00  0.00000000000E+00  0.64613311839E+02  0.64613311839E+02  0.00000000000E+00 0. -1.
         -2   -1    0    0    0  501 -0.00000000000E+00 -0.00000000000E+00 -0.26879335909E+02  0.26879335909E+02  0.00000000000E+00 0.  1.
         23    2    1    2    0    0  0.00000000000E+00  0.00000000000E+00  0.37733975929E+02  0.91492647748E+02  0.83348975113E+02 0.  0.
        -13    1    3    3    0    0 -0.19866948603E+02  0.23037610782E+02  0.50133989862E+02  0.58641658374E+02  0.00000000000E+00 0.  1.
         13    1    3    3    0    0  0.19866948603E+02 -0.23037610782E+02 -0.12400013933E+02  0.32850989374E+02  0.00000000000E+00 0. -1.
<mgrwt>
<rscale>  0 0.83348975E+02</rscale>
<asrwt>0</asrwt>
<pdfrwt beam="1">  1        2 0.99405095E-02 0.83348975E+02</pdfrwt>
<pdfrwt beam="2">  1       -2 0.41352825E-02 0.83348975E+02</pdfrwt>
<totfact> 0.13895805E+05</totfact>
</mgrwt>
</event>
<event>
 5    1  0.6113696E+000  0.8911061E+02  0.7546771E-02  0.1305020E+00
          1   -1    0    0  501    0  0.00000000000E+00  0.00000000000E+00  0.19817124473E+03  0.19817124473E+03  0.00000000000E+00 0. -1.
         -1   -1    0    0    0  501 -0.00000000000E+00 -0.00000000000E+00 -0.10017472619E+02  0.10017472619E+02  0.00000000000E+00 0.  1.
         23    2    1    2    0    0  0.00000000000E+00  0.00000000000E+00  0.18815377211E+03  0.20818871735E+03  0.89110605831E+02 0.  0.
        -13    1    3    3    0    0  0.26868985354E+02  0.16159066092E+02  0.16803520943E+03  0.17093533690E+03  0.00000000000E+00 0. -1.
         13    1    3    3    0    0 -0.26868985354E+02 -0.16159066092E+02  0.20118562680E+02  0.37253380453E+02  0.00000000000E+00 0.  1.
<mgrwt>
<rscale>  0 0.89110606E+02</rscale>
<asrwt>0</asrwt>
<pdfrwt beam="1">  1        1 0.30487881E-01 0.89110606E+02</pdfrwt>
<pdfrwt beam="2">  1       -1 0.15411498E-02 0.89110606E+02</pdfrwt>
<totfact> 0.12567590E+05</totfact>
</mgrwt>
</event>
<event>
 5    1  0.6113696E+000  0.8994415E+02  0.7546771E-02  0.1302987E+00
          2   -1    0    0  501    0  0.00000000000E+00  0.00000000000E+00  0.12114447303E+03  0.12114447303E+03  0.00000000000E+00 0. -1.
         -2   -1    0    0    0  501 -0.00000000000E+00 -0.00000000000E+00 -0.16694840183E+02  0.16694840183E+02  0.00000000000E+00 0.  1.
         23    2    1    2    0    0  0.00000000000E+00  0.00000000000E+00  0.10444963284E+03  0.13783931321E+03  0.89944151921E+02 0.  0.
        -13    1    3    3    0    0  0.17279812998E+02 -0.40490642439E+02  0.38145533506E+02  0.58250886592E+02  0.00000000000E+00 0.  1.
         13    1    3    3    0    0 -0.17279812998E+02  0.40490642439E+02  0.66304099337E+02  0.79588426616E+02  0.00000000000E+00 0. -1.
<mgrwt>
<rscale>  0 0.89944152E+02</rscale>
<asrwt>0</asrwt>
<pdfrwt beam="1">  1        2 0.18637611E-01 0.89944152E+02</pdfrwt>
<pdfrwt beam="2">  1       -2 0.25684370E-02 0.89944152E+02</pdfrwt>
<totfact> 0.13518902E+05</totfact>
</mgrwt>
</event>
<event>
 5    1  0.6113696E+000  0.7946202E+02  0.7546771E-02  0.1330585E+00
          1   -1    0    0  501    0  0.00000000000E+00  0.00000000000E+00  0.10386402120E+03  0.10386402120E+03  0.00000000000E+00 0. -1.
         -1   -1    0    0    0  501 -0.00000000000E+00 -0.00000000000E+00 -0.15198266128E+02  0.15198266128E+02  0.00000000000E+00 0.  1.
         23    2    1    2    0    0  0.00000000000E+00  0.00000000000E+00  0.88665755068E+02  0.11906228732E+03  0.79462016972E+02 0.  0.
        -13    1    3    3    0    0 -0.34214555993E+02  0.95249390327E+01  0.71018433139E+02  0.79403892543E+02  0.00000000000E+00 0. -1.
         13    1    3    3    0    0  0.34214555993E+02 -0.95249390327E+01  0.17647321929E+02  0.39658394782E+02  0.00000000000E+00 0.  1.
<mgrwt>
<rscale>  0 0.79462017E+02</rscale>
<asrwt>0</asrwt>
<pdfrwt beam="1">  1        1 0.15979080E-01 0.79462017E+02</pdfrwt>
<pdfrwt beam="2">  1       -1 0.23381948E-02 0.79462017E+02</pdfrwt>
<totfact> 0.15233095E+05</totfact>
</mgrwt>
</event>
<event>
 5    1  0.6113696E+000  0.9240490E+02  0.7546771E-02  0.1297130E+00
         -1   -1    0    0    0  501 -0.00000000000E+00  0.00000000000E+00  0.19832819802E+03  0.19832819802E+03  0.00000000000E+00 0.  1.
          1   -1    0    0  501    0  0.00000000000E+00 -0.00000000000E+00 -0.10763301876E+02  0.10763301876E+02  0.00000000000E+00 0. -1.
         23    2    1    2    0    0  0.00000000000E+00  0.00000000000E+00  0.18756489614E+03  0.20909149989E+03  0.92404897396E+02 0.  0.
        -13    1    3    3    0    0 -0.22195511098E+02 -0.25805109453E+02  0.16447821537E+03  0.16796317370E+03  0.00000000000E+00 0.  1.
         13    1    3    3    0    0  0.22195511098E+02  0.25805109453E+02  0.23086680773E+02  0.41128326198E+02  0.00000000000E+00 0. -1.
<mgrwt>
<rscale>  0 0.92404897E+02</rscale>
<asrwt>0</asrwt>
<pdfrwt beam="2">  1        1 0.16558927E-02 0.92404897E+02</pdfrwt>
<pdfrwt beam="1">  1       -1 0.30512028E-01 0.92404897E+02</pdfrwt>
<totfact> 0.67204330E+04</totfact>
</mgrwt>
</event>
<event>
 5    1  0.6113696E+000  0.1061417E+03  0.7546771E-02  0.1267886E+00
         -2   -1    0    0    0  501 -0.00000000000E+00  0.00000000000E+00  0.22126332939E+02  0.22126332939E+02  0.00000000000E+00 0.  1.
          2   -1    0    0  501    0  0.00000000000E+00 -0.00000000000E+00 -0.12729247374E+03  0.12729247374E+03  0.00000000000E+00 0. -1.
         23    2    1    2    0    0  0.00000000000E+00  0.00000000000E+00 -0.10516614080E+03  0.14941880667E+03  0.10614171008E+03 0.  0.
        -13    1    3    3    0    0 -0.32849343663E+01 -0.29492977144E+02  0.93552504208E+01  0.31115063957E+02  0.00000000000E+00 0.  1.
         13    1    3    3    0    0  0.32849343663E+01  0.29492977144E+02 -0.11452139122E+03  0.11830374272E+03  0.00000000000E+00 0. -1.
<mgrwt>
<rscale>  0 0.10614171E+03</rscale>
<asrwt>0</asrwt>
<pdfrwt beam="2">  1        2 0.19583458E-01 0.10614171E+03</pdfrwt>
<pdfrwt beam="1">  1       -2 0.34040512E-02 0.10614171E+03</pdfrwt>
<totfact> 0.87033195E+04</totfact>
</mgrwt>
</event>
<event>
 5    1  0.6113696E+000  0.8900135E+02  0.7546771E-02  0.1305288E+00
         -2   -1    0    0    0  501 -0.00000000000E+00  0.00000000000E+00  0.14405258344E+02  0.14405258344E+02  0.00000000000E+00 0.  1.
          2   -1    0    0  501    0  0.00000000000E+00 -0.00000000000E+00 -0.13747132473E+03  0.13747132473E+03  0.00000000000E+00 0. -1.
         23    2    1    2    0    0  0.00000000000E+00  0.00000000000E+00 -0.12306606638E+03  0.15187658307E+03  0.89001347127E+02 0.  0.
        -13    1    3    3    0    0  0.31294589126E+02  0.28480269883E+02 -0.85044511701E+02  0.94989715504E+02  0.00000000000E+00 0.  1.
         13    1    3    3    0    0 -0.31294589126E+02 -0.28480269883E+02 -0.38021554682E+02  0.56886867567E+02  0.00000000000E+00 0. -1.
<mgrwt>
<rscale>  0 0.89001347E+02</rscale>
<asrwt>0</asrwt>
<pdfrwt beam="2">  1        2 0.21149435E-01 0.89001347E+02</pdfrwt>
<pdfrwt beam="1">  1       -2 0.22161936E-02 0.89001347E+02</pdfrwt>
<totfact> 0.14496579E+05</totfact>
</mgrwt>
</event>
<event>
 5    1  0.6113696E+000  0.9256027E+02  0.7546771E-02  0.1296767E+00
          2   -1    0    0  501    0  0.00000000000E+00  0.00000000000E+00  0.81318577750E+02  0.81318577750E+02  0.00000000000E+00 0. -1.
         -2   -1    0    0    0  501 -0.00000000000E+00 -0.00000000000E+00 -0.26339011062E+02  0.26339011062E+02  0.00000000000E+00 0.  1.
         23    2    1    2    0    0  0.00000000000E+00  0.00000000000E+00  0.54979566689E+02  0.10765758881E+03  0.92560270503E+02 0.  0.
        -13    1    3    3    0    0 -0.36035188631E+02 -0.52610457883E+01  0.60707411949E+02  0.70792678209E+02  0.00000000000E+00 0. -1.
         13    1    3    3    0    0  0.36035188631E+02  0.52610457883E+01 -0.57278452603E+01  0.36864910603E+02  0.00000000000E+00 0.  1.
<mgrwt>
<rscale>  0 0.92560271E+02</rscale>
<asrwt>0</asrwt>
<pdfrwt beam="1">  1        2 0.12510550E-01 0.92560271E+02</pdfrwt>
<pdfrwt beam="2">  1       -2 0.40521556E-02 0.92560271E+02</pdfrwt>
<totfact> 0.11065887E+05</totfact>
</mgrwt>
</event>
<event>
 5    1  0.6113696E+000  0.9129017E+02  0.7546771E-02  0.1299757E+00
          1   -1    0    0  501    0  0.00000000000E+00  0.00000000000E+00  0.38414643553E+02  0.38414643553E+02  0.00000000000E+00 0. -1.
         -1   -1    0    0    0  501 -0.00000000000E+00 -0.00000000000E+00 -0.54236450504E+02  0.54236450504E+02  0.00000000000E+00 0.  1.
         23    2    1    2    0    0  0.00000000000E+00  0.00000000000E+00 -0.15821806951E+02  0.92651094056E+02  0.91290172826E+02 0.  0.
        -13    1    3    3    0    0  0.33394541806E+02 -0.24797235922E+02 -0.26989428280E+02  0.49583541329E+02  0.00000000000E+00 0.  1.
         13    1    3    3    0    0 -0.33394541806E+02  0.24797235922E+02  0.11167621329E+02  0.43067552728E+02  0.00000000000E+00 0. -1.
<mgrwt>
<rscale>  0 0.91290173E+02</rscale>
<asrwt>0</asrwt>
<pdfrwt beam="1">  1        1 0.59099452E-02 0.91290173E+02</pdfrwt>
<pdfrwt beam="2">  1       -1 0.83440692E-02 0.91290173E+02</pdfrwt>
<totfact> 0.89790014E+04</totfact>
</mgrwt>
</event>
<event>
 5    1  0.6113696E+000  0.9256662E+02  0.7546771E-02  0.1296753E+00
         -1   -1    0    0    0  501 -0.00000000000E+00  0.00000000000E+00  0.64184495842E+02  0.64184495842E+02  0.00000000000E+00 0.  1.
          1   -1    0    0  501    0  0.00000000000E+00 -0.00000000000E+00 -0.33374799359E+02  0.33374799359E+02  0.00000000000E+00 0. -1.
         23    2    1    2    0    0  0.00000000000E+00  0.00000000000E+00  0.30809696483E+02  0.97559295201E+02  0.92566617539E+02 0.  0.
        -13    1    3    3    0    0 -0.33159751943E+02 -0.71909480161E+01 -0.17770972560E+02  0.38302563204E+02  0.00000000000E+00 0. -1.
         13    1    3    3    0    0  0.33159751943E+02  0.71909480161E+01  0.48580669043E+02  0.59256731997E+02  0.00000000000E+00 0.  1.
<mgrwt>
<rscale>  0 0.92566618E+02</rscale>
<asrwt>0</asrwt>
<pdfrwt beam="2">  1        1 0.51345845E-02 0.92566618E+02</pdfrwt>
<pdfrwt beam="1">  1       -1 0.98745378E-02 0.92566618E+02</pdfrwt>
<totfact> 0.84434084E+04</totfact>
</mgrwt>
</event>
<event>
 5    1  0.6113696E+000  0.9004136E+02  0.7546771E-02  0.1302752E+00
          1   -1    0    0  501    0  0.00000000000E+00  0.00000000000E+00  0.18516130279E+02  0.18516130279E+02  0.00000000000E+00 0. -1.
         -1   -1    0    0    0  501 -0.00000000000E+00 -0.00000000000E+00 -0.10946465332E+03  0.10946465332E+03  0.00000000000E+00 0.  1.
         23    2    1    2    0    0  0.00000000000E+00  0.00000000000E+00 -0.90948523041E+02  0.12798078360E+03  0.90041363425E+02 0.  0.
        -13    1    3    3    0    0 -0.39559106390E+02  0.11226126154E+02 -0.19423759798E+02  0.45477810539E+02  0.00000000000E+00 0. -1.
         13    1    3    3    0    0  0.39559106390E+02 -0.11226126154E+02 -0.71524763243E+02  0.82502973060E+02  0.00000000000E+00 0.  1.
<mgrwt>
<rscale>  0 0.90041363E+02</rscale>
<asrwt>0</asrwt>
<pdfrwt beam="1">  1        1 0.28486354E-02 0.90041363E+02</pdfrwt>
<pdfrwt beam="2">  1       -1 0.16840716E-01 0.90041363E+02</pdfrwt>
<totfact> 0.82609207E+04</totfact>
</mgrwt>
</event>
<event>
 5    1  0.6113696E+000  0.9032812E+02  0.7546771E-02  0.1302059E+00
         -1   -1    0    0    0  501 -0.00000000000E+00  0.00000000000E+00  0.58447398843E+01  0.58447398843E+01  0.00000000000E+00 0.  1.
          1   -1    0    0  501    0  0.00000000000E+00 -0.00000000000E+00 -0.34899628538E+03  0.34899628538E+03  0.00000000000E+00 0. -1.
         23    2    1    2    0    0  0.00000000000E+00  0.00000000000E+00 -0.34315154549E+03  0.35484102526E+03  0.90328124272E+02 0.  0.
        -13    1    3    3    0    0  0.17552529513E+02  0.40125821845E+02 -0.21489819050E+03  0.21931576586E+03  0.00000000000E+00 0.  1.
         13    1    3    3    0    0 -0.17552529513E+02 -0.40125821845E+02 -0.12825335499E+03  0.13552525940E+03  0.00000000000E+00 0. -1.
<mgrwt>
<rscale>  0 0.90328124E+02</rscale>
<asrwt>0</asrwt>
<pdfrwt beam="2">  1        1 0.53691757E-01 0.90328124E+02</pdfrwt>
<pdfrwt beam="1">  1       -1 0.89919040E-03 0.90328124E+02</pdfrwt>
<totfact> 0.13507999E+05</totfact>
</mgrwt>
</event>
<event>
 5    1  0.6113696E+000  0.9242802E+02  0.7546771E-02  0.1297076E+00
          1   -1    0    0  501    0  0.00000000000E+00  0.00000000000E+00  0.19807582715E+03  0.19807582715E+03  0.00000000000E+00 0. -1.
         -1   -1    0    0    0  501 -0.00000000000E+00 -0.00000000000E+00 -0.10782409114E+02  0.10782409114E+02  0.00000000000E+00 0.  1.
         23    2    1    2    0    0  0.00000000000E+00  0.00000000000E+00  0.18729341804E+03  0.20885823626E+03  0.92428017483E+02 0.  0.
        -13    1    3    3    0    0  0.42553563162E+02  0.13698230202E+02  0.67170046599E+02  0.80686197137E+02  0.00000000000E+00 0. -1.
         13    1    3    3    0    0 -0.42553563162E+02 -0.13698230202E+02  0.12012337144E+03  0.12817203913E+03  0.00000000000E+00 0.  1.
<mgrwt>
<rscale>  0 0.92428017E+02</rscale>
<asrwt>0</asrwt>
<pdfrwt beam="1">  1        1 0.30473201E-01 0.92428017E+02</pdfrwt>
<pdfrwt beam="2">  1       -1 0.16588323E-02 0.92428017E+02</pdfrwt>
<totfact> 0.11393544E+05</totfact>
</mgrwt>
</event>
<event>
 5    1  0.6113696E+000  0.8841355E+02  0.7546771E-02  0.1306740E+00
         -4   -1    0    0    0  501 -0.00000000000E+00  0.00000000000E+00  0.36066346152E+02  0.36066346152E+02  0.00000000000E+00 0.  1.
          4   -1    0    0  501    0  0.00000000000E+00 -0.00000000000E+00 -0.54184555492E+02  0.54184555492E+02  0.00000000000E+00 0. -1.
         23    2    1    2    0    0  0.00000000000E+00  0.00000000000E+00 -0.18118209340E+02  0.90250901643E+02  0.88413549515E+02 0.  0.
        -13    1    3    3    0    0  0.97697008392E+01 -0.22194213597E+02  0.28671282022E+02  0.37550933204E+02  0.00000000000E+00 0.  1.
         13    1    3    3    0    0 -0.97697008392E+01  0.22194213597E+02 -0.46789491362E+02  0.52699968440E+02  0.00000000000E+00 0. -1.
<mgrwt>
<rscale>  0 0.88413550E+02</rscale>
<asrwt>0</asrwt>
<pdfrwt beam="2">  1        4 0.83360855E-02 0.88413550E+02</pdfrwt>
<pdfrwt beam="1">  1       -4 0.55486686E-02 0.88413550E+02</pdfrwt>
<totfact> 0.29426137E+04</totfact>
</mgrwt>
</event>
<event>
 5    1  0.6113696E+000  0.9570018E+02  0.7546771E-02  0.1289607E+00
          2   -1    0    0  501    0  0.00000000000E+00  0.00000000000E+00  0.16974864319E+03  0.16974864319E+03  0.00000000000E+00 0. -1.
         -2   -1    0    0    0  501 -0.00000000000E+00 -0.00000000000E+00 -0.13488361705E+02  0.13488361705E+02  0.00000000000E+00 0.  1.
         23    2    1    2    0    0  0.00000000000E+00  0.00000000000E+00  0.15626028149E+03  0.18323700489E+03  0.95700179691E+02 0.  0.
        -13    1    3    3    0    0  0.14744867988E+02 -0.35225702560E+02  0.13333757516E+03  0.13869812617E+03  0.00000000000E+00 0. -1.
         13    1    3    3    0    0 -0.14744867988E+02  0.35225702560E+02  0.22922706320E+02  0.44538878723E+02  0.00000000000E+00 0.  1.
<mgrwt>
<rscale>  0 0.95700180E+02</rscale>
<asrwt>0</asrwt>
<pdfrwt beam="1">  1        2 0.26115174E-01 0.95700180E+02</pdfrwt>
<pdfrwt beam="2">  1       -2 0.20751327E-02 0.95700180E+02</pdfrwt>
<totfact> 0.12793415E+05</totfact>
</mgrwt>
</event>
<event>
 5    1  0.6113696E+000  0.8996506E+02  0.7546771E-02  0.1302936E+00
          1   -1    0    0  501    0  0.00000000000E+00  0.00000000000E+00  0.10173684014E+03  0.10173684014E+03  0.00000000000E+00 0.  1.
         -1   -1    0    0    0  501 -0.00000000000E+00 -0.00000000000E+00 -0.19888843541E+02  0.19888843541E+02  0.00000000000E+00 0. -1.
         23    2    1    2    0    0  0.00000000000E+00  0.00000000000E+00  0.81847996601E+02  0.12162568368E+03  0.89965062017E+02 0.  0.
        -13    1    3    3    0    0  0.16419669529E+02 -0.13047857880E+00  0.97540382231E+02  0.98912834041E+02  0.00000000000E+00 0.  1.
         13    1    3    3    0    0 -0.16419669529E+02  0.13047857880E+00 -0.15692385631E+02  0.22712849642E+02  0.00000000000E+00 0. -1.
<mgrwt>
<rscale>  0 0.89965062E+02</rscale>
<asrwt>0</asrwt>
<pdfrwt beam="1">  1        1 0.15651821E-01 0.89965062E+02</pdfrwt>
<pdfrwt beam="2">  1       -1 0.30598221E-02 0.89965062E+02</pdfrwt>
<totfact> 0.10863477E+05</totfact>
</mgrwt>
</event>
<event>
 5    1  0.6113696E+000  0.9215978E+02  0.7546771E-02  0.1297704E+00
          1   -1    0    0  501    0  0.00000000000E+00  0.00000000000E+00  0.82283860242E+01  0.82283860242E+01  0.00000000000E+00 0. -1.
         -1   -1    0    0    0  501 -0.00000000000E+00 -0.00000000000E+00 -0.25805260639E+03  0.25805260639E+03  0.00000000000E+00 0.  1.
         23    2    1    2    0    0  0.00000000000E+00  0.00000000000E+00 -0.24982422036E+03  0.26628099241E+03  0.92159784286E+02 0.  0.
        -13    1    3    3    0    0  0.43847660447E+02 -0.13492665582E+02 -0.11242189924E+03  0.12142220876E+03  0.00000000000E+00 0.  1.
         13    1    3    3    0    0 -0.43847660447E+02  0.13492665582E+02 -0.13740232113E+03  0.14485878365E+03  0.00000000000E+00 0. -1.
<mgrwt>
<rscale>  0 0.92159784E+02</rscale>
<asrwt>0</asrwt>
<pdfrwt beam="1">  1        1 0.12659054E-02 0.92159784E+02</pdfrwt>
<pdfrwt beam="2">  1       -1 0.39700407E-01 0.92159784E+02</pdfrwt>
<totfact> 0.62292565E+04</totfact>
</mgrwt>
</event>
<event>
 5    1  0.6113696E+000  0.7620231E+02  0.7546771E-02  0.1340188E+00
          1   -1    0    0  501    0  0.00000000000E+00  0.00000000000E+00  0.79383591512E+02  0.79383591512E+02  0.00000000000E+00 0. -1.
         -1   -1    0    0    0  501 -0.00000000000E+00 -0.00000000000E+00 -0.18287129345E+02  0.18287129345E+02  0.00000000000E+00 0.  1.
         23    2    1    2    0    0  0.00000000000E+00  0.00000000000E+00  0.61096462168E+02  0.97670720857E+02  0.76202309829E+02 0.  0.
        -13    1    3    3    0    0 -0.40418087147E+01  0.27191466959E+02 -0.32657637427E+01  0.27683520475E+02  0.00000000000E+00 0.  1.
         13    1    3    3    0    0  0.40418087147E+01 -0.27191466959E+02  0.64362225910E+02  0.69987200381E+02  0.00000000000E+00 0. -1.
<mgrwt>
<rscale>  0 0.76202310E+02</rscale>
<asrwt>0</asrwt>
<pdfrwt beam="1">  1        1 0.12212860E-01 0.76202310E+02</pdfrwt>
<pdfrwt beam="2">  1       -1 0.28134046E-02 0.76202310E+02</pdfrwt>
<totfact> 0.16365963E+05</totfact>
</mgrwt>
</event>
<event>
 5    1  0.6113696E+000  0.9087058E+02  0.7546771E-02  0.1300757E+00
          1   -1    0    0  501    0  0.00000000000E+00  0.00000000000E+00  0.81211816289E+02  0.81211816289E+02  0.00000000000E+00 0. -1.
         -1   -1    0    0    0  501 -0.00000000000E+00 -0.00000000000E+00 -0.25419519542E+02  0.25419519542E+02  0.00000000000E+00 0.  1.
         23    2    1    2    0    0  0.00000000000E+00  0.00000000000E+00  0.55792296747E+02  0.10663133583E+03  0.90870575021E+02 0.  0.
        -13    1    3    3    0    0 -0.41477264831E+02  0.50174257548E+01  0.48848815764E+02  0.64278650116E+02  0.00000000000E+00 0. -1.
         13    1    3    3    0    0  0.41477264831E+02 -0.50174257548E+01  0.69434809828E+01  0.42352685715E+02  0.00000000000E+00 0.  1.
<mgrwt>
<rscale>  0 0.90870575E+02</rscale>
<asrwt>0</asrwt>
<pdfrwt beam="1">  1        1 0.12494125E-01 0.90870575E+02</pdfrwt>
<pdfrwt beam="2">  1       -1 0.39106954E-02 0.90870575E+02</pdfrwt>
<totfact> 0.10192009E+05</totfact>
</mgrwt>
</event>
<event>
 5    1  0.6113696E+000  0.9056203E+02  0.7546771E-02  0.1301496E+00
         -2   -1    0    0    0  501 -0.00000000000E+00  0.00000000000E+00  0.31270250463E+02  0.31270250463E+02  0.00000000000E+00 0.  1.
          2   -1    0    0  501    0  0.00000000000E+00 -0.00000000000E+00 -0.65569363653E+02  0.65569363653E+02  0.00000000000E+00 0. -1.
         23    2    1    2    0    0  0.00000000000E+00  0.00000000000E+00 -0.34299113190E+02  0.96839614116E+02  0.90562032312E+02 0.  0.
        -13    1    3    3    0    0  0.20203677505E+02 -0.40180826060E+02 -0.11523372874E+02  0.46427098660E+02  0.00000000000E+00 0.  1.
         13    1    3    3    0    0 -0.20203677505E+02  0.40180826060E+02 -0.22775740316E+02  0.50412515456E+02  0.00000000000E+00 0. -1.
<mgrwt>
<rscale>  0 0.90562032E+02</rscale>
<asrwt>0</asrwt>
<pdfrwt beam="2">  1        2 0.10087594E-01 0.90562032E+02</pdfrwt>
<pdfrwt beam="1">  1       -2 0.48108078E-02 0.90562032E+02</pdfrwt>
<totfact> 0.11072895E+05</totfact>
</mgrwt>
</event>
<event>
 5    1  0.6113696E+000  0.9275962E+02  0.7546771E-02  0.1296303E+00
         -1   -1    0    0    0  501 -0.00000000000E+00  0.00000000000E+00  0.12313249772E+03  0.12313249772E+03  0.00000000000E+00 0.  1.
          1   -1    0    0  501    0  0.00000000000E+00 -0.00000000000E+00 -0.17469691104E+02  0.17469691104E+02  0.00000000000E+00 0. -1.
         23    2    1    2    0    0  0.00000000000E+00  0.00000000000E+00  0.10566280662E+03  0.14060218883E+03  0.92759618373E+02 0.  0.
        -13    1    3    3    0    0  0.23531496803E+02 -0.20190959002E+02  0.10511293541E+03  0.10959076310E+03  0.00000000000E+00 0.  1.
         13    1    3    3    0    0 -0.23531496803E+02  0.20190959002E+02  0.54987121186E+00  0.31011425727E+02  0.00000000000E+00 0. -1.
<mgrwt>
<rscale>  0 0.92759618E+02</rscale>
<asrwt>0</asrwt>
<pdfrwt beam="2">  1        1 0.26876449E-02 0.92759618E+02</pdfrwt>
<pdfrwt beam="1">  1       -1 0.18943461E-01 0.92759618E+02</pdfrwt>
<totfact> 0.74709377E+04</totfact>
</mgrwt>
</event>
<event>
 5    1  0.6113696E+000  0.9019736E+02  0.7546771E-02  0.1302374E+00
         -1   -1    0    0    0  501 -0.00000000000E+00  0.00000000000E+00  0.15257099243E+02  0.15257099243E+02  0.00000000000E+00 0.  1.
          1   -1    0    0  501    0  0.00000000000E+00 -0.00000000000E+00 -0.13330783646E+03  0.13330783646E+03  0.00000000000E+00 0. -1.
         23    2    1    2    0    0  0.00000000000E+00  0.00000000000E+00 -0.11805073722E+03  0.14856493570E+03  0.90197358957E+02 0.  0.
        -13    1    3    3    0    0  0.29032474568E+02  0.20848476193E+02 -0.13726939311E+02  0.38288019039E+02  0.00000000000E+00 0.  1.
         13    1    3    3    0    0 -0.29032474568E+02 -0.20848476193E+02 -0.10432379791E+03  0.11027691666E+03  0.00000000000E+00 0. -1.
<mgrwt>
<rscale>  0 0.90197359E+02</rscale>
<asrwt>0</asrwt>
<pdfrwt beam="2">  1        1 0.20508899E-01 0.90197359E+02</pdfrwt>
<pdfrwt beam="1">  1       -1 0.23472459E-02 0.90197359E+02</pdfrwt>
<totfact> 0.11300795E+05</totfact>
</mgrwt>
</event>
<event>
 5    1  0.6113696E+000  0.9653937E+02  0.7546771E-02  0.1287746E+00
         -4   -1    0    0    0  501 -0.00000000000E+00  0.00000000000E+00  0.45757950277E+02  0.45757950277E+02  0.00000000000E+00 0.  1.
          4   -1    0    0  501    0  0.00000000000E+00 -0.00000000000E+00 -0.50919289079E+02  0.50919289079E+02  0.00000000000E+00 0. -1.
         23    2    1    2    0    0  0.00000000000E+00  0.00000000000E+00 -0.51613388018E+01  0.96677239356E+02  0.96539366019E+02 0.  0.
        -13    1    3    3    0    0  0.35111024743E+02  0.21975218704E+02  0.22239157290E+02  0.47013555626E+02  0.00000000000E+00 0.  1.
         13    1    3    3    0    0 -0.35111024743E+02 -0.21975218704E+02 -0.27400496092E+02  0.49663683731E+02  0.00000000000E+00 0. -1.
<mgrwt>
<rscale>  0 0.96539366E+02</rscale>
<asrwt>0</asrwt>
<pdfrwt beam="2">  1        4 0.78337368E-02 0.96539366E+02</pdfrwt>
<pdfrwt beam="1">  1       -4 0.70396847E-02 0.96539366E+02</pdfrwt>
<totfact> 0.22817502E+04</totfact>
</mgrwt>
</event>
<event>
 5    1  0.6113696E+000  0.9131077E+02  0.7546771E-02  0.1299708E+00
          2   -1    0    0  501    0  0.00000000000E+00  0.00000000000E+00  0.83998493897E+02  0.83998493897E+02  0.00000000000E+00 0.  1.
         -2   -1    0    0    0  501 -0.00000000000E+00 -0.00000000000E+00 -0.24814897385E+02  0.24814897385E+02  0.00000000000E+00 0. -1.
         23    2    1    2    0    0  0.00000000000E+00  0.00000000000E+00  0.59183596512E+02  0.10881339128E+03  0.91310766212E+02 0.  0.
        -13    1    3    3    0    0 -0.44134728415E+02 -0.81527294078E+01  0.39567304911E+02  0.59832373068E+02  0.00000000000E+00 0. -1.
         13    1    3    3    0    0  0.44134728415E+02  0.81527294078E+01  0.19616291601E+02  0.48981018213E+02  0.00000000000E+00 0.  1.
<mgrwt>
<rscale>  0 0.91310766E+02</rscale>
<asrwt>0</asrwt>
<pdfrwt beam="1">  1        2 0.12922845E-01 0.91310766E+02</pdfrwt>
<pdfrwt beam="2">  1       -2 0.38176766E-02 0.91310766E+02</pdfrwt>
<totfact> 0.11600613E+05</totfact>
</mgrwt>
</event>
<event>
 5    1  0.6113696E+000  0.8438140E+02  0.7546771E-02  0.1317058E+00
          1   -1    0    0  501    0  0.00000000000E+00  0.00000000000E+00  0.77299616064E+02  0.77299616064E+02  0.00000000000E+00 0. -1.
         -1   -1    0    0    0  501 -0.00000000000E+00 -0.00000000000E+00 -0.23027992511E+02  0.23027992511E+02  0.00000000000E+00 0.  1.
         23    2    1    2    0    0  0.00000000000E+00  0.00000000000E+00  0.54271623554E+02  0.10032760857E+03  0.84381395575E+02 0.  0.
        -13    1    3    3    0    0 -0.15904800083E+02  0.18720576420E+02  0.67920218174E+02  0.72225886523E+02  0.00000000000E+00 0. -1.
         13    1    3    3    0    0  0.15904800083E+02 -0.18720576420E+02 -0.13648594620E+02  0.28101722052E+02  0.00000000000E+00 0.  1.
<mgrwt>
<rscale>  0 0.84381396E+02</rscale>
<asrwt>0</asrwt>
<pdfrwt beam="1">  1        1 0.11892248E-01 0.84381396E+02</pdfrwt>
<pdfrwt beam="2">  1       -1 0.35427681E-02 0.84381396E+02</pdfrwt>
<totfact> 0.12380786E+05</totfact>
</mgrwt>
</event>
<event>
 5    1  0.6113696E+000  0.9130992E+02  0.7546771E-02  0.1299710E+00
         -1   -1    0    0    0  501 -0.00000000000E+00  0.00000000000E+00  0.18056578244E+03  0.18056578244E+03  0.00000000000E+00 0.  1.
          1   -1    0    0  501    0  0.00000000000E+00 -0.00000000000E+00 -0.11543579394E+02  0.11543579394E+02  0.00000000000E+00 0. -1.
         23    2    1    2    0    0  0.00000000000E+00  0.00000000000E+00  0.16902220305E+03  0.19210936184E+03  0.91309921595E+02 0.  0.
        -13    1    3    3    0    0  0.25590211313E+02  0.95080051127E+01  0.16150200119E+03  0.16379303241E+03  0.00000000000E+00 0.  1.
         13    1    3    3    0    0 -0.25590211313E+02 -0.95080051127E+01  0.75202018548E+01  0.28316329427E+02  0.00000000000E+00 0. -1.
<mgrwt>
<rscale>  0 0.91309922E+02</rscale>
<asrwt>0</asrwt>
<pdfrwt beam="2">  1        1 0.17759354E-02 0.91309922E+02</pdfrwt>
<pdfrwt beam="1">  1       -1 0.27779349E-01 0.91309922E+02</pdfrwt>
<totfact> 0.71139025E+04</totfact>
</mgrwt>
</event>
<event>
 5    1  0.6113696E+000  0.9215842E+02  0.7546771E-02  0.1297707E+00
          2   -1    0    0  501    0  0.00000000000E+00  0.00000000000E+00  0.70542523543E+02  0.70542523543E+02  0.00000000000E+00 0. -1.
         -2   -1    0    0    0  501 -0.00000000000E+00 -0.00000000000E+00 -0.30099482159E+02  0.30099482159E+02  0.00000000000E+00 0.  1.
         23    2    1    2    0    0  0.00000000000E+00  0.00000000000E+00  0.40443041384E+02  0.10064200570E+03  0.92158416410E+02 0.  0.
        -13    1    3    3    0    0  0.62768406115E+00  0.15433084812E+02  0.67631266050E+02  0.69372633233E+02  0.00000000000E+00 0. -1.
         13    1    3    3    0    0 -0.62768406115E+00 -0.15433084812E+02 -0.27188224666E+02  0.31269372469E+02  0.00000000000E+00 0.  1.
<mgrwt>
<rscale>  0 0.92158416E+02</rscale>
<asrwt>0</asrwt>
<pdfrwt beam="1">  1        2 0.10852696E-01 0.92158416E+02</pdfrwt>
<pdfrwt beam="2">  1       -2 0.46306896E-02 0.92158416E+02</pdfrwt>
<totfact> 0.10758009E+05</totfact>
</mgrwt>
</event>
<event>
 5    1  0.6113696E+000  0.9067579E+02  0.7546771E-02  0.1301223E+00
         -2   -1    0    0    0  501 -0.00000000000E+00  0.00000000000E+00  0.15113821269E+03  0.15113821269E+03  0.00000000000E+00 0. -1.
          2   -1    0    0  501    0  0.00000000000E+00 -0.00000000000E+00 -0.13600297554E+02  0.13600297554E+02  0.00000000000E+00 0.  1.
         23    2    1    2    0    0  0.00000000000E+00  0.00000000000E+00  0.13753791513E+03  0.16473851024E+03  0.90675788704E+02 0.  0.
        -13    1    3    3    0    0 -0.21866159727E+02  0.12569179783E+02  0.32140192655E+00  0.25223332865E+02  0.00000000000E+00 0.  1.
         13    1    3    3    0    0  0.21866159727E+02 -0.12569179783E+02  0.13721651321E+03  0.13951517738E+03  0.00000000000E+00 0. -1.
<mgrwt>
<rscale>  0 0.90675789E+02</rscale>
<asrwt>0</asrwt>
<pdfrwt beam="2">  1        2 0.20923536E-02 0.90675789E+02</pdfrwt>
<pdfrwt beam="1">  1       -2 0.23252032E-01 0.90675789E+02</pdfrwt>
<totfact> 0.70642678E+04</totfact>
</mgrwt>
</event>
<event>
 5    1  0.6113696E+000  0.9374497E+02  0.7546771E-02  0.1294028E+00
          2   -1    0    0  501    0  0.00000000000E+00  0.00000000000E+00  0.28100403941E+02  0.28100403941E+02  0.00000000000E+00 0. -1.
         -2   -1    0    0    0  501 -0.00000000000E+00 -0.00000000000E+00 -0.78184999749E+02  0.78184999749E+02  0.00000000000E+00 0.  1.
         23    2    1    2    0    0  0.00000000000E+00  0.00000000000E+00 -0.50084595809E+02  0.10628540369E+03  0.93744974800E+02 0.  0.
        -13    1    3    3    0    0  0.25981459781E+02  0.36626927412E+02 -0.98116448195E+01  0.45965600595E+02  0.00000000000E+00 0.  1.
         13    1    3    3    0    0 -0.25981459781E+02 -0.36626927412E+02 -0.40272950989E+02  0.60319803095E+02  0.00000000000E+00 0. -1.
<mgrwt>
<rscale>  0 0.93744975E+02</rscale>
<asrwt>0</asrwt>
<pdfrwt beam="1">  1        2 0.43231392E-02 0.93744975E+02</pdfrwt>
<pdfrwt beam="2">  1       -2 0.12028461E-01 0.93744975E+02</pdfrwt>
<totfact> 0.79975709E+04</totfact>
</mgrwt>
</event>
<event>
 5    1  0.6113696E+000  0.9195773E+02  0.7546771E-02  0.1298179E+00
          3   -1    0    0  501    0  0.00000000000E+00  0.00000000000E+00  0.21182518976E+03  0.21182518976E+03  0.00000000000E+00 0. -1.
         -3   -1    0    0    0  501 -0.00000000000E+00 -0.00000000000E+00 -0.99801913392E+01  0.99801913392E+01  0.00000000000E+00 0.  1.
         23    2    1    2    0    0  0.00000000000E+00  0.00000000000E+00  0.20184499842E+03  0.22180538110E+03  0.91957727772E+02 0.  0.
        -13    1    3    3    0    0  0.28122166266E+02  0.24809772919E+02  0.36757125308E+02  0.52511592327E+02  0.00000000000E+00 0.  1.
         13    1    3    3    0    0 -0.28122166266E+02 -0.24809772919E+02  0.16508787311E+03  0.16929378877E+03  0.00000000000E+00 0. -1.
<mgrwt>
<rscale>  0 0.91957728E+02</rscale>
<asrwt>0</asrwt>
<pdfrwt beam="1">  1        3 0.32588487E-01 0.91957728E+02</pdfrwt>
<pdfrwt beam="2">  1       -3 0.15354142E-02 0.91957728E+02</pdfrwt>
<totfact> 0.26785360E+04</totfact>
</mgrwt>
</event>
<event>
 5    1  0.6113696E+000  0.8974537E+02  0.7546771E-02  0.1303469E+00
         -3   -1    0    0    0  501 -0.00000000000E+00  0.00000000000E+00  0.39382823760E+03  0.39382823760E+03  0.00000000000E+00 0.  1.
          3   -1    0    0  501    0  0.00000000000E+00 -0.00000000000E+00 -0.51127817516E+01  0.51127817516E+01  0.00000000000E+00 0. -1.
         23    2    1    2    0    0  0.00000000000E+00  0.00000000000E+00  0.38871545585E+03  0.39894101936E+03  0.89745369273E+02 0.  0.
        -13    1    3    3    0    0  0.35567876058E+02  0.26049491606E+02  0.23152494999E+03  0.23568507014E+03  0.00000000000E+00 0.  1.
         13    1    3    3    0    0 -0.35567876058E+02 -0.26049491606E+02  0.15719050586E+03  0.16325594922E+03  0.00000000000E+00 0. -1.
<mgrwt>
<rscale>  0 0.89745369E+02</rscale>
<asrwt>0</asrwt>
<pdfrwt beam="2">  1        3 0.78658212E-03 0.89745369E+02</pdfrwt>
<pdfrwt beam="1">  1       -3 0.60588936E-01 0.89745369E+02</pdfrwt>
<totfact> 0.21522469E+04</totfact>
</mgrwt>
</event>
<event>
 5    1  0.6113696E+000  0.9083989E+02  0.7546771E-02  0.1300830E+00
         -3   -1    0    0    0  501 -0.00000000000E+00  0.00000000000E+00  0.12261348633E+03  0.12261348633E+03  0.00000000000E+00 0.  1.
          3   -1    0    0  501    0  0.00000000000E+00 -0.00000000000E+00 -0.16824996594E+02  0.16824996594E+02  0.00000000000E+00 0. -1.
         23    2    1    2    0    0  0.00000000000E+00  0.00000000000E+00  0.10578848973E+03  0.13943848292E+03  0.90839891894E+02 0.  0.
        -13    1    3    3    0    0 -0.26044422981E+02 -0.35657496681E+02  0.69226041263E+02  0.82109766940E+02  0.00000000000E+00 0.  1.
         13    1    3    3    0    0  0.26044422981E+02  0.35657496681E+02  0.36562448470E+02  0.57328715981E+02  0.00000000000E+00 0. -1.
<mgrwt>
<rscale>  0 0.90839892E+02</rscale>
<asrwt>0</asrwt>
<pdfrwt beam="2">  1        3 0.25884611E-02 0.90839892E+02</pdfrwt>
<pdfrwt beam="1">  1       -3 0.18863613E-01 0.90839892E+02</pdfrwt>
<totfact> 0.32289548E+04</totfact>
</mgrwt>
</event>
<event>
 5    1  0.6113696E+000  0.8372670E+02  0.7546771E-02  0.1318796E+00
         -2   -1    0    0    0  501 -0.00000000000E+00  0.00000000000E+00  0.18122868916E+03  0.18122868916E+03  0.00000000000E+00 0.  1.
          2   -1    0    0  501    0  0.00000000000E+00 -0.00000000000E+00 -0.96703228612E+01  0.96703228612E+01  0.00000000000E+00 0. -1.
         23    2    1    2    0    0  0.00000000000E+00  0.00000000000E+00  0.17155836630E+03  0.19089901202E+03  0.83726696719E+02 0.  0.
        -13    1    3    3    0    0  0.23197839443E+02 -0.31780498816E+02  0.11837637961E+03  0.12474416664E+03  0.00000000000E+00 0. -1.
         13    1    3    3    0    0 -0.23197839443E+02  0.31780498816E+02  0.53181986683E+02  0.66154845381E+02  0.00000000000E+00 0.  1.
<mgrwt>
<rscale>  0 0.83726697E+02</rscale>
<asrwt>0</asrwt>
<pdfrwt beam="2">  1        2 0.14877421E-02 0.83726697E+02</pdfrwt>
<pdfrwt beam="1">  1       -2 0.27881334E-01 0.83726697E+02</pdfrwt>
<totfact> 0.80671104E+04</totfact>
</mgrwt>
</event>
<event>
 5    1  0.6113696E+000  0.9169917E+02  0.7546771E-02  0.1298788E+00
          1   -1    0    0  501    0  0.00000000000E+00  0.00000000000E+00  0.30334560212E+02  0.30334560212E+02  0.00000000000E+00 0. -1.
         -1   -1    0    0    0  501 -0.00000000000E+00 -0.00000000000E+00 -0.69299985030E+02  0.69299985030E+02  0.00000000000E+00 0.  1.
         23    2    1    2    0    0  0.00000000000E+00  0.00000000000E+00 -0.38965424818E+02  0.99634545242E+02  0.91699172702E+02 0.  0.
        -13    1    3    3    0    0 -0.31578076866E+01  0.37096145857E+02  0.95928390464E+01  0.38446304735E+02  0.00000000000E+00 0. -1.
         13    1    3    3    0    0  0.31578076866E+01 -0.37096145857E+02 -0.48558263864E+02  0.61188240507E+02  0.00000000000E+00 0.  1.
<mgrwt>
<rscale>  0 0.91699173E+02</rscale>
<asrwt>0</asrwt>
<pdfrwt beam="1">  1        1 0.46668554E-02 0.91699173E+02</pdfrwt>
<pdfrwt beam="2">  1       -1 0.10661536E-01 0.91699173E+02</pdfrwt>
<totfact> 0.85425743E+04</totfact>
</mgrwt>
</event>
<event>
 5    1  0.6113696E+000  0.9319498E+02  0.7546771E-02  0.1295294E+00
          2   -1    0    0  501    0  0.00000000000E+00  0.00000000000E+00  0.67802654734E+02  0.67802654734E+02  0.00000000000E+00 0.  1.
         -2   -1    0    0    0  501 -0.00000000000E+00 -0.00000000000E+00 -0.32024207317E+02  0.32024207317E+02  0.00000000000E+00 0. -1.
         23    2    1    2    0    0  0.00000000000E+00  0.00000000000E+00  0.35778447416E+02  0.99826862051E+02  0.93194984240E+02 0.  0.
        -13    1    3    3    0    0  0.30949120671E+02  0.31805019153E+02  0.26682151894E+01  0.44458145327E+02  0.00000000000E+00 0.  1.
         13    1    3    3    0    0 -0.30949120671E+02 -0.31805019153E+02  0.33110232227E+02  0.55368716724E+02  0.00000000000E+00 0. -1.
<mgrwt>
<rscale>  0 0.93194984E+02</rscale>
<asrwt>0</asrwt>
<pdfrwt beam="1">  1        2 0.10431178E-01 0.93194984E+02</pdfrwt>
<pdfrwt beam="2">  1       -2 0.49268011E-02 0.93194984E+02</pdfrwt>
<totfact> 0.10310749E+05</totfact>
</mgrwt>
</event>
<event>
 5    1  0.6113696E+000  0.9108826E+02  0.7546771E-02  0.1300238E+00
         -1   -1    0    0    0  501 -0.00000000000E+00  0.00000000000E+00  0.64043781176E+02  0.64043781176E+02  0.00000000000E+00 0.  1.
          1   -1    0    0  501    0  0.00000000000E+00 -0.00000000000E+00 -0.32388280931E+02  0.32388280931E+02  0.00000000000E+00 0. -1.
         23    2    1    2    0    0  0.00000000000E+00  0.00000000000E+00  0.31655500245E+02  0.96432062107E+02  0.91088264373E+02 0.  0.
        -13    1    3    3    0    0  0.21560764171E+02  0.88764848201E+01  0.57245950127E+02  0.61812274997E+02  0.00000000000E+00 0.  1.
         13    1    3    3    0    0 -0.21560764171E+02 -0.88764848201E+01 -0.25590449882E+02  0.34619787110E+02  0.00000000000E+00 0. -1.
<mgrwt>
<rscale>  0 0.91088264E+02</rscale>
<asrwt>0</asrwt>
<pdfrwt beam="2">  1        1 0.49828125E-02 0.91088264E+02</pdfrwt>
<pdfrwt beam="1">  1       -1 0.98528893E-02 0.91088264E+02</pdfrwt>
<totfact> 0.87995319E+04</totfact>
</mgrwt>
</event>
<event>
 5    1  0.6113696E+000  0.9190350E+02  0.7546771E-02  0.1298306E+00
         -2   -1    0    0    0  501 -0.00000000000E+00  0.00000000000E+00  0.11331678603E+03  0.11331678603E+03  0.00000000000E+00 0.  1.
          2   -1    0    0  501    0  0.00000000000E+00 -0.00000000000E+00 -0.18634160907E+02  0.18634160907E+02  0.00000000000E+00 0. -1.
         23    2    1    2    0    0  0.00000000000E+00  0.00000000000E+00  0.94682625120E+02  0.13195094693E+03  0.91903497740E+02 0.  0.
        -13    1    3    3    0    0 -0.34671345933E+02  0.27246646081E+02  0.65899876103E+02  0.79292342769E+02  0.00000000000E+00 0.  1.
         13    1    3    3    0    0  0.34671345933E+02 -0.27246646081E+02  0.28782749017E+02  0.52658604163E+02  0.00000000000E+00 0. -1.
<mgrwt>
<rscale>  0 0.91903498E+02</rscale>
<asrwt>0</asrwt>
<pdfrwt beam="2">  1        2 0.28667941E-02 0.91903498E+02</pdfrwt>
<pdfrwt beam="1">  1       -2 0.17433351E-01 0.91903498E+02</pdfrwt>
<totfact> 0.75295525E+04</totfact>
</mgrwt>
</event>
<event>
 5    1  0.6113696E+000  0.9056314E+02  0.7546771E-02  0.1301494E+00
          1   -1    0    0  501    0  0.00000000000E+00  0.00000000000E+00  0.17837135930E+03  0.17837135930E+03  0.00000000000E+00 0. -1.
         -1   -1    0    0    0  501 -0.00000000000E+00 -0.00000000000E+00 -0.11495234448E+02  0.11495234448E+02  0.00000000000E+00 0.  1.
         23    2    1    2    0    0  0.00000000000E+00  0.00000000000E+00  0.16687612485E+03  0.18986659375E+03  0.90563140272E+02 0.  0.
        -13    1    3    3    0    0 -0.34963366741E+02  0.22191710437E+02  0.45036328406E+02  0.61181532363E+02  0.00000000000E+00 0.  1.
         13    1    3    3    0    0  0.34963366741E+02 -0.22191710437E+02  0.12183979644E+03  0.12868506138E+03  0.00000000000E+00 0. -1.
<mgrwt>
<rscale>  0 0.90563140E+02</rscale>
<asrwt>0</asrwt>
<pdfrwt beam="1">  1        1 0.27441746E-01 0.90563140E+02</pdfrwt>
<pdfrwt beam="2">  1       -1 0.17684977E-02 0.90563140E+02</pdfrwt>
<totfact> 0.11794457E+05</totfact>
</mgrwt>
</event>
<event>
 5    1  0.6113696E+000  0.9284072E+02  0.7546771E-02  0.1296115E+00
          2   -1    0    0  501    0  0.00000000000E+00  0.00000000000E+00  0.38298974435E+03  0.38298974435E+03  0.00000000000E+00 0.  1.
         -2   -1    0    0    0  501 -0.00000000000E+00 -0.00000000000E+00 -0.56263906530E+01  0.56263906530E+01  0.00000000000E+00 0. -1.
         23    2    1    2    0    0  0.00000000000E+00  0.00000000000E+00  0.37736335370E+03  0.38861613501E+03  0.92840722053E+02 0.  0.
        -13    1    3    3    0    0 -0.36030513492E+00  0.44734937466E+02  0.24054307771E+03  0.24466776798E+03  0.00000000000E+00 0.  1.
         13    1    3    3    0    0  0.36030513492E+00 -0.44734937466E+02  0.13682027599E+03  0.14394836703E+03  0.00000000000E+00 0. -1.
<mgrwt>
<rscale>  0 0.92840722E+02</rscale>
<asrwt>0</asrwt>
<pdfrwt beam="1">  1        2 0.58921479E-01 0.92840722E+02</pdfrwt>
<pdfrwt beam="2">  1       -2 0.86559886E-03 0.92840722E+02</pdfrwt>
<totfact> 0.18729719E+05</totfact>
</mgrwt>
</event>
<event>
 5    1  0.6113696E+000  0.9073164E+02  0.7546771E-02  0.1301090E+00
         -2   -1    0    0    0  501 -0.00000000000E+00  0.00000000000E+00  0.14630606223E+02  0.14630606223E+02  0.00000000000E+00 0.  1.
          2   -1    0    0  501    0  0.00000000000E+00 -0.00000000000E+00 -0.14066795457E+03  0.14066795457E+03  0.00000000000E+00 0. -1.
         23    2    1    2    0    0  0.00000000000E+00  0.00000000000E+00 -0.12603734835E+03  0.15529856079E+03  0.90731636191E+02 0.  0.
        -13    1    3    3    0    0  0.12156263930E+02 -0.22502687782E+02 -0.12715123642E+03  0.12969804406E+03  0.00000000000E+00 0. -1.
         13    1    3    3    0    0 -0.12156263930E+02  0.22502687782E+02  0.11138880760E+01  0.25600516729E+02  0.00000000000E+00 0.  1.
<mgrwt>
<rscale>  0 0.90731636E+02</rscale>
<asrwt>0</asrwt>
<pdfrwt beam="2">  1        2 0.21641224E-01 0.90731636E+02</pdfrwt>
<pdfrwt beam="1">  1       -2 0.22508624E-02 0.90731636E+02</pdfrwt>
<totfact> 0.13864339E+05</totfact>
</mgrwt>
</event>
<event>
 5    1  0.6113696E+000  0.1025037E+03  0.7546771E-02  0.1275117E+00
          2   -1    0    0  501    0  0.00000000000E+00  0.00000000000E+00  0.21893539486E+03  0.21893539486E+03  0.00000000000E+00 0. -1.
         -2   -1    0    0    0  501 -0.00000000000E+00 -0.00000000000E+00 -0.11997840463E+02  0.11997840463E+02  0.00000000000E+00 0.  1.
         23    2    1    2    0    0  0.00000000000E+00  0.00000000000E+00  0.20693755439E+03  0.23093323532E+03  0.10250369631E+03 0.  0.
        -13    1    3    3    0    0  0.21412571336E+02 -0.29115112591E+02  0.18533912430E+03  0.18883002671E+03  0.00000000000E+00 0. -1.
         13    1    3    3    0    0 -0.21412571336E+02  0.29115112591E+02  0.21598430093E+02  0.42103208605E+02  0.00000000000E+00 0.  1.
<mgrwt>
<rscale>  0 0.10250370E+03</rscale>
<asrwt>0</asrwt>
<pdfrwt beam="1">  1        2 0.33682365E-01 0.10250370E+03</pdfrwt>
<pdfrwt beam="2">  1       -2 0.18458218E-02 0.10250370E+03</pdfrwt>
<totfact> 0.11643799E+05</totfact>
</mgrwt>
</event>
<event>
 5    1  0.6113696E+000  0.9357130E+02  0.7546771E-02  0.1294427E+00
          2   -1    0    0  501    0  0.00000000000E+00  0.00000000000E+00  0.86571363191E+02  0.86571363191E+02  0.00000000000E+00 0. -1.
         -2   -1    0    0    0  501 -0.00000000000E+00 -0.00000000000E+00 -0.25284308158E+02  0.25284308158E+02  0.00000000000E+00 0.  1.
         23    2    1    2    0    0  0.00000000000E+00  0.00000000000E+00  0.61287055032E+02  0.11185567135E+03  0.93571299545E+02 0.  0.
        -13    1    3    3    0    0 -0.12529886998E+02  0.43260230998E+02  0.15501394288E+02  0.47631280469E+02  0.00000000000E+00 0.  1.
         13    1    3    3    0    0  0.12529886998E+02 -0.43260230998E+02  0.45785660745E+02  0.64224390881E+02  0.00000000000E+00 0. -1.
<mgrwt>
<rscale>  0 0.93571300E+02</rscale>
<asrwt>0</asrwt>
<pdfrwt beam="1">  1        2 0.13318671E-01 0.93571300E+02</pdfrwt>
<pdfrwt beam="2">  1       -2 0.38898936E-02 0.93571300E+02</pdfrwt>
<totfact> 0.10934495E+05</totfact>
</mgrwt>
</event>
<event>
 5    1  0.6113696E+000  0.8884447E+02  0.7546771E-02  0.1305674E+00
         -1   -1    0    0    0  501 -0.00000000000E+00  0.00000000000E+00  0.35072894258E+02  0.35072894258E+02  0.00000000000E+00 0.  1.
          1   -1    0    0  501    0  0.00000000000E+00 -0.00000000000E+00 -0.56263820578E+02  0.56263820578E+02  0.00000000000E+00 0. -1.
         23    2    1    2    0    0  0.00000000000E+00  0.00000000000E+00 -0.21190926320E+02  0.91336714836E+02  0.88844471515E+02 0.  0.
        -13    1    3    3    0    0  0.32861334933E+02  0.29005191212E+02 -0.18020714464E+02  0.47391081446E+02  0.00000000000E+00 0.  1.
         13    1    3    3    0    0 -0.32861334933E+02 -0.29005191212E+02 -0.31702118556E+01  0.43945633390E+02  0.00000000000E+00 0. -1.
<mgrwt>
<rscale>  0 0.88844472E+02</rscale>
<asrwt>0</asrwt>
<pdfrwt beam="2">  1        1 0.86559723E-02 0.88844472E+02</pdfrwt>
<pdfrwt beam="1">  1       -1 0.53958300E-02 0.88844472E+02</pdfrwt>
<totfact> 0.10255157E+05</totfact>
</mgrwt>
</event>
<event>
 5    1  0.6113696E+000  0.8438504E+02  0.7546771E-02  0.1317049E+00
         -1   -1    0    0    0  501 -0.00000000000E+00  0.00000000000E+00  0.32566444637E+02  0.32566444637E+02  0.00000000000E+00 0.  1.
          1   -1    0    0  501    0  0.00000000000E+00 -0.00000000000E+00 -0.54663895567E+02  0.54663895567E+02  0.00000000000E+00 0. -1.
         23    2    1    2    0    0  0.00000000000E+00  0.00000000000E+00 -0.22097450930E+02  0.87230340203E+02  0.84385039636E+02 0.  0.
        -13    1    3    3    0    0 -0.17594852688E+02 -0.35039182168E+02  0.50615509411E+01  0.39534066652E+02  0.00000000000E+00 0.  1.
         13    1    3    3    0    0  0.17594852688E+02  0.35039182168E+02 -0.27159001871E+02  0.47696273552E+02  0.00000000000E+00 0. -1.
<mgrwt>
<rscale>  0 0.84385040E+02</rscale>
<asrwt>0</asrwt>
<pdfrwt beam="2">  1        1 0.84098301E-02 0.84385040E+02</pdfrwt>
<pdfrwt beam="1">  1       -1 0.50102223E-02 0.84385040E+02</pdfrwt>
<totfact> 0.11771462E+05</totfact>
</mgrwt>
</event>
<event>
 5    1  0.6113696E+000  0.9241034E+02  0.7546771E-02  0.1297118E+00
          1   -1    0    0  501    0  0.00000000000E+00  0.00000000000E+00  0.36770728605E+03  0.36770728605E+03  0.00000000000E+00 0. -1.
         -1   -1    0    0    0  501 -0.00000000000E+00 -0.00000000000E+00 -0.58060246355E+01  0.58060246355E+01  0.00000000000E+00 0.  1.
         23    2    1    2    0    0  0.00000000000E+00  0.00000000000E+00  0.36190126141E+03  0.37351331069E+03  0.92410336250E+02 0.  0.
        -13    1    3    3    0    0 -0.43773149477E+02 -0.14784020257E+02  0.17888296545E+03  0.18475327115E+03  0.00000000000E+00 0.  1.
         13    1    3    3    0    0  0.43773149477E+02  0.14784020257E+02  0.18301829596E+03  0.18876003954E+03  0.00000000000E+00 0. -1.
<mgrwt>
<rscale>  0 0.92410336E+02</rscale>
<asrwt>0</asrwt>
<pdfrwt beam="1">  1        1 0.56570334E-01 0.92410336E+02</pdfrwt>
<pdfrwt beam="2">  1       -1 0.89323484E-03 0.92410336E+02</pdfrwt>
<totfact> 0.12831129E+05</totfact>
</mgrwt>
</event>
<event>
 5    1  0.6113696E+000  0.9257142E+02  0.7546771E-02  0.1296741E+00
          3   -1    0    0  501    0  0.00000000000E+00  0.00000000000E+00  0.12185515210E+03  0.12185515210E+03  0.00000000000E+00 0. -1.
         -3   -1    0    0    0  501 -0.00000000000E+00 -0.00000000000E+00 -0.17581257217E+02  0.17581257217E+02  0.00000000000E+00 0.  1.
         23    2    1    2    0    0  0.00000000000E+00  0.00000000000E+00  0.10427389488E+03  0.13943640931E+03  0.92571416156E+02 0.  0.
        -13    1    3    3    0    0  0.43186511365E+02  0.11059512293E+02  0.33385448703E+02  0.55695383661E+02  0.00000000000E+00 0.  1.
         13    1    3    3    0    0 -0.43186511365E+02 -0.11059512293E+02  0.70888446176E+02  0.83741025652E+02  0.00000000000E+00 0. -1.
<mgrwt>
<rscale>  0 0.92571416E+02</rscale>
<asrwt>0</asrwt>
<pdfrwt beam="1">  1        3 0.18746946E-01 0.92571416E+02</pdfrwt>
<pdfrwt beam="2">  1       -3 0.27048089E-02 0.92571416E+02</pdfrwt>
<totfact> 0.30674478E+04</totfact>
</mgrwt>
</event>
<event>
 5    1  0.6113696E+000  0.9373534E+02  0.7546771E-02  0.1294050E+00
          3   -1    0    0  501    0  0.00000000000E+00  0.00000000000E+00  0.38214668452E+02  0.38214668452E+02  0.00000000000E+00 0. -1.
         -3   -1    0    0    0  501 -0.00000000000E+00 -0.00000000000E+00 -0.57479986405E+02  0.57479986405E+02  0.00000000000E+00 0.  1.
         23    2    1    2    0    0  0.00000000000E+00  0.00000000000E+00 -0.19265317953E+02  0.95694654857E+02  0.93735342813E+02 0.  0.
        -13    1    3    3    0    0 -0.42211816984E+02 -0.30174581531E+01  0.10928736905E+02  0.43707892161E+02  0.00000000000E+00 0. -1.
         13    1    3    3    0    0  0.42211816984E+02  0.30174581531E+01 -0.30194054858E+02  0.51986762696E+02  0.00000000000E+00 0.  1.
<mgrwt>
<rscale>  0 0.93735343E+02</rscale>
<asrwt>0</asrwt>
<pdfrwt beam="1">  1        3 0.58791798E-02 0.93735343E+02</pdfrwt>
<pdfrwt beam="2">  1       -3 0.88430748E-02 0.93735343E+02</pdfrwt>
<totfact> 0.32447150E+04</totfact>
</mgrwt>
</event>
<event>
 5    1  0.6113696E+000  0.8949761E+02  0.7546771E-02  0.1304073E+00
         -2   -1    0    0    0  501 -0.00000000000E+00  0.00000000000E+00  0.62211540146E+02  0.62211540146E+02  0.00000000000E+00 0.  1.
          2   -1    0    0  501    0  0.00000000000E+00 -0.00000000000E+00 -0.32187848211E+02  0.32187848211E+02  0.00000000000E+00 0. -1.
         23    2    1    2    0    0  0.00000000000E+00  0.00000000000E+00  0.30023691934E+02  0.94399388357E+02  0.89497611392E+02 0.  0.
        -13    1    3    3    0    0 -0.97658516244E+01  0.43666285232E+02  0.15626232251E+02  0.47395099518E+02  0.00000000000E+00 0.  1.
         13    1    3    3    0    0  0.97658516244E+01 -0.43666285232E+02  0.14397459683E+02  0.47004288839E+02  0.00000000000E+00 0. -1.
<mgrwt>
<rscale>  0 0.89497611E+02</rscale>
<asrwt>0</asrwt>
<pdfrwt beam="2">  1        2 0.49519767E-02 0.89497611E+02</pdfrwt>
<pdfrwt beam="1">  1       -2 0.95710061E-02 0.89497611E+02</pdfrwt>
<totfact> 0.95197677E+04</totfact>
</mgrwt>
</event>
<event>
 5    1  0.6113696E+000  0.1116466E+03  0.7546771E-02  0.1257551E+00
          2   -1    0    0  501    0  0.00000000000E+00  0.00000000000E+00  0.38982604640E+02  0.38982604640E+02  0.00000000000E+00 0. -1.
         -2   -1    0    0    0  501 -0.00000000000E+00 -0.00000000000E+00 -0.79939301313E+02  0.79939301313E+02  0.00000000000E+00 0.  1.
         23    2    1    2    0    0  0.00000000000E+00  0.00000000000E+00 -0.40956696673E+02  0.11892190595E+03  0.11164662428E+03 0.  0.
        -13    1    3    3    0    0  0.29067225686E+02 -0.45658690081E+02 -0.35029533597E+02  0.64472380233E+02  0.00000000000E+00 0.  1.
         13    1    3    3    0    0 -0.29067225686E+02  0.45658690081E+02 -0.59271630761E+01  0.54449525719E+02  0.00000000000E+00 0. -1.
<mgrwt>
<rscale>  0 0.11164662E+03</rscale>
<asrwt>0</asrwt>
<pdfrwt beam="1">  1        2 0.59973239E-02 0.11164662E+03</pdfrwt>
<pdfrwt beam="2">  1       -2 0.12298354E-01 0.11164662E+03</pdfrwt>
<totfact> 0.51879541E+04</totfact>
</mgrwt>
</event>
<event>
 5    1  0.6113696E+000  0.9183964E+02  0.7546771E-02  0.1298457E+00
         -1   -1    0    0    0  501 -0.00000000000E+00  0.00000000000E+00  0.13286883062E+03  0.13286883062E+03  0.00000000000E+00 0.  1.
          1   -1    0    0  501    0  0.00000000000E+00 -0.00000000000E+00 -0.15870011114E+02  0.15870011114E+02  0.00000000000E+00 0. -1.
         23    2    1    2    0    0  0.00000000000E+00  0.00000000000E+00  0.11699881951E+03  0.14873884173E+03  0.91839638908E+02 0.  0.
        -13    1    3    3    0    0 -0.24406489589E+02 -0.16644332467E+02  0.11543571505E+03  0.11915584268E+03  0.00000000000E+00 0.  1.
         13    1    3    3    0    0  0.24406489589E+02  0.16644332467E+02  0.15631044600E+01  0.29582999052E+02  0.00000000000E+00 0. -1.
<mgrwt>
<rscale>  0 0.91839639E+02</rscale>
<asrwt>0</asrwt>
<pdfrwt beam="2">  1        1 0.24415403E-02 0.91839639E+02</pdfrwt>
<pdfrwt beam="1">  1       -1 0.20441358E-01 0.91839639E+02</pdfrwt>
<totfact> 0.75431667E+04</totfact>
</mgrwt>
</event>
<event>
 5    1  0.6113696E+000  0.8780295E+02  0.7546771E-02  0.1308261E+00
         -1   -1    0    0    0  501 -0.00000000000E+00  0.00000000000E+00  0.10452921940E+02  0.10452921940E+02  0.00000000000E+00 0.  1.
          1   -1    0    0  501    0  0.00000000000E+00 -0.00000000000E+00 -0.18438284871E+03  0.18438284871E+03  0.00000000000E+00 0. -1.
         23    2    1    2    0    0  0.00000000000E+00  0.00000000000E+00 -0.17392992677E+03  0.19483577065E+03  0.87802950396E+02 0.  0.
        -13    1    3    3    0    0 -0.42469486870E+02  0.89989693022E+01 -0.10146527689E+03  0.11036231774E+03  0.00000000000E+00 0. -1.
         13    1    3    3    0    0  0.42469486870E+02 -0.89989693022E+01 -0.72464649879E+02  0.84473452904E+02  0.00000000000E+00 0.  1.
<mgrwt>
<rscale>  0 0.87802950E+02</rscale>
<asrwt>0</asrwt>
<pdfrwt beam="2">  1        1 0.28366593E-01 0.87802950E+02</pdfrwt>
<pdfrwt beam="1">  1       -1 0.16081418E-02 0.87802950E+02</pdfrwt>
<totfact> 0.12894933E+05</totfact>
</mgrwt>
</event>
<event>
 5    1  0.6113696E+000  0.9144283E+02  0.7546771E-02  0.1299395E+00
          3   -1    0    0  501    0  0.00000000000E+00  0.00000000000E+00  0.37195331815E+02  0.37195331815E+02  0.00000000000E+00 0. -1.
         -3   -1    0    0    0  501 -0.00000000000E+00 -0.00000000000E+00 -0.56201883828E+02  0.56201883828E+02  0.00000000000E+00 0.  1.
         23    2    1    2    0    0  0.00000000000E+00  0.00000000000E+00 -0.19006552013E+02  0.93397215643E+02  0.91442828425E+02 0.  0.
        -13    1    3    3    0    0  0.14901353622E+02  0.42374995079E+02 -0.18215362477E+02  0.48471537812E+02  0.00000000000E+00 0. -1.
         13    1    3    3    0    0 -0.14901353622E+02 -0.42374995079E+02 -0.79118953590E+00  0.44925677831E+02  0.00000000000E+00 0.  1.
<mgrwt>
<rscale>  0 0.91442828E+02</rscale>
<asrwt>0</asrwt>
<pdfrwt beam="1">  1        3 0.57223588E-02 0.91442828E+02</pdfrwt>
<pdfrwt beam="2">  1       -3 0.86464436E-02 0.91442828E+02</pdfrwt>
<totfact> 0.34890969E+04</totfact>
</mgrwt>
</event>
<event>
 5    1  0.6113696E+000  0.9707339E+02  0.7546771E-02  0.1286573E+00
         -4   -1    0    0    0  501 -0.00000000000E+00  0.00000000000E+00  0.65499803317E+02  0.65499803317E+02  0.00000000000E+00 0. -1.
          4   -1    0    0  501    0  0.00000000000E+00 -0.00000000000E+00 -0.35966685139E+02  0.35966685139E+02  0.00000000000E+00 0.  1.
         23    2    1    2    0    0  0.00000000000E+00  0.00000000000E+00  0.29533118178E+02  0.10146648846E+03  0.97073390846E+02 0.  0.
        -13    1    3    3    0    0 -0.16574162961E+02 -0.21906469175E+02 -0.27059523637E+02  0.38559228325E+02  0.00000000000E+00 0.  1.
         13    1    3    3    0    0  0.16574162961E+02  0.21906469175E+02  0.56592641815E+02  0.62907260131E+02  0.00000000000E+00 0. -1.
<mgrwt>
<rscale>  0 0.97073391E+02</rscale>
<asrwt>0</asrwt>
<pdfrwt beam="2">  1        4 0.55333362E-02 0.97073391E+02</pdfrwt>
<pdfrwt beam="1">  1       -4 0.10076893E-01 0.97073391E+02</pdfrwt>
<totfact> 0.22227536E+04</totfact>
</mgrwt>
</event>
<event>
 5    1  0.6113696E+000  0.5692897E+02  0.7546771E-02  0.1411191E+00
         -1   -1    0    0    0  501 -0.00000000000E+00  0.00000000000E+00  0.84320403585E+01  0.84320403585E+01  0.00000000000E+00 0.  1.
          1   -1    0    0  501    0  0.00000000000E+00 -0.00000000000E+00 -0.96089061393E+02  0.96089061393E+02  0.00000000000E+00 0. -1.
         23    2    1    2    0    0  0.00000000000E+00  0.00000000000E+00 -0.87657021035E+02  0.10452110175E+03  0.56928967799E+02 0.  0.
        -13    1    3    3    0    0 -0.25842535178E+02 -0.28449297319E+01 -0.22551864478E+02  0.34416810443E+02  0.00000000000E+00 0.  1.
         13    1    3    3    0    0  0.25842535178E+02  0.28449297319E+01 -0.65105156557E+02  0.70104291309E+02  0.00000000000E+00 0. -1.
<mgrwt>
<rscale>  0 0.56928968E+02</rscale>
<asrwt>0</asrwt>
<pdfrwt beam="2">  1        1 0.14782933E-01 0.56928968E+02</pdfrwt>
<pdfrwt beam="1">  1       -1 0.12972370E-02 0.56928968E+02</pdfrwt>
<totfact> 0.36087609E+05</totfact>
</mgrwt>
</event>
<event>
 5    1  0.6113696E+000  0.9144984E+02  0.7546771E-02  0.1299378E+00
         -1   -1    0    0    0  501 -0.00000000000E+00  0.00000000000E+00  0.19570042649E+03  0.19570042649E+03  0.00000000000E+00 0.  1.
          1   -1    0    0  501    0  0.00000000000E+00 -0.00000000000E+00 -0.10683515044E+02  0.10683515044E+02  0.00000000000E+00 0. -1.
         23    2    1    2    0    0  0.00000000000E+00  0.00000000000E+00  0.18501691145E+03  0.20638394154E+03  0.91449843097E+02 0.  0.
        -13    1    3    3    0    0 -0.32780764635E+02  0.20447212602E+02  0.14770099222E+03  0.15267039705E+03  0.00000000000E+00 0.  1.
         13    1    3    3    0    0  0.32780764635E+02 -0.20447212602E+02  0.37315919226E+02  0.53713544483E+02  0.00000000000E+00 0. -1.
<mgrwt>
<rscale>  0 0.91449843E+02</rscale>
<asrwt>0</asrwt>
<pdfrwt beam="2">  1        1 0.16436179E-02 0.91449843E+02</pdfrwt>
<pdfrwt beam="1">  1       -1 0.30107755E-01 0.91449843E+02</pdfrwt>
<totfact> 0.69311729E+04</totfact>
</mgrwt>
</event>
<event>
 5    1  0.6113696E+000  0.9365427E+02  0.7546771E-02  0.1294236E+00
         -1   -1    0    0    0  501 -0.00000000000E+00  0.00000000000E+00  0.74856890314E+02  0.74856890314E+02  0.00000000000E+00 0.  1.
          1   -1    0    0  501    0  0.00000000000E+00 -0.00000000000E+00 -0.29292966270E+02  0.29292966270E+02  0.00000000000E+00 0. -1.
         23    2    1    2    0    0  0.00000000000E+00  0.00000000000E+00  0.45563924044E+02  0.10414985658E+03  0.93654265531E+02 0.  0.
        -13    1    3    3    0    0  0.32864334046E+02 -0.30141422447E+02  0.38673656823E+02  0.59027294801E+02  0.00000000000E+00 0.  1.
         13    1    3    3    0    0 -0.32864334046E+02  0.30141422447E+02  0.68902672203E+01  0.45122561783E+02  0.00000000000E+00 0. -1.
<mgrwt>
<rscale>  0 0.93654266E+02</rscale>
<asrwt>0</asrwt>
<pdfrwt beam="2">  1        1 0.45066102E-02 0.93654266E+02</pdfrwt>
<pdfrwt beam="1">  1       -1 0.11516445E-01 0.93654266E+02</pdfrwt>
<totfact> 0.79922734E+04</totfact>
</mgrwt>
</event>
<event>
 5    1  0.6113696E+000  0.8825737E+02  0.7546771E-02  0.1307127E+00
         -4   -1    0    0    0  501 -0.00000000000E+00  0.00000000000E+00  0.17960013623E+02  0.17960013623E+02  0.00000000000E+00 0.  1.
          4   -1    0    0  501    0  0.00000000000E+00 -0.00000000000E+00 -0.10842647534E+03  0.10842647534E+03  0.00000000000E+00 0. -1.
         23    2    1    2    0    0  0.00000000000E+00  0.00000000000E+00 -0.90466461721E+02  0.12638648897E+03  0.88257373047E+02 0.  0.
        -13    1    3    3    0    0 -0.10741691496E+02  0.34366543194E+02 -0.81767972182E+02  0.89344526985E+02  0.00000000000E+00 0. -1.
         13    1    3    3    0    0  0.10741691496E+02 -0.34366543194E+02 -0.86984895388E+01  0.37041961983E+02  0.00000000000E+00 0.  1.
<mgrwt>
<rscale>  0 0.88257373E+02</rscale>
<asrwt>0</asrwt>
<pdfrwt beam="2">  1        4 0.16680996E-01 0.88257373E+02</pdfrwt>
<pdfrwt beam="1">  1       -4 0.27630790E-02 0.88257373E+02</pdfrwt>
<totfact> 0.27193498E+04</totfact>
</mgrwt>
</event>
<event>
 5    1  0.6113696E+000  0.8717805E+02  0.7546771E-02  0.1309833E+00
         -2   -1    0    0    0  501 -0.00000000000E+00  0.00000000000E+00  0.10921646579E+02  0.10921646579E+02  0.00000000000E+00 0.  1.
          2   -1    0    0  501    0  0.00000000000E+00 -0.00000000000E+00 -0.17396671847E+03  0.17396671847E+03  0.00000000000E+00 0. -1.
         23    2    1    2    0    0  0.00000000000E+00  0.00000000000E+00 -0.16304507189E+03  0.18488836505E+03  0.87178048054E+02 0.  0.
        -13    1    3    3    0    0 -0.21131377054E+02  0.30141794591E+02 -0.32014369762E+02  0.48785066861E+02  0.00000000000E+00 0.  1.
         13    1    3    3    0    0  0.21131377054E+02 -0.30141794591E+02 -0.13103070213E+03  0.13610329819E+03  0.00000000000E+00 0. -1.
<mgrwt>
<rscale>  0 0.87178048E+02</rscale>
<asrwt>0</asrwt>
<pdfrwt beam="2">  1        2 0.26764110E-01 0.87178048E+02</pdfrwt>
<pdfrwt beam="1">  1       -2 0.16802533E-02 0.87178048E+02</pdfrwt>
<totfact> 0.16605454E+05</totfact>
</mgrwt>
</event>
<event>
 5    1  0.6113696E+000  0.9256577E+02  0.7546771E-02  0.1296755E+00
         -2   -1    0    0    0  501 -0.00000000000E+00  0.00000000000E+00  0.26836664883E+02  0.26836664883E+02  0.00000000000E+00 0.  1.
          2   -1    0    0  501    0  0.00000000000E+00 -0.00000000000E+00 -0.79820104873E+02  0.79820104873E+02  0.00000000000E+00 0. -1.
         23    2    1    2    0    0  0.00000000000E+00  0.00000000000E+00 -0.52983439991E+02  0.10665676976E+03  0.92565769167E+02 0.  0.
        -13    1    3    3    0    0 -0.12725158279E+02  0.44465820880E+02 -0.28476270085E+02  0.54314241574E+02  0.00000000000E+00 0.  1.
         13    1    3    3    0    0  0.12725158279E+02 -0.44465820880E+02 -0.24507169905E+02  0.52342528182E+02  0.00000000000E+00 0. -1.
<mgrwt>
<rscale>  0 0.92565769E+02</rscale>
<asrwt>0</asrwt>
<pdfrwt beam="2">  1        2 0.12280016E-01 0.92565769E+02</pdfrwt>
<pdfrwt beam="1">  1       -2 0.41287177E-02 0.92565769E+02</pdfrwt>
<totfact> 0.11004843E+05</totfact>
</mgrwt>
</event>
<event>
 5    1  0.6113696E+000  0.1152094E+03  0.7546771E-02  0.1251216E+00
          2   -1    0    0  501    0  0.00000000000E+00  0.00000000000E+00  0.46427112047E+03  0.46427112047E+03  0.00000000000E+00 0. -1.
         -2   -1    0    0    0  501 -0.00000000000E+00 -0.00000000000E+00 -0.71473374565E+01  0.71473374565E+01  0.00000000000E+00 0.  1.
         23    2    1    2    0    0  0.00000000000E+00  0.00000000000E+00  0.45712378301E+03  0.47141845792E+03  0.11520941575E+03 0.  0.
        -13    1    3    3    0    0 -0.37472246970E+02 -0.40888492862E+02  0.16487306387E+03  0.17395161779E+03  0.00000000000E+00 0.  1.
         13    1    3    3    0    0  0.37472246970E+02  0.40888492862E+02  0.29225071914E+03  0.29746684013E+03  0.00000000000E+00 0. -1.
<mgrwt>
<rscale>  0 0.11520942E+03</rscale>
<asrwt>0</asrwt>
<pdfrwt beam="1">  1        2 0.71426303E-01 0.11520942E+03</pdfrwt>
<pdfrwt beam="2">  1       -2 0.10995907E-02 0.11520942E+03</pdfrwt>
<totfact> 0.11225662E+05</totfact>
</mgrwt>
</event>
<event>
 5    1  0.6113696E+000  0.9398647E+02  0.7546771E-02  0.1293475E+00
         -1   -1    0    0    0  501 -0.00000000000E+00  0.00000000000E+00  0.42550036997E+02  0.42550036997E+02  0.00000000000E+00 0.  1.
          1   -1    0    0  501    0  0.00000000000E+00 -0.00000000000E+00 -0.51900400213E+02  0.51900400213E+02  0.00000000000E+00 0. -1.
         23    2    1    2    0    0  0.00000000000E+00  0.00000000000E+00 -0.93503632152E+01  0.94450437210E+02  0.93986466031E+02 0.  0.
        -13    1    3    3    0    0  0.13075972069E+02  0.44896168145E+02  0.79726612004E-02  0.46761597740E+02  0.00000000000E+00 0.  1.
         13    1    3    3    0    0 -0.13075972069E+02 -0.44896168145E+02 -0.93583358764E+01  0.47688839470E+02  0.00000000000E+00 0. -1.
<mgrwt>
<rscale>  0 0.93986466E+02</rscale>
<asrwt>0</asrwt>
<pdfrwt beam="2">  1        1 0.79846770E-02 0.93986466E+02</pdfrwt>
<pdfrwt beam="1">  1       -1 0.65461595E-02 0.93986466E+02</pdfrwt>
<totfact> 0.86608815E+04</totfact>
</mgrwt>
</event>
<event>
 5    1  0.6113696E+000  0.9335137E+02  0.7546771E-02  0.1294933E+00
          1   -1    0    0  501    0  0.00000000000E+00  0.00000000000E+00  0.12344070041E+03  0.12344070041E+03  0.00000000000E+00 0. -1.
         -1   -1    0    0    0  501 -0.00000000000E+00 -0.00000000000E+00 -0.17649118968E+02  0.17649118968E+02  0.00000000000E+00 0.  1.
         23    2    1    2    0    0  0.00000000000E+00  0.00000000000E+00  0.10579158144E+03  0.14108981938E+03  0.93351370789E+02 0.  0.
        -13    1    3    3    0    0  0.22200207954E+02  0.20184877606E+01  0.11487538570E+03  0.11701827963E+03  0.00000000000E+00 0. -1.
         13    1    3    3    0    0 -0.22200207954E+02 -0.20184877606E+01 -0.90838042637E+01  0.24071539751E+02  0.00000000000E+00 0.  1.
<mgrwt>
<rscale>  0 0.93351371E+02</rscale>
<asrwt>0</asrwt>
<pdfrwt beam="1">  1        1 0.18990876E-01 0.93351371E+02</pdfrwt>
<pdfrwt beam="2">  1       -1 0.27152491E-02 0.93351371E+02</pdfrwt>
<totfact> 0.10155710E+05</totfact>
</mgrwt>
</event>
