<event>
 4    1  0.4327903E+000  0.2160502E+03  0.7546771E-02  0.1136862E+00
         21   -1    0    0  501  502  0.00000000000E+00  0.00000000000E+00  0.27563979399E+03  0.27563979399E+03  0.00000000000E+00 0.  1.
         21   -1    0    0  502  503 -0.00000000000E+00 -0.00000000000E+00 -0.17800690424E+03  0.17800690424E+03  0.00000000000E+00 0.  1.
          6    1    1    2  501    0 -0.12937795056E+03  0.31702819751E+01  0.98857097025E+02  0.23759299319E+03  0.17300000000E+03 0.  1.
         -6    1    1    2    0  503  0.12937795056E+03 -0.31702819751E+01 -0.12242072773E+01  0.21605370504E+03  0.17300000000E+03 0.  1.
<mgrwt>
<rscale>  2 0.21605024E+03</rscale>
<asrwt>0</asrwt>
<pdfrwt beam="1">  1       21 0.42406122E-01 0.21605024E+03</pdfrwt>
<pdfrwt beam="2">  1       21 0.27385678E-01 0.21605024E+03</pdfrwt>
<totfact> 0.67340670E+04</totfact>
</mgrwt>
</event>
<event>
 4    1  0.4327903E+000  0.2454765E+03  0.7546771E-02  0.1116197E+00
         21   -1    0    0  503  502  0.00000000000E+00  0.00000000000E+00  0.42263463862E+03  0.42263463862E+03  0.00000000000E+00 0.  1.
         21   -1    0    0  501  503 -0.00000000000E+00 -0.00000000000E+00 -0.15244959877E+03  0.15244959877E+03  0.00000000000E+00 0.  1.
          6    1    1    2  501    0 -0.14275388724E+03  0.99754938743E+02  0.61925479383E+02  0.25316691159E+03  0.17300000000E+03 0.  1.
         -6    1    1    2    0  502  0.14275388724E+03 -0.99754938743E+02  0.20825956047E+03  0.32191732580E+03  0.17300000000E+03 0.  1.
<mgrwt>
<rscale>  2 0.24547652E+03</rscale>
<asrwt>0</asrwt>
<pdfrwt beam="1">  1       21 0.65020713E-01 0.24547652E+03</pdfrwt>
<pdfrwt beam="2">  1       21 0.23453785E-01 0.24547652E+03</pdfrwt>
<totfact> 0.36303059E+04</totfact>
</mgrwt>
</event>
<event>
 4    1  0.4327903E+000  0.3454243E+03  0.7546771E-02  0.1064509E+00
         21   -1    0    0  501  502  0.00000000000E+00  0.00000000000E+00  0.33414234984E+03  0.33414234984E+03  0.00000000000E+00 0.  1.
         21   -1    0    0  502  503 -0.00000000000E+00 -0.00000000000E+00 -0.45850933481E+03  0.45850933481E+03  0.00000000000E+00 0. -1.
          6    1    1    2  501    0 -0.10863710866E+03  0.27854429456E+03  0.12421600738E+03  0.36707977593E+03  0.17300000000E+03 0. -1.
         -6    1    1    2    0  503  0.10863710866E+03 -0.27854429456E+03 -0.24858299235E+03  0.42557190872E+03  0.17300000000E+03 0.  1.
<mgrwt>
<rscale>  2 0.34542430E+03</rscale>
<asrwt>0</asrwt>
<pdfrwt beam="1">  1       21 0.51406515E-01 0.34542430E+03</pdfrwt>
<pdfrwt beam="2">  1       21 0.70539898E-01 0.34542430E+03</pdfrwt>
<totfact> 0.60079230E+03</totfact>
</mgrwt>
</event>
<event>
 4    1  0.4327903E+000  0.2401958E+03  0.7546771E-02  0.1119662E+00
         21   -1    0    0  503  502  0.00000000000E+00  0.00000000000E+00  0.63506902809E+02  0.63506902809E+02  0.00000000000E+00 0. -1.
         21   -1    0    0  501  503 -0.00000000000E+00 -0.00000000000E+00 -0.10004852191E+04  0.10004852191E+04  0.00000000000E+00 0.  1.
          6    1    1    2  501    0  0.15667029852E+03  0.56740003231E+02 -0.30715109678E+03  0.38991769216E+03  0.17300000000E+03 0. -1.
         -6    1    1    2    0  502 -0.15667029852E+03 -0.56740003231E+02 -0.62982721949E+03  0.67407442973E+03  0.17300000000E+03 0.  1.
<mgrwt>
<rscale>  2 0.24019578E+03</rscale>
<asrwt>0</asrwt>
<pdfrwt beam="1">  1       21 0.97702934E-02 0.24019578E+03</pdfrwt>
<pdfrwt beam="2">  1       21 0.15392079E+00 0.24019578E+03</pdfrwt>
<totfact> 0.22923860E+04</totfact>
</mgrwt>
</event>
<event>
 4    1  0.4327903E+000  0.1806192E+03  0.7546771E-02  0.1167205E+00
         21   -1    0    0  503  502  0.00000000000E+00  0.00000000000E+00  0.16858362859E+03  0.16858362859E+03  0.00000000000E+00 0. -1.
         21   -1    0    0  501  503 -0.00000000000E+00 -0.00000000000E+00 -0.19657571840E+03  0.19657571840E+03  0.00000000000E+00 0.  1.
          6    1    1    2  501    0  0.50416019311E+02  0.12349922144E+02  0.87899887051E+01  0.18083296016E+03  0.17300000000E+03 0. -1.
         -6    1    1    2    0  502 -0.50416019311E+02 -0.12349922144E+02 -0.36782078513E+02  0.18432638682E+03  0.17300000000E+03 0.  1.
<mgrwt>
<rscale>  2 0.18061920E+03</rscale>
<asrwt>0</asrwt>
<pdfrwt beam="1">  1       21 0.25935943E-01 0.18061920E+03</pdfrwt>
<pdfrwt beam="2">  1       21 0.30242418E-01 0.18061920E+03</pdfrwt>
<totfact> 0.14868069E+05</totfact>
</mgrwt>
</event>
<event>
 4    1  0.4327903E+000  0.2842292E+03  0.7546771E-02  0.1093401E+00
         21   -1    0    0  503  502  0.00000000000E+00  0.00000000000E+00  0.51408083114E+03  0.51408083114E+03  0.00000000000E+00 0. -1.
         21   -1    0    0  501  503 -0.00000000000E+00 -0.00000000000E+00 -0.33116381387E+03  0.33116381387E+03  0.00000000000E+00 0.  1.
          6    1    1    2  501    0 -0.17681264867E+03  0.13998054554E+03 -0.21489763047E+03  0.35632465175E+03  0.17300000000E+03 0.  1.
         -6    1    1    2    0  502  0.17681264867E+03 -0.13998054554E+03  0.39781464773E+03  0.48891999326E+03  0.17300000000E+03 0. -1.
<mgrwt>
<rscale>  2 0.28422925E+03</rscale>
<asrwt>0</asrwt>
<pdfrwt beam="1">  1       21 0.79089359E-01 0.28422925E+03</pdfrwt>
<pdfrwt beam="2">  1       21 0.50948279E-01 0.28422925E+03</pdfrwt>
<totfact> 0.48684684E+03</totfact>
</mgrwt>
</event>
<event>
 4    1  0.4327903E+000  0.2144998E+03  0.7546771E-02  0.1138051E+00
         21   -1    0    0  501  502  0.00000000000E+00  0.00000000000E+00  0.38965423980E+03  0.38965423980E+03  0.00000000000E+00 0.  1.
         21   -1    0    0  502  503 -0.00000000000E+00 -0.00000000000E+00 -0.15274631017E+03  0.15274631017E+03  0.00000000000E+00 0.  1.
          6    1    1    2  501    0 -0.10952477938E+03  0.63917726240E+02  0.24765384209E+03  0.32763177277E+03  0.17300000000E+03 0.  1.
         -6    1    1    2    0  503  0.10952477938E+03 -0.63917726240E+02 -0.10745912466E+02  0.21476877720E+03  0.17300000000E+03 0.  1.
<mgrwt>
<rscale>  2 0.21449977E+03</rscale>
<asrwt>0</asrwt>
<pdfrwt beam="1">  1       21 0.59946805E-01 0.21449977E+03</pdfrwt>
<pdfrwt beam="2">  1       21 0.23499433E-01 0.21449977E+03</pdfrwt>
<totfact> 0.43760683E+04</totfact>
</mgrwt>
</event>
<event>
 4    1  0.4327903E+000  0.1943748E+03  0.7546771E-02  0.1154574E+00
         21   -1    0    0  501  502  0.00000000000E+00  0.00000000000E+00  0.20744260326E+03  0.20744260326E+03  0.00000000000E+00 0.  1.
         21   -1    0    0  502  503 -0.00000000000E+00 -0.00000000000E+00 -0.19402949479E+03  0.19402949479E+03  0.00000000000E+00 0.  1.
          6    1    1    2  501    0  0.32578921552E+02 -0.82408646982E+02  0.56417424676E+02  0.20239688000E+03  0.17300000000E+03 0.  1.
         -6    1    1    2    0  503 -0.32578921552E+02  0.82408646982E+02 -0.43004316206E+02  0.19907521804E+03  0.17300000000E+03 0.  1.
<mgrwt>
<rscale>  2 0.19437482E+03</rscale>
<asrwt>0</asrwt>
<pdfrwt beam="1">  1       21 0.31914247E-01 0.19437482E+03</pdfrwt>
<pdfrwt beam="2">  1       21 0.29850691E-01 0.19437482E+03</pdfrwt>
<totfact> 0.10153370E+05</totfact>
</mgrwt>
</event>
<event>
 4    1  0.4327903E+000  0.2270808E+03  0.7546771E-02  0.1128711E+00
         21   -1    0    0  503  502  0.00000000000E+00  0.00000000000E+00  0.16576462236E+03  0.16576462236E+03  0.00000000000E+00 0. -1.
         21   -1    0    0  501  503 -0.00000000000E+00 -0.00000000000E+00 -0.39675570538E+03  0.39675570538E+03  0.00000000000E+00 0. -1.
          6    1    1    2  501    0 -0.12011080874E+03  0.84912283997E+02 -0.24619714882E+03  0.33493094577E+03  0.17300000000E+03 0. -1.
         -6    1    1    2    0  502  0.12011080874E+03 -0.84912283997E+02  0.15206065806E+02  0.22758938197E+03  0.17300000000E+03 0. -1.
<mgrwt>
<rscale>  2 0.22708083E+03</rscale>
<asrwt>0</asrwt>
<pdfrwt beam="1">  1       21 0.25502250E-01 0.22708083E+03</pdfrwt>
<pdfrwt beam="2">  1       21 0.61039339E-01 0.22708083E+03</pdfrwt>
<totfact> 0.35782615E+04</totfact>
</mgrwt>
</event>
<event>
 4    1  0.4327903E+000  0.1739411E+03  0.7546771E-02  0.1173799E+00
         21   -1    0    0  501  502  0.00000000000E+00  0.00000000000E+00  0.28245858227E+02  0.28245858227E+02  0.00000000000E+00 0.  1.
         21   -1    0    0  502  503 -0.00000000000E+00 -0.00000000000E+00 -0.13511464584E+04  0.13511464584E+04  0.00000000000E+00 0.  1.
          6    1    1    2  501    0 -0.38671600334E+01  0.17650827271E+02 -0.34748324337E+03  0.38858732745E+03  0.17300000000E+03 0.  1.
         -6    1    1    2    0  503  0.38671600334E+01 -0.17650827271E+02 -0.97541735681E+03  0.99080498919E+03  0.17300000000E+03 0.  1.
<mgrwt>
<rscale>  2 0.17394110E+03</rscale>
<asrwt>0</asrwt>
<pdfrwt beam="1">  1       21 0.43455161E-02 0.17394110E+03</pdfrwt>
<pdfrwt beam="2">  1       21 0.20786871E+00 0.17394110E+03</pdfrwt>
<totfact> 0.41345231E+04</totfact>
</mgrwt>
</event>
<event>
 4    1  0.4327903E+000  0.1919268E+03  0.7546771E-02  0.1156735E+00
         21   -1    0    0  503  502  0.00000000000E+00  0.00000000000E+00  0.15744961837E+03  0.15744961837E+03  0.00000000000E+00 0.  1.
         21   -1    0    0  501  503 -0.00000000000E+00 -0.00000000000E+00 -0.23509199987E+03  0.23509199987E+03  0.00000000000E+00 0. -1.
          6    1    1    2  501    0  0.78860345786E+02  0.26228655281E+02 -0.52479424852E+02  0.19897232604E+03  0.17300000000E+03 0.  1.
         -6    1    1    2    0  502 -0.78860345786E+02 -0.26228655281E+02 -0.25162956646E+02  0.19356929220E+03  0.17300000000E+03 0.  1.
<mgrwt>
<rscale>  2 0.19192680E+03</rscale>
<asrwt>0</asrwt>
<pdfrwt beam="1">  1       21 0.24223018E-01 0.19192680E+03</pdfrwt>
<pdfrwt beam="2">  1       21 0.36168000E-01 0.19192680E+03</pdfrwt>
<totfact> 0.11862470E+05</totfact>
</mgrwt>
</event>
<event>
 4    1  0.4327903E+000  0.2362491E+03  0.7546771E-02  0.1122317E+00
         21   -1    0    0  503  502  0.00000000000E+00  0.00000000000E+00  0.45261177494E+03  0.45261177494E+03  0.00000000000E+00 0.  1.
         21   -1    0    0  501  503 -0.00000000000E+00 -0.00000000000E+00 -0.10230595677E+04  0.10230595677E+04  0.00000000000E+00 0.  1.
          6    1    1    2  501    0 -0.36539593344E+02 -0.15668278884E+03 -0.97716463560E+03  0.10053180409E+04  0.17300000000E+03 0.  1.
         -6    1    1    2    0  502  0.36539593344E+02  0.15668278884E+03  0.40671684287E+03  0.47035330176E+03  0.17300000000E+03 0.  1.
<mgrwt>
<rscale>  2 0.23624910E+03</rscale>
<asrwt>0</asrwt>
<pdfrwt beam="1">  1       21 0.69632582E-01 0.23624910E+03</pdfrwt>
<pdfrwt beam="2">  1       21 0.15739378E+00 0.23624910E+03</pdfrwt>
<totfact> 0.47077070E+02</totfact>
</mgrwt>
</event>
<event>
 4    1  0.4327903E+000  0.1752678E+03  0.7546771E-02  0.1172463E+00
         21   -1    0    0  503  502  0.00000000000E+00  0.00000000000E+00  0.45413423678E+03  0.45413423678E+03  0.00000000000E+00 0. -1.
         21   -1    0    0  501  503 -0.00000000000E+00 -0.00000000000E+00 -0.18202486926E+03  0.18202486926E+03  0.00000000000E+00 0. -1.
          6    1    1    2  501    0  0.58317899747E+01  0.27491823435E+02 -0.11608998274E+03  0.21022771992E+03  0.17300000000E+03 0. -1.
         -6    1    1    2    0  502 -0.58317899747E+01 -0.27491823435E+02  0.38819935026E+03  0.42593138611E+03  0.17300000000E+03 0. -1.
<mgrwt>
<rscale>  2 0.17526782E+03</rscale>
<asrwt>0</asrwt>
<pdfrwt beam="1">  1       21 0.69866805E-01 0.17526782E+03</pdfrwt>
<pdfrwt beam="2">  1       21 0.28003826E-01 0.17526782E+03</pdfrwt>
<totfact> 0.22897160E+04</totfact>
</mgrwt>
</event>
<event>
 4    1  0.4327903E+000  0.1734943E+03  0.7546771E-02  0.1174252E+00
         21   -1    0    0  501  502  0.00000000000E+00  0.00000000000E+00  0.16770643324E+03  0.16770643324E+03  0.00000000000E+00 0. -1.
         21   -1    0    0  502  503 -0.00000000000E+00 -0.00000000000E+00 -0.61624559257E+03  0.61624559257E+03  0.00000000000E+00 0. -1.
          6    1    1    2  501    0  0.12937672983E+02 -0.19730037206E+01  0.10572425212E+03  0.20316961784E+03  0.17300000000E+03 0. -1.
         -6    1    1    2    0  503 -0.12937672983E+02  0.19730037206E+01 -0.55426341146E+03  0.58078240797E+03  0.17300000000E+03 0. -1.
<mgrwt>
<rscale>  2 0.17349431E+03</rscale>
<asrwt>0</asrwt>
<pdfrwt beam="1">  1       21 0.25800990E-01 0.17349431E+03</pdfrwt>
<pdfrwt beam="2">  1       21 0.94807013E-01 0.17349431E+03</pdfrwt>
<totfact> 0.13446624E+04</totfact>
</mgrwt>
</event>
<event>
 4    1  0.4327903E+000  0.3362356E+03  0.7546771E-02  0.1068411E+00
         21   -1    0    0  501  502  0.00000000000E+00  0.00000000000E+00  0.42045384984E+02  0.42045384984E+02  0.00000000000E+00 0.  1.
         21   -1    0    0  502  503 -0.00000000000E+00 -0.00000000000E+00 -0.27491428768E+04  0.27491428768E+04  0.00000000000E+00 0. -1.
          6    1    1    2  501    0  0.57690924273E+02 -0.28248389295E+03 -0.11468979813E+04  0.11951691813E+04  0.17300000000E+03 0.  1.
         -6    1    1    2    0  503 -0.57690924273E+02  0.28248389295E+03 -0.15601995105E+04  0.15960190804E+04  0.17300000000E+03 0. -1.
<mgrwt>
<rscale>  2 0.33623562E+03</rscale>
<asrwt>0</asrwt>
<pdfrwt beam="1">  1       21 0.64685203E-02 0.33623562E+03</pdfrwt>
<pdfrwt beam="2">  1       21 0.42294509E+00 0.33623562E+03</pdfrwt>
<totfact> 0.91643571E+02</totfact>
</mgrwt>
</event>
<event>
 4    1  0.4327903E+000  0.1746588E+03  0.7546771E-02  0.1173075E+00
         21   -1    0    0  501  502  0.00000000000E+00  0.00000000000E+00  0.11981134310E+03  0.11981134310E+03  0.00000000000E+00 0.  1.
         21   -1    0    0  502  503 -0.00000000000E+00 -0.00000000000E+00 -0.34647927569E+03  0.34647927569E+03  0.00000000000E+00 0.  1.
          6    1    1    2  501    0  0.14537287772E+02 -0.19114116941E+02  0.67162686946E+01  0.17478784416E+03  0.17300000000E+03 0.  1.
         -6    1    1    2    0  503 -0.14537287772E+02  0.19114116941E+02 -0.23338420129E+03  0.29150277462E+03  0.17300000000E+03 0.  1.
<mgrwt>
<rscale>  2 0.17465876E+03</rscale>
<asrwt>0</asrwt>
<pdfrwt beam="1">  1       21 0.18432515E-01 0.17465876E+03</pdfrwt>
<pdfrwt beam="2">  1       21 0.53304503E-01 0.17465876E+03</pdfrwt>
<totfact> 0.90176781E+04</totfact>
</mgrwt>
</event>
<event>
 4    1  0.4327903E+000  0.1954546E+03  0.7546771E-02  0.1153632E+00
         21   -1    0    0  503  502  0.00000000000E+00  0.00000000000E+00  0.10224276257E+03  0.10224276257E+03  0.00000000000E+00 0. -1.
         21   -1    0    0  501  503 -0.00000000000E+00 -0.00000000000E+00 -0.57261659036E+03  0.57261659036E+03  0.00000000000E+00 0.  1.
          6    1    1    2  501    0  0.78996313049E+02  0.45089704009E+02 -0.43409243030E+03  0.47606589558E+03  0.17300000000E+03 0.  1.
         -6    1    1    2    0  502 -0.78996313049E+02 -0.45089704009E+02 -0.36281397490E+02  0.19879345735E+03  0.17300000000E+03 0. -1.
<mgrwt>
<rscale>  2 0.19545460E+03</rscale>
<asrwt>0</asrwt>
<pdfrwt beam="1">  1       21 0.15729656E-01 0.19545460E+03</pdfrwt>
<pdfrwt beam="2">  1       21 0.88094859E-01 0.19545460E+03</pdfrwt>
<totfact> 0.39648090E+04</totfact>
</mgrwt>
</event>
<event>
 4    1  0.4327903E+000  0.1737144E+03  0.7546771E-02  0.1174029E+00
         21   -1    0    0  503  502  0.00000000000E+00  0.00000000000E+00  0.14407688100E+02  0.14407688100E+02  0.00000000000E+00 0.  1.
         21   -1    0    0  501  503 -0.00000000000E+00 -0.00000000000E+00 -0.20984223244E+04  0.20984223244E+04  0.00000000000E+00 0.  1.
          6    1    1    2  501    0 -0.15496563214E+02 -0.27477058555E+01 -0.10877648803E+04  0.11015485138E+04  0.17300000000E+03 0.  1.
         -6    1    1    2    0  502  0.15496563214E+02  0.27477058555E+01 -0.99624975598E+03  0.10112814987E+04  0.17300000000E+03 0.  1.
<mgrwt>
<rscale>  2 0.17371440E+03</rscale>
<asrwt>0</asrwt>
<pdfrwt beam="1">  1       21 0.22165680E-02 0.17371440E+03</pdfrwt>
<pdfrwt beam="2">  1       21 0.32283412E+00 0.17371440E+03</pdfrwt>
<totfact> 0.26767745E+04</totfact>
</mgrwt>
</event>
<event>
 4    1  0.4327903E+000  0.2269971E+03  0.7546771E-02  0.1128771E+00
         21   -1    0    0  501  502  0.00000000000E+00  0.00000000000E+00  0.31556604597E+02  0.31556604597E+02  0.00000000000E+00 0.  1.
         21   -1    0    0  502  503 -0.00000000000E+00 -0.00000000000E+00 -0.19385966629E+04  0.19385966629E+04  0.00000000000E+00 0.  1.
          6    1    1    2  501    0 -0.12492827392E+03 -0.77405493970E+02 -0.56232232719E+03  0.60641082096E+03  0.17300000000E+03 0.  1.
         -6    1    1    2    0  503  0.12492827392E+03  0.77405493970E+02 -0.13447177311E+04  0.13637424465E+04  0.17300000000E+03 0.  1.
<mgrwt>
<rscale>  2 0.22699710E+03</rscale>
<asrwt>0</asrwt>
<pdfrwt beam="1">  1       21 0.48548607E-02 0.22699710E+03</pdfrwt>
<pdfrwt beam="2">  1       21 0.29824573E+00 0.22699710E+03</pdfrwt>
<totfact> 0.95422424E+03</totfact>
</mgrwt>
</event>
<event>
 4    1  0.4327903E+000  0.3845485E+03  0.7546771E-02  0.1049265E+00
         21   -1    0    0  501  502  0.00000000000E+00  0.00000000000E+00  0.80357393231E+03  0.80357393231E+03  0.00000000000E+00 0. -1.
         21   -1    0    0  502  503 -0.00000000000E+00 -0.00000000000E+00 -0.18687403701E+03  0.18687403701E+03  0.00000000000E+00 0.  1.
          6    1    1    2  501    0  0.34271184360E+03  0.22296571873E+02  0.24720081910E+03  0.45714963614E+03  0.17300000000E+03 0.  1.
         -6    1    1    2    0  503 -0.34271184360E+03 -0.22296571873E+02  0.36949907621E+03  0.53329833319E+03  0.17300000000E+03 0. -1.
<mgrwt>
<rscale>  2 0.38454849E+03</rscale>
<asrwt>0</asrwt>
<pdfrwt beam="1">  1       21 0.12362676E+00 0.38454849E+03</pdfrwt>
<pdfrwt beam="2">  1       21 0.28749852E-01 0.38454849E+03</pdfrwt>
<totfact> 0.50910687E+03</totfact>
</mgrwt>
</event>
<event>
 4    1  0.4327903E+000  0.1999488E+03  0.7546771E-02  0.1149782E+00
         21   -1    0    0  503  502  0.00000000000E+00  0.00000000000E+00  0.49576167148E+03  0.49576167148E+03  0.00000000000E+00 0.  1.
         21   -1    0    0  501  503 -0.00000000000E+00 -0.00000000000E+00 -0.12528476213E+03  0.12528476213E+03  0.00000000000E+00 0.  1.
          6    1    1    2  501    0  0.36692662382E+02 -0.93296216691E+02 -0.12209623944E+00  0.19994886954E+03  0.17300000000E+03 0.  1.
         -6    1    1    2    0  502 -0.36692662382E+02  0.93296216691E+02  0.37059900560E+03  0.42109756407E+03  0.17300000000E+03 0.  1.
<mgrwt>
<rscale>  2 0.19994883E+03</rscale>
<asrwt>0</asrwt>
<pdfrwt beam="1">  1       21 0.76271025E-01 0.19994883E+03</pdfrwt>
<pdfrwt beam="2">  1       21 0.19274579E-01 0.19994883E+03</pdfrwt>
<totfact> 0.37720959E+04</totfact>
</mgrwt>
</event>
<event>
 4    1  0.4327903E+000  0.1813637E+03  0.7546771E-02  0.1166490E+00
         21   -1    0    0  503  502  0.00000000000E+00  0.00000000000E+00  0.18542908602E+03  0.18542908602E+03  0.00000000000E+00 0.  1.
         21   -1    0    0  501  503 -0.00000000000E+00 -0.00000000000E+00 -0.17739139085E+03  0.17739139085E+03  0.00000000000E+00 0.  1.
          6    1    1    2  501    0  0.52631995895E+02 -0.13916000897E+02  0.31575899980E+01  0.18139115868E+03  0.17300000000E+03 0.  1.
         -6    1    1    2    0  502 -0.52631995895E+02  0.13916000897E+02  0.48801051792E+01  0.18142931819E+03  0.17300000000E+03 0.  1.
<mgrwt>
<rscale>  2 0.18136367E+03</rscale>
<asrwt>0</asrwt>
<pdfrwt beam="1">  1       21 0.28527552E-01 0.18136367E+03</pdfrwt>
<pdfrwt beam="2">  1       21 0.27290983E-01 0.18136367E+03</pdfrwt>
<totfact> 0.15098241E+05</totfact>
</mgrwt>
</event>
<event>
 4    1  0.4327903E+000  0.1970010E+03  0.7546771E-02  0.1152294E+00
         21   -1    0    0  503  502  0.00000000000E+00  0.00000000000E+00  0.24257031105E+03  0.24257031105E+03  0.00000000000E+00 0. -1.
         21   -1    0    0  501  503 -0.00000000000E+00 -0.00000000000E+00 -0.24410038361E+03  0.24410038361E+03  0.00000000000E+00 0. -1.
          6    1    1    2  501    0  0.78962014900E+02 -0.51433586496E+02 -0.14360163533E+03  0.24378441969E+03  0.17300000000E+03 0. -1.
         -6    1    1    2    0  502 -0.78962014900E+02  0.51433586496E+02  0.14207156277E+03  0.24288627496E+03  0.17300000000E+03 0. -1.
<mgrwt>
<rscale>  2 0.19700105E+03</rscale>
<asrwt>0</asrwt>
<pdfrwt beam="1">  1       21 0.37318509E-01 0.19700105E+03</pdfrwt>
<pdfrwt beam="2">  1       21 0.37553905E-01 0.19700105E+03</pdfrwt>
<totfact> 0.47257060E+04</totfact>
</mgrwt>
</event>
<event>
 4    1  0.4327903E+000  0.2378144E+03  0.7546771E-02  0.1121257E+00
         21   -1    0    0  501  502  0.00000000000E+00  0.00000000000E+00  0.38616839830E+03  0.38616839830E+03  0.00000000000E+00 0.  1.
         21   -1    0    0  502  503 -0.00000000000E+00 -0.00000000000E+00 -0.21640691838E+03  0.21640691838E+03  0.00000000000E+00 0. -1.
          6    1    1    2  501    0 -0.66900175641E+02  0.14883231862E+03  0.25617799789E+03  0.34954664806E+03  0.17300000000E+03 0.  1.
         -6    1    1    2    0  503  0.66900175641E+02 -0.14883231862E+03 -0.86416517970E+02  0.25302866862E+03  0.17300000000E+03 0. -1.
<mgrwt>
<rscale>  2 0.23781441E+03</rscale>
<asrwt>0</asrwt>
<pdfrwt beam="1">  1       21 0.59410523E-01 0.23781441E+03</pdfrwt>
<pdfrwt beam="2">  1       21 0.33293372E-01 0.23781441E+03</pdfrwt>
<totfact> 0.22430878E+04</totfact>
</mgrwt>
</event>
<event>
 4    1  0.4327903E+000  0.2810418E+03  0.7546771E-02  0.1095121E+00
         21   -1    0    0  503  502  0.00000000000E+00  0.00000000000E+00  0.15063188499E+03  0.15063188499E+03  0.00000000000E+00 0.  1.
         21   -1    0    0  501  503 -0.00000000000E+00 -0.00000000000E+00 -0.55718405644E+03  0.55718405644E+03  0.00000000000E+00 0.  1.
          6    1    1    2  501    0  0.19494637245E+03  0.10512572866E+03 -0.28918208648E+03  0.40325027725E+03  0.17300000000E+03 0.  1.
         -6    1    1    2    0  502 -0.19494637245E+03 -0.10512572866E+03 -0.11737008496E+03  0.30456566419E+03  0.17300000000E+03 0.  1.
<mgrwt>
<rscale>  2 0.28104182E+03</rscale>
<asrwt>0</asrwt>
<pdfrwt beam="1">  1       21 0.23174136E-01 0.28104182E+03</pdfrwt>
<pdfrwt beam="2">  1       21 0.85720625E-01 0.28104182E+03</pdfrwt>
<totfact> 0.19634757E+04</totfact>
</mgrwt>
</event>
<event>
 4    1  0.4327903E+000  0.1961860E+03  0.7546771E-02  0.1152997E+00
         21   -1    0    0  503  502  0.00000000000E+00  0.00000000000E+00  0.54127919312E+02  0.54127919312E+02  0.00000000000E+00 0.  1.
         21   -1    0    0  501  503 -0.00000000000E+00 -0.00000000000E+00 -0.91558946478E+03  0.91558946478E+03  0.00000000000E+00 0. -1.
          6    1    1    2  501    0 -0.59364563530E+02 -0.70963341324E+02 -0.65988508968E+03  0.68843102690E+03  0.17300000000E+03 0. -1.
         -6    1    1    2    0  502  0.59364563530E+02  0.70963341324E+02 -0.20157645579E+03  0.28128635719E+03  0.17300000000E+03 0.  1.
<mgrwt>
<rscale>  2 0.19618600E+03</rscale>
<asrwt>0</asrwt>
<pdfrwt beam="1">  1       21 0.83273732E-02 0.19618600E+03</pdfrwt>
<pdfrwt beam="2">  1       21 0.14085990E+00 0.19618600E+03</pdfrwt>
<totfact> 0.39331350E+04</totfact>
</mgrwt>
</event>
<event>
 4    1  0.4327903E+000  0.2028864E+03  0.7546771E-02  0.1147326E+00
         21   -1    0    0  501  502  0.00000000000E+00  0.00000000000E+00  0.71559697794E+02  0.71559697794E+02  0.00000000000E+00 0.  1.
         21   -1    0    0  502  503 -0.00000000000E+00 -0.00000000000E+00 -0.10698901346E+04  0.10698901346E+04  0.00000000000E+00 0.  1.
          6    1    1    2  501    0 -0.10598063087E+03  0.14196789171E+01 -0.11109260099E+03  0.23131034478E+03  0.17300000000E+03 0.  1.
         -6    1    1    2    0  503  0.10598063087E+03 -0.14196789171E+01 -0.88723783579E+03  0.91013948759E+03  0.17300000000E+03 0.  1.
<mgrwt>
<rscale>  2 0.20288645E+03</rscale>
<asrwt>0</asrwt>
<pdfrwt beam="1">  1       21 0.11009185E-01 0.20288645E+03</pdfrwt>
<pdfrwt beam="2">  1       21 0.16459847E+00 0.20288645E+03</pdfrwt>
<totfact> 0.15833486E+04</totfact>
</mgrwt>
</event>
<event>
 4    1  0.4327903E+000  0.2000450E+03  0.7546771E-02  0.1149701E+00
         21   -1    0    0  503  502  0.00000000000E+00  0.00000000000E+00  0.19211240963E+03  0.19211240963E+03  0.00000000000E+00 0. -1.
         21   -1    0    0  501  503 -0.00000000000E+00 -0.00000000000E+00 -0.51167808759E+03  0.51167808759E+03  0.00000000000E+00 0. -1.
          6    1    1    2  501    0  0.10026524775E+03 -0.59887326462E+01 -0.43074177887E+03  0.47492785230E+03  0.17300000000E+03 0. -1.
         -6    1    1    2    0  502 -0.10026524775E+03  0.59887326462E+01  0.11117610091E+03  0.22886264492E+03  0.17300000000E+03 0. -1.
<mgrwt>
<rscale>  2 0.20004496E+03</rscale>
<asrwt>0</asrwt>
<pdfrwt beam="1">  1       21 0.29555756E-01 0.20004496E+03</pdfrwt>
<pdfrwt beam="2">  1       21 0.78719705E-01 0.20004496E+03</pdfrwt>
<totfact> 0.15573601E+04</totfact>
</mgrwt>
</event>
<event>
 4    1  0.4327903E+000  0.2042307E+03  0.7546771E-02  0.1146218E+00
         21   -1    0    0  501  502  0.00000000000E+00  0.00000000000E+00  0.67226821264E+02  0.67226821264E+02  0.00000000000E+00 0.  1.
         21   -1    0    0  502  503 -0.00000000000E+00 -0.00000000000E+00 -0.63941730182E+03  0.63941730182E+03  0.00000000000E+00 0.  1.
          6    1    1    2  501    0  0.55056928355E+02 -0.93540965699E+02 -0.22522554407E+03  0.30403408250E+03  0.17300000000E+03 0.  1.
         -6    1    1    2    0  503 -0.55056928355E+02  0.93540965699E+02 -0.34696493649E+03  0.40261004058E+03  0.17300000000E+03 0.  1.
<mgrwt>
<rscale>  2 0.20423070E+03</rscale>
<asrwt>0</asrwt>
<pdfrwt beam="1">  1       21 0.10342588E-01 0.20423070E+03</pdfrwt>
<pdfrwt beam="2">  1       21 0.98371895E-01 0.20423070E+03</pdfrwt>
<totfact> 0.64885201E+04</totfact>
</mgrwt>
</event>
<event>
 4    1  0.4327903E+000  0.2092062E+03  0.7546771E-02  0.1142196E+00
         21   -1    0    0  503  502  0.00000000000E+00  0.00000000000E+00  0.30504715047E+03  0.30504715047E+03  0.00000000000E+00 0. -1.
         21   -1    0    0  501  503 -0.00000000000E+00 -0.00000000000E+00 -0.15023080236E+03  0.15023080236E+03  0.00000000000E+00 0. -1.
          6    1    1    2  501    0 -0.10454991817E+03  0.53921876754E+02  0.29142223429E+02  0.21122623741E+03  0.17300000000E+03 0. -1.
         -6    1    1    2    0  502  0.10454991817E+03 -0.53921876754E+02  0.12567412468E+03  0.24405171542E+03  0.17300000000E+03 0. -1.
<mgrwt>
<rscale>  2 0.20920625E+03</rscale>
<asrwt>0</asrwt>
<pdfrwt beam="1">  1       21 0.46930331E-01 0.20920625E+03</pdfrwt>
<pdfrwt beam="2">  1       21 0.23112431E-01 0.20920625E+03</pdfrwt>
<totfact> 0.75876925E+04</totfact>
</mgrwt>
</event>
<event>
 4    1  0.4327903E+000  0.1977660E+03  0.7546771E-02  0.1151638E+00
         21   -1    0    0  503  502  0.00000000000E+00  0.00000000000E+00  0.16242179228E+03  0.16242179228E+03  0.00000000000E+00 0.  1.
         21   -1    0    0  501  503 -0.00000000000E+00 -0.00000000000E+00 -0.30001668097E+03  0.30001668097E+03  0.00000000000E+00 0. -1.
          6    1    1    2  501    0  0.95770227122E+02 -0.32314809964E+01 -0.17152064023E+03  0.26178370633E+03  0.17300000000E+03 0. -1.
         -6    1    1    2    0  502 -0.95770227122E+02  0.32314809964E+01  0.33925751541E+02  0.20065476693E+03  0.17300000000E+03 0.  1.
<mgrwt>
<rscale>  2 0.19776597E+03</rscale>
<asrwt>0</asrwt>
<pdfrwt beam="1">  1       21 0.24987968E-01 0.19776597E+03</pdfrwt>
<pdfrwt beam="2">  1       21 0.46156412E-01 0.19776597E+03</pdfrwt>
<totfact> 0.68031190E+04</totfact>
</mgrwt>
</event>
<event>
 4    1  0.4327903E+000  0.2037525E+03  0.7546771E-02  0.1146611E+00
         21   -1    0    0  501  502  0.00000000000E+00  0.00000000000E+00  0.24530515222E+03  0.24530515222E+03  0.00000000000E+00 0.  1.
         21   -1    0    0  502  503 -0.00000000000E+00 -0.00000000000E+00 -0.33464339657E+03  0.33464339657E+03  0.00000000000E+00 0. -1.
          6    1    1    2  501    0 -0.35218203825E+02  0.10171418707E+03  0.15919575286E+03  0.25856988506E+03  0.17300000000E+03 0.  1.
         -6    1    1    2    0  503  0.35218203825E+02 -0.10171418707E+03 -0.24853399721E+03  0.32137866373E+03  0.17300000000E+03 0. -1.
<mgrwt>
<rscale>  2 0.20375254E+03</rscale>
<asrwt>0</asrwt>
<pdfrwt beam="1">  1       21 0.37739255E-01 0.20375254E+03</pdfrwt>
<pdfrwt beam="2">  1       21 0.51483599E-01 0.20375254E+03</pdfrwt>
<totfact> 0.24117477E+04</totfact>
</mgrwt>
</event>
<event>
 4    1  0.4327903E+000  0.2244743E+03  0.7546771E-02  0.1130591E+00
         21   -1    0    0  501  502  0.00000000000E+00  0.00000000000E+00  0.18678567903E+03  0.18678567903E+03  0.00000000000E+00 0. -1.
         21   -1    0    0  502  503 -0.00000000000E+00 -0.00000000000E+00 -0.32400160642E+03  0.32400160642E+03  0.00000000000E+00 0.  1.
          6    1    1    2  501    0 -0.93485527338E+02  0.10825978315E+03  0.35881462024E+02  0.22732400618E+03  0.17300000000E+03 0. -1.
         -6    1    1    2    0  503  0.93485527338E+02 -0.10825978315E+03 -0.17309738941E+03  0.28346327926E+03  0.17300000000E+03 0.  1.
<mgrwt>
<rscale>  2 0.22447433E+03</rscale>
<asrwt>0</asrwt>
<pdfrwt beam="1">  1       21 0.28736258E-01 0.22447433E+03</pdfrwt>
<pdfrwt beam="2">  1       21 0.49846401E-01 0.22447433E+03</pdfrwt>
<totfact> 0.43751430E+04</totfact>
</mgrwt>
</event>
<event>
 4    1  0.4327903E+000  0.1787590E+03  0.7546771E-02  0.1169009E+00
         21   -1    0    0  501  502  0.00000000000E+00  0.00000000000E+00  0.31696267186E+03  0.31696267186E+03  0.00000000000E+00 0.  1.
         21   -1    0    0  502  503 -0.00000000000E+00 -0.00000000000E+00 -0.18641951075E+03  0.18641951075E+03  0.00000000000E+00 0.  1.
          6    1    1    2  501    0  0.23958581547E+02 -0.38102240290E+02  0.23582831231E+03  0.29592192760E+03  0.17300000000E+03 0.  1.
         -6    1    1    2    0  503 -0.23958581547E+02  0.38102240290E+02 -0.10528515121E+03  0.20746025501E+03  0.17300000000E+03 0.  1.
<mgrwt>
<rscale>  2 0.17875904E+03</rscale>
<asrwt>0</asrwt>
<pdfrwt beam="1">  1       21 0.48763488E-01 0.17875904E+03</pdfrwt>
<pdfrwt beam="2">  1       21 0.28679925E-01 0.17875904E+03</pdfrwt>
<totfact> 0.47000438E+04</totfact>
</mgrwt>
</event>
<event>
 4    1  0.4327903E+000  0.1771347E+03  0.7546771E-02  0.1170605E+00
         21   -1    0    0  501  502  0.00000000000E+00  0.00000000000E+00  0.15100204190E+03  0.15100204190E+03  0.00000000000E+00 0. -1.
         21   -1    0    0  502  503 -0.00000000000E+00 -0.00000000000E+00 -0.20828428186E+03  0.20828428186E+03  0.00000000000E+00 0. -1.
          6    1    1    2  501    0 -0.27505100802E+02  0.26290236121E+02 -0.37392785853E+02  0.18103846972E+03  0.17300000000E+03 0.  1.
         -6    1    1    2    0  503  0.27505100802E+02 -0.26290236121E+02 -0.19889454103E+02  0.17824785404E+03  0.17300000000E+03 0.  1.
<mgrwt>
<rscale>  2 0.17713471E+03</rscale>
<asrwt>0</asrwt>
<pdfrwt beam="1">  1       21 0.23231083E-01 0.17713471E+03</pdfrwt>
<pdfrwt beam="2">  1       21 0.32043736E-01 0.17713471E+03</pdfrwt>
<totfact> 0.16392133E+05</totfact>
</mgrwt>
</event>
<event>
 4    1  0.4327903E+000  0.2093429E+03  0.7546771E-02  0.1142087E+00
         21   -1    0    0  503  502  0.00000000000E+00  0.00000000000E+00  0.91209206150E+02  0.91209206150E+02  0.00000000000E+00 0.  1.
         21   -1    0    0  501  503 -0.00000000000E+00 -0.00000000000E+00 -0.68289238175E+03  0.68289238175E+03  0.00000000000E+00 0. -1.
          6    1    1    2  501    0 -0.77003457772E+02  0.89252069071E+02 -0.50656231177E+03  0.54811480554E+03  0.17300000000E+03 0. -1.
         -6    1    1    2    0  502  0.77003457772E+02 -0.89252069071E+02 -0.85120863823E+02  0.22598678236E+03  0.17300000000E+03 0.  1.
<mgrwt>
<rscale>  2 0.20934293E+03</rscale>
<asrwt>0</asrwt>
<pdfrwt beam="1">  1       21 0.14032185E-01 0.20934293E+03</pdfrwt>
<pdfrwt beam="2">  1       21 0.10506037E+00 0.20934293E+03</pdfrwt>
<totfact> 0.32003706E+04</totfact>
</mgrwt>
</event>
<event>
 4    1  0.4327903E+000  0.1776120E+03  0.7546771E-02  0.1170134E+00
         21   -1    0    0  501  502  0.00000000000E+00  0.00000000000E+00  0.21315427919E+03  0.21315427919E+03  0.00000000000E+00 0.  1.
         21   -1    0    0  502  503 -0.00000000000E+00 -0.00000000000E+00 -0.18679032906E+03  0.18679032906E+03  0.00000000000E+00 0.  1.
          6    1    1    2  501    0 -0.35328943283E+02 -0.19206043868E+02  0.10431506720E+03  0.20597970676E+03  0.17300000000E+03 0.  1.
         -6    1    1    2    0  503  0.35328943283E+02  0.19206043868E+02 -0.77951117072E+02  0.19396490148E+03  0.17300000000E+03 0.  1.
<mgrwt>
<rscale>  2 0.17761195E+03</rscale>
<asrwt>0</asrwt>
<pdfrwt beam="1">  1       21 0.32792966E-01 0.17761195E+03</pdfrwt>
<pdfrwt beam="2">  1       21 0.28736974E-01 0.17761195E+03</pdfrwt>
<totfact> 0.10428270E+05</totfact>
</mgrwt>
</event>
<event>
 4    1  0.4327903E+000  0.2794041E+03  0.7546771E-02  0.1096015E+00
         21   -1    0    0  503  502  0.00000000000E+00  0.00000000000E+00  0.29363996219E+03  0.29363996219E+03  0.00000000000E+00 0.  1.
         21   -1    0    0  501  503 -0.00000000000E+00 -0.00000000000E+00 -0.26590228845E+03  0.26590228845E+03  0.00000000000E+00 0. -1.
          6    1    1    2  501    0  0.21923688530E+03 -0.85359585400E+01  0.10277855055E+02  0.27959311288E+03  0.17300000000E+03 0. -1.
         -6    1    1    2    0  502 -0.21923688530E+03  0.85359585400E+01  0.17459818685E+02  0.27994913776E+03  0.17300000000E+03 0.  1.
<mgrwt>
<rscale>  2 0.27940414E+03</rscale>
<asrwt>0</asrwt>
<pdfrwt beam="1">  1       21 0.45175379E-01 0.27940414E+03</pdfrwt>
<pdfrwt beam="2">  1       21 0.40908044E-01 0.27940414E+03</pdfrwt>
<totfact> 0.25941912E+04</totfact>
</mgrwt>
</event>
<event>
 4    1  0.4327903E+000  0.3914519E+03  0.7546771E-02  0.1046780E+00
         21   -1    0    0  503  502  0.00000000000E+00  0.00000000000E+00  0.99329401443E+03  0.99329401443E+03  0.00000000000E+00 0. -1.
         21   -1    0    0  501  503 -0.00000000000E+00 -0.00000000000E+00 -0.16333341783E+03  0.16333341783E+03  0.00000000000E+00 0.  1.
          6    1    1    2  501    0 -0.23061293526E+03  0.26480792209E+03  0.55121690654E+03  0.67607295432E+03  0.17300000000E+03 0.  1.
         -6    1    1    2    0  502  0.23061293526E+03 -0.26480792209E+03  0.27874369006E+03  0.48055447793E+03  0.17300000000E+03 0. -1.
<mgrwt>
<rscale>  2 0.39145186E+03</rscale>
<asrwt>0</asrwt>
<pdfrwt beam="1">  1       21 0.15281446E+00 0.39145186E+03</pdfrwt>
<pdfrwt beam="2">  1       21 0.25128219E-01 0.39145186E+03</pdfrwt>
<totfact> 0.37824270E+03</totfact>
</mgrwt>
</event>
<event>
 4    1  0.4327903E+000  0.1944060E+03  0.7546771E-02  0.1154546E+00
         21   -1    0    0  501  502  0.00000000000E+00  0.00000000000E+00  0.27825104520E+03  0.27825104520E+03  0.00000000000E+00 0. -1.
         21   -1    0    0  502  503 -0.00000000000E+00 -0.00000000000E+00 -0.13825679238E+03  0.13825679238E+03  0.00000000000E+00 0. -1.
          6    1    1    2  501    0  0.73846193429E+02 -0.49106233733E+02  0.42382574573E+02  0.19897227220E+03  0.17300000000E+03 0. -1.
         -6    1    1    2    0  503 -0.73846193429E+02  0.49106233733E+02  0.97611678243E+02  0.21753556538E+03  0.17300000000E+03 0. -1.
<mgrwt>
<rscale>  2 0.19440597E+03</rscale>
<asrwt>0</asrwt>
<pdfrwt beam="1">  1       21 0.42807853E-01 0.19440597E+03</pdfrwt>
<pdfrwt beam="2">  1       21 0.21270276E-01 0.19440597E+03</pdfrwt>
<totfact> 0.10788521E+05</totfact>
</mgrwt>
</event>
<event>
 4    1  0.4327903E+000  0.3146393E+03  0.7546771E-02  0.1078143E+00
         21   -1    0    0  501  502  0.00000000000E+00  0.00000000000E+00  0.34136951543E+03  0.34136951543E+03  0.00000000000E+00 0.  1.
         21   -1    0    0  502  503 -0.00000000000E+00 -0.00000000000E+00 -0.35666903530E+03  0.35666903530E+03  0.00000000000E+00 0. -1.
          6    1    1    2  501    0 -0.16296175446E+03  0.20618528031E+03  0.14324414508E+03  0.34571200201E+03  0.17300000000E+03 0.  1.
         -6    1    1    2    0  503  0.16296175446E+03 -0.20618528031E+03 -0.15854366495E+03  0.35232654871E+03  0.17300000000E+03 0. -1.
<mgrwt>
<rscale>  2 0.31463932E+03</rscale>
<asrwt>0</asrwt>
<pdfrwt beam="1">  1       21 0.52518387E-01 0.31463932E+03</pdfrwt>
<pdfrwt beam="2">  1       21 0.54872159E-01 0.31463932E+03</pdfrwt>
<totfact> 0.10082596E+04</totfact>
</mgrwt>
</event>
<event>
 4    1  0.4327903E+000  0.1822991E+03  0.7546771E-02  0.1165596E+00
         21   -1    0    0  501  502  0.00000000000E+00  0.00000000000E+00  0.30704934467E+02  0.30704934467E+02  0.00000000000E+00 0.  1.
         21   -1    0    0  502  503 -0.00000000000E+00 -0.00000000000E+00 -0.12815547527E+04  0.12815547527E+04  0.00000000000E+00 0.  1.
          6    1    1    2  501    0  0.39794119420E+02  0.41477517814E+02 -0.36672882767E+03  0.40953997298E+03  0.17300000000E+03 0.  1.
         -6    1    1    2    0  503 -0.39794119420E+02 -0.41477517814E+02 -0.88412099052E+03  0.90271971415E+03  0.17300000000E+03 0.  1.
<mgrwt>
<rscale>  2 0.18229909E+03</rscale>
<asrwt>0</asrwt>
<pdfrwt beam="1">  1       21 0.47238357E-02 0.18229909E+03</pdfrwt>
<pdfrwt beam="2">  1       21 0.19716228E+00 0.18229909E+03</pdfrwt>
<totfact> 0.41763475E+04</totfact>
</mgrwt>
</event>
<event>
 4    1  0.4327903E+000  0.2369315E+03  0.7546771E-02  0.1121854E+00
         21   -1    0    0  501  502  0.00000000000E+00  0.00000000000E+00  0.59042892074E+02  0.59042892074E+02  0.00000000000E+00 0.  1.
         21   -1    0    0  502  503 -0.00000000000E+00 -0.00000000000E+00 -0.28525424305E+04  0.28525424305E+04  0.00000000000E+00 0. -1.
          6    1    1    2  501    0  0.52803033652E+02 -0.15303383409E+03 -0.20807743600E+03  0.31532956428E+03  0.17300000000E+03 0.  1.
         -6    1    1    2    0  503 -0.52803033652E+02  0.15303383409E+03 -0.25854221024E+04  0.25962557583E+04  0.17300000000E+03 0. -1.
<mgrwt>
<rscale>  2 0.23693146E+03</rscale>
<asrwt>0</asrwt>
<pdfrwt beam="1">  1       21 0.90835210E-02 0.23693146E+03</pdfrwt>
<pdfrwt beam="2">  1       21 0.43885272E+00 0.23693146E+03</pdfrwt>
<totfact> 0.44262555E+02</totfact>
</mgrwt>
</event>
<event>
 4    1  0.4327903E+000  0.2001208E+03  0.7546771E-02  0.1149637E+00
         21   -1    0    0  501  502  0.00000000000E+00  0.00000000000E+00  0.68692858862E+03  0.68692858862E+03  0.00000000000E+00 0. -1.
         21   -1    0    0  502  503 -0.00000000000E+00 -0.00000000000E+00 -0.11865701767E+03  0.11865701767E+03  0.00000000000E+00 0.  1.
          6    1    1    2  501    0 -0.97801771985E+01 -0.10011832142E+03  0.57141011098E+03  0.60544020769E+03  0.17300000000E+03 0. -1.
         -6    1    1    2    0  503  0.97801771985E+01  0.10011832142E+03 -0.31385400297E+01  0.20014539860E+03  0.17300000000E+03 0.  1.
<mgrwt>
<rscale>  2 0.20012079E+03</rscale>
<asrwt>0</asrwt>
<pdfrwt beam="1">  1       21 0.10568132E+00 0.20012079E+03</pdfrwt>
<pdfrwt beam="2">  1       21 0.18254926E-01 0.20012079E+03</pdfrwt>
<totfact> 0.19585156E+04</totfact>
</mgrwt>
</event>
<event>
 4    1  0.4327903E+000  0.2163730E+03  0.7546771E-02  0.1136616E+00
         21   -1    0    0  503  502  0.00000000000E+00  0.00000000000E+00  0.20431899514E+03  0.20431899514E+03  0.00000000000E+00 0.  1.
         21   -1    0    0  501  503 -0.00000000000E+00 -0.00000000000E+00 -0.27141813058E+03  0.27141813058E+03  0.00000000000E+00 0.  1.
          6    1    1    2  501    0  0.62246790700E+02  0.11407722151E+03 -0.12743215277E+03  0.25110999379E+03  0.17300000000E+03 0.  1.
         -6    1    1    2    0  502 -0.62246790700E+02 -0.11407722151E+03  0.60333017330E+02  0.22462713193E+03  0.17300000000E+03 0.  1.
<mgrwt>
<rscale>  2 0.21637300E+03</rscale>
<asrwt>0</asrwt>
<pdfrwt beam="1">  1       21 0.31433692E-01 0.21637300E+03</pdfrwt>
<pdfrwt beam="2">  1       21 0.41756635E-01 0.21637300E+03</pdfrwt>
<totfact> 0.53109066E+04</totfact>
</mgrwt>
</event>
<event>
 4    1  0.4327903E+000  0.1791025E+03  0.7546771E-02  0.1168674E+00
         21   -1    0    0  501  502  0.00000000000E+00  0.00000000000E+00  0.41939302111E+03  0.41939302111E+03  0.00000000000E+00 0.  1.
         21   -1    0    0  502  503 -0.00000000000E+00 -0.00000000000E+00 -0.98314733177E+02  0.98314733177E+02  0.00000000000E+00 0.  1.
          6    1    1    2  501    0 -0.30394601776E+02  0.34998374332E+02  0.28251084560E+03  0.33449976966E+03  0.17300000000E+03 0.  1.
         -6    1    1    2    0  503  0.30394601776E+02 -0.34998374332E+02  0.38567442338E+02  0.18320798463E+03  0.17300000000E+03 0.  1.
<mgrwt>
<rscale>  2 0.17910253E+03</rscale>
<asrwt>0</asrwt>
<pdfrwt beam="1">  1       21 0.64522002E-01 0.17910253E+03</pdfrwt>
<pdfrwt beam="2">  1       21 0.15125344E-01 0.17910253E+03</pdfrwt>
<totfact> 0.86045696E+04</totfact>
</mgrwt>
</event>
<event>
 4    1  0.4327903E+000  0.2167546E+03  0.7546771E-02  0.1136326E+00
         21   -1    0    0  501  502  0.00000000000E+00  0.00000000000E+00  0.59273224407E+02  0.59273224407E+02  0.00000000000E+00 0. -1.
         21   -1    0    0  502  503 -0.00000000000E+00 -0.00000000000E+00 -0.87577115530E+03  0.87577115530E+03  0.00000000000E+00 0.  1.
          6    1    1    2  501    0  0.30640520040E+02  0.12694376016E+03 -0.26421045131E+03  0.34174511305E+03  0.17300000000E+03 0.  1.
         -6    1    1    2    0  503 -0.30640520040E+02 -0.12694376016E+03 -0.55228747959E+03  0.59329926667E+03  0.17300000000E+03 0. -1.
<mgrwt>
<rscale>  2 0.21675461E+03</rscale>
<asrwt>0</asrwt>
<pdfrwt beam="1">  1       21 0.91189583E-02 0.21675461E+03</pdfrwt>
<pdfrwt beam="2">  1       21 0.13473401E+00 0.21675461E+03</pdfrwt>
<totfact> 0.37174769E+04</totfact>
</mgrwt>
</event>
<event>
 4    1  0.4327903E+000  0.2610596E+03  0.7546771E-02  0.1106508E+00
         21   -1    0    0  503  502  0.00000000000E+00  0.00000000000E+00  0.38276467748E+03  0.38276467748E+03  0.00000000000E+00 0.  1.
         21   -1    0    0  501  503 -0.00000000000E+00 -0.00000000000E+00 -0.21851116522E+03  0.21851116522E+03  0.00000000000E+00 0.  1.
          6    1    1    2  501    0  0.15920940322E+03  0.11347008951E+03 -0.47237500031E+02  0.26529884413E+03  0.17300000000E+03 0.  1.
         -6    1    1    2    0  502 -0.15920940322E+03 -0.11347008951E+03  0.21149101230E+03  0.33597699857E+03  0.17300000000E+03 0.  1.
<mgrwt>
<rscale>  2 0.26105956E+03</rscale>
<asrwt>0</asrwt>
<pdfrwt beam="1">  1       21 0.58886873E-01 0.26105956E+03</pdfrwt>
<pdfrwt beam="2">  1       21 0.33617102E-01 0.26105956E+03</pdfrwt>
<totfact> 0.22183304E+04</totfact>
</mgrwt>
</event>
<event>
 4    1  0.4327903E+000  0.1916968E+03  0.7546771E-02  0.1156940E+00
         21   -1    0    0  501  502  0.00000000000E+00  0.00000000000E+00  0.17440326571E+03  0.17440326571E+03  0.00000000000E+00 0. -1.
         21   -1    0    0  502  503 -0.00000000000E+00 -0.00000000000E+00 -0.22945677273E+03  0.22945677273E+03  0.00000000000E+00 0. -1.
          6    1    1    2  501    0 -0.80589981887E+02  0.17997901514E+02 -0.85252512280E+02  0.20979909554E+03  0.17300000000E+03 0. -1.
         -6    1    1    2    0  503  0.80589981887E+02 -0.17997901514E+02  0.30199005258E+02  0.19406094290E+03  0.17300000000E+03 0. -1.
<mgrwt>
<rscale>  2 0.19169682E+03</rscale>
<asrwt>0</asrwt>
<pdfrwt beam="1">  1       21 0.26831272E-01 0.19169682E+03</pdfrwt>
<pdfrwt beam="2">  1       21 0.35301042E-01 0.19169682E+03</pdfrwt>
<totfact> 0.10238114E+05</totfact>
</mgrwt>
</event>
<event>
 4    1  0.4327903E+000  0.2502010E+03  0.7546771E-02  0.1113178E+00
         21   -1    0    0  503  502  0.00000000000E+00  0.00000000000E+00  0.67306947205E+02  0.67306947205E+02  0.00000000000E+00 0.  1.
         21   -1    0    0  501  503 -0.00000000000E+00 -0.00000000000E+00 -0.11321669122E+04  0.11321669122E+04  0.00000000000E+00 0.  1.
          6    1    1    2  501    0  0.17568541160E+03 -0.42499054674E+02 -0.78581424469E+03  0.82468452189E+03  0.17300000000E+03 0.  1.
         -6    1    1    2    0  502 -0.17568541160E+03  0.42499054674E+02 -0.27904572034E+03  0.37478933755E+03  0.17300000000E+03 0.  1.
<mgrwt>
<rscale>  2 0.25020099E+03</rscale>
<asrwt>0</asrwt>
<pdfrwt beam="1">  1       21 0.10354915E-01 0.25020099E+03</pdfrwt>
<pdfrwt beam="2">  1       21 0.17417953E+00 0.25020099E+03</pdfrwt>
<totfact> 0.14640805E+04</totfact>
</mgrwt>
</event>
<event>
 4    1  0.4327903E+000  0.1792700E+03  0.7546771E-02  0.1168511E+00
         21   -1    0    0  503  502  0.00000000000E+00  0.00000000000E+00  0.17495657624E+04  0.17495657624E+04  0.00000000000E+00 0.  1.
         21   -1    0    0  501  503 -0.00000000000E+00 -0.00000000000E+00 -0.21950797018E+02  0.21950797018E+02  0.00000000000E+00 0.  1.
          6    1    1    2  501    0  0.44050893077E+02 -0.16378419427E+02  0.50600616621E+03  0.53682396933E+03  0.17300000000E+03 0.  1.
         -6    1    1    2    0  502 -0.44050893077E+02  0.16378419427E+02  0.12216087991E+04  0.12346925901E+04  0.17300000000E+03 0.  1.
<mgrwt>
<rscale>  2 0.17927000E+03</rscale>
<asrwt>0</asrwt>
<pdfrwt beam="1">  1       21 0.26916385E+00 0.17927000E+03</pdfrwt>
<pdfrwt beam="2">  1       21 0.33770471E-02 0.17927000E+03</pdfrwt>
<totfact> 0.27052378E+04</totfact>
</mgrwt>
</event>
<event>
 4    1  0.4327903E+000  0.2310630E+03  0.7546771E-02  0.1125894E+00
         21   -1    0    0  503  502  0.00000000000E+00  0.00000000000E+00  0.13137930375E+04  0.13137930375E+04  0.00000000000E+00 0.  1.
         21   -1    0    0  501  503 -0.00000000000E+00 -0.00000000000E+00 -0.56543439381E+02  0.56543439381E+02  0.00000000000E+00 0.  1.
          6    1    1    2  501    0 -0.11720417521E+03  0.98611774688E+02  0.26523135872E+03  0.35176380491E+03  0.17300000000E+03 0.  1.
         -6    1    1    2    0  502  0.11720417521E+03 -0.98611774688E+02  0.99201823936E+03  0.10185726719E+04  0.17300000000E+03 0.  1.
<mgrwt>
<rscale>  2 0.23106298E+03</rscale>
<asrwt>0</asrwt>
<pdfrwt beam="1">  1       21 0.20212198E+00 0.23106298E+03</pdfrwt>
<pdfrwt beam="2">  1       21 0.86989916E-02 0.23106298E+03</pdfrwt>
<totfact> 0.13100721E+04</totfact>
</mgrwt>
</event>
<event>
 4    1  0.4327903E+000  0.1839347E+03  0.7546771E-02  0.1164048E+00
         21   -1    0    0  503  502  0.00000000000E+00  0.00000000000E+00  0.27054417670E+03  0.27054417670E+03  0.00000000000E+00 0.  1.
         21   -1    0    0  501  503 -0.00000000000E+00 -0.00000000000E+00 -0.36729027583E+03  0.36729027583E+03  0.00000000000E+00 0. -1.
          6    1    1    2  501    0 -0.52888118698E+02  0.33253868565E+02 -0.30737022974E+03  0.35820166248E+03  0.17300000000E+03 0. -1.
         -6    1    1    2    0  502  0.52888118698E+02 -0.33253868565E+02  0.21062413061E+03  0.27963279005E+03  0.17300000000E+03 0.  1.
<mgrwt>
<rscale>  2 0.18393470E+03</rscale>
<asrwt>0</asrwt>
<pdfrwt beam="1">  1       21 0.41622181E-01 0.18393470E+03</pdfrwt>
<pdfrwt beam="2">  1       21 0.56506196E-01 0.18393470E+03</pdfrwt>
<totfact> 0.16458139E+04</totfact>
</mgrwt>
</event>
<event>
 4    1  0.4327903E+000  0.2145997E+03  0.7546771E-02  0.1137974E+00
         21   -1    0    0  501  502  0.00000000000E+00  0.00000000000E+00  0.34371410942E+03  0.34371410942E+03  0.00000000000E+00 0.  1.
         21   -1    0    0  502  503 -0.00000000000E+00 -0.00000000000E+00 -0.13517151644E+03  0.13517151644E+03  0.00000000000E+00 0. -1.
          6    1    1    2  501    0  0.11621675533E+03 -0.51163513644E+02  0.12669087059E+03  0.24920597112E+03  0.17300000000E+03 0. -1.
         -6    1    1    2    0  503 -0.11621675533E+03  0.51163513644E+02  0.81851722384E+02  0.22967965475E+03  0.17300000000E+03 0. -1.
<mgrwt>
<rscale>  2 0.21459972E+03</rscale>
<asrwt>0</asrwt>
<pdfrwt beam="1">  1       21 0.52879093E-01 0.21459972E+03</pdfrwt>
<pdfrwt beam="2">  1       21 0.20795618E-01 0.21459972E+03</pdfrwt>
<totfact> 0.72024625E+04</totfact>
</mgrwt>
</event>
<event>
 4    1  0.4327903E+000  0.2213859E+03  0.7546771E-02  0.1132854E+00
         21   -1    0    0  503  502  0.00000000000E+00  0.00000000000E+00  0.92268790131E+02  0.92268790131E+02  0.00000000000E+00 0. -1.
         21   -1    0    0  501  503 -0.00000000000E+00 -0.00000000000E+00 -0.60943712287E+03  0.60943712287E+03  0.00000000000E+00 0.  1.
          6    1    1    2  501    0 -0.64725617315E+02 -0.12203821193E+03 -0.38430601387E+03  0.44351194235E+03  0.17300000000E+03 0.  1.
         -6    1    1    2    0  502  0.64725617315E+02  0.12203821193E+03 -0.13286231887E+03  0.25819397065E+03  0.17300000000E+03 0. -1.
<mgrwt>
<rscale>  2 0.22138593E+03</rscale>
<asrwt>0</asrwt>
<pdfrwt beam="1">  1       21 0.14195198E-01 0.22138593E+03</pdfrwt>
<pdfrwt beam="2">  1       21 0.93759560E-01 0.22138593E+03</pdfrwt>
<totfact> 0.40813223E+04</totfact>
</mgrwt>
</event>
<event>
 4    1  0.4327903E+000  0.2140981E+03  0.7546771E-02  0.1138361E+00
         21   -1    0    0  501  502  0.00000000000E+00  0.00000000000E+00  0.50050367571E+03  0.50050367571E+03  0.00000000000E+00 0. -1.
         21   -1    0    0  502  503 -0.00000000000E+00 -0.00000000000E+00 -0.22973509152E+03  0.22973509152E+03  0.00000000000E+00 0.  1.
          6    1    1    2  501    0 -0.11696615891E+02  0.12558737714E+03  0.41852269928E+03  0.47010557318E+03  0.17300000000E+03 0. -1.
         -6    1    1    2    0  503  0.11696615891E+02 -0.12558737714E+03 -0.14775411509E+03  0.26013319405E+03  0.17300000000E+03 0.  1.
<mgrwt>
<rscale>  2 0.21409811E+03</rscale>
<asrwt>0</asrwt>
<pdfrwt beam="1">  1       21 0.77000565E-01 0.21409811E+03</pdfrwt>
<pdfrwt beam="2">  1       21 0.35343860E-01 0.21409811E+03</pdfrwt>
<totfact> 0.11405669E+04</totfact>
</mgrwt>
</event>
<event>
 4    1  0.4327903E+000  0.1739282E+03  0.7546771E-02  0.1173812E+00
         21   -1    0    0  501  502  0.00000000000E+00  0.00000000000E+00  0.19128284763E+03  0.19128284763E+03  0.00000000000E+00 0. -1.
         21   -1    0    0  502  503 -0.00000000000E+00 -0.00000000000E+00 -0.15863899117E+03  0.15863899117E+03  0.00000000000E+00 0. -1.
          6    1    1    2  501    0  0.56486949679E+01 -0.17032520798E+02  0.65891045324E+01  0.17405295406E+03  0.17300000000E+03 0. -1.
         -6    1    1    2    0  503 -0.56486949679E+01  0.17032520798E+02  0.26054751931E+02  0.17586888473E+03  0.17300000000E+03 0. -1.
<mgrwt>
<rscale>  2 0.17392819E+03</rscale>
<asrwt>0</asrwt>
<pdfrwt beam="1">  1       21 0.29428130E-01 0.17392819E+03</pdfrwt>
<pdfrwt beam="2">  1       21 0.24405999E-01 0.17392819E+03</pdfrwt>
<totfact> 0.17642716E+05</totfact>
</mgrwt>
</event>
<event>
 4    1  0.4327903E+000  0.1758571E+03  0.7546771E-02  0.1171874E+00
         21   -1    0    0  503  502  0.00000000000E+00  0.00000000000E+00  0.67360232288E+02  0.67360232288E+02  0.00000000000E+00 0. -1.
         21   -1    0    0  501  503 -0.00000000000E+00 -0.00000000000E+00 -0.14457892901E+04  0.14457892901E+04  0.00000000000E+00 0. -1.
          6    1    1    2  501    0 -0.99912148654E+01 -0.29948018317E+02 -0.13142253135E+04  0.13259388684E+04  0.17300000000E+03 0. -1.
         -6    1    1    2    0  502  0.99912148654E+01  0.29948018317E+02 -0.64203744332E+02  0.18721065398E+03  0.17300000000E+03 0. -1.
<mgrwt>
<rscale>  2 0.17585707E+03</rscale>
<asrwt>0</asrwt>
<pdfrwt beam="1">  1       21 0.10363114E-01 0.17585707E+03</pdfrwt>
<pdfrwt beam="2">  1       21 0.22242909E+00 0.17585707E+03</pdfrwt>
<totfact> 0.75258196E+03</totfact>
</mgrwt>
</event>
<event>
 4    1  0.4327903E+000  0.3464940E+03  0.7546771E-02  0.1064063E+00
         21   -1    0    0  503  502  0.00000000000E+00  0.00000000000E+00  0.14660745990E+03  0.14660745990E+03  0.00000000000E+00 0.  1.
         21   -1    0    0  501  503 -0.00000000000E+00 -0.00000000000E+00 -0.97515163235E+03  0.97515163235E+03  0.00000000000E+00 0. -1.
          6    1    1    2  501    0 -0.29335223084E+03  0.63824476970E+02 -0.63878120952E+03  0.72670456778E+03  0.17300000000E+03 0. -1.
         -6    1    1    2    0  502  0.29335223084E+03 -0.63824476970E+02 -0.18976296293E+03  0.39505452446E+03  0.17300000000E+03 0.  1.
<mgrwt>
<rscale>  2 0.34649400E+03</rscale>
<asrwt>0</asrwt>
<pdfrwt beam="1">  1       21 0.22554994E-01 0.34649400E+03</pdfrwt>
<pdfrwt beam="2">  1       21 0.15002333E+00 0.34649400E+03</pdfrwt>
<totfact> 0.49957503E+03</totfact>
</mgrwt>
</event>
<event>
 4    1  0.4327903E+000  0.1853492E+03  0.7546771E-02  0.1162724E+00
         21   -1    0    0  501  502  0.00000000000E+00  0.00000000000E+00  0.11810696502E+03  0.11810696502E+03  0.00000000000E+00 0.  1.
         21   -1    0    0  502  503 -0.00000000000E+00 -0.00000000000E+00 -0.29133132697E+03  0.29133132697E+03  0.00000000000E+00 0.  1.
          6    1    1    2  501    0 -0.32672538770E+02 -0.57946950996E+02 -0.78508513370E+02  0.20129066196E+03  0.17300000000E+03 0.  1.
         -6    1    1    2    0  503  0.32672538770E+02  0.57946950996E+02 -0.94715848578E+02  0.20814763004E+03  0.17300000000E+03 0.  1.
<mgrwt>
<rscale>  2 0.18534925E+03</rscale>
<asrwt>0</asrwt>
<pdfrwt beam="1">  1       21 0.18170302E-01 0.18534925E+03</pdfrwt>
<pdfrwt beam="2">  1       21 0.44820204E-01 0.18534925E+03</pdfrwt>
<totfact> 0.13214977E+05</totfact>
</mgrwt>
</event>
<event>
 4    1  0.4327903E+000  0.1827700E+03  0.7546771E-02  0.1165149E+00
         21   -1    0    0  501  502  0.00000000000E+00  0.00000000000E+00  0.79271711526E+02  0.79271711526E+02  0.00000000000E+00 0. -1.
         21   -1    0    0  502  503 -0.00000000000E+00 -0.00000000000E+00 -0.42143751312E+03  0.42143751312E+03  0.00000000000E+00 0. -1.
          6    1    1    2  501    0 -0.26623116392E+02 -0.52602938926E+02 -0.16862753587E+03  0.24867670852E+03  0.17300000000E+03 0. -1.
         -6    1    1    2    0  503  0.26623116392E+02  0.52602938926E+02 -0.17353826573E+03  0.25203251612E+03  0.17300000000E+03 0. -1.
<mgrwt>
<rscale>  2 0.18276996E+03</rscale>
<asrwt>0</asrwt>
<pdfrwt beam="1">  1       21 0.12195648E-01 0.18276996E+03</pdfrwt>
<pdfrwt beam="2">  1       21 0.64836540E-01 0.18276996E+03</pdfrwt>
<totfact> 0.12536863E+05</totfact>
</mgrwt>
</event>
<event>
 4    1  0.4327903E+000  0.2094843E+03  0.7546771E-02  0.1141975E+00
         21   -1    0    0  501  502  0.00000000000E+00  0.00000000000E+00  0.47939477486E+02  0.47939477486E+02  0.00000000000E+00 0.  1.
         21   -1    0    0  502  503 -0.00000000000E+00 -0.00000000000E+00 -0.94533927140E+03  0.94533927140E+03  0.00000000000E+00 0. -1.
          6    1    1    2  501    0 -0.46863618649E+02 -0.10843651672E+03 -0.53708644732E+03  0.57649417067E+03  0.17300000000E+03 0.  1.
         -6    1    1    2    0  503  0.46863618649E+02  0.10843651672E+03 -0.36031334659E+03  0.41678457822E+03  0.17300000000E+03 0. -1.
<mgrwt>
<rscale>  2 0.20948431E+03</rscale>
<asrwt>0</asrwt>
<pdfrwt beam="1">  1       21 0.73753040E-02 0.20948431E+03</pdfrwt>
<pdfrwt beam="2">  1       21 0.14543682E+00 0.20948431E+03</pdfrwt>
<totfact> 0.44364624E+04</totfact>
</mgrwt>
</event>
<event>
 4    1  0.4327903E+000  0.1919224E+03  0.7546771E-02  0.1156739E+00
         21   -1    0    0  503  502  0.00000000000E+00  0.00000000000E+00  0.15124314102E+03  0.15124314102E+03  0.00000000000E+00 0.  1.
         21   -1    0    0  501  503 -0.00000000000E+00 -0.00000000000E+00 -0.24399682273E+03  0.24399682273E+03  0.00000000000E+00 0.  1.
          6    1    1    2  501    0 -0.38485386547E+02 -0.73648378687E+02 -0.37854071648E+02  0.19561988498E+03  0.17300000000E+03 0.  1.
         -6    1    1    2    0  502  0.38485386547E+02  0.73648378687E+02 -0.54899610061E+02  0.19962007876E+03  0.17300000000E+03 0.  1.
<mgrwt>
<rscale>  2 0.19192240E+03</rscale>
<asrwt>0</asrwt>
<pdfrwt beam="1">  1       21 0.23268175E-01 0.19192240E+03</pdfrwt>
<pdfrwt beam="2">  1       21 0.37537973E-01 0.19192240E+03</pdfrwt>
<totfact> 0.11887508E+05</totfact>
</mgrwt>
</event>
<event>
 4    1  0.4327903E+000  0.2605307E+03  0.7546771E-02  0.1106825E+00
         21   -1    0    0  503  502  0.00000000000E+00  0.00000000000E+00  0.65457464758E+03  0.65457464758E+03  0.00000000000E+00 0.  1.
         21   -1    0    0  501  503 -0.00000000000E+00 -0.00000000000E+00 -0.12205612429E+03  0.12205612429E+03  0.00000000000E+00 0. -1.
          6    1    1    2  501    0 -0.12033137217E+03  0.15319135938E+03  0.11564975254E+03  0.28504578050E+03  0.17300000000E+03 0. -1.
         -6    1    1    2    0  502  0.12033137217E+03 -0.15319135938E+03  0.41686877075E+03  0.49158499137E+03  0.17300000000E+03 0.  1.
<mgrwt>
<rscale>  2 0.26053067E+03</rscale>
<asrwt>0</asrwt>
<pdfrwt beam="1">  1       21 0.10070379E+00 0.26053067E+03</pdfrwt>
<pdfrwt beam="2">  1       21 0.18777866E-01 0.26053067E+03</pdfrwt>
<totfact> 0.20190055E+04</totfact>
</mgrwt>
</event>
<event>
 4    1  0.4327903E+000  0.2447655E+03  0.7546771E-02  0.1116658E+00
         21   -1    0    0  503  502  0.00000000000E+00  0.00000000000E+00  0.60404606947E+03  0.60404606947E+03  0.00000000000E+00 0. -1.
         21   -1    0    0  501  503 -0.00000000000E+00 -0.00000000000E+00 -0.99953228286E+02  0.99953228286E+02  0.00000000000E+00 0.  1.
          6    1    1    2  501    0 -0.15603628330E+03 -0.75058981343E+02  0.28297690141E+03  0.37414716238E+03  0.17300000000E+03 0. -1.
         -6    1    1    2    0  502  0.15603628330E+03  0.75058981343E+02  0.22111593977E+03  0.32985213537E+03  0.17300000000E+03 0.  1.
<mgrwt>
<rscale>  2 0.24476555E+03</rscale>
<asrwt>0</asrwt>
<pdfrwt beam="1">  1       21 0.92930162E-01 0.24476555E+03</pdfrwt>
<pdfrwt beam="2">  1       21 0.15377420E-01 0.24476555E+03</pdfrwt>
<totfact> 0.35615562E+04</totfact>
</mgrwt>
</event>
<event>
 4    1  0.4327903E+000  0.2334022E+03  0.7546771E-02  0.1124268E+00
         21   -1    0    0  503  502  0.00000000000E+00  0.00000000000E+00  0.92270378527E+02  0.92270378527E+02  0.00000000000E+00 0. -1.
         21   -1    0    0  501  503 -0.00000000000E+00 -0.00000000000E+00 -0.89143151296E+03  0.89143151296E+03  0.00000000000E+00 0.  1.
          6    1    1    2  501    0  0.11310199783E+03 -0.10842286800E+03 -0.68540170078E+03  0.72405253376E+03  0.17300000000E+03 0.  1.
         -6    1    1    2    0  502 -0.11310199783E+03  0.10842286800E+03 -0.11375943365E+03  0.25964935772E+03  0.17300000000E+03 0. -1.
<mgrwt>
<rscale>  2 0.23340219E+03</rscale>
<asrwt>0</asrwt>
<pdfrwt beam="1">  1       21 0.14195443E-01 0.23340219E+03</pdfrwt>
<pdfrwt beam="2">  1       21 0.13714331E+00 0.23340219E+03</pdfrwt>
<totfact> 0.15938445E+04</totfact>
</mgrwt>
</event>
<event>
 4    1  0.4327903E+000  0.1981764E+03  0.7546771E-02  0.1151287E+00
         21   -1    0    0  501  502  0.00000000000E+00  0.00000000000E+00  0.14267294676E+04  0.14267294676E+04  0.00000000000E+00 0.  1.
         21   -1    0    0  502  503 -0.00000000000E+00 -0.00000000000E+00 -0.58328769711E+02  0.58328769711E+02  0.00000000000E+00 0.  1.
          6    1    1    2  501    0 -0.78540566717E+01 -0.96349391922E+02  0.12237835085E+04  0.12397257629E+04  0.17300000000E+03 0.  1.
         -6    1    1    2    0  503  0.78540566717E+01  0.96349391922E+02  0.14461718938E+03  0.24533247440E+03  0.17300000000E+03 0.  1.
<mgrwt>
<rscale>  2 0.19817642E+03</rscale>
<asrwt>0</asrwt>
<pdfrwt beam="1">  1       21 0.21949681E+00 0.19817642E+03</pdfrwt>
<pdfrwt beam="2">  1       21 0.89736580E-02 0.19817642E+03</pdfrwt>
<totfact> 0.98994145E+03</totfact>
</mgrwt>
</event>
<event>
 4    1  0.4327903E+000  0.2184183E+03  0.7546771E-02  0.1135068E+00
         21   -1    0    0  503  502  0.00000000000E+00  0.00000000000E+00  0.57301974132E+03  0.57301974132E+03  0.00000000000E+00 0.  1.
         21   -1    0    0  501  503 -0.00000000000E+00 -0.00000000000E+00 -0.99264695377E+02  0.99264695377E+02  0.00000000000E+00 0.  1.
          6    1    1    2  501    0 -0.55987322475E+02  0.12100817635E+03  0.10188120845E+03  0.24101107787E+03  0.17300000000E+03 0.  1.
         -6    1    1    2    0  502  0.55987322475E+02 -0.12100817635E+03  0.37187383749E+03  0.43127335883E+03  0.17300000000E+03 0.  1.
<mgrwt>
<rscale>  2 0.21841831E+03</rscale>
<asrwt>0</asrwt>
<pdfrwt beam="1">  1       21 0.88156881E-01 0.21841831E+03</pdfrwt>
<pdfrwt beam="2">  1       21 0.15271492E-01 0.21841831E+03</pdfrwt>
<totfact> 0.41289928E+04</totfact>
</mgrwt>
</event>
<event>
 4    1  0.4327903E+000  0.2779513E+03  0.7546771E-02  0.1096813E+00
         21   -1    0    0  501  502  0.00000000000E+00  0.00000000000E+00  0.21531327832E+03  0.21531327832E+03  0.00000000000E+00 0.  1.
         21   -1    0    0  502  503 -0.00000000000E+00 -0.00000000000E+00 -0.36638441217E+03  0.36638441217E+03  0.00000000000E+00 0. -1.
          6    1    1    2  501    0  0.86919842478E+01  0.21737608020E+03 -0.11735000376E+03  0.30170835954E+03  0.17300000000E+03 0. -1.
         -6    1    1    2    0  503 -0.86919842478E+01 -0.21737608020E+03 -0.33721130092E+02  0.27998933095E+03  0.17300000000E+03 0.  1.
<mgrwt>
<rscale>  2 0.27795127E+03</rscale>
<asrwt>0</asrwt>
<pdfrwt beam="1">  1       21 0.33125120E-01 0.27795127E+03</pdfrwt>
<pdfrwt beam="2">  1       21 0.56366833E-01 0.27795127E+03</pdfrwt>
<totfact> 0.24913475E+04</totfact>
</mgrwt>
</event>
<event>
 4    1  0.4327903E+000  0.2128369E+03  0.7546771E-02  0.1139339E+00
         21   -1    0    0  503  502  0.00000000000E+00  0.00000000000E+00  0.24472672600E+03  0.24472672600E+03  0.00000000000E+00 0. -1.
         21   -1    0    0  501  503 -0.00000000000E+00 -0.00000000000E+00 -0.24953099275E+03  0.24953099275E+03  0.00000000000E+00 0. -1.
          6    1    1    2  501    0  0.12369659827E+03  0.83485327925E+01 -0.12797620050E+03  0.24834946007E+03  0.17300000000E+03 0. -1.
         -6    1    1    2    0  502 -0.12369659827E+03 -0.83485327925E+01  0.12317193375E+03  0.24590825868E+03  0.17300000000E+03 0. -1.
<mgrwt>
<rscale>  2 0.21283690E+03</rscale>
<asrwt>0</asrwt>
<pdfrwt beam="1">  1       21 0.37650266E-01 0.21283690E+03</pdfrwt>
<pdfrwt beam="2">  1       21 0.38389383E-01 0.21283690E+03</pdfrwt>
<totfact> 0.44075255E+04</totfact>
</mgrwt>
</event>
<event>
 4    1  0.4327903E+000  0.1892123E+03  0.7546771E-02  0.1159174E+00
         21   -1    0    0  501  502  0.00000000000E+00  0.00000000000E+00  0.46024511336E+02  0.46024511336E+02  0.00000000000E+00 0.  1.
         21   -1    0    0  502  503 -0.00000000000E+00 -0.00000000000E+00 -0.13580346192E+04  0.13580346192E+04  0.00000000000E+00 0. -1.
          6    1    1    2  501    0 -0.76409508041E+02 -0.58209083674E+01 -0.19715171091E+03  0.27325828992E+03  0.17300000000E+03 0.  1.
         -6    1    1    2    0  503  0.76409508041E+02  0.58209083674E+01 -0.11148583970E+04  0.11308008407E+04  0.17300000000E+03 0. -1.
<mgrwt>
<rscale>  2 0.18921230E+03</rscale>
<asrwt>0</asrwt>
<pdfrwt beam="1">  1       21 0.70806952E-02 0.18921230E+03</pdfrwt>
<pdfrwt beam="2">  1       21 0.20892837E+00 0.18921230E+03</pdfrwt>
<totfact> 0.17525077E+04</totfact>
</mgrwt>
</event>
<event>
 4    1  0.4327903E+000  0.1879130E+03  0.7546771E-02  0.1160357E+00
         21   -1    0    0  501  502  0.00000000000E+00  0.00000000000E+00  0.17632292907E+02  0.17632292907E+02  0.00000000000E+00 0. -1.
         21   -1    0    0  502  503 -0.00000000000E+00 -0.00000000000E+00 -0.26063635374E+04  0.26063635374E+04  0.00000000000E+00 0. -1.
          6    1    1    2  501    0 -0.39743755989E+02  0.61666321192E+02 -0.19258044915E+04  0.19349507076E+04  0.17300000000E+03 0. -1.
         -6    1    1    2    0  503  0.39743755989E+02 -0.61666321192E+02 -0.66292675296E+03  0.68904512269E+03  0.17300000000E+03 0. -1.
<mgrwt>
<rscale>  2 0.18791302E+03</rscale>
<asrwt>0</asrwt>
<pdfrwt beam="1">  1       21 0.27126614E-02 0.18791302E+03</pdfrwt>
<pdfrwt beam="2">  1       21 0.40097887E+00 0.18791302E+03</pdfrwt>
<totfact> 0.64606054E+03</totfact>
</mgrwt>
</event>
<event>
 4    1  0.4327903E+000  0.1831266E+03  0.7546771E-02  0.1164811E+00
         21   -1    0    0  503  502  0.00000000000E+00  0.00000000000E+00  0.46234643819E+03  0.46234643819E+03  0.00000000000E+00 0.  1.
         21   -1    0    0  501  503 -0.00000000000E+00 -0.00000000000E+00 -0.78642342353E+02  0.78642342353E+02  0.00000000000E+00 0.  1.
          6    1    1    2  501    0 -0.60008559245E+02  0.23083365946E+01  0.11645945085E+03  0.21702110333E+03  0.17300000000E+03 0.  1.
         -6    1    1    2    0  502  0.60008559245E+02 -0.23083365946E+01  0.26724464499E+03  0.32396767721E+03  0.17300000000E+03 0.  1.
<mgrwt>
<rscale>  2 0.18312661E+03</rscale>
<asrwt>0</asrwt>
<pdfrwt beam="1">  1       21 0.71130220E-01 0.18312661E+03</pdfrwt>
<pdfrwt beam="2">  1       21 0.12098822E-01 0.18312661E+03</pdfrwt>
<totfact> 0.10380235E+05</totfact>
</mgrwt>
</event>
<event>
 4    1  0.4327903E+000  0.1852320E+03  0.7546771E-02  0.1162833E+00
         21   -1    0    0  501  502  0.00000000000E+00  0.00000000000E+00  0.84428969451E+02  0.84428969451E+02  0.00000000000E+00 0. -1.
         21   -1    0    0  502  503 -0.00000000000E+00 -0.00000000000E+00 -0.53952750901E+03  0.53952750901E+03  0.00000000000E+00 0. -1.
          6    1    1    2  501    0  0.57780377917E+02  0.32300590876E+02 -0.38252773797E+03  0.42501572978E+03  0.17300000000E+03 0. -1.
         -6    1    1    2    0  503 -0.57780377917E+02 -0.32300590876E+02 -0.72570801591E+02  0.19894074868E+03  0.17300000000E+03 0. -1.
<mgrwt>
<rscale>  2 0.18523202E+03</rscale>
<asrwt>0</asrwt>
<pdfrwt beam="1">  1       21 0.12989073E-01 0.18523202E+03</pdfrwt>
<pdfrwt beam="2">  1       21 0.83004228E-01 0.18523202E+03</pdfrwt>
<totfact> 0.64615169E+04</totfact>
</mgrwt>
</event>
<event>
 4    1  0.4327903E+000  0.2692985E+03  0.7546771E-02  0.1101682E+00
         21   -1    0    0  501  502  0.00000000000E+00  0.00000000000E+00  0.72207955314E+03  0.72207955314E+03  0.00000000000E+00 0.  1.
         21   -1    0    0  502  503 -0.00000000000E+00 -0.00000000000E+00 -0.10924036578E+03  0.10924036578E+03  0.00000000000E+00 0. -1.
          6    1    1    2  501    0 -0.20422303759E+03  0.29759462942E+02  0.18840560907E+03  0.32866144928E+03  0.17300000000E+03 0. -1.
         -6    1    1    2    0  503  0.20422303759E+03 -0.29759462942E+02  0.42443357829E+03  0.50265846963E+03  0.17300000000E+03 0.  1.
<mgrwt>
<rscale>  2 0.26929849E+03</rscale>
<asrwt>0</asrwt>
<pdfrwt beam="1">  1       21 0.11108916E+00 0.26929849E+03</pdfrwt>
<pdfrwt beam="2">  1       21 0.16806211E-01 0.26929849E+03</pdfrwt>
<totfact> 0.19476313E+04</totfact>
</mgrwt>
</event>
<event>
 4    1  0.4327903E+000  0.2173737E+03  0.7546771E-02  0.1135856E+00
         21   -1    0    0  501  502  0.00000000000E+00  0.00000000000E+00  0.11097070593E+03  0.11097070593E+03  0.00000000000E+00 0.  1.
         21   -1    0    0  502  503 -0.00000000000E+00 -0.00000000000E+00 -0.43165557734E+03  0.43165557734E+03  0.00000000000E+00 0.  1.
          6    1    1    2  501    0 -0.96350466422E+02  0.89659972903E+02 -0.19194251482E+03  0.28998836548E+03  0.17300000000E+03 0.  1.
         -6    1    1    2    0  503  0.96350466422E+02 -0.89659972903E+02 -0.12874235659E+03  0.25263791778E+03  0.17300000000E+03 0.  1.
<mgrwt>
<rscale>  2 0.21737369E+03</rscale>
<asrwt>0</asrwt>
<pdfrwt beam="1">  1       21 0.17072417E-01 0.21737369E+03</pdfrwt>
<pdfrwt beam="2">  1       21 0.66408549E-01 0.21737369E+03</pdfrwt>
<totfact> 0.63664272E+04</totfact>
</mgrwt>
</event>
<event>
 4    1  0.4327903E+000  0.2497236E+03  0.7546771E-02  0.1113480E+00
         21   -1    0    0  501  502  0.00000000000E+00  0.00000000000E+00  0.12676611214E+04  0.12676611214E+04  0.00000000000E+00 0. -1.
         21   -1    0    0  502  503 -0.00000000000E+00 -0.00000000000E+00 -0.85890880961E+02  0.85890880961E+02  0.00000000000E+00 0. -1.
          6    1    1    2  501    0 -0.17712664340E+03  0.32542816084E+02  0.10332527878E+04  0.10630019784E+04  0.17300000000E+03 0. -1.
         -6    1    1    2    0  503  0.17712664340E+03 -0.32542816084E+02  0.14851745271E+03  0.29055002399E+03  0.17300000000E+03 0. -1.
<mgrwt>
<rscale>  2 0.24972361E+03</rscale>
<asrwt>0</asrwt>
<pdfrwt beam="1">  1       21 0.19502477E+00 0.24972361E+03</pdfrwt>
<pdfrwt beam="2">  1       21 0.13213983E-01 0.24972361E+03</pdfrwt>
<totfact> 0.68225627E+03</totfact>
</mgrwt>
</event>
<event>
 4    1  0.4327903E+000  0.1745481E+03  0.7546771E-02  0.1173186E+00
         21   -1    0    0  503  502  0.00000000000E+00  0.00000000000E+00  0.89235180022E+03  0.89235180022E+03  0.00000000000E+00 0.  1.
         21   -1    0    0  501  503 -0.00000000000E+00 -0.00000000000E+00 -0.92983372895E+02  0.92983372895E+02  0.00000000000E+00 0.  1.
          6    1    1    2  501    0 -0.22034491536E+02 -0.72462765441E+01  0.79159867101E+03  0.81061426294E+03  0.17300000000E+03 0.  1.
         -6    1    1    2    0  502  0.22034491536E+02  0.72462765441E+01  0.77697563229E+01  0.17472091018E+03  0.17300000000E+03 0.  1.
<mgrwt>
<rscale>  2 0.17454807E+03</rscale>
<asrwt>0</asrwt>
<pdfrwt beam="1">  1       21 0.13728489E+00 0.17454807E+03</pdfrwt>
<pdfrwt beam="2">  1       21 0.14305135E-01 0.17454807E+03</pdfrwt>
<totfact> 0.16296598E+04</totfact>
</mgrwt>
</event>
<event>
 4    1  0.4327903E+000  0.2631098E+03  0.7546771E-02  0.1105289E+00
         21   -1    0    0  501  502  0.00000000000E+00  0.00000000000E+00  0.10581515769E+03  0.10581515769E+03  0.00000000000E+00 0. -1.
         21   -1    0    0  502  503 -0.00000000000E+00 -0.00000000000E+00 -0.65435250600E+03  0.65435250600E+03  0.00000000000E+00 0. -1.
          6    1    1    2  501    0  0.19742549894E+03  0.17915376273E+02 -0.27960045208E+03  0.38393124533E+03  0.17300000000E+03 0. -1.
         -6    1    1    2    0  503 -0.19742549894E+03 -0.17915376273E+02 -0.26893689623E+03  0.37623641835E+03  0.17300000000E+03 0. -1.
<mgrwt>
<rscale>  2 0.26310984E+03</rscale>
<asrwt>0</asrwt>
<pdfrwt beam="1">  1       21 0.16279255E-01 0.26310984E+03</pdfrwt>
<pdfrwt beam="2">  1       21 0.10066962E+00 0.26310984E+03</pdfrwt>
<totfact> 0.26312223E+04</totfact>
</mgrwt>
</event>
<event>
 4    1  0.4327903E+000  0.1939455E+03  0.7546771E-02  0.1154950E+00
         21   -1    0    0  501  502  0.00000000000E+00  0.00000000000E+00  0.26625909734E+03  0.26625909734E+03  0.00000000000E+00 0.  1.
         21   -1    0    0  502  503 -0.00000000000E+00 -0.00000000000E+00 -0.25318320950E+03  0.25318320950E+03  0.00000000000E+00 0.  1.
          6    1    1    2  501    0 -0.72997394960E+02  0.48551542790E+02  0.17921207277E+03  0.26406786818E+03  0.17300000000E+03 0.  1.
         -6    1    1    2    0  503  0.72997394960E+02 -0.48551542790E+02 -0.16613618494E+03  0.25537443866E+03  0.17300000000E+03 0.  1.
<mgrwt>
<rscale>  2 0.19394554E+03</rscale>
<asrwt>0</asrwt>
<pdfrwt beam="1">  1       21 0.40962938E-01 0.19394554E+03</pdfrwt>
<pdfrwt beam="2">  1       21 0.38951263E-01 0.19394554E+03</pdfrwt>
<totfact> 0.36457701E+04</totfact>
</mgrwt>
</event>
<event>
 4    1  0.4327903E+000  0.1808896E+03  0.7546771E-02  0.1166945E+00
         21   -1    0    0  503  502  0.00000000000E+00  0.00000000000E+00  0.15062848247E+03  0.15062848247E+03  0.00000000000E+00 0.  1.
         21   -1    0    0  501  503 -0.00000000000E+00 -0.00000000000E+00 -0.26157277038E+03  0.26157277038E+03  0.00000000000E+00 0.  1.
          6    1    1    2  501    0  0.44323624706E+02  0.28765933644E+02 -0.14033023180E+03  0.22894024679E+03  0.17300000000E+03 0.  1.
         -6    1    1    2    0  502 -0.44323624706E+02 -0.28765933644E+02  0.29385943886E+02  0.18326100606E+03  0.17300000000E+03 0.  1.
<mgrwt>
<rscale>  2 0.18088964E+03</rscale>
<asrwt>0</asrwt>
<pdfrwt beam="1">  1       21 0.23173613E-01 0.18088964E+03</pdfrwt>
<pdfrwt beam="2">  1       21 0.40241965E-01 0.18088964E+03</pdfrwt>
<totfact> 0.10457317E+05</totfact>
</mgrwt>
</event>
<event>
 4    1  0.4327903E+000  0.2109042E+03  0.7546771E-02  0.1140852E+00
         21   -1    0    0  501  502  0.00000000000E+00  0.00000000000E+00  0.78255748850E+02  0.78255748850E+02  0.00000000000E+00 0.  1.
         21   -1    0    0  502  503 -0.00000000000E+00 -0.00000000000E+00 -0.56847669669E+03  0.56847669669E+03  0.00000000000E+00 0.  1.
          6    1    1    2  501    0  0.93818891710E+02  0.75826129108E+02 -0.24136030511E+03  0.32052360784E+03  0.17300000000E+03 0.  1.
         -6    1    1    2    0  503 -0.93818891710E+02 -0.75826129108E+02 -0.24886064273E+03  0.32620883771E+03  0.17300000000E+03 0.  1.
<mgrwt>
<rscale>  2 0.21090421E+03</rscale>
<asrwt>0</asrwt>
<pdfrwt beam="1">  1       21 0.12039346E-01 0.21090421E+03</pdfrwt>
<pdfrwt beam="2">  1       21 0.87457950E-01 0.21090421E+03</pdfrwt>
<totfact> 0.64922307E+04</totfact>
</mgrwt>
</event>
<event>
 4    1  0.4327903E+000  0.1817656E+03  0.7546771E-02  0.1166105E+00
         21   -1    0    0  501  502  0.00000000000E+00  0.00000000000E+00  0.11022438133E+04  0.11022438133E+04  0.00000000000E+00 0. -1.
         21   -1    0    0  502  503 -0.00000000000E+00 -0.00000000000E+00 -0.29990121498E+02  0.29990121498E+02  0.00000000000E+00 0. -1.
          6    1    1    2  501    0 -0.24096444051E+02  0.50290140685E+02  0.52303110500E+03  0.55371497511E+03  0.17300000000E+03 0.  1.
         -6    1    1    2    0  503  0.24096444051E+02 -0.50290140685E+02  0.54922258685E+03  0.57851895973E+03  0.17300000000E+03 0.  1.
<mgrwt>
<rscale>  2 0.18176561E+03</rscale>
<asrwt>0</asrwt>
<pdfrwt beam="1">  1       21 0.16957594E+00 0.18176561E+03</pdfrwt>
<pdfrwt beam="2">  1       21 0.46138657E-02 0.18176561E+03</pdfrwt>
<totfact> 0.66616377E+04</totfact>
</mgrwt>
</event>
<event>
 4    1  0.4327903E+000  0.2268266E+03  0.7546771E-02  0.1128894E+00
         21   -1    0    0  501  502  0.00000000000E+00  0.00000000000E+00  0.14539892003E+04  0.14539892003E+04  0.00000000000E+00 0.  1.
         21   -1    0    0  502  503 -0.00000000000E+00 -0.00000000000E+00 -0.54227778567E+02  0.54227778567E+02  0.00000000000E+00 0. -1.
          6    1    1    2  501    0  0.14670092540E+03 -0.36599274020E+00  0.11443976958E+04  0.11666603540E+04  0.17300000000E+03 0.  1.
         -6    1    1    2    0  503 -0.14670092540E+03  0.36599274020E+00  0.25536372595E+03  0.34155662488E+03  0.17300000000E+03 0. -1.
<mgrwt>
<rscale>  2 0.22682658E+03</rscale>
<asrwt>0</asrwt>
<pdfrwt beam="1">  1       21 0.22369062E+00 0.22682658E+03</pdfrwt>
<pdfrwt beam="2">  1       21 0.83427363E-02 0.22682658E+03</pdfrwt>
<totfact> 0.10350900E+04</totfact>
</mgrwt>
</event>
<event>
 4    1  0.4327903E+000  0.2671871E+03  0.7546771E-02  0.1102900E+00
         21   -1    0    0  503  502  0.00000000000E+00  0.00000000000E+00  0.15449219756E+03  0.15449219756E+03  0.00000000000E+00 0.  1.
         21   -1    0    0  501  503 -0.00000000000E+00 -0.00000000000E+00 -0.58112314729E+03  0.58112314729E+03  0.00000000000E+00 0.  1.
          6    1    1    2  501    0  0.17119326711E+03 -0.11023968683E+03 -0.37978130425E+03  0.46435198105E+03  0.17300000000E+03 0.  1.
         -6    1    1    2    0  502 -0.17119326711E+03  0.11023968683E+03 -0.46849645481E+02  0.27126336379E+03  0.17300000000E+03 0.  1.
<mgrwt>
<rscale>  2 0.26718706E+03</rscale>
<asrwt>0</asrwt>
<pdfrwt beam="1">  1       21 0.23768030E-01 0.26718706E+03</pdfrwt>
<pdfrwt beam="2">  1       21 0.89403564E-01 0.26718706E+03</pdfrwt>
<totfact> 0.17072260E+04</totfact>
</mgrwt>
</event>
<event>
 4    1  0.4327903E+000  0.1839024E+03  0.7546771E-02  0.1164079E+00
         21   -1    0    0  503  502  0.00000000000E+00  0.00000000000E+00  0.71740804387E+03  0.71740804387E+03  0.00000000000E+00 0.  1.
         21   -1    0    0  501  503 -0.00000000000E+00 -0.00000000000E+00 -0.15184806532E+03  0.15184806532E+03  0.00000000000E+00 0.  1.
          6    1    1    2  501    0  0.35427889220E+02 -0.51341720662E+02 -0.78129979387E+02  0.19981091385E+03  0.17300000000E+03 0.  1.
         -6    1    1    2    0  502 -0.35427889220E+02  0.51341720662E+02  0.64368995793E+03  0.66944519534E+03  0.17300000000E+03 0.  1.
<mgrwt>
<rscale>  2 0.18390244E+03</rscale>
<asrwt>0</asrwt>
<pdfrwt beam="1">  1       21 0.11037047E+00 0.18390244E+03</pdfrwt>
<pdfrwt beam="2">  1       21 0.23361241E-01 0.18390244E+03</pdfrwt>
<totfact> 0.11231731E+04</totfact>
</mgrwt>
</event>
<event>
 4    1  0.4327903E+000  0.1733645E+03  0.7546771E-02  0.1174384E+00
         21   -1    0    0  503  502  0.00000000000E+00  0.00000000000E+00  0.21915833281E+02  0.21915833281E+02  0.00000000000E+00 0.  1.
         21   -1    0    0  501  503 -0.00000000000E+00 -0.00000000000E+00 -0.15221298964E+04  0.15221298964E+04  0.00000000000E+00 0.  1.
          6    1    1    2  501    0 -0.10101481992E+02 -0.49194565874E+01 -0.99305469841E+03  0.10080738440E+04  0.17300000000E+03 0. -1.
         -6    1    1    2    0  502  0.10101481992E+02  0.49194565874E+01 -0.50715936469E+03  0.53597188563E+03  0.17300000000E+03 0. -1.
<mgrwt>
<rscale>  2 0.17336447E+03</rscale>
<asrwt>0</asrwt>
<pdfrwt beam="1">  1       21 0.33716672E-02 0.17336447E+03</pdfrwt>
<pdfrwt beam="2">  1       21 0.23417379E+00 0.17336447E+03</pdfrwt>
<totfact> 0.43669411E+04</totfact>
</mgrwt>
</event>
<event>
 4    1  0.4327903E+000  0.2288177E+03  0.7546771E-02  0.1127475E+00
         21   -1    0    0  503  502  0.00000000000E+00  0.00000000000E+00  0.11477146731E+04  0.11477146731E+04  0.00000000000E+00 0. -1.
         21   -1    0    0  501  503 -0.00000000000E+00 -0.00000000000E+00 -0.48029109412E+02  0.48029109412E+02  0.00000000000E+00 0. -1.
          6    1    1    2  501    0  0.13022368433E+03 -0.73961793645E+02  0.41591291086E+03  0.47470106836E+03  0.17300000000E+03 0. -1.
         -6    1    1    2    0  502 -0.13022368433E+03  0.73961793645E+02  0.68377265280E+03  0.72104271413E+03  0.17300000000E+03 0. -1.
<mgrwt>
<rscale>  2 0.22881773E+03</rscale>
<asrwt>0</asrwt>
<pdfrwt beam="1">  1       21 0.17657147E+00 0.22881773E+03</pdfrwt>
<pdfrwt beam="2">  1       21 0.73890946E-02 0.22881773E+03</pdfrwt>
<totfact> 0.25839681E+04</totfact>
</mgrwt>
</event>
<event>
 4    1  0.4327903E+000  0.1742220E+03  0.7546771E-02  0.1173515E+00
         21   -1    0    0  503  502  0.00000000000E+00  0.00000000000E+00  0.24504988827E+03  0.24504988827E+03  0.00000000000E+00 0. -1.
         21   -1    0    0  501  503 -0.00000000000E+00 -0.00000000000E+00 -0.20878011962E+03  0.20878011962E+03  0.00000000000E+00 0. -1.
          6    1    1    2  501    0  0.17430518895E+02  0.10975800534E+02 -0.12657866845E+03  0.21534960063E+03  0.17300000000E+03 0. -1.
         -6    1    1    2    0  502 -0.17430518895E+02 -0.10975800534E+02  0.16284843709E+03  0.23848040727E+03  0.17300000000E+03 0. -1.
<mgrwt>
<rscale>  2 0.17422196E+03</rscale>
<asrwt>0</asrwt>
<pdfrwt beam="1">  1       21 0.37699983E-01 0.17422196E+03</pdfrwt>
<pdfrwt beam="2">  1       21 0.32120018E-01 0.17422196E+03</pdfrwt>
<totfact> 0.63782352E+04</totfact>
</mgrwt>
</event>
<event>
 4    1  0.4327903E+000  0.1864468E+03  0.7546771E-02  0.1161706E+00
         21   -1    0    0  501  502  0.00000000000E+00  0.00000000000E+00  0.15352527675E+03  0.15352527675E+03  0.00000000000E+00 0.  1.
         21   -1    0    0  502  503 -0.00000000000E+00 -0.00000000000E+00 -0.15873393920E+04  0.15873393920E+04  0.00000000000E+00 0.  1.
          6    1    1    2  501    0  0.64976519206E+02 -0.24727834905E+02  0.89055842904E+02  0.20662370876E+03  0.17300000000E+03 0.  1.
         -6    1    1    2    0  503 -0.64976519206E+02  0.24727834905E+02 -0.15228699581E+04  0.15342409600E+04  0.17300000000E+03 0.  1.
<mgrwt>
<rscale>  2 0.18644681E+03</rscale>
<asrwt>0</asrwt>
<pdfrwt beam="1">  1       21 0.23619274E-01 0.18644681E+03</pdfrwt>
<pdfrwt beam="2">  1       21 0.24420606E+00 0.18644681E+03</pdfrwt>
<totfact> 0.12232837E+03</totfact>
</mgrwt>
</event>
<event>
 4    1  0.4327903E+000  0.1921099E+03  0.7546771E-02  0.1156572E+00
         21   -1    0    0  501  502  0.00000000000E+00  0.00000000000E+00  0.43460383916E+03  0.43460383916E+03  0.00000000000E+00 0.  1.
         21   -1    0    0  502  503 -0.00000000000E+00 -0.00000000000E+00 -0.16859775444E+03  0.16859775444E+03  0.00000000000E+00 0.  1.
          6    1    1    2  501    0 -0.83529263666E+02 -0.25585184961E+00  0.34548091909E+03  0.39530149103E+03  0.17300000000E+03 0.  1.
         -6    1    1    2    0  503  0.83529263666E+02  0.25585184961E+00 -0.79474834373E+02  0.20790010257E+03  0.17300000000E+03 0.  1.
<mgrwt>
<rscale>  2 0.19210987E+03</rscale>
<asrwt>0</asrwt>
<pdfrwt beam="1">  1       21 0.66862129E-01 0.19210987E+03</pdfrwt>
<pdfrwt beam="2">  1       21 0.25938116E-01 0.19210987E+03</pdfrwt>
<totfact> 0.28937619E+04</totfact>
</mgrwt>
</event>
<event>
 4    1  0.4327903E+000  0.1867428E+03  0.7546771E-02  0.1161432E+00
         21   -1    0    0  503  502  0.00000000000E+00  0.00000000000E+00  0.13210064375E+03  0.13210064375E+03  0.00000000000E+00 0. -1.
         21   -1    0    0  501  503 -0.00000000000E+00 -0.00000000000E+00 -0.27943037143E+03  0.27943037143E+03  0.00000000000E+00 0.  1.
          6    1    1    2  501    0  0.64611573860E+02 -0.27734563721E+02 -0.12203818296E+03  0.22308334676E+03  0.17300000000E+03 0.  1.
         -6    1    1    2    0  502 -0.64611573860E+02  0.27734563721E+02 -0.25291544716E+02  0.18844766843E+03  0.17300000000E+03 0. -1.
<mgrwt>
<rscale>  2 0.18674277E+03</rscale>
<asrwt>0</asrwt>
<pdfrwt beam="1">  1       21 0.20323176E-01 0.18674277E+03</pdfrwt>
<pdfrwt beam="2">  1       21 0.42989288E-01 0.18674277E+03</pdfrwt>
<totfact> 0.11681180E+05</totfact>
</mgrwt>
</event>
<event>
 4    1  0.4327903E+000  0.2561234E+03  0.7546771E-02  0.1109495E+00
         21   -1    0    0  501  502  0.00000000000E+00  0.00000000000E+00  0.24510936418E+03  0.24510936418E+03  0.00000000000E+00 0.  1.
         21   -1    0    0  502  503 -0.00000000000E+00 -0.00000000000E+00 -0.31600173796E+03  0.31600173796E+03  0.00000000000E+00 0.  1.
          6    1    1    2  501    0 -0.32034140269E+02 -0.18612898672E+03  0.74317730153E+02  0.26668766536E+03  0.17300000000E+03 0.  1.
         -6    1    1    2    0  503  0.32034140269E+02  0.18612898672E+03 -0.14521010393E+03  0.29442343678E+03  0.17300000000E+03 0.  1.
<mgrwt>
<rscale>  2 0.25612338E+03</rscale>
<asrwt>0</asrwt>
<pdfrwt beam="1">  1       21 0.37709133E-01 0.25612338E+03</pdfrwt>
<pdfrwt beam="2">  1       21 0.48615652E-01 0.25612338E+03</pdfrwt>
<totfact> 0.26530583E+04</totfact>
</mgrwt>
</event>
<event>
 4    1  0.4327903E+000  0.1957543E+03  0.7546771E-02  0.1153371E+00
         21   -1    0    0  501  502  0.00000000000E+00  0.00000000000E+00  0.45729354854E+02  0.45729354854E+02  0.00000000000E+00 0.  1.
         21   -1    0    0  502  503 -0.00000000000E+00 -0.00000000000E+00 -0.90245221795E+03  0.90245221795E+03  0.00000000000E+00 0.  1.
          6    1    1    2  501    0  0.40072655669E+02  0.82370603282E+02 -0.30163235402E+03  0.35958561013E+03  0.17300000000E+03 0.  1.
         -6    1    1    2    0  503 -0.40072655669E+02 -0.82370603282E+02 -0.55509050908E+03  0.58859596268E+03  0.17300000000E+03 0.  1.
<mgrwt>
<rscale>  2 0.19575427E+03</rscale>
<asrwt>0</asrwt>
<pdfrwt beam="1">  1       21 0.70352855E-02 0.19575427E+03</pdfrwt>
<pdfrwt beam="2">  1       21 0.13883880E+00 0.19575427E+03</pdfrwt>
<totfact> 0.54734451E+04</totfact>
</mgrwt>
</event>
<event>
 4    1  0.4327903E+000  0.2692214E+03  0.7546771E-02  0.1101726E+00
         21   -1    0    0  503  502  0.00000000000E+00  0.00000000000E+00  0.91618797462E+03  0.91618797462E+03  0.00000000000E+00 0.  1.
         21   -1    0    0  501  503 -0.00000000000E+00 -0.00000000000E+00 -0.82981508986E+02  0.82981508986E+02  0.00000000000E+00 0. -1.
          6    1    1    2  501    0 -0.10929622788E+03  0.17494432684E+03  0.30870239261E+03  0.40960633555E+03  0.17300000000E+03 0. -1.
         -6    1    1    2    0  502  0.10929622788E+03 -0.17494432684E+03  0.52450407302E+03  0.58956314805E+03  0.17300000000E+03 0.  1.
<mgrwt>
<rscale>  2 0.26922144E+03</rscale>
<asrwt>0</asrwt>
<pdfrwt beam="1">  1       21 0.14095199E+00 0.26922144E+03</pdfrwt>
<pdfrwt beam="2">  1       21 0.12766387E-01 0.26922144E+03</pdfrwt>
<totfact> 0.17650650E+04</totfact>
</mgrwt>
</event>
<event>
 4    1  0.4327903E+000  0.1889847E+03  0.7546771E-02  0.1159380E+00
         21   -1    0    0  503  502  0.00000000000E+00  0.00000000000E+00  0.47809105769E+03  0.47809105769E+03  0.00000000000E+00 0. -1.
         21   -1    0    0  501  503 -0.00000000000E+00 -0.00000000000E+00 -0.34173128339E+03  0.34173128339E+03  0.00000000000E+00 0. -1.
          6    1    1    2  501    0 -0.74150179374E+02 -0.16969318195E+02 -0.29416771049E+03  0.34964245846E+03  0.17300000000E+03 0. -1.
         -6    1    1    2    0  502  0.74150179374E+02  0.16969318195E+02  0.43052748479E+03  0.47017988262E+03  0.17300000000E+03 0. -1.
<mgrwt>
<rscale>  2 0.18898467E+03</rscale>
<asrwt>0</asrwt>
<pdfrwt beam="1">  1       21 0.73552471E-01 0.18898467E+03</pdfrwt>
<pdfrwt beam="2">  1       21 0.52574043E-01 0.18898467E+03</pdfrwt>
<totfact> 0.57122667E+03</totfact>
</mgrwt>
</event>
<event>
 4    1  0.4327903E+000  0.1994953E+03  0.7546771E-02  0.1150166E+00
         21   -1    0    0  503  502  0.00000000000E+00  0.00000000000E+00  0.57626316517E+02  0.57626316517E+02  0.00000000000E+00 0.  1.
         21   -1    0    0  501  503 -0.00000000000E+00 -0.00000000000E+00 -0.73029562747E+03  0.73029562747E+03  0.00000000000E+00 0.  1.
          6    1    1    2  501    0 -0.80490912593E+02 -0.58228806187E+02 -0.42815074951E+03  0.47234674254E+03  0.17300000000E+03 0.  1.
         -6    1    1    2    0  502  0.80490912593E+02  0.58228806187E+02 -0.24451856144E+03  0.31557520145E+03  0.17300000000E+03 0.  1.
<mgrwt>
<rscale>  2 0.19949532E+03</rscale>
<asrwt>0</asrwt>
<pdfrwt beam="1">  1       21 0.88655874E-02 0.19949532E+03</pdfrwt>
<pdfrwt beam="2">  1       21 0.11235317E+00 0.19949532E+03</pdfrwt>
<totfact> 0.62013623E+04</totfact>
</mgrwt>
</event>
<event>
 4    1  0.4327903E+000  0.3039034E+03  0.7546771E-02  0.1083305E+00
         21   -1    0    0  501  502  0.00000000000E+00  0.00000000000E+00  0.37186565201E+03  0.37186565201E+03  0.00000000000E+00 0. -1.
         21   -1    0    0  502  503 -0.00000000000E+00 -0.00000000000E+00 -0.48135754564E+03  0.48135754564E+03  0.00000000000E+00 0.  1.
          6    1    1    2  501    0 -0.16845335970E+03  0.18453114783E+03  0.24206001597E+03  0.38852326860E+03  0.17300000000E+03 0. -1.
         -6    1    1    2    0  503  0.16845335970E+03 -0.18453114783E+03 -0.35155190961E+03  0.46469992905E+03  0.17300000000E+03 0.  1.
<mgrwt>
<rscale>  2 0.30390340E+03</rscale>
<asrwt>0</asrwt>
<pdfrwt beam="1">  1       21 0.57210101E-01 0.30390340E+03</pdfrwt>
<pdfrwt beam="2">  1       21 0.74055007E-01 0.30390340E+03</pdfrwt>
<totfact> 0.43686388E+03</totfact>
</mgrwt>
</event>
<event>
 4    1  0.4327903E+000  0.1770549E+03  0.7546771E-02  0.1170684E+00
         21   -1    0    0  501  502  0.00000000000E+00  0.00000000000E+00  0.31417269683E+03  0.31417269683E+03  0.00000000000E+00 0. -1.
         21   -1    0    0  502  503 -0.00000000000E+00 -0.00000000000E+00 -0.15390243884E+03  0.15390243884E+03  0.00000000000E+00 0. -1.
          6    1    1    2  501    0 -0.28249607482E+02 -0.24927573126E+02  0.21892188475E+03  0.28155854781E+03  0.17300000000E+03 0. -1.
         -6    1    1    2    0  503  0.28249607482E+02  0.24927573126E+02 -0.58651626754E+02  0.18651658786E+03  0.17300000000E+03 0. -1.
<mgrwt>
<rscale>  2 0.17705486E+03</rscale>
<asrwt>0</asrwt>
<pdfrwt beam="1">  1       21 0.48334261E-01 0.17705486E+03</pdfrwt>
<pdfrwt beam="2">  1       21 0.23677298E-01 0.17705486E+03</pdfrwt>
<totfact> 0.69144367E+04</totfact>
</mgrwt>
</event>
<event>
 4    1  0.4327903E+000  0.1833563E+03  0.7546771E-02  0.1164594E+00
         21   -1    0    0  501  502  0.00000000000E+00  0.00000000000E+00  0.18181937437E+03  0.18181937437E+03  0.00000000000E+00 0. -1.
         21   -1    0    0  502  503 -0.00000000000E+00 -0.00000000000E+00 -0.25370179094E+03  0.25370179094E+03  0.00000000000E+00 0. -1.
          6    1    1    2  501    0 -0.59858519382E+02  0.10368445499E+02  0.77454731336E+02  0.19904467441E+03  0.17300000000E+03 0. -1.
         -6    1    1    2    0  503  0.59858519382E+02 -0.10368445499E+02 -0.14933714790E+03  0.23647649090E+03  0.17300000000E+03 0. -1.
<mgrwt>
<rscale>  2 0.18335634E+03</rscale>
<asrwt>0</asrwt>
<pdfrwt beam="1">  1       21 0.27972211E-01 0.18335634E+03</pdfrwt>
<pdfrwt beam="2">  1       21 0.39031045E-01 0.18335634E+03</pdfrwt>
<totfact> 0.77550110E+04</totfact>
</mgrwt>
</event>
<event>
 4    1  0.4327903E+000  0.1896662E+03  0.7546771E-02  0.1158763E+00
         21   -1    0    0  503  502  0.00000000000E+00  0.00000000000E+00  0.19253956896E+03  0.19253956896E+03  0.00000000000E+00 0. -1.
         21   -1    0    0  501  503 -0.00000000000E+00 -0.00000000000E+00 -0.18824502934E+03  0.18824502934E+03  0.00000000000E+00 0.  1.
          6    1    1    2  501    0 -0.60166608782E+02 -0.49236515343E+02  0.18621372900E+02  0.19057809629E+03  0.17300000000E+03 0.  1.
         -6    1    1    2    0  502  0.60166608782E+02  0.49236515343E+02 -0.14326833277E+02  0.19020650201E+03  0.17300000000E+03 0. -1.
<mgrwt>
<rscale>  2 0.18966617E+03</rscale>
<asrwt>0</asrwt>
<pdfrwt beam="1">  1       21 0.29621472E-01 0.18966617E+03</pdfrwt>
<pdfrwt beam="2">  1       21 0.28960774E-01 0.18966617E+03</pdfrwt>
<totfact> 0.12479121E+05</totfact>
</mgrwt>
</event>
<event>
 4    1  0.4327903E+000  0.1941371E+03  0.7546771E-02  0.1154782E+00
         21   -1    0    0  503  502  0.00000000000E+00  0.00000000000E+00  0.81601447461E+03  0.81601447461E+03  0.00000000000E+00 0. -1.
         21   -1    0    0  501  503 -0.00000000000E+00 -0.00000000000E+00 -0.49123089651E+02  0.49123089651E+02  0.00000000000E+00 0.  1.
          6    1    1    2  501    0  0.74215528379E+02 -0.47458043473E+02  0.27769054286E+03  0.33882332880E+03  0.17300000000E+03 0.  1.
         -6    1    1    2    0  502 -0.74215528379E+02  0.47458043473E+02  0.48920084210E+03  0.52631423547E+03  0.17300000000E+03 0. -1.
<mgrwt>
<rscale>  2 0.19413709E+03</rscale>
<asrwt>0</asrwt>
<pdfrwt beam="1">  1       21 0.12554068E+00 0.19413709E+03</pdfrwt>
<pdfrwt beam="2">  1       21 0.75573990E-02 0.19413709E+03</pdfrwt>
<totfact> 0.62471331E+04</totfact>
</mgrwt>
</event>
<event>
 4    1  0.4327903E+000  0.1782306E+03  0.7546771E-02  0.1169526E+00
         21   -1    0    0  501  502  0.00000000000E+00  0.00000000000E+00  0.53911309973E+03  0.53911309973E+03  0.00000000000E+00 0.  1.
         21   -1    0    0  502  503 -0.00000000000E+00 -0.00000000000E+00 -0.17033689855E+03  0.17033689855E+03  0.00000000000E+00 0.  1.
          6    1    1    2  501    0 -0.32785899952E+02  0.27608858892E+02  0.47127261266E+03  0.50384922325E+03  0.17300000000E+03 0.  1.
         -6    1    1    2    0  503  0.32785899952E+02 -0.27608858892E+02 -0.10249641148E+03  0.20560077503E+03  0.17300000000E+03 0.  1.
<mgrwt>
<rscale>  2 0.17823065E+03</rscale>
<asrwt>0</asrwt>
<pdfrwt beam="1">  1       21 0.82940476E-01 0.17823065E+03</pdfrwt>
<pdfrwt beam="2">  1       21 0.26205677E-01 0.17823065E+03</pdfrwt>
<totfact> 0.17699060E+04</totfact>
</mgrwt>
</event>
<event>
 4    1  0.4327903E+000  0.2029424E+03  0.7546771E-02  0.1147280E+00
         21   -1    0    0  503  502  0.00000000000E+00  0.00000000000E+00  0.95286790309E+02  0.95286790309E+02  0.00000000000E+00 0.  1.
         21   -1    0    0  501  503 -0.00000000000E+00 -0.00000000000E+00 -0.45091323074E+03  0.45091323074E+03  0.00000000000E+00 0.  1.
          6    1    1    2  501    0 -0.16966619556E+02  0.10473186647E+03 -0.23340660165E+03  0.30929641402E+03  0.17300000000E+03 0.  1.
         -6    1    1    2    0  502  0.16966619556E+02 -0.10473186647E+03 -0.12221983879E+03  0.23690360704E+03  0.17300000000E+03 0.  1.
<mgrwt>
<rscale>  2 0.20294243E+03</rscale>
<asrwt>0</asrwt>
<pdfrwt beam="1">  1       21 0.14659507E-01 0.20294243E+03</pdfrwt>
<pdfrwt beam="2">  1       21 0.69371264E-01 0.20294243E+03</pdfrwt>
<totfact> 0.76956366E+04</totfact>
</mgrwt>
</event>
<event>
 4    1  0.4327903E+000  0.2375126E+03  0.7546771E-02  0.1121461E+00
         21   -1    0    0  501  502  0.00000000000E+00  0.00000000000E+00  0.10310229237E+04  0.10310229237E+04  0.00000000000E+00 0.  1.
         21   -1    0    0  502  503 -0.00000000000E+00 -0.00000000000E+00 -0.80428927828E+02  0.80428927828E+02  0.00000000000E+00 0. -1.
          6    1    1    2  501    0  0.11232382644E+03  0.11775646106E+03  0.16107230480E+03  0.28697824566E+03  0.17300000000E+03 0. -1.
         -6    1    1    2    0  503 -0.11232382644E+03 -0.11775646106E+03  0.78952169110E+03  0.82447360589E+03  0.17300000000E+03 0.  1.
<mgrwt>
<rscale>  2 0.23751258E+03</rscale>
<asrwt>0</asrwt>
<pdfrwt beam="1">  1       21 0.15861890E+00 0.23751258E+03</pdfrwt>
<pdfrwt beam="2">  1       21 0.12373682E-01 0.23751258E+03</pdfrwt>
<totfact> 0.13881109E+04</totfact>
</mgrwt>
</event>
<event>
 4    1  0.4327903E+000  0.2639874E+03  0.7546771E-02  0.1104771E+00
         21   -1    0    0  503  502  0.00000000000E+00  0.00000000000E+00  0.12025382397E+03  0.12025382397E+03  0.00000000000E+00 0. -1.
         21   -1    0    0  501  503 -0.00000000000E+00 -0.00000000000E+00 -0.61170695498E+03  0.61170695498E+03  0.00000000000E+00 0.  1.
          6    1    1    2  501    0  0.76260993270E+02 -0.18424065114E+03 -0.16177401886E+03  0.30961296776E+03  0.17300000000E+03 0. -1.
         -6    1    1    2    0  502 -0.76260993270E+02  0.18424065114E+03 -0.32967911215E+03  0.42234781119E+03  0.17300000000E+03 0.  1.
<mgrwt>
<rscale>  2 0.26398742E+03</rscale>
<asrwt>0</asrwt>
<pdfrwt beam="1">  1       21 0.18500588E-01 0.26398742E+03</pdfrwt>
<pdfrwt beam="2">  1       21 0.94108763E-01 0.26398742E+03</pdfrwt>
<totfact> 0.24344731E+04</totfact>
</mgrwt>
</event>
<event>
 4    1  0.4327903E+000  0.1888379E+03  0.7546771E-02  0.1159514E+00
         21   -1    0    0  503  502  0.00000000000E+00  0.00000000000E+00  0.12678132153E+03  0.12678132153E+03  0.00000000000E+00 0.  1.
         21   -1    0    0  501  503 -0.00000000000E+00 -0.00000000000E+00 -0.34724134395E+03  0.34724134395E+03  0.00000000000E+00 0.  1.
          6    1    1    2  501    0 -0.56800749421E+02  0.50044229927E+02 -0.21353752277E+03  0.28505793045E+03  0.17300000000E+03 0.  1.
         -6    1    1    2    0  502  0.56800749421E+02 -0.50044229927E+02 -0.69224996479E+01  0.18896473503E+03  0.17300000000E+03 0.  1.
<mgrwt>
<rscale>  2 0.18883789E+03</rscale>
<asrwt>0</asrwt>
<pdfrwt beam="1">  1       21 0.19504819E-01 0.18883789E+03</pdfrwt>
<pdfrwt beam="2">  1       21 0.53421744E-01 0.18883789E+03</pdfrwt>
<totfact> 0.80356304E+04</totfact>
</mgrwt>
</event>
<event>
 4    1  0.4327903E+000  0.2388697E+03  0.7546771E-02  0.1120548E+00
         21   -1    0    0  503  502  0.00000000000E+00  0.00000000000E+00  0.13097680172E+04  0.13097680172E+04  0.00000000000E+00 0.  1.
         21   -1    0    0  501  503 -0.00000000000E+00 -0.00000000000E+00 -0.43580215103E+02  0.43580215103E+02  0.00000000000E+00 0. -1.
          6    1    1    2  501    0 -0.16411950188E+03  0.13946759563E+02  0.64614978178E+03  0.68888915182E+03  0.17300000000E+03 0.  1.
         -6    1    1    2    0  502  0.16411950188E+03 -0.13946759563E+02  0.62003802028E+03  0.66445908045E+03  0.17300000000E+03 0.  1.
<mgrwt>
<rscale>  2 0.23886968E+03</rscale>
<asrwt>0</asrwt>
<pdfrwt beam="1">  1       21 0.20150274E+00 0.23886968E+03</pdfrwt>
<pdfrwt beam="2">  1       21 0.67046495E-02 0.23886968E+03</pdfrwt>
<totfact> 0.20714013E+04</totfact>
</mgrwt>
</event>
<event>
 4    1  0.4327903E+000  0.1980988E+03  0.7546771E-02  0.1151353E+00
         21   -1    0    0  503  502  0.00000000000E+00  0.00000000000E+00  0.63710942643E+03  0.63710942643E+03  0.00000000000E+00 0.  1.
         21   -1    0    0  501  503 -0.00000000000E+00 -0.00000000000E+00 -0.10903946114E+03  0.10903946114E+03  0.00000000000E+00 0.  1.
          6    1    1    2  501    0  0.63322508881E+02 -0.72831311999E+02  0.17945164596E+02  0.19890995217E+03  0.17300000000E+03 0.  1.
         -6    1    1    2    0  502 -0.63322508881E+02  0.72831311999E+02  0.51012480070E+03  0.54723893540E+03  0.17300000000E+03 0.  1.
<mgrwt>
<rscale>  2 0.19809881E+03</rscale>
<asrwt>0</asrwt>
<pdfrwt beam="1">  1       21 0.98016833E-01 0.19809881E+03</pdfrwt>
<pdfrwt beam="2">  1       21 0.16775302E-01 0.19809881E+03</pdfrwt>
<totfact> 0.27430922E+04</totfact>
</mgrwt>
</event>
<event>
 4    1  0.4327903E+000  0.2034647E+03  0.7546771E-02  0.1146848E+00
         21   -1    0    0  501  502  0.00000000000E+00  0.00000000000E+00  0.20927628077E+03  0.20927628077E+03  0.00000000000E+00 0.  1.
         21   -1    0    0  502  503 -0.00000000000E+00 -0.00000000000E+00 -0.19851650015E+03  0.19851650015E+03  0.00000000000E+00 0.  1.
          6    1    1    2  501    0  0.10663517152E+03  0.98906340530E+01  0.17504770805E+02  0.20421631043E+03  0.17300000000E+03 0.  1.
         -6    1    1    2    0  503 -0.10663517152E+03 -0.98906340530E+01 -0.67449901863E+01  0.20357647049E+03  0.17300000000E+03 0.  1.
<mgrwt>
<rscale>  2 0.20346470E+03</rscale>
<asrwt>0</asrwt>
<pdfrwt beam="1">  1       21 0.32196351E-01 0.20346470E+03</pdfrwt>
<pdfrwt beam="2">  1       21 0.30541000E-01 0.20346470E+03</pdfrwt>
<totfact> 0.95080795E+04</totfact>
</mgrwt>
</event>
<event>
 4    1  0.4327903E+000  0.1846721E+03  0.7546771E-02  0.1163356E+00
         21   -1    0    0  501  502  0.00000000000E+00  0.00000000000E+00  0.23641983057E+03  0.23641983057E+03  0.00000000000E+00 0. -1.
         21   -1    0    0  502  503 -0.00000000000E+00 -0.00000000000E+00 -0.14427676048E+03  0.14427676048E+03  0.00000000000E+00 0. -1.
          6    1    1    2  501    0  0.37575772155E+02 -0.52562909682E+02  0.43528297840E+02  0.18973273529E+03  0.17300000000E+03 0. -1.
         -6    1    1    2    0  503 -0.37575772155E+02  0.52562909682E+02  0.48614772247E+02  0.19096385576E+03  0.17300000000E+03 0. -1.
<mgrwt>
<rscale>  2 0.18467214E+03</rscale>
<asrwt>0</asrwt>
<pdfrwt beam="1">  1       21 0.36372282E-01 0.18467214E+03</pdfrwt>
<pdfrwt beam="2">  1       21 0.22196425E-01 0.18467214E+03</pdfrwt>
<totfact> 0.13874064E+05</totfact>
</mgrwt>
</event>
<event>
 4    1  0.4327903E+000  0.1732266E+03  0.7546771E-02  0.1174524E+00
         21   -1    0    0  501  502  0.00000000000E+00  0.00000000000E+00  0.11651898532E+03  0.11651898532E+03  0.00000000000E+00 0. -1.
         21   -1    0    0  502  503 -0.00000000000E+00 -0.00000000000E+00 -0.45657788660E+03  0.45657788660E+03  0.00000000000E+00 0. -1.
          6    1    1    2  501    0 -0.55801969994E+01 -0.68776520589E+01  0.19168541076E+02  0.17428388813E+03  0.17300000000E+03 0. -1.
         -6    1    1    2    0  503  0.55801969994E+01  0.68776520589E+01 -0.35922744236E+03  0.39881298379E+03  0.17300000000E+03 0. -1.
<mgrwt>
<rscale>  2 0.17322656E+03</rscale>
<asrwt>0</asrwt>
<pdfrwt beam="1">  1       21 0.17925998E-01 0.17322656E+03</pdfrwt>
<pdfrwt beam="2">  1       21 0.70242751E-01 0.17322656E+03</pdfrwt>
<totfact> 0.52507271E+04</totfact>
</mgrwt>
</event>
<event>
 4    1  0.4327903E+000  0.1798346E+03  0.7546771E-02  0.1167963E+00
         21   -1    0    0  503  502  0.00000000000E+00  0.00000000000E+00  0.56861436262E+03  0.56861436262E+03  0.00000000000E+00 0. -1.
         21   -1    0    0  501  503 -0.00000000000E+00 -0.00000000000E+00 -0.80532872762E+02  0.80532872762E+02  0.00000000000E+00 0. -1.
          6    1    1    2  501    0  0.48815140616E+02  0.53441432657E+01  0.68124553181E+02  0.19230557082E+03  0.17300000000E+03 0. -1.
         -6    1    1    2    0  502 -0.48815140616E+02 -0.53441432657E+01  0.41995693668E+03  0.45684166457E+03  0.17300000000E+03 0. -1.
<mgrwt>
<rscale>  2 0.17983458E+03</rscale>
<asrwt>0</asrwt>
<pdfrwt beam="1">  1       21 0.87479130E-01 0.17983458E+03</pdfrwt>
<pdfrwt beam="2">  1       21 0.12389673E-01 0.17983458E+03</pdfrwt>
<totfact> 0.62533431E+04</totfact>
</mgrwt>
</event>
<event>
 4    1  0.4327903E+000  0.1885340E+03  0.7546771E-02  0.1159790E+00
         21   -1    0    0  501  502  0.00000000000E+00  0.00000000000E+00  0.56295337174E+03  0.56295337174E+03  0.00000000000E+00 0.  1.
         21   -1    0    0  502  503 -0.00000000000E+00 -0.00000000000E+00 -0.99736701054E+02  0.99736701054E+02  0.00000000000E+00 0.  1.
          6    1    1    2  501    0  0.57828259604E+02 -0.47665194715E+02  0.43231962636E+03  0.47164111115E+03  0.17300000000E+03 0.  1.
         -6    1    1    2    0  503 -0.57828259604E+02  0.47665194715E+02  0.30897044329E+02  0.19104896164E+03  0.17300000000E+03 0.  1.
<mgrwt>
<rscale>  2 0.18853402E+03</rscale>
<asrwt>0</asrwt>
<pdfrwt beam="1">  1       21 0.86608208E-01 0.18853402E+03</pdfrwt>
<pdfrwt beam="2">  1       21 0.15344108E-01 0.18853402E+03</pdfrwt>
<totfact> 0.43295641E+04</totfact>
</mgrwt>
</event>
<event>
 4    1  0.4327903E+000  0.1817446E+03  0.7546771E-02  0.1166125E+00
         21   -1    0    0  501  502  0.00000000000E+00  0.00000000000E+00  0.10938005603E+03  0.10938005603E+03  0.00000000000E+00 0. -1.
         21   -1    0    0  502  503 -0.00000000000E+00 -0.00000000000E+00 -0.37671585102E+03  0.37671585102E+03  0.00000000000E+00 0. -1.
          6    1    1    2  501    0  0.50864382361E+01 -0.55463730695E+02 -0.24191992021E+03  0.30258279044E+03  0.17300000000E+03 0. -1.
         -6    1    1    2    0  503 -0.50864382361E+01  0.55463730695E+02 -0.25415874770E+02  0.18351311661E+03  0.17300000000E+03 0. -1.
<mgrwt>
<rscale>  2 0.18174459E+03</rscale>
<asrwt>0</asrwt>
<pdfrwt beam="1">  1       21 0.16827701E-01 0.18174459E+03</pdfrwt>
<pdfrwt beam="2">  1       21 0.57956284E-01 0.18174459E+03</pdfrwt>
<totfact> 0.89094584E+04</totfact>
</mgrwt>
</event>
<event>
 4    1  0.4327903E+000  0.2155776E+03  0.7546771E-02  0.1137224E+00
         21   -1    0    0  501  502  0.00000000000E+00  0.00000000000E+00  0.20371213114E+03  0.20371213114E+03  0.00000000000E+00 0. -1.
         21   -1    0    0  502  503 -0.00000000000E+00 -0.00000000000E+00 -0.44412228667E+03  0.44412228667E+03  0.00000000000E+00 0. -1.
          6    1    1    2  501    0 -0.54324255658E+02 -0.11659141084E+03  0.10568530763E+03  0.24008970424E+03  0.17300000000E+03 0. -1.
         -6    1    1    2    0  503  0.54324255658E+02  0.11659141084E+03 -0.34609546315E+03  0.40774471358E+03  0.17300000000E+03 0. -1.
<mgrwt>
<rscale>  2 0.21557755E+03</rscale>
<asrwt>0</asrwt>
<pdfrwt beam="1">  1       21 0.31340328E-01 0.21557755E+03</pdfrwt>
<pdfrwt beam="2">  1       21 0.68326505E-01 0.21557755E+03</pdfrwt>
<totfact> 0.18859522E+04</totfact>
</mgrwt>
</event>
<event>
 4    1  0.4327903E+000  0.2520264E+03  0.7546771E-02  0.1112031E+00
         21   -1    0    0  503  502  0.00000000000E+00  0.00000000000E+00  0.12778873286E+03  0.12778873286E+03  0.00000000000E+00 0. -1.
         21   -1    0    0  501  503 -0.00000000000E+00 -0.00000000000E+00 -0.52000925090E+03  0.52000925090E+03  0.00000000000E+00 0. -1.
          6    1    1    2  501    0  0.18314613406E+03 -0.67680029720E+01 -0.26416974200E+03  0.36510678558E+03  0.17300000000E+03 0. -1.
         -6    1    1    2    0  502 -0.18314613406E+03  0.67680029720E+01 -0.12805077603E+03  0.28269119818E+03  0.17300000000E+03 0. -1.
<mgrwt>
<rscale>  2 0.25202641E+03</rscale>
<asrwt>0</asrwt>
<pdfrwt beam="1">  1       21 0.19659805E-01 0.25202641E+03</pdfrwt>
<pdfrwt beam="2">  1       21 0.80001423E-01 0.25202641E+03</pdfrwt>
<totfact> 0.31818816E+04</totfact>
</mgrwt>
</event>
<event>
 4    1  0.4327903E+000  0.2181551E+03  0.7546771E-02  0.1135266E+00
         21   -1    0    0  501  502  0.00000000000E+00  0.00000000000E+00  0.17705796939E+03  0.17705796939E+03  0.00000000000E+00 0.  1.
         21   -1    0    0  502  503 -0.00000000000E+00 -0.00000000000E+00 -0.41757537445E+03  0.41757537445E+03  0.00000000000E+00 0. -1.
          6    1    1    2  501    0 -0.66848888683E+02 -0.11486450627E+03  0.57213424563E+02  0.22553271308E+03  0.17300000000E+03 0. -1.
         -6    1    1    2    0  503  0.66848888683E+02  0.11486450627E+03 -0.29773082963E+03  0.36910063076E+03  0.17300000000E+03 0.  1.
<mgrwt>
<rscale>  2 0.21815506E+03</rscale>
<asrwt>0</asrwt>
<pdfrwt beam="1">  1       21 0.27239688E-01 0.21815506E+03</pdfrwt>
<pdfrwt beam="2">  1       21 0.64242365E-01 0.21815506E+03</pdfrwt>
<totfact> 0.28329347E+04</totfact>
</mgrwt>
</event>
<event>
 4    1  0.4327903E+000  0.1867633E+03  0.7546771E-02  0.1161413E+00
         21   -1    0    0  501  502  0.00000000000E+00  0.00000000000E+00  0.40095213407E+03  0.40095213407E+03  0.00000000000E+00 0.  1.
         21   -1    0    0  502  503 -0.00000000000E+00 -0.00000000000E+00 -0.87456263079E+02  0.87456263079E+02  0.00000000000E+00 0.  1.
          6    1    1    2  501    0 -0.68071018161E+02 -0.17829138368E+02  0.17449683062E+03  0.25559672452E+03  0.17300000000E+03 0.  1.
         -6    1    1    2    0  503  0.68071018161E+02  0.17829138368E+02  0.13899904037E+03  0.23281167263E+03  0.17300000000E+03 0.  1.
<mgrwt>
<rscale>  2 0.18676333E+03</rscale>
<asrwt>0</asrwt>
<pdfrwt beam="1">  1       21 0.61684943E-01 0.18676333E+03</pdfrwt>
<pdfrwt beam="2">  1       21 0.13454810E-01 0.18676333E+03</pdfrwt>
<totfact> 0.11688087E+05</totfact>
</mgrwt>
</event>
<event>
 4    1  0.4327903E+000  0.1821653E+03  0.7546771E-02  0.1165724E+00
         21   -1    0    0  503  502  0.00000000000E+00  0.00000000000E+00  0.15643178677E+04  0.15643178677E+04  0.00000000000E+00 0.  1.
         21   -1    0    0  501  503 -0.00000000000E+00 -0.00000000000E+00 -0.38722657459E+02  0.38722657459E+02  0.00000000000E+00 0.  1.
          6    1    1    2  501    0  0.14158438029E+02 -0.55269609847E+02  0.22382306973E+03  0.28858440305E+03  0.17300000000E+03 0.  1.
         -6    1    1    2    0  502 -0.14158438029E+02  0.55269609847E+02  0.13017721405E+04  0.13144561221E+04  0.17300000000E+03 0.  1.
<mgrwt>
<rscale>  2 0.18216529E+03</rscale>
<asrwt>0</asrwt>
<pdfrwt beam="1">  1       21 0.24066424E+00 0.18216529E+03</pdfrwt>
<pdfrwt beam="2">  1       21 0.59573331E-02 0.18216529E+03</pdfrwt>
<totfact> 0.15212549E+04</totfact>
</mgrwt>
</event>
<event>
 4    1  0.4327903E+000  0.2075133E+03  0.7546771E-02  0.1143550E+00
         21   -1    0    0  501  502  0.00000000000E+00  0.00000000000E+00  0.10200430787E+03  0.10200430787E+03  0.00000000000E+00 0. -1.
         21   -1    0    0  502  503 -0.00000000000E+00 -0.00000000000E+00 -0.47482962599E+03  0.47482962599E+03  0.00000000000E+00 0.  1.
          6    1    1    2  501    0 -0.10822764325E+03  0.37676605067E+02 -0.90351515610E+02  0.22632972784E+03  0.17300000000E+03 0.  1.
         -6    1    1    2    0  503  0.10822764325E+03 -0.37676605067E+02 -0.28247380251E+03  0.35050420602E+03  0.17300000000E+03 0.  1.
<mgrwt>
<rscale>  2 0.20751325E+03</rscale>
<asrwt>0</asrwt>
<pdfrwt beam="1">  1       21 0.15692970E-01 0.20751325E+03</pdfrwt>
<pdfrwt beam="2">  1       21 0.73050712E-01 0.20751325E+03</pdfrwt>
<totfact> 0.60482210E+04</totfact>
</mgrwt>
</event>
<event>
 4    1  0.4327903E+000  0.2675483E+03  0.7546771E-02  0.1102691E+00
         21   -1    0    0  503  502  0.00000000000E+00  0.00000000000E+00  0.10414720227E+04  0.10414720227E+04  0.00000000000E+00 0.  1.
         21   -1    0    0  501  503 -0.00000000000E+00 -0.00000000000E+00 -0.84664826896E+02  0.84664826896E+02  0.00000000000E+00 0. -1.
          6    1    1    2  501    0  0.16153329720E+03 -0.12474016741E+03  0.23413900182E+03  0.35553225963E+03  0.17300000000E+03 0. -1.
         -6    1    1    2    0  502 -0.16153329720E+03  0.12474016741E+03  0.72266819400E+03  0.77060458997E+03  0.17300000000E+03 0.  1.
<mgrwt>
<rscale>  2 0.26754834E+03</rscale>
<asrwt>0</asrwt>
<pdfrwt beam="1">  1       21 0.16022646E+00 0.26754834E+03</pdfrwt>
<pdfrwt beam="2">  1       21 0.13025359E-01 0.26754834E+03</pdfrwt>
<totfact> 0.12095251E+04</totfact>
</mgrwt>
</event>
<event>
 4    1  0.4327903E+000  0.2357380E+03  0.7546771E-02  0.1122665E+00
         21   -1    0    0  501  502  0.00000000000E+00  0.00000000000E+00  0.20327872472E+03  0.20327872472E+03  0.00000000000E+00 0. -1.
         21   -1    0    0  502  503 -0.00000000000E+00 -0.00000000000E+00 -0.30045197158E+03  0.30045197158E+03  0.00000000000E+00 0.  1.
          6    1    1    2  501    0  0.12627461211E+03  0.98479094259E+02  0.27016196949E+02  0.23728102446E+03  0.17300000000E+03 0. -1.
         -6    1    1    2    0  503 -0.12627461211E+03 -0.98479094259E+02 -0.12418944381E+03  0.26644967184E+03  0.17300000000E+03 0. -1.
<mgrwt>
<rscale>  2 0.23573801E+03</rscale>
<asrwt>0</asrwt>
<pdfrwt beam="1">  1       21 0.31273650E-01 0.23573801E+03</pdfrwt>
<pdfrwt beam="2">  1       21 0.46223380E-01 0.23573801E+03</pdfrwt>
<totfact> 0.43164442E+04</totfact>
</mgrwt>
</event>
<event>
 4    1  0.4327903E+000  0.1754853E+03  0.7546771E-02  0.1172245E+00
         21   -1    0    0  503  502  0.00000000000E+00  0.00000000000E+00  0.23100626936E+04  0.23100626936E+04  0.00000000000E+00 0. -1.
         21   -1    0    0  501  503 -0.00000000000E+00 -0.00000000000E+00 -0.14838671129E+02  0.14838671129E+02  0.00000000000E+00 0. -1.
          6    1    1    2  501    0  0.60058868978E+01  0.28810140641E+02  0.77705740417E+03  0.79662620109E+03  0.17300000000E+03 0. -1.
         -6    1    1    2    0  502 -0.60058868978E+01 -0.28810140641E+02  0.15181666183E+04  0.15282751636E+04  0.17300000000E+03 0. -1.
<mgrwt>
<rscale>  2 0.17548531E+03</rscale>
<asrwt>0</asrwt>
<pdfrwt beam="1">  1       21 0.35539398E+00 0.17548531E+03</pdfrwt>
<pdfrwt beam="2">  1       21 0.22828743E-02 0.17548531E+03</pdfrwt>
<totfact> 0.16452366E+04</totfact>
</mgrwt>
</event>
<event>
 4    1  0.4327903E+000  0.2046503E+03  0.7546771E-02  0.1145874E+00
         21   -1    0    0  501  502  0.00000000000E+00  0.00000000000E+00  0.80341109486E+03  0.80341109486E+03  0.00000000000E+00 0. -1.
         21   -1    0    0  502  503 -0.00000000000E+00 -0.00000000000E+00 -0.58766721232E+02  0.58766721232E+02  0.00000000000E+00 0. -1.
          6    1    1    2  501    0 -0.42970730878E+02  0.10052991491E+03  0.51719299196E+03  0.55621069608E+03  0.17300000000E+03 0. -1.
         -6    1    1    2    0  503  0.42970730878E+02 -0.10052991491E+03  0.22745138167E+03  0.30596712001E+03  0.17300000000E+03 0. -1.
<mgrwt>
<rscale>  2 0.20465031E+03</rscale>
<asrwt>0</asrwt>
<pdfrwt beam="1">  1       21 0.12360170E+00 0.20465031E+03</pdfrwt>
<pdfrwt beam="2">  1       21 0.90410346E-02 0.20465031E+03</pdfrwt>
<totfact> 0.47237417E+04</totfact>
</mgrwt>
</event>
<event>
 4    1  0.4327903E+000  0.3978859E+03  0.7546771E-02  0.1044514E+00
         21   -1    0    0  501  502  0.00000000000E+00  0.00000000000E+00  0.87006509032E+03  0.87006509032E+03  0.00000000000E+00 0.  1.
         21   -1    0    0  502  503 -0.00000000000E+00 -0.00000000000E+00 -0.23687704836E+03  0.23687704836E+03  0.00000000000E+00 0. -1.
          6    1    1    2  501    0  0.20080785200E+03 -0.29674973699E+03  0.58309848966E+03  0.70591575168E+03  0.17300000000E+03 0.  1.
         -6    1    1    2    0  503 -0.20080785200E+03  0.29674973699E+03  0.50089552307E+02  0.40102638701E+03  0.17300000000E+03 0. -1.
<mgrwt>
<rscale>  2 0.39788591E+03</rscale>
<asrwt>0</asrwt>
<pdfrwt beam="1">  1       21 0.13385617E+00 0.39788591E+03</pdfrwt>
<pdfrwt beam="2">  1       21 0.36442623E-01 0.39788591E+03</pdfrwt>
<totfact> 0.25676817E+03</totfact>
</mgrwt>
</event>
<event>
 4    1  0.4327903E+000  0.2053464E+03  0.7546771E-02  0.1145305E+00
         21   -1    0    0  503  502  0.00000000000E+00  0.00000000000E+00  0.42365928363E+02  0.42365928363E+02  0.00000000000E+00 0.  1.
         21   -1    0    0  501  503 -0.00000000000E+00 -0.00000000000E+00 -0.14563546017E+04  0.14563546017E+04  0.00000000000E+00 0.  1.
          6    1    1    2  501    0  0.11062480105E+03 -0.54868384910E+00 -0.28536627811E+03  0.35156942464E+03  0.17300000000E+03 0.  1.
         -6    1    1    2    0  502 -0.11062480105E+03  0.54868384910E+00 -0.11286223952E+04  0.11471511054E+04  0.17300000000E+03 0.  1.
<mgrwt>
<rscale>  2 0.20534641E+03</rscale>
<asrwt>0</asrwt>
<pdfrwt beam="1">  1       21 0.65178367E-02 0.20534641E+03</pdfrwt>
<pdfrwt beam="2">  1       21 0.22405450E+00 0.20534641E+03</pdfrwt>
<totfact> 0.16084665E+04</totfact>
</mgrwt>
</event>
<event>
 4    1  0.4327903E+000  0.1846497E+03  0.7546771E-02  0.1163377E+00
         21   -1    0    0  501  502  0.00000000000E+00  0.00000000000E+00  0.20662826723E+03  0.20662826723E+03  0.00000000000E+00 0. -1.
         21   -1    0    0  502  503 -0.00000000000E+00 -0.00000000000E+00 -0.22836041040E+03  0.22836041040E+03  0.00000000000E+00 0. -1.
          6    1    1    2  501    0 -0.53976006102E+02 -0.35399330578E+02  0.10368937043E+03  0.21177112027E+03  0.17300000000E+03 0. -1.
         -6    1    1    2    0  503  0.53976006102E+02  0.35399330578E+02 -0.12542151360E+03  0.22321755736E+03  0.17300000000E+03 0. -1.
<mgrwt>
<rscale>  2 0.18464973E+03</rscale>
<asrwt>0</asrwt>
<pdfrwt beam="1">  1       21 0.31788964E-01 0.18464973E+03</pdfrwt>
<pdfrwt beam="2">  1       21 0.35132371E-01 0.18464973E+03</pdfrwt>
<totfact> 0.74564642E+04</totfact>
</mgrwt>
</event>
<event>
 4    1  0.4327903E+000  0.2296308E+03  0.7546771E-02  0.1126900E+00
         21   -1    0    0  501  502  0.00000000000E+00  0.00000000000E+00  0.23132587564E+03  0.23132587564E+03  0.00000000000E+00 0. -1.
         21   -1    0    0  502  503 -0.00000000000E+00 -0.00000000000E+00 -0.35364416497E+03  0.35364416497E+03  0.00000000000E+00 0. -1.
          6    1    1    2  501    0 -0.74408197294E+02 -0.13139523385E+03  0.11321467056E+03  0.25602314140E+03  0.17300000000E+03 0. -1.
         -6    1    1    2    0  503  0.74408197294E+02  0.13139523385E+03 -0.23553295989E+03  0.32894689920E+03  0.17300000000E+03 0. -1.
<mgrwt>
<rscale>  2 0.22963076E+03</rscale>
<asrwt>0</asrwt>
<pdfrwt beam="1">  1       21 0.35588596E-01 0.22963076E+03</pdfrwt>
<pdfrwt beam="2">  1       21 0.54406795E-01 0.22963076E+03</pdfrwt>
<totfact> 0.23806713E+04</totfact>
</mgrwt>
</event>
<event>
 4    1  0.4327903E+000  0.1737065E+03  0.7546771E-02  0.1174037E+00
         21   -1    0    0  501  502  0.00000000000E+00  0.00000000000E+00  0.23584660291E+03  0.23584660291E+03  0.00000000000E+00 0.  1.
         21   -1    0    0  502  503 -0.00000000000E+00 -0.00000000000E+00 -0.39742030587E+03  0.39742030587E+03  0.00000000000E+00 0.  1.
          6    1    1    2  501    0 -0.12955458956E+02 -0.87803873066E+01  0.17994628477E+03  0.25010918520E+03  0.17300000000E+03 0.  1.
         -6    1    1    2    0  503  0.12955458956E+02  0.87803873066E+01 -0.34151998774E+03  0.38315772358E+03  0.17300000000E+03 0.  1.
<mgrwt>
<rscale>  2 0.17370647E+03</rscale>
<asrwt>0</asrwt>
<pdfrwt beam="1">  1       21 0.36284093E-01 0.17370647E+03</pdfrwt>
<pdfrwt beam="2">  1       21 0.61141585E-01 0.17370647E+03</pdfrwt>
<totfact> 0.18441449E+04</totfact>
</mgrwt>
</event>
<event>
 4    1  0.4327903E+000  0.2381667E+03  0.7546771E-02  0.1121020E+00
         21   -1    0    0  503  502  0.00000000000E+00  0.00000000000E+00  0.28141693879E+03  0.28141693879E+03  0.00000000000E+00 0. -1.
         21   -1    0    0  501  503 -0.00000000000E+00 -0.00000000000E+00 -0.22128589545E+03  0.22128589545E+03  0.00000000000E+00 0. -1.
          6    1    1    2  501    0  0.15318572248E+02 -0.16297158908E+03 -0.44972908659E+02  0.24237565888E+03  0.17300000000E+03 0. -1.
         -6    1    1    2    0  502 -0.15318572248E+02  0.16297158908E+03  0.10510395200E+03  0.26032717536E+03  0.17300000000E+03 0. -1.
<mgrwt>
<rscale>  2 0.23816674E+03</rscale>
<asrwt>0</asrwt>
<pdfrwt beam="1">  1       21 0.43294914E-01 0.23816674E+03</pdfrwt>
<pdfrwt beam="2">  1       21 0.34043984E-01 0.23816674E+03</pdfrwt>
<totfact> 0.41723763E+04</totfact>
</mgrwt>
</event>
<event>
 4    1  0.4327903E+000  0.3293385E+03  0.7546771E-02  0.1071430E+00
         21   -1    0    0  503  502  0.00000000000E+00  0.00000000000E+00  0.22072511743E+03  0.22072511743E+03  0.00000000000E+00 0. -1.
         21   -1    0    0  501  503 -0.00000000000E+00 -0.00000000000E+00 -0.50407113947E+03  0.50407113947E+03  0.00000000000E+00 0.  1.
          6    1    1    2  501    0  0.20463002040E+02 -0.27949255253E+03 -0.84210210859E+02  0.33993408330E+03  0.17300000000E+03 0. -1.
         -6    1    1    2    0  502 -0.20463002040E+02  0.27949255253E+03 -0.19913581118E+03  0.38486217360E+03  0.17300000000E+03 0.  1.
<mgrwt>
<rscale>  2 0.32933846E+03</rscale>
<asrwt>0</asrwt>
<pdfrwt beam="1">  1       21 0.33957710E-01 0.32933846E+03</pdfrwt>
<pdfrwt beam="2">  1       21 0.77549406E-01 0.32933846E+03</pdfrwt>
<totfact> 0.11474293E+04</totfact>
</mgrwt>
</event>
<event>
 4    1  0.4327903E+000  0.2071071E+03  0.7546771E-02  0.1143878E+00
         21   -1    0    0  503  502  0.00000000000E+00  0.00000000000E+00  0.19826163310E+04  0.19826163310E+04  0.00000000000E+00 0. -1.
         21   -1    0    0  501  503 -0.00000000000E+00 -0.00000000000E+00 -0.21642346114E+02  0.21642346114E+02  0.00000000000E+00 0. -1.
          6    1    1    2  501    0  0.34304323127E+02 -0.10857053946E+03  0.96167514815E+03  0.98372376163E+03  0.17300000000E+03 0.  1.
         -6    1    1    2    0  502 -0.34304323127E+02  0.10857053946E+03  0.99929883670E+03  0.10205349155E+04  0.17300000000E+03 0.  1.
<mgrwt>
<rscale>  2 0.20710709E+03</rscale>
<asrwt>0</asrwt>
<pdfrwt beam="1">  1       21 0.30501775E+00 0.20710709E+03</pdfrwt>
<pdfrwt beam="2">  1       21 0.33295933E-02 0.20710709E+03</pdfrwt>
<totfact> 0.16755695E+04</totfact>
</mgrwt>
</event>
<event>
 4    1  0.4327903E+000  0.2757969E+03  0.7546771E-02  0.1098007E+00
         21   -1    0    0  503  502  0.00000000000E+00  0.00000000000E+00  0.47328196179E+03  0.47328196179E+03  0.00000000000E+00 0. -1.
         21   -1    0    0  501  503 -0.00000000000E+00 -0.00000000000E+00 -0.22506023366E+03  0.22506023366E+03  0.00000000000E+00 0.  1.
          6    1    1    2  501    0  0.20335188190E+03 -0.69158843856E+02 -0.62589033638E+02  0.28280968988E+03  0.17300000000E+03 0.  1.
         -6    1    1    2    0  502 -0.20335188190E+03  0.69158843856E+02  0.31081076177E+03  0.41553250557E+03  0.17300000000E+03 0. -1.
<mgrwt>
<rscale>  2 0.27579691E+03</rscale>
<asrwt>0</asrwt>
<pdfrwt beam="1">  1       21 0.72812610E-01 0.27579691E+03</pdfrwt>
<pdfrwt beam="2">  1       21 0.34624651E-01 0.27579691E+03</pdfrwt>
<totfact> 0.13026159E+04</totfact>
</mgrwt>
</event>
<event>
 4    1  0.4327903E+000  0.2126551E+03  0.7546771E-02  0.1139481E+00
         21   -1    0    0  503  502  0.00000000000E+00  0.00000000000E+00  0.10433529495E+03  0.10433529495E+03  0.00000000000E+00 0. -1.
         21   -1    0    0  501  503 -0.00000000000E+00 -0.00000000000E+00 -0.49353585841E+03  0.49353585841E+03  0.00000000000E+00 0. -1.
          6    1    1    2  501    0 -0.28014606027E+02  0.12045067703E+03 -0.29892132244E+03  0.36684620859E+03  0.17300000000E+03 0. -1.
         -6    1    1    2    0  502  0.28014606027E+02 -0.12045067703E+03 -0.90279241028E+02  0.23102494478E+03  0.17300000000E+03 0. -1.
<mgrwt>
<rscale>  2 0.21265508E+03</rscale>
<asrwt>0</asrwt>
<pdfrwt beam="1">  1       21 0.16051584E-01 0.21265508E+03</pdfrwt>
<pdfrwt beam="2">  1       21 0.75928594E-01 0.21265508E+03</pdfrwt>
<totfact> 0.53100800E+04</totfact>
</mgrwt>
</event>
<event>
 4    1  0.4327903E+000  0.1955587E+03  0.7546771E-02  0.1153541E+00
         21   -1    0    0  501  502  0.00000000000E+00  0.00000000000E+00  0.35633624808E+02  0.35633624808E+02  0.00000000000E+00 0. -1.
         21   -1    0    0  502  503 -0.00000000000E+00 -0.00000000000E+00 -0.10883083483E+04  0.10883083483E+04  0.00000000000E+00 0. -1.
          6    1    1    2  501    0 -0.86684178799E+02  0.28285099811E+02 -0.46019695323E+03  0.50002442889E+03  0.17300000000E+03 0. -1.
         -6    1    1    2    0  503  0.86684178799E+02 -0.28285099811E+02 -0.59247777023E+03  0.62391754418E+03  0.17300000000E+03 0. -1.
<mgrwt>
<rscale>  2 0.19555867E+03</rscale>
<asrwt>0</asrwt>
<pdfrwt beam="1">  1       21 0.54820964E-02 0.19555867E+03</pdfrwt>
<pdfrwt beam="2">  1       21 0.16743205E+00 0.19555867E+03</pdfrwt>
<totfact> 0.51091958E+04</totfact>
</mgrwt>
</event>
<event>
 4    1  0.4327903E+000  0.1993247E+03  0.7546771E-02  0.1150310E+00
         21   -1    0    0  503  502  0.00000000000E+00  0.00000000000E+00  0.49001559303E+03  0.49001559303E+03  0.00000000000E+00 0. -1.
         21   -1    0    0  501  503 -0.00000000000E+00 -0.00000000000E+00 -0.83493446278E+02  0.83493446278E+02  0.00000000000E+00 0.  1.
          6    1    1    2  501    0 -0.96857155645E+02  0.20494713818E+02  0.15450537661E+03  0.25219487167E+03  0.17300000000E+03 0.  1.
         -6    1    1    2    0  502  0.96857155645E+02 -0.20494713818E+02  0.25201677014E+03  0.32131416764E+03  0.17300000000E+03 0. -1.
<mgrwt>
<rscale>  2 0.19932471E+03</rscale>
<asrwt>0</asrwt>
<pdfrwt beam="1">  1       21 0.75387013E-01 0.19932471E+03</pdfrwt>
<pdfrwt beam="2">  1       21 0.12845146E-01 0.19932471E+03</pdfrwt>
<totfact> 0.81395862E+04</totfact>
</mgrwt>
</event>
<event>
 4    1  0.4327903E+000  0.2020610E+03  0.7546771E-02  0.1148012E+00
         21   -1    0    0  501  502  0.00000000000E+00  0.00000000000E+00  0.16161818011E+03  0.16161818011E+03  0.00000000000E+00 0. -1.
         21   -1    0    0  502  503 -0.00000000000E+00 -0.00000000000E+00 -0.25262790088E+03  0.25262790088E+03  0.00000000000E+00 0. -1.
          6    1    1    2  501    0 -0.10415369648E+03 -0.71869475902E+01 -0.46309946839E+02  0.20729991771E+03  0.17300000000E+03 0. -1.
         -6    1    1    2    0  503  0.10415369648E+03  0.71869475902E+01 -0.44699773934E+02  0.20694616328E+03  0.17300000000E+03 0. -1.
<mgrwt>
<rscale>  2 0.20206099E+03</rscale>
<asrwt>0</asrwt>
<pdfrwt beam="1">  1       21 0.24864335E-01 0.20206099E+03</pdfrwt>
<pdfrwt beam="2">  1       21 0.38865831E-01 0.20206099E+03</pdfrwt>
<totfact> 0.97320335E+04</totfact>
</mgrwt>
</event>
<event>
 4    1  0.4327903E+000  0.2398456E+03  0.7546771E-02  0.1119896E+00
         21   -1    0    0  503  502  0.00000000000E+00  0.00000000000E+00  0.27594932685E+03  0.27594932685E+03  0.00000000000E+00 0. -1.
         21   -1    0    0  501  503 -0.00000000000E+00 -0.00000000000E+00 -0.20930511145E+03  0.20930511145E+03  0.00000000000E+00 0.  1.
          6    1    1    2  501    0 -0.12520398462E+03 -0.10918281621E+03  0.17955474340E+02  0.24051678565E+03  0.17300000000E+03 0.  1.
         -6    1    1    2    0  502  0.12520398462E+03  0.10918281621E+03  0.48688741051E+02  0.24473765265E+03  0.17300000000E+03 0. -1.
<mgrwt>
<rscale>  2 0.23984563E+03</rscale>
<asrwt>0</asrwt>
<pdfrwt beam="1">  1       21 0.42453743E-01 0.23984563E+03</pdfrwt>
<pdfrwt beam="2">  1       21 0.32200786E-01 0.23984563E+03</pdfrwt>
<totfact> 0.48468568E+04</totfact>
</mgrwt>
</event>
<event>
 4    1  0.4327903E+000  0.4153649E+03  0.7546771E-02  0.1038586E+00
         21   -1    0    0  503  502  0.00000000000E+00  0.00000000000E+00  0.18816861489E+03  0.18816861489E+03  0.00000000000E+00 0.  1.
         21   -1    0    0  501  503 -0.00000000000E+00 -0.00000000000E+00 -0.13291027592E+04  0.13291027592E+04  0.00000000000E+00 0. -1.
          6    1    1    2  501    0  0.36381189329E+03  0.10119236459E+03 -0.99296065337E+03  0.10763358433E+04  0.17300000000E+03 0. -1.
         -6    1    1    2    0  502 -0.36381189329E+03 -0.10119236459E+03 -0.14797349098E+03  0.44093553087E+03  0.17300000000E+03 0.  1.
<mgrwt>
<rscale>  2 0.41536489E+03</rscale>
<asrwt>0</asrwt>
<pdfrwt beam="1">  1       21 0.28949018E-01 0.41536489E+03</pdfrwt>
<pdfrwt beam="2">  1       21 0.20447735E+00 0.41536489E+03</pdfrwt>
<totfact> 0.12206303E+03</totfact>
</mgrwt>
</event>
<event>
 4    1  0.4327903E+000  0.3060013E+03  0.7546771E-02  0.1082279E+00
         21   -1    0    0  501  502  0.00000000000E+00  0.00000000000E+00  0.17565207931E+03  0.17565207931E+03  0.00000000000E+00 0.  1.
         21   -1    0    0  502  503 -0.00000000000E+00 -0.00000000000E+00 -0.58752148499E+03  0.58752148499E+03  0.00000000000E+00 0.  1.
          6    1    1    2  501    0 -0.17248272749E+02 -0.25181398465E+03 -0.89778489404E+02  0.31889961264E+03  0.17300000000E+03 0.  1.
         -6    1    1    2    0  503  0.17248272749E+02  0.25181398465E+03 -0.32209091627E+03  0.44427395166E+03  0.17300000000E+03 0.  1.
<mgrwt>
<rscale>  2 0.30600128E+03</rscale>
<asrwt>0</asrwt>
<pdfrwt beam="1">  1       21 0.27023396E-01 0.30600128E+03</pdfrwt>
<pdfrwt beam="2">  1       21 0.90387922E-01 0.30600128E+03</pdfrwt>
<totfact> 0.12764129E+04</totfact>
</mgrwt>
</event>
<event>
 4    1  0.4327903E+000  0.1853759E+03  0.7546771E-02  0.1162699E+00
         21   -1    0    0  501  502  0.00000000000E+00  0.00000000000E+00  0.26028090404E+02  0.26028090404E+02  0.00000000000E+00 0. -1.
         21   -1    0    0  502  503 -0.00000000000E+00 -0.00000000000E+00 -0.18740547819E+04  0.18740547819E+04  0.00000000000E+00 0.  1.
          6    1    1    2  501    0 -0.42781449535E+02 -0.51038783542E+02 -0.40757276076E+03  0.44774966797E+03  0.17300000000E+03 0. -1.
         -6    1    1    2    0  503  0.42781449535E+02  0.51038783542E+02 -0.14404539307E+04  0.14523332043E+04  0.17300000000E+03 0.  1.
<mgrwt>
<rscale>  2 0.18537586E+03</rscale>
<asrwt>0</asrwt>
<pdfrwt beam="1">  1       21 0.40043211E-02 0.18537586E+03</pdfrwt>
<pdfrwt beam="2">  1       21 0.28831615E+00 0.18537586E+03</pdfrwt>
<totfact> 0.15703661E+04</totfact>
</mgrwt>
</event>
<event>
 4    1  0.4327903E+000  0.3193220E+03  0.7546771E-02  0.1075962E+00
         21   -1    0    0  501  502  0.00000000000E+00  0.00000000000E+00  0.64543008098E+03  0.64543008098E+03  0.00000000000E+00 0.  1.
         21   -1    0    0  502  503 -0.00000000000E+00 -0.00000000000E+00 -0.21502745299E+03  0.21502745299E+03  0.00000000000E+00 0.  1.
          6    1    1    2  501    0  0.20255932607E+03 -0.17608883778E+03 -0.63945673236E+01  0.31938605145E+03  0.17300000000E+03 0.  1.
         -6    1    1    2    0  503 -0.20255932607E+03  0.17608883778E+03  0.43679719531E+03  0.54107148252E+03  0.17300000000E+03 0.  1.
<mgrwt>
<rscale>  2 0.31932203E+03</rscale>
<asrwt>0</asrwt>
<pdfrwt beam="1">  1       21 0.99296935E-01 0.31932203E+03</pdfrwt>
<pdfrwt beam="2">  1       21 0.33081147E-01 0.31932203E+03</pdfrwt>
<totfact> 0.68147132E+03</totfact>
</mgrwt>
</event>
<event>
 4    1  0.4327903E+000  0.2400068E+03  0.7546771E-02  0.1119788E+00
         21   -1    0    0  503  502  0.00000000000E+00  0.00000000000E+00  0.71165811239E+02  0.71165811239E+02  0.00000000000E+00 0. -1.
         21   -1    0    0  501  503 -0.00000000000E+00 -0.00000000000E+00 -0.98556335941E+03  0.98556335941E+03  0.00000000000E+00 0.  1.
          6    1    1    2  501    0 -0.13700170830E+02 -0.16579080810E+03 -0.68056635058E+03  0.72164662008E+03  0.17300000000E+03 0. -1.
         -6    1    1    2    0  502  0.13700170830E+02  0.16579080810E+03 -0.23383119759E+03  0.33508255057E+03  0.17300000000E+03 0.  1.
<mgrwt>
<rscale>  2 0.24000685E+03</rscale>
<asrwt>0</asrwt>
<pdfrwt beam="1">  1       21 0.10948588E-01 0.24000685E+03</pdfrwt>
<pdfrwt beam="2">  1       21 0.15162512E+00 0.24000685E+03</pdfrwt>
<totfact> 0.19487157E+04</totfact>
</mgrwt>
</event>
<event>
 4    1  0.4327903E+000  0.1866442E+03  0.7546771E-02  0.1161523E+00
         21   -1    0    0  503  502  0.00000000000E+00  0.00000000000E+00  0.13316068735E+04  0.13316068735E+04  0.00000000000E+00 0.  1.
         21   -1    0    0  501  503 -0.00000000000E+00 -0.00000000000E+00 -0.26946102940E+02  0.26946102940E+02  0.00000000000E+00 0.  1.
          6    1    1    2  501    0 -0.68652045415E+02 -0.13926843277E+02  0.53637680859E+03  0.56792265415E+03  0.17300000000E+03 0.  1.
         -6    1    1    2    0  502  0.68652045415E+02  0.13926843277E+02  0.76828396196E+03  0.79063032228E+03  0.17300000000E+03 0.  1.
<mgrwt>
<rscale>  2 0.18664421E+03</rscale>
<asrwt>0</asrwt>
<pdfrwt beam="1">  1       21 0.20486254E+00 0.18664421E+03</pdfrwt>
<pdfrwt beam="2">  1       21 0.41455553E-02 0.18664421E+03</pdfrwt>
<totfact> 0.46323034E+04</totfact>
</mgrwt>
</event>
<event>
 4    1  0.4327903E+000  0.2191057E+03  0.7546771E-02  0.1134552E+00
         21   -1    0    0  501  502  0.00000000000E+00  0.00000000000E+00  0.23009082709E+03  0.23009082709E+03  0.00000000000E+00 0. -1.
         21   -1    0    0  502  503 -0.00000000000E+00 -0.00000000000E+00 -0.29887200847E+03  0.29887200847E+03  0.00000000000E+00 0.  1.
          6    1    1    2  501    0 -0.93148214335E+02  0.96962565228E+02  0.11092778227E+03  0.24558563022E+03  0.17300000000E+03 0. -1.
         -6    1    1    2    0  503  0.93148214335E+02 -0.96962565228E+02 -0.17970896365E+03  0.28337720534E+03  0.17300000000E+03 0.  1.
<mgrwt>
<rscale>  2 0.21910575E+03</rscale>
<asrwt>0</asrwt>
<pdfrwt beam="1">  1       21 0.35398589E-01 0.21910575E+03</pdfrwt>
<pdfrwt beam="2">  1       21 0.45980309E-01 0.21910575E+03</pdfrwt>
<totfact> 0.34404840E+04</totfact>
</mgrwt>
</event>
<event>
 4    1  0.4327903E+000  0.1756339E+03  0.7546771E-02  0.1172097E+00
         21   -1    0    0  503  502  0.00000000000E+00  0.00000000000E+00  0.48582733615E+03  0.48582733615E+03  0.00000000000E+00 0.  1.
         21   -1    0    0  501  503 -0.00000000000E+00 -0.00000000000E+00 -0.83292896606E+02  0.83292896606E+02  0.00000000000E+00 0.  1.
          6    1    1    2  501    0 -0.29879597381E+02 -0.50471237221E+01  0.62531812144E+02  0.18643361105E+03  0.17300000000E+03 0.  1.
         -6    1    1    2    0  502  0.29879597381E+02  0.50471237221E+01  0.34000262739E+03  0.38268662171E+03  0.17300000000E+03 0.  1.
<mgrwt>
<rscale>  2 0.17563389E+03</rscale>
<asrwt>0</asrwt>
<pdfrwt beam="1">  1       21 0.74742665E-01 0.17563389E+03</pdfrwt>
<pdfrwt beam="2">  1       21 0.12814292E-01 0.17563389E+03</pdfrwt>
<totfact> 0.84169956E+04</totfact>
</mgrwt>
</event>
<event>
 4    1  0.4327903E+000  0.2012396E+03  0.7546771E-02  0.1148697E+00
         21   -1    0    0  503  502  0.00000000000E+00  0.00000000000E+00  0.32031548838E+02  0.32031548838E+02  0.00000000000E+00 0. -1.
         21   -1    0    0  501  503 -0.00000000000E+00 -0.00000000000E+00 -0.26410926422E+04  0.26410926422E+04  0.00000000000E+00 0. -1.
          6    1    1    2  501    0 -0.91047647199E+02 -0.47735886208E+02 -0.22695411273E+04  0.22784455923E+04  0.17300000000E+03 0. -1.
         -6    1    1    2    0  502  0.91047647199E+02  0.47735886208E+02 -0.33951996609E+03  0.39467859869E+03  0.17300000000E+03 0. -1.
<mgrwt>
<rscale>  2 0.20123963E+03</rscale>
<asrwt>0</asrwt>
<pdfrwt beam="1">  1       21 0.49279301E-02 0.20123963E+03</pdfrwt>
<pdfrwt beam="2">  1       21 0.40632199E+00 0.20123963E+03</pdfrwt>
<totfact> 0.21664386E+03</totfact>
</mgrwt>
</event>
<event>
 4    1  0.4327903E+000  0.3903251E+03  0.7546771E-02  0.1047182E+00
         21   -1    0    0  503  502  0.00000000000E+00  0.00000000000E+00  0.68960888177E+03  0.68960888177E+03  0.00000000000E+00 0. -1.
         21   -1    0    0  501  503 -0.00000000000E+00 -0.00000000000E+00 -0.22467026877E+03  0.22467026877E+03  0.00000000000E+00 0.  1.
          6    1    1    2  501    0 -0.12124005792E+03  0.32821563033E+03  0.17346749708E+03  0.42713536986E+03  0.17300000000E+03 0.  1.
         -6    1    1    2    0  502  0.12124005792E+03 -0.32821563033E+03  0.29147111593E+03  0.48714378068E+03  0.17300000000E+03 0. -1.
<mgrwt>
<rscale>  2 0.39032506E+03</rscale>
<asrwt>0</asrwt>
<pdfrwt beam="1">  1       21 0.10609367E+00 0.39032506E+03</pdfrwt>
<pdfrwt beam="2">  1       21 0.34564657E-01 0.39032506E+03</pdfrwt>
<totfact> 0.51556530E+03</totfact>
</mgrwt>
</event>
<event>
 4    1  0.4327903E+000  0.2782427E+03  0.7546771E-02  0.1096653E+00
         21   -1    0    0  501  502  0.00000000000E+00  0.00000000000E+00  0.17502357002E+04  0.17502357002E+04  0.00000000000E+00 0. -1.
         21   -1    0    0  502  503 -0.00000000000E+00 -0.00000000000E+00 -0.75166686747E+02  0.75166686747E+02  0.00000000000E+00 0.  1.
          6    1    1    2  501    0  0.16898606962E+03 -0.13759986819E+03  0.14230365140E+04  0.14499834260E+04  0.17300000000E+03 0. -1.
         -6    1    1    2    0  503 -0.16898606962E+03  0.13759986819E+03  0.25203249937E+03  0.37541896088E+03  0.17300000000E+03 0.  1.
<mgrwt>
<rscale>  2 0.27824273E+03</rscale>
<asrwt>0</asrwt>
<pdfrwt beam="1">  1       21 0.26926700E+00 0.27824273E+03</pdfrwt>
<pdfrwt beam="2">  1       21 0.11564107E-01 0.27824273E+03</pdfrwt>
<totfact> 0.29654437E+03</totfact>
</mgrwt>
</event>
<event>
 4    1  0.4327903E+000  0.2023909E+03  0.7546771E-02  0.1147737E+00
         21   -1    0    0  501  502  0.00000000000E+00  0.00000000000E+00  0.56687723114E+02  0.56687723114E+02  0.00000000000E+00 0. -1.
         21   -1    0    0  502  503 -0.00000000000E+00 -0.00000000000E+00 -0.13942208383E+04  0.13942208383E+04  0.00000000000E+00 0. -1.
          6    1    1    2  501    0  0.10220033100E+03  0.24252572443E+02 -0.16525559291E+03  0.26128816643E+03  0.17300000000E+03 0. -1.
         -6    1    1    2    0  503 -0.10220033100E+03 -0.24252572443E+02 -0.11722775223E+04  0.11896203950E+04  0.17300000000E+03 0. -1.
<mgrwt>
<rscale>  2 0.20239095E+03</rscale>
<asrwt>0</asrwt>
<pdfrwt beam="1">  1       21 0.87211885E-02 0.20239095E+03</pdfrwt>
<pdfrwt beam="2">  1       21 0.21449551E+00 0.20239095E+03</pdfrwt>
<totfact> 0.11135718E+04</totfact>
</mgrwt>
</event>
<event>
 4    1  0.4327903E+000  0.1870927E+03  0.7546771E-02  0.1161110E+00
         21   -1    0    0  503  502  0.00000000000E+00  0.00000000000E+00  0.17985224535E+02  0.17985224535E+02  0.00000000000E+00 0.  1.
         21   -1    0    0  501  503 -0.00000000000E+00 -0.00000000000E+00 -0.24505242398E+04  0.24505242398E+04  0.00000000000E+00 0.  1.
          6    1    1    2  501    0 -0.60781393314E+02 -0.37152310294E+02 -0.17761694191E+04  0.17859959342E+04  0.17300000000E+03 0.  1.
         -6    1    1    2    0  502  0.60781393314E+02  0.37152310294E+02 -0.65636959618E+03  0.68251353007E+03  0.17300000000E+03 0.  1.
<mgrwt>
<rscale>  2 0.18709268E+03</rscale>
<asrwt>0</asrwt>
<pdfrwt beam="1">  1       21 0.27669585E-02 0.18709268E+03</pdfrwt>
<pdfrwt beam="2">  1       21 0.37700360E+00 0.18709268E+03</pdfrwt>
<totfact> 0.87833046E+03</totfact>
</mgrwt>
</event>
<event>
 4    1  0.4327903E+000  0.2376578E+03  0.7546771E-02  0.1121363E+00
         21   -1    0    0  501  502  0.00000000000E+00  0.00000000000E+00  0.27566585940E+03  0.27566585940E+03  0.00000000000E+00 0. -1.
         21   -1    0    0  502  503 -0.00000000000E+00 -0.00000000000E+00 -0.34776970886E+03  0.34776970886E+03  0.00000000000E+00 0. -1.
          6    1    1    2  501    0 -0.58639584923E+02  0.15203161679E+03  0.16375051506E+03  0.28860950194E+03  0.17300000000E+03 0. -1.
         -6    1    1    2    0  503  0.58639584923E+02 -0.15203161679E+03 -0.23585436453E+03  0.33482606633E+03  0.17300000000E+03 0. -1.
<mgrwt>
<rscale>  2 0.23765777E+03</rscale>
<asrwt>0</asrwt>
<pdfrwt beam="1">  1       21 0.42410132E-01 0.23765777E+03</pdfrwt>
<pdfrwt beam="2">  1       21 0.53503032E-01 0.23765777E+03</pdfrwt>
<totfact> 0.17232717E+04</totfact>
</mgrwt>
</event>
<event>
 4    1  0.4327903E+000  0.2653039E+03  0.7546771E-02  0.1103998E+00
         21   -1    0    0  501  502  0.00000000000E+00  0.00000000000E+00  0.73079466443E+02  0.73079466443E+02  0.00000000000E+00 0. -1.
         21   -1    0    0  502  503 -0.00000000000E+00 -0.00000000000E+00 -0.98892365712E+03  0.98892365712E+03  0.00000000000E+00 0.  1.
          6    1    1    2  501    0  0.81741426222E-01  0.20113957963E+03 -0.37219010766E+03  0.45706849970E+03  0.17300000000E+03 0. -1.
         -6    1    1    2    0  503 -0.81741426222E-01 -0.20113957963E+03 -0.54365408301E+03  0.60493462386E+03  0.17300000000E+03 0.  1.
<mgrwt>
<rscale>  2 0.26530386E+03</rscale>
<asrwt>0</asrwt>
<pdfrwt beam="1">  1       21 0.11242996E-01 0.26530386E+03</pdfrwt>
<pdfrwt beam="2">  1       21 0.15214209E+00 0.26530386E+03</pdfrwt>
<totfact> 0.18165254E+04</totfact>
</mgrwt>
</event>
<event>
 4    1  0.4327903E+000  0.2051180E+03  0.7546771E-02  0.1145491E+00
         21   -1    0    0  503  502  0.00000000000E+00  0.00000000000E+00  0.13102579807E+03  0.13102579807E+03  0.00000000000E+00 0.  1.
         21   -1    0    0  501  503 -0.00000000000E+00 -0.00000000000E+00 -0.36225545593E+03  0.36225545593E+03  0.00000000000E+00 0.  1.
          6    1    1    2  501    0  0.36612775546E+02  0.10394177389E+03 -0.19873959302E+03  0.28560604602E+03  0.17300000000E+03 0.  1.
         -6    1    1    2    0  502 -0.36612775546E+02 -0.10394177389E+03 -0.32490064852E+02  0.20767520798E+03  0.17300000000E+03 0.  1.
<mgrwt>
<rscale>  2 0.20511798E+03</rscale>
<asrwt>0</asrwt>
<pdfrwt beam="1">  1       21 0.20157815E-01 0.20511798E+03</pdfrwt>
<pdfrwt beam="2">  1       21 0.55731609E-01 0.20511798E+03</pdfrwt>
<totfact> 0.68605538E+04</totfact>
</mgrwt>
</event>
<event>
 4    1  0.4327903E+000  0.1953658E+03  0.7546771E-02  0.1153709E+00
         21   -1    0    0  501  502  0.00000000000E+00  0.00000000000E+00  0.28357507025E+03  0.28357507025E+03  0.00000000000E+00 0.  1.
         21   -1    0    0  502  503 -0.00000000000E+00 -0.00000000000E+00 -0.17536610140E+03  0.17536610140E+03  0.00000000000E+00 0. -1.
          6    1    1    2  501    0 -0.90751131960E+02  0.17410372256E+01  0.16474907507E+03  0.25555832387E+03  0.17300000000E+03 0.  1.
         -6    1    1    2    0  503  0.90751131960E+02 -0.17410372256E+01 -0.56540106215E+02  0.20338284779E+03  0.17300000000E+03 0.  1.
<mgrwt>
<rscale>  2 0.19536581E+03</rscale>
<asrwt>0</asrwt>
<pdfrwt beam="1">  1       21 0.43626934E-01 0.19536581E+03</pdfrwt>
<pdfrwt beam="2">  1       21 0.26979400E-01 0.19536581E+03</pdfrwt>
<totfact> 0.66009291E+04</totfact>
</mgrwt>
</event>
<event>
 4    1  0.4327903E+000  0.2046205E+03  0.7546771E-02  0.1145898E+00
         21   -1    0    0  501  502  0.00000000000E+00  0.00000000000E+00  0.89127356236E+03  0.89127356236E+03  0.00000000000E+00 0.  1.
         21   -1    0    0  502  503 -0.00000000000E+00 -0.00000000000E+00 -0.15022182472E+03  0.15022182472E+03  0.00000000000E+00 0.  1.
          6    1    1    2  501    0 -0.54194640813E+02  0.94886687044E+02  0.80223829491E+03  0.82792259559E+03  0.17300000000E+03 0.  1.
         -6    1    1    2    0  503  0.54194640813E+02 -0.94886687044E+02 -0.61186557270E+02  0.21357279148E+03  0.17300000000E+03 0.  1.
<mgrwt>
<rscale>  2 0.20462048E+03</rscale>
<asrwt>0</asrwt>
<pdfrwt beam="1">  1       21 0.13711901E+00 0.20462048E+03</pdfrwt>
<pdfrwt beam="2">  1       21 0.23111051E-01 0.20462048E+03</pdfrwt>
<totfact> 0.65774872E+03</totfact>
</mgrwt>
</event>
<event>
 4    1  0.4327903E+000  0.2230898E+03  0.7546771E-02  0.1131600E+00
         21   -1    0    0  501  502  0.00000000000E+00  0.00000000000E+00  0.14254237338E+03  0.14254237338E+03  0.00000000000E+00 0.  1.
         21   -1    0    0  502  503 -0.00000000000E+00 -0.00000000000E+00 -0.82445186169E+03  0.82445186169E+03  0.00000000000E+00 0.  1.
          6    1    1    2  501    0  0.70234742295E+01  0.14067954141E+03  0.26154006005E+02  0.22461766314E+03  0.17300000000E+03 0.  1.
         -6    1    1    2    0  503 -0.70234742295E+01 -0.14067954141E+03 -0.70806349432E+03  0.74237657193E+03  0.17300000000E+03 0.  1.
<mgrwt>
<rscale>  2 0.22308981E+03</rscale>
<asrwt>0</asrwt>
<pdfrwt beam="1">  1       21 0.21929595E-01 0.22308981E+03</pdfrwt>
<pdfrwt beam="2">  1       21 0.12683875E+00 0.22308981E+03</pdfrwt>
<totfact> 0.87385439E+03</totfact>
</mgrwt>
</event>
<event>
 4    1  0.4327903E+000  0.2973959E+03  0.7546771E-02  0.1086550E+00
         21   -1    0    0  501  502  0.00000000000E+00  0.00000000000E+00  0.46799855944E+03  0.46799855944E+03  0.00000000000E+00 0.  1.
         21   -1    0    0  502  503 -0.00000000000E+00 -0.00000000000E+00 -0.20725234899E+03  0.20725234899E+03  0.00000000000E+00 0.  1.
          6    1    1    2  501    0  0.12038406780E+03 -0.20981652609E+03  0.23061138640E+03  0.37633218031E+03  0.17300000000E+03 0.  1.
         -6    1    1    2    0  503 -0.12038406780E+03  0.20981652609E+03  0.30134824053E+02  0.29891872812E+03  0.17300000000E+03 0.  1.
<mgrwt>
<rscale>  2 0.29739586E+03</rscale>
<asrwt>0</asrwt>
<pdfrwt beam="1">  1       21 0.71999778E-01 0.29739586E+03</pdfrwt>
<pdfrwt beam="2">  1       21 0.31884977E-01 0.29739586E+03</pdfrwt>
<totfact> 0.15589626E+04</totfact>
</mgrwt>
</event>
<event>
 4    1  0.4327903E+000  0.1749222E+03  0.7546771E-02  0.1172810E+00
         21   -1    0    0  503  502  0.00000000000E+00  0.00000000000E+00  0.59377480912E+02  0.59377480912E+02  0.00000000000E+00 0. -1.
         21   -1    0    0  501  503 -0.00000000000E+00 -0.00000000000E+00 -0.88030199561E+03  0.88030199561E+03  0.00000000000E+00 0. -1.
          6    1    1    2  501    0  0.19411055185E+02  0.17088089648E+02 -0.71299734538E+03  0.73414099899E+03  0.17300000000E+03 0. -1.
         -6    1    1    2    0  502 -0.19411055185E+02 -0.17088089648E+02 -0.10792716932E+03  0.20553847754E+03  0.17300000000E+03 0. -1.
<mgrwt>
<rscale>  2 0.17492225E+03</rscale>
<asrwt>0</asrwt>
<pdfrwt beam="1">  1       21 0.91349983E-02 0.17492225E+03</pdfrwt>
<pdfrwt beam="2">  1       21 0.13543106E+00 0.17492225E+03</pdfrwt>
<totfact> 0.37466222E+04</totfact>
</mgrwt>
</event>
<event>
 4    1  0.4327903E+000  0.1978691E+03  0.7546771E-02  0.1151549E+00
         21   -1    0    0  503  502  0.00000000000E+00  0.00000000000E+00  0.39000262130E+03  0.39000262130E+03  0.00000000000E+00 0. -1.
         21   -1    0    0  501  503 -0.00000000000E+00 -0.00000000000E+00 -0.10152638087E+03  0.10152638087E+03  0.00000000000E+00 0.  1.
          6    1    1    2  501    0  0.95607213602E+02  0.90792880843E+01  0.11823143985E+03  0.23050129313E+03  0.17300000000E+03 0. -1.
         -6    1    1    2    0  502 -0.95607213602E+02 -0.90792880843E+01  0.17024480058E+03  0.26102770905E+03  0.17300000000E+03 0. -1.
<mgrwt>
<rscale>  2 0.19786908E+03</rscale>
<asrwt>0</asrwt>
<pdfrwt beam="1">  1       21 0.60000403E-01 0.19786908E+03</pdfrwt>
<pdfrwt beam="2">  1       21 0.15619443E-01 0.19786908E+03</pdfrwt>
<totfact> 0.94211924E+04</totfact>
</mgrwt>
</event>
<event>
 4    1  0.4327903E+000  0.1973221E+03  0.7546771E-02  0.1152018E+00
         21   -1    0    0  501  502  0.00000000000E+00  0.00000000000E+00  0.11196327018E+03  0.11196327018E+03  0.00000000000E+00 0. -1.
         21   -1    0    0  502  503 -0.00000000000E+00 -0.00000000000E+00 -0.40295308278E+03  0.40295308278E+03  0.00000000000E+00 0. -1.
          6    1    1    2  501    0  0.37440961485E+02 -0.87207603150E+02 -0.50207774523E+02  0.20360946016E+03  0.17300000000E+03 0. -1.
         -6    1    1    2    0  503 -0.37440961485E+02  0.87207603150E+02 -0.24078203808E+03  0.31130689280E+03  0.17300000000E+03 0. -1.
<mgrwt>
<rscale>  2 0.19732205E+03</rscale>
<asrwt>0</asrwt>
<pdfrwt beam="1">  1       21 0.17225119E-01 0.19732205E+03</pdfrwt>
<pdfrwt beam="2">  1       21 0.61992781E-01 0.19732205E+03</pdfrwt>
<totfact> 0.73391840E+04</totfact>
</mgrwt>
</event>
<event>
 4    1  0.4327903E+000  0.2108578E+03  0.7546771E-02  0.1140888E+00
         21   -1    0    0  501  502  0.00000000000E+00  0.00000000000E+00  0.22012870968E+03  0.22012870968E+03  0.00000000000E+00 0.  1.
         21   -1    0    0  502  503 -0.00000000000E+00 -0.00000000000E+00 -0.20227675833E+03  0.20227675833E+03  0.00000000000E+00 0.  1.
          6    1    1    2  501    0  0.11431207267E+03 -0.38272267840E+02  0.80050392270E+00  0.21085933048E+03  0.17300000000E+03 0.  1.
         -6    1    1    2    0  503 -0.11431207267E+03  0.38272267840E+02  0.17051447431E+02  0.21154613753E+03  0.17300000000E+03 0.  1.
<mgrwt>
<rscale>  2 0.21085781E+03</rscale>
<asrwt>0</asrwt>
<pdfrwt beam="1">  1       21 0.33865955E-01 0.21085781E+03</pdfrwt>
<pdfrwt beam="2">  1       21 0.31119501E-01 0.21085781E+03</pdfrwt>
<totfact> 0.82693696E+04</totfact>
</mgrwt>
</event>
<event>
 4    1  0.4327903E+000  0.1839779E+03  0.7546771E-02  0.1164008E+00
         21   -1    0    0  503  502  0.00000000000E+00  0.00000000000E+00  0.25921676065E+03  0.25921676065E+03  0.00000000000E+00 0. -1.
         21   -1    0    0  501  503 -0.00000000000E+00 -0.00000000000E+00 -0.14274816308E+03  0.14274816308E+03  0.00000000000E+00 0. -1.
          6    1    1    2  501    0 -0.90848975222E+01  0.61938198222E+02 -0.45110170057E+00  0.18397847498E+03  0.17300000000E+03 0. -1.
         -6    1    1    2    0  502  0.90848975222E+01 -0.61938198222E+02  0.11691969927E+03  0.21798644875E+03  0.17300000000E+03 0. -1.
<mgrwt>
<rscale>  2 0.18397792E+03</rscale>
<asrwt>0</asrwt>
<pdfrwt beam="1">  1       21 0.39879502E-01 0.18397792E+03</pdfrwt>
<pdfrwt beam="2">  1       21 0.21961256E-01 0.18397792E+03</pdfrwt>
<totfact> 0.11773280E+05</totfact>
</mgrwt>
</event>
<event>
 4    1  0.4327903E+000  0.2010901E+03  0.7546771E-02  0.1148823E+00
         21   -1    0    0  501  502  0.00000000000E+00  0.00000000000E+00  0.15883559961E+03  0.15883559961E+03  0.00000000000E+00 0.  1.
         21   -1    0    0  502  503 -0.00000000000E+00 -0.00000000000E+00 -0.33289179232E+03  0.33289179232E+03  0.00000000000E+00 0.  1.
          6    1    1    2  501    0 -0.71421652705E+02 -0.73533609726E+02  0.32217164620E+02  0.20365458485E+03  0.17300000000E+03 0.  1.
         -6    1    1    2    0  503  0.71421652705E+02  0.73533609726E+02 -0.20627335733E+03  0.28807280708E+03  0.17300000000E+03 0.  1.
<mgrwt>
<rscale>  2 0.20109014E+03</rscale>
<asrwt>0</asrwt>
<pdfrwt beam="1">  1       21 0.24436247E-01 0.20109014E+03</pdfrwt>
<pdfrwt beam="2">  1       21 0.51214121E-01 0.20109014E+03</pdfrwt>
<totfact> 0.57105972E+04</totfact>
</mgrwt>
</event>
<event>
 4    1  0.4327903E+000  0.2077042E+03  0.7546771E-02  0.1143397E+00
         21   -1    0    0  501  502  0.00000000000E+00  0.00000000000E+00  0.11319529610E+04  0.11319529610E+04  0.00000000000E+00 0.  1.
         21   -1    0    0  502  503 -0.00000000000E+00 -0.00000000000E+00 -0.42456190623E+02  0.42456190623E+02  0.00000000000E+00 0. -1.
          6    1    1    2  501    0  0.10303317516E+03 -0.50952830166E+02  0.73258135163E+03  0.76145680300E+03  0.17300000000E+03 0. -1.
         -6    1    1    2    0  503 -0.10303317516E+03  0.50952830166E+02  0.35691541872E+03  0.41295234859E+03  0.17300000000E+03 0. -1.
<mgrwt>
<rscale>  2 0.20770418E+03</rscale>
<asrwt>0</asrwt>
<pdfrwt beam="1">  1       21 0.17414659E+00 0.20770418E+03</pdfrwt>
<pdfrwt beam="2">  1       21 0.65317225E-02 0.20770418E+03</pdfrwt>
<totfact> 0.33695358E+04</totfact>
</mgrwt>
</event>
<event>
 4    1  0.4327903E+000  0.1873242E+03  0.7546771E-02  0.1160897E+00
         21   -1    0    0  501  502  0.00000000000E+00  0.00000000000E+00  0.38995702646E+03  0.38995702646E+03  0.00000000000E+00 0. -1.
         21   -1    0    0  502  503 -0.00000000000E+00 -0.00000000000E+00 -0.13603303506E+03  0.13603303506E+03  0.00000000000E+00 0. -1.
          6    1    1    2  501    0  0.19752994491E+02  0.69073589702E+02  0.27997565173E+03  0.33686303915E+03  0.17300000000E+03 0. -1.
         -6    1    1    2    0  503 -0.19752994491E+02 -0.69073589702E+02 -0.26051660333E+02  0.18912702237E+03  0.17300000000E+03 0. -1.
<mgrwt>
<rscale>  2 0.18732416E+03</rscale>
<asrwt>0</asrwt>
<pdfrwt beam="1">  1       21 0.59993389E-01 0.18732416E+03</pdfrwt>
<pdfrwt beam="2">  1       21 0.20928159E-01 0.18732416E+03</pdfrwt>
<totfact> 0.55091287E+04</totfact>
</mgrwt>
</event>
<event>
 4    1  0.4327903E+000  0.3420532E+03  0.7546771E-02  0.1065925E+00
         21   -1    0    0  501  502  0.00000000000E+00  0.00000000000E+00  0.17463734861E+04  0.17463734861E+04  0.00000000000E+00 0. -1.
         21   -1    0    0  502  503 -0.00000000000E+00 -0.00000000000E+00 -0.67339855726E+02  0.67339855726E+02  0.00000000000E+00 0. -1.
          6    1    1    2  501    0 -0.78043090911E+02  0.28457100319E+03  0.77473292080E+03  0.84688339130E+03  0.17300000000E+03 0. -1.
         -6    1    1    2    0  503  0.78043090911E+02 -0.28457100319E+03  0.90430070961E+03  0.96682995056E+03  0.17300000000E+03 0. -1.
<mgrwt>
<rscale>  2 0.34205318E+03</rscale>
<asrwt>0</asrwt>
<pdfrwt beam="1">  1       21 0.26867281E+00 0.34205318E+03</pdfrwt>
<pdfrwt beam="2">  1       21 0.10359979E-01 0.34205318E+03</pdfrwt>
<totfact> 0.34839615E+03</totfact>
</mgrwt>
</event>
<event>
 4    1  0.4327903E+000  0.1857938E+03  0.7546771E-02  0.1162311E+00
         21   -1    0    0  501  502  0.00000000000E+00  0.00000000000E+00  0.17159866035E+03  0.17159866035E+03  0.00000000000E+00 0.  1.
         21   -1    0    0  502  503 -0.00000000000E+00 -0.00000000000E+00 -0.20132298519E+03  0.20132298519E+03  0.00000000000E+00 0. -1.
          6    1    1    2  501    0 -0.49756848295E+02 -0.45984856736E+02 -0.20113711458E+02  0.18687940601E+03  0.17300000000E+03 0.  1.
         -6    1    1    2    0  503  0.49756848295E+02  0.45984856736E+02 -0.96106133771E+01  0.18604223953E+03  0.17300000000E+03 0.  1.
<mgrwt>
<rscale>  2 0.18579384E+03</rscale>
<asrwt>0</asrwt>
<pdfrwt beam="1">  1       21 0.26399794E-01 0.18579384E+03</pdfrwt>
<pdfrwt beam="2">  1       21 0.30972767E-01 0.18579384E+03</pdfrwt>
<totfact> 0.13694655E+05</totfact>
</mgrwt>
</event>
<event>
 4    1  0.4327903E+000  0.2205533E+03  0.7546771E-02  0.1133471E+00
         21   -1    0    0  503  502  0.00000000000E+00  0.00000000000E+00  0.12860471836E+04  0.12860471836E+04  0.00000000000E+00 0. -1.
         21   -1    0    0  501  503 -0.00000000000E+00 -0.00000000000E+00 -0.49506463210E+02  0.49506463210E+02  0.00000000000E+00 0. -1.
          6    1    1    2  501    0  0.13321024455E+03  0.31141415240E+02  0.29388358068E+03  0.36743886020E+03  0.17300000000E+03 0. -1.
         -6    1    1    2    0  502 -0.13321024455E+03 -0.31141415240E+02  0.94265713970E+03  0.96811478659E+03  0.17300000000E+03 0. -1.
<mgrwt>
<rscale>  2 0.22055330E+03</rscale>
<asrwt>0</asrwt>
<pdfrwt beam="1">  1       21 0.19785339E+00 0.22055330E+03</pdfrwt>
<pdfrwt beam="2">  1       21 0.76163799E-02 0.22055330E+03</pdfrwt>
<totfact> 0.17745779E+04</totfact>
</mgrwt>
</event>
<event>
 4    1  0.4327903E+000  0.1776516E+03  0.7546771E-02  0.1170095E+00
         21   -1    0    0  503  502  0.00000000000E+00  0.00000000000E+00  0.73738444399E+03  0.73738444399E+03  0.00000000000E+00 0. -1.
         21   -1    0    0  501  503 -0.00000000000E+00 -0.00000000000E+00 -0.47618312249E+02  0.47618312249E+02  0.00000000000E+00 0. -1.
          6    1    1    2  501    0  0.17141357474E+02 -0.36568729147E+02  0.22003006793E+03  0.28279556022E+03  0.17300000000E+03 0. -1.
         -6    1    1    2    0  502 -0.17141357474E+02  0.36568729147E+02  0.46973606381E+03  0.50220719602E+03  0.17300000000E+03 0. -1.
<mgrwt>
<rscale>  2 0.17765162E+03</rscale>
<asrwt>0</asrwt>
<pdfrwt beam="1">  1       21 0.11344375E+00 0.17765162E+03</pdfrwt>
<pdfrwt beam="2">  1       21 0.73258947E-02 0.17765162E+03</pdfrwt>
<totfact> 0.85305626E+04</totfact>
</mgrwt>
</event>
<event>
 4    1  0.4327903E+000  0.1888787E+03  0.7546771E-02  0.1159477E+00
         21   -1    0    0  501  502  0.00000000000E+00  0.00000000000E+00  0.65249983264E+03  0.65249983264E+03  0.00000000000E+00 0.  1.
         21   -1    0    0  502  503 -0.00000000000E+00 -0.00000000000E+00 -0.69444608405E+02  0.69444608405E+02  0.00000000000E+00 0.  1.
          6    1    1    2  501    0  0.48420723160E+02  0.58323310408E+02  0.45800096015E+03  0.49541906954E+03  0.17300000000E+03 0.  1.
         -6    1    1    2    0  503 -0.48420723160E+02 -0.58323310408E+02  0.12505426408E+03  0.22652537150E+03  0.17300000000E+03 0.  1.
<mgrwt>
<rscale>  2 0.18887873E+03</rscale>
<asrwt>0</asrwt>
<pdfrwt beam="1">  1       21 0.10038459E+00 0.18887873E+03</pdfrwt>
<pdfrwt beam="2">  1       21 0.10683786E-01 0.18887873E+03</pdfrwt>
<totfact> 0.58823394E+04</totfact>
</mgrwt>
</event>
<event>
 4    1  0.4327903E+000  0.2121319E+03  0.7546771E-02  0.1139889E+00
         21   -1    0    0  501  502  0.00000000000E+00  0.00000000000E+00  0.13515018893E+03  0.13515018893E+03  0.00000000000E+00 0.  1.
         21   -1    0    0  502  503 -0.00000000000E+00 -0.00000000000E+00 -0.34261063385E+03  0.34261063385E+03  0.00000000000E+00 0.  1.
          6    1    1    2  501    0  0.12257605743E+03 -0.67868603158E+01 -0.63643487113E+02  0.22147335004E+03  0.17300000000E+03 0.  1.
         -6    1    1    2    0  503 -0.12257605743E+03  0.67868603158E+01 -0.14381695780E+03  0.25628747273E+03  0.17300000000E+03 0.  1.
<mgrwt>
<rscale>  2 0.21213192E+03</rscale>
<asrwt>0</asrwt>
<pdfrwt beam="1">  1       21 0.20792337E-01 0.21213192E+03</pdfrwt>
<pdfrwt beam="2">  1       21 0.52709327E-01 0.21213192E+03</pdfrwt>
<totfact> 0.72611485E+04</totfact>
</mgrwt>
</event>
<event>
 4    1  0.4327903E+000  0.1913076E+03  0.7546771E-02  0.1157287E+00
         21   -1    0    0  503  502  0.00000000000E+00  0.00000000000E+00  0.10791652182E+04  0.10791652182E+04  0.00000000000E+00 0.  1.
         21   -1    0    0  501  503 -0.00000000000E+00 -0.00000000000E+00 -0.88201831986E+02  0.88201831986E+02  0.00000000000E+00 0.  1.
          6    1    1    2  501    0 -0.27416395444E+01  0.81621610717E+02  0.37560606788E+02  0.19496000386E+03  0.17300000000E+03 0.  1.
         -6    1    1    2    0  502  0.27416395444E+01 -0.81621610717E+02  0.95340277939E+03  0.97240704628E+03  0.17300000000E+03 0.  1.
<mgrwt>
<rscale>  2 0.19130762E+03</rscale>
<asrwt>0</asrwt>
<pdfrwt beam="1">  1       21 0.16602541E+00 0.19130762E+03</pdfrwt>
<pdfrwt beam="2">  1       21 0.13569513E-01 0.19130762E+03</pdfrwt>
<totfact> 0.10723047E+04</totfact>
</mgrwt>
</event>
<event>
 4    1  0.4327903E+000  0.1780171E+03  0.7546771E-02  0.1169736E+00
         21   -1    0    0  501  502  0.00000000000E+00  0.00000000000E+00  0.20619726893E+04  0.20619726893E+04  0.00000000000E+00 0.  1.
         21   -1    0    0  502  503 -0.00000000000E+00 -0.00000000000E+00 -0.11283687312E+03  0.11283687312E+03  0.00000000000E+00 0.  1.
          6    1    1    2  501    0 -0.32172564502E+02 -0.26944514787E+02  0.19852088069E+04  0.19931743746E+04  0.17300000000E+03 0.  1.
         -6    1    1    2    0  503  0.32172564502E+02  0.26944514787E+02 -0.36072990697E+02  0.18163518778E+03  0.17300000000E+03 0.  1.
<mgrwt>
<rscale>  2 0.17801708E+03</rscale>
<asrwt>0</asrwt>
<pdfrwt beam="1">  1       21 0.31722654E+00 0.17801708E+03</pdfrwt>
<pdfrwt beam="2">  1       21 0.17359521E-01 0.17801708E+03</pdfrwt>
<totfact> 0.83303553E+02</totfact>
</mgrwt>
</event>
<event>
 4    1  0.4327903E+000  0.1946655E+03  0.7546771E-02  0.1154319E+00
         21   -1    0    0  501  502  0.00000000000E+00  0.00000000000E+00  0.11145504895E+03  0.11145504895E+03  0.00000000000E+00 0.  1.
         21   -1    0    0  502  503 -0.00000000000E+00 -0.00000000000E+00 -0.85303633549E+03  0.85303633549E+03  0.00000000000E+00 0.  1.
          6    1    1    2  501    0  0.58962592837E+02 -0.67000420060E+02  0.31984451035E+01  0.19469174018E+03  0.17300000000E+03 0.  1.
         -6    1    1    2    0  503 -0.58962592837E+02  0.67000420060E+02 -0.74477973164E+03  0.76979964426E+03  0.17300000000E+03 0.  1.
<mgrwt>
<rscale>  2 0.19466547E+03</rscale>
<asrwt>0</asrwt>
<pdfrwt beam="1">  1       21 0.17146931E-01 0.19466547E+03</pdfrwt>
<pdfrwt beam="2">  1       21 0.13123636E+00 0.19466547E+03</pdfrwt>
<totfact> 0.12941609E+04</totfact>
</mgrwt>
</event>
<event>
 4    1  0.4327903E+000  0.1807900E+03  0.7546771E-02  0.1167041E+00
         21   -1    0    0  503  502  0.00000000000E+00  0.00000000000E+00  0.95997272597E+03  0.95997272597E+03  0.00000000000E+00 0. -1.
         21   -1    0    0  501  503 -0.00000000000E+00 -0.00000000000E+00 -0.54948984607E+02  0.54948984607E+02  0.00000000000E+00 0. -1.
          6    1    1    2  501    0  0.42632833128E+02  0.30634581019E+02  0.13953853943E+03  0.22837696907E+03  0.17300000000E+03 0.  1.
         -6    1    1    2    0  502 -0.42632833128E+02 -0.30634581019E+02  0.76548520193E+03  0.78654474151E+03  0.17300000000E+03 0.  1.
<mgrwt>
<rscale>  2 0.18079003E+03</rscale>
<asrwt>0</asrwt>
<pdfrwt beam="1">  1       21 0.14768810E+00 0.18079003E+03</pdfrwt>
<pdfrwt beam="2">  1       21 0.84536907E-02 0.18079003E+03</pdfrwt>
<totfact> 0.34180710E+04</totfact>
</mgrwt>
</event>
<event>
 4    1  0.4327903E+000  0.5442191E+03  0.7546771E-02  0.1002841E+00
         21   -1    0    0  501  502  0.00000000000E+00  0.00000000000E+00  0.17400203269E+04  0.17400203269E+04  0.00000000000E+00 0. -1.
         21   -1    0    0  502  503 -0.00000000000E+00 -0.00000000000E+00 -0.17026747341E+03  0.17026747341E+03  0.00000000000E+00 0.  1.
          6    1    1    2  501    0  0.33794023640E+02 -0.51488192023E+03  0.80192926646E+03  0.96915683778E+03  0.17300000000E+03 0. -1.
         -6    1    1    2    0  503 -0.33794023640E+02  0.51488192023E+03  0.76782358701E+03  0.94113096250E+03  0.17300000000E+03 0.  1.
<mgrwt>
<rscale>  2 0.54421910E+03</rscale>
<asrwt>0</asrwt>
<pdfrwt beam="1">  1       21 0.26769542E+00 0.54421910E+03</pdfrwt>
<pdfrwt beam="2">  1       21 0.26194997E-01 0.54421910E+03</pdfrwt>
<totfact> 0.56082112E+02</totfact>
</mgrwt>
</event>
<event>
 4    1  0.4327903E+000  0.1857545E+03  0.7546771E-02  0.1162347E+00
         21   -1    0    0  501  502  0.00000000000E+00  0.00000000000E+00  0.61405486147E+03  0.61405486147E+03  0.00000000000E+00 0.  1.
         21   -1    0    0  502  503 -0.00000000000E+00 -0.00000000000E+00 -0.64004158797E+02  0.64004158797E+02  0.00000000000E+00 0.  1.
          6    1    1    2  501    0  0.62888153164E+02  0.24916144534E+02  0.39347387473E+03  0.43511656388E+03  0.17300000000E+03 0.  1.
         -6    1    1    2    0  503 -0.62888153164E+02 -0.24916144534E+02  0.15657682794E+03  0.24294245639E+03  0.17300000000E+03 0.  1.
<mgrwt>
<rscale>  2 0.18575450E+03</rscale>
<asrwt>0</asrwt>
<pdfrwt beam="1">  1       21 0.94469975E-01 0.18575450E+03</pdfrwt>
<pdfrwt beam="2">  1       21 0.98467941E-02 0.18575450E+03</pdfrwt>
<totfact> 0.78498451E+04</totfact>
</mgrwt>
</event>
<event>
 4    1  0.4327903E+000  0.1808101E+03  0.7546771E-02  0.1167021E+00
         21   -1    0    0  501  502  0.00000000000E+00  0.00000000000E+00  0.14923340115E+03  0.14923340115E+03  0.00000000000E+00 0.  1.
         21   -1    0    0  502  503 -0.00000000000E+00 -0.00000000000E+00 -0.27816346986E+03  0.27816346986E+03  0.00000000000E+00 0.  1.
          6    1    1    2  501    0  0.52361993863E+02 -0.46385875189E+01  0.34033007758E+02  0.18398516384E+03  0.17300000000E+03 0.  1.
         -6    1    1    2    0  503 -0.52361993863E+02  0.46385875189E+01 -0.16296307647E+03  0.24341170717E+03  0.17300000000E+03 0.  1.
<mgrwt>
<rscale>  2 0.18081011E+03</rscale>
<asrwt>0</asrwt>
<pdfrwt beam="1">  1       21 0.22958985E-01 0.18081011E+03</pdfrwt>
<pdfrwt beam="2">  1       21 0.42794379E-01 0.18081011E+03</pdfrwt>
<totfact> 0.93956250E+04</totfact>
</mgrwt>
</event>
<event>
 4    1  0.4327903E+000  0.1916719E+03  0.7546771E-02  0.1156962E+00
         21   -1    0    0  501  502  0.00000000000E+00  0.00000000000E+00  0.78175601038E+02  0.78175601038E+02  0.00000000000E+00 0. -1.
         21   -1    0    0  502  503 -0.00000000000E+00 -0.00000000000E+00 -0.48630525271E+03  0.48630525271E+03  0.00000000000E+00 0. -1.
          6    1    1    2  501    0  0.60409653155E+02  0.56211994404E+02 -0.15229462715E+03  0.24480965661E+03  0.17300000000E+03 0. -1.
         -6    1    1    2    0  503 -0.60409653155E+02 -0.56211994404E+02 -0.25583502452E+03  0.31967119714E+03  0.17300000000E+03 0. -1.
<mgrwt>
<rscale>  2 0.19167189E+03</rscale>
<asrwt>0</asrwt>
<pdfrwt beam="1">  1       21 0.12027015E-01 0.19167189E+03</pdfrwt>
<pdfrwt beam="2">  1       21 0.74816193E-01 0.19167189E+03</pdfrwt>
<totfact> 0.93476249E+04</totfact>
</mgrwt>
</event>
<event>
 4    1  0.4327903E+000  0.2096310E+03  0.7546771E-02  0.1141859E+00
         21   -1    0    0  501  502  0.00000000000E+00  0.00000000000E+00  0.10701919675E+03  0.10701919675E+03  0.00000000000E+00 0. -1.
         21   -1    0    0  502  503 -0.00000000000E+00 -0.00000000000E+00 -0.42463383024E+03  0.42463383024E+03  0.00000000000E+00 0.  1.
          6    1    1    2  501    0 -0.11091722030E+02  0.11786914197E+03 -0.11053106766E+03  0.23698581781E+03  0.17300000000E+03 0. -1.
         -6    1    1    2    0  503  0.11091722030E+02 -0.11786914197E+03 -0.20708356583E+03  0.29466720918E+03  0.17300000000E+03 0.  1.
<mgrwt>
<rscale>  2 0.20963101E+03</rscale>
<asrwt>0</asrwt>
<pdfrwt beam="1">  1       21 0.16464492E-01 0.20963101E+03</pdfrwt>
<pdfrwt beam="2">  1       21 0.65328281E-01 0.20963101E+03</pdfrwt>
<totfact> 0.70785009E+04</totfact>
</mgrwt>
</event>
<event>
 4    1  0.4327903E+000  0.1807482E+03  0.7546771E-02  0.1167081E+00
         21   -1    0    0  503  502  0.00000000000E+00  0.00000000000E+00  0.42610643627E+03  0.42610643627E+03  0.00000000000E+00 0.  1.
         21   -1    0    0  501  503 -0.00000000000E+00 -0.00000000000E+00 -0.13793379463E+03  0.13793379463E+03  0.00000000000E+00 0.  1.
          6    1    1    2  501    0  0.42861844167E+02  0.30062723250E+02 -0.43864397963E+02  0.18599459783E+03  0.17300000000E+03 0.  1.
         -6    1    1    2    0  502 -0.42861844167E+02 -0.30062723250E+02  0.33203703961E+03  0.37804563307E+03  0.17300000000E+03 0.  1.
<mgrwt>
<rscale>  2 0.18074818E+03</rscale>
<asrwt>0</asrwt>
<pdfrwt beam="1">  1       21 0.65554836E-01 0.18074818E+03</pdfrwt>
<pdfrwt beam="2">  1       21 0.21220584E-01 0.18074818E+03</pdfrwt>
<totfact> 0.44459067E+04</totfact>
</mgrwt>
</event>
<event>
 4    1  0.4327903E+000  0.2438500E+03  0.7546771E-02  0.1117254E+00
         21   -1    0    0  501  502  0.00000000000E+00  0.00000000000E+00  0.44703274418E+03  0.44703274418E+03  0.00000000000E+00 0. -1.
         21   -1    0    0  502  503 -0.00000000000E+00 -0.00000000000E+00 -0.17273235643E+03  0.17273235643E+03  0.00000000000E+00 0.  1.
          6    1    1    2  501    0  0.16907547737E+03 -0.30778386807E+02  0.28574070452E+03  0.37564687722E+03  0.17300000000E+03 0. -1.
         -6    1    1    2    0  503 -0.16907547737E+03  0.30778386807E+02 -0.11440316767E+02  0.24411822339E+03  0.17300000000E+03 0.  1.
<mgrwt>
<rscale>  2 0.24385001E+03</rscale>
<asrwt>0</asrwt>
<pdfrwt beam="1">  1       21 0.68774268E-01 0.24385001E+03</pdfrwt>
<pdfrwt beam="2">  1       21 0.26574209E-01 0.24385001E+03</pdfrwt>
<totfact> 0.25262604E+04</totfact>
</mgrwt>
</event>
<event>
 4    1  0.4327903E+000  0.2162398E+03  0.7546771E-02  0.1136718E+00
         21   -1    0    0  501  502  0.00000000000E+00  0.00000000000E+00  0.29998266014E+03  0.29998266014E+03  0.00000000000E+00 0.  1.
         21   -1    0    0  502  503 -0.00000000000E+00 -0.00000000000E+00 -0.18173929452E+03  0.18173929452E+03  0.00000000000E+00 0.  1.
          6    1    1    2  501    0  0.88922707727E+02 -0.94463854746E+02  0.14998654324E+03  0.26316464610E+03  0.17300000000E+03 0.  1.
         -6    1    1    2    0  503 -0.88922707727E+02  0.94463854746E+02 -0.31743177613E+02  0.21855730857E+03  0.17300000000E+03 0.  1.
<mgrwt>
<rscale>  2 0.21623984E+03</rscale>
<asrwt>0</asrwt>
<pdfrwt beam="1">  1       21 0.46151178E-01 0.21623984E+03</pdfrwt>
<pdfrwt beam="2">  1       21 0.27959891E-01 0.21623984E+03</pdfrwt>
<totfact> 0.54359104E+04</totfact>
</mgrwt>
</event>
<event>
 4    1  0.4327903E+000  0.1922255E+03  0.7546771E-02  0.1156469E+00
         21   -1    0    0  501  502  0.00000000000E+00  0.00000000000E+00  0.63143217004E+03  0.63143217004E+03  0.00000000000E+00 0. -1.
         21   -1    0    0  502  503 -0.00000000000E+00 -0.00000000000E+00 -0.58542340059E+02  0.58542340059E+02  0.00000000000E+00 0. -1.
          6    1    1    2  501    0 -0.49743249175E+02 -0.67433420427E+02  0.29336180782E+03  0.35073039121E+03  0.17300000000E+03 0. -1.
         -6    1    1    2    0  503  0.49743249175E+02  0.67433420427E+02  0.27952802216E+03  0.33924411889E+03  0.17300000000E+03 0. -1.
<mgrwt>
<rscale>  2 0.19222554E+03</rscale>
<asrwt>0</asrwt>
<pdfrwt beam="1">  1       21 0.97143406E-01 0.19222554E+03</pdfrwt>
<pdfrwt beam="2">  1       21 0.90065143E-02 0.19222554E+03</pdfrwt>
<totfact> 0.85782729E+04</totfact>
</mgrwt>
</event>
<event>
 4    1  0.4327903E+000  0.1850213E+03  0.7546771E-02  0.1163030E+00
         21   -1    0    0  501  502  0.00000000000E+00  0.00000000000E+00  0.76866592769E+02  0.76866592769E+02  0.00000000000E+00 0.  1.
         21   -1    0    0  502  503 -0.00000000000E+00 -0.00000000000E+00 -0.20221356182E+04  0.20221356182E+04  0.00000000000E+00 0.  1.
          6    1    1    2  501    0  0.65503197556E+02 -0.36341297570E+01 -0.45882625428E+02  0.19062552585E+03  0.17300000000E+03 0.  1.
         -6    1    1    2    0  503 -0.65503197556E+02  0.36341297570E+01 -0.18993864000E+04  0.19083766852E+04  0.17300000000E+03 0.  1.
<mgrwt>
<rscale>  2 0.18502128E+03</rscale>
<asrwt>0</asrwt>
<pdfrwt beam="1">  1       21 0.11825631E-01 0.18502128E+03</pdfrwt>
<pdfrwt beam="2">  1       21 0.31109775E+00 0.18502128E+03</pdfrwt>
<totfact> 0.17930206E+03</totfact>
</mgrwt>
</event>
<event>
 4    1  0.4327903E+000  0.2775631E+03  0.7546771E-02  0.1097027E+00
         21   -1    0    0  501  502  0.00000000000E+00  0.00000000000E+00  0.14375475919E+04  0.14375475919E+04  0.00000000000E+00 0. -1.
         21   -1    0    0  502  503 -0.00000000000E+00 -0.00000000000E+00 -0.54924398217E+02  0.54924398217E+02  0.00000000000E+00 0. -1.
          6    1    1    2  501    0 -0.57501885963E+02  0.20929837482E+03  0.80753268369E+03  0.85390298736E+03  0.17300000000E+03 0. -1.
         -6    1    1    2    0  503  0.57501885963E+02 -0.20929837482E+03  0.57509050995E+03  0.63856900271E+03  0.17300000000E+03 0. -1.
<mgrwt>
<rscale>  2 0.27756310E+03</rscale>
<asrwt>0</asrwt>
<pdfrwt beam="1">  1       21 0.22116114E+00 0.27756310E+03</pdfrwt>
<pdfrwt beam="2">  1       21 0.84499085E-02 0.27756310E+03</pdfrwt>
<totfact> 0.10129382E+04</totfact>
</mgrwt>
</event>
<event>
 4    1  0.4327903E+000  0.1998668E+03  0.7546771E-02  0.1149851E+00
         21   -1    0    0  503  502  0.00000000000E+00  0.00000000000E+00  0.61347212370E+02  0.61347212370E+02  0.00000000000E+00 0. -1.
         21   -1    0    0  501  503 -0.00000000000E+00 -0.00000000000E+00 -0.18176160586E+04  0.18176160586E+04  0.00000000000E+00 0. -1.
          6    1    1    2  501    0 -0.39271637342E+01 -0.10001147531E+03 -0.16307475949E+04  0.16429499189E+04  0.17300000000E+03 0. -1.
         -6    1    1    2    0  502  0.39271637342E+01  0.10001147531E+03 -0.12552125132E+03  0.23601335204E+03  0.17300000000E+03 0. -1.
<mgrwt>
<rscale>  2 0.19986675E+03</rscale>
<asrwt>0</asrwt>
<pdfrwt beam="1">  1       21 0.94380329E-02 0.19986675E+03</pdfrwt>
<pdfrwt beam="2">  1       21 0.27963323E+00 0.19986675E+03</pdfrwt>
<totfact> 0.39859055E+03</totfact>
</mgrwt>
</event>
<event>
 4    1  0.4327903E+000  0.1766592E+03  0.7546771E-02  0.1171076E+00
         21   -1    0    0  501  502  0.00000000000E+00  0.00000000000E+00  0.38224818693E+03  0.38224818693E+03  0.00000000000E+00 0.  1.
         21   -1    0    0  502  503 -0.00000000000E+00 -0.00000000000E+00 -0.92817863907E+02  0.92817863907E+02  0.00000000000E+00 0.  1.
          6    1    1    2  501    0  0.90222789747E+01  0.34613336122E+02  0.22712879191E+03  0.28774289334E+03  0.17300000000E+03 0.  1.
         -6    1    1    2    0  503 -0.90222789747E+01 -0.34613336122E+02  0.62301531119E+02  0.18732315750E+03  0.17300000000E+03 0.  1.
<mgrwt>
<rscale>  2 0.17665923E+03</rscale>
<asrwt>0</asrwt>
<pdfrwt beam="1">  1       21 0.58807412E-01 0.17665923E+03</pdfrwt>
<pdfrwt beam="2">  1       21 0.14279672E-01 0.17665923E+03</pdfrwt>
<totfact> 0.11672496E+05</totfact>
</mgrwt>
</event>
<event>
 4    1  0.4327903E+000  0.2109238E+03  0.7546771E-02  0.1140836E+00
         21   -1    0    0  503  502  0.00000000000E+00  0.00000000000E+00  0.74422019550E+02  0.74422019550E+02  0.00000000000E+00 0.  1.
         21   -1    0    0  501  503 -0.00000000000E+00 -0.00000000000E+00 -0.59788059048E+03  0.59788059048E+03  0.00000000000E+00 0.  1.
          6    1    1    2  501    0  0.22091643534E+02  0.11862472077E+03 -0.25763034724E+03  0.33295984879E+03  0.17300000000E+03 0.  1.
         -6    1    1    2    0  502 -0.22091643534E+02 -0.11862472077E+03 -0.26582822369E+03  0.33934276124E+03  0.17300000000E+03 0.  1.
<mgrwt>
<rscale>  2 0.21092384E+03</rscale>
<asrwt>0</asrwt>
<pdfrwt beam="1">  1       21 0.11449541E-01 0.21092384E+03</pdfrwt>
<pdfrwt beam="2">  1       21 0.91981630E-01 0.21092384E+03</pdfrwt>
<totfact> 0.63190386E+04</totfact>
</mgrwt>
</event>
<event>
 4    1  0.4327903E+000  0.1758959E+03  0.7546771E-02  0.1171835E+00
         21   -1    0    0  503  502  0.00000000000E+00  0.00000000000E+00  0.36367119906E+03  0.36367119906E+03  0.00000000000E+00 0.  1.
         21   -1    0    0  501  503 -0.00000000000E+00 -0.00000000000E+00 -0.89315229382E+02  0.89315229382E+02  0.00000000000E+00 0.  1.
          6    1    1    2  501    0 -0.13929915087E+01 -0.31755929917E+02  0.18652714360E+03  0.25638204853E+03  0.17300000000E+03 0. -1.
         -6    1    1    2    0  502  0.13929915087E+01  0.31755929917E+02  0.87828826083E+02  0.19660437991E+03  0.17300000000E+03 0. -1.
<mgrwt>
<rscale>  2 0.17589593E+03</rscale>
<asrwt>0</asrwt>
<pdfrwt beam="1">  1       21 0.55949414E-01 0.17589593E+03</pdfrwt>
<pdfrwt beam="2">  1       21 0.13740805E-01 0.17589593E+03</pdfrwt>
<totfact> 0.13914519E+05</totfact>
</mgrwt>
</event>
<event>
 4    1  0.4327903E+000  0.1759427E+03  0.7546771E-02  0.1171789E+00
         21   -1    0    0  503  502  0.00000000000E+00  0.00000000000E+00  0.30525274571E+03  0.30525274571E+03  0.00000000000E+00 0. -1.
         21   -1    0    0  501  503 -0.00000000000E+00 -0.00000000000E+00 -0.11592003371E+03  0.11592003371E+03  0.00000000000E+00 0. -1.
          6    1    1    2  501    0 -0.25681851730E+02 -0.19164166050E+02  0.20162576071E+02  0.17709419031E+03  0.17300000000E+03 0. -1.
         -6    1    1    2    0  502  0.25681851730E+02  0.19164166050E+02  0.16917013593E+03  0.24407858910E+03  0.17300000000E+03 0. -1.
<mgrwt>
<rscale>  2 0.17594267E+03</rscale>
<asrwt>0</asrwt>
<pdfrwt beam="1">  1       21 0.46961961E-01 0.17594267E+03</pdfrwt>
<pdfrwt beam="2">  1       21 0.17833851E-01 0.17594267E+03</pdfrwt>
<totfact> 0.12468153E+05</totfact>
</mgrwt>
</event>
<event>
 4    1  0.4327903E+000  0.1940911E+03  0.7546771E-02  0.1154822E+00
         21   -1    0    0  501  502  0.00000000000E+00  0.00000000000E+00  0.14640271951E+02  0.14640271951E+02  0.00000000000E+00 0.  1.
         21   -1    0    0  502  503 -0.00000000000E+00 -0.00000000000E+00 -0.29440737119E+04  0.29440737119E+04  0.00000000000E+00 0.  1.
          6    1    1    2  501    0 -0.29423129921E+02 -0.82925545046E+02 -0.93960596755E+03  0.95944293256E+03  0.17300000000E+03 0.  1.
         -6    1    1    2    0  503  0.29423129921E+02  0.82925545046E+02 -0.19898274724E+04  0.19992710513E+04  0.17300000000E+03 0.  1.
<mgrwt>
<rscale>  2 0.19409113E+03</rscale>
<asrwt>0</asrwt>
<pdfrwt beam="1">  1       21 0.22523501E-02 0.19409113E+03</pdfrwt>
<pdfrwt beam="2">  1       21 0.45293430E+00 0.19409113E+03</pdfrwt>
<totfact> 0.40247284E+03</totfact>
</mgrwt>
</event>
<event>
 4    1  0.4327903E+000  0.2265079E+03  0.7546771E-02  0.1129122E+00
         21   -1    0    0  501  502  0.00000000000E+00  0.00000000000E+00  0.19358313750E+03  0.19358313750E+03  0.00000000000E+00 0. -1.
         21   -1    0    0  502  503 -0.00000000000E+00 -0.00000000000E+00 -0.33634147038E+03  0.33634147038E+03  0.00000000000E+00 0. -1.
          6    1    1    2  501    0  0.14498951480E+03 -0.18838228751E+02  0.50622488887E+02  0.23209583074E+03  0.17300000000E+03 0.  1.
         -6    1    1    2    0  503 -0.14498951480E+03  0.18838228751E+02 -0.19338082177E+03  0.29782877714E+03  0.17300000000E+03 0.  1.
<mgrwt>
<rscale>  2 0.22650792E+03</rscale>
<asrwt>0</asrwt>
<pdfrwt beam="1">  1       21 0.29782022E-01 0.22650792E+03</pdfrwt>
<pdfrwt beam="2">  1       21 0.51744841E-01 0.22650792E+03</pdfrwt>
<totfact> 0.37691146E+04</totfact>
</mgrwt>
</event>
<event>
 4    1  0.4327903E+000  0.1761823E+03  0.7546771E-02  0.1171550E+00
         21   -1    0    0  503  502  0.00000000000E+00  0.00000000000E+00  0.18279587064E+04  0.18279587064E+04  0.00000000000E+00 0.  1.
         21   -1    0    0  501  503 -0.00000000000E+00 -0.00000000000E+00 -0.31662191287E+02  0.31662191287E+02  0.00000000000E+00 0.  1.
          6    1    1    2  501    0  0.64751521637E-01  0.33334762290E+02  0.26499700682E+03  0.31821945917E+03  0.17300000000E+03 0.  1.
         -6    1    1    2    0  502 -0.64751521637E-01 -0.33334762290E+02  0.15312995083E+04  0.15414014385E+04  0.17300000000E+03 0.  1.
<mgrwt>
<rscale>  2 0.17618232E+03</rscale>
<asrwt>0</asrwt>
<pdfrwt beam="1">  1       21 0.28122434E+00 0.17618232E+03</pdfrwt>
<pdfrwt beam="2">  1       21 0.48711078E-02 0.17618232E+03</pdfrwt>
<totfact> 0.12523786E+04</totfact>
</mgrwt>
</event>
<event>
 4    1  0.4327903E+000  0.1766562E+03  0.7546771E-02  0.1171079E+00
         21   -1    0    0  501  502  0.00000000000E+00  0.00000000000E+00  0.12620376058E+03  0.12620376058E+03  0.00000000000E+00 0.  1.
         21   -1    0    0  502  503 -0.00000000000E+00 -0.00000000000E+00 -0.26037333308E+03  0.26037333308E+03  0.00000000000E+00 0.  1.
          6    1    1    2  501    0 -0.11950475403E+01  0.35734798937E+02 -0.11043261954E+03  0.20833330855E+03  0.17300000000E+03 0.  1.
         -6    1    1    2    0  503  0.11950475403E+01 -0.35734798937E+02 -0.23736952954E+02  0.17824378511E+03  0.17300000000E+03 0.  1.
<mgrwt>
<rscale>  2 0.17665617E+03</rscale>
<asrwt>0</asrwt>
<pdfrwt beam="1">  1       21 0.19415963E-01 0.17665617E+03</pdfrwt>
<pdfrwt beam="2">  1       21 0.40057435E-01 0.17665617E+03</pdfrwt>
<totfact> 0.14728621E+05</totfact>
</mgrwt>
</event>
<event>
 4    1  0.4327903E+000  0.2527470E+03  0.7546771E-02  0.1111581E+00
         21   -1    0    0  501  502  0.00000000000E+00  0.00000000000E+00  0.89764767077E+02  0.89764767077E+02  0.00000000000E+00 0.  1.
         21   -1    0    0  502  503 -0.00000000000E+00 -0.00000000000E+00 -0.75459864717E+03  0.75459864717E+03  0.00000000000E+00 0. -1.
          6    1    1    2  501    0  0.11868670898E+03 -0.14094500938E+03 -0.43313790050E+03  0.50148725946E+03  0.17300000000E+03 0.  1.
         -6    1    1    2    0  503 -0.11868670898E+03  0.14094500938E+03 -0.23169597960E+03  0.34287615478E+03  0.17300000000E+03 0. -1.
<mgrwt>
<rscale>  2 0.25274697E+03</rscale>
<asrwt>0</asrwt>
<pdfrwt beam="1">  1       21 0.13809965E-01 0.25274697E+03</pdfrwt>
<pdfrwt beam="2">  1       21 0.11609209E+00 0.25274697E+03</pdfrwt>
<totfact> 0.25265227E+04</totfact>
</mgrwt>
</event>
<event>
 4    1  0.4327903E+000  0.2922541E+03  0.7546771E-02  0.1089178E+00
         21   -1    0    0  503  502  0.00000000000E+00  0.00000000000E+00  0.36180787261E+03  0.36180787261E+03  0.00000000000E+00 0.  1.
         21   -1    0    0  501  503 -0.00000000000E+00 -0.00000000000E+00 -0.24794807010E+03  0.24794807010E+03  0.00000000000E+00 0. -1.
          6    1    1    2  501    0 -0.22881856128E+03  0.55906348627E+02  0.12365587296E+03  0.31733772029E+03  0.17300000000E+03 0.  1.
         -6    1    1    2    0  502  0.22881856128E+03 -0.55906348627E+02 -0.97960704571E+01  0.29241822241E+03  0.17300000000E+03 0. -1.
<mgrwt>
<rscale>  2 0.29225409E+03</rscale>
<asrwt>0</asrwt>
<pdfrwt beam="1">  1       21 0.55662750E-01 0.29225409E+03</pdfrwt>
<pdfrwt beam="2">  1       21 0.38145857E-01 0.29225409E+03</pdfrwt>
<totfact> 0.19166284E+04</totfact>
</mgrwt>
</event>
<event>
 4    1  0.4327903E+000  0.2084629E+03  0.7546771E-02  0.1142789E+00
         21   -1    0    0  503  502  0.00000000000E+00  0.00000000000E+00  0.69693898271E+02  0.69693898271E+02  0.00000000000E+00 0.  1.
         21   -1    0    0  501  503 -0.00000000000E+00 -0.00000000000E+00 -0.63719738534E+03  0.63719738534E+03  0.00000000000E+00 0.  1.
          6    1    1    2  501    0 -0.11393082476E+03  0.23399568988E+02 -0.23200225389E+03  0.31190033419E+03  0.17300000000E+03 0.  1.
         -6    1    1    2    0  502  0.11393082476E+03 -0.23399568988E+02 -0.33550123318E+03  0.39499094942E+03  0.17300000000E+03 0.  1.
<mgrwt>
<rscale>  2 0.20846288E+03</rscale>
<asrwt>0</asrwt>
<pdfrwt beam="1">  1       21 0.10722138E-01 0.20846288E+03</pdfrwt>
<pdfrwt beam="2">  1       21 0.98030368E-01 0.20846288E+03</pdfrwt>
<totfact> 0.61242261E+04</totfact>
</mgrwt>
</event>
<event>
 4    1  0.4327903E+000  0.2624682E+03  0.7546771E-02  0.1105669E+00
         21   -1    0    0  503  502  0.00000000000E+00  0.00000000000E+00  0.10557504640E+04  0.10557504640E+04  0.00000000000E+00 0. -1.
         21   -1    0    0  501  503 -0.00000000000E+00 -0.00000000000E+00 -0.12548854004E+03  0.12548854004E+03  0.00000000000E+00 0.  1.
          6    1    1    2  501    0 -0.71718509093E+02 -0.18389404526E+03  0.55929983787E+02  0.26836118854E+03  0.17300000000E+03 0.  1.
         -6    1    1    2    0  502  0.71718509093E+02  0.18389404526E+03  0.87433194013E+03  0.91287781547E+03  0.17300000000E+03 0. -1.
<mgrwt>
<rscale>  2 0.26246822E+03</rscale>
<asrwt>0</asrwt>
<pdfrwt beam="1">  1       21 0.16242314E+00 0.26246822E+03</pdfrwt>
<pdfrwt beam="2">  1       21 0.19305930E-01 0.26246822E+03</pdfrwt>
<totfact> 0.56586858E+03</totfact>
</mgrwt>
</event>
<event>
 4    1  0.4327903E+000  0.1828603E+03  0.7546771E-02  0.1165063E+00
         21   -1    0    0  501  502  0.00000000000E+00  0.00000000000E+00  0.94290565175E+03  0.94290565175E+03  0.00000000000E+00 0.  1.
         21   -1    0    0  502  503 -0.00000000000E+00 -0.00000000000E+00 -0.68245633522E+02  0.68245633522E+02  0.00000000000E+00 0.  1.
          6    1    1    2  501    0  0.22380742247E+01  0.59193646503E+02  0.78773735395E+03  0.80868290174E+03  0.17300000000E+03 0.  1.
         -6    1    1    2    0  503 -0.22380742247E+01 -0.59193646503E+02  0.86922664274E+02  0.20246838352E+03  0.17300000000E+03 0.  1.
<mgrwt>
<rscale>  2 0.18286032E+03</rscale>
<asrwt>0</asrwt>
<pdfrwt beam="1">  1       21 0.14506240E+00 0.18286032E+03</pdfrwt>
<pdfrwt beam="2">  1       21 0.10499329E-01 0.18286032E+03</pdfrwt>
<totfact> 0.24443444E+04</totfact>
</mgrwt>
</event>
<event>
 4    1  0.4327903E+000  0.2416417E+03  0.7546771E-02  0.1118704E+00
         21   -1    0    0  501  502  0.00000000000E+00  0.00000000000E+00  0.15485872398E+04  0.15485872398E+04  0.00000000000E+00 0. -1.
         21   -1    0    0  502  503 -0.00000000000E+00 -0.00000000000E+00 -0.42390255703E+02  0.42390255703E+02  0.00000000000E+00 0.  1.
          6    1    1    2  501    0 -0.14856633049E+03 -0.79936056257E+02  0.48865652164E+03  0.54513844461E+03  0.17300000000E+03 0.  1.
         -6    1    1    2    0  503  0.14856633049E+03  0.79936056257E+02  0.10175404625E+04  0.10458390509E+04  0.17300000000E+03 0. -1.
<mgrwt>
<rscale>  2 0.24164173E+03</rscale>
<asrwt>0</asrwt>
<pdfrwt beam="1">  1       21 0.23824415E+00 0.24164173E+03</pdfrwt>
<pdfrwt beam="2">  1       21 0.65215790E-02 0.24164173E+03</pdfrwt>
<totfact> 0.12813013E+04</totfact>
</mgrwt>
</event>
<event>
 4    1  0.4327903E+000  0.1777463E+03  0.7546771E-02  0.1170002E+00
         21   -1    0    0  503  502  0.00000000000E+00  0.00000000000E+00  0.16777681483E+03  0.16777681483E+03  0.00000000000E+00 0. -1.
         21   -1    0    0  501  503 -0.00000000000E+00 -0.00000000000E+00 -0.24447273009E+03  0.24447273009E+03  0.00000000000E+00 0. -1.
          6    1    1    2  501    0 -0.12239562371E+02 -0.38922190822E+02 -0.13714550995E+03  0.22450531113E+03  0.17300000000E+03 0. -1.
         -6    1    1    2    0  502  0.12239562371E+02  0.38922190822E+02  0.60449594680E+02  0.18774423379E+03  0.17300000000E+03 0. -1.
<mgrwt>
<rscale>  2 0.17774629E+03</rscale>
<asrwt>0</asrwt>
<pdfrwt beam="1">  1       21 0.25811818E-01 0.17774629E+03</pdfrwt>
<pdfrwt beam="2">  1       21 0.37611189E-01 0.17774629E+03</pdfrwt>
<totfact> 0.97696626E+04</totfact>
</mgrwt>
</event>
<event>
 4    1  0.4327903E+000  0.1794761E+03  0.7546771E-02  0.1168311E+00
         21   -1    0    0  501  502  0.00000000000E+00  0.00000000000E+00  0.26843933085E+03  0.26843933085E+03  0.00000000000E+00 0. -1.
         21   -1    0    0  502  503 -0.00000000000E+00 -0.00000000000E+00 -0.12048132078E+03  0.12048132078E+03  0.00000000000E+00 0. -1.
          6    1    1    2  501    0  0.29353106845E+02 -0.37696972412E+02  0.86320027493E+02  0.19915525039E+03  0.17300000000E+03 0. -1.
         -6    1    1    2    0  503 -0.29353106845E+02  0.37696972412E+02  0.61637982580E+02  0.18976540124E+03  0.17300000000E+03 0. -1.
<mgrwt>
<rscale>  2 0.17947609E+03</rscale>
<asrwt>0</asrwt>
<pdfrwt beam="1">  1       21 0.41298358E-01 0.17947609E+03</pdfrwt>
<pdfrwt beam="2">  1       21 0.18535588E-01 0.17947609E+03</pdfrwt>
<totfact> 0.15078485E+05</totfact>
</mgrwt>
</event>
<event>
 4    1  0.4327903E+000  0.2445432E+03  0.7546771E-02  0.1116803E+00
         21   -1    0    0  501  502  0.00000000000E+00  0.00000000000E+00  0.66717435001E+03  0.66717435001E+03  0.00000000000E+00 0.  1.
         21   -1    0    0  502  503 -0.00000000000E+00 -0.00000000000E+00 -0.11948124583E+03  0.11948124583E+03  0.00000000000E+00 0. -1.
          6    1    1    2  501    0  0.89133741773E+02 -0.14807948077E+03  0.47043524138E+03  0.53019871074E+03  0.17300000000E+03 0.  1.
         -6    1    1    2    0  503 -0.89133741773E+02  0.14807948077E+03  0.77257862813E+02  0.25645688510E+03  0.17300000000E+03 0. -1.
<mgrwt>
<rscale>  2 0.24454316E+03</rscale>
<asrwt>0</asrwt>
<pdfrwt beam="1">  1       21 0.10264220E+00 0.24454316E+03</pdfrwt>
<pdfrwt beam="2">  1       21 0.18381731E-01 0.24454316E+03</pdfrwt>
<totfact> 0.20225958E+04</totfact>
</mgrwt>
</event>
<event>
 4    1  0.4327903E+000  0.2315123E+03  0.7546771E-02  0.1125580E+00
         21   -1    0    0  503  502  0.00000000000E+00  0.00000000000E+00  0.31497585286E+02  0.31497585286E+02  0.00000000000E+00 0.  1.
         21   -1    0    0  501  503 -0.00000000000E+00 -0.00000000000E+00 -0.21075455680E+04  0.21075455680E+04  0.00000000000E+00 0. -1.
          6    1    1    2  501    0 -0.10543009069E+03  0.11204221081E+03 -0.15073845633E+04  0.15250594030E+04  0.17300000000E+03 0. -1.
         -6    1    1    2    0  502  0.10543009069E+03 -0.11204221081E+03 -0.56866341941E+03  0.61398375028E+03  0.17300000000E+03 0.  1.
<mgrwt>
<rscale>  2 0.23151233E+03</rscale>
<asrwt>0</asrwt>
<pdfrwt beam="1">  1       21 0.48457803E-02 0.23151233E+03</pdfrwt>
<pdfrwt beam="2">  1       21 0.32423791E+00 0.23151233E+03</pdfrwt>
<totfact> 0.67240590E+03</totfact>
</mgrwt>
</event>
<event>
 4    1  0.4327903E+000  0.1939031E+03  0.7546771E-02  0.1154987E+00
         21   -1    0    0  501  502  0.00000000000E+00  0.00000000000E+00  0.24189903443E+03  0.24189903443E+03  0.00000000000E+00 0. -1.
         21   -1    0    0  502  503 -0.00000000000E+00 -0.00000000000E+00 -0.15560540033E+03  0.15560540033E+03  0.00000000000E+00 0. -1.
          6    1    1    2  501    0 -0.35643208372E+02  0.79993683439E+02  0.49814940170E+02  0.20019979010E+03  0.17300000000E+03 0. -1.
         -6    1    1    2    0  503  0.35643208372E+02 -0.79993683439E+02  0.36478693925E+02  0.19730464466E+03  0.17300000000E+03 0. -1.
<mgrwt>
<rscale>  2 0.19390314E+03</rscale>
<asrwt>0</asrwt>
<pdfrwt beam="1">  1       21 0.37215236E-01 0.19390314E+03</pdfrwt>
<pdfrwt beam="2">  1       21 0.23939292E-01 0.19390314E+03</pdfrwt>
<totfact> 0.11450986E+05</totfact>
</mgrwt>
</event>
<event>
 4    1  0.4327903E+000  0.1987674E+03  0.7546771E-02  0.1150783E+00
         21   -1    0    0  501  502  0.00000000000E+00  0.00000000000E+00  0.79341790572E+03  0.79341790572E+03  0.00000000000E+00 0. -1.
         21   -1    0    0  502  503 -0.00000000000E+00 -0.00000000000E+00 -0.76553624953E+02  0.76553624953E+02  0.00000000000E+00 0.  1.
          6    1    1    2  501    0 -0.97744360138E+02  0.50529747273E+01  0.61560286352E+03  0.64689672906E+03  0.17300000000E+03 0. -1.
         -6    1    1    2    0  503  0.97744360138E+02 -0.50529747273E+01  0.10126141725E+03  0.22307480161E+03  0.17300000000E+03 0.  1.
<mgrwt>
<rscale>  2 0.19876743E+03</rscale>
<asrwt>0</asrwt>
<pdfrwt beam="1">  1       21 0.12206429E+00 0.19876743E+03</pdfrwt>
<pdfrwt beam="2">  1       21 0.11777481E-01 0.19876743E+03</pdfrwt>
<totfact> 0.30603679E+04</totfact>
</mgrwt>
</event>
<event>
 4    1  0.4327903E+000  0.2084039E+03  0.7546771E-02  0.1142836E+00
         21   -1    0    0  501  502  0.00000000000E+00  0.00000000000E+00  0.13629380247E+04  0.13629380247E+04  0.00000000000E+00 0. -1.
         21   -1    0    0  502  503 -0.00000000000E+00 -0.00000000000E+00 -0.32023692899E+02  0.32023692899E+02  0.00000000000E+00 0. -1.
          6    1    1    2  501    0 -0.28992060612E+02  0.11252847336E+03  0.71430877590E+03  0.74408952702E+03  0.17300000000E+03 0. -1.
         -6    1    1    2    0  503  0.28992060612E+02 -0.11252847336E+03  0.61660555587E+03  0.65087219055E+03  0.17300000000E+03 0. -1.
<mgrwt>
<rscale>  2 0.20840393E+03</rscale>
<asrwt>0</asrwt>
<pdfrwt beam="1">  1       21 0.20968273E+00 0.20840393E+03</pdfrwt>
<pdfrwt beam="2">  1       21 0.49267230E-02 0.20840393E+03</pdfrwt>
<totfact> 0.31790462E+04</totfact>
</mgrwt>
</event>
<event>
 4    1  0.4327903E+000  0.1863135E+03  0.7546771E-02  0.1161829E+00
         21   -1    0    0  503  502  0.00000000000E+00  0.00000000000E+00  0.75888258911E+02  0.75888258911E+02  0.00000000000E+00 0. -1.
         21   -1    0    0  501  503 -0.00000000000E+00 -0.00000000000E+00 -0.88334568667E+03  0.88334568667E+03  0.00000000000E+00 0. -1.
          6    1    1    2  501    0 -0.21593672910E+02  0.65707221676E+02 -0.73676891660E+03  0.75996128991E+03  0.17300000000E+03 0. -1.
         -6    1    1    2    0  502  0.21593672910E+02 -0.65707221676E+02 -0.70688511164E+02  0.19927265568E+03  0.17300000000E+03 0. -1.
<mgrwt>
<rscale>  2 0.18631351E+03</rscale>
<asrwt>0</asrwt>
<pdfrwt beam="1">  1       21 0.11675117E-01 0.18631351E+03</pdfrwt>
<pdfrwt beam="2">  1       21 0.13589933E+00 0.18631351E+03</pdfrwt>
<totfact> 0.23900626E+04</totfact>
</mgrwt>
</event>
<event>
 4    1  0.4327903E+000  0.1733333E+03  0.7546771E-02  0.1174416E+00
         21   -1    0    0  501  502  0.00000000000E+00  0.00000000000E+00  0.28364823020E+03  0.28364823020E+03  0.00000000000E+00 0.  1.
         21   -1    0    0  502  503 -0.00000000000E+00 -0.00000000000E+00 -0.18591236670E+03  0.18591236670E+03  0.00000000000E+00 0.  1.
          6    1    1    2  501    0  0.31537160383E+01 -0.10269893625E+02  0.20287051043E+03  0.26683489398E+03  0.17300000000E+03 0. -1.
         -6    1    1    2    0  503 -0.31537160383E+01  0.10269893625E+02 -0.10513464693E+03  0.20272570292E+03  0.17300000000E+03 0. -1.
<mgrwt>
<rscale>  2 0.17333325E+03</rscale>
<asrwt>0</asrwt>
<pdfrwt beam="1">  1       21 0.43638189E-01 0.17333325E+03</pdfrwt>
<pdfrwt beam="2">  1       21 0.28601903E-01 0.17333325E+03</pdfrwt>
<totfact> 0.59524090E+04</totfact>
</mgrwt>
</event>
<event>
 4    1  0.4327903E+000  0.2171072E+03  0.7546771E-02  0.1136058E+00
         21   -1    0    0  503  502  0.00000000000E+00  0.00000000000E+00  0.57668717778E+03  0.57668717778E+03  0.00000000000E+00 0.  1.
         21   -1    0    0  501  503 -0.00000000000E+00 -0.00000000000E+00 -0.10113848390E+03  0.10113848390E+03  0.00000000000E+00 0.  1.
          6    1    1    2  501    0 -0.50905764726E+02 -0.12089310828E+03  0.89328047282E+02  0.23476592713E+03  0.17300000000E+03 0.  1.
         -6    1    1    2    0  502  0.50905764726E+02  0.12089310828E+03  0.38622064661E+03  0.44305973455E+03  0.17300000000E+03 0.  1.
<mgrwt>
<rscale>  2 0.21710721E+03</rscale>
<asrwt>0</asrwt>
<pdfrwt beam="1">  1       21 0.88721102E-01 0.21710721E+03</pdfrwt>
<pdfrwt beam="2">  1       21 0.15559767E-01 0.21710721E+03</pdfrwt>
<totfact> 0.39341316E+04</totfact>
</mgrwt>
</event>
<event>
 4    1  0.4327903E+000  0.3482804E+03  0.7546771E-02  0.1063323E+00
         21   -1    0    0  501  502  0.00000000000E+00  0.00000000000E+00  0.67854296447E+02  0.67854296447E+02  0.00000000000E+00 0.  1.
         21   -1    0    0  502  503 -0.00000000000E+00 -0.00000000000E+00 -0.19662727323E+04  0.19662727323E+04  0.00000000000E+00 0. -1.
          6    1    1    2  501    0  0.58510982500E+02  0.29655814900E+03 -0.64265814394E+03  0.73096426778E+03  0.17300000000E+03 0.  1.
         -6    1    1    2    0  503 -0.58510982500E+02 -0.29655814900E+03 -0.12557602919E+04  0.13031627610E+04  0.17300000000E+03 0. -1.
<mgrwt>
<rscale>  2 0.34828045E+03</rscale>
<asrwt>0</asrwt>
<pdfrwt beam="1">  1       21 0.10439124E-01 0.34828045E+03</pdfrwt>
<pdfrwt beam="2">  1       21 0.30250346E+00 0.34828045E+03</pdfrwt>
<totfact> 0.21537195E+03</totfact>
</mgrwt>
</event>
<event>
 4    1  0.4327903E+000  0.2120931E+03  0.7546771E-02  0.1139919E+00
         21   -1    0    0  501  502  0.00000000000E+00  0.00000000000E+00  0.68133893254E+03  0.68133893254E+03  0.00000000000E+00 0.  1.
         21   -1    0    0  502  503 -0.00000000000E+00 -0.00000000000E+00 -0.88674909505E+02  0.88674909505E+02  0.00000000000E+00 0.  1.
          6    1    1    2  501    0 -0.46912725162E+02 -0.11337406340E+03  0.49092555377E+03  0.53478162027E+03  0.17300000000E+03 0. -1.
         -6    1    1    2    0  503  0.46912725162E+02  0.11337406340E+03  0.10173846927E+03  0.23523222178E+03  0.17300000000E+03 0. -1.
<mgrwt>
<rscale>  2 0.21209310E+03</rscale>
<asrwt>0</asrwt>
<pdfrwt beam="1">  1       21 0.10482137E+00 0.21209310E+03</pdfrwt>
<pdfrwt beam="2">  1       21 0.13642294E-01 0.21209310E+03</pdfrwt>
<totfact> 0.33816017E+04</totfact>
</mgrwt>
</event>
<event>
 4    1  0.4327903E+000  0.2146207E+03  0.7546771E-02  0.1137958E+00
         21   -1    0    0  503  502  0.00000000000E+00  0.00000000000E+00  0.10975586795E+03  0.10975586795E+03  0.00000000000E+00 0. -1.
         21   -1    0    0  501  503 -0.00000000000E+00 -0.00000000000E+00 -0.60203683958E+03  0.60203683958E+03  0.00000000000E+00 0. -1.
          6    1    1    2  501    0  0.11652838095E+03  0.50538868152E+02 -0.44201426776E+03  0.49136407446E+03  0.17300000000E+03 0. -1.
         -6    1    1    2    0  502 -0.11652838095E+03 -0.50538868152E+02 -0.50266703872E+02  0.22042863308E+03  0.17300000000E+03 0. -1.
<mgrwt>
<rscale>  2 0.21462069E+03</rscale>
<asrwt>0</asrwt>
<pdfrwt beam="1">  1       21 0.16885518E-01 0.21462069E+03</pdfrwt>
<pdfrwt beam="2">  1       21 0.92621051E-01 0.21462069E+03</pdfrwt>
<totfact> 0.30669695E+04</totfact>
</mgrwt>
</event>
<event>
 4    1  0.4327903E+000  0.1929551E+03  0.7546771E-02  0.1155823E+00
         21   -1    0    0  501  502  0.00000000000E+00  0.00000000000E+00  0.41816302649E+03  0.41816302649E+03  0.00000000000E+00 0.  1.
         21   -1    0    0  502  503 -0.00000000000E+00 -0.00000000000E+00 -0.10805813077E+03  0.10805813077E+03  0.00000000000E+00 0.  1.
          6    1    1    2  501    0 -0.61972811828E+02 -0.58839138888E+02  0.26544407907E+03  0.32816494752E+03  0.17300000000E+03 0.  1.
         -6    1    1    2    0  503  0.61972811828E+02  0.58839138888E+02  0.44660816659E+02  0.19805620974E+03  0.17300000000E+03 0.  1.
<mgrwt>
<rscale>  2 0.19295511E+03</rscale>
<asrwt>0</asrwt>
<pdfrwt beam="1">  1       21 0.64332773E-01 0.19295511E+03</pdfrwt>
<pdfrwt beam="2">  1       21 0.16624328E-01 0.19295511E+03</pdfrwt>
<totfact> 0.72447555E+04</totfact>
</mgrwt>
</event>
<event>
 4    1  0.4327903E+000  0.1808848E+03  0.7546771E-02  0.1166949E+00
         21   -1    0    0  503  502  0.00000000000E+00  0.00000000000E+00  0.72614043387E+02  0.72614043387E+02  0.00000000000E+00 0. -1.
         21   -1    0    0  501  503 -0.00000000000E+00 -0.00000000000E+00 -0.65035675281E+03  0.65035675281E+03  0.00000000000E+00 0. -1.
          6    1    1    2  501    0  0.15239718422E+02  0.50577436279E+02 -0.48921431105E+03  0.52158409505E+03  0.17300000000E+03 0. -1.
         -6    1    1    2    0  502 -0.15239718422E+02 -0.50577436279E+02 -0.88528398371E+02  0.20138670114E+03  0.17300000000E+03 0. -1.
<mgrwt>
<rscale>  2 0.18088484E+03</rscale>
<asrwt>0</asrwt>
<pdfrwt beam="1">  1       21 0.11171391E-01 0.18088484E+03</pdfrwt>
<pdfrwt beam="2">  1       21 0.10005489E+00 0.18088484E+03</pdfrwt>
<totfact> 0.54979994E+04</totfact>
</mgrwt>
</event>
<event>
 4    1  0.4327903E+000  0.2024016E+03  0.7546771E-02  0.1147728E+00
         21   -1    0    0  503  502  0.00000000000E+00  0.00000000000E+00  0.17024759006E+04  0.17024759006E+04  0.00000000000E+00 0. -1.
         21   -1    0    0  501  503 -0.00000000000E+00 -0.00000000000E+00 -0.37068134871E+02  0.37068134871E+02  0.00000000000E+00 0. -1.
          6    1    1    2  501    0  0.10287684683E+03  0.21302115493E+02  0.31751680125E+03  0.37654129231E+03  0.17300000000E+03 0. -1.
         -6    1    1    2    0  502 -0.10287684683E+03 -0.21302115493E+02  0.13478909644E+04  0.13630027431E+04  0.17300000000E+03 0. -1.
<mgrwt>
<rscale>  2 0.20240164E+03</rscale>
<asrwt>0</asrwt>
<pdfrwt beam="1">  1       21 0.26191931E+00 0.20240164E+03</pdfrwt>
<pdfrwt beam="2">  1       21 0.57027913E-02 0.20240164E+03</pdfrwt>
<totfact> 0.12067701E+04</totfact>
</mgrwt>
</event>
<event>
 4    1  0.4327903E+000  0.2232719E+03  0.7546771E-02  0.1131467E+00
         21   -1    0    0  503  502  0.00000000000E+00  0.00000000000E+00  0.29740487727E+03  0.29740487727E+03  0.00000000000E+00 0. -1.
         21   -1    0    0  501  503 -0.00000000000E+00 -0.00000000000E+00 -0.17360622938E+03  0.17360622938E+03  0.00000000000E+00 0. -1.
          6    1    1    2  501    0 -0.13931015258E+03  0.22672511931E+02  0.18159832776E+02  0.22400924297E+03  0.17300000000E+03 0. -1.
         -6    1    1    2    0  502  0.13931015258E+03 -0.22672511931E+02  0.10563881511E+03  0.24700186369E+03  0.17300000000E+03 0. -1.
<mgrwt>
<rscale>  2 0.22327194E+03</rscale>
<asrwt>0</asrwt>
<pdfrwt beam="1">  1       21 0.45754596E-01 0.22327194E+03</pdfrwt>
<pdfrwt beam="2">  1       21 0.26708651E-01 0.22327194E+03</pdfrwt>
<totfact> 0.60277064E+04</totfact>
</mgrwt>
</event>
<event>
 4    1  0.4327903E+000  0.2358351E+03  0.7546771E-02  0.1122599E+00
         21   -1    0    0  501  502  0.00000000000E+00  0.00000000000E+00  0.61363868074E+03  0.61363868074E+03  0.00000000000E+00 0. -1.
         21   -1    0    0  502  503 -0.00000000000E+00 -0.00000000000E+00 -0.24486449993E+03  0.24486449993E+03  0.00000000000E+00 0. -1.
          6    1    1    2  501    0  0.15679583659E+03  0.33230399075E+02  0.52505428274E+03  0.57558682544E+03  0.17300000000E+03 0. -1.
         -6    1    1    2    0  503 -0.15679583659E+03 -0.33230399075E+02 -0.15628010194E+03  0.28291635523E+03  0.17300000000E+03 0. -1.
<mgrwt>
<rscale>  2 0.23583510E+03</rscale>
<asrwt>0</asrwt>
<pdfrwt beam="1">  1       21 0.94405950E-01 0.23583510E+03</pdfrwt>
<pdfrwt beam="2">  1       21 0.37671462E-01 0.23583510E+03</pdfrwt>
<totfact> 0.61954378E+03</totfact>
</mgrwt>
</event>
<event>
 4    1  0.4327903E+000  0.2347794E+03  0.7546771E-02  0.1123320E+00
         21   -1    0    0  501  502  0.00000000000E+00  0.00000000000E+00  0.45876212452E+03  0.45876212452E+03  0.00000000000E+00 0.  1.
         21   -1    0    0  502  503 -0.00000000000E+00 -0.00000000000E+00 -0.19260922895E+03  0.19260922895E+03  0.00000000000E+00 0. -1.
          6    1    1    2  501    0  0.22252617037E+02 -0.15715344158E+03  0.33283238226E+03  0.40730673680E+03  0.17300000000E+03 0.  1.
         -6    1    1    2    0  503 -0.22252617037E+02  0.15715344158E+03 -0.66679486681E+02  0.24406461667E+03  0.17300000000E+03 0. -1.
<mgrwt>
<rscale>  2 0.23477944E+03</rscale>
<asrwt>0</asrwt>
<pdfrwt beam="1">  1       21 0.70578788E-01 0.23477944E+03</pdfrwt>
<pdfrwt beam="2">  1       21 0.29632189E-01 0.23477944E+03</pdfrwt>
<totfact> 0.19388102E+04</totfact>
</mgrwt>
</event>
<event>
 4    1  0.4327903E+000  0.2105836E+03  0.7546771E-02  0.1141105E+00
         21   -1    0    0  501  502  0.00000000000E+00  0.00000000000E+00  0.11990208317E+04  0.11990208317E+04  0.00000000000E+00 0. -1.
         21   -1    0    0  502  503 -0.00000000000E+00 -0.00000000000E+00 -0.45849935259E+02  0.45849935259E+02  0.00000000000E+00 0. -1.
          6    1    1    2  501    0 -0.97099360620E+01 -0.11967532660E+03  0.85028192483E+03  0.87597078624E+03  0.17300000000E+03 0. -1.
         -6    1    1    2    0  503  0.97099360620E+01  0.11967532660E+03  0.30288897165E+03  0.36889998076E+03  0.17300000000E+03 0. -1.
<mgrwt>
<rscale>  2 0.21058363E+03</rscale>
<asrwt>0</asrwt>
<pdfrwt beam="1">  1       21 0.18446472E+00 0.21058363E+03</pdfrwt>
<pdfrwt beam="2">  1       21 0.70538371E-02 0.21058363E+03</pdfrwt>
<totfact> 0.25027382E+04</totfact>
</mgrwt>
</event>
<event>
 4    1  0.4327903E+000  0.2175189E+03  0.7546771E-02  0.1135746E+00
         21   -1    0    0  501  502  0.00000000000E+00  0.00000000000E+00  0.99470423927E+02  0.99470423927E+02  0.00000000000E+00 0.  1.
         21   -1    0    0  502  503 -0.00000000000E+00 -0.00000000000E+00 -0.58945404277E+03  0.58945404277E+03  0.00000000000E+00 0.  1.
          6    1    1    2  501    0  0.71676013225E+02  0.11067080460E+03 -0.93646422667E+02  0.23682088240E+03  0.17300000000E+03 0.  1.
         -6    1    1    2    0  503 -0.71676013225E+02 -0.11067080460E+03 -0.39633719618E+03  0.45210358430E+03  0.17300000000E+03 0.  1.
<mgrwt>
<rscale>  2 0.21751891E+03</rscale>
<asrwt>0</asrwt>
<pdfrwt beam="1">  1       21 0.15303143E-01 0.21751891E+03</pdfrwt>
<pdfrwt beam="2">  1       21 0.90685235E-01 0.21751891E+03</pdfrwt>
<totfact> 0.38539668E+04</totfact>
</mgrwt>
</event>
<event>
 4    1  0.4327903E+000  0.2292943E+03  0.7546771E-02  0.1127137E+00
         21   -1    0    0  503  502  0.00000000000E+00  0.00000000000E+00  0.10240888836E+03  0.10240888836E+03  0.00000000000E+00 0.  1.
         21   -1    0    0  501  503 -0.00000000000E+00 -0.00000000000E+00 -0.53076420537E+03  0.53076420537E+03  0.00000000000E+00 0. -1.
          6    1    1    2  501    0  0.66372485882E+02  0.13506131913E+03 -0.27145378781E+03  0.35533508935E+03  0.17300000000E+03 0. -1.
         -6    1    1    2    0  502 -0.66372485882E+02 -0.13506131913E+03 -0.15690152920E+03  0.27783800437E+03  0.17300000000E+03 0.  1.
<mgrwt>
<rscale>  2 0.22929428E+03</rscale>
<asrwt>0</asrwt>
<pdfrwt beam="1">  1       21 0.15755214E-01 0.22929428E+03</pdfrwt>
<pdfrwt beam="2">  1       21 0.81656032E-01 0.22929428E+03</pdfrwt>
<totfact> 0.46260625E+04</totfact>
</mgrwt>
</event>
<event>
 4    1  0.4327903E+000  0.1857953E+03  0.7546771E-02  0.1162309E+00
         21   -1    0    0  503  502  0.00000000000E+00  0.00000000000E+00  0.18029388567E+04  0.18029388567E+04  0.00000000000E+00 0.  1.
         21   -1    0    0  501  503 -0.00000000000E+00 -0.00000000000E+00 -0.19148606442E+02  0.19148606442E+02  0.00000000000E+00 0.  1.
          6    1    1    2  501    0  0.34071842052E+02 -0.58566282593E+02  0.88225345994E+03  0.90160471796E+03  0.17300000000E+03 0.  1.
         -6    1    1    2    0  502 -0.34071842052E+02  0.58566282593E+02  0.90153679036E+03  0.92048274522E+03  0.17300000000E+03 0.  1.
<mgrwt>
<rscale>  2 0.18579532E+03</rscale>
<asrwt>0</asrwt>
<pdfrwt beam="1">  1       21 0.27737507E+00 0.18579532E+03</pdfrwt>
<pdfrwt beam="2">  1       21 0.29459409E-02 0.18579532E+03</pdfrwt>
<totfact> 0.30235290E+04</totfact>
</mgrwt>
</event>
<event>
 4    1  0.4327903E+000  0.1895968E+03  0.7546771E-02  0.1158825E+00
         21   -1    0    0  503  502  0.00000000000E+00  0.00000000000E+00  0.91300385373E+02  0.91300385373E+02  0.00000000000E+00 0.  1.
         21   -1    0    0  501  503 -0.00000000000E+00 -0.00000000000E+00 -0.39557513327E+03  0.39557513327E+03  0.00000000000E+00 0.  1.
          6    1    1    2  501    0  0.57166760952E+02 -0.52439735604E+02 -0.16879965102E+03  0.25385091414E+03  0.17300000000E+03 0.  1.
         -6    1    1    2    0  502 -0.57166760952E+02  0.52439735604E+02 -0.13547509689E+03  0.23302460450E+03  0.17300000000E+03 0.  1.
<mgrwt>
<rscale>  2 0.18959685E+03</rscale>
<asrwt>0</asrwt>
<pdfrwt beam="1">  1       21 0.14046213E-01 0.18959685E+03</pdfrwt>
<pdfrwt beam="2">  1       21 0.60857712E-01 0.18959685E+03</pdfrwt>
<totfact> 0.11121540E+05</totfact>
</mgrwt>
</event>
<event>
 4    1  0.4327903E+000  0.2364795E+03  0.7546771E-02  0.1122161E+00
         21   -1    0    0  501  502  0.00000000000E+00  0.00000000000E+00  0.12692909024E+03  0.12692909024E+03  0.00000000000E+00 0. -1.
         21   -1    0    0  502  503 -0.00000000000E+00 -0.00000000000E+00 -0.10381739516E+04  0.10381739516E+04  0.00000000000E+00 0. -1.
          6    1    1    2  501    0  0.14454435502E+03 -0.71417532557E+02 -0.13643017315E+02  0.23687267982E+03  0.17300000000E+03 0. -1.
         -6    1    1    2    0  503 -0.14454435502E+03  0.71417532557E+02 -0.89760184401E+03  0.92823036197E+03  0.17300000000E+03 0. -1.
<mgrwt>
<rscale>  2 0.23647946E+03</rscale>
<asrwt>0</asrwt>
<pdfrwt beam="1">  1       21 0.19527552E-01 0.23647946E+03</pdfrwt>
<pdfrwt beam="2">  1       21 0.15971907E+00 0.23647946E+03</pdfrwt>
<totfact> 0.58995935E+03</totfact>
</mgrwt>
</event>
<event>
 4    1  0.4327903E+000  0.1806429E+03  0.7546771E-02  0.1167182E+00
         21   -1    0    0  503  502  0.00000000000E+00  0.00000000000E+00  0.80641456495E+02  0.80641456495E+02  0.00000000000E+00 0. -1.
         21   -1    0    0  501  503 -0.00000000000E+00 -0.00000000000E+00 -0.65827980790E+03  0.65827980790E+03  0.00000000000E+00 0. -1.
          6    1    1    2  501    0 -0.27547778675E+02  0.44090674276E+02 -0.51814863077E+03  0.54873479135E+03  0.17300000000E+03 0. -1.
         -6    1    1    2    0  502  0.27547778675E+02 -0.44090674276E+02 -0.59489720634E+02  0.19018647304E+03  0.17300000000E+03 0. -1.
<mgrwt>
<rscale>  2 0.18064293E+03</rscale>
<asrwt>0</asrwt>
<pdfrwt beam="1">  1       21 0.12406378E-01 0.18064293E+03</pdfrwt>
<pdfrwt beam="2">  1       21 0.10127382E+00 0.18064293E+03</pdfrwt>
<totfact> 0.44312288E+04</totfact>
</mgrwt>
</event>
<event>
 4    1  0.4327903E+000  0.2196367E+03  0.7546771E-02  0.1134154E+00
         21   -1    0    0  501  502  0.00000000000E+00  0.00000000000E+00  0.38927958746E+03  0.38927958746E+03  0.00000000000E+00 0. -1.
         21   -1    0    0  502  503 -0.00000000000E+00 -0.00000000000E+00 -0.33921213132E+03  0.33921213132E+03  0.00000000000E+00 0. -1.
          6    1    1    2  501    0 -0.11462719067E+03 -0.71915690014E+02  0.31521615966E+03  0.38418938900E+03  0.17300000000E+03 0. -1.
         -6    1    1    2    0  503  0.11462719067E+03  0.71915690014E+02 -0.26514870352E+03  0.34430232977E+03  0.17300000000E+03 0. -1.
<mgrwt>
<rscale>  2 0.21963665E+03</rscale>
<asrwt>0</asrwt>
<pdfrwt beam="1">  1       21 0.59889167E-01 0.21963665E+03</pdfrwt>
<pdfrwt beam="2">  1       21 0.52186482E-01 0.21963665E+03</pdfrwt>
<totfact> 0.88988477E+03</totfact>
</mgrwt>
</event>
<event>
 4    1  0.4327903E+000  0.1956401E+03  0.7546771E-02  0.1153470E+00
         21   -1    0    0  503  502  0.00000000000E+00  0.00000000000E+00  0.18889595361E+03  0.18889595361E+03  0.00000000000E+00 0. -1.
         21   -1    0    0  501  503 -0.00000000000E+00 -0.00000000000E+00 -0.20499073443E+03  0.20499073443E+03  0.00000000000E+00 0.  1.
          6    1    1    2  501    0 -0.74594417438E+02 -0.52742114102E+02  0.13109402914E+02  0.19607884679E+03  0.17300000000E+03 0.  1.
         -6    1    1    2    0  502  0.74594417438E+02  0.52742114102E+02 -0.29204183742E+02  0.19780784125E+03  0.17300000000E+03 0. -1.
<mgrwt>
<rscale>  2 0.19564012E+03</rscale>
<asrwt>0</asrwt>
<pdfrwt beam="1">  1       21 0.29060916E-01 0.19564012E+03</pdfrwt>
<pdfrwt beam="2">  1       21 0.31537036E-01 0.19564012E+03</pdfrwt>
<totfact> 0.10943898E+05</totfact>
</mgrwt>
</event>
<event>
 4    1  0.4327903E+000  0.1793865E+03  0.7546771E-02  0.1168398E+00
         21   -1    0    0  503  502  0.00000000000E+00  0.00000000000E+00  0.12979211822E+04  0.12979211822E+04  0.00000000000E+00 0.  1.
         21   -1    0    0  501  503 -0.00000000000E+00 -0.00000000000E+00 -0.34149590586E+02  0.34149590586E+02  0.00000000000E+00 0.  1.
          6    1    1    2  501    0 -0.15559451328E+02  0.44815561310E+02  0.28325936847E+03  0.33528406000E+03  0.17300000000E+03 0.  1.
         -6    1    1    2    0  502  0.15559451328E+02 -0.44815561310E+02  0.98051222319E+03  0.99678671283E+03  0.17300000000E+03 0.  1.
<mgrwt>
<rscale>  2 0.17938654E+03</rscale>
<asrwt>0</asrwt>
<pdfrwt beam="1">  1       21 0.19968014E+00 0.17938654E+03</pdfrwt>
<pdfrwt beam="2">  1       21 0.52537842E-02 0.17938654E+03</pdfrwt>
<totfact> 0.33677811E+04</totfact>
</mgrwt>
</event>
<event>
 4    1  0.4327903E+000  0.2372589E+03  0.7546771E-02  0.1121632E+00
         21   -1    0    0  503  502  0.00000000000E+00  0.00000000000E+00  0.41212810357E+03  0.41212810357E+03  0.00000000000E+00 0.  1.
         21   -1    0    0  501  503 -0.00000000000E+00 -0.00000000000E+00 -0.13806082766E+03  0.13806082766E+03  0.00000000000E+00 0. -1.
          6    1    1    2  501    0 -0.14810742992E+03  0.66535592308E+02  0.16544600414E+03  0.28924760350E+03  0.17300000000E+03 0.  1.
         -6    1    1    2    0  502  0.14810742992E+03 -0.66535592308E+02  0.10862127176E+03  0.26094132773E+03  0.17300000000E+03 0.  1.
<mgrwt>
<rscale>  2 0.23725892E+03</rscale>
<asrwt>0</asrwt>
<pdfrwt beam="1">  1       21 0.63404323E-01 0.23725892E+03</pdfrwt>
<pdfrwt beam="2">  1       21 0.21240127E-01 0.23725892E+03</pdfrwt>
<totfact> 0.46458443E+04</totfact>
</mgrwt>
</event>
<event>
 4    1  0.4327903E+000  0.2228987E+03  0.7546771E-02  0.1131740E+00
         21   -1    0    0  503  502  0.00000000000E+00  0.00000000000E+00  0.23958870878E+03  0.23958870878E+03  0.00000000000E+00 0.  1.
         21   -1    0    0  501  503 -0.00000000000E+00 -0.00000000000E+00 -0.32110266352E+03  0.32110266352E+03  0.00000000000E+00 0. -1.
          6    1    1    2  501    0 -0.13767216451E+03  0.28305744653E+02 -0.20760148045E+03  0.30460173136E+03  0.17300000000E+03 0. -1.
         -6    1    1    2    0  502  0.13767216451E+03 -0.28305744653E+02  0.12608752570E+03  0.25608964094E+03  0.17300000000E+03 0. -1.
<mgrwt>
<rscale>  2 0.22289872E+03</rscale>
<asrwt>0</asrwt>
<pdfrwt beam="1">  1       21 0.36859801E-01 0.22289872E+03</pdfrwt>
<pdfrwt beam="2">  1       21 0.49400410E-01 0.22289872E+03</pdfrwt>
<totfact> 0.27285744E+04</totfact>
</mgrwt>
</event>
<event>
 4    1  0.4327903E+000  0.1934464E+03  0.7546771E-02  0.1155389E+00
         21   -1    0    0  503  502  0.00000000000E+00  0.00000000000E+00  0.14480096260E+03  0.14480096260E+03  0.00000000000E+00 0.  1.
         21   -1    0    0  501  503 -0.00000000000E+00 -0.00000000000E+00 -0.26065670681E+03  0.26065670681E+03  0.00000000000E+00 0. -1.
          6    1    1    2  501    0  0.40002991147E+02  0.76761250884E+02 -0.39208243924E+02  0.19737987570E+03  0.17300000000E+03 0. -1.
         -6    1    1    2    0  502 -0.40002991147E+02 -0.76761250884E+02 -0.76647500283E+02  0.20807779372E+03  0.17300000000E+03 0. -1.
<mgrwt>
<rscale>  2 0.19344645E+03</rscale>
<asrwt>0</asrwt>
<pdfrwt beam="1">  1       21 0.22277071E-01 0.19344645E+03</pdfrwt>
<pdfrwt beam="2">  1       21 0.40101031E-01 0.19344645E+03</pdfrwt>
<totfact> 0.11295675E+05</totfact>
</mgrwt>
</event>
<event>
 4    1  0.4327903E+000  0.1912280E+03  0.7546771E-02  0.1157358E+00
         21   -1    0    0  503  502  0.00000000000E+00  0.00000000000E+00  0.11246783518E+03  0.11246783518E+03  0.00000000000E+00 0. -1.
         21   -1    0    0  501  503 -0.00000000000E+00 -0.00000000000E+00 -0.50876396836E+03  0.50876396836E+03  0.00000000000E+00 0.  1.
          6    1    1    2  501    0 -0.80906114731E+02  0.96612106915E+01 -0.38475447483E+03  0.42965584401E+03  0.17300000000E+03 0.  1.
         -6    1    1    2    0  502  0.80906114731E+02 -0.96612106915E+01 -0.11541658349E+02  0.19157595953E+03  0.17300000000E+03 0. -1.
<mgrwt>
<rscale>  2 0.19122797E+03</rscale>
<asrwt>0</asrwt>
<pdfrwt beam="1">  1       21 0.17302744E-01 0.19122797E+03</pdfrwt>
<pdfrwt beam="2">  1       21 0.78271380E-01 0.19122797E+03</pdfrwt>
<totfact> 0.43665145E+04</totfact>
</mgrwt>
</event>
<event>
 4    1  0.4327903E+000  0.2244759E+03  0.7546771E-02  0.1130589E+00
         21   -1    0    0  503  502  0.00000000000E+00  0.00000000000E+00  0.82112386965E+03  0.82112386965E+03  0.00000000000E+00 0. -1.
         21   -1    0    0  501  503 -0.00000000000E+00 -0.00000000000E+00 -0.68861054699E+02  0.68861054699E+02  0.00000000000E+00 0. -1.
          6    1    1    2  501    0  0.13777952725E+03 -0.38434694428E+02  0.52293657743E+03  0.56908003644E+03  0.17300000000E+03 0. -1.
         -6    1    1    2    0  502 -0.13777952725E+03  0.38434694428E+02  0.22932623753E+03  0.32090488791E+03  0.17300000000E+03 0. -1.
<mgrwt>
<rscale>  2 0.22447589E+03</rscale>
<asrwt>0</asrwt>
<pdfrwt beam="1">  1       21 0.12632674E+00 0.22447589E+03</pdfrwt>
<pdfrwt beam="2">  1       21 0.10594009E-01 0.22447589E+03</pdfrwt>
<totfact> 0.33433709E+04</totfact>
</mgrwt>
</event>
<event>
 4    1  0.4327903E+000  0.2017883E+03  0.7546771E-02  0.1148239E+00
         21   -1    0    0  501  502  0.00000000000E+00  0.00000000000E+00  0.42436428870E+03  0.42436428870E+03  0.00000000000E+00 0. -1.
         21   -1    0    0  502  503 -0.00000000000E+00 -0.00000000000E+00 -0.13717541281E+03  0.13717541281E+03  0.00000000000E+00 0.  1.
          6    1    1    2  501    0  0.10276850303E+03 -0.15104214168E+02  0.29751106685E+03  0.35948760396E+03  0.17300000000E+03 0. -1.
         -6    1    1    2    0  503 -0.10276850303E+03  0.15104214168E+02 -0.10322190957E+02  0.20205209755E+03  0.17300000000E+03 0.  1.
<mgrwt>
<rscale>  2 0.20178826E+03</rscale>
<asrwt>0</asrwt>
<pdfrwt beam="1">  1       21 0.65286813E-01 0.20178826E+03</pdfrwt>
<pdfrwt beam="2">  1       21 0.21103910E-01 0.20178826E+03</pdfrwt>
<totfact> 0.44852058E+04</totfact>
</mgrwt>
</event>
<event>
 4    1  0.4327903E+000  0.1772756E+03  0.7546771E-02  0.1170466E+00
         21   -1    0    0  503  502  0.00000000000E+00  0.00000000000E+00  0.19457408186E+04  0.19457408186E+04  0.00000000000E+00 0.  1.
         21   -1    0    0  501  503 -0.00000000000E+00 -0.00000000000E+00 -0.54164716544E+02  0.54164716544E+02  0.00000000000E+00 0.  1.
          6    1    1    2  501    0 -0.37595885309E+02  0.91761789476E+01  0.10808808004E+03  0.20762872128E+03  0.17300000000E+03 0.  1.
         -6    1    1    2    0  502  0.37595885309E+02 -0.91761789476E+01  0.17834880220E+04  0.17922768139E+04  0.17300000000E+03 0.  1.
<mgrwt>
<rscale>  2 0.17727564E+03</rscale>
<asrwt>0</asrwt>
<pdfrwt beam="1">  1       21 0.29934469E+00 0.17727564E+03</pdfrwt>
<pdfrwt beam="2">  1       21 0.83330348E-02 0.17727564E+03</pdfrwt>
<totfact> 0.39223224E+03</totfact>
</mgrwt>
</event>
<event>
 4    1  0.4327903E+000  0.2069199E+03  0.7546771E-02  0.1144029E+00
         21   -1    0    0  501  502  0.00000000000E+00  0.00000000000E+00  0.57971682074E+02  0.57971682074E+02  0.00000000000E+00 0.  1.
         21   -1    0    0  502  503 -0.00000000000E+00 -0.00000000000E+00 -0.91394528366E+03  0.91394528366E+03  0.00000000000E+00 0. -1.
          6    1    1    2  501    0  0.55867408978E+02 -0.98821512637E+02 -0.64086411465E+03  0.67344091960E+03  0.17300000000E+03 0. -1.
         -6    1    1    2    0  503 -0.55867408978E+02  0.98821512637E+02 -0.21510948694E+03  0.29847604613E+03  0.17300000000E+03 0.  1.
<mgrwt>
<rscale>  2 0.20691993E+03</rscale>
<asrwt>0</asrwt>
<pdfrwt beam="1">  1       21 0.89187208E-02 0.20691993E+03</pdfrwt>
<pdfrwt beam="2">  1       21 0.14060696E+00 0.20691993E+03</pdfrwt>
<totfact> 0.34823116E+04</totfact>
</mgrwt>
</event>
<event>
 4    1  0.4327903E+000  0.2054559E+03  0.7546771E-02  0.1145216E+00
         21   -1    0    0  501  502  0.00000000000E+00  0.00000000000E+00  0.20430412159E+03  0.20430412159E+03  0.00000000000E+00 0.  1.
         21   -1    0    0  502  503 -0.00000000000E+00 -0.00000000000E+00 -0.24520405130E+03  0.24520405130E+03  0.00000000000E+00 0.  1.
          6    1    1    2  501    0 -0.94343966203E+02 -0.58157745719E+02  0.68712286359E+02  0.21664137565E+03  0.17300000000E+03 0.  1.
         -6    1    1    2    0  503  0.94343966203E+02  0.58157745719E+02 -0.10961221606E+03  0.23286679724E+03  0.17300000000E+03 0.  1.
<mgrwt>
<rscale>  2 0.20545585E+03</rscale>
<asrwt>0</asrwt>
<pdfrwt beam="1">  1       21 0.31431403E-01 0.20545585E+03</pdfrwt>
<pdfrwt beam="2">  1       21 0.37723700E-01 0.20545585E+03</pdfrwt>
<totfact> 0.65548561E+04</totfact>
</mgrwt>
</event>
<event>
 4    1  0.4327903E+000  0.1800629E+03  0.7546771E-02  0.1167742E+00
         21   -1    0    0  501  502  0.00000000000E+00  0.00000000000E+00  0.81270954245E+02  0.81270954245E+02  0.00000000000E+00 0. -1.
         21   -1    0    0  502  503 -0.00000000000E+00 -0.00000000000E+00 -0.58240110032E+03  0.58240110032E+03  0.00000000000E+00 0. -1.
          6    1    1    2  501    0  0.45253519559E+02 -0.21113113893E+02 -0.64322713189E+02  0.19120684099E+03  0.17300000000E+03 0. -1.
         -6    1    1    2    0  503 -0.45253519559E+02  0.21113113893E+02 -0.43680743289E+03  0.47246521357E+03  0.17300000000E+03 0. -1.
<mgrwt>
<rscale>  2 0.18006289E+03</rscale>
<asrwt>0</asrwt>
<pdfrwt beam="1">  1       21 0.12503224E-01 0.18006289E+03</pdfrwt>
<pdfrwt beam="2">  1       21 0.89600168E-01 0.18006289E+03</pdfrwt>
<totfact> 0.58212818E+04</totfact>
</mgrwt>
</event>
<event>
 4    1  0.4327903E+000  0.1884344E+03  0.7546771E-02  0.1159881E+00
         21   -1    0    0  501  502  0.00000000000E+00  0.00000000000E+00  0.38781816728E+02  0.38781816728E+02  0.00000000000E+00 0.  1.
         21   -1    0    0  502  503 -0.00000000000E+00 -0.00000000000E+00 -0.12068110676E+04  0.12068110676E+04  0.00000000000E+00 0.  1.
          6    1    1    2  501    0 -0.40933622350E+02 -0.62473542986E+02 -0.88996576507E+03  0.90969586566E+03  0.17300000000E+03 0.  1.
         -6    1    1    2    0  503  0.40933622350E+02  0.62473542986E+02 -0.27806348582E+03  0.33589701868E+03  0.17300000000E+03 0.  1.
<mgrwt>
<rscale>  2 0.18843435E+03</rscale>
<asrwt>0</asrwt>
<pdfrwt beam="1">  1       21 0.59664329E-02 0.18843435E+03</pdfrwt>
<pdfrwt beam="2">  1       21 0.18566326E+00 0.18843435E+03</pdfrwt>
<totfact> 0.33270640E+04</totfact>
</mgrwt>
</event>
<event>
 4    1  0.4327903E+000  0.2318857E+03  0.7546771E-02  0.1125320E+00
         21   -1    0    0  503  502  0.00000000000E+00  0.00000000000E+00  0.32196474773E+02  0.32196474773E+02  0.00000000000E+00 0. -1.
         21   -1    0    0  501  503 -0.00000000000E+00 -0.00000000000E+00 -0.18522707263E+04  0.18522707263E+04  0.00000000000E+00 0.  1.
          6    1    1    2  501    0 -0.15296785145E+03 -0.21043102438E+02 -0.12055380608E+04  0.12276371580E+04  0.17300000000E+03 0.  1.
         -6    1    1    2    0  502  0.15296785145E+03  0.21043102438E+02 -0.61453619078E+03  0.65683004310E+03  0.17300000000E+03 0. -1.
<mgrwt>
<rscale>  2 0.23188570E+03</rscale>
<asrwt>0</asrwt>
<pdfrwt beam="1">  1       21 0.49533022E-02 0.23188570E+03</pdfrwt>
<pdfrwt beam="2">  1       21 0.28496482E+00 0.23188570E+03</pdfrwt>
<totfact> 0.10966822E+04</totfact>
</mgrwt>
</event>
<event>
 4    1  0.4327903E+000  0.1986409E+03  0.7546771E-02  0.1150891E+00
         21   -1    0    0  503  502  0.00000000000E+00  0.00000000000E+00  0.70124969645E+02  0.70124969645E+02  0.00000000000E+00 0. -1.
         21   -1    0    0  501  503 -0.00000000000E+00 -0.00000000000E+00 -0.80499514131E+03  0.80499514131E+03  0.00000000000E+00 0. -1.
          6    1    1    2  501    0  0.92380096077E+02  0.31545757558E+02 -0.60749933765E+03  0.63915073513E+03  0.17300000000E+03 0. -1.
         -6    1    1    2    0  502 -0.92380096077E+02 -0.31545757558E+02 -0.12737083402E+03  0.23596937583E+03  0.17300000000E+03 0. -1.
<mgrwt>
<rscale>  2 0.19864092E+03</rscale>
<asrwt>0</asrwt>
<pdfrwt beam="1">  1       21 0.10788457E-01 0.19864092E+03</pdfrwt>
<pdfrwt beam="2">  1       21 0.12384540E+00 0.19864092E+03</pdfrwt>
<totfact> 0.34514154E+04</totfact>
</mgrwt>
</event>
<event>
 4    1  0.4327903E+000  0.2232243E+03  0.7546771E-02  0.1131502E+00
         21   -1    0    0  501  502  0.00000000000E+00  0.00000000000E+00  0.19699304954E+03  0.19699304954E+03  0.00000000000E+00 0.  1.
         21   -1    0    0  502  503 -0.00000000000E+00 -0.00000000000E+00 -0.26235480434E+03  0.26235480434E+03  0.00000000000E+00 0.  1.
          6    1    1    2  501    0  0.46374808243E+01  0.14099139462E+03  0.10808047098E+02  0.22348577912E+03  0.17300000000E+03 0.  1.
         -6    1    1    2    0  503 -0.46374808243E+01 -0.14099139462E+03 -0.76169801896E+02  0.23586207475E+03  0.17300000000E+03 0.  1.
<mgrwt>
<rscale>  2 0.22322428E+03</rscale>
<asrwt>0</asrwt>
<pdfrwt beam="1">  1       21 0.30306623E-01 0.22322428E+03</pdfrwt>
<pdfrwt beam="2">  1       21 0.40362278E-01 0.22322428E+03</pdfrwt>
<totfact> 0.60952476E+04</totfact>
</mgrwt>
</event>
<event>
 4    1  0.4327903E+000  0.1821400E+03  0.7546771E-02  0.1165748E+00
         21   -1    0    0  503  502  0.00000000000E+00  0.00000000000E+00  0.40873823508E+03  0.40873823508E+03  0.00000000000E+00 0. -1.
         21   -1    0    0  501  503 -0.00000000000E+00 -0.00000000000E+00 -0.81490411411E+02  0.81490411411E+02  0.00000000000E+00 0. -1.
          6    1    1    2  501    0 -0.44185153193E+02  0.35967249915E+02  0.14811901249E+03  0.23476416398E+03  0.17300000000E+03 0. -1.
         -6    1    1    2    0  502  0.44185153193E+02 -0.35967249915E+02  0.17912881118E+03  0.25546448251E+03  0.17300000000E+03 0. -1.
<mgrwt>
<rscale>  2 0.18213998E+03</rscale>
<asrwt>0</asrwt>
<pdfrwt beam="1">  1       21 0.62882804E-01 0.18213998E+03</pdfrwt>
<pdfrwt beam="2">  1       21 0.12536987E-01 0.18213998E+03</pdfrwt>
<totfact> 0.12752925E+05</totfact>
</mgrwt>
</event>
<event>
 4    1  0.4327903E+000  0.3399934E+03  0.7546771E-02  0.1066799E+00
         21   -1    0    0  501  502  0.00000000000E+00  0.00000000000E+00  0.77000752229E+02  0.77000752229E+02  0.00000000000E+00 0. -1.
         21   -1    0    0  502  503 -0.00000000000E+00 -0.00000000000E+00 -0.19692962725E+04  0.19692962725E+04  0.00000000000E+00 0.  1.
          6    1    1    2  501    0  0.28460477265E+03  0.68312864759E+02 -0.44733366079E+03  0.56187447725E+03  0.17300000000E+03 0. -1.
         -6    1    1    2    0  503 -0.28460477265E+03 -0.68312864759E+02 -0.14449618595E+04  0.14844225475E+04  0.17300000000E+03 0.  1.
<mgrwt>
<rscale>  2 0.33999342E+03</rscale>
<asrwt>0</asrwt>
<pdfrwt beam="1">  1       21 0.11846270E-01 0.33999342E+03</pdfrwt>
<pdfrwt beam="2">  1       21 0.30296864E+00 0.33999342E+03</pdfrwt>
<totfact> 0.17133866E+03</totfact>
</mgrwt>
</event>
<event>
 4    1  0.4327903E+000  0.2001552E+03  0.7546771E-02  0.1149608E+00
         21   -1    0    0  501  502  0.00000000000E+00  0.00000000000E+00  0.21482252454E+03  0.21482252454E+03  0.00000000000E+00 0.  1.
         21   -1    0    0  502  503 -0.00000000000E+00 -0.00000000000E+00 -0.23094180808E+03  0.23094180808E+03  0.00000000000E+00 0.  1.
          6    1    1    2  501    0  0.79578586214E+02  0.61647129252E+02  0.89725252760E+02  0.21934616685E+03  0.17300000000E+03 0.  1.
         -6    1    1    2    0  503 -0.79578586214E+02 -0.61647129252E+02 -0.10584453630E+03  0.22641816577E+03  0.17300000000E+03 0.  1.
<mgrwt>
<rscale>  2 0.20015524E+03</rscale>
<asrwt>0</asrwt>
<pdfrwt beam="1">  1       21 0.33049620E-01 0.20015524E+03</pdfrwt>
<pdfrwt beam="2">  1       21 0.35529509E-01 0.20015524E+03</pdfrwt>
<totfact> 0.67098147E+04</totfact>
</mgrwt>
</event>
<event>
 4    1  0.4327903E+000  0.1779084E+03  0.7546771E-02  0.1169843E+00
         21   -1    0    0  501  502  0.00000000000E+00  0.00000000000E+00  0.12176867875E+03  0.12176867875E+03  0.00000000000E+00 0.  1.
         21   -1    0    0  502  503 -0.00000000000E+00 -0.00000000000E+00 -0.26013131131E+03  0.26013131131E+03  0.00000000000E+00 0.  1.
          6    1    1    2  501    0  0.29580765297E+02 -0.29109852090E+02 -0.63877185052E+02  0.18902830459E+03  0.17300000000E+03 0. -1.
         -6    1    1    2    0  503 -0.29580765297E+02  0.29109852090E+02 -0.74485447511E+02  0.19287168547E+03  0.17300000000E+03 0. -1.
<mgrwt>
<rscale>  2 0.17790842E+03</rscale>
<asrwt>0</asrwt>
<pdfrwt beam="1">  1       21 0.18733643E-01 0.17790842E+03</pdfrwt>
<pdfrwt beam="2">  1       21 0.40020201E-01 0.17790842E+03</pdfrwt>
<totfact> 0.15762727E+05</totfact>
</mgrwt>
</event>
<event>
 4    1  0.4327903E+000  0.1745413E+03  0.7546771E-02  0.1173193E+00
         21   -1    0    0  501  502  0.00000000000E+00  0.00000000000E+00  0.75104097787E+02  0.75104097787E+02  0.00000000000E+00 0.  1.
         21   -1    0    0  502  503 -0.00000000000E+00 -0.00000000000E+00 -0.76793502018E+03  0.76793502018E+03  0.00000000000E+00 0.  1.
          6    1    1    2  501    0  0.21075630622E+02  0.95646997257E+01 -0.56887074614E+02  0.18357778990E+03  0.17300000000E+03 0.  1.
         -6    1    1    2    0  503 -0.21075630622E+02 -0.95646997257E+01 -0.63594384778E+03  0.65946132807E+03  0.17300000000E+03 0.  1.
<mgrwt>
<rscale>  2 0.17454130E+03</rscale>
<asrwt>0</asrwt>
<pdfrwt beam="1">  1       21 0.11554477E-01 0.17454130E+03</pdfrwt>
<pdfrwt beam="2">  1       21 0.11814385E+00 0.17454130E+03</pdfrwt>
<totfact> 0.34818560E+04</totfact>
</mgrwt>
</event>
<event>
 4    1  0.4327903E+000  0.2552198E+03  0.7546771E-02  0.1110050E+00
         21   -1    0    0  503  502  0.00000000000E+00  0.00000000000E+00  0.11161574822E+03  0.11161574822E+03  0.00000000000E+00 0. -1.
         21   -1    0    0  501  503 -0.00000000000E+00 -0.00000000000E+00 -0.75436112472E+03  0.75436112472E+03  0.00000000000E+00 0.  1.
          6    1    1    2  501    0  0.59190271200E+02 -0.17805808796E+03 -0.52738891459E+03  0.58589780519E+03  0.17300000000E+03 0.  1.
         -6    1    1    2    0  502 -0.59190271200E+02  0.17805808796E+03 -0.11535646190E+03  0.28007906776E+03  0.17300000000E+03 0. -1.
<mgrwt>
<rscale>  2 0.25521985E+03</rscale>
<asrwt>0</asrwt>
<pdfrwt beam="1">  1       21 0.17171654E-01 0.25521985E+03</pdfrwt>
<pdfrwt beam="2">  1       21 0.11605556E+00 0.25521985E+03</pdfrwt>
<totfact> 0.16925756E+04</totfact>
</mgrwt>
</event>
<event>
 4    1  0.4327903E+000  0.1839452E+03  0.7546771E-02  0.1164039E+00
         21   -1    0    0  501  502  0.00000000000E+00  0.00000000000E+00  0.30881186186E+03  0.30881186186E+03  0.00000000000E+00 0. -1.
         21   -1    0    0  502  503 -0.00000000000E+00 -0.00000000000E+00 -0.12385060835E+03  0.12385060835E+03  0.00000000000E+00 0. -1.
          6    1    1    2  501    0 -0.53847048721E+02 -0.31738287318E+02  0.16594513760E+03  0.24773698196E+03  0.17300000000E+03 0. -1.
         -6    1    1    2    0  503  0.53847048721E+02  0.31738287318E+02  0.19016115914E+02  0.18492548824E+03  0.17300000000E+03 0. -1.
<mgrwt>
<rscale>  2 0.18394516E+03</rscale>
<asrwt>0</asrwt>
<pdfrwt beam="1">  1       21 0.47509517E-01 0.18394516E+03</pdfrwt>
<pdfrwt beam="2">  1       21 0.19053940E-01 0.18394516E+03</pdfrwt>
<totfact> 0.10739186E+05</totfact>
</mgrwt>
</event>
<event>
 4    1  0.4327903E+000  0.1767595E+03  0.7546771E-02  0.1170977E+00
         21   -1    0    0  503  502  0.00000000000E+00  0.00000000000E+00  0.13659652194E+03  0.13659652194E+03  0.00000000000E+00 0.  1.
         21   -1    0    0  501  503 -0.00000000000E+00 -0.00000000000E+00 -0.37875572147E+03  0.37875572147E+03  0.00000000000E+00 0.  1.
          6    1    1    2  501    0 -0.22458371999E+02  0.28469759133E+02 -0.28325145875E+03  0.33387916159E+03  0.17300000000E+03 0.  1.
         -6    1    1    2    0  502  0.22458371999E+02 -0.28469759133E+02  0.41092259221E+02  0.18147308182E+03  0.17300000000E+03 0.  1.
<mgrwt>
<rscale>  2 0.17675946E+03</rscale>
<asrwt>0</asrwt>
<pdfrwt beam="1">  1       21 0.21014850E-01 0.17675946E+03</pdfrwt>
<pdfrwt beam="2">  1       21 0.58270111E-01 0.17675946E+03</pdfrwt>
<totfact> 0.58466977E+04</totfact>
</mgrwt>
</event>
<event>
 4    1  0.4327903E+000  0.2113564E+03  0.7546771E-02  0.1140496E+00
         21   -1    0    0  501  502  0.00000000000E+00  0.00000000000E+00  0.84547633240E+03  0.84547633240E+03  0.00000000000E+00 0. -1.
         21   -1    0    0  502  503 -0.00000000000E+00 -0.00000000000E+00 -0.62726720844E+02  0.62726720844E+02  0.00000000000E+00 0. -1.
          6    1    1    2  501    0  0.13102336649E+02 -0.12070973544E+03  0.57169427341E+03  0.60951280028E+03  0.17300000000E+03 0.  1.
         -6    1    1    2    0  503 -0.13102336649E+02  0.12070973544E+03  0.21105533815E+03  0.29869025297E+03  0.17300000000E+03 0.  1.
<mgrwt>
<rscale>  2 0.21135636E+03</rscale>
<asrwt>0</asrwt>
<pdfrwt beam="1">  1       21 0.13007327E+00 0.21135636E+03</pdfrwt>
<pdfrwt beam="2">  1       21 0.96502653E-02 0.21135636E+03</pdfrwt>
<totfact> 0.36900642E+04</totfact>
</mgrwt>
</event>
<event>
 4    1  0.4327903E+000  0.3021123E+03  0.7546771E-02  0.1084189E+00
         21   -1    0    0  503  502  0.00000000000E+00  0.00000000000E+00  0.46155115947E+03  0.46155115947E+03  0.00000000000E+00 0.  1.
         21   -1    0    0  501  503 -0.00000000000E+00 -0.00000000000E+00 -0.39322940150E+03  0.39322940150E+03  0.00000000000E+00 0. -1.
          6    1    1    2  501    0 -0.10112121085E+03  0.22609149943E+03 -0.26717569972E+03  0.40330474820E+03  0.17300000000E+03 0. -1.
         -6    1    1    2    0  502  0.10112121085E+03 -0.22609149943E+03  0.33549745770E+03  0.45147581277E+03  0.17300000000E+03 0.  1.
<mgrwt>
<rscale>  2 0.30211234E+03</rscale>
<asrwt>0</asrwt>
<pdfrwt beam="1">  1       21 0.71007870E-01 0.30211234E+03</pdfrwt>
<pdfrwt beam="2">  1       21 0.60496831E-01 0.30211234E+03</pdfrwt>
<totfact> 0.42579398E+03</totfact>
</mgrwt>
</event>
<event>
 4    1  0.4327903E+000  0.2407951E+03  0.7546771E-02  0.1119264E+00
         21   -1    0    0  503  502  0.00000000000E+00  0.00000000000E+00  0.12628250619E+04  0.12628250619E+04  0.00000000000E+00 0. -1.
         21   -1    0    0  501  503 -0.00000000000E+00 -0.00000000000E+00 -0.45962366095E+02  0.45962366095E+02  0.00000000000E+00 0. -1.
          6    1    1    2  501    0 -0.14520664860E+03 -0.83476430367E+02  0.58736654570E+03  0.63480843113E+03  0.17300000000E+03 0. -1.
         -6    1    1    2    0  502  0.14520664860E+03  0.83476430367E+02  0.62949615014E+03  0.67397899690E+03  0.17300000000E+03 0. -1.
<mgrwt>
<rscale>  2 0.24079511E+03</rscale>
<asrwt>0</asrwt>
<pdfrwt beam="1">  1       21 0.19428075E+00 0.24079511E+03</pdfrwt>
<pdfrwt beam="2">  1       21 0.70711342E-02 0.24079511E+03</pdfrwt>
<totfact> 0.21027817E+04</totfact>
</mgrwt>
</event>
<event>
 4    1  0.4327903E+000  0.3050045E+03  0.7546771E-02  0.1082765E+00
         21   -1    0    0  501  502  0.00000000000E+00  0.00000000000E+00  0.61687616168E+02  0.61687616168E+02  0.00000000000E+00 0. -1.
         21   -1    0    0  502  503 -0.00000000000E+00 -0.00000000000E+00 -0.15692220607E+04  0.15692220607E+04  0.00000000000E+00 0.  1.
          6    1    1    2  501    0  0.22367175213E+03  0.11432269879E+03 -0.91477625064E+03  0.96428383834E+03  0.17300000000E+03 0.  1.
         -6    1    1    2    0  503 -0.22367175213E+03 -0.11432269879E+03 -0.59275819392E+03  0.66662583855E+03  0.17300000000E+03 0. -1.
<mgrwt>
<rscale>  2 0.30500448E+03</rscale>
<asrwt>0</asrwt>
<pdfrwt beam="1">  1       21 0.94904027E-02 0.30500448E+03</pdfrwt>
<pdfrwt beam="2">  1       21 0.24141877E+00 0.30500448E+03</pdfrwt>
<totfact> 0.60852240E+03</totfact>
</mgrwt>
</event>
<event>
 4    1  0.4327903E+000  0.2103108E+03  0.7546771E-02  0.1141320E+00
         21   -1    0    0  501  502  0.00000000000E+00  0.00000000000E+00  0.41719368151E+02  0.41719368151E+02  0.00000000000E+00 0. -1.
         21   -1    0    0  502  503 -0.00000000000E+00 -0.00000000000E+00 -0.19905806351E+04  0.19905806351E+04  0.00000000000E+00 0.  1.
          6    1    1    2  501    0 -0.79372972353E+02  0.89451371780E+02 -0.27972678247E+03  0.34996812639E+03  0.17300000000E+03 0. -1.
         -6    1    1    2    0  503  0.79372972353E+02 -0.89451371780E+02 -0.16691344845E+04  0.16823318769E+04  0.17300000000E+03 0.  1.
<mgrwt>
<rscale>  2 0.21031076E+03</rscale>
<asrwt>0</asrwt>
<pdfrwt beam="1">  1       21 0.64183647E-02 0.21031076E+03</pdfrwt>
<pdfrwt beam="2">  1       21 0.30624316E+00 0.21031076E+03</pdfrwt>
<totfact> 0.54114198E+03</totfact>
</mgrwt>
</event>
<event>
 4    1  0.4327903E+000  0.2106175E+03  0.7546771E-02  0.1141078E+00
         21   -1    0    0  503  502  0.00000000000E+00  0.00000000000E+00  0.42258668569E+02  0.42258668569E+02  0.00000000000E+00 0. -1.
         21   -1    0    0  501  503 -0.00000000000E+00 -0.00000000000E+00 -0.16091833063E+04  0.16091833063E+04  0.00000000000E+00 0.  1.
          6    1    1    2  501    0 -0.50705188831E+01  0.12002083200E+03 -0.12703366881E+04  0.12876781475E+04  0.17300000000E+03 0.  1.
         -6    1    1    2    0  502  0.50705188831E+01 -0.12002083200E+03 -0.29658794962E+03  0.36376382741E+03  0.17300000000E+03 0. -1.
<mgrwt>
<rscale>  2 0.21061745E+03</rscale>
<asrwt>0</asrwt>
<pdfrwt beam="1">  1       21 0.65013327E-02 0.21061745E+03</pdfrwt>
<pdfrwt beam="2">  1       21 0.24756670E+00 0.21061745E+03</pdfrwt>
<totfact> 0.11617391E+04</totfact>
</mgrwt>
</event>
<event>
 4    1  0.4327903E+000  0.2357532E+03  0.7546771E-02  0.1122655E+00
         21   -1    0    0  503  502  0.00000000000E+00  0.00000000000E+00  0.51710210345E+02  0.51710210345E+02  0.00000000000E+00 0.  1.
         21   -1    0    0  501  503 -0.00000000000E+00 -0.00000000000E+00 -0.12136575521E+04  0.12136575521E+04  0.00000000000E+00 0. -1.
          6    1    1    2  501    0  0.36499487166E+02  0.15594339123E+03 -0.79495727651E+03  0.82917828319E+03  0.17300000000E+03 0. -1.
         -6    1    1    2    0  502 -0.36499487166E+02 -0.15594339123E+03 -0.36699006529E+03  0.43618947930E+03  0.17300000000E+03 0.  1.
<mgrwt>
<rscale>  2 0.23575316E+03</rscale>
<asrwt>0</asrwt>
<pdfrwt beam="1">  1       21 0.79554176E-02 0.23575316E+03</pdfrwt>
<pdfrwt beam="2">  1       21 0.18671653E+00 0.23575316E+03</pdfrwt>
<totfact> 0.19286856E+04</totfact>
</mgrwt>
</event>
<event>
 4    1  0.4327903E+000  0.2034266E+03  0.7546771E-02  0.1146880E+00
         21   -1    0    0  501  502  0.00000000000E+00  0.00000000000E+00  0.10260651345E+04  0.10260651345E+04  0.00000000000E+00 0.  1.
         21   -1    0    0  502  503 -0.00000000000E+00 -0.00000000000E+00 -0.42809894172E+02  0.42809894172E+02  0.00000000000E+00 0.  1.
          6    1    1    2  501    0  0.61086073042E+01 -0.10684594449E+03  0.62022794628E+03  0.65273660560E+03  0.17300000000E+03 0.  1.
         -6    1    1    2    0  503 -0.61086073042E+01  0.10684594449E+03  0.36302729405E+03  0.41613842308E+03  0.17300000000E+03 0.  1.
<mgrwt>
<rscale>  2 0.20342657E+03</rscale>
<asrwt>0</asrwt>
<pdfrwt beam="1">  1       21 0.15785616E+00 0.20342657E+03</pdfrwt>
<pdfrwt beam="2">  1       21 0.65861384E-02 0.20342657E+03</pdfrwt>
<totfact> 0.43574428E+04</totfact>
</mgrwt>
</event>
<event>
 4    1  0.4327903E+000  0.2048377E+03  0.7546771E-02  0.1145720E+00
         21   -1    0    0  501  502  0.00000000000E+00  0.00000000000E+00  0.15208856832E+03  0.15208856832E+03  0.00000000000E+00 0.  1.
         21   -1    0    0  502  503 -0.00000000000E+00 -0.00000000000E+00 -0.39835865056E+03  0.39835865056E+03  0.00000000000E+00 0. -1.
          6    1    1    2  501    0  0.66819719367E+02 -0.86974849833E+02  0.29472220251E+02  0.20694712167E+03  0.17300000000E+03 0.  1.
         -6    1    1    2    0  503 -0.66819719367E+02  0.86974849833E+02 -0.27574230249E+03  0.34350009721E+03  0.17300000000E+03 0. -1.
<mgrwt>
<rscale>  2 0.20483774E+03</rscale>
<asrwt>0</asrwt>
<pdfrwt beam="1">  1       21 0.23398241E-01 0.20483774E+03</pdfrwt>
<pdfrwt beam="2">  1       21 0.61285947E-01 0.20483774E+03</pdfrwt>
<totfact> 0.42268971E+04</totfact>
</mgrwt>
</event>
<event>
 4    1  0.4327903E+000  0.2163180E+03  0.7546771E-02  0.1136658E+00
         21   -1    0    0  503  502  0.00000000000E+00  0.00000000000E+00  0.12418366469E+03  0.12418366469E+03  0.00000000000E+00 0.  1.
         21   -1    0    0  501  503 -0.00000000000E+00 -0.00000000000E+00 -0.49432726091E+03  0.49432726091E+03  0.00000000000E+00 0.  1.
          6    1    1    2  501    0 -0.40886932501E+02  0.12325873370E+03 -0.33585874808E+03  0.39949287271E+03  0.17300000000E+03 0.  1.
         -6    1    1    2    0  502  0.40886932501E+02 -0.12325873370E+03 -0.34284848138E+02  0.21901805289E+03  0.17300000000E+03 0.  1.
<mgrwt>
<rscale>  2 0.21631795E+03</rscale>
<asrwt>0</asrwt>
<pdfrwt beam="1">  1       21 0.19105179E-01 0.21631795E+03</pdfrwt>
<pdfrwt beam="2">  1       21 0.76050350E-01 0.21631795E+03</pdfrwt>
<totfact> 0.38273620E+04</totfact>
</mgrwt>
</event>
<event>
 4    1  0.4327903E+000  0.1772611E+03  0.7546771E-02  0.1170480E+00
         21   -1    0    0  501  502  0.00000000000E+00  0.00000000000E+00  0.15809466023E+03  0.15809466023E+03  0.00000000000E+00 0.  1.
         21   -1    0    0  502  503 -0.00000000000E+00 -0.00000000000E+00 -0.24005320481E+03  0.24005320481E+03  0.00000000000E+00 0.  1.
          6    1    1    2  501    0  0.33892144133E+02  0.18542443088E+02  0.41595300298E+02  0.18207599687E+03  0.17300000000E+03 0.  1.
         -6    1    1    2    0  503 -0.33892144133E+02 -0.18542443088E+02 -0.12355384488E+03  0.21607186817E+03  0.17300000000E+03 0.  1.
<mgrwt>
<rscale>  2 0.17726111E+03</rscale>
<asrwt>0</asrwt>
<pdfrwt beam="1">  1       21 0.24322255E-01 0.17726111E+03</pdfrwt>
<pdfrwt beam="2">  1       21 0.36931262E-01 0.17726111E+03</pdfrwt>
<totfact> 0.11349376E+05</totfact>
</mgrwt>
</event>
<event>
 4    1  0.4327903E+000  0.2596880E+03  0.7546771E-02  0.1107331E+00
         21   -1    0    0  503  502  0.00000000000E+00  0.00000000000E+00  0.40182266984E+02  0.40182266984E+02  0.00000000000E+00 0. -1.
         21   -1    0    0  501  503 -0.00000000000E+00 -0.00000000000E+00 -0.17875990010E+04  0.17875990010E+04  0.00000000000E+00 0.  1.
          6    1    1    2  501    0 -0.69982003730E+02  0.18058624490E+03 -0.10996876133E+04  0.11299339448E+04  0.17300000000E+03 0.  1.
         -6    1    1    2    0  502  0.69982003730E+02 -0.18058624490E+03 -0.64772912065E+03  0.69784732315E+03  0.17300000000E+03 0. -1.
<mgrwt>
<rscale>  2 0.25968803E+03</rscale>
<asrwt>0</asrwt>
<pdfrwt beam="1">  1       21 0.61818877E-02 0.25968803E+03</pdfrwt>
<pdfrwt beam="2">  1       21 0.27501521E+00 0.25968803E+03</pdfrwt>
<totfact> 0.83865316E+03</totfact>
</mgrwt>
</event>
<event>
 4    1  0.4327903E+000  0.2506211E+03  0.7546771E-02  0.1112913E+00
         21   -1    0    0  503  502  0.00000000000E+00  0.00000000000E+00  0.56936676369E+02  0.56936676369E+02  0.00000000000E+00 0. -1.
         21   -1    0    0  501  503 -0.00000000000E+00 -0.00000000000E+00 -0.11050013177E+04  0.11050013177E+04  0.00000000000E+00 0. -1.
          6    1    1    2  501    0 -0.16150136831E+03 -0.82457587017E+02 -0.54767078731E+03  0.60229082418E+03  0.17300000000E+03 0. -1.
         -6    1    1    2    0  502  0.16150136831E+03  0.82457587017E+02 -0.50039385405E+03  0.55964716991E+03  0.17300000000E+03 0. -1.
<mgrwt>
<rscale>  2 0.25062112E+03</rscale>
<asrwt>0</asrwt>
<pdfrwt beam="1">  1       21 0.87594891E-02 0.25062112E+03</pdfrwt>
<pdfrwt beam="2">  1       21 0.17000019E+00 0.25062112E+03</pdfrwt>
<totfact> 0.21070376E+04</totfact>
</mgrwt>
</event>
<event>
 4    1  0.4327903E+000  0.1794283E+03  0.7546771E-02  0.1168357E+00
         21   -1    0    0  501  502  0.00000000000E+00  0.00000000000E+00  0.20655318466E+04  0.20655318466E+04  0.00000000000E+00 0.  1.
         21   -1    0    0  502  503 -0.00000000000E+00 -0.00000000000E+00 -0.29109228878E+02  0.29109228878E+02  0.00000000000E+00 0.  1.
          6    1    1    2  501    0 -0.30535608492E+02  0.36511477755E+02  0.17320427426E+04  0.17413117393E+04  0.17300000000E+03 0.  1.
         -6    1    1    2    0  503  0.30535608492E+02 -0.36511477755E+02  0.30437987514E+03  0.35332933615E+03  0.17300000000E+03 0.  1.
<mgrwt>
<rscale>  2 0.17942829E+03</rscale>
<asrwt>0</asrwt>
<pdfrwt beam="1">  1       21 0.31777402E+00 0.17942829E+03</pdfrwt>
<pdfrwt beam="2">  1       21 0.44783445E-02 0.17942829E+03</pdfrwt>
<totfact> 0.88739498E+03</totfact>
</mgrwt>
</event>
<event>
 4    1  0.4327903E+000  0.2114149E+03  0.7546771E-02  0.1140450E+00
         21   -1    0    0  501  502  0.00000000000E+00  0.00000000000E+00  0.19366001275E+03  0.19366001275E+03  0.00000000000E+00 0.  1.
         21   -1    0    0  502  503 -0.00000000000E+00 -0.00000000000E+00 -0.72714683097E+03  0.72714683097E+03  0.00000000000E+00 0. -1.
          6    1    1    2  501    0 -0.11789947997E+03 -0.29444737591E+02  0.11363961815E+03  0.24002133814E+03  0.17300000000E+03 0.  1.
         -6    1    1    2    0  503  0.11789947997E+03  0.29444737591E+02 -0.64712643637E+03  0.68078550557E+03  0.17300000000E+03 0. -1.
<mgrwt>
<rscale>  2 0.21141495E+03</rscale>
<asrwt>0</asrwt>
<pdfrwt beam="1">  1       21 0.29793848E-01 0.21141495E+03</pdfrwt>
<pdfrwt beam="2">  1       21 0.11186874E+00 0.21141495E+03</pdfrwt>
<totfact> 0.66767743E+03</totfact>
</mgrwt>
</event>
<event>
 4    1  0.4327903E+000  0.2232314E+03  0.7546771E-02  0.1131497E+00
         21   -1    0    0  501  502  0.00000000000E+00  0.00000000000E+00  0.33028176209E+03  0.33028176209E+03  0.00000000000E+00 0. -1.
         21   -1    0    0  502  503 -0.00000000000E+00 -0.00000000000E+00 -0.30898779096E+03  0.30898779096E+03  0.00000000000E+00 0.  1.
          6    1    1    2  501    0  0.16475172756E+02 -0.14011361619E+03  0.23929252130E+03  0.32725092439E+03  0.17300000000E+03 0. -1.
         -6    1    1    2    0  503 -0.16475172756E+02  0.14011361619E+03 -0.21799855017E+03  0.31201862867E+03  0.17300000000E+03 0.  1.
<mgrwt>
<rscale>  2 0.22323140E+03</rscale>
<asrwt>0</asrwt>
<pdfrwt beam="1">  1       21 0.50812579E-01 0.22323140E+03</pdfrwt>
<pdfrwt beam="2">  1       21 0.47536583E-01 0.22323140E+03</pdfrwt>
<totfact> 0.15304091E+04</totfact>
</mgrwt>
</event>
<event>
 4    1  0.4327903E+000  0.1757812E+03  0.7546771E-02  0.1171950E+00
         21   -1    0    0  501  502  0.00000000000E+00  0.00000000000E+00  0.54472498418E+03  0.54472498418E+03  0.00000000000E+00 0.  1.
         21   -1    0    0  502  503 -0.00000000000E+00 -0.00000000000E+00 -0.79127473089E+02  0.79127473089E+02  0.00000000000E+00 0.  1.
          6    1    1    2  501    0  0.88557039009E+01 -0.29859515182E+02  0.39877476301E+03  0.43579849214E+03  0.17300000000E+03 0.  1.
         -6    1    1    2    0  503 -0.88557039009E+01  0.29859515182E+02  0.66822748077E+02  0.18805396512E+03  0.17300000000E+03 0.  1.
<mgrwt>
<rscale>  2 0.17578115E+03</rscale>
<asrwt>0</asrwt>
<pdfrwt beam="1">  1       21 0.83803841E-01 0.17578115E+03</pdfrwt>
<pdfrwt beam="2">  1       21 0.12173458E-01 0.17578115E+03</pdfrwt>
<totfact> 0.71320092E+04</totfact>
</mgrwt>
</event>
<event>
 4    1  0.4327903E+000  0.1732847E+03  0.7546771E-02  0.1174465E+00
         21   -1    0    0  503  502  0.00000000000E+00  0.00000000000E+00  0.48217300034E+03  0.48217300034E+03  0.00000000000E+00 0.  1.
         21   -1    0    0  501  503 -0.00000000000E+00 -0.00000000000E+00 -0.77922062204E+02  0.77922062204E+02  0.00000000000E+00 0.  1.
          6    1    1    2  501    0 -0.30362823422E+01  0.94535921543E+01  0.76635132702E+02  0.18947435969E+03  0.17300000000E+03 0.  1.
         -6    1    1    2    0  502  0.30362823422E+01 -0.94535921543E+01  0.32761580543E+03  0.37062070285E+03  0.17300000000E+03 0.  1.
<mgrwt>
<rscale>  2 0.17328471E+03</rscale>
<asrwt>0</asrwt>
<pdfrwt beam="1">  1       21 0.74180460E-01 0.17328471E+03</pdfrwt>
<pdfrwt beam="2">  1       21 0.11988010E-01 0.17328471E+03</pdfrwt>
<totfact> 0.96531381E+04</totfact>
</mgrwt>
</event>
<event>
 4    1  0.4327903E+000  0.2132098E+03  0.7546771E-02  0.1139049E+00
         21   -1    0    0  503  502  0.00000000000E+00  0.00000000000E+00  0.14487349346E+04  0.14487349346E+04  0.00000000000E+00 0.  1.
         21   -1    0    0  501  503 -0.00000000000E+00 -0.00000000000E+00 -0.47969220952E+02  0.47969220952E+02  0.00000000000E+00 0. -1.
          6    1    1    2  501    0  0.10140527588E+03 -0.72432096188E+02  0.26027055829E+03  0.33645089099E+03  0.17300000000E+03 0. -1.
         -6    1    1    2    0  502 -0.10140527588E+03  0.72432096188E+02  0.11404951553E+04  0.11602532645E+04  0.17300000000E+03 0.  1.
<mgrwt>
<rscale>  2 0.21320985E+03</rscale>
<asrwt>0</asrwt>
<pdfrwt beam="1">  1       21 0.22288226E+00 0.21320985E+03</pdfrwt>
<pdfrwt beam="2">  1       21 0.73798812E-02 0.21320985E+03</pdfrwt>
<totfact> 0.13107997E+04</totfact>
</mgrwt>
</event>
<event>
 4    1  0.4327903E+000  0.2568771E+03  0.7546771E-02  0.1109034E+00
         21   -1    0    0  503  502  0.00000000000E+00  0.00000000000E+00  0.42851402997E+03  0.42851402997E+03  0.00000000000E+00 0. -1.
         21   -1    0    0  501  503 -0.00000000000E+00 -0.00000000000E+00 -0.32952996989E+03  0.32952996989E+03  0.00000000000E+00 0. -1.
          6    1    1    2  501    0  0.18627339943E+03 -0.36865176083E+02 -0.22714353573E+03  0.34289941144E+03  0.17300000000E+03 0. -1.
         -6    1    1    2    0  502 -0.18627339943E+03  0.36865176083E+02  0.32612759581E+03  0.41514458842E+03  0.17300000000E+03 0. -1.
<mgrwt>
<rscale>  2 0.25687705E+03</rscale>
<asrwt>0</asrwt>
<pdfrwt beam="1">  1       21 0.65925236E-01 0.25687705E+03</pdfrwt>
<pdfrwt beam="2">  1       21 0.50696918E-01 0.25687705E+03</pdfrwt>
<totfact> 0.75056603E+03</totfact>
</mgrwt>
</event>
<event>
 4    1  0.4327903E+000  0.2234255E+03  0.7546771E-02  0.1131355E+00
         21   -1    0    0  501  502  0.00000000000E+00  0.00000000000E+00  0.27269074983E+03  0.27269074983E+03  0.00000000000E+00 0.  1.
         21   -1    0    0  502  503 -0.00000000000E+00 -0.00000000000E+00 -0.18847933668E+03  0.18847933668E+03  0.00000000000E+00 0. -1.
          6    1    1    2  501    0  0.40299708435E+02 -0.13552076162E+03  0.81202997056E+02  0.23772435731E+03  0.17300000000E+03 0. -1.
         -6    1    1    2    0  503 -0.40299708435E+02  0.13552076162E+03  0.30084160924E+01  0.22344572920E+03  0.17300000000E+03 0. -1.
<mgrwt>
<rscale>  2 0.22342548E+03</rscale>
<asrwt>0</asrwt>
<pdfrwt beam="1">  1       21 0.41952423E-01 0.22342548E+03</pdfrwt>
<pdfrwt beam="2">  1       21 0.28996821E-01 0.22342548E+03</pdfrwt>
<totfact> 0.61414277E+04</totfact>
</mgrwt>
</event>
<event>
 4    1  0.4327903E+000  0.1785032E+03  0.7546771E-02  0.1169260E+00
         21   -1    0    0  503  502  0.00000000000E+00  0.00000000000E+00  0.23842300188E+03  0.23842300188E+03  0.00000000000E+00 0. -1.
         21   -1    0    0  501  503 -0.00000000000E+00 -0.00000000000E+00 -0.14352156814E+03  0.14352156814E+03  0.00000000000E+00 0. -1.
          6    1    1    2  501    0 -0.80033369684E+01 -0.43247408951E+02 -0.26535544556E+01  0.17852292047E+03  0.17300000000E+03 0. -1.
         -6    1    1    2    0  502  0.80033369684E+01  0.43247408951E+02  0.97554988192E+02  0.20342164955E+03  0.17300000000E+03 0. -1.
<mgrwt>
<rscale>  2 0.17850320E+03</rscale>
<asrwt>0</asrwt>
<pdfrwt beam="1">  1       21 0.36680462E-01 0.17850320E+03</pdfrwt>
<pdfrwt beam="2">  1       21 0.22080241E-01 0.17850320E+03</pdfrwt>
<totfact> 0.13806803E+05</totfact>
</mgrwt>
</event>
<event>
 4    1  0.4327903E+000  0.3079074E+03  0.7546771E-02  0.1081353E+00
         21   -1    0    0  503  502  0.00000000000E+00  0.00000000000E+00  0.10621877733E+03  0.10621877733E+03  0.00000000000E+00 0.  1.
         21   -1    0    0  501  503 -0.00000000000E+00 -0.00000000000E+00 -0.15351919921E+04  0.15351919921E+04  0.00000000000E+00 0. -1.
          6    1    1    2  501    0 -0.21870214511E+03 -0.13056547319E+03 -0.12454762218E+04  0.12829723263E+04  0.17300000000E+03 0. -1.
         -6    1    1    2    0  502  0.21870214511E+03  0.13056547319E+03 -0.18349699298E+03  0.35843844311E+03  0.17300000000E+03 0.  1.
<mgrwt>
<rscale>  2 0.30790741E+03</rscale>
<asrwt>0</asrwt>
<pdfrwt beam="1">  1       21 0.16341351E-01 0.30790741E+03</pdfrwt>
<pdfrwt beam="2">  1       21 0.23618337E+00 0.30790741E+03</pdfrwt>
<totfact> 0.24393423E+03</totfact>
</mgrwt>
</event>
<event>
 4    1  0.4327903E+000  0.2315446E+03  0.7546771E-02  0.1125557E+00
         21   -1    0    0  503  502  0.00000000000E+00  0.00000000000E+00  0.25057345633E+03  0.25057345633E+03  0.00000000000E+00 0. -1.
         21   -1    0    0  501  503 -0.00000000000E+00 -0.00000000000E+00 -0.23084138397E+03  0.23084138397E+03  0.00000000000E+00 0. -1.
          6    1    1    2  501    0  0.88184353665E+02  0.12612465372E+03 -0.55225690933E+02  0.23803946195E+03  0.17300000000E+03 0. -1.
         -6    1    1    2    0  502 -0.88184353665E+02 -0.12612465372E+03  0.74957763290E+02  0.24337537835E+03  0.17300000000E+03 0. -1.
<mgrwt>
<rscale>  2 0.23154461E+03</rscale>
<asrwt>0</asrwt>
<pdfrwt beam="1">  1       21 0.38549763E-01 0.23154461E+03</pdfrwt>
<pdfrwt beam="2">  1       21 0.35514059E-01 0.23154461E+03</pdfrwt>
<totfact> 0.48716573E+04</totfact>
</mgrwt>
</event>
<event>
 4    1  0.4327903E+000  0.2227337E+03  0.7546771E-02  0.1131861E+00
         21   -1    0    0  503  502  0.00000000000E+00  0.00000000000E+00  0.89125636365E+02  0.89125636365E+02  0.00000000000E+00 0. -1.
         21   -1    0    0  501  503 -0.00000000000E+00 -0.00000000000E+00 -0.98698840045E+03  0.98698840045E+03  0.00000000000E+00 0.  1.
          6    1    1    2  501    0 -0.12959681227E+03 -0.53721287539E+02 -0.80422358575E+03  0.83449738547E+03  0.17300000000E+03 0.  1.
         -6    1    1    2    0  502  0.12959681227E+03  0.53721287539E+02 -0.93639178335E+02  0.24161665134E+03  0.17300000000E+03 0. -1.
<mgrwt>
<rscale>  2 0.22273372E+03</rscale>
<asrwt>0</asrwt>
<pdfrwt beam="1">  1       21 0.13711636E-01 0.22273372E+03</pdfrwt>
<pdfrwt beam="2">  1       21 0.15184437E+00 0.22273372E+03</pdfrwt>
<totfact> 0.13084783E+04</totfact>
</mgrwt>
</event>
<event>
 4    1  0.4327903E+000  0.1809606E+03  0.7546771E-02  0.1166877E+00
         21   -1    0    0  503  502  0.00000000000E+00  0.00000000000E+00  0.22546383577E+02  0.22546383577E+02  0.00000000000E+00 0.  1.
         21   -1    0    0  501  503 -0.00000000000E+00 -0.00000000000E+00 -0.15857306468E+04  0.15857306468E+04  0.00000000000E+00 0.  1.
          6    1    1    2  501    0 -0.10084139266E+02  0.52115615271E+02 -0.10147527301E+04  0.10307617720E+04  0.17300000000E+03 0.  1.
         -6    1    1    2    0  502  0.10084139266E+02 -0.52115615271E+02 -0.54843153312E+03  0.57751525845E+03  0.17300000000E+03 0.  1.
<mgrwt>
<rscale>  2 0.18096057E+03</rscale>
<asrwt>0</asrwt>
<pdfrwt beam="1">  1       21 0.34686754E-02 0.18096057E+03</pdfrwt>
<pdfrwt beam="2">  1       21 0.24395849E+00 0.18096057E+03</pdfrwt>
<totfact> 0.36229111E+04</totfact>
</mgrwt>
</event>
<event>
 4    1  0.4327903E+000  0.1999579E+03  0.7546771E-02  0.1149775E+00
         21   -1    0    0  501  502  0.00000000000E+00  0.00000000000E+00  0.37518875030E+03  0.37518875030E+03  0.00000000000E+00 0. -1.
         21   -1    0    0  502  503 -0.00000000000E+00 -0.00000000000E+00 -0.11598316687E+03  0.11598316687E+03  0.00000000000E+00 0.  1.
          6    1    1    2  501    0  0.86938505890E+02 -0.49958470008E+02  0.19957373663E+03  0.28251164380E+03  0.17300000000E+03 0.  1.
         -6    1    1    2    0  503 -0.86938505890E+02  0.49958470008E+02  0.59631846798E+02  0.20866027337E+03  0.17300000000E+03 0.  1.
<mgrwt>
<rscale>  2 0.19995788E+03</rscale>
<asrwt>0</asrwt>
<pdfrwt beam="1">  1       21 0.57721346E-01 0.19995788E+03</pdfrwt>
<pdfrwt beam="2">  1       21 0.17843564E-01 0.19995788E+03</pdfrwt>
<totfact> 0.80066639E+04</totfact>
</mgrwt>
</event>
<event>
 4    1  0.4327903E+000  0.2825544E+03  0.7546771E-02  0.1094302E+00
         21   -1    0    0  503  502  0.00000000000E+00  0.00000000000E+00  0.16330870151E+02  0.16330870151E+02  0.00000000000E+00 0.  1.
         21   -1    0    0  501  503 -0.00000000000E+00 -0.00000000000E+00 -0.48920805327E+04  0.48920805327E+04  0.00000000000E+00 0.  1.
          6    1    1    2  501    0 -0.11528198697E+03  0.19135841192E+03 -0.23735086676E+04  0.23902678455E+04  0.17300000000E+03 0.  1.
         -6    1    1    2    0  502  0.11528198697E+03 -0.19135841192E+03 -0.25022409950E+04  0.25181435574E+04  0.17300000000E+03 0.  1.
<mgrwt>
<rscale>  2 0.28255438E+03</rscale>
<asrwt>0</asrwt>
<pdfrwt beam="1">  1       21 0.25124450E-02 0.28255438E+03</pdfrwt>
<pdfrwt beam="2">  1       21 0.75262673E+00 0.28255438E+03</pdfrwt>
<totfact> 0.11224541E+01</totfact>
</mgrwt>
</event>
<event>
 4    1  0.4327903E+000  0.2161885E+03  0.7546771E-02  0.1136757E+00
         21   -1    0    0  503  502  0.00000000000E+00  0.00000000000E+00  0.83648633483E+02  0.83648633483E+02  0.00000000000E+00 0. -1.
         21   -1    0    0  501  503 -0.00000000000E+00 -0.00000000000E+00 -0.63678859121E+03  0.63678859121E+03  0.00000000000E+00 0.  1.
          6    1    1    2  501    0 -0.12192440586E+03 -0.44078538240E+02 -0.40268388950E+03  0.45704681723E+03  0.17300000000E+03 0.  1.
         -6    1    1    2    0  502  0.12192440586E+03  0.44078538240E+02 -0.15045606823E+03  0.26339040746E+03  0.17300000000E+03 0. -1.
<mgrwt>
<rscale>  2 0.21618852E+03</rscale>
<asrwt>0</asrwt>
<pdfrwt beam="1">  1       21 0.12869021E-01 0.21618852E+03</pdfrwt>
<pdfrwt beam="2">  1       21 0.97967473E-01 0.21618852E+03</pdfrwt>
<totfact> 0.44073158E+04</totfact>
</mgrwt>
</event>
<event>
 4    1  0.4327903E+000  0.1959748E+03  0.7546771E-02  0.1153180E+00
         21   -1    0    0  503  502  0.00000000000E+00  0.00000000000E+00  0.10835808323E+03  0.10835808323E+03  0.00000000000E+00 0. -1.
         21   -1    0    0  501  503 -0.00000000000E+00 -0.00000000000E+00 -0.46998140135E+03  0.46998140135E+03  0.00000000000E+00 0.  1.
          6    1    1    2  501    0 -0.63213749687E+02  0.66941236706E+02 -0.32419116525E+03  0.37882188288E+03  0.17300000000E+03 0.  1.
         -6    1    1    2    0  502  0.63213749687E+02 -0.66941236706E+02 -0.37432152871E+02  0.19951760170E+03  0.17300000000E+03 0. -1.
<mgrwt>
<rscale>  2 0.19597476E+03</rscale>
<asrwt>0</asrwt>
<pdfrwt beam="1">  1       21 0.16670474E-01 0.19597476E+03</pdfrwt>
<pdfrwt beam="2">  1       21 0.72304831E-01 0.19597476E+03</pdfrwt>
<totfact> 0.55692773E+04</totfact>
</mgrwt>
</event>
<event>
 4    1  0.4327903E+000  0.2004686E+03  0.7546771E-02  0.1149344E+00
         21   -1    0    0  503  502  0.00000000000E+00  0.00000000000E+00  0.14868382914E+03  0.14868382914E+03  0.00000000000E+00 0. -1.
         21   -1    0    0  501  503 -0.00000000000E+00 -0.00000000000E+00 -0.72338635380E+03  0.72338635380E+03  0.00000000000E+00 0. -1.
          6    1    1    2  501    0 -0.96402100193E+02  0.31069473334E+02 -0.63244081521E+03  0.66345238099E+03  0.17300000000E+03 0. -1.
         -6    1    1    2    0  502  0.96402100193E+02 -0.31069473334E+02  0.57738290551E+02  0.20861780195E+03  0.17300000000E+03 0. -1.
<mgrwt>
<rscale>  2 0.20046864E+03</rscale>
<asrwt>0</asrwt>
<pdfrwt beam="1">  1       21 0.22874436E-01 0.20046864E+03</pdfrwt>
<pdfrwt beam="2">  1       21 0.11129021E+00 0.20046864E+03</pdfrwt>
<totfact> 0.11323935E+04</totfact>
</mgrwt>
</event>
<event>
 4    1  0.4327903E+000  0.1851491E+03  0.7546771E-02  0.1162911E+00
         21   -1    0    0  501  502  0.00000000000E+00  0.00000000000E+00  0.42015795324E+03  0.42015795324E+03  0.00000000000E+00 0.  1.
         21   -1    0    0  502  503 -0.00000000000E+00 -0.00000000000E+00 -0.95483479485E+02  0.95483479485E+02  0.00000000000E+00 0.  1.
          6    1    1    2  501    0  0.65695420395E+02  0.59408815282E+01  0.26068805838E+03  0.31974747242E+03  0.17300000000E+03 0.  1.
         -6    1    1    2    0  503 -0.65695420395E+02 -0.59408815282E+01  0.63986415378E+02  0.19589396031E+03  0.17300000000E+03 0.  1.
<mgrwt>
<rscale>  2 0.18514908E+03</rscale>
<asrwt>0</asrwt>
<pdfrwt beam="1">  1       21 0.64639684E-01 0.18514908E+03</pdfrwt>
<pdfrwt beam="2">  1       21 0.14689766E-01 0.18514908E+03</pdfrwt>
<totfact> 0.90159655E+04</totfact>
</mgrwt>
</event>
<event>
 4    1  0.4327903E+000  0.1917899E+03  0.7546771E-02  0.1156857E+00
         21   -1    0    0  501  502  0.00000000000E+00  0.00000000000E+00  0.11060338920E+03  0.11060338920E+03  0.00000000000E+00 0.  1.
         21   -1    0    0  502  503 -0.00000000000E+00 -0.00000000000E+00 -0.13333516558E+04  0.13333516558E+04  0.00000000000E+00 0.  1.
          6    1    1    2  501    0  0.79493841055E+02 -0.23131951527E+02  0.14116793855E+02  0.19230871487E+03  0.17300000000E+03 0.  1.
         -6    1    1    2    0  503 -0.79493841055E+02  0.23131951527E+02 -0.12368650604E+04  0.12516463301E+04  0.17300000000E+03 0.  1.
<mgrwt>
<rscale>  2 0.19178988E+03</rscale>
<asrwt>0</asrwt>
<pdfrwt beam="1">  1       21 0.17015906E-01 0.19178988E+03</pdfrwt>
<pdfrwt beam="2">  1       21 0.20513102E+00 0.19178988E+03</pdfrwt>
<totfact> 0.38815308E+03</totfact>
</mgrwt>
</event>
<event>
 4    1  0.4327903E+000  0.1777717E+03  0.7546771E-02  0.1169977E+00
         21   -1    0    0  501  502  0.00000000000E+00  0.00000000000E+00  0.27690004363E+04  0.27690004363E+04  0.00000000000E+00 0. -1.
         21   -1    0    0  502  503 -0.00000000000E+00 -0.00000000000E+00 -0.14825612375E+02  0.14825612375E+02  0.00000000000E+00 0. -1.
          6    1    1    2  501    0 -0.20996797276E+02  0.35112633892E+02  0.20448861112E+04  0.20525988332E+04  0.17300000000E+03 0. -1.
         -6    1    1    2    0  503  0.20996797276E+02 -0.35112633892E+02  0.70928871277E+03  0.73122721545E+03  0.17300000000E+03 0. -1.
<mgrwt>
<rscale>  2 0.17777166E+03</rscale>
<asrwt>0</asrwt>
<pdfrwt beam="1">  1       21 0.42599965E+00 0.17777166E+03</pdfrwt>
<pdfrwt beam="2">  1       21 0.22808657E-02 0.17777166E+03</pdfrwt>
<totfact> 0.60561066E+03</totfact>
</mgrwt>
</event>
<event>
 4    1  0.4327903E+000  0.4053523E+03  0.7546771E-02  0.1041942E+00
         21   -1    0    0  503  502  0.00000000000E+00  0.00000000000E+00  0.40629848116E+03  0.40629848116E+03  0.00000000000E+00 0.  1.
         21   -1    0    0  501  503 -0.00000000000E+00 -0.00000000000E+00 -0.47930351249E+03  0.47930351249E+03  0.00000000000E+00 0. -1.
          6    1    1    2  501    0 -0.36401564232E+03 -0.43290520121E+02 -0.21153975823E+03  0.45723027710E+03  0.17300000000E+03 0. -1.
         -6    1    1    2    0  502  0.36401564232E+03  0.43290520121E+02  0.13853472690E+03  0.42837171656E+03  0.17300000000E+03 0.  1.
<mgrwt>
<rscale>  2 0.40535226E+03</rscale>
<asrwt>0</asrwt>
<pdfrwt beam="1">  1       21 0.62507459E-01 0.40535226E+03</pdfrwt>
<pdfrwt beam="2">  1       21 0.73739002E-01 0.40535226E+03</pdfrwt>
<totfact> 0.34769054E+03</totfact>
</mgrwt>
</event>
<event>
 4    1  0.4327903E+000  0.2081698E+03  0.7546771E-02  0.1143024E+00
         21   -1    0    0  501  502  0.00000000000E+00  0.00000000000E+00  0.82617782897E+03  0.82617782897E+03  0.00000000000E+00 0. -1.
         21   -1    0    0  502  503 -0.00000000000E+00 -0.00000000000E+00 -0.14233246555E+03  0.14233246555E+03  0.00000000000E+00 0. -1.
          6    1    1    2  501    0  0.51794986248E+02  0.10355165445E+03  0.72674030787E+03  0.75596702363E+03  0.17300000000E+03 0. -1.
         -6    1    1    2    0  503 -0.51794986248E+02 -0.10355165445E+03 -0.42894944447E+02  0.21254327088E+03  0.17300000000E+03 0. -1.
<mgrwt>
<rscale>  2 0.20816980E+03</rscale>
<asrwt>0</asrwt>
<pdfrwt beam="1">  1       21 0.12710428E+00 0.20816980E+03</pdfrwt>
<pdfrwt beam="2">  1       21 0.21897303E-01 0.20816980E+03</pdfrwt>
<totfact> 0.88075902E+03</totfact>
</mgrwt>
</event>
<event>
 4    1  0.4327903E+000  0.1901695E+03  0.7546771E-02  0.1158309E+00
         21   -1    0    0  501  502  0.00000000000E+00  0.00000000000E+00  0.14554806493E+04  0.14554806493E+04  0.00000000000E+00 0.  1.
         21   -1    0    0  502  503 -0.00000000000E+00 -0.00000000000E+00 -0.37860132800E+02  0.37860132800E+02  0.00000000000E+00 0.  1.
          6    1    1    2  501    0 -0.78213879524E+02  0.10863915814E+02  0.11465616716E+04  0.11622254955E+04  0.17300000000E+03 0.  1.
         -6    1    1    2    0  503  0.78213879524E+02 -0.10863915814E+02  0.27105884488E+03  0.33111528658E+03  0.17300000000E+03 0.  1.
<mgrwt>
<rscale>  2 0.19016949E+03</rscale>
<asrwt>0</asrwt>
<pdfrwt beam="1">  1       21 0.22392006E+00 0.19016949E+03</pdfrwt>
<pdfrwt beam="2">  1       21 0.58246369E-02 0.19016949E+03</pdfrwt>
<totfact> 0.19787700E+04</totfact>
</mgrwt>
</event>
<event>
 4    1  0.4327903E+000  0.1835800E+03  0.7546771E-02  0.1164383E+00
         21   -1    0    0  503  502  0.00000000000E+00  0.00000000000E+00  0.45123762080E+03  0.45123762080E+03  0.00000000000E+00 0.  1.
         21   -1    0    0  501  503 -0.00000000000E+00 -0.00000000000E+00 -0.12809643063E+03  0.12809643063E+03  0.00000000000E+00 0.  1.
          6    1    1    2  501    0 -0.49974659847E+01 -0.61218042752E+02 -0.25471417286E+02  0.18533865361E+03  0.17300000000E+03 0.  1.
         -6    1    1    2    0  502  0.49974659847E+01  0.61218042752E+02  0.34861260745E+03  0.39399539781E+03  0.17300000000E+03 0.  1.
<mgrwt>
<rscale>  2 0.18358002E+03</rscale>
<asrwt>0</asrwt>
<pdfrwt beam="1">  1       21 0.69421172E-01 0.18358002E+03</pdfrwt>
<pdfrwt beam="2">  1       21 0.19707143E-01 0.18358002E+03</pdfrwt>
<totfact> 0.44975959E+04</totfact>
</mgrwt>
</event>
<event>
 4    1  0.4327903E+000  0.1803966E+03  0.7546771E-02  0.1167420E+00
         21   -1    0    0  503  502  0.00000000000E+00  0.00000000000E+00  0.13942287503E+03  0.13942287503E+03  0.00000000000E+00 0. -1.
         21   -1    0    0  501  503 -0.00000000000E+00 -0.00000000000E+00 -0.23475404614E+03  0.23475404614E+03  0.00000000000E+00 0. -1.
          6    1    1    2  501    0  0.51119274408E+02 -0.86406262274E+00 -0.61812988784E+02  0.19069287455E+03  0.17300000000E+03 0. -1.
         -6    1    1    2    0  502 -0.51119274408E+02  0.86406262274E+00 -0.33518182329E+02  0.18348404663E+03  0.17300000000E+03 0. -1.
<mgrwt>
<rscale>  2 0.18039658E+03</rscale>
<asrwt>0</asrwt>
<pdfrwt beam="1">  1       21 0.21449673E-01 0.18039658E+03</pdfrwt>
<pdfrwt beam="2">  1       21 0.36116007E-01 0.18039658E+03</pdfrwt>
<totfact> 0.15027245E+05</totfact>
</mgrwt>
</event>
<event>
 4    1  0.4327903E+000  0.1989542E+03  0.7546771E-02  0.1150624E+00
         21   -1    0    0  501  502  0.00000000000E+00  0.00000000000E+00  0.12391981049E+03  0.12391981049E+03  0.00000000000E+00 0. -1.
         21   -1    0    0  502  503 -0.00000000000E+00 -0.00000000000E+00 -0.40880233094E+03  0.40880233094E+03  0.00000000000E+00 0.  1.
          6    1    1    2  501    0 -0.66014034349E+02 -0.72772943389E+02 -0.17893976854E+02  0.19975722372E+03  0.17300000000E+03 0. -1.
         -6    1    1    2    0  503  0.66014034349E+02  0.72772943389E+02 -0.26698854359E+03  0.33296491772E+03  0.17300000000E+03 0.  1.
<mgrwt>
<rscale>  2 0.19895415E+03</rscale>
<asrwt>0</asrwt>
<pdfrwt beam="1">  1       21 0.19064586E-01 0.19895415E+03</pdfrwt>
<pdfrwt beam="2">  1       21 0.62892666E-01 0.19895415E+03</pdfrwt>
<totfact> 0.58910489E+04</totfact>
</mgrwt>
</event>
<event>
 4    1  0.4327903E+000  0.1758733E+03  0.7546771E-02  0.1171858E+00
         21   -1    0    0  503  502  0.00000000000E+00  0.00000000000E+00  0.85329660518E+03  0.85329660518E+03  0.00000000000E+00 0.  1.
         21   -1    0    0  501  503 -0.00000000000E+00 -0.00000000000E+00 -0.97366868615E+02  0.97366868615E+02  0.00000000000E+00 0.  1.
          6    1    1    2  501    0  0.52062042410E+01 -0.31229728827E+02  0.13701175848E+01  0.17587858809E+03  0.17300000000E+03 0.  1.
         -6    1    1    2    0  502 -0.52062042410E+01  0.31229728827E+02  0.75455961898E+03  0.77478488571E+03  0.17300000000E+03 0.  1.
<mgrwt>
<rscale>  2 0.17587325E+03</rscale>
<asrwt>0</asrwt>
<pdfrwt beam="1">  1       21 0.13127640E+00 0.17587325E+03</pdfrwt>
<pdfrwt beam="2">  1       21 0.14979519E-01 0.17587325E+03</pdfrwt>
<totfact> 0.16774860E+04</totfact>
</mgrwt>
</event>
<event>
 4    1  0.4327903E+000  0.2717620E+03  0.7546771E-02  0.1100275E+00
         21   -1    0    0  503  502  0.00000000000E+00  0.00000000000E+00  0.10797983946E+03  0.10797983946E+03  0.00000000000E+00 0.  1.
         21   -1    0    0  501  503 -0.00000000000E+00 -0.00000000000E+00 -0.21715956426E+04  0.21715956426E+04  0.00000000000E+00 0. -1.
          6    1    1    2  501    0  0.20655146402E+03  0.35525935611E+02 -0.19751774012E+04  0.19937854362E+04  0.17300000000E+03 0. -1.
         -6    1    1    2    0  502 -0.20655146402E+03 -0.35525935611E+02 -0.88438401972E+02  0.28579004589E+03  0.17300000000E+03 0.  1.
<mgrwt>
<rscale>  2 0.27176203E+03</rscale>
<asrwt>0</asrwt>
<pdfrwt beam="1">  1       21 0.16612282E-01 0.27176203E+03</pdfrwt>
<pdfrwt beam="2">  1       21 0.33409165E+00 0.27176203E+03</pdfrwt>
<totfact> 0.63972152E+02</totfact>
</mgrwt>
</event>
<event>
 4    1  0.4327903E+000  0.2066438E+03  0.7546771E-02  0.1144252E+00
         21   -1    0    0  501  502  0.00000000000E+00  0.00000000000E+00  0.44339482302E+03  0.44339482302E+03  0.00000000000E+00 0.  1.
         21   -1    0    0  502  503 -0.00000000000E+00 -0.00000000000E+00 -0.84094639929E+03  0.84094639929E+03  0.00000000000E+00 0.  1.
          6    1    1    2  501    0  0.11253759661E+03  0.10390226922E+02  0.40550600532E+03  0.45512282718E+03  0.17300000000E+03 0.  1.
         -6    1    1    2    0  503 -0.11253759661E+03 -0.10390226922E+02 -0.80305758160E+03  0.82921839513E+03  0.17300000000E+03 0.  1.
<mgrwt>
<rscale>  2 0.20664382E+03</rscale>
<asrwt>0</asrwt>
<pdfrwt beam="1">  1       21 0.68214588E-01 0.20664382E+03</pdfrwt>
<pdfrwt beam="2">  1       21 0.12937637E+00 0.20664382E+03</pdfrwt>
<totfact> 0.84583642E+02</totfact>
</mgrwt>
</event>
<event>
 4    1  0.4327903E+000  0.2220763E+03  0.7546771E-02  0.1132345E+00
         21   -1    0    0  503  502  0.00000000000E+00  0.00000000000E+00  0.32276808061E+03  0.32276808061E+03  0.00000000000E+00 0.  1.
         21   -1    0    0  501  503 -0.00000000000E+00 -0.00000000000E+00 -0.25133432268E+03  0.25133432268E+03  0.00000000000E+00 0.  1.
          6    1    1    2  501    0 -0.13882820577E+03  0.10751793280E+02 -0.14401896084E+03  0.26468723592E+03  0.17300000000E+03 0.  1.
         -6    1    1    2    0  502  0.13882820577E+03 -0.10751793280E+02  0.21545271877E+03  0.30941516737E+03  0.17300000000E+03 0.  1.
<mgrwt>
<rscale>  2 0.22207627E+03</rscale>
<asrwt>0</asrwt>
<pdfrwt beam="1">  1       21 0.49656628E-01 0.22207627E+03</pdfrwt>
<pdfrwt beam="2">  1       21 0.38666819E-01 0.22207627E+03</pdfrwt>
<totfact> 0.24526093E+04</totfact>
</mgrwt>
</event>
<event>
 4    1  0.4327903E+000  0.2430395E+03  0.7546771E-02  0.1117784E+00
         21   -1    0    0  501  502  0.00000000000E+00  0.00000000000E+00  0.21679304924E+03  0.21679304924E+03  0.00000000000E+00 0. -1.
         21   -1    0    0  502  503 -0.00000000000E+00 -0.00000000000E+00 -0.33373138909E+03  0.33373138909E+03  0.00000000000E+00 0. -1.
          6    1    1    2  501    0  0.60538419531E+02  0.15960675121E+03  0.59471658226E+02  0.25021009853E+03  0.17300000000E+03 0. -1.
         -6    1    1    2    0  503 -0.60538419531E+02 -0.15960675121E+03 -0.17640999807E+03  0.30031433980E+03  0.17300000000E+03 0. -1.
<mgrwt>
<rscale>  2 0.24303953E+03</rscale>
<asrwt>0</asrwt>
<pdfrwt beam="1">  1       21 0.33352777E-01 0.24303953E+03</pdfrwt>
<pdfrwt beam="2">  1       21 0.51343290E-01 0.24303953E+03</pdfrwt>
<totfact> 0.30423222E+04</totfact>
</mgrwt>
</event>
<event>
 4    1  0.4327903E+000  0.2259921E+03  0.7546771E-02  0.1129493E+00
         21   -1    0    0  501  502  0.00000000000E+00  0.00000000000E+00  0.73578353101E+03  0.73578353101E+03  0.00000000000E+00 0.  1.
         21   -1    0    0  502  503 -0.00000000000E+00 -0.00000000000E+00 -0.14305681826E+03  0.14305681826E+03  0.00000000000E+00 0.  1.
          6    1    1    2  501    0  0.35371527283E+02  0.14104005729E+03  0.61164295006E+03  0.65205792769E+03  0.17300000000E+03 0.  1.
         -6    1    1    2    0  503 -0.35371527283E+02 -0.14104005729E+03 -0.18916237309E+02  0.22678242158E+03  0.17300000000E+03 0.  1.
<mgrwt>
<rscale>  2 0.22599213E+03</rscale>
<asrwt>0</asrwt>
<pdfrwt beam="1">  1       21 0.11319746E+00 0.22599213E+03</pdfrwt>
<pdfrwt beam="2">  1       21 0.22008742E-01 0.22599213E+03</pdfrwt>
<totfact> 0.11492859E+04</totfact>
</mgrwt>
</event>
<event>
 4    1  0.4327903E+000  0.1784962E+03  0.7546771E-02  0.1169266E+00
         21   -1    0    0  501  502  0.00000000000E+00  0.00000000000E+00  0.31724956157E+03  0.31724956157E+03  0.00000000000E+00 0.  1.
         21   -1    0    0  502  503 -0.00000000000E+00 -0.00000000000E+00 -0.14059866044E+03  0.14059866044E+03  0.00000000000E+00 0.  1.
          6    1    1    2  501    0 -0.19996076042E+02  0.39141373872E+02  0.21068922194E+03  0.27613554362E+03  0.17300000000E+03 0.  1.
         -6    1    1    2    0  503  0.19996076042E+02 -0.39141373872E+02 -0.34038320819E+02  0.18171267840E+03  0.17300000000E+03 0.  1.
<mgrwt>
<rscale>  2 0.17849619E+03</rscale>
<asrwt>0</asrwt>
<pdfrwt beam="1">  1       21 0.48807625E-01 0.17849619E+03</pdfrwt>
<pdfrwt beam="2">  1       21 0.21630563E-01 0.17849619E+03</pdfrwt>
<totfact> 0.80312628E+04</totfact>
</mgrwt>
</event>
<event>
 4    1  0.4327903E+000  0.1902117E+03  0.7546771E-02  0.1158271E+00
         21   -1    0    0  501  502  0.00000000000E+00  0.00000000000E+00  0.11953418047E+04  0.11953418047E+04  0.00000000000E+00 0.  1.
         21   -1    0    0  502  503 -0.00000000000E+00 -0.00000000000E+00 -0.34369622124E+02  0.34369622124E+02  0.00000000000E+00 0.  1.
          6    1    1    2  501    0  0.25621079666E+02  0.74799960461E+02  0.79289342193E+03  0.81538975487E+03  0.17300000000E+03 0.  1.
         -6    1    1    2    0  503 -0.25621079666E+02 -0.74799960461E+02  0.36807876061E+03  0.41432167192E+03  0.17300000000E+03 0.  1.
<mgrwt>
<rscale>  2 0.19021166E+03</rscale>
<asrwt>0</asrwt>
<pdfrwt beam="1">  1       21 0.18389871E+00 0.19021166E+03</pdfrwt>
<pdfrwt beam="2">  1       21 0.52876351E-02 0.19021166E+03</pdfrwt>
<totfact> 0.41955996E+04</totfact>
</mgrwt>
</event>
<event>
 4    1  0.4327903E+000  0.1954904E+03  0.7546771E-02  0.1153601E+00
         21   -1    0    0  503  502  0.00000000000E+00  0.00000000000E+00  0.15163914630E+04  0.15163914630E+04  0.00000000000E+00 0.  1.
         21   -1    0    0  501  503 -0.00000000000E+00 -0.00000000000E+00 -0.19465721822E+03  0.19465721822E+03  0.00000000000E+00 0.  1.
          6    1    1    2  501    0 -0.38254701083E+02 -0.82607850339E+02 -0.13735592844E+03  0.23892076128E+03  0.17300000000E+03 0.  1.
         -6    1    1    2    0  502  0.38254701083E+02  0.82607850339E+02  0.14590901733E+04  0.14721279200E+04  0.17300000000E+03 0.  1.
<mgrwt>
<rscale>  2 0.19549036E+03</rscale>
<asrwt>0</asrwt>
<pdfrwt beam="1">  1       21 0.23329099E+00 0.19549036E+03</pdfrwt>
<pdfrwt beam="2">  1       21 0.29947265E-01 0.19549036E+03</pdfrwt>
<totfact> 0.89038053E+02</totfact>
</mgrwt>
</event>
<event>
 4    1  0.4327903E+000  0.1853830E+03  0.7546771E-02  0.1162693E+00
         21   -1    0    0  501  502  0.00000000000E+00  0.00000000000E+00  0.62704131164E+03  0.62704131164E+03  0.00000000000E+00 0.  1.
         21   -1    0    0  502  503 -0.00000000000E+00 -0.00000000000E+00 -0.56970231248E+02  0.56970231248E+02  0.00000000000E+00 0.  1.
          6    1    1    2  501    0 -0.66412675534E+02 -0.52157178141E+01  0.35166492488E+03  0.39753624561E+03  0.17300000000E+03 0.  1.
         -6    1    1    2    0  503  0.66412675534E+02  0.52157178141E+01  0.21840615551E+03  0.28647529728E+03  0.17300000000E+03 0.  1.
<mgrwt>
<rscale>  2 0.18538297E+03</rscale>
<asrwt>0</asrwt>
<pdfrwt beam="1">  1       21 0.96467889E-01 0.18538297E+03</pdfrwt>
<pdfrwt beam="2">  1       21 0.87646514E-02 0.18538297E+03</pdfrwt>
<totfact> 0.91718442E+04</totfact>
</mgrwt>
</event>
<event>
 4    1  0.4327903E+000  0.1982639E+03  0.7546771E-02  0.1151212E+00
         21   -1    0    0  501  502  0.00000000000E+00  0.00000000000E+00  0.55745896287E+02  0.55745896287E+02  0.00000000000E+00 0.  1.
         21   -1    0    0  502  503 -0.00000000000E+00 -0.00000000000E+00 -0.10806807465E+04  0.10806807465E+04  0.00000000000E+00 0. -1.
          6    1    1    2  501    0 -0.95507711569E+02 -0.16058249680E+02 -0.17750817716E+03  0.26611603355E+03  0.17300000000E+03 0.  1.
         -6    1    1    2    0  503  0.95507711569E+02  0.16058249680E+02 -0.84742667304E+03  0.87031060923E+03  0.17300000000E+03 0. -1.
<mgrwt>
<rscale>  2 0.19826394E+03</rscale>
<asrwt>0</asrwt>
<pdfrwt beam="1">  1       21 0.85762922E-02 0.19826394E+03</pdfrwt>
<pdfrwt beam="2">  1       21 0.16625857E+00 0.19826394E+03</pdfrwt>
<totfact> 0.24014952E+04</totfact>
</mgrwt>
</event>
<event>
 4    1  0.4327903E+000  0.1848170E+03  0.7546771E-02  0.1163221E+00
         21   -1    0    0  503  502  0.00000000000E+00  0.00000000000E+00  0.24689565176E+03  0.24689565176E+03  0.00000000000E+00 0.  1.
         21   -1    0    0  501  503 -0.00000000000E+00 -0.00000000000E+00 -0.16069014622E+03  0.16069014622E+03  0.00000000000E+00 0.  1.
          6    1    1    2  501    0 -0.63617083048E+02  0.13460439092E+02 -0.32888719459E+02  0.18772049580E+03  0.17300000000E+03 0.  1.
         -6    1    1    2    0  502  0.63617083048E+02 -0.13460439092E+02  0.11909422499E+03  0.21986530218E+03  0.17300000000E+03 0.  1.
<mgrwt>
<rscale>  2 0.18481698E+03</rscale>
<asrwt>0</asrwt>
<pdfrwt beam="1">  1       21 0.37983947E-01 0.18481698E+03</pdfrwt>
<pdfrwt beam="2">  1       21 0.24721561E-01 0.18481698E+03</pdfrwt>
<totfact> 0.10373142E+05</totfact>
</mgrwt>
</event>
<event>
 4    1  0.4327903E+000  0.2255114E+03  0.7546771E-02  0.1129840E+00
         21   -1    0    0  503  502  0.00000000000E+00  0.00000000000E+00  0.15565049689E+03  0.15565049689E+03  0.00000000000E+00 0.  1.
         21   -1    0    0  501  503 -0.00000000000E+00 -0.00000000000E+00 -0.35449775087E+03  0.35449775087E+03  0.00000000000E+00 0.  1.
          6    1    1    2  501    0  0.14401454602E+03 -0.13645513182E+02 -0.17081487148E+03  0.28290123685E+03  0.17300000000E+03 0.  1.
         -6    1    1    2    0  502 -0.14401454602E+03  0.13645513182E+02 -0.28032382507E+02  0.22724701090E+03  0.17300000000E+03 0.  1.
<mgrwt>
<rscale>  2 0.22551140E+03</rscale>
<asrwt>0</asrwt>
<pdfrwt beam="1">  1       21 0.23946230E-01 0.22551140E+03</pdfrwt>
<pdfrwt beam="2">  1       21 0.54538116E-01 0.22551140E+03</pdfrwt>
<totfact> 0.51412481E+04</totfact>
</mgrwt>
</event>
<event>
 4    1  0.4327903E+000  0.2454855E+03  0.7546771E-02  0.1116192E+00
         21   -1    0    0  501  502  0.00000000000E+00  0.00000000000E+00  0.78697543190E+03  0.78697543190E+03  0.00000000000E+00 0. -1.
         21   -1    0    0  502  503 -0.00000000000E+00 -0.00000000000E+00 -0.61580114912E+03  0.61580114912E+03  0.00000000000E+00 0. -1.
          6    1    1    2  501    0  0.17336267399E+03 -0.16717994266E+02  0.74191901931E+03  0.78147740804E+03  0.17300000000E+03 0. -1.
         -6    1    1    2    0  503 -0.17336267399E+03  0.16717994266E+02 -0.57074473653E+03  0.62129917298E+03  0.17300000000E+03 0. -1.
<mgrwt>
<rscale>  2 0.24548545E+03</rscale>
<asrwt>0</asrwt>
<pdfrwt beam="1">  1       21 0.12107314E+00 0.24548545E+03</pdfrwt>
<pdfrwt beam="2">  1       21 0.94738638E-01 0.24548545E+03</pdfrwt>
<totfact> 0.45644889E+02</totfact>
</mgrwt>
</event>
<event>
 4    1  0.4327903E+000  0.2281937E+03  0.7546771E-02  0.1127918E+00
         21   -1    0    0  503  502  0.00000000000E+00  0.00000000000E+00  0.95194987646E+03  0.95194987646E+03  0.00000000000E+00 0. -1.
         21   -1    0    0  501  503 -0.00000000000E+00 -0.00000000000E+00 -0.58673253191E+02  0.58673253191E+02  0.00000000000E+00 0.  1.
          6    1    1    2  501    0 -0.98760227179E+02 -0.11130937950E+03  0.31515459961E+03  0.38909482404E+03  0.17300000000E+03 0.  1.
         -6    1    1    2    0  502  0.98760227179E+02  0.11130937950E+03  0.57812202365E+03  0.62152830560E+03  0.17300000000E+03 0. -1.
<mgrwt>
<rscale>  2 0.22819369E+03</rscale>
<asrwt>0</asrwt>
<pdfrwt beam="1">  1       21 0.14645382E+00 0.22819369E+03</pdfrwt>
<pdfrwt beam="2">  1       21 0.90266550E-02 0.22819369E+03</pdfrwt>
<totfact> 0.30283361E+04</totfact>
</mgrwt>
</event>
<event>
 4    1  0.4327903E+000  0.1944916E+03  0.7546771E-02  0.1154471E+00
         21   -1    0    0  503  502  0.00000000000E+00  0.00000000000E+00  0.27349246659E+02  0.27349246659E+02  0.00000000000E+00 0. -1.
         21   -1    0    0  501  503 -0.00000000000E+00 -0.00000000000E+00 -0.13847971721E+04  0.13847971721E+04  0.00000000000E+00 0. -1.
          6    1    1    2  501    0  0.88275839034E+02  0.10263894216E+02 -0.65406645091E+03  0.68237078886E+03  0.17300000000E+03 0. -1.
         -6    1    1    2    0  502 -0.88275839034E+02 -0.10263894216E+02 -0.70338147452E+03  0.72977562989E+03  0.17300000000E+03 0. -1.
<mgrwt>
<rscale>  2 0.19449157E+03</rscale>
<asrwt>0</asrwt>
<pdfrwt beam="1">  1       21 0.42075775E-02 0.19449157E+03</pdfrwt>
<pdfrwt beam="2">  1       21 0.21304566E+00 0.19449157E+03</pdfrwt>
<totfact> 0.39926510E+04</totfact>
</mgrwt>
</event>
<event>
 4    1  0.4327903E+000  0.1741961E+03  0.7546771E-02  0.1173541E+00
         21   -1    0    0  501  502  0.00000000000E+00  0.00000000000E+00  0.50525306102E+02  0.50525306102E+02  0.00000000000E+00 0.  1.
         21   -1    0    0  502  503 -0.00000000000E+00 -0.00000000000E+00 -0.63760139719E+03  0.63760139719E+03  0.00000000000E+00 0.  1.
          6    1    1    2  501    0 -0.12453817916E+02  0.16130658670E+02 -0.21062697041E+03  0.27332767221E+03  0.17300000000E+03 0.  1.
         -6    1    1    2    0  503  0.12453817916E+02 -0.16130658670E+02 -0.37644912067E+03  0.41479903108E+03  0.17300000000E+03 0.  1.
<mgrwt>
<rscale>  2 0.17419614E+03</rscale>
<asrwt>0</asrwt>
<pdfrwt beam="1">  1       21 0.77731242E-02 0.17419614E+03</pdfrwt>
<pdfrwt beam="2">  1       21 0.98092521E-01 0.17419614E+03</pdfrwt>
<totfact> 0.10920388E+05</totfact>
</mgrwt>
</event>
<event>
 4    1  0.4327903E+000  0.2000993E+03  0.7546771E-02  0.1149655E+00
         21   -1    0    0  503  502  0.00000000000E+00  0.00000000000E+00  0.30660995386E+03  0.30660995386E+03  0.00000000000E+00 0. -1.
         21   -1    0    0  501  503 -0.00000000000E+00 -0.00000000000E+00 -0.13789645526E+03  0.13789645526E+03  0.00000000000E+00 0.  1.
          6    1    1    2  501    0 -0.54373221315E+02 -0.84582908572E+02  0.33191959104E+02  0.20283348286E+03  0.17300000000E+03 0.  1.
         -6    1    1    2    0  502  0.54373221315E+02  0.84582908572E+02  0.13552153950E+03  0.24167292626E+03  0.17300000000E+03 0. -1.
<mgrwt>
<rscale>  2 0.20009926E+03</rscale>
<asrwt>0</asrwt>
<pdfrwt beam="1">  1       21 0.47170762E-01 0.20009926E+03</pdfrwt>
<pdfrwt beam="2">  1       21 0.21214839E-01 0.20009926E+03</pdfrwt>
<totfact> 0.88606492E+04</totfact>
</mgrwt>
</event>
<event>
 4    1  0.4327903E+000  0.1939078E+03  0.7546771E-02  0.1154983E+00
         21   -1    0    0  501  502  0.00000000000E+00  0.00000000000E+00  0.29843301207E+03  0.29843301207E+03  0.00000000000E+00 0. -1.
         21   -1    0    0  502  503 -0.00000000000E+00 -0.00000000000E+00 -0.12743963830E+03  0.12743963830E+03  0.00000000000E+00 0. -1.
          6    1    1    2  501    0 -0.81477595438E+02 -0.32134518860E+02  0.62803239365E+02  0.20382461268E+03  0.17300000000E+03 0.  1.
         -6    1    1    2    0  503  0.81477595438E+02  0.32134518860E+02  0.10819013441E+03  0.22204803769E+03  0.17300000000E+03 0.  1.
<mgrwt>
<rscale>  2 0.19390778E+03</rscale>
<asrwt>0</asrwt>
<pdfrwt beam="1">  1       21 0.45912771E-01 0.19390778E+03</pdfrwt>
<pdfrwt beam="2">  1       21 0.19606098E-01 0.19390778E+03</pdfrwt>
<totfact> 0.10888033E+05</totfact>
</mgrwt>
</event>
<event>
 4    1  0.4327903E+000  0.1853687E+03  0.7546771E-02  0.1162706E+00
         21   -1    0    0  501  502  0.00000000000E+00  0.00000000000E+00  0.10308389801E+04  0.10308389801E+04  0.00000000000E+00 0. -1.
         21   -1    0    0  502  503 -0.00000000000E+00 -0.00000000000E+00 -0.11671098251E+03  0.11671098251E+03  0.00000000000E+00 0. -1.
          6    1    1    2  501    0 -0.23459161048E+02  0.62307624374E+02  0.94202842005E+03  0.96009328530E+03  0.17300000000E+03 0. -1.
         -6    1    1    2    0  503  0.23459161048E+02 -0.62307624374E+02 -0.27900422473E+02  0.18745667731E+03  0.17300000000E+03 0. -1.
<mgrwt>
<rscale>  2 0.18536875E+03</rscale>
<asrwt>0</asrwt>
<pdfrwt beam="1">  1       21 0.15859061E+00 0.18536875E+03</pdfrwt>
<pdfrwt beam="2">  1       21 0.17955536E-01 0.18536875E+03</pdfrwt>
<totfact> 0.73133656E+03</totfact>
</mgrwt>
</event>
<event>
 4    1  0.4327903E+000  0.1730503E+03  0.7546771E-02  0.1174704E+00
         21   -1    0    0  503  502  0.00000000000E+00  0.00000000000E+00  0.76025050386E+02  0.76025050386E+02  0.00000000000E+00 0.  1.
         21   -1    0    0  501  503 -0.00000000000E+00 -0.00000000000E+00 -0.39777653793E+03  0.39777653793E+03  0.00000000000E+00 0.  1.
          6    1    1    2  501    0 -0.36553332916E+01 -0.20093594656E+01 -0.18425722060E+03  0.25277880119E+03  0.17300000000E+03 0.  1.
         -6    1    1    2    0  502  0.36553332916E+01  0.20093594656E+01 -0.13749426695E+03  0.22102278713E+03  0.17300000000E+03 0.  1.
<mgrwt>
<rscale>  2 0.17305028E+03</rscale>
<asrwt>0</asrwt>
<pdfrwt beam="1">  1       21 0.11696161E-01 0.17305028E+03</pdfrwt>
<pdfrwt beam="2">  1       21 0.61196392E-01 0.17305028E+03</pdfrwt>
<totfact> 0.15356751E+05</totfact>
</mgrwt>
</event>
<event>
 4    1  0.4327903E+000  0.1762118E+03  0.7546771E-02  0.1171520E+00
         21   -1    0    0  503  502  0.00000000000E+00  0.00000000000E+00  0.31270640886E+03  0.31270640886E+03  0.00000000000E+00 0.  1.
         21   -1    0    0  501  503 -0.00000000000E+00 -0.00000000000E+00 -0.16367911207E+03  0.16367911207E+03  0.00000000000E+00 0.  1.
          6    1    1    2  501    0 -0.88016807483E+00  0.33478647484E+02 -0.74874740185E+02  0.19145971182E+03  0.17300000000E+03 0.  1.
         -6    1    1    2    0  502  0.88016807483E+00 -0.33478647484E+02  0.22390203698E+03  0.28492580911E+03  0.17300000000E+03 0.  1.
<mgrwt>
<rscale>  2 0.17621179E+03</rscale>
<asrwt>0</asrwt>
<pdfrwt beam="1">  1       21 0.48108678E-01 0.17621179E+03</pdfrwt>
<pdfrwt beam="2">  1       21 0.25181402E-01 0.17621179E+03</pdfrwt>
<totfact> 0.62129018E+04</totfact>
</mgrwt>
</event>
<event>
 4    1  0.4327903E+000  0.2171100E+03  0.7546771E-02  0.1136056E+00
         21   -1    0    0  503  502  0.00000000000E+00  0.00000000000E+00  0.10165091545E+03  0.10165091545E+03  0.00000000000E+00 0.  1.
         21   -1    0    0  501  503 -0.00000000000E+00 -0.00000000000E+00 -0.47881687845E+03  0.47881687845E+03  0.00000000000E+00 0. -1.
          6    1    1    2  501    0  0.21846035754E+02  0.12934651563E+03 -0.24013183894E+03  0.32372838994E+03  0.17300000000E+03 0. -1.
         -6    1    1    2    0  502 -0.21846035754E+02 -0.12934651563E+03 -0.13703412406E+03  0.25673940395E+03  0.17300000000E+03 0.  1.
<mgrwt>
<rscale>  2 0.21711004E+03</rscale>
<asrwt>0</asrwt>
<pdfrwt beam="1">  1       21 0.15638602E-01 0.21711004E+03</pdfrwt>
<pdfrwt beam="2">  1       21 0.73664135E-01 0.21711004E+03</pdfrwt>
<totfact> 0.59484906E+04</totfact>
</mgrwt>
</event>
<event>
 4    1  0.4327903E+000  0.1773242E+03  0.7546771E-02  0.1170418E+00
         21   -1    0    0  501  502  0.00000000000E+00  0.00000000000E+00  0.17723764904E+03  0.17723764904E+03  0.00000000000E+00 0.  1.
         21   -1    0    0  502  503 -0.00000000000E+00 -0.00000000000E+00 -0.17750831359E+03  0.17750831359E+03  0.00000000000E+00 0.  1.
          6    1    1    2  501    0  0.19772586770E+02 -0.33525072535E+02 -0.42911136896E+01  0.17737615210E+03  0.17300000000E+03 0.  1.
         -6    1    1    2    0  503 -0.19772586770E+02  0.33525072535E+02  0.40204491367E+01  0.17736981053E+03  0.17300000000E+03 0.  1.
<mgrwt>
<rscale>  2 0.17732424E+03</rscale>
<asrwt>0</asrwt>
<pdfrwt beam="1">  1       21 0.27267331E-01 0.17732424E+03</pdfrwt>
<pdfrwt beam="2">  1       21 0.27308971E-01 0.17732424E+03</pdfrwt>
<totfact> 0.16473993E+05</totfact>
</mgrwt>
</event>
<event>
 4    1  0.4327903E+000  0.2509562E+03  0.7546771E-02  0.1112702E+00
         21   -1    0    0  501  502  0.00000000000E+00  0.00000000000E+00  0.19620049204E+03  0.19620049204E+03  0.00000000000E+00 0. -1.
         21   -1    0    0  502  503 -0.00000000000E+00 -0.00000000000E+00 -0.40388303723E+03  0.40388303723E+03  0.00000000000E+00 0.  1.
          6    1    1    2  501    0 -0.12697607982E+03 -0.13010411934E+03  0.32085428097E+02  0.25299897512E+03  0.17300000000E+03 0. -1.
         -6    1    1    2    0  503  0.12697607982E+03  0.13010411934E+03 -0.23976797328E+03  0.34708455415E+03  0.17300000000E+03 0.  1.
<mgrwt>
<rscale>  2 0.25095618E+03</rscale>
<asrwt>0</asrwt>
<pdfrwt beam="1">  1       21 0.30184691E-01 0.25095618E+03</pdfrwt>
<pdfrwt beam="2">  1       21 0.62135852E-01 0.25095618E+03</pdfrwt>
<totfact> 0.24543711E+04</totfact>
</mgrwt>
</event>
<event>
 4    1  0.4327903E+000  0.2668655E+03  0.7546771E-02  0.1103087E+00
         21   -1    0    0  501  502  0.00000000000E+00  0.00000000000E+00  0.23734719129E+04  0.23734719129E+04  0.00000000000E+00 0. -1.
         21   -1    0    0  502  503 -0.00000000000E+00 -0.00000000000E+00 -0.38852830708E+02  0.38852830708E+02  0.00000000000E+00 0.  1.
          6    1    1    2  501    0  0.85235471119E+02 -0.18445347666E+03  0.17428833142E+04  0.17631957967E+04  0.17300000000E+03 0. -1.
         -6    1    1    2    0  503 -0.85235471119E+02  0.18445347666E+03  0.59173576799E+03  0.64912894691E+03  0.17300000000E+03 0.  1.
<mgrwt>
<rscale>  2 0.26686545E+03</rscale>
<asrwt>0</asrwt>
<pdfrwt beam="1">  1       21 0.36514941E+00 0.26686545E+03</pdfrwt>
<pdfrwt beam="2">  1       21 0.59773604E-02 0.26686545E+03</pdfrwt>
<totfact> 0.25874586E+03</totfact>
</mgrwt>
</event>
<event>
 4    1  0.4327903E+000  0.1950101E+03  0.7546771E-02  0.1154019E+00
         21   -1    0    0  503  502  0.00000000000E+00  0.00000000000E+00  0.33452397713E+03  0.33452397713E+03  0.00000000000E+00 0.  1.
         21   -1    0    0  501  503 -0.00000000000E+00 -0.00000000000E+00 -0.13551808283E+03  0.13551808283E+03  0.00000000000E+00 0.  1.
          6    1    1    2  501    0 -0.87792067601E+02 -0.19811442430E+02  0.51603592261E+01  0.19507836808E+03  0.17300000000E+03 0.  1.
         -6    1    1    2    0  502  0.87792067601E+02  0.19811442430E+02  0.19384553508E+03  0.27496369188E+03  0.17300000000E+03 0.  1.
<mgrwt>
<rscale>  2 0.19501010E+03</rscale>
<asrwt>0</asrwt>
<pdfrwt beam="1">  1       21 0.51465227E-01 0.19501010E+03</pdfrwt>
<pdfrwt beam="2">  1       21 0.20848936E-01 0.19501010E+03</pdfrwt>
<totfact> 0.76531251E+04</totfact>
</mgrwt>
</event>
<event>
 4    1  0.4327903E+000  0.1918358E+03  0.7546771E-02  0.1156816E+00
         21   -1    0    0  503  502  0.00000000000E+00  0.00000000000E+00  0.80696029105E+02  0.80696029105E+02  0.00000000000E+00 0. -1.
         21   -1    0    0  501  503 -0.00000000000E+00 -0.00000000000E+00 -0.51807201293E+03  0.51807201293E+03  0.00000000000E+00 0. -1.
          6    1    1    2  501    0 -0.75401782265E+02 -0.34446245054E+02 -0.32227995625E+03  0.37505378650E+03  0.17300000000E+03 0. -1.
         -6    1    1    2    0  502  0.75401782265E+02  0.34446245054E+02 -0.11509602758E+03  0.22371425554E+03  0.17300000000E+03 0. -1.
<mgrwt>
<rscale>  2 0.19183580E+03</rscale>
<asrwt>0</asrwt>
<pdfrwt beam="1">  1       21 0.12414773E-01 0.19183580E+03</pdfrwt>
<pdfrwt beam="2">  1       21 0.79703391E-01 0.19183580E+03</pdfrwt>
<totfact> 0.76612788E+04</totfact>
</mgrwt>
</event>
<event>
 4    1  0.4327903E+000  0.1755615E+03  0.7546771E-02  0.1172169E+00
         21   -1    0    0  501  502  0.00000000000E+00  0.00000000000E+00  0.29465486365E+02  0.29465486365E+02  0.00000000000E+00 0. -1.
         21   -1    0    0  502  503 -0.00000000000E+00 -0.00000000000E+00 -0.10999555940E+04  0.10999555940E+04  0.00000000000E+00 0. -1.
          6    1    1    2  501    0  0.10180673042E+02  0.28092841015E+02 -0.41021164630E+03  0.44620113019E+03  0.17300000000E+03 0. -1.
         -6    1    1    2    0  503 -0.10180673042E+02 -0.28092841015E+02 -0.66027846134E+03  0.68321995018E+03  0.17300000000E+03 0. -1.
<mgrwt>
<rscale>  2 0.17556154E+03</rscale>
<asrwt>0</asrwt>
<pdfrwt beam="1">  1       21 0.45331521E-02 0.17556154E+03</pdfrwt>
<pdfrwt beam="2">  1       21 0.16922392E+00 0.17556154E+03</pdfrwt>
<totfact> 0.69265170E+04</totfact>
</mgrwt>
</event>
<event>
 4    1  0.4327903E+000  0.1856577E+03  0.7546771E-02  0.1162437E+00
         21   -1    0    0  503  502  0.00000000000E+00  0.00000000000E+00  0.14219928422E+03  0.14219928422E+03  0.00000000000E+00 0. -1.
         21   -1    0    0  501  503 -0.00000000000E+00 -0.00000000000E+00 -0.24639352717E+03  0.24639352717E+03  0.00000000000E+00 0. -1.
          6    1    1    2  501    0  0.41498963781E+02 -0.53081252449E+02 -0.76840099485E+02  0.20093079467E+03  0.17300000000E+03 0. -1.
         -6    1    1    2    0  502 -0.41498963781E+02  0.53081252449E+02 -0.27354143460E+02  0.18766201672E+03  0.17300000000E+03 0. -1.
<mgrwt>
<rscale>  2 0.18565770E+03</rscale>
<asrwt>0</asrwt>
<pdfrwt beam="1">  1       21 0.21876813E-01 0.18565770E+03</pdfrwt>
<pdfrwt beam="2">  1       21 0.37906696E-01 0.18565770E+03</pdfrwt>
<totfact> 0.13124332E+05</totfact>
</mgrwt>
</event>
<event>
 4    1  0.4327903E+000  0.1880262E+03  0.7546771E-02  0.1160254E+00
         21   -1    0    0  503  502  0.00000000000E+00  0.00000000000E+00  0.28131687390E+03  0.28131687390E+03  0.00000000000E+00 0.  1.
         21   -1    0    0  501  503 -0.00000000000E+00 -0.00000000000E+00 -0.88297042405E+03  0.88297042405E+03  0.00000000000E+00 0.  1.
          6    1    1    2  501    0 -0.38304264403E+02 -0.62909597247E+02 -0.83995296360E+03  0.86074085250E+03  0.17300000000E+03 0.  1.
         -6    1    1    2    0  502  0.38304264403E+02  0.62909597247E+02  0.23829941345E+03  0.30354644546E+03  0.17300000000E+03 0.  1.
<mgrwt>
<rscale>  2 0.18802615E+03</rscale>
<asrwt>0</asrwt>
<pdfrwt beam="1">  1       21 0.43279520E-01 0.18802615E+03</pdfrwt>
<pdfrwt beam="2">  1       21 0.13584160E+00 0.18802615E+03</pdfrwt>
<totfact> 0.19933548E+03</totfact>
</mgrwt>
</event>
<event>
 4    1  0.4327903E+000  0.3525050E+03  0.7546771E-02  0.1061592E+00
         21   -1    0    0  503  502  0.00000000000E+00  0.00000000000E+00  0.34099839308E+03  0.34099839308E+03  0.00000000000E+00 0.  1.
         21   -1    0    0  501  503 -0.00000000000E+00 -0.00000000000E+00 -0.53297387385E+03  0.53297387385E+03  0.00000000000E+00 0. -1.
          6    1    1    2  501    0  0.10497373917E+03  0.28863690682E+03 -0.34174710364E+03  0.49096927881E+03  0.17300000000E+03 0. -1.
         -6    1    1    2    0  502 -0.10497373917E+03 -0.28863690682E+03  0.14977162286E+03  0.38300298812E+03  0.17300000000E+03 0.  1.
<mgrwt>
<rscale>  2 0.35250496E+03</rscale>
<asrwt>0</asrwt>
<pdfrwt beam="1">  1       21 0.52461291E-01 0.35250496E+03</pdfrwt>
<pdfrwt beam="2">  1       21 0.81995980E-01 0.35250496E+03</pdfrwt>
<totfact> 0.40741743E+03</totfact>
</mgrwt>
</event>
<event>
 4    1  0.4327903E+000  0.2832343E+03  0.7546771E-02  0.1093935E+00
         21   -1    0    0  501  502  0.00000000000E+00  0.00000000000E+00  0.87546666130E+03  0.87546666130E+03  0.00000000000E+00 0. -1.
         21   -1    0    0  502  503 -0.00000000000E+00 -0.00000000000E+00 -0.96858020381E+02  0.96858020381E+02  0.00000000000E+00 0. -1.
          6    1    1    2  501    0  0.19857216648E+03 -0.10421988258E+03  0.27638844259E+03  0.39574266945E+03  0.17300000000E+03 0. -1.
         -6    1    1    2    0  503 -0.19857216648E+03  0.10421988258E+03  0.50222019833E+03  0.57658201224E+03  0.17300000000E+03 0. -1.
<mgrwt>
<rscale>  2 0.28323434E+03</rscale>
<asrwt>0</asrwt>
<pdfrwt beam="1">  1       21 0.13468717E+00 0.28323434E+03</pdfrwt>
<pdfrwt beam="2">  1       21 0.14901234E-01 0.28323434E+03</pdfrwt>
<totfact> 0.14881223E+04</totfact>
</mgrwt>
</event>
<event>
 4    1  0.4327903E+000  0.1788643E+03  0.7546771E-02  0.1168907E+00
         21   -1    0    0  501  502  0.00000000000E+00  0.00000000000E+00  0.18131679644E+02  0.18131679644E+02  0.00000000000E+00 0.  1.
         21   -1    0    0  502  503 -0.00000000000E+00 -0.00000000000E+00 -0.17945142028E+04  0.17945142028E+04  0.00000000000E+00 0.  1.
          6    1    1    2  501    0  0.42383957027E+02  0.16341636262E+02 -0.77088216662E+03  0.79136070391E+03  0.17300000000E+03 0.  1.
         -6    1    1    2    0  503 -0.42383957027E+02 -0.16341636262E+02 -0.10055003566E+04  0.10212851786E+04  0.17300000000E+03 0.  1.
<mgrwt>
<rscale>  2 0.17886433E+03</rscale>
<asrwt>0</asrwt>
<pdfrwt beam="1">  1       21 0.27894884E-02 0.17886433E+03</pdfrwt>
<pdfrwt beam="2">  1       21 0.27607919E+00 0.17886433E+03</pdfrwt>
<totfact> 0.33872536E+04</totfact>
</mgrwt>
</event>
<event>
 4    1  0.4327903E+000  0.3064747E+03  0.7546771E-02  0.1082048E+00
         21   -1    0    0  501  502  0.00000000000E+00  0.00000000000E+00  0.26057202911E+04  0.26057202911E+04  0.00000000000E+00 0.  1.
         21   -1    0    0  502  503 -0.00000000000E+00 -0.00000000000E+00 -0.64080027032E+02  0.64080027032E+02  0.00000000000E+00 0.  1.
          6    1    1    2  501    0  0.92252194844E+02  0.23555733206E+03  0.21537524618E+04  0.21754485494E+04  0.17300000000E+03 0.  1.
         -6    1    1    2    0  503 -0.92252194844E+02 -0.23555733206E+03  0.38788780220E+03  0.49435176872E+03  0.17300000000E+03 0.  1.
<mgrwt>
<rscale>  2 0.30647467E+03</rscale>
<asrwt>0</asrwt>
<pdfrwt beam="1">  1       21 0.40087996E+00 0.30647467E+03</pdfrwt>
<pdfrwt beam="2">  1       21 0.98584677E-02 0.30647467E+03</pdfrwt>
<totfact> 0.62180991E+02</totfact>
</mgrwt>
</event>
<event>
 4    1  0.4327903E+000  0.1783503E+03  0.7546771E-02  0.1169409E+00
         21   -1    0    0  501  502  0.00000000000E+00  0.00000000000E+00  0.29960514218E+03  0.29960514218E+03  0.00000000000E+00 0.  1.
         21   -1    0    0  502  503 -0.00000000000E+00 -0.00000000000E+00 -0.12801366383E+03  0.12801366383E+03  0.00000000000E+00 0.  1.
          6    1    1    2  501    0  0.37492522564E+02 -0.21774838540E+02  0.17411786462E+03  0.24925060406E+03  0.17300000000E+03 0.  1.
         -6    1    1    2    0  503 -0.37492522564E+02  0.21774838540E+02 -0.25263862726E+01  0.17836820196E+03  0.17300000000E+03 0.  1.
<mgrwt>
<rscale>  2 0.17835031E+03</rscale>
<asrwt>0</asrwt>
<pdfrwt beam="1">  1       21 0.46093098E-01 0.17835031E+03</pdfrwt>
<pdfrwt beam="2">  1       21 0.19694410E-01 0.17835031E+03</pdfrwt>
<totfact> 0.10771578E+05</totfact>
</mgrwt>
</event>
<event>
 4    1  0.4327903E+000  0.2005697E+03  0.7546771E-02  0.1149259E+00
         21   -1    0    0  503  502  0.00000000000E+00  0.00000000000E+00  0.46333226164E+03  0.46333226164E+03  0.00000000000E+00 0.  1.
         21   -1    0    0  501  503 -0.00000000000E+00 -0.00000000000E+00 -0.18631089194E+03  0.18631089194E+03  0.00000000000E+00 0.  1.
          6    1    1    2  501    0 -0.94874649463E+02  0.36028075883E+02 -0.98850299221E+02  0.22360591007E+03  0.17300000000E+03 0.  1.
         -6    1    1    2    0  502  0.94874649463E+02 -0.36028075883E+02  0.37587166892E+03  0.42603724351E+03  0.17300000000E+03 0.  1.
<mgrwt>
<rscale>  2 0.20056974E+03</rscale>
<asrwt>0</asrwt>
<pdfrwt beam="1">  1       21 0.71281886E-01 0.20056974E+03</pdfrwt>
<pdfrwt beam="2">  1       21 0.28663214E-01 0.20056974E+03</pdfrwt>
<totfact> 0.20628183E+04</totfact>
</mgrwt>
</event>
<event>
 4    1  0.4327903E+000  0.2070800E+03  0.7546771E-02  0.1143899E+00
         21   -1    0    0  503  502  0.00000000000E+00  0.00000000000E+00  0.52961174943E+02  0.52961174943E+02  0.00000000000E+00 0.  1.
         21   -1    0    0  501  503 -0.00000000000E+00 -0.00000000000E+00 -0.86160445913E+03  0.86160445913E+03  0.00000000000E+00 0. -1.
          6    1    1    2  501    0 -0.67977401312E+02 -0.91280867533E+02 -0.51656893094E+03  0.55652994913E+03  0.17300000000E+03 0. -1.
         -6    1    1    2    0  502  0.67977401312E+02  0.91280867533E+02 -0.29207435324E+03  0.35803568494E+03  0.17300000000E+03 0.  1.
<mgrwt>
<rscale>  2 0.20707999E+03</rscale>
<asrwt>0</asrwt>
<pdfrwt beam="1">  1       21 0.81478731E-02 0.20707999E+03</pdfrwt>
<pdfrwt beam="2">  1       21 0.13255453E+00 0.20707999E+03</pdfrwt>
<totfact> 0.47453502E+04</totfact>
</mgrwt>
</event>
<event>
 4    1  0.4327903E+000  0.2184836E+03  0.7546771E-02  0.1135019E+00
         21   -1    0    0  501  502  0.00000000000E+00  0.00000000000E+00  0.15317271142E+04  0.15317271142E+04  0.00000000000E+00 0. -1.
         21   -1    0    0  502  503 -0.00000000000E+00 -0.00000000000E+00 -0.38414842711E+02  0.38414842711E+02  0.00000000000E+00 0.  1.
          6    1    1    2  501    0  0.13256245270E+03  0.15273703344E+02  0.10877287649E+04  0.11094543505E+04  0.17300000000E+03 0. -1.
         -6    1    1    2    0  503 -0.13256245270E+03 -0.15273703344E+02  0.40558350664E+03  0.46068760645E+03  0.17300000000E+03 0.  1.
<mgrwt>
<rscale>  2 0.21848361E+03</rscale>
<asrwt>0</asrwt>
<pdfrwt beam="1">  1       21 0.23565028E+00 0.21848361E+03</pdfrwt>
<pdfrwt beam="2">  1       21 0.59099770E-02 0.21848361E+03</pdfrwt>
<totfact> 0.16017438E+04</totfact>
</mgrwt>
</event>
<event>
 4    1  0.4327903E+000  0.1776815E+03  0.7546771E-02  0.1170066E+00
         21   -1    0    0  501  502  0.00000000000E+00  0.00000000000E+00  0.41821327380E+03  0.41821327380E+03  0.00000000000E+00 0. -1.
         21   -1    0    0  502  503 -0.00000000000E+00 -0.00000000000E+00 -0.75601804820E+02  0.75601804820E+02  0.00000000000E+00 0. -1.
          6    1    1    2  501    0 -0.94593874848E+01 -0.39398252896E+02  0.18082289023E+03  0.25351059144E+03  0.17300000000E+03 0. -1.
         -6    1    1    2    0  503  0.94593874848E+01  0.39398252896E+02  0.16178857875E+03  0.24030448718E+03  0.17300000000E+03 0. -1.
<mgrwt>
<rscale>  2 0.17768146E+03</rscale>
<asrwt>0</asrwt>
<pdfrwt beam="1">  1       21 0.64340502E-01 0.17768146E+03</pdfrwt>
<pdfrwt beam="2">  1       21 0.11631047E-01 0.17768146E+03</pdfrwt>
<totfact> 0.13898311E+05</totfact>
</mgrwt>
</event>
<event>
 4    1  0.4327903E+000  0.1852083E+03  0.7546771E-02  0.1162856E+00
         21   -1    0    0  503  502  0.00000000000E+00  0.00000000000E+00  0.72357077274E+02  0.72357077274E+02  0.00000000000E+00 0.  1.
         21   -1    0    0  501  503 -0.00000000000E+00 -0.00000000000E+00 -0.47673945414E+03  0.47673945414E+03  0.00000000000E+00 0.  1.
          6    1    1    2  501    0  0.44637356179E+01  0.65978650195E+02 -0.22274668861E+03  0.28968637266E+03  0.17300000000E+03 0.  1.
         -6    1    1    2    0  502 -0.44637356179E+01 -0.65978650195E+02 -0.18163568826E+03  0.25941015876E+03  0.17300000000E+03 0.  1.
<mgrwt>
<rscale>  2 0.18520828E+03</rscale>
<asrwt>0</asrwt>
<pdfrwt beam="1">  1       21 0.11131858E-01 0.18520828E+03</pdfrwt>
<pdfrwt beam="2">  1       21 0.73344530E-01 0.18520828E+03</pdfrwt>
<totfact> 0.11242866E+05</totfact>
</mgrwt>
</event>
<event>
 4    1  0.4327903E+000  0.1772175E+03  0.7546771E-02  0.1170523E+00
         21   -1    0    0  503  502  0.00000000000E+00  0.00000000000E+00  0.28512429532E+02  0.28512429532E+02  0.00000000000E+00 0.  1.
         21   -1    0    0  501  503 -0.00000000000E+00 -0.00000000000E+00 -0.11476289527E+04  0.11476289527E+04  0.00000000000E+00 0.  1.
          6    1    1    2  501    0 -0.20427668434E+02  0.32553917735E+02 -0.67747639955E+03  0.70027160384E+03  0.17300000000E+03 0.  1.
         -6    1    1    2    0  502  0.20427668434E+02 -0.32553917735E+02 -0.44164012363E+03  0.47586977840E+03  0.17300000000E+03 0.  1.
<mgrwt>
<rscale>  2 0.17721751E+03</rscale>
<asrwt>0</asrwt>
<pdfrwt beam="1">  1       21 0.43865282E-02 0.17721751E+03</pdfrwt>
<pdfrwt beam="2">  1       21 0.17655828E+00 0.17721751E+03</pdfrwt>
<totfact> 0.65048831E+04</totfact>
</mgrwt>
</event>
<event>
 4    1  0.4327903E+000  0.1747553E+03  0.7546771E-02  0.1172978E+00
         21   -1    0    0  501  502  0.00000000000E+00  0.00000000000E+00  0.30747092887E+03  0.30747092887E+03  0.00000000000E+00 0.  1.
         21   -1    0    0  502  503 -0.00000000000E+00 -0.00000000000E+00 -0.99330327628E+02  0.99330327628E+02  0.00000000000E+00 0.  1.
          6    1    1    2  501    0 -0.18030960983E+02  0.16891076117E+02  0.10561616106E+03  0.20419157055E+03  0.17300000000E+03 0.  1.
         -6    1    1    2    0  503  0.18030960983E+02 -0.16891076117E+02  0.10252444019E+03  0.20260968595E+03  0.17300000000E+03 0.  1.
<mgrwt>
<rscale>  2 0.17475533E+03</rscale>
<asrwt>0</asrwt>
<pdfrwt beam="1">  1       21 0.47303219E-01 0.17475533E+03</pdfrwt>
<pdfrwt beam="2">  1       21 0.15281589E-01 0.17475533E+03</pdfrwt>
<totfact> 0.16304993E+05</totfact>
</mgrwt>
</event>
<event>
 4    1  0.4327903E+000  0.1863583E+03  0.7546771E-02  0.1161788E+00
         21   -1    0    0  503  502  0.00000000000E+00  0.00000000000E+00  0.60596822884E+02  0.60596822884E+02  0.00000000000E+00 0.  1.
         21   -1    0    0  501  503 -0.00000000000E+00 -0.00000000000E+00 -0.66175229439E+03  0.66175229439E+03  0.00000000000E+00 0.  1.
          6    1    1    2  501    0 -0.34442201685E+02 -0.60117816629E+02 -0.43275559298E+03  0.47117599726E+03  0.17300000000E+03 0.  1.
         -6    1    1    2    0  502  0.34442201685E+02  0.60117816629E+02 -0.16839987853E+03  0.25117312002E+03  0.17300000000E+03 0.  1.
<mgrwt>
<rscale>  2 0.18635830E+03</rscale>
<asrwt>0</asrwt>
<pdfrwt beam="1">  1       21 0.93225880E-02 0.18635830E+03</pdfrwt>
<pdfrwt beam="2">  1       21 0.10180805E+00 0.18635830E+03</pdfrwt>
<totfact> 0.72439149E+04</totfact>
</mgrwt>
</event>
<event>
 4    1  0.4327903E+000  0.2307271E+03  0.7546771E-02  0.1126129E+00
         21   -1    0    0  501  502  0.00000000000E+00  0.00000000000E+00  0.10726194982E+03  0.10726194982E+03  0.00000000000E+00 0. -1.
         21   -1    0    0  502  503 -0.00000000000E+00 -0.00000000000E+00 -0.55168460614E+03  0.55168460614E+03  0.00000000000E+00 0. -1.
          6    1    1    2  501    0 -0.70863091851E+02 -0.13521992260E+03 -0.11782673186E+03  0.25907169663E+03  0.17300000000E+03 0. -1.
         -6    1    1    2    0  503  0.70863091851E+02  0.13521992260E+03 -0.32659592446E+03  0.39987485933E+03  0.17300000000E+03 0. -1.
<mgrwt>
<rscale>  2 0.23072712E+03</rscale>
<asrwt>0</asrwt>
<pdfrwt beam="1">  1       21 0.16501839E-01 0.23072712E+03</pdfrwt>
<pdfrwt beam="2">  1       21 0.84874554E-01 0.23072712E+03</pdfrwt>
<totfact> 0.38860228E+04</totfact>
</mgrwt>
</event>
<event>
 4    1  0.4327903E+000  0.2261142E+03  0.7546771E-02  0.1129405E+00
         21   -1    0    0  501  502  0.00000000000E+00  0.00000000000E+00  0.10067840397E+03  0.10067840397E+03  0.00000000000E+00 0. -1.
         21   -1    0    0  502  503 -0.00000000000E+00 -0.00000000000E+00 -0.54072165393E+03  0.54072165393E+03  0.00000000000E+00 0. -1.
          6    1    1    2  501    0  0.12786409758E+03 -0.69637663287E+02 -0.14092694828E+03  0.26643580156E+03  0.17300000000E+03 0. -1.
         -6    1    1    2    0  503 -0.12786409758E+03  0.69637663287E+02 -0.29911630168E+03  0.37496425633E+03  0.17300000000E+03 0. -1.
<mgrwt>
<rscale>  2 0.22611420E+03</rscale>
<asrwt>0</asrwt>
<pdfrwt beam="1">  1       21 0.15488985E-01 0.22611420E+03</pdfrwt>
<pdfrwt beam="2">  1       21 0.83187947E-01 0.22611420E+03</pdfrwt>
<totfact> 0.45811933E+04</totfact>
</mgrwt>
</event>
<event>
 4    1  0.4327903E+000  0.1871962E+03  0.7546771E-02  0.1161015E+00
         21   -1    0    0  501  502  0.00000000000E+00  0.00000000000E+00  0.40344564076E+03  0.40344564076E+03  0.00000000000E+00 0.  1.
         21   -1    0    0  502  503 -0.00000000000E+00 -0.00000000000E+00 -0.10233658473E+03  0.10233658473E+03  0.00000000000E+00 0. -1.
          6    1    1    2  501    0  0.49628059432E+02  0.51482571513E+02  0.24890729533E+03  0.31144380091E+03  0.17300000000E+03 0.  1.
         -6    1    1    2    0  503 -0.49628059432E+02 -0.51482571513E+02  0.52201760695E+02  0.19433842459E+03  0.17300000000E+03 0. -1.
<mgrwt>
<rscale>  2 0.18719615E+03</rscale>
<asrwt>0</asrwt>
<pdfrwt beam="1">  1       21 0.62068559E-01 0.18719615E+03</pdfrwt>
<pdfrwt beam="2">  1       21 0.15744090E-01 0.18719615E+03</pdfrwt>
<totfact> 0.86694758E+04</totfact>
</mgrwt>
</event>
<event>
 4    1  0.4327903E+000  0.1796589E+03  0.7546771E-02  0.1168134E+00
         21   -1    0    0  503  502  0.00000000000E+00  0.00000000000E+00  0.17012996113E+03  0.17012996113E+03  0.00000000000E+00 0.  1.
         21   -1    0    0  501  503 -0.00000000000E+00 -0.00000000000E+00 -0.19131843694E+03  0.19131843694E+03  0.00000000000E+00 0. -1.
          6    1    1    2  501    0 -0.40830303271E+02 -0.26100083070E+02  0.59165777324E+01  0.17975631809E+03  0.17300000000E+03 0.  1.
         -6    1    1    2    0  502  0.40830303271E+02  0.26100083070E+02 -0.27105053543E+02  0.18169207998E+03  0.17300000000E+03 0.  1.
<mgrwt>
<rscale>  2 0.17965892E+03</rscale>
<asrwt>0</asrwt>
<pdfrwt beam="1">  1       21 0.26173840E-01 0.17965892E+03</pdfrwt>
<pdfrwt beam="2">  1       21 0.29433606E-01 0.17965892E+03</pdfrwt>
<totfact> 0.15406065E+05</totfact>
</mgrwt>
</event>
<event>
 4    1  0.4327903E+000  0.1910968E+03  0.7546771E-02  0.1157476E+00
         21   -1    0    0  503  502  0.00000000000E+00  0.00000000000E+00  0.42479272219E+02  0.42479272219E+02  0.00000000000E+00 0.  1.
         21   -1    0    0  501  503 -0.00000000000E+00 -0.00000000000E+00 -0.12749066823E+04  0.12749066823E+04  0.00000000000E+00 0.  1.
          6    1    1    2  501    0  0.36127664161E+02  0.72689587819E+02 -0.99213229572E+03  0.10103684855E+04  0.17300000000E+03 0.  1.
         -6    1    1    2    0  502 -0.36127664161E+02 -0.72689587819E+02 -0.24029511438E+03  0.30701746903E+03  0.17300000000E+03 0.  1.
<mgrwt>
<rscale>  2 0.19109679E+03</rscale>
<asrwt>0</asrwt>
<pdfrwt beam="1">  1       21 0.65352719E-02 0.19109679E+03</pdfrwt>
<pdfrwt beam="2">  1       21 0.19613951E+00 0.19109679E+03</pdfrwt>
<totfact> 0.24241341E+04</totfact>
</mgrwt>
</event>
<event>
 4    1  0.4327903E+000  0.1979957E+03  0.7546771E-02  0.1151441E+00
         21   -1    0    0  503  502  0.00000000000E+00  0.00000000000E+00  0.19194097877E+03  0.19194097877E+03  0.00000000000E+00 0. -1.
         21   -1    0    0  501  503 -0.00000000000E+00 -0.00000000000E+00 -0.20589889372E+03  0.20589889372E+03  0.00000000000E+00 0. -1.
          6    1    1    2  501    0 -0.58820390721E+02 -0.76246070638E+02 -0.24826243299E+02  0.19954609495E+03  0.17300000000E+03 0. -1.
         -6    1    1    2    0  502  0.58820390721E+02  0.76246070638E+02  0.10868328346E+02  0.19829377755E+03  0.17300000000E+03 0. -1.
<mgrwt>
<rscale>  2 0.19799571E+03</rscale>
<asrwt>0</asrwt>
<pdfrwt beam="1">  1       21 0.29529382E-01 0.19799571E+03</pdfrwt>
<pdfrwt beam="2">  1       21 0.31676753E-01 0.19799571E+03</pdfrwt>
<totfact> 0.10507157E+05</totfact>
</mgrwt>
</event>
<event>
 4    1  0.4327903E+000  0.2934630E+03  0.7546771E-02  0.1088555E+00
         21   -1    0    0  503  502  0.00000000000E+00  0.00000000000E+00  0.19461198593E+03  0.19461198593E+03  0.00000000000E+00 0.  1.
         21   -1    0    0  501  503 -0.00000000000E+00 -0.00000000000E+00 -0.49151394871E+03  0.49151394871E+03  0.00000000000E+00 0.  1.
          6    1    1    2  501    0  0.20131941094E+03 -0.12514797372E+03 -0.25675843836E+03  0.38993001451E+03  0.17300000000E+03 0.  1.
         -6    1    1    2    0  502 -0.20131941094E+03  0.12514797372E+03 -0.40143524417E+02  0.29619592013E+03  0.17300000000E+03 0.  1.
<mgrwt>
<rscale>  2 0.29346298E+03</rscale>
<asrwt>0</asrwt>
<pdfrwt beam="1">  1       21 0.29940306E-01 0.29346298E+03</pdfrwt>
<pdfrwt beam="2">  1       21 0.75617529E-01 0.29346298E+03</pdfrwt>
<totfact> 0.15835219E+04</totfact>
</mgrwt>
</event>
<event>
 4    1  0.4327903E+000  0.1923237E+03  0.7546771E-02  0.1156382E+00
         21   -1    0    0  503  502  0.00000000000E+00  0.00000000000E+00  0.13039760009E+03  0.13039760009E+03  0.00000000000E+00 0. -1.
         21   -1    0    0  501  503 -0.00000000000E+00 -0.00000000000E+00 -0.29621080807E+03  0.29621080807E+03  0.00000000000E+00 0. -1.
          6    1    1    2  501    0 -0.47595138288E+02 -0.69239592955E+02 -0.12681592046E+03  0.23037077962E+03  0.17300000000E+03 0. -1.
         -6    1    1    2    0  502  0.47595138288E+02  0.69239592955E+02 -0.38997287519E+02  0.19623762854E+03  0.17300000000E+03 0. -1.
<mgrwt>
<rscale>  2 0.19232373E+03</rscale>
<asrwt>0</asrwt>
<pdfrwt beam="1">  1       21 0.20061169E-01 0.19232373E+03</pdfrwt>
<pdfrwt beam="2">  1       21 0.45570893E-01 0.19232373E+03</pdfrwt>
<totfact> 0.10599741E+05</totfact>
</mgrwt>
</event>
<event>
 4    1  0.4327903E+000  0.1824283E+03  0.7546771E-02  0.1165473E+00
         21   -1    0    0  503  502  0.00000000000E+00  0.00000000000E+00  0.59619358864E+02  0.59619358864E+02  0.00000000000E+00 0. -1.
         21   -1    0    0  501  503 -0.00000000000E+00 -0.00000000000E+00 -0.56327704043E+03  0.56327704043E+03  0.00000000000E+00 0. -1.
          6    1    1    2  501    0  0.22118678022E+02  0.53496223737E+02 -0.28137023929E+03  0.33533459922E+03  0.17300000000E+03 0. -1.
         -6    1    1    2    0  502 -0.22118678022E+02 -0.53496223737E+02 -0.22228744227E+03  0.28756180008E+03  0.17300000000E+03 0. -1.
<mgrwt>
<rscale>  2 0.18242829E+03</rscale>
<asrwt>0</asrwt>
<pdfrwt beam="1">  1       21 0.91722087E-02 0.18242829E+03</pdfrwt>
<pdfrwt beam="2">  1       21 0.86658009E-01 0.18242829E+03</pdfrwt>
<totfact> 0.10874396E+05</totfact>
</mgrwt>
</event>
<event>
 4    1  0.4327903E+000  0.1881044E+03  0.7546771E-02  0.1160182E+00
         21   -1    0    0  501  502  0.00000000000E+00  0.00000000000E+00  0.17414889522E+03  0.17414889522E+03  0.00000000000E+00 0.  1.
         21   -1    0    0  502  503 -0.00000000000E+00 -0.00000000000E+00 -0.23998082783E+03  0.23998082783E+03  0.00000000000E+00 0.  1.
          6    1    1    2  501    0  0.52353047248E+02  0.52090608633E+02  0.48172124141E+02  0.19417473216E+03  0.17300000000E+03 0.  1.
         -6    1    1    2    0  503 -0.52353047248E+02 -0.52090608633E+02 -0.11400405674E+03  0.21995499089E+03  0.17300000000E+03 0.  1.
<mgrwt>
<rscale>  2 0.18810442E+03</rscale>
<asrwt>0</asrwt>
<pdfrwt beam="1">  1       21 0.26792138E-01 0.18810442E+03</pdfrwt>
<pdfrwt beam="2">  1       21 0.36920127E-01 0.18810442E+03</pdfrwt>
<totfact> 0.94019417E+04</totfact>
</mgrwt>
</event>
<event>
 4    1  0.4327903E+000  0.5065016E+03  0.7546771E-02  0.1012096E+00
         21   -1    0    0  501  502  0.00000000000E+00  0.00000000000E+00  0.42754486106E+03  0.42754486106E+03  0.00000000000E+00 0. -1.
         21   -1    0    0  502  503 -0.00000000000E+00 -0.00000000000E+00 -0.61543580738E+03  0.61543580738E+03  0.00000000000E+00 0.  1.
          6    1    1    2  501    0 -0.47094100946E+03 -0.69493864702E+02 -0.11462885010E+02  0.50663125580E+03  0.17300000000E+03 0. -1.
         -6    1    1    2    0  503  0.47094100946E+03  0.69493864702E+02 -0.17642806132E+03  0.53634941264E+03  0.17300000000E+03 0.  1.
<mgrwt>
<rscale>  2 0.50650156E+03</rscale>
<asrwt>0</asrwt>
<pdfrwt beam="1">  1       21 0.65776132E-01 0.50650156E+03</pdfrwt>
<pdfrwt beam="2">  1       21 0.94682432E-01 0.50650156E+03</pdfrwt>
<totfact> 0.16708207E+03</totfact>
</mgrwt>
</event>
<event>
 4    1  0.4327903E+000  0.1838652E+03  0.7546771E-02  0.1164114E+00
         21   -1    0    0  503  502  0.00000000000E+00  0.00000000000E+00  0.20427358256E+03  0.20427358256E+03  0.00000000000E+00 0. -1.
         21   -1    0    0  501  503 -0.00000000000E+00 -0.00000000000E+00 -0.16599126101E+03  0.16599126101E+03  0.00000000000E+00 0. -1.
          6    1    1    2  501    0 -0.18126990418E+02 -0.59571875457E+02  0.29256856352E+02  0.18617830102E+03  0.17300000000E+03 0. -1.
         -6    1    1    2    0  502  0.18126990418E+02  0.59571875457E+02  0.90254652029E+01  0.18408654255E+03  0.17300000000E+03 0. -1.
<mgrwt>
<rscale>  2 0.18386516E+03</rscale>
<asrwt>0</asrwt>
<pdfrwt beam="1">  1       21 0.31426705E-01 0.18386516E+03</pdfrwt>
<pdfrwt beam="2">  1       21 0.25537117E-01 0.18386516E+03</pdfrwt>
<totfact> 0.14193650E+05</totfact>
</mgrwt>
</event>
<event>
 4    1  0.4327903E+000  0.1938866E+03  0.7546771E-02  0.1155002E+00
         21   -1    0    0  503  502  0.00000000000E+00  0.00000000000E+00  0.39018747174E+03  0.39018747174E+03  0.00000000000E+00 0.  1.
         21   -1    0    0  501  503 -0.00000000000E+00 -0.00000000000E+00 -0.12571476293E+03  0.12571476293E+03  0.00000000000E+00 0.  1.
          6    1    1    2  501    0 -0.42914416395E+02 -0.76297911826E+02  0.75537862895E+01  0.19403370370E+03  0.17300000000E+03 0.  1.
         -6    1    1    2    0  502  0.42914416395E+02  0.76297911826E+02  0.25691892252E+03  0.32186853098E+03  0.17300000000E+03 0.  1.
<mgrwt>
<rscale>  2 0.19388661E+03</rscale>
<asrwt>0</asrwt>
<pdfrwt beam="1">  1       21 0.60028841E-01 0.19388661E+03</pdfrwt>
<pdfrwt beam="2">  1       21 0.19340733E-01 0.19388661E+03</pdfrwt>
<totfact> 0.63573421E+04</totfact>
</mgrwt>
</event>
<event>
 4    1  0.4327903E+000  0.1858994E+03  0.7546771E-02  0.1162213E+00
         21   -1    0    0  501  502  0.00000000000E+00  0.00000000000E+00  0.11964307530E+03  0.11964307530E+03  0.00000000000E+00 0.  1.
         21   -1    0    0  502  503 -0.00000000000E+00 -0.00000000000E+00 -0.48317603578E+03  0.48317603578E+03  0.00000000000E+00 0.  1.
          6    1    1    2  501    0  0.49431940871E+02 -0.46755624644E+02  0.93827677279E+01  0.18613608340E+03  0.17300000000E+03 0.  1.
         -6    1    1    2    0  503 -0.49431940871E+02  0.46755624644E+02 -0.37291572821E+03  0.41668302768E+03  0.17300000000E+03 0.  1.
<mgrwt>
<rscale>  2 0.18589945E+03</rscale>
<asrwt>0</asrwt>
<pdfrwt beam="1">  1       21 0.18406627E-01 0.18589945E+03</pdfrwt>
<pdfrwt beam="2">  1       21 0.74334776E-01 0.18589945E+03</pdfrwt>
<totfact> 0.43836358E+04</totfact>
</mgrwt>
</event>
<event>
 4    1  0.4327903E+000  0.2260484E+03  0.7546771E-02  0.1129452E+00
         21   -1    0    0  501  502  0.00000000000E+00  0.00000000000E+00  0.19276271945E+04  0.19276271945E+04  0.00000000000E+00 0. -1.
         21   -1    0    0  502  503 -0.00000000000E+00 -0.00000000000E+00 -0.95195658245E+02  0.95195658245E+02  0.00000000000E+00 0. -1.
          6    1    1    2  501    0  0.14549478540E+03  0.38911724776E+00  0.17753441745E+04  0.17896772955E+04  0.17300000000E+03 0. -1.
         -6    1    1    2    0  503 -0.14549478540E+03 -0.38911724776E+00  0.57087361713E+02  0.23314555723E+03  0.17300000000E+03 0. -1.
<mgrwt>
<rscale>  2 0.22604841E+03</rscale>
<asrwt>0</asrwt>
<pdfrwt beam="1">  1       21 0.29655800E+00 0.22604841E+03</pdfrwt>
<pdfrwt beam="2">  1       21 0.14645487E-01 0.22604841E+03</pdfrwt>
<totfact> 0.14056680E+03</totfact>
</mgrwt>
</event>
<event>
 4    1  0.4327903E+000  0.4685144E+03  0.7546771E-02  0.1022340E+00
         21   -1    0    0  503  502  0.00000000000E+00  0.00000000000E+00  0.11121084127E+04  0.11121084127E+04  0.00000000000E+00 0. -1.
         21   -1    0    0  501  503 -0.00000000000E+00 -0.00000000000E+00 -0.19888275376E+03  0.19888275376E+03  0.00000000000E+00 0.  1.
          6    1    1    2  501    0 -0.32834923019E+03 -0.28594321142E+03  0.39959593528E+03  0.61577808390E+03  0.17300000000E+03 0.  1.
         -6    1    1    2    0  502  0.32834923019E+03  0.28594321142E+03  0.51362972364E+03  0.69521308254E+03  0.17300000000E+03 0. -1.
<mgrwt>
<rscale>  2 0.46851439E+03</rscale>
<asrwt>0</asrwt>
<pdfrwt beam="1">  1       21 0.17109360E+00 0.46851439E+03</pdfrwt>
<pdfrwt beam="2">  1       21 0.30597347E-01 0.46851439E+03</pdfrwt>
<totfact> 0.18149691E+03</totfact>
</mgrwt>
</event>
<event>
 4    1  0.4327903E+000  0.4363161E+03  0.7546771E-02  0.1031883E+00
         21   -1    0    0  503  502  0.00000000000E+00  0.00000000000E+00  0.17499529954E+04  0.17499529954E+04  0.00000000000E+00 0. -1.
         21   -1    0    0  501  503 -0.00000000000E+00 -0.00000000000E+00 -0.20075585879E+03  0.20075585879E+03  0.00000000000E+00 0.  1.
          6    1    1    2  501    0 -0.40016380332E+03 -0.17653195925E+02  0.11443838550E+03  0.45107410577E+03  0.17300000000E+03 0.  1.
         -6    1    1    2    0  502  0.40016380332E+03  0.17653195925E+02  0.14347587511E+04  0.14996347485E+04  0.17300000000E+03 0. -1.
<mgrwt>
<rscale>  2 0.43631606E+03</rscale>
<asrwt>0</asrwt>
<pdfrwt beam="1">  1       21 0.26922353E+00 0.43631606E+03</pdfrwt>
<pdfrwt beam="2">  1       21 0.30885518E-01 0.43631606E+03</pdfrwt>
<totfact> 0.41823843E+02</totfact>
</mgrwt>
</event>
<event>
 4    1  0.4327903E+000  0.1904144E+03  0.7546771E-02  0.1158088E+00
         21   -1    0    0  501  502  0.00000000000E+00  0.00000000000E+00  0.11001553276E+03  0.11001553276E+03  0.00000000000E+00 0. -1.
         21   -1    0    0  502  503 -0.00000000000E+00 -0.00000000000E+00 -0.34255542425E+03  0.34255542425E+03  0.00000000000E+00 0. -1.
          6    1    1    2  501    0  0.66177672588E+02  0.44149279623E+02 -0.72209786142E+02  0.20364649875E+03  0.17300000000E+03 0.  1.
         -6    1    1    2    0  503 -0.66177672588E+02 -0.44149279623E+02 -0.16033010535E+03  0.24892445826E+03  0.17300000000E+03 0.  1.
<mgrwt>
<rscale>  2 0.19041440E+03</rscale>
<asrwt>0</asrwt>
<pdfrwt beam="1">  1       21 0.16925467E-01 0.19041440E+03</pdfrwt>
<pdfrwt beam="2">  1       21 0.52700834E-01 0.19041440E+03</pdfrwt>
<totfact> 0.10743380E+05</totfact>
</mgrwt>
</event>
<event>
 4    1  0.4327903E+000  0.2087747E+03  0.7546771E-02  0.1142540E+00
         21   -1    0    0  501  502  0.00000000000E+00  0.00000000000E+00  0.90303165862E+02  0.90303165862E+02  0.00000000000E+00 0.  1.
         21   -1    0    0  502  503 -0.00000000000E+00 -0.00000000000E+00 -0.49510831739E+03  0.49510831739E+03  0.00000000000E+00 0. -1.
          6    1    1    2  501    0 -0.77121462722E+02 -0.87807543871E+02 -0.15601384315E+03  0.26062847892E+03  0.17300000000E+03 0.  1.
         -6    1    1    2    0  503  0.77121462722E+02  0.87807543871E+02 -0.24879130838E+03  0.32478300432E+03  0.17300000000E+03 0. -1.
<mgrwt>
<rscale>  2 0.20877472E+03</rscale>
<asrwt>0</asrwt>
<pdfrwt beam="1">  1       21 0.13892795E-01 0.20877472E+03</pdfrwt>
<pdfrwt beam="2">  1       21 0.76170510E-01 0.20877472E+03</pdfrwt>
<totfact> 0.68737363E+04</totfact>
</mgrwt>
</event>
<event>
 4    1  0.4327903E+000  0.2156966E+03  0.7546771E-02  0.1137133E+00
         21   -1    0    0  503  502  0.00000000000E+00  0.00000000000E+00  0.65459424386E+02  0.65459424386E+02  0.00000000000E+00 0.  1.
         21   -1    0    0  501  503 -0.00000000000E+00 -0.00000000000E+00 -0.76064946059E+03  0.76064946059E+03  0.00000000000E+00 0. -1.
          6    1    1    2  501    0 -0.43959097039E+02 -0.12109349520E+03 -0.24179652044E+03  0.32402252096E+03  0.17300000000E+03 0.  1.
         -6    1    1    2    0  502  0.43959097039E+02  0.12109349520E+03 -0.45339351577E+03  0.50208636402E+03  0.17300000000E+03 0. -1.
<mgrwt>
<rscale>  2 0.21569663E+03</rscale>
<asrwt>0</asrwt>
<pdfrwt beam="1">  1       21 0.10070681E-01 0.21569663E+03</pdfrwt>
<pdfrwt beam="2">  1       21 0.11702299E+00 0.21569663E+03</pdfrwt>
<totfact> 0.44477787E+04</totfact>
</mgrwt>
</event>
<event>
 4    1  0.4327903E+000  0.2821581E+03  0.7546771E-02  0.1094516E+00
         21   -1    0    0  503  502  0.00000000000E+00  0.00000000000E+00  0.46801534184E+03  0.46801534184E+03  0.00000000000E+00 0. -1.
         21   -1    0    0  501  503 -0.00000000000E+00 -0.00000000000E+00 -0.40129790925E+03  0.40129790925E+03  0.00000000000E+00 0. -1.
          6    1    1    2  501    0 -0.18492689465E+03 -0.12444375996E+03 -0.29655258167E+03  0.40933682885E+03  0.17300000000E+03 0. -1.
         -6    1    1    2    0  502  0.18492689465E+03  0.12444375996E+03  0.36327001426E+03  0.45997642224E+03  0.17300000000E+03 0. -1.
<mgrwt>
<rscale>  2 0.28215812E+03</rscale>
<asrwt>0</asrwt>
<pdfrwt beam="1">  1       21 0.72002360E-01 0.28215812E+03</pdfrwt>
<pdfrwt beam="2">  1       21 0.61738140E-01 0.28215812E+03</pdfrwt>
<totfact> 0.39913132E+03</totfact>
</mgrwt>
</event>
<event>
 4    1  0.4327903E+000  0.1938428E+03  0.7546771E-02  0.1155040E+00
         21   -1    0    0  501  502  0.00000000000E+00  0.00000000000E+00  0.83747336628E+03  0.83747336628E+03  0.00000000000E+00 0.  1.
         21   -1    0    0  502  503 -0.00000000000E+00 -0.00000000000E+00 -0.10670343830E+03  0.10670343830E+03  0.00000000000E+00 0. -1.
          6    1    1    2  501    0 -0.27078306778E+02 -0.83143200097E+02  0.72476661637E+03  0.75024107767E+03  0.17300000000E+03 0.  1.
         -6    1    1    2    0  503  0.27078306778E+02  0.83143200097E+02  0.60033116116E+01  0.19393572691E+03  0.17300000000E+03 0. -1.
<mgrwt>
<rscale>  2 0.19384279E+03</rscale>
<asrwt>0</asrwt>
<pdfrwt beam="1">  1       21 0.12884205E+00 0.19384279E+03</pdfrwt>
<pdfrwt beam="2">  1       21 0.16415914E-01 0.19384279E+03</pdfrwt>
<totfact> 0.14696224E+04</totfact>
</mgrwt>
</event>
<event>
 4    1  0.4327903E+000  0.2185855E+03  0.7546771E-02  0.1134942E+00
         21   -1    0    0  501  502  0.00000000000E+00  0.00000000000E+00  0.45850982422E+02  0.45850982422E+02  0.00000000000E+00 0.  1.
         21   -1    0    0  502  503 -0.00000000000E+00 -0.00000000000E+00 -0.14618759917E+04  0.14618759917E+04  0.00000000000E+00 0. -1.
          6    1    1    2  501    0  0.99811340195E+02 -0.88816143230E+02 -0.30402736075E+03  0.37444925826E+03  0.17300000000E+03 0.  1.
         -6    1    1    2    0  503 -0.99811340195E+02  0.88816143230E+02 -0.11119976486E+04  0.11332777159E+04  0.17300000000E+03 0. -1.
<mgrwt>
<rscale>  2 0.21858548E+03</rscale>
<asrwt>0</asrwt>
<pdfrwt beam="1">  1       21 0.70539988E-02 0.21858548E+03</pdfrwt>
<pdfrwt beam="2">  1       21 0.22490395E+00 0.21858548E+03</pdfrwt>
<totfact> 0.13718779E+04</totfact>
</mgrwt>
</event>
<event>
 4    1  0.4327903E+000  0.2197899E+03  0.7546771E-02  0.1134040E+00
         21   -1    0    0  501  502  0.00000000000E+00  0.00000000000E+00  0.97457097206E+03  0.97457097206E+03  0.00000000000E+00 0. -1.
         21   -1    0    0  502  503 -0.00000000000E+00 -0.00000000000E+00 -0.52026322074E+02  0.52026322074E+02  0.00000000000E+00 0. -1.
          6    1    1    2  501    0  0.25942839820E+02 -0.13306223256E+03  0.57284888994E+03  0.61356616544E+03  0.17300000000E+03 0. -1.
         -6    1    1    2    0  503 -0.25942839820E+02  0.13306223256E+03  0.34969576005E+03  0.41303112869E+03  0.17300000000E+03 0. -1.
<mgrwt>
<rscale>  2 0.21978987E+03</rscale>
<asrwt>0</asrwt>
<pdfrwt beam="1">  1       21 0.14993398E+00 0.21978987E+03</pdfrwt>
<pdfrwt beam="2">  1       21 0.80040502E-02 0.21978987E+03</pdfrwt>
<totfact> 0.35308656E+04</totfact>
</mgrwt>
</event>
<event>
 4    1  0.4327903E+000  0.2003436E+03  0.7546771E-02  0.1149449E+00
         21   -1    0    0  501  502  0.00000000000E+00  0.00000000000E+00  0.79529893606E+03  0.79529893606E+03  0.00000000000E+00 0.  1.
         21   -1    0    0  502  503 -0.00000000000E+00 -0.00000000000E+00 -0.45012428458E+03  0.45012428458E+03  0.00000000000E+00 0. -1.
          6    1    1    2  501    0  0.98498484696E+02  0.22508117906E+02  0.75935175377E+03  0.78533601268E+03  0.17300000000E+03 0.  1.
         -6    1    1    2    0  503 -0.98498484696E+02 -0.22508117906E+02 -0.41417710230E+03  0.46008720796E+03  0.17300000000E+03 0. -1.
<mgrwt>
<rscale>  2 0.20034362E+03</rscale>
<asrwt>0</asrwt>
<pdfrwt beam="1">  1       21 0.12235368E+00 0.20034362E+03</pdfrwt>
<pdfrwt beam="2">  1       21 0.69249890E-01 0.20034362E+03</pdfrwt>
<totfact> 0.94732221E+02</totfact>
</mgrwt>
</event>
<event>
 4    1  0.4327903E+000  0.2437552E+03  0.7546771E-02  0.1117316E+00
         21   -1    0    0  501  502  0.00000000000E+00  0.00000000000E+00  0.23527590800E+03  0.23527590800E+03  0.00000000000E+00 0. -1.
         21   -1    0    0  502  503 -0.00000000000E+00 -0.00000000000E+00 -0.34722372487E+03  0.34722372487E+03  0.00000000000E+00 0. -1.
          6    1    1    2  501    0 -0.14051991649E+02  0.17114366576E+03  0.96115261909E+02  0.26202052662E+03  0.17300000000E+03 0. -1.
         -6    1    1    2    0  503  0.14051991649E+02 -0.17114366576E+03 -0.20806307877E+03  0.32047910626E+03  0.17300000000E+03 0. -1.
<mgrwt>
<rscale>  2 0.24375523E+03</rscale>
<asrwt>0</asrwt>
<pdfrwt beam="1">  1       21 0.36196294E-01 0.24375523E+03</pdfrwt>
<pdfrwt beam="2">  1       21 0.53419034E-01 0.24375523E+03</pdfrwt>
<totfact> 0.23759929E+04</totfact>
</mgrwt>
</event>
<event>
 4    1  0.4327903E+000  0.2171452E+03  0.7546771E-02  0.1136029E+00
         21   -1    0    0  503  502  0.00000000000E+00  0.00000000000E+00  0.56075085895E+02  0.56075085895E+02  0.00000000000E+00 0. -1.
         21   -1    0    0  501  503 -0.00000000000E+00 -0.00000000000E+00 -0.88828993948E+03  0.88828993948E+03  0.00000000000E+00 0. -1.
          6    1    1    2  501    0  0.13083546617E+03  0.10252243130E+02 -0.52520098919E+03  0.56832042612E+03  0.17300000000E+03 0. -1.
         -6    1    1    2    0  502 -0.13083546617E+03 -0.10252243130E+02 -0.30701386439E+03  0.37604459925E+03  0.17300000000E+03 0. -1.
<mgrwt>
<rscale>  2 0.21714518E+03</rscale>
<asrwt>0</asrwt>
<pdfrwt beam="1">  1       21 0.86269363E-02 0.21714518E+03</pdfrwt>
<pdfrwt beam="2">  1       21 0.13665999E+00 0.21714518E+03</pdfrwt>
<totfact> 0.39510502E+04</totfact>
</mgrwt>
</event>
<event>
 4    1  0.4327903E+000  0.2017899E+03  0.7546771E-02  0.1148238E+00
         21   -1    0    0  501  502  0.00000000000E+00  0.00000000000E+00  0.61789053499E+03  0.61789053499E+03  0.00000000000E+00 0. -1.
         21   -1    0    0  502  503 -0.00000000000E+00 -0.00000000000E+00 -0.80272581256E+02  0.80272581256E+02  0.00000000000E+00 0. -1.
          6    1    1    2  501    0 -0.81266193670E+02  0.64698961191E+02  0.12110007188E+03  0.23533885617E+03  0.17300000000E+03 0. -1.
         -6    1    1    2    0  503  0.81266193670E+02 -0.64698961191E+02  0.41651788185E+03  0.46282426008E+03  0.17300000000E+03 0. -1.
<mgrwt>
<rscale>  2 0.20178987E+03</rscale>
<asrwt>0</asrwt>
<pdfrwt beam="1">  1       21 0.95060079E-01 0.20178987E+03</pdfrwt>
<pdfrwt beam="2">  1       21 0.12349628E-01 0.20178987E+03</pdfrwt>
<totfact> 0.51319987E+04</totfact>
</mgrwt>
</event>
<event>
 4    1  0.4327903E+000  0.1751760E+03  0.7546771E-02  0.1172555E+00
         21   -1    0    0  501  502  0.00000000000E+00  0.00000000000E+00  0.35142631262E+03  0.35142631262E+03  0.00000000000E+00 0. -1.
         21   -1    0    0  502  503 -0.00000000000E+00 -0.00000000000E+00 -0.10973121595E+03  0.10973121595E+03  0.00000000000E+00 0. -1.
          6    1    1    2  501    0 -0.18138645011E+02  0.20702969580E+02  0.22505164123E+03  0.28519267980E+03  0.17300000000E+03 0. -1.
         -6    1    1    2    0  503  0.18138645011E+02 -0.20702969580E+02  0.16643455440E+02  0.17596484877E+03  0.17300000000E+03 0. -1.
<mgrwt>
<rscale>  2 0.17517598E+03</rscale>
<asrwt>0</asrwt>
<pdfrwt beam="1">  1       21 0.54065586E-01 0.17517598E+03</pdfrwt>
<pdfrwt beam="2">  1       21 0.16881726E-01 0.17517598E+03</pdfrwt>
<totfact> 0.10288180E+05</totfact>
</mgrwt>
</event>
<event>
 4    1  0.4327903E+000  0.2001496E+03  0.7546771E-02  0.1149613E+00
         21   -1    0    0  501  502  0.00000000000E+00  0.00000000000E+00  0.10455829689E+03  0.10455829689E+03  0.00000000000E+00 0. -1.
         21   -1    0    0  502  503 -0.00000000000E+00 -0.00000000000E+00 -0.48272014574E+03  0.48272014574E+03  0.00000000000E+00 0.  1.
          6    1    1    2  501    0 -0.67285103737E+02 -0.74856934190E+02 -0.55708617709E+02  0.20775778173E+03  0.17300000000E+03 0.  1.
         -6    1    1    2    0  503  0.67285103737E+02  0.74856934190E+02 -0.32245323113E+03  0.37952066090E+03  0.17300000000E+03 0.  1.
<mgrwt>
<rscale>  2 0.20014956E+03</rscale>
<asrwt>0</asrwt>
<pdfrwt beam="1">  1       21 0.16085892E-01 0.20014956E+03</pdfrwt>
<pdfrwt beam="2">  1       21 0.74264638E-01 0.20014956E+03</pdfrwt>
<totfact> 0.55913614E+04</totfact>
</mgrwt>
</event>
<event>
 4    1  0.4327903E+000  0.2112643E+03  0.7546771E-02  0.1140569E+00
         21   -1    0    0  503  502  0.00000000000E+00  0.00000000000E+00  0.18144459584E+03  0.18144459584E+03  0.00000000000E+00 0.  1.
         21   -1    0    0  501  503 -0.00000000000E+00 -0.00000000000E+00 -0.24867848865E+03  0.24867848865E+03  0.00000000000E+00 0. -1.
          6    1    1    2  501    0  0.62487591202E+02  0.10391777927E+03 -0.56000097020E+02  0.21856032295E+03  0.17300000000E+03 0. -1.
         -6    1    1    2    0  502 -0.62487591202E+02 -0.10391777927E+03 -0.11233795793E+02  0.21156276154E+03  0.17300000000E+03 0.  1.
<mgrwt>
<rscale>  2 0.21126430E+03</rscale>
<asrwt>0</asrwt>
<pdfrwt beam="1">  1       21 0.27914553E-01 0.21126430E+03</pdfrwt>
<pdfrwt beam="2">  1       21 0.38258229E-01 0.21126430E+03</pdfrwt>
<totfact> 0.80110404E+04</totfact>
</mgrwt>
</event>
<event>
 4    1  0.4327903E+000  0.1770285E+03  0.7546771E-02  0.1170710E+00
         21   -1    0    0  501  502  0.00000000000E+00  0.00000000000E+00  0.63796118862E+02  0.63796118862E+02  0.00000000000E+00 0. -1.
         21   -1    0    0  502  503 -0.00000000000E+00 -0.00000000000E+00 -0.64575472918E+03  0.64575472918E+03  0.00000000000E+00 0. -1.
          6    1    1    2  501    0 -0.60938264076E+00 -0.37545998157E+02 -0.11743611257E+03  0.21243896502E+03  0.17300000000E+03 0. -1.
         -6    1    1    2    0  503  0.60938264076E+00  0.37545998157E+02 -0.46452249774E+03  0.49711188301E+03  0.17300000000E+03 0. -1.
<mgrwt>
<rscale>  2 0.17702845E+03</rscale>
<asrwt>0</asrwt>
<pdfrwt beam="1">  1       21 0.98147873E-02 0.17702845E+03</pdfrwt>
<pdfrwt beam="2">  1       21 0.99346883E-01 0.17702845E+03</pdfrwt>
<totfact> 0.70430803E+04</totfact>
</mgrwt>
</event>
<event>
 4    1  0.4327903E+000  0.2054980E+03  0.7546771E-02  0.1145181E+00
         21   -1    0    0  503  502  0.00000000000E+00  0.00000000000E+00  0.12045212835E+03  0.12045212835E+03  0.00000000000E+00 0.  1.
         21   -1    0    0  501  503 -0.00000000000E+00 -0.00000000000E+00 -0.45163993374E+03  0.45163993374E+03  0.00000000000E+00 0.  1.
          6    1    1    2  501    0  0.11061374114E+03  0.80645171483E+01 -0.30089631955E+03  0.36437347774E+03  0.17300000000E+03 0.  1.
         -6    1    1    2    0  502 -0.11061374114E+03 -0.80645171483E+01 -0.30291485849E+02  0.20771858434E+03  0.17300000000E+03 0.  1.
<mgrwt>
<rscale>  2 0.20549802E+03</rscale>
<asrwt>0</asrwt>
<pdfrwt beam="1">  1       21 0.18531097E-01 0.20549802E+03</pdfrwt>
<pdfrwt beam="2">  1       21 0.69483064E-01 0.20549802E+03</pdfrwt>
<totfact> 0.49790155E+04</totfact>
</mgrwt>
</event>
<event>
 4    1  0.4327903E+000  0.2274060E+03  0.7546771E-02  0.1128479E+00
         21   -1    0    0  503  502  0.00000000000E+00  0.00000000000E+00  0.22037722021E+03  0.22037722021E+03  0.00000000000E+00 0.  1.
         21   -1    0    0  501  503 -0.00000000000E+00 -0.00000000000E+00 -0.28771600647E+03  0.28771600647E+03  0.00000000000E+00 0.  1.
          6    1    1    2  501    0 -0.12707048746E+03  0.75083765626E+02  0.75425166599E+02  0.23958805563E+03  0.17300000000E+03 0.  1.
         -6    1    1    2    0  502  0.12707048746E+03 -0.75083765626E+02 -0.14276395286E+03  0.26850517105E+03  0.17300000000E+03 0.  1.
<mgrwt>
<rscale>  2 0.22740598E+03</rscale>
<asrwt>0</asrwt>
<pdfrwt beam="1">  1       21 0.33904188E-01 0.22740598E+03</pdfrwt>
<pdfrwt beam="2">  1       21 0.44264001E-01 0.22740598E+03</pdfrwt>
<totfact> 0.40387298E+04</totfact>
</mgrwt>
</event>
<event>
 4    1  0.4327903E+000  0.1862164E+03  0.7546771E-02  0.1161919E+00
         21   -1    0    0  501  502  0.00000000000E+00  0.00000000000E+00  0.26288455581E+03  0.26288455581E+03  0.00000000000E+00 0. -1.
         21   -1    0    0  502  503 -0.00000000000E+00 -0.00000000000E+00 -0.22030607139E+03  0.22030607139E+03  0.00000000000E+00 0. -1.
          6    1    1    2  501    0  0.67039011673E+02  0.15915535778E+02  0.17432646152E+03  0.25508086669E+03  0.17300000000E+03 0. -1.
         -6    1    1    2    0  503 -0.67039011673E+02 -0.15915535778E+02 -0.13174797710E+03  0.22810976050E+03  0.17300000000E+03 0. -1.
<mgrwt>
<rscale>  2 0.18621636E+03</rscale>
<asrwt>0</asrwt>
<pdfrwt beam="1">  1       21 0.40443778E-01 0.18621636E+03</pdfrwt>
<pdfrwt beam="2">  1       21 0.33893242E-01 0.18621636E+03</pdfrwt>
<totfact> 0.49551289E+04</totfact>
</mgrwt>
</event>
<event>
 4    1  0.4327903E+000  0.2237212E+03  0.7546771E-02  0.1131139E+00
         21   -1    0    0  503  502  0.00000000000E+00  0.00000000000E+00  0.24526392459E+03  0.24526392459E+03  0.00000000000E+00 0.  1.
         21   -1    0    0  501  503 -0.00000000000E+00 -0.00000000000E+00 -0.20422077591E+03  0.20422077591E+03  0.00000000000E+00 0.  1.
          6    1    1    2  501    0  0.13463592046E+02  0.14121222221E+03  0.26615721076E+02  0.22529881629E+03  0.17300000000E+03 0.  1.
         -6    1    1    2    0  502 -0.13463592046E+02 -0.14121222221E+03  0.14427427602E+02  0.22418588421E+03  0.17300000000E+03 0.  1.
<mgrwt>
<rscale>  2 0.22372117E+03</rscale>
<asrwt>0</asrwt>
<pdfrwt beam="1">  1       21 0.37732911E-01 0.22372117E+03</pdfrwt>
<pdfrwt beam="2">  1       21 0.31418581E-01 0.22372117E+03</pdfrwt>
<totfact> 0.65057797E+04</totfact>
</mgrwt>
</event>
<event>
 4    1  0.4327903E+000  0.1793709E+03  0.7546771E-02  0.1168413E+00
         21   -1    0    0  503  502  0.00000000000E+00  0.00000000000E+00  0.17497774387E+03  0.17497774387E+03  0.00000000000E+00 0.  1.
         21   -1    0    0  501  503 -0.00000000000E+00 -0.00000000000E+00 -0.42176452206E+03  0.42176452206E+03  0.00000000000E+00 0.  1.
          6    1    1    2  501    0  0.43376452267E+02 -0.19063570351E+02 -0.34747692062E+03  0.39104238477E+03  0.17300000000E+03 0.  1.
         -6    1    1    2    0  502 -0.43376452267E+02  0.19063570351E+02  0.10069014243E+03  0.20569988116E+03  0.17300000000E+03 0.  1.
<mgrwt>
<rscale>  2 0.17937095E+03</rscale>
<asrwt>0</asrwt>
<pdfrwt beam="1">  1       21 0.26919653E-01 0.17937095E+03</pdfrwt>
<pdfrwt beam="2">  1       21 0.64886850E-01 0.17937095E+03</pdfrwt>
<totfact> 0.28967807E+04</totfact>
</mgrwt>
</event>
<event>
 4    1  0.4327903E+000  0.1738869E+03  0.7546771E-02  0.1173854E+00
         21   -1    0    0  503  502  0.00000000000E+00  0.00000000000E+00  0.48798143852E+03  0.48798143852E+03  0.00000000000E+00 0. -1.
         21   -1    0    0  501  503 -0.00000000000E+00 -0.00000000000E+00 -0.67199112820E+02  0.67199112820E+02  0.00000000000E+00 0. -1.
          6    1    1    2  501    0 -0.16190650846E+02  0.67477229748E+01  0.13290260227E+03  0.21886016227E+03  0.17300000000E+03 0.  1.
         -6    1    1    2    0  502  0.16190650846E+02 -0.67477229748E+01  0.28787972344E+03  0.33632038907E+03  0.17300000000E+03 0.  1.
<mgrwt>
<rscale>  2 0.17388694E+03</rscale>
<asrwt>0</asrwt>
<pdfrwt beam="1">  1       21 0.75074065E-01 0.17388694E+03</pdfrwt>
<pdfrwt beam="2">  1       21 0.10338325E-01 0.17388694E+03</pdfrwt>
<totfact> 0.12221839E+05</totfact>
</mgrwt>
</event>
<event>
 4    1  0.4327903E+000  0.1843046E+03  0.7546771E-02  0.1163701E+00
         21   -1    0    0  503  502  0.00000000000E+00  0.00000000000E+00  0.17587112491E+03  0.17587112491E+03  0.00000000000E+00 0.  1.
         21   -1    0    0  501  503 -0.00000000000E+00 -0.00000000000E+00 -0.21261145356E+03  0.21261145356E+03  0.00000000000E+00 0.  1.
          6    1    1    2  501    0 -0.52121048940E+02 -0.36367442129E+02 -0.77148753457E+02  0.19980021209E+03  0.17300000000E+03 0.  1.
         -6    1    1    2    0  502  0.52121048940E+02  0.36367442129E+02  0.40408424808E+02  0.18868236639E+03  0.17300000000E+03 0.  1.
<mgrwt>
<rscale>  2 0.18430462E+03</rscale>
<asrwt>0</asrwt>
<pdfrwt beam="1">  1       21 0.27057096E-01 0.18430462E+03</pdfrwt>
<pdfrwt beam="2">  1       21 0.32709454E-01 0.18430462E+03</pdfrwt>
<totfact> 0.11743798E+05</totfact>
</mgrwt>
</event>
<event>
 4    1  0.4327903E+000  0.2015693E+03  0.7546771E-02  0.1148422E+00
         21   -1    0    0  503  502  0.00000000000E+00  0.00000000000E+00  0.28464537742E+03  0.28464537742E+03  0.00000000000E+00 0.  1.
         21   -1    0    0  501  503 -0.00000000000E+00 -0.00000000000E+00 -0.45186520874E+03  0.45186520874E+03  0.00000000000E+00 0.  1.
          6    1    1    2  501    0 -0.10190245029E+03 -0.17806689274E+02 -0.38819735379E+03  0.43740984562E+03  0.17300000000E+03 0.  1.
         -6    1    1    2    0  502  0.10190245029E+03  0.17806689274E+02  0.22097752246E+03  0.29910074054E+03  0.17300000000E+03 0.  1.
<mgrwt>
<rscale>  2 0.20156931E+03</rscale>
<asrwt>0</asrwt>
<pdfrwt beam="1">  1       21 0.43791597E-01 0.20156931E+03</pdfrwt>
<pdfrwt beam="2">  1       21 0.69517724E-01 0.20156931E+03</pdfrwt>
<totfact> 0.93679958E+03</totfact>
</mgrwt>
</event>
<event>
 4    1  0.4327903E+000  0.1918946E+03  0.7546771E-02  0.1156764E+00
         21   -1    0    0  503  502  0.00000000000E+00  0.00000000000E+00  0.41333417875E+03  0.41333417875E+03  0.00000000000E+00 0.  1.
         21   -1    0    0  501  503 -0.00000000000E+00 -0.00000000000E+00 -0.25927458326E+03  0.25927458326E+03  0.00000000000E+00 0.  1.
          6    1    1    2  501    0  0.79867804026E+02  0.22708796282E+02 -0.19543716657E+03  0.27389640674E+03  0.17300000000E+03 0.  1.
         -6    1    1    2    0  502 -0.79867804026E+02 -0.22708796282E+02  0.34949676207E+03  0.39871235527E+03  0.17300000000E+03 0.  1.
<mgrwt>
<rscale>  2 0.19189465E+03</rscale>
<asrwt>0</asrwt>
<pdfrwt beam="1">  1       21 0.63589874E-01 0.19189465E+03</pdfrwt>
<pdfrwt beam="2">  1       21 0.39888397E-01 0.19189465E+03</pdfrwt>
<totfact> 0.13854269E+04</totfact>
</mgrwt>
</event>
<event>
 4    1  0.4327903E+000  0.2027466E+03  0.7546771E-02  0.1147442E+00
         21   -1    0    0  503  502  0.00000000000E+00  0.00000000000E+00  0.18967673981E+03  0.18967673981E+03  0.00000000000E+00 0. -1.
         21   -1    0    0  501  503 -0.00000000000E+00 -0.00000000000E+00 -0.38050930811E+03  0.38050930811E+03  0.00000000000E+00 0. -1.
          6    1    1    2  501    0 -0.71458789945E+02 -0.77915386885E+02 -0.28246328728E+03  0.34769480127E+03  0.17300000000E+03 0. -1.
         -6    1    1    2    0  502  0.71458789945E+02  0.77915386885E+02  0.91630718973E+02  0.22249124664E+03  0.17300000000E+03 0. -1.
<mgrwt>
<rscale>  2 0.20274656E+03</rscale>
<asrwt>0</asrwt>
<pdfrwt beam="1">  1       21 0.29181037E-01 0.20274656E+03</pdfrwt>
<pdfrwt beam="2">  1       21 0.58539893E-01 0.20274656E+03</pdfrwt>
<totfact> 0.30549796E+04</totfact>
</mgrwt>
</event>
<event>
 4    1  0.4327903E+000  0.1901593E+03  0.7546771E-02  0.1158318E+00
         21   -1    0    0  501  502  0.00000000000E+00  0.00000000000E+00  0.63077949950E+03  0.63077949950E+03  0.00000000000E+00 0.  1.
         21   -1    0    0  502  503 -0.00000000000E+00 -0.00000000000E+00 -0.72380659665E+02  0.72380659665E+02  0.00000000000E+00 0.  1.
          6    1    1    2  501    0 -0.38424718534E+02  0.68957158051E+02  0.43953777230E+03  0.47890917920E+03  0.17300000000E+03 0.  1.
         -6    1    1    2    0  503  0.38424718534E+02 -0.68957158051E+02  0.11886106753E+03  0.22425097997E+03  0.17300000000E+03 0.  1.
<mgrwt>
<rscale>  2 0.19015927E+03</rscale>
<asrwt>0</asrwt>
<pdfrwt beam="1">  1       21 0.97042996E-01 0.19015927E+03</pdfrwt>
<pdfrwt beam="2">  1       21 0.11135487E-01 0.19015927E+03</pdfrwt>
<totfact> 0.59163831E+04</totfact>
</mgrwt>
</event>
<event>
 4    1  0.4327903E+000  0.1989236E+03  0.7546771E-02  0.1150650E+00
         21   -1    0    0  503  502  0.00000000000E+00  0.00000000000E+00  0.61373603185E+02  0.61373603185E+02  0.00000000000E+00 0. -1.
         21   -1    0    0  501  503 -0.00000000000E+00 -0.00000000000E+00 -0.10001059435E+04  0.10001059435E+04  0.00000000000E+00 0. -1.
          6    1    1    2  501    0 -0.18124195014E+02 -0.96504403046E+02 -0.78573294297E+03  0.81052257459E+03  0.17300000000E+03 0. -1.
         -6    1    1    2    0  502  0.18124195014E+02  0.96504403046E+02 -0.15299939733E+03  0.25095697208E+03  0.17300000000E+03 0. -1.
<mgrwt>
<rscale>  2 0.19892357E+03</rscale>
<asrwt>0</asrwt>
<pdfrwt beam="1">  1       21 0.94420944E-02 0.19892357E+03</pdfrwt>
<pdfrwt beam="2">  1       21 0.15386243E+00 0.19892357E+03</pdfrwt>
<totfact> 0.24991931E+04</totfact>
</mgrwt>
</event>
<event>
 4    1  0.4327903E+000  0.4163287E+03  0.7546771E-02  0.1038268E+00
         21   -1    0    0  501  502  0.00000000000E+00  0.00000000000E+00  0.14833004861E+04  0.14833004861E+04  0.00000000000E+00 0. -1.
         21   -1    0    0  502  503 -0.00000000000E+00 -0.00000000000E+00 -0.12821191681E+03  0.12821191681E+03  0.00000000000E+00 0.  1.
          6    1    1    2  501    0 -0.28728373419E+03 -0.24671568743E+03  0.91736631089E+03  0.10074177498E+04  0.17300000000E+03 0. -1.
         -6    1    1    2    0  503  0.28728373419E+03  0.24671568743E+03  0.43772225842E+03  0.60409465307E+03  0.17300000000E+03 0.  1.
<mgrwt>
<rscale>  2 0.41632869E+03</rscale>
<asrwt>0</asrwt>
<pdfrwt beam="1">  1       21 0.22820006E+00 0.41632869E+03</pdfrwt>
<pdfrwt beam="2">  1       21 0.19724911E-01 0.41632869E+03</pdfrwt>
<totfact> 0.18047848E+03</totfact>
</mgrwt>
</event>
<event>
 4    1  0.4327903E+000  0.2219371E+03  0.7546771E-02  0.1132447E+00
         21   -1    0    0  503  502  0.00000000000E+00  0.00000000000E+00  0.23009700738E+03  0.23009700738E+03  0.00000000000E+00 0. -1.
         21   -1    0    0  501  503 -0.00000000000E+00 -0.00000000000E+00 -0.44312571195E+03  0.44312571195E+03  0.00000000000E+00 0. -1.
          6    1    1    2  501    0  0.50862509260E+02  0.12938354998E+03 -0.34852753457E+03  0.41319189272E+03  0.17300000000E+03 0. -1.
         -6    1    1    2    0  502 -0.50862509260E+02 -0.12938354998E+03  0.13549883000E+03  0.26003082661E+03  0.17300000000E+03 0. -1.
<mgrwt>
<rscale>  2 0.22193715E+03</rscale>
<asrwt>0</asrwt>
<pdfrwt beam="1">  1       21 0.35399540E-01 0.22193715E+03</pdfrwt>
<pdfrwt beam="2">  1       21 0.68173186E-01 0.22193715E+03</pdfrwt>
<totfact> 0.14838842E+04</totfact>
</mgrwt>
</event>
<event>
 4    1  0.4327903E+000  0.1773434E+03  0.7546771E-02  0.1170399E+00
         21   -1    0    0  501  502  0.00000000000E+00  0.00000000000E+00  0.27306890980E+03  0.27306890980E+03  0.00000000000E+00 0. -1.
         21   -1    0    0  502  503 -0.00000000000E+00 -0.00000000000E+00 -0.13029097001E+03  0.13029097001E+03  0.00000000000E+00 0. -1.
          6    1    1    2  501    0  0.37476442273E+02  0.10826018571E+02  0.14008393154E+03  0.22599600501E+03  0.17300000000E+03 0. -1.
         -6    1    1    2    0  503 -0.37476442273E+02 -0.10826018571E+02  0.26940082550E+01  0.17736387480E+03  0.17300000000E+03 0. -1.
<mgrwt>
<rscale>  2 0.17734341E+03</rscale>
<asrwt>0</asrwt>
<pdfrwt beam="1">  1       21 0.42010601E-01 0.17734341E+03</pdfrwt>
<pdfrwt beam="2">  1       21 0.20044765E-01 0.17734341E+03</pdfrwt>
<totfact> 0.12602592E+05</totfact>
</mgrwt>
</event>
<event>
 4    1  0.4327903E+000  0.1878360E+03  0.7546771E-02  0.1160428E+00
         21   -1    0    0  503  502  0.00000000000E+00  0.00000000000E+00  0.15758960606E+03  0.15758960606E+03  0.00000000000E+00 0.  1.
         21   -1    0    0  501  503 -0.00000000000E+00 -0.00000000000E+00 -0.22616954396E+03  0.22616954396E+03  0.00000000000E+00 0.  1.
          6    1    1    2  501    0 -0.41326727436E+02  0.60377764742E+02 -0.15016690048E+02  0.18843533070E+03  0.17300000000E+03 0.  1.
         -6    1    1    2    0  502  0.41326727436E+02 -0.60377764742E+02 -0.53563247849E+02  0.19532381933E+03  0.17300000000E+03 0.  1.
<mgrwt>
<rscale>  2 0.18783603E+03</rscale>
<asrwt>0</asrwt>
<pdfrwt beam="1">  1       21 0.24244555E-01 0.18783603E+03</pdfrwt>
<pdfrwt beam="2">  1       21 0.34795314E-01 0.18783603E+03</pdfrwt>
<totfact> 0.12806595E+05</totfact>
</mgrwt>
</event>
<event>
 4    1  0.4327903E+000  0.1797362E+03  0.7546771E-02  0.1168059E+00
         21   -1    0    0  501  502  0.00000000000E+00  0.00000000000E+00  0.13635570769E+03  0.13635570769E+03  0.00000000000E+00 0. -1.
         21   -1    0    0  502  503 -0.00000000000E+00 -0.00000000000E+00 -0.25013915481E+03  0.25013915481E+03  0.00000000000E+00 0. -1.
          6    1    1    2  501    0  0.17904271180E+02  0.45338220645E+02 -0.12463585474E+02  0.18016786101E+03  0.17300000000E+03 0. -1.
         -6    1    1    2    0  503 -0.17904271180E+02 -0.45338220645E+02 -0.10131986165E+03  0.20632700148E+03  0.17300000000E+03 0. -1.
<mgrwt>
<rscale>  2 0.17973624E+03</rscale>
<asrwt>0</asrwt>
<pdfrwt beam="1">  1       21 0.20977801E-01 0.17973624E+03</pdfrwt>
<pdfrwt beam="2">  1       21 0.38482946E-01 0.17973624E+03</pdfrwt>
<totfact> 0.13804797E+05</totfact>
</mgrwt>
</event>
<event>
 4    1  0.4327903E+000  0.1788212E+03  0.7546771E-02  0.1168949E+00
         21   -1    0    0  501  502  0.00000000000E+00  0.00000000000E+00  0.49113779873E+02  0.49113779873E+02  0.00000000000E+00 0.  1.
         21   -1    0    0  502  503 -0.00000000000E+00 -0.00000000000E+00 -0.65167372673E+03  0.65167372673E+03  0.00000000000E+00 0.  1.
          6    1    1    2  501    0  0.42136689516E+02  0.16508251210E+02 -0.29070785537E+03  0.34130350150E+03  0.17300000000E+03 0. -1.
         -6    1    1    2    0  503 -0.42136689516E+02 -0.16508251210E+02 -0.31185209148E+03  0.35948400510E+03  0.17300000000E+03 0. -1.
<mgrwt>
<rscale>  2 0.17882120E+03</rscale>
<asrwt>0</asrwt>
<pdfrwt beam="1">  1       21 0.75559662E-02 0.17882120E+03</pdfrwt>
<pdfrwt beam="2">  1       21 0.10025750E+00 0.17882120E+03</pdfrwt>
<totfact> 0.10873557E+05</totfact>
</mgrwt>
</event>
<event>
 4    1  0.4327903E+000  0.2016494E+03  0.7546771E-02  0.1148355E+00
         21   -1    0    0  501  502  0.00000000000E+00  0.00000000000E+00  0.25558258059E+03  0.25558258059E+03  0.00000000000E+00 0.  1.
         21   -1    0    0  502  503 -0.00000000000E+00 -0.00000000000E+00 -0.17962085972E+03  0.17962085972E+03  0.00000000000E+00 0.  1.
          6    1    1    2  501    0 -0.94179749644E+02  0.43170084275E+02  0.11153565562E+03  0.23044019592E+03  0.17300000000E+03 0.  1.
         -6    1    1    2    0  503  0.94179749644E+02 -0.43170084275E+02 -0.35573934746E+02  0.20476324439E+03  0.17300000000E+03 0.  1.
<mgrwt>
<rscale>  2 0.20164940E+03</rscale>
<asrwt>0</asrwt>
<pdfrwt beam="1">  1       21 0.39320397E-01 0.20164940E+03</pdfrwt>
<pdfrwt beam="2">  1       21 0.27633978E-01 0.20164940E+03</pdfrwt>
<totfact> 0.77622967E+04</totfact>
</mgrwt>
</event>
<event>
 4    1  0.4327903E+000  0.1876357E+03  0.7546771E-02  0.1160611E+00
         21   -1    0    0  503  502  0.00000000000E+00  0.00000000000E+00  0.23281257050E+04  0.23281257050E+04  0.00000000000E+00 0. -1.
         21   -1    0    0  501  503 -0.00000000000E+00 -0.00000000000E+00 -0.91792354401E+02  0.91792354401E+02  0.00000000000E+00 0. -1.
          6    1    1    2  501    0 -0.57273829845E+02  0.44697471377E+02  0.12358901063E+02  0.18804227708E+03  0.17300000000E+03 0. -1.
         -6    1    1    2    0  502  0.57273829845E+02 -0.44697471377E+02  0.22239744495E+04  0.22318757823E+04  0.17300000000E+03 0. -1.
<mgrwt>
<rscale>  2 0.18763570E+03</rscale>
<asrwt>0</asrwt>
<pdfrwt beam="1">  1       21 0.35817314E+00 0.18763570E+03</pdfrwt>
<pdfrwt beam="2">  1       21 0.14121902E-01 0.18763570E+03</pdfrwt>
<totfact> 0.69006435E+02</totfact>
</mgrwt>
</event>
<event>
 4    1  0.4327903E+000  0.1986610E+03  0.7546771E-02  0.1150874E+00
         21   -1    0    0  503  502  0.00000000000E+00  0.00000000000E+00  0.27536126198E+03  0.27536126198E+03  0.00000000000E+00 0. -1.
         21   -1    0    0  501  503 -0.00000000000E+00 -0.00000000000E+00 -0.27174796156E+03  0.27174796156E+03  0.00000000000E+00 0. -1.
          6    1    1    2  501    0 -0.96050617254E+02 -0.17649027603E+02 -0.18624705191E+03  0.27231263943E+03  0.17300000000E+03 0. -1.
         -6    1    1    2    0  502  0.96050617254E+02  0.17649027603E+02  0.18986035233E+03  0.27479658410E+03  0.17300000000E+03 0. -1.
<mgrwt>
<rscale>  2 0.19866104E+03</rscale>
<asrwt>0</asrwt>
<pdfrwt beam="1">  1       21 0.42363271E-01 0.19866104E+03</pdfrwt>
<pdfrwt beam="2">  1       21 0.41807379E-01 0.19866104E+03</pdfrwt>
<totfact> 0.29430035E+04</totfact>
</mgrwt>
</event>
<event>
 4    1  0.4327903E+000  0.1731778E+03  0.7546771E-02  0.1174574E+00
         21   -1    0    0  501  502  0.00000000000E+00  0.00000000000E+00  0.89260030675E+03  0.89260030675E+03  0.00000000000E+00 0. -1.
         21   -1    0    0  502  503 -0.00000000000E+00 -0.00000000000E+00 -0.34229879285E+02  0.34229879285E+02  0.00000000000E+00 0. -1.
          6    1    1    2  501    0 -0.67112451186E+01 -0.40640288292E+01  0.36627661797E+03  0.40515320314E+03  0.17300000000E+03 0. -1.
         -6    1    1    2    0  503  0.67112451186E+01  0.40640288292E+01  0.49209380949E+03  0.52167698290E+03  0.17300000000E+03 0. -1.
<mgrwt>
<rscale>  2 0.17317782E+03</rscale>
<asrwt>0</asrwt>
<pdfrwt beam="1">  1       21 0.13732311E+00 0.17317782E+03</pdfrwt>
<pdfrwt beam="2">  1       21 0.52661359E-02 0.17317782E+03</pdfrwt>
<totfact> 0.93492232E+04</totfact>
</mgrwt>
</event>
<event>
 4    1  0.4327903E+000  0.1773785E+03  0.7546771E-02  0.1170365E+00
         21   -1    0    0  503  502  0.00000000000E+00  0.00000000000E+00  0.46659216607E+02  0.46659216607E+02  0.00000000000E+00 0.  1.
         21   -1    0    0  501  503 -0.00000000000E+00 -0.00000000000E+00 -0.15366946944E+04  0.15366946944E+04  0.00000000000E+00 0.  1.
          6    1    1    2  501    0  0.83333910756E+01 -0.38271268230E+02 -0.13380834153E+04  0.13497890064E+04  0.17300000000E+03 0.  1.
         -6    1    1    2    0  502 -0.83333910756E+01  0.38271268230E+02 -0.15195206243E+03  0.23356490459E+03  0.17300000000E+03 0.  1.
<mgrwt>
<rscale>  2 0.17737851E+03</rscale>
<asrwt>0</asrwt>
<pdfrwt beam="1">  1       21 0.71783409E-02 0.17737851E+03</pdfrwt>
<pdfrwt beam="2">  1       21 0.23641457E+00 0.17737851E+03</pdfrwt>
<totfact> 0.11756756E+04</totfact>
</mgrwt>
</event>
<event>
 4    1  0.4327903E+000  0.2651823E+03  0.7546771E-02  0.1104069E+00
         21   -1    0    0  501  502  0.00000000000E+00  0.00000000000E+00  0.30298998968E+03  0.30298998968E+03  0.00000000000E+00 0. -1.
         21   -1    0    0  502  503 -0.00000000000E+00 -0.00000000000E+00 -0.32962903322E+03  0.32962903322E+03  0.00000000000E+00 0.  1.
          6    1    1    2  501    0 -0.40939968570E+02  0.19676533504E+03  0.15874184654E+03  0.30906415506E+03  0.17300000000E+03 0. -1.
         -6    1    1    2    0  503  0.40939968570E+02 -0.19676533504E+03 -0.18538089008E+03  0.32355486784E+03  0.17300000000E+03 0.  1.
<mgrwt>
<rscale>  2 0.26518235E+03</rscale>
<asrwt>0</asrwt>
<pdfrwt beam="1">  1       21 0.46613845E-01 0.26518235E+03</pdfrwt>
<pdfrwt beam="2">  1       21 0.50712159E-01 0.26518235E+03</pdfrwt>
<totfact> 0.15662253E+04</totfact>
</mgrwt>
</event>
<event>
 4    1  0.4327903E+000  0.2230601E+03  0.7546771E-02  0.1131622E+00
         21   -1    0    0  501  502  0.00000000000E+00  0.00000000000E+00  0.18371061605E+03  0.18371061605E+03  0.00000000000E+00 0. -1.
         21   -1    0    0  502  503 -0.00000000000E+00 -0.00000000000E+00 -0.32024276225E+03  0.32024276225E+03  0.00000000000E+00 0. -1.
          6    1    1    2  501    0 -0.62132159136E+02 -0.12635819402E+03  0.30704372948E+02  0.22516340048E+03  0.17300000000E+03 0. -1.
         -6    1    1    2    0  503  0.62132159136E+02  0.12635819402E+03 -0.16723651915E+03  0.27878997782E+03  0.17300000000E+03 0. -1.
<mgrwt>
<rscale>  2 0.22306008E+03</rscale>
<asrwt>0</asrwt>
<pdfrwt beam="1">  1       21 0.28263172E-01 0.22306008E+03</pdfrwt>
<pdfrwt beam="2">  1       21 0.49268117E-01 0.22306008E+03</pdfrwt>
<totfact> 0.46332234E+04</totfact>
</mgrwt>
</event>
<event>
 4    1  0.4327903E+000  0.1760671E+03  0.7546771E-02  0.1171664E+00
         21   -1    0    0  501  502  0.00000000000E+00  0.00000000000E+00  0.35891691886E+03  0.35891691886E+03  0.00000000000E+00 0.  1.
         21   -1    0    0  502  503 -0.00000000000E+00 -0.00000000000E+00 -0.22797266452E+03  0.22797266452E+03  0.00000000000E+00 0.  1.
          6    1    1    2  501    0  0.30776196413E+01  0.32575552955E+02  0.29674292505E+03  0.34504492745E+03  0.17300000000E+03 0.  1.
         -6    1    1    2    0  503 -0.30776196413E+01 -0.32575552955E+02 -0.16579867070E+03  0.24184465593E+03  0.17300000000E+03 0.  1.
<mgrwt>
<rscale>  2 0.17606714E+03</rscale>
<asrwt>0</asrwt>
<pdfrwt beam="1">  1       21 0.55217987E-01 0.17606714E+03</pdfrwt>
<pdfrwt beam="2">  1       21 0.35072718E-01 0.17606714E+03</pdfrwt>
<totfact> 0.24473277E+04</totfact>
</mgrwt>
</event>
<event>
 4    1  0.4327903E+000  0.1772261E+03  0.7546771E-02  0.1170515E+00
         21   -1    0    0  503  502  0.00000000000E+00  0.00000000000E+00  0.38206080839E+03  0.38206080839E+03  0.00000000000E+00 0.  1.
         21   -1    0    0  501  503 -0.00000000000E+00 -0.00000000000E+00 -0.89058759209E+02  0.89058759209E+02  0.00000000000E+00 0.  1.
          6    1    1    2  501    0  0.37367246524E+02  0.91526347076E+01  0.81175912576E+02  0.19493232317E+03  0.17300000000E+03 0. -1.
         -6    1    1    2    0  502 -0.37367246524E+02 -0.91526347076E+01  0.21182613661E+03  0.27618724443E+03  0.17300000000E+03 0. -1.
<mgrwt>
<rscale>  2 0.17722608E+03</rscale>
<asrwt>0</asrwt>
<pdfrwt beam="1">  1       21 0.58778585E-01 0.17722608E+03</pdfrwt>
<pdfrwt beam="2">  1       21 0.13701348E-01 0.17722608E+03</pdfrwt>
<totfact> 0.12588502E+05</totfact>
</mgrwt>
</event>
<event>
 4    1  0.4327903E+000  0.1805380E+03  0.7546771E-02  0.1167283E+00
         21   -1    0    0  501  502  0.00000000000E+00  0.00000000000E+00  0.18690810753E+03  0.18690810753E+03  0.00000000000E+00 0.  1.
         21   -1    0    0  502  503 -0.00000000000E+00 -0.00000000000E+00 -0.18330256161E+03  0.18330256161E+03  0.00000000000E+00 0.  1.
          6    1    1    2  501    0  0.47347681875E+02  0.20570611210E+02 -0.39025403369E+02  0.18470770188E+03  0.17300000000E+03 0.  1.
         -6    1    1    2    0  503 -0.47347681875E+02 -0.20570611210E+02  0.42630949292E+02  0.18550296726E+03  0.17300000000E+03 0.  1.
<mgrwt>
<rscale>  2 0.18053795E+03</rscale>
<asrwt>0</asrwt>
<pdfrwt beam="1">  1       21 0.28755093E-01 0.18053795E+03</pdfrwt>
<pdfrwt beam="2">  1       21 0.28200394E-01 0.18053795E+03</pdfrwt>
<totfact> 0.13960665E+05</totfact>
</mgrwt>
</event>
<event>
 4    1  0.4327903E+000  0.2217843E+03  0.7546771E-02  0.1132560E+00
         21   -1    0    0  501  502  0.00000000000E+00  0.00000000000E+00  0.10550494642E+03  0.10550494642E+03  0.00000000000E+00 0.  1.
         21   -1    0    0  502  503 -0.00000000000E+00 -0.00000000000E+00 -0.55001847158E+03  0.55001847158E+03  0.00000000000E+00 0. -1.
          6    1    1    2  501    0 -0.12865047803E+03 -0.52041564194E+02 -0.35019302945E+03  0.41451589569E+03  0.17300000000E+03 0. -1.
         -6    1    1    2    0  503  0.12865047803E+03  0.52041564194E+02 -0.94320495712E+02  0.24100752232E+03  0.17300000000E+03 0.  1.
<mgrwt>
<rscale>  2 0.22178429E+03</rscale>
<asrwt>0</asrwt>
<pdfrwt beam="1">  1       21 0.16231530E-01 0.22178429E+03</pdfrwt>
<pdfrwt beam="2">  1       21 0.84618227E-01 0.22178429E+03</pdfrwt>
<totfact> 0.40510656E+04</totfact>
</mgrwt>
</event>
<event>
 4    1  0.4327903E+000  0.2063477E+03  0.7546771E-02  0.1144491E+00
         21   -1    0    0  501  502  0.00000000000E+00  0.00000000000E+00  0.39548173203E+02  0.39548173203E+02  0.00000000000E+00 0.  1.
         21   -1    0    0  502  503 -0.00000000000E+00 -0.00000000000E+00 -0.11968243169E+04  0.11968243169E+04  0.00000000000E+00 0.  1.
          6    1    1    2  501    0  0.83815965393E+02 -0.75001627851E+02 -0.38274539060E+03  0.43482570561E+03  0.17300000000E+03 0.  1.
         -6    1    1    2    0  503 -0.83815965393E+02  0.75001627851E+02 -0.77453075306E+03  0.80154678446E+03  0.17300000000E+03 0.  1.
<mgrwt>
<rscale>  2 0.20634767E+03</rscale>
<asrwt>0</asrwt>
<pdfrwt beam="1">  1       21 0.60843341E-02 0.20634767E+03</pdfrwt>
<pdfrwt beam="2">  1       21 0.18412682E+00 0.20634767E+03</pdfrwt>
<totfact> 0.32553126E+04</totfact>
</mgrwt>
</event>
<event>
 4    1  0.4327903E+000  0.2120694E+03  0.7546771E-02  0.1139938E+00
         21   -1    0    0  503  502  0.00000000000E+00  0.00000000000E+00  0.72920707712E+02  0.72920707712E+02  0.00000000000E+00 0. -1.
         21   -1    0    0  501  503 -0.00000000000E+00 -0.00000000000E+00 -0.64436739386E+03  0.64436739386E+03  0.00000000000E+00 0.  1.
          6    1    1    2  501    0  0.80593190734E+02  0.92461753685E+02 -0.35997945557E+03  0.41780216217E+03  0.17300000000E+03 0.  1.
         -6    1    1    2    0  502 -0.80593190734E+02 -0.92461753685E+02 -0.21146723058E+03  0.29948593940E+03  0.17300000000E+03 0.  1.
<mgrwt>
<rscale>  2 0.21206942E+03</rscale>
<asrwt>0</asrwt>
<pdfrwt beam="1">  1       21 0.11218571E-01 0.21206942E+03</pdfrwt>
<pdfrwt beam="2">  1       21 0.99133441E-01 0.21206942E+03</pdfrwt>
<totfact> 0.54927987E+04</totfact>
</mgrwt>
</event>
<event>
 4    1  0.4327903E+000  0.2000964E+03  0.7546771E-02  0.1149658E+00
         21   -1    0    0  501  502  0.00000000000E+00  0.00000000000E+00  0.11468734598E+03  0.11468734598E+03  0.00000000000E+00 0.  1.
         21   -1    0    0  502  503 -0.00000000000E+00 -0.00000000000E+00 -0.49621212191E+03  0.49621212191E+03  0.00000000000E+00 0. -1.
          6    1    1    2  501    0  0.20210992648E+02  0.98494065499E+02 -0.24453795422E+02  0.20158510181E+03  0.17300000000E+03 0.  1.
         -6    1    1    2    0  503 -0.20210992648E+02 -0.98494065499E+02 -0.35707098050E+03  0.40931436608E+03  0.17300000000E+03 0. -1.
<mgrwt>
<rscale>  2 0.20009639E+03</rscale>
<asrwt>0</asrwt>
<pdfrwt beam="1">  1       21 0.17644207E-01 0.20009639E+03</pdfrwt>
<pdfrwt beam="2">  1       21 0.76340328E-01 0.20009639E+03</pdfrwt>
<totfact> 0.44346749E+04</totfact>
</mgrwt>
</event>
<event>
 4    1  0.4327903E+000  0.2460469E+03  0.7546771E-02  0.1115829E+00
         21   -1    0    0  503  502  0.00000000000E+00  0.00000000000E+00  0.14390156847E+03  0.14390156847E+03  0.00000000000E+00 0.  1.
         21   -1    0    0  501  503 -0.00000000000E+00 -0.00000000000E+00 -0.42071601510E+03  0.42071601510E+03  0.00000000000E+00 0. -1.
          6    1    1    2  501    0  0.10624939655E+03  0.13900060185E+03 -0.13655970947E+03  0.28140301319E+03  0.17300000000E+03 0. -1.
         -6    1    1    2    0  502 -0.10624939655E+03 -0.13900060185E+03 -0.14025473716E+03  0.28321457038E+03  0.17300000000E+03 0.  1.
<mgrwt>
<rscale>  2 0.24604695E+03</rscale>
<asrwt>0</asrwt>
<pdfrwt beam="1">  1       21 0.22138704E-01 0.24604695E+03</pdfrwt>
<pdfrwt beam="2">  1       21 0.64725539E-01 0.24604695E+03</pdfrwt>
<totfact> 0.40910672E+04</totfact>
</mgrwt>
</event>
<event>
 4    1  0.4327903E+000  0.2236444E+03  0.7546771E-02  0.1131195E+00
         21   -1    0    0  503  502  0.00000000000E+00  0.00000000000E+00  0.82637650160E+03  0.82637650160E+03  0.00000000000E+00 0. -1.
         21   -1    0    0  501  503 -0.00000000000E+00 -0.00000000000E+00 -0.61846390068E+02  0.61846390068E+02  0.00000000000E+00 0. -1.
          6    1    1    2  501    0  0.77722658694E+01  0.14151825785E+03  0.31736079557E+03  0.38824566963E+03  0.17300000000E+03 0. -1.
         -6    1    1    2    0  502 -0.77722658694E+01 -0.14151825785E+03  0.44716931596E+03  0.49997722204E+03  0.17300000000E+03 0. -1.
<mgrwt>
<rscale>  2 0.22364442E+03</rscale>
<asrwt>0</asrwt>
<pdfrwt beam="1">  1       21 0.12713484E+00 0.22364442E+03</pdfrwt>
<pdfrwt beam="2">  1       21 0.95148299E-02 0.22364442E+03</pdfrwt>
<totfact> 0.39822079E+04</totfact>
</mgrwt>
</event>
<event>
 4    1  0.4327903E+000  0.1759503E+03  0.7546771E-02  0.1171781E+00
         21   -1    0    0  501  502  0.00000000000E+00  0.00000000000E+00  0.51018544940E+03  0.51018544940E+03  0.00000000000E+00 0. -1.
         21   -1    0    0  502  503 -0.00000000000E+00 -0.00000000000E+00 -0.62174412757E+02  0.62174412757E+02  0.00000000000E+00 0. -1.
          6    1    1    2  501    0  0.30695548862E+02 -0.93427640369E+01  0.26836027036E+03  0.32089833074E+03  0.17300000000E+03 0. -1.
         -6    1    1    2    0  503 -0.30695548862E+02  0.93427640369E+01  0.17965076628E+03  0.25146153142E+03  0.17300000000E+03 0. -1.
<mgrwt>
<rscale>  2 0.17595029E+03</rscale>
<asrwt>0</asrwt>
<pdfrwt beam="1">  1       21 0.78490066E-01 0.17595029E+03</pdfrwt>
<pdfrwt beam="2">  1       21 0.95652946E-02 0.17595029E+03</pdfrwt>
<totfact> 0.12677846E+05</totfact>
</mgrwt>
</event>
<event>
 4    1  0.4327903E+000  0.2026623E+03  0.7546771E-02  0.1147512E+00
         21   -1    0    0  503  502  0.00000000000E+00  0.00000000000E+00  0.57943542691E+02  0.57943542691E+02  0.00000000000E+00 0.  1.
         21   -1    0    0  501  503 -0.00000000000E+00 -0.00000000000E+00 -0.74137937454E+03  0.74137937454E+03  0.00000000000E+00 0. -1.
          6    1    1    2  501    0  0.65517966424E+02 -0.82767184414E+02 -0.42546237459E+03  0.47126451483E+03  0.17300000000E+03 0. -1.
         -6    1    1    2    0  502 -0.65517966424E+02  0.82767184414E+02 -0.25797345726E+03  0.32805840240E+03  0.17300000000E+03 0.  1.
<mgrwt>
<rscale>  2 0.20266231E+03</rscale>
<asrwt>0</asrwt>
<pdfrwt beam="1">  1       21 0.89143913E-02 0.20266231E+03</pdfrwt>
<pdfrwt beam="2">  1       21 0.11405836E+00 0.20266231E+03</pdfrwt>
<totfact> 0.59113293E+04</totfact>
</mgrwt>
</event>
<event>
 4    1  0.4327903E+000  0.2095413E+03  0.7546771E-02  0.1141930E+00
         21   -1    0    0  501  502  0.00000000000E+00  0.00000000000E+00  0.10394755003E+03  0.10394755003E+03  0.00000000000E+00 0.  1.
         21   -1    0    0  502  503 -0.00000000000E+00 -0.00000000000E+00 -0.78900923115E+03  0.78900923115E+03  0.00000000000E+00 0. -1.
          6    1    1    2  501    0  0.11811666419E+03  0.51982423862E+01 -0.38189885340E+02  0.21299304079E+03  0.17300000000E+03 0.  1.
         -6    1    1    2    0  503 -0.11811666419E+03 -0.51982423862E+01 -0.64687179578E+03  0.67996374040E+03  0.17300000000E+03 0. -1.
<mgrwt>
<rscale>  2 0.20954133E+03</rscale>
<asrwt>0</asrwt>
<pdfrwt beam="1">  1       21 0.15991931E-01 0.20954133E+03</pdfrwt>
<pdfrwt beam="2">  1       21 0.12138604E+00 0.20954133E+03</pdfrwt>
<totfact> 0.17717922E+04</totfact>
</mgrwt>
</event>
<event>
 4    1  0.4327903E+000  0.3058719E+03  0.7546771E-02  0.1082342E+00
         21   -1    0    0  501  502  0.00000000000E+00  0.00000000000E+00  0.20466110016E+03  0.20466110016E+03  0.00000000000E+00 0.  1.
         21   -1    0    0  502  503 -0.00000000000E+00 -0.00000000000E+00 -0.48971001101E+03  0.48971001101E+03  0.00000000000E+00 0. -1.
          6    1    1    2  501    0  0.24108865642E+03 -0.74194825827E+02 -0.23206897058E+03  0.38394481314E+03  0.17300000000E+03 0. -1.
         -6    1    1    2    0  503 -0.24108865642E+03  0.74194825827E+02 -0.52979940276E+02  0.31042629802E+03  0.17300000000E+03 0.  1.
<mgrwt>
<rscale>  2 0.30587189E+03</rscale>
<asrwt>0</asrwt>
<pdfrwt beam="1">  1       21 0.31486323E-01 0.30587189E+03</pdfrwt>
<pdfrwt beam="2">  1       21 0.75340002E-01 0.30587189E+03</pdfrwt>
<totfact> 0.14380774E+04</totfact>
</mgrwt>
</event>
<event>
 4    1  0.4327903E+000  0.1868195E+03  0.7546771E-02  0.1161362E+00
         21   -1    0    0  501  502  0.00000000000E+00  0.00000000000E+00  0.26456347142E+03  0.26456347142E+03  0.00000000000E+00 0.  1.
         21   -1    0    0  502  503 -0.00000000000E+00 -0.00000000000E+00 -0.25580424421E+03  0.25580424421E+03  0.00000000000E+00 0.  1.
          6    1    1    2  501    0 -0.41648439398E+02  0.56902996075E+02  0.18544370316E+03  0.26323166700E+03  0.17300000000E+03 0.  1.
         -6    1    1    2    0  503  0.41648439398E+02 -0.56902996075E+02 -0.17668447595E+03  0.25713604864E+03  0.17300000000E+03 0.  1.
<mgrwt>
<rscale>  2 0.18681955E+03</rscale>
<asrwt>0</asrwt>
<pdfrwt beam="1">  1       21 0.40702072E-01 0.18681955E+03</pdfrwt>
<pdfrwt beam="2">  1       21 0.39354499E-01 0.18681955E+03</pdfrwt>
<totfact> 0.36305020E+04</totfact>
</mgrwt>
</event>
<event>
 4    1  0.4327903E+000  0.2479763E+03  0.7546771E-02  0.1114590E+00
         21   -1    0    0  501  502  0.00000000000E+00  0.00000000000E+00  0.13288190381E+04  0.13288190381E+04  0.00000000000E+00 0.  1.
         21   -1    0    0  502  503 -0.00000000000E+00 -0.00000000000E+00 -0.94025750133E+02  0.94025750133E+02  0.00000000000E+00 0. -1.
          6    1    1    2  501    0 -0.13733661980E+03  0.11270271647E+03  0.11243760255E+04  0.11513964114E+04  0.17300000000E+03 0.  1.
         -6    1    1    2    0  503  0.13733661980E+03 -0.11270271647E+03  0.11041726246E+03  0.27144837683E+03  0.17300000000E+03 0. -1.
<mgrwt>
<rscale>  2 0.24797631E+03</rscale>
<asrwt>0</asrwt>
<pdfrwt beam="1">  1       21 0.20443369E+00 0.24797631E+03</pdfrwt>
<pdfrwt beam="2">  1       21 0.14465501E-01 0.24797631E+03</pdfrwt>
<totfact> 0.50323331E+03</totfact>
</mgrwt>
</event>
<event>
 4    1  0.4327903E+000  0.3173491E+03  0.7546771E-02  0.1076876E+00
         21   -1    0    0  501  502  0.00000000000E+00  0.00000000000E+00  0.26259270474E+04  0.26259270474E+04  0.00000000000E+00 0.  1.
         21   -1    0    0  502  503 -0.00000000000E+00 -0.00000000000E+00 -0.39497502336E+02  0.39497502336E+02  0.00000000000E+00 0.  1.
          6    1    1    2  501    0 -0.23113165589E+02  0.26504196391E+03  0.15201406845E+04  0.15529127992E+04  0.17300000000E+03 0.  1.
         -6    1    1    2    0  503  0.23113165589E+02 -0.26504196391E+03  0.10662888606E+04  0.11125117506E+04  0.17300000000E+03 0.  1.
<mgrwt>
<rscale>  2 0.31734912E+03</rscale>
<asrwt>0</asrwt>
<pdfrwt beam="1">  1       21 0.40398864E+00 0.31734912E+03</pdfrwt>
<pdfrwt beam="2">  1       21 0.60765409E-02 0.31734912E+03</pdfrwt>
<totfact> 0.13761227E+03</totfact>
</mgrwt>
</event>
<event>
 4    1  0.4327903E+000  0.2124851E+03  0.7546771E-02  0.1139613E+00
         21   -1    0    0  501  502  0.00000000000E+00  0.00000000000E+00  0.16431490841E+03  0.16431490841E+03  0.00000000000E+00 0.  1.
         21   -1    0    0  502  503 -0.00000000000E+00 -0.00000000000E+00 -0.35579717266E+03  0.35579717266E+03  0.00000000000E+00 0.  1.
          6    1    1    2  501    0  0.68982554512E+02  0.10228544327E+03 -0.21983866396E+03  0.30574326306E+03  0.17300000000E+03 0.  1.
         -6    1    1    2    0  503 -0.68982554512E+02 -0.10228544327E+03  0.28356399719E+02  0.21436881801E+03  0.17300000000E+03 0.  1.
<mgrwt>
<rscale>  2 0.21248507E+03</rscale>
<asrwt>0</asrwt>
<pdfrwt beam="1">  1       21 0.25279217E-01 0.21248507E+03</pdfrwt>
<pdfrwt beam="2">  1       21 0.54738027E-01 0.21248507E+03</pdfrwt>
<totfact> 0.46269467E+04</totfact>
</mgrwt>
</event>
<event>
 4    1  0.4327903E+000  0.1850347E+03  0.7546771E-02  0.1163018E+00
         21   -1    0    0  503  502  0.00000000000E+00  0.00000000000E+00  0.34600728080E+03  0.34600728080E+03  0.00000000000E+00 0. -1.
         21   -1    0    0  501  503 -0.00000000000E+00 -0.00000000000E+00 -0.99971751655E+02  0.99971751655E+02  0.00000000000E+00 0.  1.
          6    1    1    2  501    0 -0.55680437779E+02  0.34763661680E+02  0.10048726272E+03  0.21055999927E+03  0.17300000000E+03 0.  1.
         -6    1    1    2    0  502  0.55680437779E+02 -0.34763661680E+02  0.14554826642E+03  0.23541903318E+03  0.17300000000E+03 0. -1.
<mgrwt>
<rscale>  2 0.18503465E+03</rscale>
<asrwt>0</asrwt>
<pdfrwt beam="1">  1       21 0.53231889E-01 0.18503465E+03</pdfrwt>
<pdfrwt beam="2">  1       21 0.15380270E-01 0.18503465E+03</pdfrwt>
<totfact> 0.12558046E+05</totfact>
</mgrwt>
</event>
<event>
 4    1  0.4327903E+000  0.2745371E+03  0.7546771E-02  0.1098711E+00
         21   -1    0    0  503  502  0.00000000000E+00  0.00000000000E+00  0.19614575991E+03  0.19614575991E+03  0.00000000000E+00 0.  1.
         21   -1    0    0  501  503 -0.00000000000E+00 -0.00000000000E+00 -0.38455080737E+03  0.38455080737E+03  0.00000000000E+00 0.  1.
          6    1    1    2  501    0  0.50503914168E+02 -0.20710137372E+03 -0.10221111057E+03  0.29294664269E+03  0.17300000000E+03 0.  1.
         -6    1    1    2    0  502 -0.50503914168E+02  0.20710137372E+03 -0.86193936893E+02  0.28774992458E+03  0.17300000000E+03 0.  1.
<mgrwt>
<rscale>  2 0.27453711E+03</rscale>
<asrwt>0</asrwt>
<pdfrwt beam="1">  1       21 0.30176271E-01 0.27453711E+03</pdfrwt>
<pdfrwt beam="2">  1       21 0.59161662E-01 0.27453711E+03</pdfrwt>
<totfact> 0.27032834E+04</totfact>
</mgrwt>
</event>
<event>
 4    1  0.4327903E+000  0.2119072E+03  0.7546771E-02  0.1140065E+00
         21   -1    0    0  503  502  0.00000000000E+00  0.00000000000E+00  0.29006118751E+03  0.29006118751E+03  0.00000000000E+00 0. -1.
         21   -1    0    0  501  503 -0.00000000000E+00 -0.00000000000E+00 -0.16746145729E+03  0.16746145729E+03  0.00000000000E+00 0. -1.
          6    1    1    2  501    0 -0.89305909205E+02 -0.83666590906E+02 -0.15753351319E+01  0.21191301407E+03  0.17300000000E+03 0. -1.
         -6    1    1    2    0  502  0.89305909205E+02  0.83666590906E+02  0.12417506535E+03  0.24560963073E+03  0.17300000000E+03 0. -1.
<mgrwt>
<rscale>  2 0.21190716E+03</rscale>
<asrwt>0</asrwt>
<pdfrwt beam="1">  1       21 0.44624798E-01 0.21190716E+03</pdfrwt>
<pdfrwt beam="2">  1       21 0.25763301E-01 0.21190716E+03</pdfrwt>
<totfact> 0.68351506E+04</totfact>
</mgrwt>
</event>
<event>
 4    1  0.4327903E+000  0.1936837E+03  0.7546771E-02  0.1155180E+00
         21   -1    0    0  503  502  0.00000000000E+00  0.00000000000E+00  0.29221778900E+03  0.29221778900E+03  0.00000000000E+00 0. -1.
         21   -1    0    0  501  503 -0.00000000000E+00 -0.00000000000E+00 -0.13357613051E+03  0.13357613051E+03  0.00000000000E+00 0. -1.
          6    1    1    2  501    0  0.23537359921E+02  0.83847192567E+02  0.37309333643E+02  0.19724437987E+03  0.17300000000E+03 0. -1.
         -6    1    1    2    0  502 -0.23537359921E+02 -0.83847192567E+02  0.12133232485E+03  0.22854953963E+03  0.17300000000E+03 0. -1.
<mgrwt>
<rscale>  2 0.19368366E+03</rscale>
<asrwt>0</asrwt>
<pdfrwt beam="1">  1       21 0.44956583E-01 0.19368366E+03</pdfrwt>
<pdfrwt beam="2">  1       21 0.20550174E-01 0.19368366E+03</pdfrwt>
<totfact> 0.10414047E+05</totfact>
</mgrwt>
</event>
<event>
 4    1  0.4327903E+000  0.2168288E+03  0.7546771E-02  0.1136270E+00
         21   -1    0    0  503  502  0.00000000000E+00  0.00000000000E+00  0.13326684221E+03  0.13326684221E+03  0.00000000000E+00 0. -1.
         21   -1    0    0  501  503 -0.00000000000E+00 -0.00000000000E+00 -0.35872241337E+03  0.35872241337E+03  0.00000000000E+00 0. -1.
          6    1    1    2  501    0  0.38571676653E+02 -0.12489179757E+03 -0.81083725589E+02  0.23149364116E+03  0.17300000000E+03 0. -1.
         -6    1    1    2    0  502 -0.38571676653E+02  0.12489179757E+03 -0.14437184557E+03  0.26049561443E+03  0.17300000000E+03 0. -1.
<mgrwt>
<rscale>  2 0.21682882E+03</rscale>
<asrwt>0</asrwt>
<pdfrwt beam="1">  1       21 0.20502591E-01 0.21682882E+03</pdfrwt>
<pdfrwt beam="2">  1       21 0.55188063E-01 0.21682882E+03</pdfrwt>
<totfact> 0.67511863E+04</totfact>
</mgrwt>
</event>
<event>
 4    1  0.4327903E+000  0.2212072E+03  0.7546771E-02  0.1132986E+00
         21   -1    0    0  501  502  0.00000000000E+00  0.00000000000E+00  0.49660490943E+03  0.49660490943E+03  0.00000000000E+00 0.  1.
         21   -1    0    0  502  503 -0.00000000000E+00 -0.00000000000E+00 -0.18689143763E+03  0.18689143763E+03  0.00000000000E+00 0. -1.
          6    1    1    2  501    0 -0.12921045224E+03  0.48044827346E+02  0.38983742552E+03  0.44822523884E+03  0.17300000000E+03 0.  1.
         -6    1    1    2    0  503  0.12921045224E+03 -0.48044827346E+02 -0.80123953714E+02  0.23527110822E+03  0.17300000000E+03 0. -1.
<mgrwt>
<rscale>  2 0.22120725E+03</rscale>
<asrwt>0</asrwt>
<pdfrwt beam="1">  1       21 0.76400755E-01 0.22120725E+03</pdfrwt>
<pdfrwt beam="2">  1       21 0.28752529E-01 0.22120725E+03</pdfrwt>
<totfact> 0.17353155E+04</totfact>
</mgrwt>
</event>
<event>
 4    1  0.4327903E+000  0.1945703E+03  0.7546771E-02  0.1154403E+00
         21   -1    0    0  501  502  0.00000000000E+00  0.00000000000E+00  0.10935747850E+03  0.10935747850E+03  0.00000000000E+00 0. -1.
         21   -1    0    0  502  503 -0.00000000000E+00 -0.00000000000E+00 -0.36966761830E+03  0.36966761830E+03  0.00000000000E+00 0.  1.
          6    1    1    2  501    0  0.87365728740E+02 -0.17199669164E+02 -0.69784838214E+02  0.20670636861E+03  0.17300000000E+03 0. -1.
         -6    1    1    2    0  503 -0.87365728740E+02  0.17199669164E+02 -0.19052530159E+03  0.27231872819E+03  0.17300000000E+03 0.  1.
<mgrwt>
<rscale>  2 0.19457029E+03</rscale>
<asrwt>0</asrwt>
<pdfrwt beam="1">  1       21 0.16824227E-01 0.19457029E+03</pdfrwt>
<pdfrwt beam="2">  1       21 0.56871942E-01 0.19457029E+03</pdfrwt>
<totfact> 0.92320497E+04</totfact>
</mgrwt>
</event>
<event>
 4    1  0.4327903E+000  0.2868378E+03  0.7546771E-02  0.1092012E+00
         21   -1    0    0  501  502  0.00000000000E+00  0.00000000000E+00  0.66754933970E+03  0.66754933970E+03  0.00000000000E+00 0. -1.
         21   -1    0    0  502  503 -0.00000000000E+00 -0.00000000000E+00 -0.25538187353E+03  0.25538187353E+03  0.00000000000E+00 0. -1.
          6    1    1    2  501    0  0.22742063007E+03 -0.25035180620E+02  0.53801411042E+03  0.60970081701E+03  0.17300000000E+03 0. -1.
         -6    1    1    2    0  503 -0.22742063007E+03  0.25035180620E+02 -0.12584664424E+03  0.31323039622E+03  0.17300000000E+03 0. -1.
<mgrwt>
<rscale>  2 0.28683776E+03</rscale>
<asrwt>0</asrwt>
<pdfrwt beam="1">  1       21 0.10269990E+00 0.28683776E+03</pdfrwt>
<pdfrwt beam="2">  1       21 0.39289519E-01 0.28683776E+03</pdfrwt>
<totfact> 0.45163700E+03</totfact>
</mgrwt>
</event>
<event>
 4    1  0.4327903E+000  0.2002775E+03  0.7546771E-02  0.1149505E+00
         21   -1    0    0  503  502  0.00000000000E+00  0.00000000000E+00  0.18951422471E+04  0.18951422471E+04  0.00000000000E+00 0. -1.
         21   -1    0    0  501  503 -0.00000000000E+00 -0.00000000000E+00 -0.64805550032E+02  0.64805550032E+02  0.00000000000E+00 0.  1.
          6    1    1    2  501    0 -0.43795276654E+02 -0.90906810784E+02  0.11098978007E+03  0.22897555718E+03  0.17300000000E+03 0.  1.
         -6    1    1    2    0  502  0.43795276654E+02  0.90906810784E+02  0.17193469170E+04  0.17309722399E+04  0.17300000000E+03 0. -1.
<mgrwt>
<rscale>  2 0.20027749E+03</rscale>
<asrwt>0</asrwt>
<pdfrwt beam="1">  1       21 0.29156030E+00 0.20027749E+03</pdfrwt>
<pdfrwt beam="2">  1       21 0.99700860E-02 0.20027749E+03</pdfrwt>
<totfact> 0.30863184E+03</totfact>
</mgrwt>
</event>
<event>
 4    1  0.4327903E+000  0.1842388E+03  0.7546771E-02  0.1163763E+00
         21   -1    0    0  501  502  0.00000000000E+00  0.00000000000E+00  0.51952479396E+03  0.51952479396E+03  0.00000000000E+00 0.  1.
         21   -1    0    0  502  503 -0.00000000000E+00 -0.00000000000E+00 -0.88562582331E+02  0.88562582331E+02  0.00000000000E+00 0.  1.
          6    1    1    2  501    0 -0.57236037963E+02 -0.27183887725E+02  0.37118479663E+03  0.41439363055E+03  0.17300000000E+03 0.  1.
         -6    1    1    2    0  503  0.57236037963E+02  0.27183887725E+02  0.59777414997E+02  0.19369374574E+03  0.17300000000E+03 0.  1.
<mgrwt>
<rscale>  2 0.18423878E+03</rscale>
<asrwt>0</asrwt>
<pdfrwt beam="1">  1       21 0.79926890E-01 0.18423878E+03</pdfrwt>
<pdfrwt beam="2">  1       21 0.13625013E-01 0.18423878E+03</pdfrwt>
<totfact> 0.64608516E+04</totfact>
</mgrwt>
</event>
<event>
 4    1  0.4327903E+000  0.1794044E+03  0.7546771E-02  0.1168381E+00
         21   -1    0    0  501  502  0.00000000000E+00  0.00000000000E+00  0.18399759570E+03  0.18399759570E+03  0.00000000000E+00 0.  1.
         21   -1    0    0  502  503 -0.00000000000E+00 -0.00000000000E+00 -0.23064295404E+03  0.23064295404E+03  0.00000000000E+00 0.  1.
          6    1    1    2  501    0 -0.27956783032E+02  0.38410321313E+02  0.78575394933E+02  0.19585716017E+03  0.17300000000E+03 0. -1.
         -6    1    1    2    0  503  0.27956783032E+02 -0.38410321313E+02 -0.12522075327E+03  0.21878338957E+03  0.17300000000E+03 0. -1.
<mgrwt>
<rscale>  2 0.17940439E+03</rscale>
<asrwt>0</asrwt>
<pdfrwt beam="1">  1       21 0.28307323E-01 0.17940439E+03</pdfrwt>
<pdfrwt beam="2">  1       21 0.35483531E-01 0.17940439E+03</pdfrwt>
<totfact> 0.91818758E+04</totfact>
</mgrwt>
</event>
<event>
 4    1  0.4327903E+000  0.2326335E+03  0.7546771E-02  0.1124800E+00
         21   -1    0    0  503  502  0.00000000000E+00  0.00000000000E+00  0.21157466527E+03  0.21157466527E+03  0.00000000000E+00 0.  1.
         21   -1    0    0  501  503 -0.00000000000E+00 -0.00000000000E+00 -0.39449096825E+03  0.39449096825E+03  0.00000000000E+00 0.  1.
          6    1    1    2  501    0 -0.15141636949E+03  0.35530628678E+02 -0.27114380392E+03  0.35726363505E+03  0.17300000000E+03 0.  1.
         -6    1    1    2    0  502  0.15141636949E+03 -0.35530628678E+02  0.88227500939E+02  0.24880199848E+03  0.17300000000E+03 0.  1.
<mgrwt>
<rscale>  2 0.23263349E+03</rscale>
<asrwt>0</asrwt>
<pdfrwt beam="1">  1       21 0.32549949E-01 0.23263349E+03</pdfrwt>
<pdfrwt beam="2">  1       21 0.60690918E-01 0.23263349E+03</pdfrwt>
<totfact> 0.22459317E+04</totfact>
</mgrwt>
</event>
<event>
 4    1  0.4327903E+000  0.2544262E+03  0.7546771E-02  0.1110539E+00
         21   -1    0    0  503  502  0.00000000000E+00  0.00000000000E+00  0.73059690368E+02  0.73059690368E+02  0.00000000000E+00 0.  1.
         21   -1    0    0  501  503 -0.00000000000E+00 -0.00000000000E+00 -0.97710874301E+03  0.97710874301E+03  0.00000000000E+00 0. -1.
          6    1    1    2  501    0  0.18329472920E+03 -0.34737772256E+02 -0.61234142621E+03  0.66309478420E+03  0.17300000000E+03 0. -1.
         -6    1    1    2    0  502 -0.18329472920E+03  0.34737772256E+02 -0.29170762643E+03  0.38707364918E+03  0.17300000000E+03 0.  1.
<mgrwt>
<rscale>  2 0.25442616E+03</rscale>
<asrwt>0</asrwt>
<pdfrwt beam="1">  1       21 0.11239953E-01 0.25442616E+03</pdfrwt>
<pdfrwt beam="2">  1       21 0.15032441E+00 0.25442616E+03</pdfrwt>
<totfact> 0.18874350E+04</totfact>
</mgrwt>
</event>
<event>
 4    1  0.4327903E+000  0.2392985E+03  0.7546771E-02  0.1120261E+00
         21   -1    0    0  501  502  0.00000000000E+00  0.00000000000E+00  0.19706097505E+03  0.19706097505E+03  0.00000000000E+00 0.  1.
         21   -1    0    0  502  503 -0.00000000000E+00 -0.00000000000E+00 -0.43187339168E+03  0.43187339168E+03  0.00000000000E+00 0.  1.
          6    1    1    2  501    0  0.10176976325E+03 -0.13029847688E+03  0.62457687728E+02  0.24731506332E+03  0.17300000000E+03 0.  1.
         -6    1    1    2    0  503 -0.10176976325E+03  0.13029847688E+03 -0.29727010435E+03  0.38161930341E+03  0.17300000000E+03 0.  1.
<mgrwt>
<rscale>  2 0.23929851E+03</rscale>
<asrwt>0</asrwt>
<pdfrwt beam="1">  1       21 0.30317073E-01 0.23929851E+03</pdfrwt>
<pdfrwt beam="2">  1       21 0.66442059E-01 0.23929851E+03</pdfrwt>
<totfact> 0.21136351E+04</totfact>
</mgrwt>
</event>
<event>
 4    1  0.4327903E+000  0.2048824E+03  0.7546771E-02  0.1145684E+00
         21   -1    0    0  501  502  0.00000000000E+00  0.00000000000E+00  0.26450809665E+03  0.26450809665E+03  0.00000000000E+00 0.  1.
         21   -1    0    0  502  503 -0.00000000000E+00 -0.00000000000E+00 -0.19933286407E+03  0.19933286407E+03  0.00000000000E+00 0. -1.
          6    1    1    2  501    0 -0.86162755392E+02 -0.67998225821E+02  0.13730086064E+03  0.24663395035E+03  0.17300000000E+03 0.  1.
         -6    1    1    2    0  503  0.86162755392E+02  0.67998225821E+02 -0.72125628057E+02  0.21720701037E+03  0.17300000000E+03 0. -1.
<mgrwt>
<rscale>  2 0.20488235E+03</rscale>
<asrwt>0</asrwt>
<pdfrwt beam="1">  1       21 0.40693554E-01 0.20488235E+03</pdfrwt>
<pdfrwt beam="2">  1       21 0.30666594E-01 0.20488235E+03</pdfrwt>
<totfact> 0.59053866E+04</totfact>
</mgrwt>
</event>
<event>
 4    1  0.4327903E+000  0.2798727E+03  0.7546771E-02  0.1095758E+00
         21   -1    0    0  503  502  0.00000000000E+00  0.00000000000E+00  0.18595319824E+03  0.18595319824E+03  0.00000000000E+00 0.  1.
         21   -1    0    0  501  503 -0.00000000000E+00 -0.00000000000E+00 -0.60880928364E+03  0.60880928364E+03  0.00000000000E+00 0.  1.
          6    1    1    2  501    0  0.91619661134E+02 -0.20001396224E+03  0.91494249665E+01  0.28002224800E+03  0.17300000000E+03 0.  1.
         -6    1    1    2    0  502 -0.91619661134E+02  0.20001396224E+03 -0.43200551036E+03  0.51474023388E+03  0.17300000000E+03 0.  1.
<mgrwt>
<rscale>  2 0.27987273E+03</rscale>
<asrwt>0</asrwt>
<pdfrwt beam="1">  1       21 0.28608185E-01 0.27987273E+03</pdfrwt>
<pdfrwt beam="2">  1       21 0.93662965E-01 0.27987273E+03</pdfrwt>
<totfact> 0.10629522E+04</totfact>
</mgrwt>
</event>
<event>
 4    1  0.4327903E+000  0.2385600E+03  0.7546771E-02  0.1120756E+00
         21   -1    0    0  503  502  0.00000000000E+00  0.00000000000E+00  0.35576053124E+03  0.35576053124E+03  0.00000000000E+00 0.  1.
         21   -1    0    0  501  503 -0.00000000000E+00 -0.00000000000E+00 -0.16011057210E+03  0.16011057210E+03  0.00000000000E+00 0.  1.
          6    1    1    2  501    0  0.14435279583E+03  0.78384440443E+02  0.90169840108E+02  0.25503225332E+03  0.17300000000E+03 0.  1.
         -6    1    1    2    0  502 -0.14435279583E+03 -0.78384440443E+02  0.10548011903E+03  0.26083885002E+03  0.17300000000E+03 0.  1.
<mgrwt>
<rscale>  2 0.23855995E+03</rscale>
<asrwt>0</asrwt>
<pdfrwt beam="1">  1       21 0.54732389E-01 0.23855995E+03</pdfrwt>
<pdfrwt beam="2">  1       21 0.24632396E-01 0.23855995E+03</pdfrwt>
<totfact> 0.48074297E+04</totfact>
</mgrwt>
</event>
<event>
 4    1  0.4327903E+000  0.1739841E+03  0.7546771E-02  0.1173756E+00
         21   -1    0    0  503  502  0.00000000000E+00  0.00000000000E+00  0.44230988790E+03  0.44230988790E+03  0.00000000000E+00 0.  1.
         21   -1    0    0  501  503 -0.00000000000E+00 -0.00000000000E+00 -0.11799608309E+03  0.11799608309E+03  0.00000000000E+00 0.  1.
          6    1    1    2  501    0  0.18147967640E+02  0.34811732072E+01 -0.19403880065E+02  0.17506278262E+03  0.17300000000E+03 0.  1.
         -6    1    1    2    0  502 -0.18147967640E+02 -0.34811732072E+01  0.34371768487E+03  0.38524318837E+03  0.17300000000E+03 0.  1.
<mgrwt>
<rscale>  2 0.17398410E+03</rscale>
<asrwt>0</asrwt>
<pdfrwt beam="1">  1       21 0.68047674E-01 0.17398410E+03</pdfrwt>
<pdfrwt beam="2">  1       21 0.18153244E-01 0.17398410E+03</pdfrwt>
<totfact> 0.54981058E+04</totfact>
</mgrwt>
</event>
<event>
 4    1  0.4327903E+000  0.2553385E+03  0.7546771E-02  0.1109977E+00
         21   -1    0    0  503  502  0.00000000000E+00  0.00000000000E+00  0.61253197525E+03  0.61253197525E+03  0.00000000000E+00 0. -1.
         21   -1    0    0  501  503 -0.00000000000E+00 -0.00000000000E+00 -0.13278510149E+03  0.13278510149E+03  0.00000000000E+00 0. -1.
          6    1    1    2  501    0 -0.17577399350E+03 -0.66123079300E+02  0.73881003711E+02  0.26581226667E+03  0.17300000000E+03 0. -1.
         -6    1    1    2    0  502  0.17577399350E+03  0.66123079300E+02  0.40586587005E+03  0.47950481006E+03  0.17300000000E+03 0. -1.
<mgrwt>
<rscale>  2 0.25533852E+03</rscale>
<asrwt>0</asrwt>
<pdfrwt beam="1">  1       21 0.94235687E-01 0.25533852E+03</pdfrwt>
<pdfrwt beam="2">  1       21 0.20428477E-01 0.25533852E+03</pdfrwt>
<totfact> 0.20231086E+04</totfact>
</mgrwt>
</event>
<event>
 4    1  0.4327903E+000  0.2295577E+03  0.7546771E-02  0.1126951E+00
         21   -1    0    0  503  502  0.00000000000E+00  0.00000000000E+00  0.11721239276E+04  0.11721239276E+04  0.00000000000E+00 0.  1.
         21   -1    0    0  501  503 -0.00000000000E+00 -0.00000000000E+00 -0.50130501630E+02  0.50130501630E+02  0.00000000000E+00 0.  1.
          6    1    1    2  501    0 -0.37050550239E+02  0.14627031762E+03  0.36469841484E+03  0.43093118114E+03  0.17300000000E+03 0.  1.
         -6    1    1    2    0  502  0.37050550239E+02 -0.14627031762E+03  0.75729501116E+03  0.79132324812E+03  0.17300000000E+03 0.  1.
<mgrwt>
<rscale>  2 0.22955772E+03</rscale>
<asrwt>0</asrwt>
<pdfrwt beam="1">  1       21 0.18032674E+00 0.22955772E+03</pdfrwt>
<pdfrwt beam="2">  1       21 0.77123857E-02 0.22955772E+03</pdfrwt>
<totfact> 0.22584347E+04</totfact>
</mgrwt>
</event>
<event>
 4    1  0.4327903E+000  0.2246455E+03  0.7546771E-02  0.1130466E+00
         21   -1    0    0  503  502  0.00000000000E+00  0.00000000000E+00  0.17601272606E+03  0.17601272606E+03  0.00000000000E+00 0. -1.
         21   -1    0    0  501  503 -0.00000000000E+00 -0.00000000000E+00 -0.29628455856E+03  0.29628455856E+03  0.00000000000E+00 0.  1.
          6    1    1    2  501    0  0.59757338590E+02  0.13025234858E+03 -0.10257448916E+03  0.24695574432E+03  0.17300000000E+03 0.  1.
         -6    1    1    2    0  502 -0.59757338590E+02 -0.13025234858E+03 -0.17697343344E+02  0.22534154030E+03  0.17300000000E+03 0. -1.
<mgrwt>
<rscale>  2 0.22464553E+03</rscale>
<asrwt>0</asrwt>
<pdfrwt beam="1">  1       21 0.27078881E-01 0.22464553E+03</pdfrwt>
<pdfrwt beam="2">  1       21 0.45582240E-01 0.22464553E+03</pdfrwt>
<totfact> 0.59121090E+04</totfact>
</mgrwt>
</event>
<event>
 4    1  0.4327903E+000  0.2140624E+03  0.7546771E-02  0.1138389E+00
         21   -1    0    0  503  502  0.00000000000E+00  0.00000000000E+00  0.77406892951E+03  0.77406892951E+03  0.00000000000E+00 0.  1.
         21   -1    0    0  501  503 -0.00000000000E+00 -0.00000000000E+00 -0.59363044672E+02  0.59363044672E+02  0.00000000000E+00 0.  1.
          6    1    1    2  501    0  0.12277603913E+03 -0.28631524565E+02  0.33532766324E+03  0.39782830683E+03  0.17300000000E+03 0.  1.
         -6    1    1    2    0  502 -0.12277603913E+03  0.28631524565E+02  0.37937822160E+03  0.43560366735E+03  0.17300000000E+03 0.  1.
<mgrwt>
<rscale>  2 0.21406242E+03</rscale>
<asrwt>0</asrwt>
<pdfrwt beam="1">  1       21 0.11908752E+00 0.21406242E+03</pdfrwt>
<pdfrwt beam="2">  1       21 0.91327767E-02 0.21406242E+03</pdfrwt>
<totfact> 0.50670290E+04</totfact>
</mgrwt>
</event>
<event>
 4    1  0.4327903E+000  0.2164724E+03  0.7546771E-02  0.1136541E+00
         21   -1    0    0  501  502  0.00000000000E+00  0.00000000000E+00  0.47527268822E+03  0.47527268822E+03  0.00000000000E+00 0.  1.
         21   -1    0    0  502  503 -0.00000000000E+00 -0.00000000000E+00 -0.10046757951E+03  0.10046757951E+03  0.00000000000E+00 0.  1.
          6    1    1    2  501    0  0.31962508235E+02 -0.12613368371E+03  0.14811914896E+03  0.26229676015E+03  0.17300000000E+03 0.  1.
         -6    1    1    2    0  503 -0.31962508235E+02  0.12613368371E+03  0.22668595974E+03  0.31344350757E+03  0.17300000000E+03 0.  1.
<mgrwt>
<rscale>  2 0.21647242E+03</rscale>
<asrwt>0</asrwt>
<pdfrwt beam="1">  1       21 0.73118874E-01 0.21647242E+03</pdfrwt>
<pdfrwt beam="2">  1       21 0.15456551E-01 0.21647242E+03</pdfrwt>
<totfact> 0.61807256E+04</totfact>
</mgrwt>
</event>
<event>
 4    1  0.4327903E+000  0.1958616E+03  0.7546771E-02  0.1153278E+00
         21   -1    0    0  503  502  0.00000000000E+00  0.00000000000E+00  0.37413934121E+03  0.37413934121E+03  0.00000000000E+00 0.  1.
         21   -1    0    0  501  503 -0.00000000000E+00 -0.00000000000E+00 -0.17798130471E+03  0.17798130471E+03  0.00000000000E+00 0.  1.
          6    1    1    2  501    0 -0.79395705323E+02  0.46142206830E+02 -0.81659174570E+02  0.21220273812E+03  0.17300000000E+03 0.  1.
         -6    1    1    2    0  502  0.79395705323E+02 -0.46142206830E+02  0.27781721107E+03  0.33991790780E+03  0.17300000000E+03 0.  1.
<mgrwt>
<rscale>  2 0.19586164E+03</rscale>
<asrwt>0</asrwt>
<pdfrwt beam="1">  1       21 0.57559899E-01 0.19586164E+03</pdfrwt>
<pdfrwt beam="2">  1       21 0.27381739E-01 0.19586164E+03</pdfrwt>
<totfact> 0.35963602E+04</totfact>
</mgrwt>
</event>
<event>
 4    1  0.4327903E+000  0.2032481E+03  0.7546771E-02  0.1147027E+00
         21   -1    0    0  503  502  0.00000000000E+00  0.00000000000E+00  0.10683486339E+03  0.10683486339E+03  0.00000000000E+00 0.  1.
         21   -1    0    0  501  503 -0.00000000000E+00 -0.00000000000E+00 -0.83666432542E+03  0.83666432542E+03  0.00000000000E+00 0.  1.
          6    1    1    2  501    0 -0.10628695744E+03 -0.91590079710E+01 -0.71088563179E+03  0.73937012804E+03  0.17300000000E+03 0.  1.
         -6    1    1    2    0  502  0.10628695744E+03  0.91590079710E+01 -0.18943830245E+02  0.20412906078E+03  0.17300000000E+03 0.  1.
<mgrwt>
<rscale>  2 0.20324814E+03</rscale>
<asrwt>0</asrwt>
<pdfrwt beam="1">  1       21 0.16436133E-01 0.20324814E+03</pdfrwt>
<pdfrwt beam="2">  1       21 0.12871759E+00 0.20324814E+03</pdfrwt>
<totfact> 0.14603824E+04</totfact>
</mgrwt>
</event>
<event>
 4    1  0.4327903E+000  0.1828267E+03  0.7546771E-02  0.1165095E+00
         21   -1    0    0  503  502  0.00000000000E+00  0.00000000000E+00  0.28392333801E+02  0.28392333801E+02  0.00000000000E+00 0.  1.
         21   -1    0    0  501  503 -0.00000000000E+00 -0.00000000000E+00 -0.21242702702E+04  0.21242702702E+04  0.00000000000E+00 0.  1.
          6    1    1    2  501    0 -0.58158404907E+02  0.10686912375E+02 -0.17665845917E+04  0.17760199126E+04  0.17300000000E+03 0.  1.
         -6    1    1    2    0  502  0.58158404907E+02 -0.10686912375E+02 -0.32929334470E+03  0.37664269145E+03  0.17300000000E+03 0.  1.
<mgrwt>
<rscale>  2 0.18282672E+03</rscale>
<asrwt>0</asrwt>
<pdfrwt beam="1">  1       21 0.43680506E-02 0.18282672E+03</pdfrwt>
<pdfrwt beam="2">  1       21 0.32681086E+00 0.18282672E+03</pdfrwt>
<totfact> 0.81730146E+03</totfact>
</mgrwt>
</event>
<event>
 4    1  0.4327903E+000  0.2264482E+03  0.7546771E-02  0.1129165E+00
         21   -1    0    0  503  502  0.00000000000E+00  0.00000000000E+00  0.19358583745E+03  0.19358583745E+03  0.00000000000E+00 0.  1.
         21   -1    0    0  501  503 -0.00000000000E+00 -0.00000000000E+00 -0.30053940762E+03  0.30053940762E+03  0.00000000000E+00 0.  1.
          6    1    1    2  501    0  0.12796008250E+03 -0.70540904956E+02 -0.13856849055E+03  0.26548074988E+03  0.17300000000E+03 0.  1.
         -6    1    1    2    0  502 -0.12796008250E+03  0.70540904956E+02  0.31614920384E+02  0.22864449518E+03  0.17300000000E+03 0.  1.
<mgrwt>
<rscale>  2 0.22644823E+03</rscale>
<asrwt>0</asrwt>
<pdfrwt beam="1">  1       21 0.29782437E-01 0.22644823E+03</pdfrwt>
<pdfrwt beam="2">  1       21 0.46236832E-01 0.22644823E+03</pdfrwt>
<totfact> 0.47669964E+04</totfact>
</mgrwt>
</event>
<event>
 4    1  0.4327903E+000  0.2974095E+03  0.7546771E-02  0.1086543E+00
         21   -1    0    0  503  502  0.00000000000E+00  0.00000000000E+00  0.79108481611E+03  0.79108481611E+03  0.00000000000E+00 0. -1.
         21   -1    0    0  501  503 -0.00000000000E+00 -0.00000000000E+00 -0.13111747393E+03  0.13111747393E+03  0.00000000000E+00 0. -1.
          6    1    1    2  501    0 -0.18486588829E+03 -0.15603847693E+03  0.15304961065E+03  0.33447957525E+03  0.17300000000E+03 0. -1.
         -6    1    1    2    0  502  0.18486588829E+03  0.15603847693E+03  0.50691773153E+03  0.58772271479E+03  0.17300000000E+03 0. -1.
<mgrwt>
<rscale>  2 0.29740949E+03</rscale>
<asrwt>0</asrwt>
<pdfrwt beam="1">  1       21 0.12170535E+00 0.29740949E+03</pdfrwt>
<pdfrwt beam="2">  1       21 0.20171920E-01 0.29740949E+03</pdfrwt>
<totfact> 0.10894524E+04</totfact>
</mgrwt>
</event>
<event>
 4    1  0.4327903E+000  0.2419502E+03  0.7546771E-02  0.1118500E+00
         21   -1    0    0  503  502  0.00000000000E+00  0.00000000000E+00  0.25599501730E+03  0.25599501730E+03  0.00000000000E+00 0. -1.
         21   -1    0    0  501  503 -0.00000000000E+00 -0.00000000000E+00 -0.28096101560E+03  0.28096101560E+03  0.00000000000E+00 0. -1.
          6    1    1    2  501    0 -0.29788301114E+02 -0.16650394102E+03 -0.12830058366E+03  0.27386300412E+03  0.17300000000E+03 0. -1.
         -6    1    1    2    0  502  0.29788301114E+02  0.16650394102E+03  0.10333458536E+03  0.26309302878E+03  0.17300000000E+03 0. -1.
<mgrwt>
<rscale>  2 0.24195021E+03</rscale>
<asrwt>0</asrwt>
<pdfrwt beam="1">  1       21 0.39383849E-01 0.24195021E+03</pdfrwt>
<pdfrwt beam="2">  1       21 0.43224771E-01 0.24195021E+03</pdfrwt>
<totfact> 0.31197164E+04</totfact>
</mgrwt>
</event>
<event>
 4    1  0.4327903E+000  0.2148040E+03  0.7546771E-02  0.1137817E+00
         21   -1    0    0  501  502  0.00000000000E+00  0.00000000000E+00  0.25136664504E+03  0.25136664504E+03  0.00000000000E+00 0.  1.
         21   -1    0    0  502  503 -0.00000000000E+00 -0.00000000000E+00 -0.21861215161E+03  0.21861215161E+03  0.00000000000E+00 0.  1.
          6    1    1    2  501    0 -0.46420320997E+02 -0.11856179393E+03  0.11047328181E+03  0.24154728559E+03  0.17300000000E+03 0.  1.
         -6    1    1    2    0  503  0.46420320997E+02  0.11856179393E+03 -0.77718788375E+02  0.22843151106E+03  0.17300000000E+03 0.  1.
<mgrwt>
<rscale>  2 0.21480397E+03</rscale>
<asrwt>0</asrwt>
<pdfrwt beam="1">  1       21 0.38671792E-01 0.21480397E+03</pdfrwt>
<pdfrwt beam="2">  1       21 0.33632639E-01 0.21480397E+03</pdfrwt>
<totfact> 0.54338967E+04</totfact>
</mgrwt>
</event>
<event>
 4    1  0.4327903E+000  0.1999129E+03  0.7546771E-02  0.1149813E+00
         21   -1    0    0  501  502  0.00000000000E+00  0.00000000000E+00  0.51276152193E+02  0.51276152193E+02  0.00000000000E+00 0.  1.
         21   -1    0    0  502  503 -0.00000000000E+00 -0.00000000000E+00 -0.83660582420E+03  0.83660582420E+03  0.00000000000E+00 0.  1.
          6    1    1    2  501    0  0.62867786495E+02  0.77998694597E+02 -0.27658780643E+03  0.34127110865E+03  0.17300000000E+03 0.  1.
         -6    1    1    2    0  503 -0.62867786495E+02 -0.77998694597E+02 -0.50874186558E+03  0.54661086774E+03  0.17300000000E+03 0.  1.
<mgrwt>
<rscale>  2 0.19991287E+03</rscale>
<asrwt>0</asrwt>
<pdfrwt beam="1">  1       21 0.78886386E-02 0.19991287E+03</pdfrwt>
<pdfrwt beam="2">  1       21 0.12870859E+00 0.19991287E+03</pdfrwt>
<totfact> 0.54296232E+04</totfact>
</mgrwt>
</event>
<event>
 4    1  0.4327903E+000  0.2242941E+03  0.7546771E-02  0.1130722E+00
         21   -1    0    0  503  502  0.00000000000E+00  0.00000000000E+00  0.85169535067E+03  0.85169535067E+03  0.00000000000E+00 0.  1.
         21   -1    0    0  501  503 -0.00000000000E+00 -0.00000000000E+00 -0.10562323147E+03  0.10562323147E+03  0.00000000000E+00 0.  1.
          6    1    1    2  501    0 -0.25832375859E+02 -0.14039780053E+03  0.55252453215E+02  0.23099932386E+03  0.17300000000E+03 0.  1.
         -6    1    1    2    0  502  0.25832375859E+02  0.14039780053E+03  0.69081966599E+03  0.72631925828E+03  0.17300000000E+03 0.  1.
<mgrwt>
<rscale>  2 0.22429412E+03</rscale>
<asrwt>0</asrwt>
<pdfrwt beam="1">  1       21 0.13103005E+00 0.22429412E+03</pdfrwt>
<pdfrwt beam="2">  1       21 0.16249728E-01 0.22429412E+03</pdfrwt>
<totfact> 0.14062634E+04</totfact>
</mgrwt>
</event>
<event>
 4    1  0.4327903E+000  0.1860508E+03  0.7546771E-02  0.1162072E+00
         21   -1    0    0  503  502  0.00000000000E+00  0.00000000000E+00  0.58616445492E+02  0.58616445492E+02  0.00000000000E+00 0. -1.
         21   -1    0    0  501  503 -0.00000000000E+00 -0.00000000000E+00 -0.59124016012E+03  0.59124016012E+03  0.00000000000E+00 0. -1.
          6    1    1    2  501    0 -0.45748467231E+02  0.50921344125E+02 -0.27755462384E+03  0.33414289572E+03  0.17300000000E+03 0. -1.
         -6    1    1    2    0  502  0.45748467231E+02 -0.50921344125E+02 -0.25506909079E+03  0.31571370990E+03  0.17300000000E+03 0. -1.
<mgrwt>
<rscale>  2 0.18605081E+03</rscale>
<asrwt>0</asrwt>
<pdfrwt beam="1">  1       21 0.90179145E-02 0.18605081E+03</pdfrwt>
<pdfrwt beam="2">  1       21 0.90960027E-01 0.18605081E+03</pdfrwt>
<totfact> 0.10004718E+05</totfact>
</mgrwt>
</event>
<event>
 4    1  0.4327903E+000  0.2011152E+03  0.7546771E-02  0.1148801E+00
         21   -1    0    0  501  502  0.00000000000E+00  0.00000000000E+00  0.14853558224E+03  0.14853558224E+03  0.00000000000E+00 0.  1.
         21   -1    0    0  502  503 -0.00000000000E+00 -0.00000000000E+00 -0.48994208959E+03  0.48994208959E+03  0.00000000000E+00 0.  1.
          6    1    1    2  501    0 -0.10135838957E+03  0.15646544558E+02  0.42065283831E+02  0.20546733462E+03  0.17300000000E+03 0.  1.
         -6    1    1    2    0  503  0.10135838957E+03 -0.15646544558E+02 -0.38347179118E+03  0.43301033720E+03  0.17300000000E+03 0.  1.
<mgrwt>
<rscale>  2 0.20111523E+03</rscale>
<asrwt>0</asrwt>
<pdfrwt beam="1">  1       21 0.22851628E-01 0.20111523E+03</pdfrwt>
<pdfrwt beam="2">  1       21 0.75375706E-01 0.20111523E+03</pdfrwt>
<totfact> 0.28114098E+04</totfact>
</mgrwt>
</event>
<event>
 4    1  0.4327903E+000  0.2632326E+03  0.7546771E-02  0.1105216E+00
         21   -1    0    0  503  502  0.00000000000E+00  0.00000000000E+00  0.34352357865E+02  0.34352357865E+02  0.00000000000E+00 0. -1.
         21   -1    0    0  501  503 -0.00000000000E+00 -0.00000000000E+00 -0.20250723323E+04  0.20250723323E+04  0.00000000000E+00 0.  1.
          6    1    1    2  501    0  0.13789963607E+03  0.14263980257E+03 -0.10600529454E+04  0.10922470737E+04  0.17300000000E+03 0. -1.
         -6    1    1    2    0  502 -0.13789963607E+03 -0.14263980257E+03 -0.93066702908E+03  0.96717761653E+03  0.17300000000E+03 0.  1.
<mgrwt>
<rscale>  2 0.26323264E+03</rscale>
<asrwt>0</asrwt>
<pdfrwt beam="1">  1       21 0.52849789E-02 0.26323264E+03</pdfrwt>
<pdfrwt beam="2">  1       21 0.31154954E+00 0.26323264E+03</pdfrwt>
<totfact> 0.66877738E+03</totfact>
</mgrwt>
</event>
<event>
 4    1  0.4327903E+000  0.2283404E+03  0.7546771E-02  0.1127813E+00
         21   -1    0    0  503  502  0.00000000000E+00  0.00000000000E+00  0.30361958570E+03  0.30361958570E+03  0.00000000000E+00 0.  1.
         21   -1    0    0  501  503 -0.00000000000E+00 -0.00000000000E+00 -0.31442297907E+03  0.31442297907E+03  0.00000000000E+00 0.  1.
          6    1    1    2  501    0  0.12338895920E+03 -0.83579187897E+02 -0.21358166925E+03  0.31266027145E+03  0.17300000000E+03 0.  1.
         -6    1    1    2    0  502 -0.12338895920E+03  0.83579187897E+02  0.20277827588E+03  0.30538229332E+03  0.17300000000E+03 0.  1.
<mgrwt>
<rscale>  2 0.22834035E+03</rscale>
<asrwt>0</asrwt>
<pdfrwt beam="1">  1       21 0.46710706E-01 0.22834035E+03</pdfrwt>
<pdfrwt beam="2">  1       21 0.48372766E-01 0.22834035E+03</pdfrwt>
<totfact> 0.17540612E+04</totfact>
</mgrwt>
</event>
<event>
 4    1  0.4327903E+000  0.2027734E+03  0.7546771E-02  0.1147420E+00
         21   -1    0    0  501  502  0.00000000000E+00  0.00000000000E+00  0.94519079955E+03  0.94519079955E+03  0.00000000000E+00 0. -1.
         21   -1    0    0  502  503 -0.00000000000E+00 -0.00000000000E+00 -0.78539908483E+02  0.78539908483E+02  0.00000000000E+00 0. -1.
          6    1    1    2  501    0 -0.81193967859E+01 -0.10546141575E+03  0.77521349736E+03  0.80129457836E+03  0.17300000000E+03 0. -1.
         -6    1    1    2    0  503  0.81193967859E+01  0.10546141575E+03  0.91437393705E+02  0.22243612967E+03  0.17300000000E+03 0. -1.
<mgrwt>
<rscale>  2 0.20277336E+03</rscale>
<asrwt>0</asrwt>
<pdfrwt beam="1">  1       21 0.14541396E+00 0.20277336E+03</pdfrwt>
<pdfrwt beam="2">  1       21 0.12083064E-01 0.20277336E+03</pdfrwt>
<totfact> 0.18665862E+04</totfact>
</mgrwt>
</event>
<event>
 4    1  0.4327903E+000  0.1887842E+03  0.7546771E-02  0.1159563E+00
         21   -1    0    0  503  502  0.00000000000E+00  0.00000000000E+00  0.25767340453E+03  0.25767340453E+03  0.00000000000E+00 0.  1.
         21   -1    0    0  501  503 -0.00000000000E+00 -0.00000000000E+00 -0.13874656727E+03  0.13874656727E+03  0.00000000000E+00 0.  1.
          6    1    1    2  501    0 -0.29258429576E+02  0.69673601710E+02  0.70549199806E+02  0.20153574390E+03  0.17300000000E+03 0.  1.
         -6    1    1    2    0  502  0.29258429576E+02 -0.69673601710E+02  0.48377637457E+02  0.19488422790E+03  0.17300000000E+03 0.  1.
<mgrwt>
<rscale>  2 0.18878418E+03</rscale>
<asrwt>0</asrwt>
<pdfrwt beam="1">  1       21 0.39642062E-01 0.18878418E+03</pdfrwt>
<pdfrwt beam="2">  1       21 0.21345626E-01 0.18878418E+03</pdfrwt>
<totfact> 0.12549617E+05</totfact>
</mgrwt>
</event>
<event>
 4    1  0.4327903E+000  0.2191646E+03  0.7546771E-02  0.1134507E+00
         21   -1    0    0  503  502  0.00000000000E+00  0.00000000000E+00  0.30346737480E+03  0.30346737480E+03  0.00000000000E+00 0.  1.
         21   -1    0    0  501  503 -0.00000000000E+00 -0.00000000000E+00 -0.30945777159E+03  0.30945777159E+03  0.00000000000E+00 0.  1.
          6    1    1    2  501    0 -0.12453187654E+03 -0.50950343103E+02 -0.21719509206E+03  0.30855604637E+03  0.17300000000E+03 0.  1.
         -6    1    1    2    0  502  0.12453187654E+03  0.50950343103E+02  0.21120469527E+03  0.30436910001E+03  0.17300000000E+03 0.  1.
<mgrwt>
<rscale>  2 0.21916461E+03</rscale>
<asrwt>0</asrwt>
<pdfrwt beam="1">  1       21 0.46687288E-01 0.21916461E+03</pdfrwt>
<pdfrwt beam="2">  1       21 0.47608888E-01 0.21916461E+03</pdfrwt>
<totfact> 0.18242542E+04</totfact>
</mgrwt>
</event>
<event>
 4    1  0.4327903E+000  0.1771716E+03  0.7546771E-02  0.1170569E+00
         21   -1    0    0  503  502  0.00000000000E+00  0.00000000000E+00  0.16942938134E+03  0.16942938134E+03  0.00000000000E+00 0. -1.
         21   -1    0    0  501  503 -0.00000000000E+00 -0.00000000000E+00 -0.31605021893E+03  0.31605021893E+03  0.00000000000E+00 0. -1.
          6    1    1    2  501    0  0.10856241257E+02 -0.36645870661E+02 -0.22945895891E+03  0.28989858853E+03  0.17300000000E+03 0. -1.
         -6    1    1    2    0  502 -0.10856241257E+02  0.36645870661E+02  0.82838121309E+02  0.19558101174E+03  0.17300000000E+03 0. -1.
<mgrwt>
<rscale>  2 0.17717161E+03</rscale>
<asrwt>0</asrwt>
<pdfrwt beam="1">  1       21 0.26066059E-01 0.17717161E+03</pdfrwt>
<pdfrwt beam="2">  1       21 0.48623110E-01 0.17717161E+03</pdfrwt>
<totfact> 0.56871860E+04</totfact>
</mgrwt>
</event>
<event>
 4    1  0.4327903E+000  0.1892987E+03  0.7546771E-02  0.1159095E+00
         21   -1    0    0  501  502  0.00000000000E+00  0.00000000000E+00  0.15449497088E+04  0.15449497088E+04  0.00000000000E+00 0.  1.
         21   -1    0    0  502  503 -0.00000000000E+00 -0.00000000000E+00 -0.26953130637E+02  0.26953130637E+02  0.00000000000E+00 0.  1.
          6    1    1    2  501    0 -0.42533689580E+02 -0.63999157078E+02  0.10525051300E+04  0.10693928444E+04  0.17300000000E+03 0.  1.
         -6    1    1    2    0  503  0.42533689580E+02  0.63999157078E+02  0.46549144814E+03  0.50250999507E+03  0.17300000000E+03 0.  1.
<mgrwt>
<rscale>  2 0.18929872E+03</rscale>
<asrwt>0</asrwt>
<pdfrwt beam="1">  1       21 0.23768450E+00 0.18929872E+03</pdfrwt>
<pdfrwt beam="2">  1       21 0.41466367E-02 0.18929872E+03</pdfrwt>
<totfact> 0.29089297E+04</totfact>
</mgrwt>
</event>
<event>
 4    1  0.4327903E+000  0.1974100E+03  0.7546771E-02  0.1151943E+00
         21   -1    0    0  501  502  0.00000000000E+00  0.00000000000E+00  0.37808618741E+03  0.37808618741E+03  0.00000000000E+00 0. -1.
         21   -1    0    0  502  503 -0.00000000000E+00 -0.00000000000E+00 -0.16785165144E+03  0.16785165144E+03  0.00000000000E+00 0. -1.
          6    1    1    2  501    0 -0.67974498764E+02 -0.66491955767E+02  0.27469321788E+03  0.33827071498E+03  0.17300000000E+03 0. -1.
         -6    1    1    2    0  503  0.67974498764E+02  0.66491955767E+02 -0.64458681913E+02  0.20766712387E+03  0.17300000000E+03 0. -1.
<mgrwt>
<rscale>  2 0.19741001E+03</rscale>
<asrwt>0</asrwt>
<pdfrwt beam="1">  1       21 0.58167106E-01 0.19741001E+03</pdfrwt>
<pdfrwt beam="2">  1       21 0.25823331E-01 0.19741001E+03</pdfrwt>
<totfact> 0.39327770E+04</totfact>
</mgrwt>
</event>
<event>
 4    1  0.4327903E+000  0.2538194E+03  0.7546771E-02  0.1110915E+00
         21   -1    0    0  503  502  0.00000000000E+00  0.00000000000E+00  0.42416906066E+03  0.42416906066E+03  0.00000000000E+00 0. -1.
         21   -1    0    0  501  503 -0.00000000000E+00 -0.00000000000E+00 -0.18815947460E+03  0.18815947460E+03  0.00000000000E+00 0.  1.
          6    1    1    2  501    0  0.62116904164E+01  0.18562513012E+03 -0.16426726425E+02  0.25435037128E+03  0.17300000000E+03 0.  1.
         -6    1    1    2    0  502 -0.62116904164E+01 -0.18562513012E+03  0.25243631249E+03  0.35797816399E+03  0.17300000000E+03 0. -1.
<mgrwt>
<rscale>  2 0.25381937E+03</rscale>
<asrwt>0</asrwt>
<pdfrwt beam="1">  1       21 0.65256778E-01 0.25381937E+03</pdfrwt>
<pdfrwt beam="2">  1       21 0.28947612E-01 0.25381937E+03</pdfrwt>
<totfact> 0.23904475E+04</totfact>
</mgrwt>
</event>
<event>
 4    1  0.4327903E+000  0.2368124E+03  0.7546771E-02  0.1121935E+00
         21   -1    0    0  501  502  0.00000000000E+00  0.00000000000E+00  0.13365394286E+03  0.13365394286E+03  0.00000000000E+00 0.  1.
         21   -1    0    0  502  503 -0.00000000000E+00 -0.00000000000E+00 -0.42646142633E+03  0.42646142633E+03  0.00000000000E+00 0. -1.
          6    1    1    2  501    0 -0.15345825209E+03  0.51006479133E+02 -0.18194843281E+03  0.29863912713E+03  0.17300000000E+03 0.  1.
         -6    1    1    2    0  503  0.15345825209E+03 -0.51006479133E+02 -0.11085905066E+03  0.26147624206E+03  0.17300000000E+03 0. -1.
<mgrwt>
<rscale>  2 0.23681236E+03</rscale>
<asrwt>0</asrwt>
<pdfrwt beam="1">  1       21 0.20562145E-01 0.23681236E+03</pdfrwt>
<pdfrwt beam="2">  1       21 0.65609450E-01 0.23681236E+03</pdfrwt>
<totfact> 0.45841334E+04</totfact>
</mgrwt>
</event>
<event>
 4    1  0.4327903E+000  0.2517798E+03  0.7546771E-02  0.1112185E+00
         21   -1    0    0  501  502  0.00000000000E+00  0.00000000000E+00  0.47607177373E+02  0.47607177373E+02  0.00000000000E+00 0. -1.
         21   -1    0    0  502  503 -0.00000000000E+00 -0.00000000000E+00 -0.16318098329E+04  0.16318098329E+04  0.00000000000E+00 0.  1.
          6    1    1    2  501    0  0.13176637440E+03  0.12689250980E+03 -0.43192445643E+03  0.49995182021E+03  0.17300000000E+03 0. -1.
         -6    1    1    2    0  503 -0.13176637440E+03 -0.12689250980E+03 -0.11522781991E+04  0.11794651900E+04  0.17300000000E+03 0.  1.
<mgrwt>
<rscale>  2 0.25177984E+03</rscale>
<asrwt>0</asrwt>
<pdfrwt beam="1">  1       21 0.73241811E-02 0.25177984E+03</pdfrwt>
<pdfrwt beam="2">  1       21 0.25104767E+00 0.25177984E+03</pdfrwt>
<totfact> 0.87133823E+03</totfact>
</mgrwt>
</event>
<event>
 4    1  0.4327903E+000  0.2159452E+03  0.7546771E-02  0.1136943E+00
         21   -1    0    0  501  502  0.00000000000E+00  0.00000000000E+00  0.51522877054E+03  0.51522877054E+03  0.00000000000E+00 0. -1.
         21   -1    0    0  502  503 -0.00000000000E+00 -0.00000000000E+00 -0.12129209624E+03  0.12129209624E+03  0.00000000000E+00 0.  1.
          6    1    1    2  501    0  0.12847747282E+03  0.14030626593E+02  0.35730383548E+03  0.41749053924E+03  0.17300000000E+03 0. -1.
         -6    1    1    2    0  503 -0.12847747282E+03 -0.14030626593E+02  0.36632838825E+02  0.21903032754E+03  0.17300000000E+03 0.  1.
<mgrwt>
<rscale>  2 0.21594518E+03</rscale>
<asrwt>0</asrwt>
<pdfrwt beam="1">  1       21 0.79265963E-01 0.21594518E+03</pdfrwt>
<pdfrwt beam="2">  1       21 0.18660323E-01 0.21594518E+03</pdfrwt>
<totfact> 0.36433174E+04</totfact>
</mgrwt>
</event>
<event>
 4    1  0.4327903E+000  0.2386822E+03  0.7546771E-02  0.1120674E+00
         21   -1    0    0  501  502  0.00000000000E+00  0.00000000000E+00  0.10141085979E+03  0.10141085979E+03  0.00000000000E+00 0.  1.
         21   -1    0    0  502  503 -0.00000000000E+00 -0.00000000000E+00 -0.60890609630E+03  0.60890609630E+03  0.00000000000E+00 0.  1.
          6    1    1    2  501    0 -0.35433080292E+02  0.16057619069E+03 -0.15492865376E+03  0.28455597683E+03  0.17300000000E+03 0.  1.
         -6    1    1    2    0  503  0.35433080292E+02 -0.16057619069E+03 -0.35256658274E+03  0.42576097926E+03  0.17300000000E+03 0.  1.
<mgrwt>
<rscale>  2 0.23868225E+03</rscale>
<asrwt>0</asrwt>
<pdfrwt beam="1">  1       21 0.15601671E-01 0.23868225E+03</pdfrwt>
<pdfrwt beam="2">  1       21 0.93677860E-01 0.23868225E+03</pdfrwt>
<totfact> 0.34129950E+04</totfact>
</mgrwt>
</event>
<event>
 4    1  0.4327903E+000  0.2667597E+03  0.7546771E-02  0.1103149E+00
         21   -1    0    0  501  502  0.00000000000E+00  0.00000000000E+00  0.51534068484E+03  0.51534068484E+03  0.00000000000E+00 0. -1.
         21   -1    0    0  502  503 -0.00000000000E+00 -0.00000000000E+00 -0.21663800442E+03  0.21663800442E+03  0.00000000000E+00 0.  1.
          6    1    1    2  501    0 -0.20300746786E+03  0.44400376148E+01  0.36973678451E+03  0.45592327837E+03  0.17300000000E+03 0. -1.
         -6    1    1    2    0  503  0.20300746786E+03 -0.44400376148E+01 -0.71034104081E+02  0.27605541089E+03  0.17300000000E+03 0.  1.
<mgrwt>
<rscale>  2 0.26675972E+03</rscale>
<asrwt>0</asrwt>
<pdfrwt beam="1">  1       21 0.79283182E-01 0.26675972E+03</pdfrwt>
<pdfrwt beam="2">  1       21 0.33328924E-01 0.26675972E+03</pdfrwt>
<totfact> 0.11648217E+04</totfact>
</mgrwt>
</event>
<event>
 4    1  0.4327903E+000  0.2581117E+03  0.7546771E-02  0.1108283E+00
         21   -1    0    0  501  502  0.00000000000E+00  0.00000000000E+00  0.23842586239E+03  0.23842586239E+03  0.00000000000E+00 0.  1.
         21   -1    0    0  502  503 -0.00000000000E+00 -0.00000000000E+00 -0.48334169563E+03  0.48334169563E+03  0.00000000000E+00 0.  1.
          6    1    1    2  501    0  0.18080141145E+03  0.63273065256E+02  0.11194819229E+03  0.28134325818E+03  0.17300000000E+03 0.  1.
         -6    1    1    2    0  503 -0.18080141145E+03 -0.63273065256E+02 -0.35686402553E+03  0.44042429984E+03  0.17300000000E+03 0.  1.
<mgrwt>
<rscale>  2 0.25811166E+03</rscale>
<asrwt>0</asrwt>
<pdfrwt beam="1">  1       21 0.36680902E-01 0.25811166E+03</pdfrwt>
<pdfrwt beam="2">  1       21 0.74360261E-01 0.25811166E+03</pdfrwt>
<totfact> 0.11166649E+04</totfact>
</mgrwt>
</event>
<event>
 4    1  0.4327903E+000  0.1835793E+03  0.7546771E-02  0.1164383E+00
         21   -1    0    0  503  502  0.00000000000E+00  0.00000000000E+00  0.21774845281E+03  0.21774845281E+03  0.00000000000E+00 0. -1.
         21   -1    0    0  501  503 -0.00000000000E+00 -0.00000000000E+00 -0.15978012499E+03  0.15978012499E+03  0.00000000000E+00 0. -1.
          6    1    1    2  501    0 -0.52604168430E+02  0.31704253705E+02 -0.44351163923E+01  0.18363286333E+03  0.17300000000E+03 0. -1.
         -6    1    1    2    0  502  0.52604168430E+02 -0.31704253705E+02  0.62403444215E+02  0.19389571447E+03  0.17300000000E+03 0. -1.
<mgrwt>
<rscale>  2 0.18357930E+03</rscale>
<asrwt>0</asrwt>
<pdfrwt beam="1">  1       21 0.33499762E-01 0.18357930E+03</pdfrwt>
<pdfrwt beam="2">  1       21 0.24581558E-01 0.18357930E+03</pdfrwt>
<totfact> 0.13465553E+05</totfact>
</mgrwt>
</event>
<event>
 4    1  0.4327903E+000  0.2986331E+03  0.7546771E-02  0.1085926E+00
         21   -1    0    0  501  502  0.00000000000E+00  0.00000000000E+00  0.12088080138E+03  0.12088080138E+03  0.00000000000E+00 0.  1.
         21   -1    0    0  502  503 -0.00000000000E+00 -0.00000000000E+00 -0.90377854573E+03  0.90377854573E+03  0.00000000000E+00 0.  1.
          6    1    1    2  501    0  0.24236637305E+03  0.22611627215E+02 -0.17187080374E+03  0.34455959956E+03  0.17300000000E+03 0.  1.
         -6    1    1    2    0  503 -0.24236637305E+03 -0.22611627215E+02 -0.61102694061E+03  0.68009974755E+03  0.17300000000E+03 0.  1.
<mgrwt>
<rscale>  2 0.29863313E+03</rscale>
<asrwt>0</asrwt>
<pdfrwt beam="1">  1       21 0.18597046E-01 0.29863313E+03</pdfrwt>
<pdfrwt beam="2">  1       21 0.13904285E+00 0.29863313E+03</pdfrwt>
<totfact> 0.90168900E+03</totfact>
</mgrwt>
</event>
<event>
 4    1  0.4327903E+000  0.1769681E+03  0.7546771E-02  0.1170770E+00
         21   -1    0    0  503  502  0.00000000000E+00  0.00000000000E+00  0.24156466076E+03  0.24156466076E+03  0.00000000000E+00 0. -1.
         21   -1    0    0  501  503 -0.00000000000E+00 -0.00000000000E+00 -0.23193141876E+03  0.23193141876E+03  0.00000000000E+00 0.  1.
          6    1    1    2  501    0 -0.33715807911E+02  0.15872957942E+02 -0.15240602230E+03  0.23354935694E+03  0.17300000000E+03 0.  1.
         -6    1    1    2    0  502  0.33715807911E+02 -0.15872957942E+02  0.16203926431E+03  0.23994672257E+03  0.17300000000E+03 0. -1.
<mgrwt>
<rscale>  2 0.17696809E+03</rscale>
<asrwt>0</asrwt>
<pdfrwt beam="1">  1       21 0.37163794E-01 0.17696809E+03</pdfrwt>
<pdfrwt beam="2">  1       21 0.35681757E-01 0.17696809E+03</pdfrwt>
<totfact> 0.53270758E+04</totfact>
</mgrwt>
</event>
<event>
 4    1  0.4327903E+000  0.1929882E+03  0.7546771E-02  0.1155793E+00
         21   -1    0    0  503  502  0.00000000000E+00  0.00000000000E+00  0.43452103707E+02  0.43452103707E+02  0.00000000000E+00 0. -1.
         21   -1    0    0  501  503 -0.00000000000E+00 -0.00000000000E+00 -0.94364928378E+03  0.94364928378E+03  0.00000000000E+00 0. -1.
          6    1    1    2  501    0 -0.76425098166E+02  0.38401242168E+02 -0.30066000873E+03  0.35726865504E+03  0.17300000000E+03 0. -1.
         -6    1    1    2    0  502  0.76425098166E+02 -0.38401242168E+02 -0.59953717134E+03  0.62983273244E+03  0.17300000000E+03 0. -1.
<mgrwt>
<rscale>  2 0.19298821E+03</rscale>
<asrwt>0</asrwt>
<pdfrwt beam="1">  1       21 0.66849390E-02 0.19298821E+03</pdfrwt>
<pdfrwt beam="2">  1       21 0.14517681E+00 0.19298821E+03</pdfrwt>
<totfact> 0.53322148E+04</totfact>
</mgrwt>
</event>
<event>
 4    1  0.4327903E+000  0.1779520E+03  0.7546771E-02  0.1169800E+00
         21   -1    0    0  501  502  0.00000000000E+00  0.00000000000E+00  0.74109484258E+03  0.74109484258E+03  0.00000000000E+00 0.  1.
         21   -1    0    0  502  503 -0.00000000000E+00 -0.00000000000E+00 -0.42834392629E+02  0.42834392629E+02  0.00000000000E+00 0.  1.
          6    1    1    2  501    0  0.22518466419E+01 -0.41627438175E+02  0.32977149691E+03  0.37472143600E+03  0.17300000000E+03 0.  1.
         -6    1    1    2    0  503 -0.22518466419E+01  0.41627438175E+02  0.36848895304E+03  0.40920779921E+03  0.17300000000E+03 0.  1.
<mgrwt>
<rscale>  2 0.17795200E+03</rscale>
<asrwt>0</asrwt>
<pdfrwt beam="1">  1       21 0.11401458E+00 0.17795200E+03</pdfrwt>
<pdfrwt beam="2">  1       21 0.65899071E-02 0.17795200E+03</pdfrwt>
<totfact> 0.10112652E+05</totfact>
</mgrwt>
</event>
<event>
 4    1  0.4327903E+000  0.2723153E+03  0.7546771E-02  0.1099962E+00
         21   -1    0    0  503  502  0.00000000000E+00  0.00000000000E+00  0.21952955961E+04  0.21952955961E+04  0.00000000000E+00 0.  1.
         21   -1    0    0  501  503 -0.00000000000E+00 -0.00000000000E+00 -0.78612591290E+02  0.78612591290E+02  0.00000000000E+00 0. -1.
          6    1    1    2  501    0 -0.19402572837E+03  0.81121217571E+02  0.19972942389E+03  0.33770916182E+03  0.17300000000E+03 0. -1.
         -6    1    1    2    0  502  0.19402572837E+03 -0.81121217571E+02  0.19169535809E+04  0.19361990256E+04  0.17300000000E+03 0.  1.
<mgrwt>
<rscale>  2 0.27231532E+03</rscale>
<asrwt>0</asrwt>
<pdfrwt beam="1">  1       21 0.33773774E+00 0.27231532E+03</pdfrwt>
<pdfrwt beam="2">  1       21 0.12094246E-01 0.27231532E+03</pdfrwt>
<totfact> 0.10863288E+03</totfact>
</mgrwt>
</event>
<event>
 4    1  0.4327903E+000  0.2143326E+03  0.7546771E-02  0.1138180E+00
         21   -1    0    0  503  502  0.00000000000E+00  0.00000000000E+00  0.26865670074E+02  0.26865670074E+02  0.00000000000E+00 0.  1.
         21   -1    0    0  501  503 -0.00000000000E+00 -0.00000000000E+00 -0.17199916617E+04  0.17199916617E+04  0.00000000000E+00 0.  1.
          6    1    1    2  501    0 -0.94935821460E+02 -0.83645984378E+02 -0.77976515320E+03  0.80868544876E+03  0.17300000000E+03 0.  1.
         -6    1    1    2    0  502  0.94935821460E+02  0.83645984378E+02 -0.91336083847E+03  0.93817188305E+03  0.17300000000E+03 0.  1.
<mgrwt>
<rscale>  2 0.21433259E+03</rscale>
<asrwt>0</asrwt>
<pdfrwt beam="1">  1       21 0.41331795E-02 0.21433259E+03</pdfrwt>
<pdfrwt beam="2">  1       21 0.26461413E+00 0.21433259E+03</pdfrwt>
<totfact> 0.19878797E+04</totfact>
</mgrwt>
</event>
<event>
 4    1  0.4327903E+000  0.1876201E+03  0.7546771E-02  0.1160626E+00
         21   -1    0    0  501  502  0.00000000000E+00  0.00000000000E+00  0.95071606096E+02  0.95071606096E+02  0.00000000000E+00 0.  1.
         21   -1    0    0  502  503 -0.00000000000E+00 -0.00000000000E+00 -0.41486201028E+03  0.41486201028E+03  0.00000000000E+00 0.  1.
          6    1    1    2  501    0 -0.13682557622E+02  0.71309779809E+02 -0.76295502263E+02  0.20253962759E+03  0.17300000000E+03 0.  1.
         -6    1    1    2    0  503  0.13682557622E+02 -0.71309779809E+02 -0.24349490192E+03  0.30739398879E+03  0.17300000000E+03 0.  1.
<mgrwt>
<rscale>  2 0.18762009E+03</rscale>
<asrwt>0</asrwt>
<pdfrwt beam="1">  1       21 0.14626401E-01 0.18762009E+03</pdfrwt>
<pdfrwt beam="2">  1       21 0.63824924E-01 0.18762009E+03</pdfrwt>
<totfact> 0.93316209E+04</totfact>
</mgrwt>
</event>
<event>
 4    1  0.4327903E+000  0.1967785E+03  0.7546771E-02  0.1152486E+00
         21   -1    0    0  501  502  0.00000000000E+00  0.00000000000E+00  0.16894891362E+04  0.16894891362E+04  0.00000000000E+00 0.  1.
         21   -1    0    0  502  503 -0.00000000000E+00 -0.00000000000E+00 -0.42749742599E+02  0.42749742599E+02  0.00000000000E+00 0.  1.
          6    1    1    2  501    0  0.52812368411E+02 -0.77483073378E+02  0.14132693157E+04  0.14269029160E+04  0.17300000000E+03 0.  1.
         -6    1    1    2    0  503 -0.52812368411E+02  0.77483073378E+02  0.23347007789E+03  0.30533596281E+03  0.17300000000E+03 0.  1.
<mgrwt>
<rscale>  2 0.19677849E+03</rscale>
<asrwt>0</asrwt>
<pdfrwt beam="1">  1       21 0.25992135E+00 0.19677849E+03</pdfrwt>
<pdfrwt beam="2">  1       21 0.65768848E-02 0.19677849E+03</pdfrwt>
<totfact> 0.97582552E+03</totfact>
</mgrwt>
</event>
<event>
 4    1  0.4327903E+000  0.1805841E+03  0.7546771E-02  0.1167239E+00
         21   -1    0    0  501  502  0.00000000000E+00  0.00000000000E+00  0.13674163382E+03  0.13674163382E+03  0.00000000000E+00 0.  1.
         21   -1    0    0  502  503 -0.00000000000E+00 -0.00000000000E+00 -0.24472134359E+03  0.24472134359E+03  0.00000000000E+00 0.  1.
          6    1    1    2  501    0 -0.42408474042E+02 -0.29717372037E+02 -0.84441408661E+02  0.19935132898E+03  0.17300000000E+03 0.  1.
         -6    1    1    2    0  503  0.42408474042E+02  0.29717372037E+02 -0.23538301105E+02  0.18211164842E+03  0.17300000000E+03 0.  1.
<mgrwt>
<rscale>  2 0.18058405E+03</rscale>
<asrwt>0</asrwt>
<pdfrwt beam="1">  1       21 0.21037175E-01 0.18058405E+03</pdfrwt>
<pdfrwt beam="2">  1       21 0.37649437E-01 0.18058405E+03</pdfrwt>
<totfact> 0.14343347E+05</totfact>
</mgrwt>
</event>
<event>
 4    1  0.4327903E+000  0.2359541E+03  0.7546771E-02  0.1122518E+00
         21   -1    0    0  503  502  0.00000000000E+00  0.00000000000E+00  0.87503253686E+02  0.87503253686E+02  0.00000000000E+00 0. -1.
         21   -1    0    0  501  503 -0.00000000000E+00 -0.00000000000E+00 -0.65413513755E+03  0.65413513755E+03  0.00000000000E+00 0. -1.
          6    1    1    2  501    0 -0.16043744300E+03  0.22776406223E+01 -0.34462391205E+03  0.41766015074E+03  0.17300000000E+03 0. -1.
         -6    1    1    2    0  502  0.16043744300E+03 -0.22776406223E+01 -0.22200797182E+03  0.32397824050E+03  0.17300000000E+03 0. -1.
<mgrwt>
<rscale>  2 0.23595415E+03</rscale>
<asrwt>0</asrwt>
<pdfrwt beam="1">  1       21 0.13462040E-01 0.23595415E+03</pdfrwt>
<pdfrwt beam="2">  1       21 0.10063617E+00 0.23595415E+03</pdfrwt>
<totfact> 0.37748738E+04</totfact>
</mgrwt>
</event>
<event>
 4    1  0.4327903E+000  0.2211934E+03  0.7546771E-02  0.1132996E+00
         21   -1    0    0  501  502  0.00000000000E+00  0.00000000000E+00  0.21801229359E+03  0.21801229359E+03  0.00000000000E+00 0. -1.
         21   -1    0    0  502  503 -0.00000000000E+00 -0.00000000000E+00 -0.42074249232E+03  0.42074249232E+03  0.00000000000E+00 0. -1.
          6    1    1    2  501    0 -0.84149866322E+02 -0.10916194467E+03  0.11679732020E+03  0.25013625121E+03  0.17300000000E+03 0. -1.
         -6    1    1    2    0  503  0.84149866322E+02  0.10916194467E+03 -0.31952751892E+03  0.38861853470E+03  0.17300000000E+03 0. -1.
<mgrwt>
<rscale>  2 0.22119342E+03</rscale>
<asrwt>0</asrwt>
<pdfrwt beam="1">  1       21 0.33540353E-01 0.22119342E+03</pdfrwt>
<pdfrwt beam="2">  1       21 0.64729614E-01 0.22119342E+03</pdfrwt>
<totfact> 0.18514687E+04</totfact>
</mgrwt>
</event>
<event>
 4    1  0.4327903E+000  0.2037289E+03  0.7546771E-02  0.1146630E+00
         21   -1    0    0  503  502  0.00000000000E+00  0.00000000000E+00  0.71599726838E+03  0.71599726838E+03  0.00000000000E+00 0. -1.
         21   -1    0    0  501  503 -0.00000000000E+00 -0.00000000000E+00 -0.90239638029E+02  0.90239638029E+02  0.00000000000E+00 0.  1.
          6    1    1    2  501    0 -0.59123030689E+02 -0.89894105389E+02  0.71810955630E+02  0.21601457425E+03  0.17300000000E+03 0.  1.
         -6    1    1    2    0  502  0.59123030689E+02  0.89894105389E+02  0.55394667472E+03  0.59022233216E+03  0.17300000000E+03 0. -1.
<mgrwt>
<rscale>  2 0.20372894E+03</rscale>
<asrwt>0</asrwt>
<pdfrwt beam="1">  1       21 0.11015342E+00 0.20372894E+03</pdfrwt>
<pdfrwt beam="2">  1       21 0.13883022E-01 0.20372894E+03</pdfrwt>
<totfact> 0.29195288E+04</totfact>
</mgrwt>
</event>
<event>
 4    1  0.4327903E+000  0.2487819E+03  0.7546771E-02  0.1114077E+00
         21   -1    0    0  503  502  0.00000000000E+00  0.00000000000E+00  0.18175019624E+03  0.18175019624E+03  0.00000000000E+00 0. -1.
         21   -1    0    0  501  503 -0.00000000000E+00 -0.00000000000E+00 -0.41497691790E+03  0.41497691790E+03  0.00000000000E+00 0.  1.
          6    1    1    2  501    0  0.17853422052E+03 -0.94324814038E+01 -0.24298231503E+03  0.34775400072E+03  0.17300000000E+03 0.  1.
         -6    1    1    2    0  502 -0.17853422052E+03  0.94324814038E+01  0.97555933712E+01  0.24897311342E+03  0.17300000000E+03 0. -1.
<mgrwt>
<rscale>  2 0.24878191E+03</rscale>
<asrwt>0</asrwt>
<pdfrwt beam="1">  1       21 0.27961569E-01 0.24878191E+03</pdfrwt>
<pdfrwt beam="2">  1       21 0.63842602E-01 0.24878191E+03</pdfrwt>
<totfact> 0.26893703E+04</totfact>
</mgrwt>
</event>
<event>
 4    1  0.4327903E+000  0.1921999E+03  0.7546771E-02  0.1156492E+00
         21   -1    0    0  501  502  0.00000000000E+00  0.00000000000E+00  0.55112783193E+02  0.55112783193E+02  0.00000000000E+00 0.  1.
         21   -1    0    0  502  503 -0.00000000000E+00 -0.00000000000E+00 -0.76192883980E+03  0.76192883980E+03  0.00000000000E+00 0. -1.
          6    1    1    2  501    0  0.68586366555E+02  0.48038805147E+02 -0.21172161815E+03  0.28594905153E+03  0.17300000000E+03 0.  1.
         -6    1    1    2    0  503 -0.68586366555E+02 -0.48038805147E+02 -0.49509443845E+03  0.53109257146E+03  0.17300000000E+03 0. -1.
<mgrwt>
<rscale>  2 0.19219994E+03</rscale>
<asrwt>0</asrwt>
<pdfrwt beam="1">  1       21 0.84788906E-02 0.19219994E+03</pdfrwt>
<pdfrwt beam="2">  1       21 0.11721981E+00 0.19219994E+03</pdfrwt>
<totfact> 0.60685576E+04</totfact>
</mgrwt>
</event>
<event>
 4    1  0.4327903E+000  0.1890643E+03  0.7546771E-02  0.1159308E+00
         21   -1    0    0  503  502  0.00000000000E+00  0.00000000000E+00  0.49809960598E+03  0.49809960598E+03  0.00000000000E+00 0.  1.
         21   -1    0    0  501  503 -0.00000000000E+00 -0.00000000000E+00 -0.74204116609E+02  0.74204116609E+02  0.00000000000E+00 0.  1.
          6    1    1    2  501    0 -0.53270557719E+02 -0.54576086994E+02  0.16005044425E+03  0.24771242661E+03  0.17300000000E+03 0.  1.
         -6    1    1    2    0  502  0.53270557719E+02  0.54576086994E+02  0.26384504512E+03  0.32459129598E+03  0.17300000000E+03 0.  1.
<mgrwt>
<rscale>  2 0.18906428E+03</rscale>
<asrwt>0</asrwt>
<pdfrwt beam="1">  1       21 0.76630706E-01 0.18906428E+03</pdfrwt>
<pdfrwt beam="2">  1       21 0.11416018E-01 0.18906428E+03</pdfrwt>
<totfact> 0.97341055E+04</totfact>
</mgrwt>
</event>
<event>
 4    1  0.4327903E+000  0.2026831E+03  0.7546771E-02  0.1147495E+00
         21   -1    0    0  501  502  0.00000000000E+00  0.00000000000E+00  0.49345667620E+03  0.49345667620E+03  0.00000000000E+00 0. -1.
         21   -1    0    0  502  503 -0.00000000000E+00 -0.00000000000E+00 -0.26179889785E+03  0.26179889785E+03  0.00000000000E+00 0. -1.
          6    1    1    2  501    0 -0.29888740156E+02  0.10128236892E+03  0.42768780389E+03  0.47328354360E+03  0.17300000000E+03 0. -1.
         -6    1    1    2    0  503  0.29888740156E+02 -0.10128236892E+03 -0.19603002554E+03  0.28197203045E+03  0.17300000000E+03 0. -1.
<mgrwt>
<rscale>  2 0.20268314E+03</rscale>
<asrwt>0</asrwt>
<pdfrwt beam="1">  1       21 0.75916411E-01 0.20268314E+03</pdfrwt>
<pdfrwt beam="2">  1       21 0.40276754E-01 0.20268314E+03</pdfrwt>
<totfact> 0.91267771E+03</totfact>
</mgrwt>
</event>
<event>
 4    1  0.4327903E+000  0.2024664E+03  0.7546771E-02  0.1147675E+00
         21   -1    0    0  503  502  0.00000000000E+00  0.00000000000E+00  0.11157494802E+04  0.11157494802E+04  0.00000000000E+00 0. -1.
         21   -1    0    0  501  503 -0.00000000000E+00 -0.00000000000E+00 -0.36740167153E+02  0.36740167153E+02  0.00000000000E+00 0. -1.
          6    1    1    2  501    0 -0.27704305690E+02 -0.10146981778E+03  0.53833141452E+03  0.57514638513E+03  0.17300000000E+03 0. -1.
         -6    1    1    2    0  502  0.27704305690E+02  0.10146981778E+03  0.54067789851E+03  0.57734326220E+03  0.17300000000E+03 0. -1.
<mgrwt>
<rscale>  2 0.20246642E+03</rscale>
<asrwt>0</asrwt>
<pdfrwt beam="1">  1       21 0.17165374E+00 0.20246642E+03</pdfrwt>
<pdfrwt beam="2">  1       21 0.56523342E-02 0.20246642E+03</pdfrwt>
<totfact> 0.45092804E+04</totfact>
</mgrwt>
</event>
<event>
 4    1  0.4327903E+000  0.1923789E+03  0.7546771E-02  0.1156333E+00
         21   -1    0    0  501  502  0.00000000000E+00  0.00000000000E+00  0.13495244962E+04  0.13495244962E+04  0.00000000000E+00 0. -1.
         21   -1    0    0  502  503 -0.00000000000E+00 -0.00000000000E+00 -0.40347358920E+02  0.40347358920E+02  0.00000000000E+00 0. -1.
          6    1    1    2  501    0  0.43690540774E+02 -0.71915009479E+02  0.10478863744E+04  0.10653992142E+04  0.17300000000E+03 0. -1.
         -6    1    1    2    0  503 -0.43690540774E+02  0.71915009479E+02  0.26129076285E+03  0.32447264090E+03  0.17300000000E+03 0. -1.
<mgrwt>
<rscale>  2 0.19237888E+03</rscale>
<asrwt>0</asrwt>
<pdfrwt beam="1">  1       21 0.20761912E+00 0.19237888E+03</pdfrwt>
<pdfrwt beam="2">  1       21 0.62072870E-02 0.19237888E+03</pdfrwt>
<totfact> 0.22348105E+04</totfact>
</mgrwt>
</event>
<event>
 4    1  0.4327903E+000  0.2122837E+03  0.7546771E-02  0.1139770E+00
         21   -1    0    0  501  502  0.00000000000E+00  0.00000000000E+00  0.13883737050E+03  0.13883737050E+03  0.00000000000E+00 0. -1.
         21   -1    0    0  502  503 -0.00000000000E+00 -0.00000000000E+00 -0.32459890622E+03  0.32459890622E+03  0.00000000000E+00 0.  1.
          6    1    1    2  501    0  0.10131952076E+03 -0.69783470935E+02 -0.94455177342E+02  0.23234921697E+03  0.17300000000E+03 0.  1.
         -6    1    1    2    0  503 -0.10131952076E+03  0.69783470935E+02 -0.91306358372E+02  0.23108705974E+03  0.17300000000E+03 0. -1.
<mgrwt>
<rscale>  2 0.21228372E+03</rscale>
<asrwt>0</asrwt>
<pdfrwt beam="1">  1       21 0.21359596E-01 0.21228372E+03</pdfrwt>
<pdfrwt beam="2">  1       21 0.49938293E-01 0.21228372E+03</pdfrwt>
<totfact> 0.77302968E+04</totfact>
</mgrwt>
</event>
<event>
 4    1  0.4327903E+000  0.1902679E+03  0.7546771E-02  0.1158220E+00
         21   -1    0    0  503  502  0.00000000000E+00  0.00000000000E+00  0.14354849342E+03  0.14354849342E+03  0.00000000000E+00 0.  1.
         21   -1    0    0  501  503 -0.00000000000E+00 -0.00000000000E+00 -0.25966659462E+03  0.25966659462E+03  0.00000000000E+00 0.  1.
          6    1    1    2  501    0 -0.44497565932E+02 -0.65519627042E+02 -0.92263116538E+02  0.21145764960E+03  0.17300000000E+03 0. -1.
         -6    1    1    2    0  502  0.44497565932E+02  0.65519627042E+02 -0.23854984659E+02  0.19175743843E+03  0.17300000000E+03 0. -1.
<mgrwt>
<rscale>  2 0.19026785E+03</rscale>
<asrwt>0</asrwt>
<pdfrwt beam="1">  1       21 0.22084384E-01 0.19026785E+03</pdfrwt>
<pdfrwt beam="2">  1       21 0.39948706E-01 0.19026785E+03</pdfrwt>
<totfact> 0.11583819E+05</totfact>
</mgrwt>
</event>
<event>
 4    1  0.4327903E+000  0.1839288E+03  0.7546771E-02  0.1164054E+00
         21   -1    0    0  503  502  0.00000000000E+00  0.00000000000E+00  0.58392801412E+03  0.58392801412E+03  0.00000000000E+00 0.  1.
         21   -1    0    0  501  503 -0.00000000000E+00 -0.00000000000E+00 -0.98884874640E+02  0.98884874640E+02  0.00000000000E+00 0.  1.
          6    1    1    2  501    0 -0.29287252661E+02  0.55163948091E+02  0.22819746525E+02  0.18533900067E+03  0.17300000000E+03 0. -1.
         -6    1    1    2    0  502  0.29287252661E+02 -0.55163948091E+02  0.46222339295E+03  0.49747388809E+03  0.17300000000E+03 0. -1.
<mgrwt>
<rscale>  2 0.18392880E+03</rscale>
<asrwt>0</asrwt>
<pdfrwt beam="1">  1       21 0.89835077E-01 0.18392880E+03</pdfrwt>
<pdfrwt beam="2">  1       21 0.15213058E-01 0.18392880E+03</pdfrwt>
<totfact> 0.40519697E+04</totfact>
</mgrwt>
</event>
<event>
 4    1  0.4327903E+000  0.1921762E+03  0.7546771E-02  0.1156513E+00
         21   -1    0    0  503  502  0.00000000000E+00  0.00000000000E+00  0.22384902539E+03  0.22384902539E+03  0.00000000000E+00 0. -1.
         21   -1    0    0  501  503 -0.00000000000E+00 -0.00000000000E+00 -0.19187961463E+03  0.19187961463E+03  0.00000000000E+00 0. -1.
          6    1    1    2  501    0  0.76367149625E+02  0.34216176347E+02 -0.61836822067E+02  0.20187986732E+03  0.17300000000E+03 0. -1.
         -6    1    1    2    0  502 -0.76367149625E+02 -0.34216176347E+02  0.93806232827E+02  0.21384877269E+03  0.17300000000E+03 0. -1.
<mgrwt>
<rscale>  2 0.19217619E+03</rscale>
<asrwt>0</asrwt>
<pdfrwt beam="1">  1       21 0.34438311E-01 0.19217619E+03</pdfrwt>
<pdfrwt beam="2">  1       21 0.29519941E-01 0.19217619E+03</pdfrwt>
<totfact> 0.89376374E+04</totfact>
</mgrwt>
</event>
<event>
 4    1  0.4327903E+000  0.1804706E+03  0.7546771E-02  0.1167348E+00
         21   -1    0    0  503  502  0.00000000000E+00  0.00000000000E+00  0.60702650144E+02  0.60702650144E+02  0.00000000000E+00 0. -1.
         21   -1    0    0  501  503 -0.00000000000E+00 -0.00000000000E+00 -0.75326064565E+03  0.75326064565E+03  0.00000000000E+00 0. -1.
          6    1    1    2  501    0  0.33845772069E+02  0.38666312342E+02 -0.56457646501E+03  0.59271933058E+03  0.17300000000E+03 0. -1.
         -6    1    1    2    0  502 -0.33845772069E+02 -0.38666312342E+02 -0.12798153050E+03  0.22124396522E+03  0.17300000000E+03 0. -1.
<mgrwt>
<rscale>  2 0.18047055E+03</rscale>
<asrwt>0</asrwt>
<pdfrwt beam="1">  1       21 0.93388689E-02 0.18047055E+03</pdfrwt>
<pdfrwt beam="2">  1       21 0.11588626E+00 0.18047055E+03</pdfrwt>
<totfact> 0.52998380E+04</totfact>
</mgrwt>
</event>
<event>
 4    1  0.4327903E+000  0.1970556E+03  0.7546771E-02  0.1152247E+00
         21   -1    0    0  503  502  0.00000000000E+00  0.00000000000E+00  0.13229891223E+04  0.13229891223E+04  0.00000000000E+00 0. -1.
         21   -1    0    0  501  503 -0.00000000000E+00 -0.00000000000E+00 -0.29658136057E+02  0.29658136057E+02  0.00000000000E+00 0. -1.
          6    1    1    2  501    0  0.87237699334E+02  0.35937506257E+02  0.71550205967E+03  0.74214157540E+03  0.17300000000E+03 0. -1.
         -6    1    1    2    0  502 -0.87237699334E+02 -0.35937506257E+02  0.57782892657E+03  0.61050568296E+03  0.17300000000E+03 0. -1.
<mgrwt>
<rscale>  2 0.19705563E+03</rscale>
<asrwt>0</asrwt>
<pdfrwt beam="1">  1       21 0.20353674E+00 0.19705563E+03</pdfrwt>
<pdfrwt beam="2">  1       21 0.45627912E-02 0.19705563E+03</pdfrwt>
<totfact> 0.39904170E+04</totfact>
</mgrwt>
</event>
<event>
 4    1  0.4327903E+000  0.2001053E+03  0.7546771E-02  0.1149650E+00
         21   -1    0    0  503  502  0.00000000000E+00  0.00000000000E+00  0.57248271759E+02  0.57248271759E+02  0.00000000000E+00 0. -1.
         21   -1    0    0  501  503 -0.00000000000E+00 -0.00000000000E+00 -0.11813825799E+04  0.11813825799E+04  0.00000000000E+00 0. -1.
          6    1    1    2  501    0 -0.10017276152E+03 -0.88625905928E+01 -0.95762603985E+03  0.97830964416E+03  0.17300000000E+03 0. -1.
         -6    1    1    2    0  502  0.10017276152E+03  0.88625905928E+01 -0.16650826828E+03  0.26032120749E+03  0.17300000000E+03 0. -1.
<mgrwt>
<rscale>  2 0.20010529E+03</rscale>
<asrwt>0</asrwt>
<pdfrwt beam="1">  1       21 0.88074269E-02 0.20010529E+03</pdfrwt>
<pdfrwt beam="2">  1       21 0.18175116E+00 0.20010529E+03</pdfrwt>
<totfact> 0.17864232E+04</totfact>
</mgrwt>
</event>
<event>
 4    1  0.4327903E+000  0.1795483E+03  0.7546771E-02  0.1168241E+00
         21   -1    0    0  501  502  0.00000000000E+00  0.00000000000E+00  0.22864196143E+03  0.22864196143E+03  0.00000000000E+00 0.  1.
         21   -1    0    0  502  503 -0.00000000000E+00 -0.00000000000E+00 -0.21221407701E+03  0.21221407701E+03  0.00000000000E+00 0.  1.
          6    1    1    2  501    0 -0.35621608226E+02  0.32244440208E+02  0.13590921287E+03  0.22518640510E+03  0.17300000000E+03 0.  1.
         -6    1    1    2    0  503  0.35621608226E+02 -0.32244440208E+02 -0.11948132845E+03  0.21566963334E+03  0.17300000000E+03 0.  1.
<mgrwt>
<rscale>  2 0.17954833E+03</rscale>
<asrwt>0</asrwt>
<pdfrwt beam="1">  1       21 0.35175687E-01 0.17954833E+03</pdfrwt>
<pdfrwt beam="2">  1       21 0.32648319E-01 0.17954833E+03</pdfrwt>
<totfact> 0.70741596E+04</totfact>
</mgrwt>
</event>
<event>
 4    1  0.4327903E+000  0.1835110E+03  0.7546771E-02  0.1164448E+00
         21   -1    0    0  503  502  0.00000000000E+00  0.00000000000E+00  0.29898773187E+02  0.29898773187E+02  0.00000000000E+00 0. -1.
         21   -1    0    0  501  503 -0.00000000000E+00 -0.00000000000E+00 -0.11735596379E+04  0.11735596379E+04  0.00000000000E+00 0.  1.
          6    1    1    2  501    0  0.54755865891E+02 -0.27369255524E+02 -0.69252700701E+03  0.71642859828E+03  0.17300000000E+03 0.  1.
         -6    1    1    2    0  502 -0.54755865891E+02  0.27369255524E+02 -0.45113385774E+03  0.48702981285E+03  0.17300000000E+03 0. -1.
<mgrwt>
<rscale>  2 0.18351098E+03</rscale>
<asrwt>0</asrwt>
<pdfrwt beam="1">  1       21 0.45998119E-02 0.18351098E+03</pdfrwt>
<pdfrwt beam="2">  1       21 0.18054761E+00 0.18351098E+03</pdfrwt>
<totfact> 0.56191387E+04</totfact>
</mgrwt>
</event>
<event>
 4    1  0.4327903E+000  0.1750047E+03  0.7546771E-02  0.1172727E+00
         21   -1    0    0  501  502  0.00000000000E+00  0.00000000000E+00  0.40857201421E+02  0.40857201421E+02  0.00000000000E+00 0. -1.
         21   -1    0    0  502  503 -0.00000000000E+00 -0.00000000000E+00 -0.75744432843E+03  0.75744432843E+03  0.00000000000E+00 0. -1.
          6    1    1    2  501    0 -0.19620038631E+02 -0.17683049690E+02 -0.39890858177E+03  0.43560841678E+03  0.17300000000E+03 0.  1.
         -6    1    1    2    0  503  0.19620038631E+02  0.17683049690E+02 -0.31767854524E+03  0.36269311307E+03  0.17300000000E+03 0.  1.
<mgrwt>
<rscale>  2 0.17500467E+03</rscale>
<asrwt>0</asrwt>
<pdfrwt beam="1">  1       21 0.62857233E-02 0.17500467E+03</pdfrwt>
<pdfrwt beam="2">  1       21 0.11652990E+00 0.17500467E+03</pdfrwt>
<totfact> 0.10413265E+05</totfact>
</mgrwt>
</event>
<event>
 4    1  0.4327903E+000  0.2406855E+03  0.7546771E-02  0.1119337E+00
         21   -1    0    0  503  502  0.00000000000E+00  0.00000000000E+00  0.92816844916E+03  0.92816844916E+03  0.00000000000E+00 0. -1.
         21   -1    0    0  501  503 -0.00000000000E+00 -0.00000000000E+00 -0.62447688532E+02  0.62447688532E+02  0.00000000000E+00 0. -1.
          6    1    1    2  501    0  0.10778303881E+03  0.12799731790E+03  0.42113588217E+03  0.48506177760E+03  0.17300000000E+03 0. -1.
         -6    1    1    2    0  502 -0.10778303881E+03 -0.12799731790E+03  0.44458487846E+03  0.50555436009E+03  0.17300000000E+03 0. -1.
<mgrwt>
<rscale>  2 0.24068547E+03</rscale>
<asrwt>0</asrwt>
<pdfrwt beam="1">  1       21 0.14279514E+00 0.24068547E+03</pdfrwt>
<pdfrwt beam="2">  1       21 0.96073373E-02 0.24068547E+03</pdfrwt>
<totfact> 0.28797061E+04</totfact>
</mgrwt>
</event>
<event>
 4    1  0.4327903E+000  0.1810555E+03  0.7546771E-02  0.1166785E+00
         21   -1    0    0  503  502  0.00000000000E+00  0.00000000000E+00  0.61455628528E+03  0.61455628528E+03  0.00000000000E+00 0. -1.
         21   -1    0    0  501  503 -0.00000000000E+00 -0.00000000000E+00 -0.67637763021E+02  0.67637763021E+02  0.00000000000E+00 0. -1.
          6    1    1    2  501    0  0.80038496137E+01 -0.52801683276E+02  0.11663929081E+03  0.21537363702E+03  0.17300000000E+03 0. -1.
         -6    1    1    2    0  502 -0.80038496137E+01  0.52801683276E+02  0.43027923146E+03  0.46682041128E+03  0.17300000000E+03 0. -1.
<mgrwt>
<rscale>  2 0.18105546E+03</rscale>
<asrwt>0</asrwt>
<pdfrwt beam="1">  1       21 0.94547117E-01 0.18105546E+03</pdfrwt>
<pdfrwt beam="2">  1       21 0.10405810E-01 0.18105546E+03</pdfrwt>
<totfact> 0.71218076E+04</totfact>
</mgrwt>
</event>
<event>
 4    1  0.4327903E+000  0.2078899E+03  0.7546771E-02  0.1143248E+00
         21   -1    0    0  501  502  0.00000000000E+00  0.00000000000E+00  0.30024224168E+02  0.30024224168E+02  0.00000000000E+00 0.  1.
         21   -1    0    0  502  503 -0.00000000000E+00 -0.00000000000E+00 -0.15454225717E+04  0.15454225717E+04  0.00000000000E+00 0. -1.
          6    1    1    2  501    0  0.90111252654E+02 -0.71896856573E+02 -0.55141842124E+03  0.58930507475E+03  0.17300000000E+03 0.  1.
         -6    1    1    2    0  503 -0.90111252654E+02  0.71896856573E+02 -0.96397992626E+03  0.98614172109E+03  0.17300000000E+03 0.  1.
<mgrwt>
<rscale>  2 0.20788986E+03</rscale>
<asrwt>0</asrwt>
<pdfrwt beam="1">  1       21 0.46191104E-02 0.20788986E+03</pdfrwt>
<pdfrwt beam="2">  1       21 0.23775737E+00 0.20788986E+03</pdfrwt>
<totfact> 0.23869921E+04</totfact>
</mgrwt>
</event>
<event>
 4    1  0.4327903E+000  0.2935080E+03  0.7546771E-02  0.1088532E+00
         21   -1    0    0  501  502  0.00000000000E+00  0.00000000000E+00  0.17619502238E+04  0.17619502238E+04  0.00000000000E+00 0.  1.
         21   -1    0    0  502  503 -0.00000000000E+00 -0.00000000000E+00 -0.49136090004E+02  0.49136090004E+02  0.00000000000E+00 0.  1.
          6    1    1    2  501    0  0.19306226544E+03 -0.13764051390E+03  0.92010633257E+03  0.96578600769E+03  0.17300000000E+03 0.  1.
         -6    1    1    2    0  503 -0.19306226544E+03  0.13764051390E+03  0.79270780120E+03  0.84530030610E+03  0.17300000000E+03 0.  1.
<mgrwt>
<rscale>  2 0.29350801E+03</rscale>
<asrwt>0</asrwt>
<pdfrwt beam="1">  1       21 0.27106922E+00 0.29350801E+03</pdfrwt>
<pdfrwt beam="2">  1       21 0.75593998E-02 0.29350801E+03</pdfrwt>
<totfact> 0.60837315E+03</totfact>
</mgrwt>
</event>
<event>
 4    1  0.4327903E+000  0.1859088E+03  0.7546771E-02  0.1162204E+00
         21   -1    0    0  501  502  0.00000000000E+00  0.00000000000E+00  0.40413104957E+03  0.40413104957E+03  0.00000000000E+00 0.  1.
         21   -1    0    0  502  503 -0.00000000000E+00 -0.00000000000E+00 -0.98463004286E+02  0.98463004286E+02  0.00000000000E+00 0.  1.
          6    1    1    2  501    0  0.62756138418E+01  0.67776804710E+02  0.24393761600E+03  0.30670448168E+03  0.17300000000E+03 0.  1.
         -6    1    1    2    0  503 -0.62756138418E+01 -0.67776804710E+02  0.61730429284E+02  0.19588957217E+03  0.17300000000E+03 0.  1.
<mgrwt>
<rscale>  2 0.18590879E+03</rscale>
<asrwt>0</asrwt>
<pdfrwt beam="1">  1       21 0.62174007E-01 0.18590879E+03</pdfrwt>
<pdfrwt beam="2">  1       21 0.15148155E-01 0.18590879E+03</pdfrwt>
<totfact> 0.92722114E+04</totfact>
</mgrwt>
</event>
<event>
 4    1  0.4327903E+000  0.2377845E+03  0.7546771E-02  0.1121278E+00
         21   -1    0    0  501  502  0.00000000000E+00  0.00000000000E+00  0.49786988236E+03  0.49786988236E+03  0.00000000000E+00 0. -1.
         21   -1    0    0  502  503 -0.00000000000E+00 -0.00000000000E+00 -0.25039021432E+03  0.25039021432E+03  0.00000000000E+00 0.  1.
          6    1    1    2  501    0  0.15091958863E+03 -0.61933388419E+02  0.40030291057E+03  0.46560056598E+03  0.17300000000E+03 0. -1.
         -6    1    1    2    0  503 -0.15091958863E+03  0.61933388419E+02 -0.15282324253E+03  0.28265953069E+03  0.17300000000E+03 0.  1.
<mgrwt>
<rscale>  2 0.23778450E+03</rscale>
<asrwt>0</asrwt>
<pdfrwt beam="1">  1       21 0.76595367E-01 0.23778450E+03</pdfrwt>
<pdfrwt beam="2">  1       21 0.38521571E-01 0.23778450E+03</pdfrwt>
<totfact> 0.95719206E+03</totfact>
</mgrwt>
</event>
<event>
 4    1  0.4327903E+000  0.1750565E+03  0.7546771E-02  0.1172675E+00
         21   -1    0    0  503  502  0.00000000000E+00  0.00000000000E+00  0.50500230093E+03  0.50500230093E+03  0.00000000000E+00 0. -1.
         21   -1    0    0  501  503 -0.00000000000E+00 -0.00000000000E+00 -0.60717900827E+02  0.60717900827E+02  0.00000000000E+00 0. -1.
          6    1    1    2  501    0 -0.12940086798E+02  0.23416140827E+02  0.21530445427E+03  0.27749012509E+03  0.17300000000E+03 0.  1.
         -6    1    1    2    0  502  0.12940086798E+02 -0.23416140827E+02  0.22897994583E+03  0.28823007666E+03  0.17300000000E+03 0.  1.
<mgrwt>
<rscale>  2 0.17505645E+03</rscale>
<asrwt>0</asrwt>
<pdfrwt beam="1">  1       21 0.77692659E-01 0.17505645E+03</pdfrwt>
<pdfrwt beam="2">  1       21 0.93412158E-02 0.17505645E+03</pdfrwt>
<totfact> 0.13527594E+05</totfact>
</mgrwt>
</event>
<event>
 4    1  0.4327903E+000  0.2392688E+03  0.7546771E-02  0.1120281E+00
         21   -1    0    0  501  502  0.00000000000E+00  0.00000000000E+00  0.66858918837E+03  0.66858918837E+03  0.00000000000E+00 0. -1.
         21   -1    0    0  502  503 -0.00000000000E+00 -0.00000000000E+00 -0.13639114159E+03  0.13639114159E+03  0.00000000000E+00 0. -1.
          6    1    1    2  501    0 -0.14616416136E+03 -0.77179059964E+02  0.51164843830E+03  0.56483067709E+03  0.17300000000E+03 0. -1.
         -6    1    1    2    0  503  0.14616416136E+03  0.77179059964E+02  0.20549608485E+02  0.24014965287E+03  0.17300000000E+03 0. -1.
<mgrwt>
<rscale>  2 0.23926882E+03</rscale>
<asrwt>0</asrwt>
<pdfrwt beam="1">  1       21 0.10285987E+00 0.23926882E+03</pdfrwt>
<pdfrwt beam="2">  1       21 0.20983253E-01 0.23926882E+03</pdfrwt>
<totfact> 0.15744433E+04</totfact>
</mgrwt>
</event>
<event>
 4    1  0.4327903E+000  0.2130851E+03  0.7546771E-02  0.1139146E+00
         21   -1    0    0  503  502  0.00000000000E+00  0.00000000000E+00  0.55080876831E+03  0.55080876831E+03  0.00000000000E+00 0.  1.
         21   -1    0    0  501  503 -0.00000000000E+00 -0.00000000000E+00 -0.16190629807E+03  0.16190629807E+03  0.00000000000E+00 0.  1.
          6    1    1    2  501    0  0.75622064643E+00 -0.12440138833E+03 -0.55216498088E+02  0.22012300868E+03  0.17300000000E+03 0.  1.
         -6    1    1    2    0  502 -0.75622064643E+00  0.12440138833E+03  0.44411896832E+03  0.49259205770E+03  0.17300000000E+03 0.  1.
<mgrwt>
<rscale>  2 0.21308514E+03</rscale>
<asrwt>0</asrwt>
<pdfrwt beam="1">  1       21 0.84739810E-01 0.21308514E+03</pdfrwt>
<pdfrwt beam="2">  1       21 0.24908662E-01 0.21308514E+03</pdfrwt>
<totfact> 0.18176621E+04</totfact>
</mgrwt>
</event>
<event>
 4    1  0.4327903E+000  0.1802222E+03  0.7546771E-02  0.1167588E+00
         21   -1    0    0  501  502  0.00000000000E+00  0.00000000000E+00  0.64530527907E+03  0.64530527907E+03  0.00000000000E+00 0.  1.
         21   -1    0    0  502  503 -0.00000000000E+00 -0.00000000000E+00 -0.57619756511E+02  0.57619756511E+02  0.00000000000E+00 0.  1.
          6    1    1    2  501    0  0.13821382194E+01 -0.50489023795E+02  0.16885571723E+03  0.24696620229E+03  0.17300000000E+03 0.  1.
         -6    1    1    2    0  503 -0.13821382194E+01  0.50489023795E+02  0.41882980533E+03  0.45595883330E+03  0.17300000000E+03 0.  1.
<mgrwt>
<rscale>  2 0.18022223E+03</rscale>
<asrwt>0</asrwt>
<pdfrwt beam="1">  1       21 0.99277730E-01 0.18022223E+03</pdfrwt>
<pdfrwt beam="2">  1       21 0.88645784E-02 0.18022223E+03</pdfrwt>
<totfact> 0.84230648E+04</totfact>
</mgrwt>
</event>
<event>
 4    1  0.4327903E+000  0.2048099E+03  0.7546771E-02  0.1145743E+00
         21   -1    0    0  501  502  0.00000000000E+00  0.00000000000E+00  0.89258245579E+03  0.89258245579E+03  0.00000000000E+00 0.  1.
         21   -1    0    0  502  503 -0.00000000000E+00 -0.00000000000E+00 -0.97997096146E+02  0.97997096146E+02  0.00000000000E+00 0. -1.
          6    1    1    2  501    0  0.10944834830E+03  0.62589191082E+01  0.75460320279E+03  0.78190351622E+03  0.17300000000E+03 0.  1.
         -6    1    1    2    0  503 -0.10944834830E+03 -0.62589191082E+01  0.39982156850E+02  0.20867603571E+03  0.17300000000E+03 0. -1.
<mgrwt>
<rscale>  2 0.20480995E+03</rscale>
<asrwt>0</asrwt>
<pdfrwt beam="1">  1       21 0.13732037E+00 0.20480995E+03</pdfrwt>
<pdfrwt beam="2">  1       21 0.15076477E-01 0.20480995E+03</pdfrwt>
<totfact> 0.14495384E+04</totfact>
</mgrwt>
</event>
<event>
 4    1  0.4327903E+000  0.2006894E+03  0.7546771E-02  0.1149159E+00
         21   -1    0    0  501  502  0.00000000000E+00  0.00000000000E+00  0.94457439686E+03  0.94457439686E+03  0.00000000000E+00 0.  1.
         21   -1    0    0  502  503 -0.00000000000E+00 -0.00000000000E+00 -0.59939923754E+02  0.59939923754E+02  0.00000000000E+00 0.  1.
          6    1    1    2  501    0  0.41649427583E+02 -0.92803881052E+02  0.71215062136E+03  0.73988833121E+03  0.17300000000E+03 0.  1.
         -6    1    1    2    0  503 -0.41649427583E+02  0.92803881052E+02  0.17248385175E+03  0.26462598941E+03  0.17300000000E+03 0.  1.
<mgrwt>
<rscale>  2 0.20068940E+03</rscale>
<asrwt>0</asrwt>
<pdfrwt beam="1">  1       21 0.14531913E+00 0.20068940E+03</pdfrwt>
<pdfrwt beam="2">  1       21 0.92215274E-02 0.20068940E+03</pdfrwt>
<totfact> 0.30249775E+04</totfact>
</mgrwt>
</event>
<event>
 4    1  0.4327903E+000  0.3669862E+03  0.7546771E-02  0.1055851E+00
         21   -1    0    0  503  502  0.00000000000E+00  0.00000000000E+00  0.31143953357E+03  0.31143953357E+03  0.00000000000E+00 0. -1.
         21   -1    0    0  501  503 -0.00000000000E+00 -0.00000000000E+00 -0.49427611111E+03  0.49427611111E+03  0.00000000000E+00 0.  1.
          6    1    1    2  501    0  0.22377172334E+03 -0.23382912712E+03  0.51073169369E+02  0.37052302693E+03  0.17300000000E+03 0.  1.
         -6    1    1    2    0  502 -0.22377172334E+03  0.23382912712E+03 -0.23390974691E+03  0.43519261776E+03  0.17300000000E+03 0.  1.
<mgrwt>
<rscale>  2 0.36698616E+03</rscale>
<asrwt>0</asrwt>
<pdfrwt beam="1">  1       21 0.47913774E-01 0.36698616E+03</pdfrwt>
<pdfrwt beam="2">  1       21 0.76042479E-01 0.36698616E+03</pdfrwt>
<totfact> 0.58320151E+03</totfact>
</mgrwt>
</event>
<event>
 4    1  0.4327903E+000  0.1834251E+03  0.7546771E-02  0.1164529E+00
         21   -1    0    0  501  502  0.00000000000E+00  0.00000000000E+00  0.66634527574E+03  0.66634527574E+03  0.00000000000E+00 0. -1.
         21   -1    0    0  502  503 -0.00000000000E+00 -0.00000000000E+00 -0.56189060971E+02  0.56189060971E+02  0.00000000000E+00 0. -1.
          6    1    1    2  501    0  0.40599828873E+02 -0.45469041641E+02  0.42011752582E+03  0.45841413084E+03  0.17300000000E+03 0. -1.
         -6    1    1    2    0  503 -0.40599828873E+02  0.45469041641E+02  0.19003868895E+03  0.26412020587E+03  0.17300000000E+03 0. -1.
<mgrwt>
<rscale>  2 0.18342513E+03</rscale>
<asrwt>0</asrwt>
<pdfrwt beam="1">  1       21 0.10251465E+00 0.18342513E+03</pdfrwt>
<pdfrwt beam="2">  1       21 0.86444714E-02 0.18342513E+03</pdfrwt>
<totfact> 0.81440501E+04</totfact>
</mgrwt>
</event>
<event>
 4    1  0.4327903E+000  0.1962320E+03  0.7546771E-02  0.1152958E+00
         21   -1    0    0  501  502  0.00000000000E+00  0.00000000000E+00  0.13479815979E+03  0.13479815979E+03  0.00000000000E+00 0. -1.
         21   -1    0    0  502  503 -0.00000000000E+00 -0.00000000000E+00 -0.31110272309E+03  0.31110272309E+03  0.00000000000E+00 0. -1.
          6    1    1    2  501    0  0.47667929470E+01 -0.92494701886E+02 -0.24398873201E+02  0.19774300798E+03  0.17300000000E+03 0. -1.
         -6    1    1    2    0  503 -0.47667929470E+01  0.92494701886E+02 -0.15190569009E+03  0.24815787490E+03  0.17300000000E+03 0. -1.
<mgrwt>
<rscale>  2 0.19623199E+03</rscale>
<asrwt>0</asrwt>
<pdfrwt beam="1">  1       21 0.20738179E-01 0.19623199E+03</pdfrwt>
<pdfrwt beam="2">  1       21 0.47861957E-01 0.19623199E+03</pdfrwt>
<totfact> 0.89872705E+04</totfact>
</mgrwt>
</event>
<event>
 4    1  0.4327903E+000  0.1916908E+03  0.7546771E-02  0.1156945E+00
         21   -1    0    0  501  502  0.00000000000E+00  0.00000000000E+00  0.56399017413E+02  0.56399017413E+02  0.00000000000E+00 0. -1.
         21   -1    0    0  502  503 -0.00000000000E+00 -0.00000000000E+00 -0.74550067335E+03  0.74550067335E+03  0.00000000000E+00 0.  1.
          6    1    1    2  501    0  0.42198178194E+02  0.70962556602E+02 -0.20219550267E+03  0.27861872152E+03  0.17300000000E+03 0. -1.
         -6    1    1    2    0  503 -0.42198178194E+02 -0.70962556602E+02 -0.48690615326E+03  0.52328096924E+03  0.17300000000E+03 0.  1.
<mgrwt>
<rscale>  2 0.19169082E+03</rscale>
<asrwt>0</asrwt>
<pdfrwt beam="1">  1       21 0.86767721E-02 0.19169082E+03</pdfrwt>
<pdfrwt beam="2">  1       21 0.11469241E+00 0.19169082E+03</pdfrwt>
<totfact> 0.61487614E+04</totfact>
</mgrwt>
</event>
<event>
 4    1  0.4327903E+000  0.1795432E+03  0.7546771E-02  0.1168246E+00
         21   -1    0    0  503  502  0.00000000000E+00  0.00000000000E+00  0.10383412321E+03  0.10383412321E+03  0.00000000000E+00 0.  1.
         21   -1    0    0  501  503 -0.00000000000E+00 -0.00000000000E+00 -0.32510887492E+03  0.32510887492E+03  0.00000000000E+00 0.  1.
          6    1    1    2  501    0  0.45797267613E+02  0.14469719979E+02 -0.65102935167E+02  0.19098207948E+03  0.17300000000E+03 0.  1.
         -6    1    1    2    0  502 -0.45797267613E+02 -0.14469719979E+02 -0.15617181655E+03  0.23796091865E+03  0.17300000000E+03 0.  1.
<mgrwt>
<rscale>  2 0.17954321E+03</rscale>
<asrwt>0</asrwt>
<pdfrwt beam="1">  1       21 0.15974481E-01 0.17954321E+03</pdfrwt>
<pdfrwt beam="2">  1       21 0.50016750E-01 0.17954321E+03</pdfrwt>
<totfact> 0.13375456E+05</totfact>
</mgrwt>
</event>
<event>
 4    1  0.4327903E+000  0.1803915E+03  0.7546771E-02  0.1167425E+00
         21   -1    0    0  503  502  0.00000000000E+00  0.00000000000E+00  0.22878586347E+03  0.22878586347E+03  0.00000000000E+00 0.  1.
         21   -1    0    0  501  503 -0.00000000000E+00 -0.00000000000E+00 -0.14766965103E+03  0.14766965103E+03  0.00000000000E+00 0.  1.
          6    1    1    2  501    0 -0.50760775677E+02 -0.59543831628E+01  0.44448309162E+01  0.18044630101E+03  0.17300000000E+03 0. -1.
         -6    1    1    2    0  502  0.50760775677E+02  0.59543831628E+01  0.76671381527E+02  0.19600921349E+03  0.17300000000E+03 0. -1.
<mgrwt>
<rscale>  2 0.18039155E+03</rscale>
<asrwt>0</asrwt>
<pdfrwt beam="1">  1       21 0.35197825E-01 0.18039155E+03</pdfrwt>
<pdfrwt beam="2">  1       21 0.22718408E-01 0.18039155E+03</pdfrwt>
<totfact> 0.14194230E+05</totfact>
</mgrwt>
</event>
<event>
 4    1  0.4327903E+000  0.1849643E+03  0.7546771E-02  0.1163083E+00
         21   -1    0    0  503  502  0.00000000000E+00  0.00000000000E+00  0.20459545674E+04  0.20459545674E+04  0.00000000000E+00 0.  1.
         21   -1    0    0  501  503 -0.00000000000E+00 -0.00000000000E+00 -0.19693029948E+02  0.19693029948E+02  0.00000000000E+00 0. -1.
          6    1    1    2  501    0  0.63973051744E+01 -0.65129714369E+02  0.61194400612E+03  0.63928653343E+03  0.17300000000E+03 0. -1.
         -6    1    1    2    0  502 -0.63973051744E+01  0.65129714369E+02  0.14143175314E+04  0.14263610639E+04  0.17300000000E+03 0.  1.
<mgrwt>
<rscale>  2 0.18496433E+03</rscale>
<asrwt>0</asrwt>
<pdfrwt beam="1">  1       21 0.31476207E+00 0.18496433E+03</pdfrwt>
<pdfrwt beam="2">  1       21 0.30296985E-02 0.18496433E+03</pdfrwt>
<totfact> 0.17613544E+04</totfact>
</mgrwt>
</event>
<event>
 4    1  0.4327903E+000  0.1914254E+03  0.7546771E-02  0.1157182E+00
         21   -1    0    0  501  502  0.00000000000E+00  0.00000000000E+00  0.87225549127E+02  0.87225549127E+02  0.00000000000E+00 0.  1.
         21   -1    0    0  502  503 -0.00000000000E+00 -0.00000000000E+00 -0.50568387897E+03  0.50568387897E+03  0.00000000000E+00 0.  1.
          6    1    1    2  501    0  0.77929575479E+02  0.25330888636E+02 -0.87271695165E+02  0.21038065840E+03  0.17300000000E+03 0.  1.
         -6    1    1    2    0  503 -0.77929575479E+02 -0.25330888636E+02 -0.33118663468E+03  0.38252876969E+03  0.17300000000E+03 0.  1.
<mgrwt>
<rscale>  2 0.19142537E+03</rscale>
<asrwt>0</asrwt>
<pdfrwt beam="1">  1       21 0.13419315E-01 0.19142537E+03</pdfrwt>
<pdfrwt beam="2">  1       21 0.77797521E-01 0.19142537E+03</pdfrwt>
<totfact> 0.70350472E+04</totfact>
</mgrwt>
</event>
<event>
 4    1  0.4327903E+000  0.2476638E+03  0.7546771E-02  0.1114790E+00
         21   -1    0    0  501  502  0.00000000000E+00  0.00000000000E+00  0.12787138302E+04  0.12787138302E+04  0.00000000000E+00 0. -1.
         21   -1    0    0  502  503 -0.00000000000E+00 -0.00000000000E+00 -0.58431005710E+02  0.58431005710E+02  0.00000000000E+00 0. -1.
          6    1    1    2  501    0 -0.15363004052E+03  0.88352559154E+02  0.89305558031E+03  0.92676082868E+03  0.17300000000E+03 0. -1.
         -6    1    1    2    0  503  0.15363004052E+03 -0.88352559154E+02  0.32722724420E+03  0.41038400725E+03  0.17300000000E+03 0. -1.
<mgrwt>
<rscale>  2 0.24766381E+03</rscale>
<asrwt>0</asrwt>
<pdfrwt beam="1">  1       21 0.19672518E+00 0.24766381E+03</pdfrwt>
<pdfrwt beam="2">  1       21 0.89893865E-02 0.24766381E+03</pdfrwt>
<totfact> 0.13257579E+04</totfact>
</mgrwt>
</event>
<event>
 4    1  0.4327903E+000  0.1817539E+03  0.7546771E-02  0.1166116E+00
         21   -1    0    0  503  502  0.00000000000E+00  0.00000000000E+00  0.46668955601E+02  0.46668955601E+02  0.00000000000E+00 0. -1.
         21   -1    0    0  501  503 -0.00000000000E+00 -0.00000000000E+00 -0.33083092458E+04  0.33083092458E+04  0.00000000000E+00 0. -1.
          6    1    1    2  501    0 -0.55343811949E+02  0.65227973411E+01 -0.31180631218E+04  0.31233559061E+04  0.17300000000E+03 0. -1.
         -6    1    1    2    0  502  0.55343811949E+02 -0.65227973411E+01 -0.14357716836E+03  0.23162229530E+03  0.17300000000E+03 0. -1.
<mgrwt>
<rscale>  2 0.18175391E+03</rscale>
<asrwt>0</asrwt>
<pdfrwt beam="1">  1       21 0.71798378E-02 0.18175391E+03</pdfrwt>
<pdfrwt beam="2">  1       21 0.50897076E+00 0.18175391E+03</pdfrwt>
<totfact> 0.24159064E+02</totfact>
</mgrwt>
</event>
<event>
 4    1  0.4327903E+000  0.2676481E+03  0.7546771E-02  0.1102633E+00
         21   -1    0    0  501  502  0.00000000000E+00  0.00000000000E+00  0.53893607662E+02  0.53893607662E+02  0.00000000000E+00 0. -1.
         21   -1    0    0  502  503 -0.00000000000E+00 -0.00000000000E+00 -0.13293309649E+04  0.13293309649E+04  0.00000000000E+00 0.  1.
          6    1    1    2  501    0 -0.60164897969E+02 -0.19515812651E+03 -0.63091549053E+03  0.68533923387E+03  0.17300000000E+03 0. -1.
         -6    1    1    2    0  503  0.60164897969E+02  0.19515812651E+03 -0.64452186669E+03  0.69788533867E+03  0.17300000000E+03 0.  1.
<mgrwt>
<rscale>  2 0.26764811E+03</rscale>
<asrwt>0</asrwt>
<pdfrwt beam="1">  1       21 0.82913252E-02 0.26764811E+03</pdfrwt>
<pdfrwt beam="2">  1       21 0.20451243E+00 0.26764811E+03</pdfrwt>
<totfact> 0.13435795E+04</totfact>
</mgrwt>
</event>
<event>
 4    1  0.4327903E+000  0.2202939E+03  0.7546771E-02  0.1133664E+00
         21   -1    0    0  503  502  0.00000000000E+00  0.00000000000E+00  0.14553817160E+03  0.14553817160E+03  0.00000000000E+00 0. -1.
         21   -1    0    0  501  503 -0.00000000000E+00 -0.00000000000E+00 -0.33649197258E+03  0.33649197258E+03  0.00000000000E+00 0.  1.
          6    1    1    2  501    0 -0.13450522386E+03 -0.22555065890E+02 -0.11840087735E+03  0.25009628946E+03  0.17300000000E+03 0.  1.
         -6    1    1    2    0  502  0.13450522386E+03  0.22555065890E+02 -0.72552923630E+02  0.23193385473E+03  0.17300000000E+03 0.  1.
<mgrwt>
<rscale>  2 0.22029386E+03</rscale>
<asrwt>0</asrwt>
<pdfrwt beam="1">  1       21 0.22390488E-01 0.22029386E+03</pdfrwt>
<pdfrwt beam="2">  1       21 0.51767995E-01 0.22029386E+03</pdfrwt>
<totfact> 0.65360023E+04</totfact>
</mgrwt>
</event>
<event>
 4    1  0.4327903E+000  0.1865055E+03  0.7546771E-02  0.1161651E+00
         21   -1    0    0  503  502  0.00000000000E+00  0.00000000000E+00  0.10398125610E+04  0.10398125610E+04  0.00000000000E+00 0. -1.
         21   -1    0    0  501  503 -0.00000000000E+00 -0.00000000000E+00 -0.36615494127E+02  0.36615494127E+02  0.00000000000E+00 0. -1.
          6    1    1    2  501    0 -0.59275539371E+01 -0.69427344374E+02  0.34341027604E+03  0.39078755063E+03  0.17300000000E+03 0. -1.
         -6    1    1    2    0  502  0.59275539371E+01  0.69427344374E+02  0.65978679086E+03  0.68564050452E+03  0.17300000000E+03 0. -1.
<mgrwt>
<rscale>  2 0.18650547E+03</rscale>
<asrwt>0</asrwt>
<pdfrwt beam="1">  1       21 0.15997114E+00 0.18650547E+03</pdfrwt>
<pdfrwt beam="2">  1       21 0.56331537E-02 0.18650547E+03</pdfrwt>
<totfact> 0.55496052E+04</totfact>
</mgrwt>
</event>
<event>
 4    1  0.4327903E+000  0.1807199E+03  0.7546771E-02  0.1167108E+00
         21   -1    0    0  503  502  0.00000000000E+00  0.00000000000E+00  0.36768166090E+02  0.36768166090E+02  0.00000000000E+00 0.  1.
         21   -1    0    0  501  503 -0.00000000000E+00 -0.00000000000E+00 -0.13281985270E+04  0.13281985270E+04  0.00000000000E+00 0.  1.
          6    1    1    2  501    0  0.81202849725E+01 -0.51620992043E+02 -0.10385019946E+04  0.10541091303E+04  0.17300000000E+03 0.  1.
         -6    1    1    2    0  502 -0.81202849725E+01  0.51620992043E+02 -0.25292836635E+03  0.31085756280E+03  0.17300000000E+03 0.  1.
<mgrwt>
<rscale>  2 0.18071985E+03</rscale>
<asrwt>0</asrwt>
<pdfrwt beam="1">  1       21 0.56566400E-02 0.18071985E+03</pdfrwt>
<pdfrwt beam="2">  1       21 0.20433827E+00 0.18071985E+03</pdfrwt>
<totfact> 0.27715364E+04</totfact>
</mgrwt>
</event>
<event>
 4    1  0.4327903E+000  0.1894825E+03  0.7546771E-02  0.1158929E+00
         21   -1    0    0  501  502  0.00000000000E+00  0.00000000000E+00  0.13398772605E+03  0.13398772605E+03  0.00000000000E+00 0.  1.
         21   -1    0    0  502  503 -0.00000000000E+00 -0.00000000000E+00 -0.27707931032E+03  0.27707931032E+03  0.00000000000E+00 0.  1.
          6    1    1    2  501    0  0.63038922421E+02  0.44729505729E+02 -0.10882882578E+03  0.21851166500E+03  0.17300000000E+03 0.  1.
         -6    1    1    2    0  503 -0.63038922421E+02 -0.44729505729E+02 -0.34262758495E+02  0.19255537137E+03  0.17300000000E+03 0.  1.
<mgrwt>
<rscale>  2 0.18948254E+03</rscale>
<asrwt>0</asrwt>
<pdfrwt beam="1">  1       21 0.20613496E-01 0.18948254E+03</pdfrwt>
<pdfrwt beam="2">  1       21 0.42627586E-01 0.18948254E+03</pdfrwt>
<totfact> 0.11561842E+05</totfact>
</mgrwt>
</event>
<event>
 4    1  0.4327903E+000  0.1802979E+03  0.7546771E-02  0.1167515E+00
         21   -1    0    0  501  502  0.00000000000E+00  0.00000000000E+00  0.32598399660E+02  0.32598399660E+02  0.00000000000E+00 0.  1.
         21   -1    0    0  502  503 -0.00000000000E+00 -0.00000000000E+00 -0.13282177548E+04  0.13282177548E+04  0.00000000000E+00 0. -1.
          6    1    1    2  501    0  0.50446735172E+02  0.57847220723E+01 -0.30814045377E+03  0.35701243025E+03  0.17300000000E+03 0.  1.
         -6    1    1    2    0  503 -0.50446735172E+02 -0.57847220723E+01 -0.98747890132E+03  0.10038037242E+04  0.17300000000E+03 0. -1.
<mgrwt>
<rscale>  2 0.18029791E+03</rscale>
<asrwt>0</asrwt>
<pdfrwt beam="1">  1       21 0.50151385E-02 0.18029791E+03</pdfrwt>
<pdfrwt beam="2">  1       21 0.20434119E+00 0.18029791E+03</pdfrwt>
<totfact> 0.34011161E+04</totfact>
</mgrwt>
</event>
<event>
 4    1  0.4327903E+000  0.1905885E+03  0.7546771E-02  0.1157932E+00
         21   -1    0    0  501  502  0.00000000000E+00  0.00000000000E+00  0.19718599105E+03  0.19718599105E+03  0.00000000000E+00 0.  1.
         21   -1    0    0  502  503 -0.00000000000E+00 -0.00000000000E+00 -0.20170605224E+03  0.20170605224E+03  0.00000000000E+00 0. -1.
          6    1    1    2  501    0  0.43562142552E+02  0.67061895733E+02  0.56477459077E+02  0.19878043542E+03  0.17300000000E+03 0.  1.
         -6    1    1    2    0  503 -0.43562142552E+02 -0.67061895733E+02 -0.60997520265E+02  0.20011160786E+03  0.17300000000E+03 0. -1.
<mgrwt>
<rscale>  2 0.19058845E+03</rscale>
<asrwt>0</asrwt>
<pdfrwt beam="1">  1       21 0.30336306E-01 0.19058845E+03</pdfrwt>
<pdfrwt beam="2">  1       21 0.31031700E-01 0.19058845E+03</pdfrwt>
<totfact> 0.10409589E+05</totfact>
</mgrwt>
</event>
<event>
 4    1  0.4327903E+000  0.1846116E+03  0.7546771E-02  0.1163413E+00
         21   -1    0    0  503  502  0.00000000000E+00  0.00000000000E+00  0.59174065164E+03  0.59174065164E+03  0.00000000000E+00 0.  1.
         21   -1    0    0  501  503 -0.00000000000E+00 -0.00000000000E+00 -0.12277122244E+03  0.12277122244E+03  0.00000000000E+00 0.  1.
          6    1    1    2  501    0  0.37205673457E+02  0.52613453062E+02 -0.25815783296E+02  0.18640786531E+03  0.17300000000E+03 0.  1.
         -6    1    1    2    0  502 -0.37205673457E+02 -0.52613453062E+02  0.49478521249E+03  0.52810400877E+03  0.17300000000E+03 0.  1.
<mgrwt>
<rscale>  2 0.18461159E+03</rscale>
<asrwt>0</asrwt>
<pdfrwt beam="1">  1       21 0.91037022E-01 0.18461159E+03</pdfrwt>
<pdfrwt beam="2">  1       21 0.18887881E-01 0.18461159E+03</pdfrwt>
<totfact> 0.26392419E+04</totfact>
</mgrwt>
</event>
<event>
 4    1  0.4327903E+000  0.1732224E+03  0.7546771E-02  0.1174528E+00
         21   -1    0    0  501  502  0.00000000000E+00  0.00000000000E+00  0.14717888233E+03  0.14717888233E+03  0.00000000000E+00 0. -1.
         21   -1    0    0  502  503 -0.00000000000E+00 -0.00000000000E+00 -0.21618365431E+03  0.21618365431E+03  0.00000000000E+00 0. -1.
          6    1    1    2  501    0 -0.62949621311E+01  0.61133564810E+01  0.88502386517E+01  0.17344833928E+03  0.17300000000E+03 0. -1.
         -6    1    1    2    0  503  0.62949621311E+01 -0.61133564810E+01 -0.77855010638E+02  0.18991419736E+03  0.17300000000E+03 0. -1.
<mgrwt>
<rscale>  2 0.17322240E+03</rscale>
<asrwt>0</asrwt>
<pdfrwt beam="1">  1       21 0.22642905E-01 0.17322240E+03</pdfrwt>
<pdfrwt beam="2">  1       21 0.33259023E-01 0.17322240E+03</pdfrwt>
<totfact> 0.16012971E+05</totfact>
</mgrwt>
</event>
<event>
 4    1  0.4327903E+000  0.2155316E+03  0.7546771E-02  0.1137259E+00
         21   -1    0    0  501  502  0.00000000000E+00  0.00000000000E+00  0.56719003506E+02  0.56719003506E+02  0.00000000000E+00 0. -1.
         21   -1    0    0  502  503 -0.00000000000E+00 -0.00000000000E+00 -0.85066383598E+03  0.85066383598E+03  0.00000000000E+00 0.  1.
          6    1    1    2  501    0 -0.88600521466E+02 -0.93138645840E+02 -0.48447943717E+03  0.53025860181E+03  0.17300000000E+03 0.  1.
         -6    1    1    2    0  503  0.88600521466E+02  0.93138645840E+02 -0.30946539531E+03  0.37712423768E+03  0.17300000000E+03 0. -1.
<mgrwt>
<rscale>  2 0.21553157E+03</rscale>
<asrwt>0</asrwt>
<pdfrwt beam="1">  1       21 0.87260012E-02 0.21553157E+03</pdfrwt>
<pdfrwt beam="2">  1       21 0.13087135E+00 0.21553157E+03</pdfrwt>
<totfact> 0.43281885E+04</totfact>
</mgrwt>
</event>
<event>
 4    1  0.4327903E+000  0.2280464E+03  0.7546771E-02  0.1128022E+00
         21   -1    0    0  503  502  0.00000000000E+00  0.00000000000E+00  0.14034589469E+03  0.14034589469E+03  0.00000000000E+00 0. -1.
         21   -1    0    0  501  503 -0.00000000000E+00 -0.00000000000E+00 -0.44339754062E+03  0.44339754062E+03  0.00000000000E+00 0. -1.
          6    1    1    2  501    0 -0.68646639996E+02  0.13177176675E+03 -0.26983081404E+03  0.35329000538E+03  0.17300000000E+03 0. -1.
         -6    1    1    2    0  502  0.68646639996E+02 -0.13177176675E+03 -0.33220831888E+02  0.23045342993E+03  0.17300000000E+03 0. -1.
<mgrwt>
<rscale>  2 0.22804640E+03</rscale>
<asrwt>0</asrwt>
<pdfrwt beam="1">  1       21 0.21591676E-01 0.22804640E+03</pdfrwt>
<pdfrwt beam="2">  1       21 0.68215005E-01 0.22804640E+03</pdfrwt>
<totfact> 0.38527820E+04</totfact>
</mgrwt>
</event>
<event>
 4    1  0.4327903E+000  0.1923544E+03  0.7546771E-02  0.1156355E+00
         21   -1    0    0  503  502  0.00000000000E+00  0.00000000000E+00  0.12242321852E+04  0.12242321852E+04  0.00000000000E+00 0.  1.
         21   -1    0    0  501  503 -0.00000000000E+00 -0.00000000000E+00 -0.30334833869E+02  0.30334833869E+02  0.00000000000E+00 0.  1.
          6    1    1    2  501    0 -0.34093852838E+02  0.76868817996E+02  0.55889434629E+03  0.59106945133E+03  0.17300000000E+03 0.  1.
         -6    1    1    2    0  502  0.34093852838E+02 -0.76868817996E+02  0.63500300502E+03  0.66349756772E+03  0.17300000000E+03 0.  1.
<mgrwt>
<rscale>  2 0.19235438E+03</rscale>
<asrwt>0</asrwt>
<pdfrwt beam="1">  1       21 0.18834337E+00 0.19235438E+03</pdfrwt>
<pdfrwt beam="2">  1       21 0.46668985E-02 0.19235438E+03</pdfrwt>
<totfact> 0.48359990E+04</totfact>
</mgrwt>
</event>
<event>
 4    1  0.4327903E+000  0.2381743E+03  0.7546771E-02  0.1121015E+00
         21   -1    0    0  501  502  0.00000000000E+00  0.00000000000E+00  0.19886051485E+02  0.19886051485E+02  0.00000000000E+00 0.  1.
         21   -1    0    0  502  503 -0.00000000000E+00 -0.00000000000E+00 -0.31196100055E+04  0.31196100055E+04  0.00000000000E+00 0.  1.
          6    1    1    2  501    0  0.10976693159E+03 -0.12144639067E+03 -0.10906202638E+04  0.11163241308E+04  0.17300000000E+03 0.  1.
         -6    1    1    2    0  503 -0.10976693159E+03  0.12144639067E+03 -0.20091036902E+04  0.20231719262E+04  0.17300000000E+03 0.  1.
<mgrwt>
<rscale>  2 0.23817432E+03</rscale>
<asrwt>0</asrwt>
<pdfrwt beam="1">  1       21 0.30593941E-02 0.23817432E+03</pdfrwt>
<pdfrwt beam="2">  1       21 0.47993976E+00 0.23817432E+03</pdfrwt>
<totfact> 0.15008711E+03</totfact>
</mgrwt>
</event>
<event>
 4    1  0.4327903E+000  0.2127703E+03  0.7546771E-02  0.1139391E+00
         21   -1    0    0  501  502  0.00000000000E+00  0.00000000000E+00  0.21930159105E+04  0.21930159105E+04  0.00000000000E+00 0.  1.
         21   -1    0    0  502  503 -0.00000000000E+00 -0.00000000000E+00 -0.22710742869E+02  0.22710742869E+02  0.00000000000E+00 0. -1.
          6    1    1    2  501    0  0.47090478991E+00  0.12386276386E+03  0.14194103411E+04  0.14352689374E+04  0.17300000000E+03 0.  1.
         -6    1    1    2    0  503 -0.47090478991E+00 -0.12386276386E+03  0.75089482650E+03  0.78045771601E+03  0.17300000000E+03 0.  1.
<mgrwt>
<rscale>  2 0.21277031E+03</rscale>
<asrwt>0</asrwt>
<pdfrwt beam="1">  1       21 0.33738690E+00 0.21277031E+03</pdfrwt>
<pdfrwt beam="2">  1       21 0.34939622E-02 0.21277031E+03</pdfrwt>
<totfact> 0.99617837E+03</totfact>
</mgrwt>
</event>
<event>
 4    1  0.4327903E+000  0.2589771E+03  0.7546771E-02  0.1107759E+00
         21   -1    0    0  501  502  0.00000000000E+00  0.00000000000E+00  0.14832876883E+03  0.14832876883E+03  0.00000000000E+00 0. -1.
         21   -1    0    0  502  503 -0.00000000000E+00 -0.00000000000E+00 -0.45405804234E+03  0.45405804234E+03  0.00000000000E+00 0. -1.
          6    1    1    2  501    0 -0.19234743002E+03 -0.11940728329E+02 -0.17231112860E+03  0.31106308021E+03  0.17300000000E+03 0. -1.
         -6    1    1    2    0  503  0.19234743002E+03  0.11940728329E+02 -0.13341814492E+03  0.29132373096E+03  0.17300000000E+03 0. -1.
<mgrwt>
<rscale>  2 0.25897705E+03</rscale>
<asrwt>0</asrwt>
<pdfrwt beam="1">  1       21 0.22819810E-01 0.25897705E+03</pdfrwt>
<pdfrwt beam="2">  1       21 0.69855085E-01 0.25897705E+03</pdfrwt>
<totfact> 0.32465451E+04</totfact>
</mgrwt>
</event>
<event>
 4    1  0.4327903E+000  0.1750911E+03  0.7546771E-02  0.1172640E+00
         21   -1    0    0  501  502  0.00000000000E+00  0.00000000000E+00  0.14068469694E+03  0.14068469694E+03  0.00000000000E+00 0. -1.
         21   -1    0    0  502  503 -0.00000000000E+00 -0.00000000000E+00 -0.23056195366E+03  0.23056195366E+03  0.00000000000E+00 0. -1.
          6    1    1    2  501    0  0.26947007770E+02  0.13199434666E+01 -0.14592607813E+01  0.17509715281E+03  0.17300000000E+03 0.  1.
         -6    1    1    2    0  503 -0.26947007770E+02 -0.13199434666E+01 -0.88417995937E+02  0.19614949779E+03  0.17300000000E+03 0.  1.
<mgrwt>
<rscale>  2 0.17509107E+03</rscale>
<asrwt>0</asrwt>
<pdfrwt beam="1">  1       21 0.21643800E-01 0.17509107E+03</pdfrwt>
<pdfrwt beam="2">  1       21 0.35471069E-01 0.17509107E+03</pdfrwt>
<totfact> 0.15340378E+05</totfact>
</mgrwt>
</event>
<event>
 4    1  0.4327903E+000  0.1857023E+03  0.7546771E-02  0.1162396E+00
         21   -1    0    0  503  502  0.00000000000E+00  0.00000000000E+00  0.55638382221E+02  0.55638382221E+02  0.00000000000E+00 0.  1.
         21   -1    0    0  501  503 -0.00000000000E+00 -0.00000000000E+00 -0.77295541804E+03  0.77295541804E+03  0.00000000000E+00 0. -1.
          6    1    1    2  501    0 -0.63192361679E+02  0.23729371793E+02 -0.54306793771E+03  0.57394088775E+03  0.17300000000E+03 0. -1.
         -6    1    1    2    0  502  0.63192361679E+02 -0.23729371793E+02 -0.17424909811E+03  0.25465291252E+03  0.17300000000E+03 0.  1.
<mgrwt>
<rscale>  2 0.18570234E+03</rscale>
<asrwt>0</asrwt>
<pdfrwt beam="1">  1       21 0.85597523E-02 0.18570234E+03</pdfrwt>
<pdfrwt beam="2">  1       21 0.11891620E+00 0.18570234E+03</pdfrwt>
<totfact> 0.57800795E+04</totfact>
</mgrwt>
</event>
<event>
 4    1  0.4327903E+000  0.2985404E+03  0.7546771E-02  0.1085973E+00
         21   -1    0    0  501  502  0.00000000000E+00  0.00000000000E+00  0.88071460512E+03  0.88071460512E+03  0.00000000000E+00 0. -1.
         21   -1    0    0  502  503 -0.00000000000E+00 -0.00000000000E+00 -0.10597769965E+03  0.10597769965E+03  0.00000000000E+00 0. -1.
          6    1    1    2  501    0  0.16013950961E+01 -0.24329978853E+03  0.49214290079E+03  0.57561357381E+03  0.17300000000E+03 0. -1.
         -6    1    1    2    0  503 -0.16013950961E+01  0.24329978853E+03  0.28259400468E+03  0.41107873096E+03  0.17300000000E+03 0. -1.
<mgrwt>
<rscale>  2 0.29854037E+03</rscale>
<asrwt>0</asrwt>
<pdfrwt beam="1">  1       21 0.13549455E+00 0.29854037E+03</pdfrwt>
<pdfrwt beam="2">  1       21 0.16304262E-01 0.29854037E+03</pdfrwt>
<totfact> 0.12323641E+04</totfact>
</mgrwt>
</event>
<event>
 4    1  0.4327903E+000  0.2792480E+03  0.7546771E-02  0.1096100E+00
         21   -1    0    0  503  502  0.00000000000E+00  0.00000000000E+00  0.33161221252E+03  0.33161221252E+03  0.00000000000E+00 0. -1.
         21   -1    0    0  501  503 -0.00000000000E+00 -0.00000000000E+00 -0.30212837859E+03  0.30212837859E+03  0.00000000000E+00 0. -1.
          6    1    1    2  501    0 -0.21840313708E+03  0.18722346641E+02 -0.13444983870E+03  0.30992937208E+03  0.17300000000E+03 0. -1.
         -6    1    1    2    0  502  0.21840313708E+03 -0.18722346641E+02  0.16393367263E+03  0.32381121903E+03  0.17300000000E+03 0. -1.
<mgrwt>
<rscale>  2 0.27924802E+03</rscale>
<asrwt>0</asrwt>
<pdfrwt beam="1">  1       21 0.51017263E-01 0.27924802E+03</pdfrwt>
<pdfrwt beam="2">  1       21 0.46481289E-01 0.27924802E+03</pdfrwt>
<totfact> 0.15456095E+04</totfact>
</mgrwt>
</event>
<event>
 4    1  0.4327903E+000  0.3050127E+03  0.7546771E-02  0.1082761E+00
         21   -1    0    0  501  502  0.00000000000E+00  0.00000000000E+00  0.23350108009E+03  0.23350108009E+03  0.00000000000E+00 0.  1.
         21   -1    0    0  502  503 -0.00000000000E+00 -0.00000000000E+00 -0.61833914761E+03  0.61833914761E+03  0.00000000000E+00 0.  1.
          6    1    1    2  501    0  0.24932629952E+03 -0.30662090419E+02  0.61585192097E+02  0.31116796639E+03  0.17300000000E+03 0.  1.
         -6    1    1    2    0  503 -0.24932629952E+03  0.30662090419E+02 -0.44642325962E+03  0.54067226131E+03  0.17300000000E+03 0.  1.
<mgrwt>
<rscale>  2 0.30501273E+03</rscale>
<asrwt>0</asrwt>
<pdfrwt beam="1">  1       21 0.35923243E-01 0.30501273E+03</pdfrwt>
<pdfrwt beam="2">  1       21 0.95129100E-01 0.30501273E+03</pdfrwt>
<totfact> 0.64429485E+03</totfact>
</mgrwt>
</event>
<event>
 4    1  0.4327903E+000  0.2072458E+03  0.7546771E-02  0.1143766E+00
         21   -1    0    0  503  502  0.00000000000E+00  0.00000000000E+00  0.47117341323E+03  0.47117341323E+03  0.00000000000E+00 0. -1.
         21   -1    0    0  501  503 -0.00000000000E+00 -0.00000000000E+00 -0.18832057566E+03  0.18832057566E+03  0.00000000000E+00 0. -1.
          6    1    1    2  501    0  0.10033626955E+01  0.11410880106E+03 -0.95429024395E+02  0.22816117968E+03  0.17300000000E+03 0. -1.
         -6    1    1    2    0  502 -0.10033626955E+01 -0.11410880106E+03  0.37828186196E+03  0.43133280922E+03  0.17300000000E+03 0. -1.
<mgrwt>
<rscale>  2 0.20724581E+03</rscale>
<asrwt>0</asrwt>
<pdfrwt beam="1">  1       21 0.72488217E-01 0.20724581E+03</pdfrwt>
<pdfrwt beam="2">  1       21 0.28972396E-01 0.20724581E+03</pdfrwt>
<totfact> 0.19386819E+04</totfact>
</mgrwt>
</event>
<event>
 4    1  0.4327903E+000  0.2052735E+03  0.7546771E-02  0.1145364E+00
         21   -1    0    0  501  502  0.00000000000E+00  0.00000000000E+00  0.38196578560E+03  0.38196578560E+03  0.00000000000E+00 0. -1.
         21   -1    0    0  502  503 -0.00000000000E+00 -0.00000000000E+00 -0.11415999456E+03  0.11415999456E+03  0.00000000000E+00 0.  1.
          6    1    1    2  501    0  0.61625687311E+02  0.91708776948E+02  0.17941780548E+03  0.27263157196E+03  0.17300000000E+03 0. -1.
         -6    1    1    2    0  503 -0.61625687311E+02 -0.91708776948E+02  0.88387985564E+02  0.22349420820E+03  0.17300000000E+03 0.  1.
<mgrwt>
<rscale>  2 0.20527354E+03</rscale>
<asrwt>0</asrwt>
<pdfrwt beam="1">  1       21 0.58763966E-01 0.20527354E+03</pdfrwt>
<pdfrwt beam="2">  1       21 0.17563076E-01 0.20527354E+03</pdfrwt>
<totfact> 0.79165295E+04</totfact>
</mgrwt>
</event>
<event>
 4    1  0.4327903E+000  0.1981012E+03  0.7546771E-02  0.1151351E+00
         21   -1    0    0  503  502  0.00000000000E+00  0.00000000000E+00  0.38707183770E+02  0.38707183770E+02  0.00000000000E+00 0. -1.
         21   -1    0    0  501  503 -0.00000000000E+00 -0.00000000000E+00 -0.10260036468E+04  0.10260036468E+04  0.00000000000E+00 0.  1.
          6    1    1    2  501    0 -0.80156919526E+02 -0.53758107019E+02 -0.55153998414E+03  0.58603789974E+03  0.17300000000E+03 0.  1.
         -6    1    1    2    0  502  0.80156919526E+02  0.53758107019E+02 -0.43575647884E+03  0.47867293079E+03  0.17300000000E+03 0. -1.
<mgrwt>
<rscale>  2 0.19810115E+03</rscale>
<asrwt>0</asrwt>
<pdfrwt beam="1">  1       21 0.59549511E-02 0.19810115E+03</pdfrwt>
<pdfrwt beam="2">  1       21 0.15784672E+00 0.19810115E+03</pdfrwt>
<totfact> 0.51976613E+04</totfact>
</mgrwt>
</event>
<event>
 4    1  0.4327903E+000  0.2601987E+03  0.7546771E-02  0.1107024E+00
         21   -1    0    0  501  502  0.00000000000E+00  0.00000000000E+00  0.51987317640E+03  0.51987317640E+03  0.00000000000E+00 0. -1.
         21   -1    0    0  502  503 -0.00000000000E+00 -0.00000000000E+00 -0.13254719647E+03  0.13254719647E+03  0.00000000000E+00 0.  1.
          6    1    1    2  501    0  0.89110188220E+02 -0.17272441718E+03  0.23678963654E+03  0.35181341917E+03  0.17300000000E+03 0. -1.
         -6    1    1    2    0  503 -0.89110188220E+02  0.17272441718E+03  0.15053634339E+03  0.30060695371E+03  0.17300000000E+03 0. -1.
<mgrwt>
<rscale>  2 0.26019867E+03</rscale>
<asrwt>0</asrwt>
<pdfrwt beam="1">  1       21 0.79980488E-01 0.26019867E+03</pdfrwt>
<pdfrwt beam="2">  1       21 0.20391877E-01 0.26019867E+03</pdfrwt>
<totfact> 0.29616350E+04</totfact>
</mgrwt>
</event>
<event>
 4    1  0.4327903E+000  0.2072595E+03  0.7546771E-02  0.1143755E+00
         21   -1    0    0  501  502  0.00000000000E+00  0.00000000000E+00  0.14435632333E+04  0.14435632333E+04  0.00000000000E+00 0.  1.
         21   -1    0    0  502  503 -0.00000000000E+00 -0.00000000000E+00 -0.45178334470E+02  0.45178334470E+02  0.00000000000E+00 0. -1.
          6    1    1    2  501    0  0.10154412381E+03 -0.52118219873E+02  0.11340842515E+04  0.11528675585E+04  0.17300000000E+03 0.  1.
         -6    1    1    2    0  503 -0.10154412381E+03  0.52118219873E+02  0.26430064728E+03  0.33587400923E+03  0.17300000000E+03 0. -1.
<mgrwt>
<rscale>  2 0.20725954E+03</rscale>
<asrwt>0</asrwt>
<pdfrwt beam="1">  1       21 0.22208662E+00 0.20725954E+03</pdfrwt>
<pdfrwt beam="2">  1       21 0.69505141E-02 0.20725954E+03</pdfrwt>
<totfact> 0.14777808E+04</totfact>
</mgrwt>
</event>
<event>
 4    1  0.4327903E+000  0.1768842E+03  0.7546771E-02  0.1170853E+00
         21   -1    0    0  501  502  0.00000000000E+00  0.00000000000E+00  0.18840597830E+03  0.18840597830E+03  0.00000000000E+00 0.  1.
         21   -1    0    0  502  503 -0.00000000000E+00 -0.00000000000E+00 -0.16823548543E+03  0.16823548543E+03  0.00000000000E+00 0. -1.
          6    1    1    2  501    0  0.24108657153E+02 -0.27888849317E+02 -0.10159925326E+02  0.17717573013E+03  0.17300000000E+03 0. -1.
         -6    1    1    2    0  503 -0.24108657153E+02  0.27888849317E+02  0.30330418199E+02  0.17946573359E+03  0.17300000000E+03 0.  1.
<mgrwt>
<rscale>  2 0.17688419E+03</rscale>
<asrwt>0</asrwt>
<pdfrwt beam="1">  1       21 0.28985535E-01 0.17688419E+03</pdfrwt>
<pdfrwt beam="2">  1       21 0.25882382E-01 0.17688419E+03</pdfrwt>
<totfact> 0.16229487E+05</totfact>
</mgrwt>
</event>
<event>
 4    1  0.4327903E+000  0.3126725E+03  0.7546771E-02  0.1079072E+00
         21   -1    0    0  501  502  0.00000000000E+00  0.00000000000E+00  0.33853533396E+03  0.33853533396E+03  0.00000000000E+00 0. -1.
         21   -1    0    0  502  503 -0.00000000000E+00 -0.00000000000E+00 -0.13827044544E+04  0.13827044544E+04  0.00000000000E+00 0.  1.
          6    1    1    2  501    0  0.25149375752E+03 -0.67719926055E+02  0.24340500007E+03  0.39624499053E+03  0.17300000000E+03 0. -1.
         -6    1    1    2    0  503 -0.25149375752E+03  0.67719926055E+02 -0.12875741205E+04  0.13249947978E+04  0.17300000000E+03 0.  1.
<mgrwt>
<rscale>  2 0.31267251E+03</rscale>
<asrwt>0</asrwt>
<pdfrwt beam="1">  1       21 0.52082360E-01 0.31267251E+03</pdfrwt>
<pdfrwt beam="2">  1       21 0.21272376E+00 0.31267251E+03</pdfrwt>
<totfact> 0.34629737E+02</totfact>
</mgrwt>
</event>
<event>
 4    1  0.4327903E+000  0.1916210E+03  0.7546771E-02  0.1157007E+00
         21   -1    0    0  501  502  0.00000000000E+00  0.00000000000E+00  0.10169250596E+03  0.10169250596E+03  0.00000000000E+00 0.  1.
         21   -1    0    0  502  503 -0.00000000000E+00 -0.00000000000E+00 -0.52028349398E+03  0.52028349398E+03  0.00000000000E+00 0.  1.
          6    1    1    2  501    0 -0.70687504314E+02  0.42342493463E+02 -0.37264428387E+02  0.19521077747E+03  0.17300000000E+03 0.  1.
         -6    1    1    2    0  503  0.70687504314E+02 -0.42342493463E+02 -0.38132655964E+03  0.42676522246E+03  0.17300000000E+03 0.  1.
<mgrwt>
<rscale>  2 0.19162101E+03</rscale>
<asrwt>0</asrwt>
<pdfrwt beam="1">  1       21 0.15645001E-01 0.19162101E+03</pdfrwt>
<pdfrwt beam="2">  1       21 0.80043615E-01 0.19162101E+03</pdfrwt>
<totfact> 0.49930254E+04</totfact>
</mgrwt>
</event>
<event>
 4    1  0.4327903E+000  0.1859963E+03  0.7546771E-02  0.1162123E+00
         21   -1    0    0  501  502  0.00000000000E+00  0.00000000000E+00  0.87766049132E+03  0.87766049132E+03  0.00000000000E+00 0. -1.
         21   -1    0    0  502  503 -0.00000000000E+00 -0.00000000000E+00 -0.65550117600E+02  0.65550117600E+02  0.00000000000E+00 0. -1.
          6    1    1    2  501    0 -0.68101965015E+02 -0.52664270557E+01  0.70383057020E+03  0.72799181619E+03  0.17300000000E+03 0. -1.
         -6    1    1    2    0  503  0.68101965015E+02  0.52664270557E+01  0.10827980352E+03  0.21521879273E+03  0.17300000000E+03 0. -1.
<mgrwt>
<rscale>  2 0.18599627E+03</rscale>
<asrwt>0</asrwt>
<pdfrwt beam="1">  1       21 0.13502468E+00 0.18599627E+03</pdfrwt>
<pdfrwt beam="2">  1       21 0.10084634E-01 0.18599627E+03</pdfrwt>
<totfact> 0.31514988E+04</totfact>
</mgrwt>
</event>
<event>
 4    1  0.4327903E+000  0.2653707E+03  0.7546771E-02  0.1103959E+00
         21   -1    0    0  501  502  0.00000000000E+00  0.00000000000E+00  0.21660216878E+04  0.21660216878E+04  0.00000000000E+00 0.  1.
         21   -1    0    0  502  503 -0.00000000000E+00 -0.00000000000E+00 -0.47997785960E+02  0.47997785960E+02  0.00000000000E+00 0. -1.
          6    1    1    2  501    0  0.56726102827E+02  0.19306674715E+03  0.16878053391E+04  0.17085398685E+04  0.17300000000E+03 0.  1.
         -6    1    1    2    0  503 -0.56726102827E+02 -0.19306674715E+03  0.43021856274E+03  0.50547960525E+03  0.17300000000E+03 0. -1.
<mgrwt>
<rscale>  2 0.26537072E+03</rscale>
<asrwt>0</asrwt>
<pdfrwt beam="1">  1       21 0.33323403E+00 0.26537072E+03</pdfrwt>
<pdfrwt beam="2">  1       21 0.73842765E-02 0.26537072E+03</pdfrwt>
<totfact> 0.27903356E+03</totfact>
</mgrwt>
</event>
<event>
 4    1  0.4327903E+000  0.1807517E+03  0.7546771E-02  0.1167078E+00
         21   -1    0    0  501  502  0.00000000000E+00  0.00000000000E+00  0.29283739364E+02  0.29283739364E+02  0.00000000000E+00 0. -1.
         21   -1    0    0  502  503 -0.00000000000E+00 -0.00000000000E+00 -0.12546820632E+04  0.12546820632E+04  0.00000000000E+00 0.  1.
          6    1    1    2  501    0 -0.44306321997E+02  0.27912719995E+02 -0.39901456078E+03  0.43804541981E+03  0.17300000000E+03 0. -1.
         -6    1    1    2    0  503  0.44306321997E+02 -0.27912719995E+02 -0.82638376307E+03  0.84592038276E+03  0.17300000000E+03 0.  1.
<mgrwt>
<rscale>  2 0.18075168E+03</rscale>
<asrwt>0</asrwt>
<pdfrwt beam="1">  1       21 0.45051910E-02 0.18075168E+03</pdfrwt>
<pdfrwt beam="2">  1       21 0.19302800E+00 0.18075168E+03</pdfrwt>
<totfact> 0.48170287E+04</totfact>
</mgrwt>
</event>
<event>
 4    1  0.4327903E+000  0.1870194E+03  0.7546771E-02  0.1161177E+00
         21   -1    0    0  503  502  0.00000000000E+00  0.00000000000E+00  0.37669527072E+02  0.37669527072E+02  0.00000000000E+00 0. -1.
         21   -1    0    0  501  503 -0.00000000000E+00 -0.00000000000E+00 -0.16480850294E+04  0.16480850294E+04  0.00000000000E+00 0. -1.
          6    1    1    2  501    0 -0.20136528231E+02  0.68130559191E+02 -0.13621559736E+04  0.13749345982E+04  0.17300000000E+03 0. -1.
         -6    1    1    2    0  502  0.20136528231E+02 -0.68130559191E+02 -0.24825952871E+03  0.31081995827E+03  0.17300000000E+03 0. -1.
<mgrwt>
<rscale>  2 0.18701939E+03</rscale>
<asrwt>0</asrwt>
<pdfrwt beam="1">  1       21 0.57953132E-02 0.18701939E+03</pdfrwt>
<pdfrwt beam="2">  1       21 0.25355148E+00 0.18701939E+03</pdfrwt>
<totfact> 0.13330980E+04</totfact>
</mgrwt>
</event>
<event>
 4    1  0.4327903E+000  0.1760655E+03  0.7546771E-02  0.1171666E+00
         21   -1    0    0  501  502  0.00000000000E+00  0.00000000000E+00  0.47203642445E+02  0.47203642445E+02  0.00000000000E+00 0. -1.
         21   -1    0    0  502  503 -0.00000000000E+00 -0.00000000000E+00 -0.65685674801E+03  0.65685674801E+03  0.00000000000E+00 0. -1.
          6    1    1    2  501    0 -0.61660673922E+01  0.32125641917E+02 -0.29955463788E+03  0.34746519010E+03  0.17300000000E+03 0. -1.
         -6    1    1    2    0  503  0.61660673922E+01 -0.32125641917E+02 -0.31009846769E+03  0.35659520036E+03  0.17300000000E+03 0. -1.
<mgrwt>
<rscale>  2 0.17606555E+03</rscale>
<asrwt>0</asrwt>
<pdfrwt beam="1">  1       21 0.72620985E-02 0.17606555E+03</pdfrwt>
<pdfrwt beam="2">  1       21 0.10105489E+00 0.17606555E+03</pdfrwt>
<totfact> 0.11441590E+05</totfact>
</mgrwt>
</event>
<event>
 4    1  0.4327903E+000  0.1780823E+03  0.7546771E-02  0.1169672E+00
         21   -1    0    0  503  502  0.00000000000E+00  0.00000000000E+00  0.88644635437E+02  0.88644635437E+02  0.00000000000E+00 0. -1.
         21   -1    0    0  501  503 -0.00000000000E+00 -0.00000000000E+00 -0.49562530045E+03  0.49562530045E+03  0.00000000000E+00 0. -1.
          6    1    1    2  501    0  0.41552497705E+02 -0.75953784298E+01 -0.35756737635E+03  0.39945929513E+03  0.17300000000E+03 0.  1.
         -6    1    1    2    0  502 -0.41552497705E+02  0.75953784298E+01 -0.49413288664E+02  0.18481064075E+03  0.17300000000E+03 0.  1.
<mgrwt>
<rscale>  2 0.17808228E+03</rscale>
<asrwt>0</asrwt>
<pdfrwt beam="1">  1       21 0.13637636E-01 0.17808228E+03</pdfrwt>
<pdfrwt beam="2">  1       21 0.76250046E-01 0.17808228E+03</pdfrwt>
<totfact> 0.71894450E+04</totfact>
</mgrwt>
</event>
<event>
 4    1  0.4327903E+000  0.1785210E+03  0.7546771E-02  0.1169242E+00
         21   -1    0    0  503  502  0.00000000000E+00  0.00000000000E+00  0.67699857277E+02  0.67699857277E+02  0.00000000000E+00 0. -1.
         21   -1    0    0  501  503 -0.00000000000E+00 -0.00000000000E+00 -0.12682766063E+04  0.12682766063E+04  0.00000000000E+00 0. -1.
          6    1    1    2  501    0 -0.35792132939E+02 -0.25683852633E+02 -0.11299936437E+04  0.11440084667E+04  0.17300000000E+03 0. -1.
         -6    1    1    2    0  502  0.35792132939E+02  0.25683852633E+02 -0.70583105307E+02  0.19196799687E+03  0.17300000000E+03 0. -1.
<mgrwt>
<rscale>  2 0.17852097E+03</rscale>
<asrwt>0</asrwt>
<pdfrwt beam="1">  1       21 0.10415363E-01 0.17852097E+03</pdfrwt>
<pdfrwt beam="2">  1       21 0.19511947E+00 0.17852097E+03</pdfrwt>
<totfact> 0.11032269E+04</totfact>
</mgrwt>
</event>
<event>
 4    1  0.4327903E+000  0.1766567E+03  0.7546771E-02  0.1171078E+00
         21   -1    0    0  503  502  0.00000000000E+00  0.00000000000E+00  0.17447059897E+04  0.17447059897E+04  0.00000000000E+00 0.  1.
         21   -1    0    0  501  503 -0.00000000000E+00 -0.00000000000E+00 -0.31357542535E+02  0.31357542535E+02  0.00000000000E+00 0.  1.
          6    1    1    2  501    0  0.22379982585E+02  0.27887950092E+02  0.27463853344E+03  0.32654850395E+03  0.17300000000E+03 0.  1.
         -6    1    1    2    0  502 -0.22379982585E+02 -0.27887950092E+02  0.14387099137E+04  0.14495150283E+04  0.17300000000E+03 0.  1.
<mgrwt>
<rscale>  2 0.17665673E+03</rscale>
<asrwt>0</asrwt>
<pdfrwt beam="1">  1       21 0.26841623E+00 0.17665673E+03</pdfrwt>
<pdfrwt beam="2">  1       21 0.48242387E-02 0.17665673E+03</pdfrwt>
<totfact> 0.15074483E+04</totfact>
</mgrwt>
</event>
<event>
 4    1  0.4327903E+000  0.1944224E+03  0.7546771E-02  0.1154532E+00
         21   -1    0    0  503  502  0.00000000000E+00  0.00000000000E+00  0.32623551480E+02  0.32623551480E+02  0.00000000000E+00 0.  1.
         21   -1    0    0  501  503 -0.00000000000E+00 -0.00000000000E+00 -0.11597073343E+04  0.11597073343E+04  0.00000000000E+00 0.  1.
          6    1    1    2  501    0 -0.70104048796E+02 -0.54373649505E+02 -0.54574905525E+03  0.57934627187E+03  0.17300000000E+03 0.  1.
         -6    1    1    2    0  502  0.70104048796E+02  0.54373649505E+02 -0.58133472759E+03  0.61298461394E+03  0.17300000000E+03 0.  1.
<mgrwt>
<rscale>  2 0.19442240E+03</rscale>
<asrwt>0</asrwt>
<pdfrwt beam="1">  1       21 0.50190083E-02 0.19442240E+03</pdfrwt>
<pdfrwt beam="2">  1       21 0.17841650E+00 0.19442240E+03</pdfrwt>
<totfact> 0.49803544E+04</totfact>
</mgrwt>
</event>
<event>
 4    1  0.4327903E+000  0.2735878E+03  0.7546771E-02  0.1099244E+00
         21   -1    0    0  501  502  0.00000000000E+00  0.00000000000E+00  0.23933300264E+03  0.23933300264E+03  0.00000000000E+00 0.  1.
         21   -1    0    0  502  503 -0.00000000000E+00 -0.00000000000E+00 -0.31706643113E+03  0.31706643113E+03  0.00000000000E+00 0. -1.
          6    1    1    2  501    0 -0.20924915557E+03  0.33705477602E+02 -0.63893343789E+01  0.27366236848E+03  0.17300000000E+03 0. -1.
         -6    1    1    2    0  503  0.20924915557E+03 -0.33705477602E+02 -0.71344094114E+02  0.28273706529E+03  0.17300000000E+03 0. -1.
<mgrwt>
<rscale>  2 0.27358777E+03</rscale>
<asrwt>0</asrwt>
<pdfrwt beam="1">  1       21 0.36820462E-01 0.27358777E+03</pdfrwt>
<pdfrwt beam="2">  1       21 0.48779451E-01 0.27358777E+03</pdfrwt>
<totfact> 0.27436525E+04</totfact>
</mgrwt>
</event>
<event>
 4    1  0.4327903E+000  0.1753078E+03  0.7546771E-02  0.1172423E+00
         21   -1    0    0  501  502  0.00000000000E+00  0.00000000000E+00  0.77374650268E+02  0.77374650268E+02  0.00000000000E+00 0. -1.
         21   -1    0    0  502  503 -0.00000000000E+00 -0.00000000000E+00 -0.52317673676E+03  0.52317673676E+03  0.00000000000E+00 0. -1.
          6    1    1    2  501    0  0.92377865057E+01  0.26804922219E+02 -0.75551295097E+02  0.19089483688E+03  0.17300000000E+03 0. -1.
         -6    1    1    2    0  503 -0.92377865057E+01 -0.26804922219E+02 -0.37025079139E+03  0.40965655015E+03  0.17300000000E+03 0. -1.
<mgrwt>
<rscale>  2 0.17530785E+03</rscale>
<asrwt>0</asrwt>
<pdfrwt beam="1">  1       21 0.11903793E-01 0.17530785E+03</pdfrwt>
<pdfrwt beam="2">  1       21 0.80488728E-01 0.17530785E+03</pdfrwt>
<totfact> 0.81356386E+04</totfact>
</mgrwt>
</event>
<event>
 4    1  0.4327903E+000  0.2028188E+03  0.7546771E-02  0.1147382E+00
         21   -1    0    0  501  502  0.00000000000E+00  0.00000000000E+00  0.96721386251E+02  0.96721386251E+02  0.00000000000E+00 0.  1.
         21   -1    0    0  502  503 -0.00000000000E+00 -0.00000000000E+00 -0.42576936587E+03  0.42576936587E+03  0.00000000000E+00 0. -1.
          6    1    1    2  501    0  0.27801748712E+02 -0.10214462101E+03 -0.15583621857E+03  0.25577409535E+03  0.17300000000E+03 0.  1.
         -6    1    1    2    0  503 -0.27801748712E+02  0.10214462101E+03 -0.17321176105E+03  0.26671665677E+03  0.17300000000E+03 0. -1.
<mgrwt>
<rscale>  2 0.20281879E+03</rscale>
<asrwt>0</asrwt>
<pdfrwt beam="1">  1       21 0.14880213E-01 0.20281879E+03</pdfrwt>
<pdfrwt beam="2">  1       21 0.65502979E-01 0.20281879E+03</pdfrwt>
<totfact> 0.84938046E+04</totfact>
</mgrwt>
</event>
<event>
 4    1  0.4327903E+000  0.1732320E+03  0.7546771E-02  0.1174519E+00
         21   -1    0    0  503  502  0.00000000000E+00  0.00000000000E+00  0.13405883666E+04  0.13405883666E+04  0.00000000000E+00 0. -1.
         21   -1    0    0  501  503 -0.00000000000E+00 -0.00000000000E+00 -0.31914252339E+02  0.31914252339E+02  0.00000000000E+00 0. -1.
          6    1    1    2  501    0  0.47445070965E+01  0.76046293618E+01  0.27935052462E+03  0.32870359952E+03  0.17300000000E+03 0. -1.
         -6    1    1    2    0  502 -0.47445070965E+01 -0.76046293618E+01  0.10293235897E+04  0.10437990194E+04  0.17300000000E+03 0. -1.
<mgrwt>
<rscale>  2 0.17323204E+03</rscale>
<asrwt>0</asrwt>
<pdfrwt beam="1">  1       21 0.20624432E+00 0.17323204E+03</pdfrwt>
<pdfrwt beam="2">  1       21 0.49098860E-02 0.17323204E+03</pdfrwt>
<totfact> 0.34474193E+04</totfact>
</mgrwt>
</event>
<event>
 4    1  0.4327903E+000  0.2067141E+03  0.7546771E-02  0.1144195E+00
         21   -1    0    0  501  502  0.00000000000E+00  0.00000000000E+00  0.10276082592E+04  0.10276082592E+04  0.00000000000E+00 0. -1.
         21   -1    0    0  502  503 -0.00000000000E+00 -0.00000000000E+00 -0.47874449675E+02  0.47874449675E+02  0.00000000000E+00 0. -1.
          6    1    1    2  501    0 -0.11012124309E+03 -0.25981188846E+02  0.68480996576E+03  0.71532887511E+03  0.17300000000E+03 0. -1.
         -6    1    1    2    0  503  0.11012124309E+03  0.25981188846E+02  0.29492384374E+03  0.36015383374E+03  0.17300000000E+03 0. -1.
<mgrwt>
<rscale>  2 0.20671408E+03</rscale>
<asrwt>0</asrwt>
<pdfrwt beam="1">  1       21 0.15809356E+00 0.20671408E+03</pdfrwt>
<pdfrwt beam="2">  1       21 0.73653007E-02 0.20671408E+03</pdfrwt>
<totfact> 0.35699314E+04</totfact>
</mgrwt>
</event>
<event>
 4    1  0.4327903E+000  0.2738090E+03  0.7546771E-02  0.1099119E+00
         21   -1    0    0  501  502  0.00000000000E+00  0.00000000000E+00  0.50541520108E+03  0.50541520108E+03  0.00000000000E+00 0. -1.
         21   -1    0    0  502  503 -0.00000000000E+00 -0.00000000000E+00 -0.26782003319E+03  0.26782003319E+03  0.00000000000E+00 0. -1.
          6    1    1    2  501    0  0.20614345303E+03 -0.50470096555E+02  0.37703236899E+03  0.46596648070E+03  0.17300000000E+03 0. -1.
         -6    1    1    2    0  503 -0.20614345303E+03  0.50470096555E+02 -0.13943720110E+03  0.30726875357E+03  0.17300000000E+03 0. -1.
<mgrwt>
<rscale>  2 0.27380897E+03</rscale>
<asrwt>0</asrwt>
<pdfrwt beam="1">  1       21 0.77756185E-01 0.27380897E+03</pdfrwt>
<pdfrwt beam="2">  1       21 0.41203082E-01 0.27380897E+03</pdfrwt>
<totfact> 0.79100367E+03</totfact>
</mgrwt>
</event>
<event>
 4    1  0.4327903E+000  0.1805212E+03  0.7546771E-02  0.1167300E+00
         21   -1    0    0  503  502  0.00000000000E+00  0.00000000000E+00  0.58768897662E+02  0.58768897662E+02  0.00000000000E+00 0. -1.
         21   -1    0    0  501  503 -0.00000000000E+00 -0.00000000000E+00 -0.81046732444E+03  0.81046732444E+03  0.00000000000E+00 0. -1.
          6    1    1    2  501    0 -0.41874207436E+02 -0.30090496667E+02 -0.62009362080E+03  0.64583588147E+03  0.17300000000E+03 0. -1.
         -6    1    1    2    0  502  0.41874207436E+02  0.30090496667E+02 -0.13160480598E+03  0.22340034063E+03  0.17300000000E+03 0. -1.
<mgrwt>
<rscale>  2 0.18052115E+03</rscale>
<asrwt>0</asrwt>
<pdfrwt beam="1">  1       21 0.90413696E-02 0.18052115E+03</pdfrwt>
<pdfrwt beam="2">  1       21 0.12468727E+00 0.18052115E+03</pdfrwt>
<totfact> 0.46816163E+04</totfact>
</mgrwt>
</event>
<event>
 4    1  0.4327903E+000  0.2391237E+03  0.7546771E-02  0.1120378E+00
         21   -1    0    0  501  502  0.00000000000E+00  0.00000000000E+00  0.12804047921E+04  0.12804047921E+04  0.00000000000E+00 0.  1.
         21   -1    0    0  502  503 -0.00000000000E+00 -0.00000000000E+00 -0.44728188737E+02  0.44728188737E+02  0.00000000000E+00 0.  1.
          6    1    1    2  501    0  0.25804354841E+02 -0.16304994581E+03  0.59156726441E+03  0.63806894446E+03  0.17300000000E+03 0.  1.
         -6    1    1    2    0  503 -0.25804354841E+02  0.16304994581E+03  0.64410933890E+03  0.68706403633E+03  0.17300000000E+03 0.  1.
<mgrwt>
<rscale>  2 0.23912371E+03</rscale>
<asrwt>0</asrwt>
<pdfrwt beam="1">  1       21 0.19698532E+00 0.23912371E+03</pdfrwt>
<pdfrwt beam="2">  1       21 0.68812608E-02 0.23912371E+03</pdfrwt>
<totfact> 0.21183333E+04</totfact>
</mgrwt>
</event>
<event>
 4    1  0.4327903E+000  0.1808754E+03  0.7546771E-02  0.1166958E+00
         21   -1    0    0  503  502  0.00000000000E+00  0.00000000000E+00  0.73274147589E+02  0.73274147589E+02  0.00000000000E+00 0. -1.
         21   -1    0    0  501  503 -0.00000000000E+00 -0.00000000000E+00 -0.62927422864E+03  0.62927422864E+03  0.00000000000E+00 0. -1.
          6    1    1    2  501    0  0.25564498574E+02 -0.46188456954E+02 -0.46732147778E+03  0.50110406179E+03  0.17300000000E+03 0. -1.
         -6    1    1    2    0  502 -0.25564498574E+02  0.46188456954E+02 -0.88678603269E+02  0.20144431444E+03  0.17300000000E+03 0. -1.
<mgrwt>
<rscale>  2 0.18087542E+03</rscale>
<asrwt>0</asrwt>
<pdfrwt beam="1">  1       21 0.11272946E-01 0.18087542E+03</pdfrwt>
<pdfrwt beam="2">  1       21 0.96811418E-01 0.18087542E+03</pdfrwt>
<totfact> 0.58468530E+04</totfact>
</mgrwt>
</event>
<event>
 4    1  0.4327903E+000  0.1812142E+03  0.7546771E-02  0.1166633E+00
         21   -1    0    0  501  502  0.00000000000E+00  0.00000000000E+00  0.23905298828E+03  0.23905298828E+03  0.00000000000E+00 0. -1.
         21   -1    0    0  502  503 -0.00000000000E+00 -0.00000000000E+00 -0.13951799874E+03  0.13951799874E+03  0.00000000000E+00 0.  1.
          6    1    1    2  501    0  0.18713095676E+02  0.50590511531E+02  0.73256999041E+02  0.19546142258E+03  0.17300000000E+03 0. -1.
         -6    1    1    2    0  503 -0.18713095676E+02 -0.50590511531E+02  0.26277990496E+02  0.18310956445E+03  0.17300000000E+03 0. -1.
<mgrwt>
<rscale>  2 0.18121418E+03</rscale>
<asrwt>0</asrwt>
<pdfrwt beam="1">  1       21 0.36777383E-01 0.18121418E+03</pdfrwt>
<pdfrwt beam="2">  1       21 0.21464307E-01 0.18121418E+03</pdfrwt>
<totfact> 0.14471394E+05</totfact>
</mgrwt>
</event>
<event>
 4    1  0.4327903E+000  0.2016740E+03  0.7546771E-02  0.1148334E+00
         21   -1    0    0  503  502  0.00000000000E+00  0.00000000000E+00  0.82419161960E+03  0.82419161960E+03  0.00000000000E+00 0.  1.
         21   -1    0    0  501  503 -0.00000000000E+00 -0.00000000000E+00 -0.84913189973E+02  0.84913189973E+02  0.00000000000E+00 0. -1.
          6    1    1    2  501    0 -0.54741044047E+02 -0.88015989143E+02  0.75463001294E+02  0.21533012054E+03  0.17300000000E+03 0. -1.
         -6    1    1    2    0  502  0.54741044047E+02  0.88015989143E+02  0.66381542833E+03  0.69377468903E+03  0.17300000000E+03 0.  1.
<mgrwt>
<rscale>  2 0.20167399E+03</rscale>
<asrwt>0</asrwt>
<pdfrwt beam="1">  1       21 0.12679871E+00 0.20167399E+03</pdfrwt>
<pdfrwt beam="2">  1       21 0.13063568E-01 0.20167399E+03</pdfrwt>
<totfact> 0.23058744E+04</totfact>
</mgrwt>
</event>
<event>
 4    1  0.4327903E+000  0.2241991E+03  0.7546771E-02  0.1130791E+00
         21   -1    0    0  503  502  0.00000000000E+00  0.00000000000E+00  0.19522812816E+03  0.19522812816E+03  0.00000000000E+00 0. -1.
         21   -1    0    0  501  503 -0.00000000000E+00 -0.00000000000E+00 -0.11272416425E+04  0.11272416425E+04  0.00000000000E+00 0. -1.
          6    1    1    2  501    0 -0.90414006665E+02  0.11027935991E+03 -0.10468381323E+04  0.10705770897E+04  0.17300000000E+03 0. -1.
         -6    1    1    2    0  502  0.90414006665E+02 -0.11027935991E+03  0.11482461796E+03  0.25189268094E+03  0.17300000000E+03 0. -1.
<mgrwt>
<rscale>  2 0.22419909E+03</rscale>
<asrwt>0</asrwt>
<pdfrwt beam="1">  1       21 0.30035097E-01 0.22419909E+03</pdfrwt>
<pdfrwt beam="2">  1       21 0.17342179E+00 0.22419909E+03</pdfrwt>
<totfact> 0.20846871E+03</totfact>
</mgrwt>
</event>
<event>
 4    1  0.4327903E+000  0.2275282E+03  0.7546771E-02  0.1128392E+00
         21   -1    0    0  501  502  0.00000000000E+00  0.00000000000E+00  0.33141804200E+03  0.33141804200E+03  0.00000000000E+00 0. -1.
         21   -1    0    0  502  503 -0.00000000000E+00 -0.00000000000E+00 -0.18933915002E+03  0.18933915002E+03  0.00000000000E+00 0.  1.
          6    1    1    2  501    0 -0.11604521453E+02  0.14732763965E+03 -0.37884687093E+02  0.23066067684E+03  0.17300000000E+03 0.  1.
         -6    1    1    2    0  503  0.11604521453E+02 -0.14732763965E+03  0.17996357908E+03  0.29009651518E+03  0.17300000000E+03 0. -1.
<mgrwt>
<rscale>  2 0.22752824E+03</rscale>
<asrwt>0</asrwt>
<pdfrwt beam="1">  1       21 0.50987391E-01 0.22752824E+03</pdfrwt>
<pdfrwt beam="2">  1       21 0.29129100E-01 0.22752824E+03</pdfrwt>
<totfact> 0.40578483E+04</totfact>
</mgrwt>
</event>
<event>
 4    1  0.4327903E+000  0.3199634E+03  0.7546771E-02  0.1075666E+00
         21   -1    0    0  503  502  0.00000000000E+00  0.00000000000E+00  0.57228311565E+03  0.57228311565E+03  0.00000000000E+00 0.  1.
         21   -1    0    0  501  503 -0.00000000000E+00 -0.00000000000E+00 -0.17919908647E+03  0.17919908647E+03  0.00000000000E+00 0.  1.
          6    1    1    2  501    0  0.62127187190E+02 -0.26189272176E+03  0.18097503776E+03  0.36759835336E+03  0.17300000000E+03 0.  1.
         -6    1    1    2    0  502 -0.62127187190E+02  0.26189272176E+03  0.21210899142E+03  0.38388384876E+03  0.17300000000E+03 0.  1.
<mgrwt>
<rscale>  2 0.31996341E+03</rscale>
<asrwt>0</asrwt>
<pdfrwt beam="1">  1       21 0.88043555E-01 0.31996341E+03</pdfrwt>
<pdfrwt beam="2">  1       21 0.27569090E-01 0.31996341E+03</pdfrwt>
<totfact> 0.12978784E+04</totfact>
</mgrwt>
</event>
<event>
 4    1  0.4327903E+000  0.1979811E+03  0.7546771E-02  0.1151454E+00
         21   -1    0    0  503  502  0.00000000000E+00  0.00000000000E+00  0.31378471201E+02  0.31378471201E+02  0.00000000000E+00 0. -1.
         21   -1    0    0  501  503 -0.00000000000E+00 -0.00000000000E+00 -0.16217578316E+04  0.16217578316E+04  0.00000000000E+00 0. -1.
          6    1    1    2  501    0  0.89288458845E+02  0.35987179022E+02 -0.11913856092E+04  0.12077235510E+04  0.17300000000E+03 0. -1.
         -6    1    1    2    0  502 -0.89288458845E+02 -0.35987179022E+02 -0.39899375127E+03  0.44541275182E+03  0.17300000000E+03 0. -1.
<mgrwt>
<rscale>  2 0.19798107E+03</rscale>
<asrwt>0</asrwt>
<pdfrwt beam="1">  1       21 0.48274556E-02 0.19798107E+03</pdfrwt>
<pdfrwt beam="2">  1       21 0.24950128E+00 0.19798107E+03</pdfrwt>
<totfact> 0.19022092E+04</totfact>
</mgrwt>
</event>
<event>
 4    1  0.4327903E+000  0.1972947E+03  0.7546771E-02  0.1152042E+00
         21   -1    0    0  501  502  0.00000000000E+00  0.00000000000E+00  0.17059005710E+03  0.17059005710E+03  0.00000000000E+00 0. -1.
         21   -1    0    0  502  503 -0.00000000000E+00 -0.00000000000E+00 -0.62170890837E+03  0.62170890837E+03  0.00000000000E+00 0.  1.
          6    1    1    2  501    0 -0.49286228079E+02  0.81037356445E+02  0.89617229730E+02  0.21669433145E+03  0.17300000000E+03 0. -1.
         -6    1    1    2    0  503  0.49286228079E+02 -0.81037356445E+02 -0.54073608099E+03  0.57560463402E+03  0.17300000000E+03 0.  1.
<mgrwt>
<rscale>  2 0.19729467E+03</rscale>
<asrwt>0</asrwt>
<pdfrwt beam="1">  1       21 0.26244624E-01 0.19729467E+03</pdfrwt>
<pdfrwt beam="2">  1       21 0.95647524E-01 0.19729467E+03</pdfrwt>
<totfact> 0.12544021E+04</totfact>
</mgrwt>
</event>
<event>
 4    1  0.4327903E+000  0.2021482E+03  0.7546771E-02  0.1147939E+00
         21   -1    0    0  501  502  0.00000000000E+00  0.00000000000E+00  0.38769927274E+04  0.38769927274E+04  0.00000000000E+00 0.  1.
         21   -1    0    0  502  503 -0.00000000000E+00 -0.00000000000E+00 -0.12230751965E+02  0.12230751965E+02  0.00000000000E+00 0.  1.
          6    1    1    2  501    0 -0.56447402798E+02 -0.88026033085E+02  0.26553728452E+04  0.26630562966E+04  0.17300000000E+03 0.  1.
         -6    1    1    2    0  503  0.56447402798E+02  0.88026033085E+02  0.12093891303E+04  0.12261671828E+04  0.17300000000E+03 0.  1.
<mgrwt>
<rscale>  2 0.20214819E+03</rscale>
<asrwt>0</asrwt>
<pdfrwt beam="1">  1       21 0.59645944E+00 0.20214819E+03</pdfrwt>
<pdfrwt beam="2">  1       21 0.18816572E-02 0.20214819E+03</pdfrwt>
<totfact> 0.48693663E+02</totfact>
</mgrwt>
</event>
<event>
 4    1  0.4327903E+000  0.1820539E+03  0.7546771E-02  0.1165830E+00
         21   -1    0    0  503  502  0.00000000000E+00  0.00000000000E+00  0.26203119570E+02  0.26203119570E+02  0.00000000000E+00 0. -1.
         21   -1    0    0  501  503 -0.00000000000E+00 -0.00000000000E+00 -0.16923200656E+04  0.16923200656E+04  0.00000000000E+00 0. -1.
          6    1    1    2  501    0 -0.32679525517E+02 -0.46332285736E+02 -0.12649006473E+04  0.12779347713E+04  0.17300000000E+03 0. -1.
         -6    1    1    2    0  502  0.32679525517E+02  0.46332285736E+02 -0.40121629867E+03  0.44058841384E+03  0.17300000000E+03 0. -1.
<mgrwt>
<rscale>  2 0.18205393E+03</rscale>
<asrwt>0</asrwt>
<pdfrwt beam="1">  1       21 0.40312482E-02 0.18205393E+03</pdfrwt>
<pdfrwt beam="2">  1       21 0.26035699E+00 0.18205393E+03</pdfrwt>
<totfact> 0.22582873E+04</totfact>
</mgrwt>
</event>
<event>
 4    1  0.4327903E+000  0.2009636E+03  0.7546771E-02  0.1148929E+00
         21   -1    0    0  501  502  0.00000000000E+00  0.00000000000E+00  0.82527585839E+03  0.82527585839E+03  0.00000000000E+00 0.  1.
         21   -1    0    0  502  503 -0.00000000000E+00 -0.00000000000E+00 -0.77151181190E+02  0.77151181190E+02  0.00000000000E+00 0.  1.
          6    1    1    2  501    0 -0.45788459473E+01  0.10215871151E+03  0.64692618660E+03  0.67742147816E+03  0.17300000000E+03 0.  1.
         -6    1    1    2    0  503  0.45788459473E+01 -0.10215871151E+03  0.10119849060E+03  0.22500556142E+03  0.17300000000E+03 0.  1.
<mgrwt>
<rscale>  2 0.20096360E+03</rscale>
<asrwt>0</asrwt>
<pdfrwt beam="1">  1       21 0.12696551E+00 0.20096360E+03</pdfrwt>
<pdfrwt beam="2">  1       21 0.11869413E-01 0.20096360E+03</pdfrwt>
<totfact> 0.27312171E+04</totfact>
</mgrwt>
</event>
<event>
 4    1  0.4327903E+000  0.2871953E+03  0.7546771E-02  0.1091823E+00
         21   -1    0    0  503  502  0.00000000000E+00  0.00000000000E+00  0.43659766084E+03  0.43659766084E+03  0.00000000000E+00 0.  1.
         21   -1    0    0  501  503 -0.00000000000E+00 -0.00000000000E+00 -0.25181396938E+03  0.25181396938E+03  0.00000000000E+00 0.  1.
          6    1    1    2  501    0 -0.10158580455E+03 -0.20550543313E+03 -0.79632409649E+02  0.29803100409E+03  0.17300000000E+03 0.  1.
         -6    1    1    2    0  502  0.10158580455E+03  0.20550543313E+03  0.26441610111E+03  0.39038062613E+03  0.17300000000E+03 0.  1.
<mgrwt>
<rscale>  2 0.28719533E+03</rscale>
<asrwt>0</asrwt>
<pdfrwt beam="1">  1       21 0.67168871E-01 0.28719533E+03</pdfrwt>
<pdfrwt beam="2">  1       21 0.38740611E-01 0.28719533E+03</pdfrwt>
<totfact> 0.12366847E+04</totfact>
</mgrwt>
</event>
<event>
 4    1  0.4327903E+000  0.3476927E+03  0.7546771E-02  0.1063566E+00
         21   -1    0    0  501  502  0.00000000000E+00  0.00000000000E+00  0.38288935422E+03  0.38288935422E+03  0.00000000000E+00 0. -1.
         21   -1    0    0  502  503 -0.00000000000E+00 -0.00000000000E+00 -0.49080188834E+03  0.49080188834E+03  0.00000000000E+00 0.  1.
          6    1    1    2  501    0  0.28855918342E+03 -0.87720260997E+02  0.20694799213E+03  0.40462046163E+03  0.17300000000E+03 0. -1.
         -6    1    1    2    0  503 -0.28855918342E+03  0.87720260997E+02 -0.31486052625E+03  0.46907078092E+03  0.17300000000E+03 0.  1.
<mgrwt>
<rscale>  2 0.34769275E+03</rscale>
<asrwt>0</asrwt>
<pdfrwt beam="1">  1       21 0.58906055E-01 0.34769275E+03</pdfrwt>
<pdfrwt beam="2">  1       21 0.75507982E-01 0.34769275E+03</pdfrwt>
<totfact> 0.38429463E+03</totfact>
</mgrwt>
</event>
<event>
 4    1  0.4327903E+000  0.2027712E+03  0.7546771E-02  0.1147422E+00
         21   -1    0    0  501  502  0.00000000000E+00  0.00000000000E+00  0.49320139054E+03  0.49320139054E+03  0.00000000000E+00 0. -1.
         21   -1    0    0  502  503 -0.00000000000E+00 -0.00000000000E+00 -0.11650633127E+03  0.11650633127E+03  0.00000000000E+00 0. -1.
          6    1    1    2  501    0  0.60768267349E+02 -0.86570022838E+02  0.35093847941E+03  0.40530725073E+03  0.17300000000E+03 0. -1.
         -6    1    1    2    0  503 -0.60768267349E+02  0.86570022838E+02  0.25756579861E+02  0.20440047108E+03  0.17300000000E+03 0. -1.
<mgrwt>
<rscale>  2 0.20277118E+03</rscale>
<asrwt>0</asrwt>
<pdfrwt beam="1">  1       21 0.75877136E-01 0.20277118E+03</pdfrwt>
<pdfrwt beam="2">  1       21 0.17924051E-01 0.20277118E+03</pdfrwt>
<totfact> 0.43606925E+04</totfact>
</mgrwt>
</event>
<event>
 4    1  0.4327903E+000  0.1980352E+03  0.7546771E-02  0.1151407E+00
         21   -1    0    0  501  502  0.00000000000E+00  0.00000000000E+00  0.43386175119E+03  0.43386175119E+03  0.00000000000E+00 0.  1.
         21   -1    0    0  502  503 -0.00000000000E+00 -0.00000000000E+00 -0.15902405247E+03  0.15902405247E+03  0.00000000000E+00 0.  1.
          6    1    1    2  501    0 -0.80136693886E+02 -0.53544844734E+02  0.33216590030E+03  0.38671969878E+03  0.17300000000E+03 0.  1.
         -6    1    1    2    0  503  0.80136693886E+02  0.53544844734E+02 -0.57328201583E+02  0.20616610488E+03  0.17300000000E+03 0.  1.
<mgrwt>
<rscale>  2 0.19803520E+03</rscale>
<asrwt>0</asrwt>
<pdfrwt beam="1">  1       21 0.66747961E-01 0.19803520E+03</pdfrwt>
<pdfrwt beam="2">  1       21 0.24465239E-01 0.19803520E+03</pdfrwt>
<totfact> 0.32371951E+04</totfact>
</mgrwt>
</event>
<event>
 4    1  0.4327903E+000  0.2644451E+03  0.7546771E-02  0.1104502E+00
         21   -1    0    0  501  502  0.00000000000E+00  0.00000000000E+00  0.77375019349E+03  0.77375019349E+03  0.00000000000E+00 0.  1.
         21   -1    0    0  502  503 -0.00000000000E+00 -0.00000000000E+00 -0.94064657389E+02  0.94064657389E+02  0.00000000000E+00 0. -1.
          6    1    1    2  501    0 -0.12127482692E+03  0.15904279766E+03  0.25395944222E+03  0.36664232356E+03  0.17300000000E+03 0. -1.
         -6    1    1    2    0  503  0.12127482692E+03 -0.15904279766E+03  0.42572609387E+03  0.50117252732E+03  0.17300000000E+03 0.  1.
<mgrwt>
<rscale>  2 0.26444507E+03</rscale>
<asrwt>0</asrwt>
<pdfrwt beam="1">  1       21 0.11903849E+00 0.26444507E+03</pdfrwt>
<pdfrwt beam="2">  1       21 0.14471486E-01 0.26444507E+03</pdfrwt>
<totfact> 0.21680198E+04</totfact>
</mgrwt>
</event>
<event>
 4    1  0.4327903E+000  0.2212414E+03  0.7546771E-02  0.1132961E+00
         21   -1    0    0  503  502  0.00000000000E+00  0.00000000000E+00  0.42192424490E+03  0.42192424490E+03  0.00000000000E+00 0.  1.
         21   -1    0    0  501  503 -0.00000000000E+00 -0.00000000000E+00 -0.14168320157E+03  0.14168320157E+03  0.00000000000E+00 0.  1.
          6    1    1    2  501    0  0.91847807191E+02 -0.10287234182E+03  0.20164677369E+02  0.22215839532E+03  0.17300000000E+03 0.  1.
         -6    1    1    2    0  502 -0.91847807191E+02  0.10287234182E+03  0.26007636597E+03  0.34144905115E+03  0.17300000000E+03 0.  1.
<mgrwt>
<rscale>  2 0.22124136E+03</rscale>
<asrwt>0</asrwt>
<pdfrwt beam="1">  1       21 0.64911422E-01 0.22124136E+03</pdfrwt>
<pdfrwt beam="2">  1       21 0.21797416E-01 0.22124136E+03</pdfrwt>
<totfact> 0.42332742E+04</totfact>
</mgrwt>
</event>
<event>
 4    1  0.4327903E+000  0.2325993E+03  0.7546771E-02  0.1124823E+00
         21   -1    0    0  501  502  0.00000000000E+00  0.00000000000E+00  0.28771517365E+03  0.28771517365E+03  0.00000000000E+00 0.  1.
         21   -1    0    0  502  503 -0.00000000000E+00 -0.00000000000E+00 -0.19021118760E+03  0.19021118760E+03  0.00000000000E+00 0. -1.
          6    1    1    2  501    0 -0.15528659992E+03 -0.77154770986E+01  0.74272502778E+02  0.24416973885E+03  0.17300000000E+03 0.  1.
         -6    1    1    2    0  503  0.15528659992E+03  0.77154770986E+01  0.23231483274E+02  0.23375662240E+03  0.17300000000E+03 0.  1.
<mgrwt>
<rscale>  2 0.23259935E+03</rscale>
<asrwt>0</asrwt>
<pdfrwt beam="1">  1       21 0.44263873E-01 0.23259935E+03</pdfrwt>
<pdfrwt beam="2">  1       21 0.29263260E-01 0.23259935E+03</pdfrwt>
<totfact> 0.53840965E+04</totfact>
</mgrwt>
</event>
<event>
 4    1  0.4327903E+000  0.2264109E+03  0.7546771E-02  0.1129192E+00
         21   -1    0    0  503  502  0.00000000000E+00  0.00000000000E+00  0.54235340426E+03  0.54235340426E+03  0.00000000000E+00 0. -1.
         21   -1    0    0  501  503 -0.00000000000E+00 -0.00000000000E+00 -0.11671863649E+03  0.11671863649E+03  0.00000000000E+00 0. -1.
          6    1    1    2  501    0 -0.66794847814E+02 -0.12988981155E+03  0.69096490803E+02  0.23671974966E+03  0.17300000000E+03 0. -1.
         -6    1    1    2    0  502  0.66794847814E+02  0.12988981155E+03  0.35653827697E+03  0.42235229109E+03  0.17300000000E+03 0. -1.
<mgrwt>
<rscale>  2 0.22641094E+03</rscale>
<asrwt>0</asrwt>
<pdfrwt beam="1">  1       21 0.83438984E-01 0.22641094E+03</pdfrwt>
<pdfrwt beam="2">  1       21 0.17956714E-01 0.22641094E+03</pdfrwt>
<totfact> 0.34637117E+04</totfact>
</mgrwt>
</event>
<event>
 4    1  0.4327903E+000  0.2406266E+03  0.7546771E-02  0.1119376E+00
         21   -1    0    0  501  502  0.00000000000E+00  0.00000000000E+00  0.12679985683E+03  0.12679985683E+03  0.00000000000E+00 0.  1.
         21   -1    0    0  502  503 -0.00000000000E+00 -0.00000000000E+00 -0.46034797427E+03  0.46034797427E+03  0.00000000000E+00 0.  1.
          6    1    1    2  501    0  0.65834979289E+01 -0.16711915733E+03 -0.19314224448E+03  0.30855320740E+03  0.17300000000E+03 0.  1.
         -6    1    1    2    0  503 -0.65834979289E+01  0.16711915733E+03 -0.14040587296E+03  0.27859462370E+03  0.17300000000E+03 0.  1.
<mgrwt>
<rscale>  2 0.24062659E+03</rscale>
<asrwt>0</asrwt>
<pdfrwt beam="1">  1       21 0.19507670E-01 0.24062659E+03</pdfrwt>
<pdfrwt beam="2">  1       21 0.70822765E-01 0.24062659E+03</pdfrwt>
<totfact> 0.42676990E+04</totfact>
</mgrwt>
</event>
<event>
 4    1  0.4327903E+000  0.1867167E+03  0.7546771E-02  0.1161456E+00
         21   -1    0    0  501  502  0.00000000000E+00  0.00000000000E+00  0.28784237559E+03  0.28784237559E+03  0.00000000000E+00 0. -1.
         21   -1    0    0  502  503 -0.00000000000E+00 -0.00000000000E+00 -0.20261702171E+03  0.20261702171E+03  0.00000000000E+00 0. -1.
          6    1    1    2  501    0 -0.23088037705E+02 -0.66340641649E+02  0.19814083453E+03  0.27225526354E+03  0.17300000000E+03 0. -1.
         -6    1    1    2    0  503  0.23088037705E+02  0.66340641649E+02 -0.11291548065E+03  0.21820413376E+03  0.17300000000E+03 0. -1.
<mgrwt>
<rscale>  2 0.18671673E+03</rscale>
<asrwt>0</asrwt>
<pdfrwt beam="1">  1       21 0.44283442E-01 0.18671673E+03</pdfrwt>
<pdfrwt beam="2">  1       21 0.31171849E-01 0.18671673E+03</pdfrwt>
<totfact> 0.48558757E+04</totfact>
</mgrwt>
</event>
<event>
 4    1  0.4327903E+000  0.4499434E+03  0.7546771E-02  0.1027739E+00
         21   -1    0    0  503  502  0.00000000000E+00  0.00000000000E+00  0.69883464421E+03  0.69883464421E+03  0.00000000000E+00 0. -1.
         21   -1    0    0  501  503 -0.00000000000E+00 -0.00000000000E+00 -0.32410403323E+03  0.32410403323E+03  0.00000000000E+00 0.  1.
          6    1    1    2  501    0  0.82336804522E+02 -0.40711265314E+03  0.20712671782E+02  0.45041988910E+03  0.17300000000E+03 0.  1.
         -6    1    1    2    0  502 -0.82336804522E+02  0.40711265314E+03  0.35401793920E+03  0.57251878834E+03  0.17300000000E+03 0. -1.
<mgrwt>
<rscale>  2 0.44994340E+03</rscale>
<asrwt>0</asrwt>
<pdfrwt beam="1">  1       21 0.10751302E+00 0.44994340E+03</pdfrwt>
<pdfrwt beam="2">  1       21 0.49862159E-01 0.44994340E+03</pdfrwt>
<totfact> 0.22857509E+03</totfact>
</mgrwt>
</event>
<event>
 4    1  0.4327903E+000  0.1740075E+03  0.7546771E-02  0.1173732E+00
         21   -1    0    0  501  502  0.00000000000E+00  0.00000000000E+00  0.14444234705E+03  0.14444234705E+03  0.00000000000E+00 0. -1.
         21   -1    0    0  502  503 -0.00000000000E+00 -0.00000000000E+00 -0.31293610613E+03  0.31293610613E+03  0.00000000000E+00 0. -1.
          6    1    1    2  501    0 -0.10683458215E+02 -0.15344689182E+02  0.47152490757E+02  0.18028298076E+03  0.17300000000E+03 0. -1.
         -6    1    1    2    0  503  0.10683458215E+02  0.15344689182E+02 -0.21564624984E+03  0.27709547242E+03  0.17300000000E+03 0. -1.
<mgrwt>
<rscale>  2 0.17400746E+03</rscale>
<asrwt>0</asrwt>
<pdfrwt beam="1">  1       21 0.22221899E-01 0.17400746E+03</pdfrwt>
<pdfrwt beam="2">  1       21 0.48144016E-01 0.17400746E+03</pdfrwt>
<totfact> 0.78687124E+04</totfact>
</mgrwt>
</event>
<event>
 4    1  0.4327903E+000  0.1741139E+03  0.7546771E-02  0.1173624E+00
         21   -1    0    0  501  502  0.00000000000E+00  0.00000000000E+00  0.77341755296E+03  0.77341755296E+03  0.00000000000E+00 0. -1.
         21   -1    0    0  502  503 -0.00000000000E+00 -0.00000000000E+00 -0.89863020449E+02  0.89863020449E+02  0.00000000000E+00 0. -1.
          6    1    1    2  501    0  0.11705923431E+02  0.15799044811E+02  0.66588538895E+03  0.68827246761E+03  0.17300000000E+03 0. -1.
         -6    1    1    2    0  503 -0.11705923431E+02 -0.15799044811E+02  0.17669143565E+02  0.17500810580E+03  0.17300000000E+03 0. -1.
<mgrwt>
<rscale>  2 0.17411387E+03</rscale>
<asrwt>0</asrwt>
<pdfrwt beam="1">  1       21 0.11898731E+00 0.17411387E+03</pdfrwt>
<pdfrwt beam="2">  1       21 0.13825081E-01 0.17411387E+03</pdfrwt>
<totfact> 0.24813922E+04</totfact>
</mgrwt>
</event>
<event>
 4    1  0.4327903E+000  0.2692864E+03  0.7546771E-02  0.1101689E+00
         21   -1    0    0  503  502  0.00000000000E+00  0.00000000000E+00  0.50238825246E+03  0.50238825246E+03  0.00000000000E+00 0.  1.
         21   -1    0    0  501  503 -0.00000000000E+00 -0.00000000000E+00 -0.31165934351E+03  0.31165934351E+03  0.00000000000E+00 0.  1.
          6    1    1    2  501    0 -0.16280148979E+03 -0.12681409348E+03 -0.20286581448E+03  0.33714934090E+03  0.17300000000E+03 0.  1.
         -6    1    1    2    0  502  0.16280148979E+03  0.12681409348E+03  0.39359472343E+03  0.47689825508E+03  0.17300000000E+03 0.  1.
<mgrwt>
<rscale>  2 0.26928635E+03</rscale>
<asrwt>0</asrwt>
<pdfrwt beam="1">  1       21 0.77290501E-01 0.26928635E+03</pdfrwt>
<pdfrwt beam="2">  1       21 0.47947591E-01 0.26928635E+03</pdfrwt>
<totfact> 0.58754440E+03</totfact>
</mgrwt>
</event>
<event>
 4    1  0.4327903E+000  0.1731629E+03  0.7546771E-02  0.1174589E+00
         21   -1    0    0  501  502  0.00000000000E+00  0.00000000000E+00  0.97260398249E+03  0.97260398249E+03  0.00000000000E+00 0. -1.
         21   -1    0    0  502  503 -0.00000000000E+00 -0.00000000000E+00 -0.31377927211E+02  0.31377927211E+02  0.00000000000E+00 0. -1.
          6    1    1    2  501    0  0.16225708356E+01  0.73328538192E+01  0.40427906372E+03  0.43980332518E+03  0.17300000000E+03 0. -1.
         -6    1    1    2    0  503 -0.16225708356E+01 -0.73328538192E+01  0.53694699156E+03  0.56417858451E+03  0.17300000000E+03 0. -1.
<mgrwt>
<rscale>  2 0.17316294E+03</rscale>
<asrwt>0</asrwt>
<pdfrwt beam="1">  1       21 0.14963136E+00 0.17316294E+03</pdfrwt>
<pdfrwt beam="2">  1       21 0.48273742E-02 0.17316294E+03</pdfrwt>
<totfact> 0.86727744E+04</totfact>
</mgrwt>
</event>
<event>
 4    1  0.4327903E+000  0.2330790E+03  0.7546771E-02  0.1124491E+00
         21   -1    0    0  501  502  0.00000000000E+00  0.00000000000E+00  0.19413437665E+03  0.19413437665E+03  0.00000000000E+00 0. -1.
         21   -1    0    0  502  503 -0.00000000000E+00 -0.00000000000E+00 -0.33663861509E+03  0.33663861509E+03  0.00000000000E+00 0.  1.
          6    1    1    2  501    0 -0.49488398335E+02 -0.14814769853E+03  0.37761295075E+02  0.23611810086E+03  0.17300000000E+03 0. -1.
         -6    1    1    2    0  503  0.49488398335E+02  0.14814769853E+03 -0.18026553351E+03  0.29465489088E+03  0.17300000000E+03 0.  1.
<mgrwt>
<rscale>  2 0.23307905E+03</rscale>
<asrwt>0</asrwt>
<pdfrwt beam="1">  1       21 0.29866828E-01 0.23307905E+03</pdfrwt>
<pdfrwt beam="2">  1       21 0.51790555E-01 0.23307905E+03</pdfrwt>
<totfact> 0.37299298E+04</totfact>
</mgrwt>
</event>
<event>
 4    1  0.4327903E+000  0.2168076E+03  0.7546771E-02  0.1136286E+00
         21   -1    0    0  501  502  0.00000000000E+00  0.00000000000E+00  0.50165646485E+02  0.50165646485E+02  0.00000000000E+00 0.  1.
         21   -1    0    0  502  503 -0.00000000000E+00 -0.00000000000E+00 -0.14484298284E+04  0.14484298284E+04  0.00000000000E+00 0. -1.
          6    1    1    2  501    0  0.12147701583E+03  0.48165119024E+02 -0.25389032440E+03  0.33386500399E+03  0.17300000000E+03 0.  1.
         -6    1    1    2    0  503 -0.12147701583E+03 -0.48165119024E+02 -0.11443738575E+04  0.11647304708E+04  0.17300000000E+03 0.  1.
<mgrwt>
<rscale>  2 0.21680762E+03</rscale>
<asrwt>0</asrwt>
<pdfrwt beam="1">  1       21 0.77177927E-02 0.21680762E+03</pdfrwt>
<pdfrwt beam="2">  1       21 0.22283533E+00 0.21680762E+03</pdfrwt>
<totfact> 0.12099211E+04</totfact>
</mgrwt>
</event>
<event>
 4    1  0.4327903E+000  0.2381251E+03  0.7546771E-02  0.1121048E+00
         21   -1    0    0  503  502  0.00000000000E+00  0.00000000000E+00  0.11082249834E+04  0.11082249834E+04  0.00000000000E+00 0.  1.
         21   -1    0    0  501  503 -0.00000000000E+00 -0.00000000000E+00 -0.11318642907E+03  0.11318642907E+03  0.00000000000E+00 0.  1.
          6    1    1    2  501    0 -0.13227657096E+03 -0.96319548516E+02  0.45453278736E+02  0.24242431231E+03  0.17300000000E+03 0.  1.
         -6    1    1    2    0  502  0.13227657096E+03  0.96319548516E+02  0.94958527564E+03  0.97898710021E+03  0.17300000000E+03 0.  1.
<mgrwt>
<rscale>  2 0.23812507E+03</rscale>
<asrwt>0</asrwt>
<pdfrwt beam="1">  1       21 0.17049614E+00 0.23812507E+03</pdfrwt>
<pdfrwt beam="2">  1       21 0.17413298E-01 0.23812507E+03</pdfrwt>
<totfact> 0.60964727E+03</totfact>
</mgrwt>
</event>
<event>
 4    1  0.4327903E+000  0.1830404E+03  0.7546771E-02  0.1164893E+00
         21   -1    0    0  503  502  0.00000000000E+00  0.00000000000E+00  0.25625542594E+02  0.25625542594E+02  0.00000000000E+00 0.  1.
         21   -1    0    0  501  503 -0.00000000000E+00 -0.00000000000E+00 -0.13142888336E+04  0.13142888336E+04  0.00000000000E+00 0.  1.
          6    1    1    2  501    0  0.44902954903E+02  0.39477874292E+02 -0.69270550645E+03  0.71648077196E+03  0.17300000000E+03 0.  1.
         -6    1    1    2    0  502 -0.44902954903E+02 -0.39477874292E+02 -0.59595778450E+03  0.62343360419E+03  0.17300000000E+03 0.  1.
<mgrwt>
<rscale>  2 0.18304037E+03</rscale>
<asrwt>0</asrwt>
<pdfrwt beam="1">  1       21 0.39423907E-02 0.18304037E+03</pdfrwt>
<pdfrwt beam="2">  1       21 0.20219831E+00 0.18304037E+03</pdfrwt>
<totfact> 0.52519802E+04</totfact>
</mgrwt>
</event>
<event>
 4    1  0.4327903E+000  0.2152786E+03  0.7546771E-02  0.1137453E+00
         21   -1    0    0  501  502  0.00000000000E+00  0.00000000000E+00  0.62419372931E+03  0.62419372931E+03  0.00000000000E+00 0.  1.
         21   -1    0    0  502  503 -0.00000000000E+00 -0.00000000000E+00 -0.75557010163E+02  0.75557010163E+02  0.00000000000E+00 0.  1.
          6    1    1    2  501    0 -0.43645855594E+02 -0.12046119078E+03  0.32037805408E+03  0.38598828574E+03  0.17300000000E+03 0. -1.
         -6    1    1    2    0  503  0.43645855594E+02  0.12046119078E+03  0.22825866507E+03  0.31376245374E+03  0.17300000000E+03 0. -1.
<mgrwt>
<rscale>  2 0.21527856E+03</rscale>
<asrwt>0</asrwt>
<pdfrwt beam="1">  1       21 0.96029801E-01 0.21527856E+03</pdfrwt>
<pdfrwt beam="2">  1       21 0.11624156E-01 0.21527856E+03</pdfrwt>
<totfact> 0.55488184E+04</totfact>
</mgrwt>
</event>
<event>
 4    1  0.4327903E+000  0.2087841E+03  0.7546771E-02  0.1142533E+00
         21   -1    0    0  501  502  0.00000000000E+00  0.00000000000E+00  0.31060574088E+03  0.31060574088E+03  0.00000000000E+00 0.  1.
         21   -1    0    0  502  503 -0.00000000000E+00 -0.00000000000E+00 -0.32453004326E+03  0.32453004326E+03  0.00000000000E+00 0.  1.
          6    1    1    2  501    0  0.14997908600E+01  0.11687401838E+03  0.23228169779E+03  0.31232286607E+03  0.17300000000E+03 0.  1.
         -6    1    1    2    0  503 -0.14997908600E+01 -0.11687401838E+03 -0.24620600017E+03  0.32281291806E+03  0.17300000000E+03 0.  1.
<mgrwt>
<rscale>  2 0.20878406E+03</rscale>
<asrwt>0</asrwt>
<pdfrwt beam="1">  1       21 0.47785499E-01 0.20878406E+03</pdfrwt>
<pdfrwt beam="2">  1       21 0.49927699E-01 0.20878406E+03</pdfrwt>
<totfact> 0.15840467E+04</totfact>
</mgrwt>
</event>
<event>
 4    1  0.4327903E+000  0.1841868E+03  0.7546771E-02  0.1163811E+00
         21   -1    0    0  501  502  0.00000000000E+00  0.00000000000E+00  0.16663211092E+03  0.16663211092E+03  0.00000000000E+00 0.  1.
         21   -1    0    0  502  503 -0.00000000000E+00 -0.00000000000E+00 -0.38597172892E+03  0.38597172892E+03  0.00000000000E+00 0.  1.
          6    1    1    2  501    0 -0.16357786897E+02  0.61058879956E+02  0.80261198558E+02  0.20091446938E+03  0.17300000000E+03 0.  1.
         -6    1    1    2    0  503  0.16357786897E+02 -0.61058879956E+02 -0.29960081656E+03  0.35168937046E+03  0.17300000000E+03 0.  1.
<mgrwt>
<rscale>  2 0.18418676E+03</rscale>
<asrwt>0</asrwt>
<pdfrwt beam="1">  1       21 0.25635710E-01 0.18418676E+03</pdfrwt>
<pdfrwt beam="2">  1       21 0.59380265E-01 0.18418676E+03</pdfrwt>
<totfact> 0.38415701E+04</totfact>
</mgrwt>
</event>
<event>
 4    1  0.4327903E+000  0.1763505E+03  0.7546771E-02  0.1171383E+00
         21   -1    0    0  503  502  0.00000000000E+00  0.00000000000E+00  0.45959855105E+02  0.45959855105E+02  0.00000000000E+00 0.  1.
         21   -1    0    0  501  503 -0.00000000000E+00 -0.00000000000E+00 -0.21125374050E+04  0.21125374050E+04  0.00000000000E+00 0.  1.
          6    1    1    2  501    0  0.31164301183E+02 -0.14116886394E+02 -0.19230571812E+04  0.19311262057E+04  0.17300000000E+03 0.  1.
         -6    1    1    2    0  502 -0.31164301183E+02  0.14116886394E+02 -0.14352036867E+03  0.22737105439E+03  0.17300000000E+03 0.  1.
<mgrwt>
<rscale>  2 0.17635050E+03</rscale>
<asrwt>0</asrwt>
<pdfrwt beam="1">  1       21 0.70707471E-02 0.17635050E+03</pdfrwt>
<pdfrwt beam="2">  1       21 0.32500575E+00 0.17635050E+03</pdfrwt>
<totfact> 0.37180656E+03</totfact>
</mgrwt>
</event>
<event>
 4    1  0.4327903E+000  0.2161055E+03  0.7546771E-02  0.1136820E+00
         21   -1    0    0  501  502  0.00000000000E+00  0.00000000000E+00  0.64540741102E+03  0.64540741102E+03  0.00000000000E+00 0.  1.
         21   -1    0    0  502  503 -0.00000000000E+00 -0.00000000000E+00 -0.75072501355E+02  0.75072501355E+02  0.00000000000E+00 0. -1.
          6    1    1    2  501    0  0.84817300760E+02 -0.97870474493E+02  0.35364463109E+03  0.41444677509E+03  0.17300000000E+03 0.  1.
         -6    1    1    2    0  503 -0.84817300760E+02  0.97870474493E+02  0.21669027858E+03  0.30603313728E+03  0.17300000000E+03 0.  1.
<mgrwt>
<rscale>  2 0.21610554E+03</rscale>
<asrwt>0</asrwt>
<pdfrwt beam="1">  1       21 0.99293444E-01 0.21610554E+03</pdfrwt>
<pdfrwt beam="2">  1       21 0.11549616E-01 0.21610554E+03</pdfrwt>
<totfact> 0.51847853E+04</totfact>
</mgrwt>
</event>
<event>
 4    1  0.4327903E+000  0.1807736E+03  0.7546771E-02  0.1167056E+00
         21   -1    0    0  503  502  0.00000000000E+00  0.00000000000E+00  0.31522479322E+03  0.31522479322E+03  0.00000000000E+00 0. -1.
         21   -1    0    0  501  503 -0.00000000000E+00 -0.00000000000E+00 -0.11704209770E+03  0.11704209770E+03  0.00000000000E+00 0. -1.
          6    1    1    2  501    0  0.52439066959E+02  0.47413276945E+00  0.17214884689E+03  0.24962833579E+03  0.17300000000E+03 0. -1.
         -6    1    1    2    0  502 -0.52439066959E+02 -0.47413276945E+00  0.26033848633E+02  0.18263855513E+03  0.17300000000E+03 0. -1.
<mgrwt>
<rscale>  2 0.18077356E+03</rscale>
<asrwt>0</asrwt>
<pdfrwt beam="1">  1       21 0.48496122E-01 0.18077356E+03</pdfrwt>
<pdfrwt beam="2">  1       21 0.18006477E-01 0.18077356E+03</pdfrwt>
<totfact> 0.11441053E+05</totfact>
</mgrwt>
</event>
<event>
 4    1  0.4327903E+000  0.2689564E+03  0.7546771E-02  0.1101878E+00
         21   -1    0    0  503  502  0.00000000000E+00  0.00000000000E+00  0.18100421374E+03  0.18100421374E+03  0.00000000000E+00 0.  1.
         21   -1    0    0  501  503 -0.00000000000E+00 -0.00000000000E+00 -0.70227726207E+03  0.70227726207E+03  0.00000000000E+00 0.  1.
          6    1    1    2  501    0 -0.40681676698E+02  0.20187502314E+03 -0.55055244101E+03  0.61273608845E+03  0.17300000000E+03 0.  1.
         -6    1    1    2    0  502  0.40681676698E+02 -0.20187502314E+03  0.29279392680E+02  0.27054538736E+03  0.17300000000E+03 0.  1.
<mgrwt>
<rscale>  2 0.26895636E+03</rscale>
<asrwt>0</asrwt>
<pdfrwt beam="1">  1       21 0.27846802E-01 0.26895636E+03</pdfrwt>
<pdfrwt beam="2">  1       21 0.10804266E+00 0.26895636E+03</pdfrwt>
<totfact> 0.79975654E+03</totfact>
</mgrwt>
</event>
<event>
 4    1  0.4327903E+000  0.2582631E+03  0.7546771E-02  0.1108191E+00
         21   -1    0    0  503  502  0.00000000000E+00  0.00000000000E+00  0.19736326838E+03  0.19736326838E+03  0.00000000000E+00 0. -1.
         21   -1    0    0  501  503 -0.00000000000E+00 -0.00000000000E+00 -0.33808904283E+03  0.33808904283E+03  0.00000000000E+00 0.  1.
          6    1    1    2  501    0 -0.19173246460E+03  0.30807749944E+01 -0.75701215960E+02  0.26912915720E+03  0.17300000000E+03 0. -1.
         -6    1    1    2    0  502  0.19173246460E+03 -0.30807749944E+01 -0.65024558496E+02  0.26632315401E+03  0.17300000000E+03 0.  1.
<mgrwt>
<rscale>  2 0.25826310E+03</rscale>
<asrwt>0</asrwt>
<pdfrwt beam="1">  1       21 0.30363580E-01 0.25826310E+03</pdfrwt>
<pdfrwt beam="2">  1       21 0.52013699E-01 0.25826310E+03</pdfrwt>
<totfact> 0.35399273E+04</totfact>
</mgrwt>
</event>
<event>
 4    1  0.4327903E+000  0.2150221E+03  0.7546771E-02  0.1137650E+00
         21   -1    0    0  503  502  0.00000000000E+00  0.00000000000E+00  0.10577901597E+03  0.10577901597E+03  0.00000000000E+00 0.  1.
         21   -1    0    0  501  503 -0.00000000000E+00 -0.00000000000E+00 -0.46301074596E+03  0.46301074596E+03  0.00000000000E+00 0. -1.
          6    1    1    2  501    0  0.10118851943E+03 -0.77887065327E+02 -0.24591116395E+03  0.32666008628E+03  0.17300000000E+03 0. -1.
         -6    1    1    2    0  502 -0.10118851943E+03  0.77887065327E+02 -0.11132056604E+03  0.24212967565E+03  0.17300000000E+03 0.  1.
<mgrwt>
<rscale>  2 0.21502212E+03</rscale>
<asrwt>0</asrwt>
<pdfrwt beam="1">  1       21 0.16273695E-01 0.21502212E+03</pdfrwt>
<pdfrwt beam="2">  1       21 0.71232422E-01 0.21502212E+03</pdfrwt>
<totfact> 0.59638683E+04</totfact>
</mgrwt>
</event>
<event>
 4    1  0.4327903E+000  0.2044168E+03  0.7546771E-02  0.1146065E+00
         21   -1    0    0  501  502  0.00000000000E+00  0.00000000000E+00  0.64800506898E+03  0.64800506898E+03  0.00000000000E+00 0.  1.
         21   -1    0    0  502  503 -0.00000000000E+00 -0.00000000000E+00 -0.77494697094E+02  0.77494697094E+02  0.00000000000E+00 0. -1.
          6    1    1    2  501    0 -0.93474340874E+02 -0.55855068479E+02  0.43388786399E+03  0.47962998196E+03  0.17300000000E+03 0.  1.
         -6    1    1    2    0  503  0.93474340874E+02  0.55855068479E+02  0.13662250790E+03  0.24586978411E+03  0.17300000000E+03 0. -1.
<mgrwt>
<rscale>  2 0.20441683E+03</rscale>
<asrwt>0</asrwt>
<pdfrwt beam="1">  1       21 0.99693084E-01 0.20441683E+03</pdfrwt>
<pdfrwt beam="2">  1       21 0.11922262E-01 0.20441683E+03</pdfrwt>
<totfact> 0.48798835E+04</totfact>
</mgrwt>
</event>
<event>
 4    1  0.4327903E+000  0.2539383E+03  0.7546771E-02  0.1110841E+00
         21   -1    0    0  501  502  0.00000000000E+00  0.00000000000E+00  0.55314841056E+02  0.55314841056E+02  0.00000000000E+00 0.  1.
         21   -1    0    0  502  503 -0.00000000000E+00 -0.00000000000E+00 -0.13721814228E+04  0.13721814228E+04  0.00000000000E+00 0. -1.
          6    1    1    2  501    0 -0.18525681026E+03  0.15348804498E+02 -0.38161130575E+03  0.45837960276E+03  0.17300000000E+03 0.  1.
         -6    1    1    2    0  503  0.18525681026E+03 -0.15348804498E+02 -0.93525527595E+03  0.96911666106E+03  0.17300000000E+03 0. -1.
<mgrwt>
<rscale>  2 0.25393832E+03</rscale>
<asrwt>0</asrwt>
<pdfrwt beam="1">  1       21 0.85099761E-02 0.25393832E+03</pdfrwt>
<pdfrwt beam="2">  1       21 0.21110482E+00 0.25393832E+03</pdfrwt>
<totfact> 0.11750057E+04</totfact>
</mgrwt>
</event>
<event>
 4    1  0.4327903E+000  0.1820280E+03  0.7546771E-02  0.1165855E+00
         21   -1    0    0  501  502  0.00000000000E+00  0.00000000000E+00  0.84682929451E+03  0.84682929451E+03  0.00000000000E+00 0. -1.
         21   -1    0    0  502  503 -0.00000000000E+00 -0.00000000000E+00 -0.41435107134E+02  0.41435107134E+02  0.00000000000E+00 0.  1.
          6    1    1    2  501    0  0.33953867307E+02  0.45302758109E+02  0.50751150293E+03  0.53916799850E+03  0.17300000000E+03 0. -1.
         -6    1    1    2    0  503 -0.33953867307E+02 -0.45302758109E+02  0.29788268445E+03  0.34909640315E+03  0.17300000000E+03 0.  1.
<mgrwt>
<rscale>  2 0.18202803E+03</rscale>
<asrwt>0</asrwt>
<pdfrwt beam="1">  1       21 0.13028142E+00 0.18202803E+03</pdfrwt>
<pdfrwt beam="2">  1       21 0.63746325E-02 0.18202803E+03</pdfrwt>
<totfact> 0.76793355E+04</totfact>
</mgrwt>
</event>
<event>
 4    1  0.4327903E+000  0.1901433E+03  0.7546771E-02  0.1158332E+00
         21   -1    0    0  503  502  0.00000000000E+00  0.00000000000E+00  0.84315498051E+03  0.84315498051E+03  0.00000000000E+00 0. -1.
         21   -1    0    0  501  503 -0.00000000000E+00 -0.00000000000E+00 -0.13133744303E+03  0.13133744303E+03  0.00000000000E+00 0. -1.
          6    1    1    2  501    0  0.72573171371E+02  0.30961267687E+02 -0.43963643445E+02  0.19515959429E+03  0.17300000000E+03 0. -1.
         -6    1    1    2    0  502 -0.72573171371E+02 -0.30961267687E+02  0.75578118093E+03  0.77933282925E+03  0.17300000000E+03 0. -1.
<mgrwt>
<rscale>  2 0.19014328E+03</rscale>
<asrwt>0</asrwt>
<pdfrwt beam="1">  1       21 0.12971615E+00 0.19014328E+03</pdfrwt>
<pdfrwt beam="2">  1       21 0.20205761E-01 0.19014328E+03</pdfrwt>
<totfact> 0.98611287E+03</totfact>
</mgrwt>
</event>
<event>
 4    1  0.4327903E+000  0.1756332E+03  0.7546771E-02  0.1172097E+00
         21   -1    0    0  503  502  0.00000000000E+00  0.00000000000E+00  0.70129029932E+02  0.70129029932E+02  0.00000000000E+00 0. -1.
         21   -1    0    0  501  503 -0.00000000000E+00 -0.00000000000E+00 -0.59880963995E+03  0.59880963995E+03  0.00000000000E+00 0. -1.
          6    1    1    2  501    0  0.23426415511E+02 -0.19215189583E+02 -0.43666218191E+03  0.47066004883E+03  0.17300000000E+03 0. -1.
         -6    1    1    2    0  502 -0.23426415511E+02  0.19215189583E+02 -0.92018428105E+02  0.19827862105E+03  0.17300000000E+03 0. -1.
<mgrwt>
<rscale>  2 0.17563320E+03</rscale>
<asrwt>0</asrwt>
<pdfrwt beam="1">  1       21 0.10789082E-01 0.17563320E+03</pdfrwt>
<pdfrwt beam="2">  1       21 0.92124559E-01 0.17563320E+03</pdfrwt>
<totfact> 0.71137439E+04</totfact>
</mgrwt>
</event>
<event>
 4    1  0.4327903E+000  0.1868775E+03  0.7546771E-02  0.1161308E+00
         21   -1    0    0  501  502  0.00000000000E+00  0.00000000000E+00  0.11739749083E+03  0.11739749083E+03  0.00000000000E+00 0. -1.
         21   -1    0    0  502  503 -0.00000000000E+00 -0.00000000000E+00 -0.44019993962E+03  0.44019993962E+03  0.00000000000E+00 0.  1.
          6    1    1    2  501    0  0.46560415057E+02  0.53163267067E+02 -0.26523326665E+01  0.18689633513E+03  0.17300000000E+03 0. -1.
         -6    1    1    2    0  503 -0.46560415057E+02 -0.53163267067E+02 -0.32015011613E+03  0.37070109532E+03  0.17300000000E+03 0.  1.
<mgrwt>
<rscale>  2 0.18687751E+03</rscale>
<asrwt>0</asrwt>
<pdfrwt beam="1">  1       21 0.18061153E-01 0.18687751E+03</pdfrwt>
<pdfrwt beam="2">  1       21 0.67723067E-01 0.18687751E+03</pdfrwt>
<totfact> 0.55742817E+04</totfact>
</mgrwt>
</event>
<event>
 4    1  0.4327903E+000  0.1774989E+03  0.7546771E-02  0.1170246E+00
         21   -1    0    0  501  502  0.00000000000E+00  0.00000000000E+00  0.60578530553E+02  0.60578530553E+02  0.00000000000E+00 0. -1.
         21   -1    0    0  502  503 -0.00000000000E+00 -0.00000000000E+00 -0.52021172393E+03  0.52021172393E+03  0.00000000000E+00 0. -1.
          6    1    1    2  501    0  0.24958755390E+02 -0.30885794934E+02 -0.22525087977E+03  0.28678185200E+03  0.17300000000E+03 0. -1.
         -6    1    1    2    0  503 -0.24958755390E+02  0.30885794934E+02 -0.23438231361E+03  0.29400840249E+03  0.17300000000E+03 0. -1.
<mgrwt>
<rscale>  2 0.17749893E+03</rscale>
<asrwt>0</asrwt>
<pdfrwt beam="1">  1       21 0.93197738E-02 0.17749893E+03</pdfrwt>
<pdfrwt beam="2">  1       21 0.80032574E-01 0.17749893E+03</pdfrwt>
<totfact> 0.12694167E+05</totfact>
</mgrwt>
</event>
<event>
 4    1  0.4327903E+000  0.3363469E+03  0.7546771E-02  0.1068363E+00
         21   -1    0    0  503  502  0.00000000000E+00  0.00000000000E+00  0.12977550682E+03  0.12977550682E+03  0.00000000000E+00 0.  1.
         21   -1    0    0  501  503 -0.00000000000E+00 -0.00000000000E+00 -0.13378144904E+04  0.13378144904E+04  0.00000000000E+00 0. -1.
          6    1    1    2  501    0 -0.27683836564E+03  0.80998290980E+02 -0.10371403717E+04  0.10903161718E+04  0.17300000000E+03 0. -1.
         -6    1    1    2    0  502  0.27683836564E+03 -0.80998290980E+02 -0.17089861190E+03  0.37727382546E+03  0.17300000000E+03 0.  1.
<mgrwt>
<rscale>  2 0.33634685E+03</rscale>
<asrwt>0</asrwt>
<pdfrwt beam="1">  1       21 0.19965462E-01 0.33634685E+03</pdfrwt>
<pdfrwt beam="2">  1       21 0.20581762E+00 0.33634685E+03</pdfrwt>
<totfact> 0.25574119E+03</totfact>
</mgrwt>
</event>
<event>
 4    1  0.4327903E+000  0.1877938E+03  0.7546771E-02  0.1160466E+00
         21   -1    0    0  501  502  0.00000000000E+00  0.00000000000E+00  0.60187764500E+02  0.60187764500E+02  0.00000000000E+00 0. -1.
         21   -1    0    0  502  503 -0.00000000000E+00 -0.00000000000E+00 -0.12227512023E+04  0.12227512023E+04  0.00000000000E+00 0.  1.
          6    1    1    2  501    0  0.33264276626E+01  0.72982452052E+02 -0.11835545741E+03  0.22197864250E+03  0.17300000000E+03 0. -1.
         -6    1    1    2    0  503 -0.33264276626E+01 -0.72982452052E+02 -0.10442079804E+04  0.10609603243E+04  0.17300000000E+03 0.  1.
<mgrwt>
<rscale>  2 0.18779378E+03</rscale>
<asrwt>0</asrwt>
<pdfrwt beam="1">  1       21 0.92596559E-02 0.18779378E+03</pdfrwt>
<pdfrwt beam="2">  1       21 0.18811557E+00 0.18779378E+03</pdfrwt>
<totfact> 0.14970937E+04</totfact>
</mgrwt>
</event>
<event>
 4    1  0.4327903E+000  0.1821299E+03  0.7546771E-02  0.1165758E+00
         21   -1    0    0  503  502  0.00000000000E+00  0.00000000000E+00  0.62438752448E+02  0.62438752448E+02  0.00000000000E+00 0.  1.
         21   -1    0    0  501  503 -0.00000000000E+00 -0.00000000000E+00 -0.53504405427E+03  0.53504405427E+03  0.00000000000E+00 0.  1.
          6    1    1    2  501    0 -0.94512137582E+01  0.56151319979E+02 -0.26142160789E+03  0.31861034705E+03  0.17300000000E+03 0.  1.
         -6    1    1    2    0  502  0.94512137582E+01 -0.56151319979E+02 -0.21118369393E+03  0.27887245966E+03  0.17300000000E+03 0.  1.
<mgrwt>
<rscale>  2 0.18212989E+03</rscale>
<asrwt>0</asrwt>
<pdfrwt beam="1">  1       21 0.96059617E-02 0.18212989E+03</pdfrwt>
<pdfrwt beam="2">  1       21 0.82314471E-01 0.18212989E+03</pdfrwt>
<totfact> 0.11275618E+05</totfact>
</mgrwt>
</event>
<event>
 4    1  0.4327903E+000  0.2255975E+03  0.7546771E-02  0.1129777E+00
         21   -1    0    0  503  502  0.00000000000E+00  0.00000000000E+00  0.13656992905E+04  0.13656992905E+04  0.00000000000E+00 0.  1.
         21   -1    0    0  501  503 -0.00000000000E+00 -0.00000000000E+00 -0.44464642006E+02  0.44464642006E+02  0.00000000000E+00 0.  1.
          6    1    1    2  501    0  0.77690202541E+02  0.12218623061E+03  0.37691986510E+03  0.43927534329E+03  0.17300000000E+03 0.  1.
         -6    1    1    2    0  502 -0.77690202541E+02 -0.12218623061E+03  0.94431478342E+03  0.97088858924E+03  0.17300000000E+03 0.  1.
<mgrwt>
<rscale>  2 0.22559752E+03</rscale>
<asrwt>0</asrwt>
<pdfrwt beam="1">  1       21 0.21010755E+00 0.22559752E+03</pdfrwt>
<pdfrwt beam="2">  1       21 0.68407152E-02 0.22559752E+03</pdfrwt>
<totfact> 0.17786910E+04</totfact>
</mgrwt>
</event>
<event>
 4    1  0.4327903E+000  0.2110768E+03  0.7546771E-02  0.1140716E+00
         21   -1    0    0  501  502  0.00000000000E+00  0.00000000000E+00  0.25527619009E+03  0.25527619009E+03  0.00000000000E+00 0. -1.
         21   -1    0    0  502  503 -0.00000000000E+00 -0.00000000000E+00 -0.17617397616E+03  0.17617397616E+03  0.00000000000E+00 0.  1.
          6    1    1    2  501    0 -0.88235368495E+02  0.82697924888E+02  0.18713902640E+02  0.21190478330E+03  0.17300000000E+03 0. -1.
         -6    1    1    2    0  503  0.88235368495E+02 -0.82697924888E+02  0.60388311288E+02  0.21954538295E+03  0.17300000000E+03 0. -1.
<mgrwt>
<rscale>  2 0.21107683E+03</rscale>
<asrwt>0</asrwt>
<pdfrwt beam="1">  1       21 0.39273260E-01 0.21107683E+03</pdfrwt>
<pdfrwt beam="2">  1       21 0.27103689E-01 0.21107683E+03</pdfrwt>
<totfact> 0.80457764E+04</totfact>
</mgrwt>
</event>
<event>
 4    1  0.4327903E+000  0.2081162E+03  0.7546771E-02  0.1143066E+00
         21   -1    0    0  501  502  0.00000000000E+00  0.00000000000E+00  0.44464294813E+02  0.44464294813E+02  0.00000000000E+00 0. -1.
         21   -1    0    0  502  503 -0.00000000000E+00 -0.00000000000E+00 -0.13133070434E+04  0.13133070434E+04  0.00000000000E+00 0. -1.
          6    1    1    2  501    0  0.96996334291E+00  0.11568245108E+03 -0.28939662930E+03  0.35645866432E+03  0.17300000000E+03 0. -1.
         -6    1    1    2    0  503 -0.96996334291E+00 -0.11568245108E+03 -0.97944611926E+03  0.10013126739E+04  0.17300000000E+03 0. -1.
<mgrwt>
<rscale>  2 0.20811624E+03</rscale>
<asrwt>0</asrwt>
<pdfrwt beam="1">  1       21 0.68406606E-02 0.20811624E+03</pdfrwt>
<pdfrwt beam="2">  1       21 0.20204724E+00 0.20811624E+03</pdfrwt>
<totfact> 0.20268424E+04</totfact>
</mgrwt>
</event>
<event>
 4    1  0.4327903E+000  0.1778283E+03  0.7546771E-02  0.1169922E+00
         21   -1    0    0  503  502  0.00000000000E+00  0.00000000000E+00  0.32786027459E+02  0.32786027459E+02  0.00000000000E+00 0. -1.
         21   -1    0    0  501  503 -0.00000000000E+00 -0.00000000000E+00 -0.98133520229E+03  0.98133520229E+03  0.00000000000E+00 0. -1.
          6    1    1    2  501    0  0.66337833700E+01 -0.40618759860E+02 -0.54064252231E+03  0.56913726610E+03  0.17300000000E+03 0. -1.
         -6    1    1    2    0  502 -0.66337833700E+01  0.40618759860E+02 -0.40790665252E+03  0.44498396365E+03  0.17300000000E+03 0. -1.
<mgrwt>
<rscale>  2 0.17782826E+03</rscale>
<asrwt>0</asrwt>
<pdfrwt beam="1">  1       21 0.50440045E-02 0.17782826E+03</pdfrwt>
<pdfrwt beam="2">  1       21 0.15097464E+00 0.17782826E+03</pdfrwt>
<totfact> 0.78466776E+04</totfact>
</mgrwt>
</event>
<event>
 4    1  0.4327903E+000  0.2363206E+03  0.7546771E-02  0.1122269E+00
         21   -1    0    0  503  502  0.00000000000E+00  0.00000000000E+00  0.28287313606E+03  0.28287313606E+03  0.00000000000E+00 0.  1.
         21   -1    0    0  501  503 -0.00000000000E+00 -0.00000000000E+00 -0.21612573958E+03  0.21612573958E+03  0.00000000000E+00 0.  1.
          6    1    1    2  501    0 -0.12537200997E+03  0.10099634912E+03 -0.40009645637E+02  0.23968348955E+03  0.17300000000E+03 0.  1.
         -6    1    1    2    0  502  0.12537200997E+03 -0.10099634912E+03  0.10675704212E+03  0.25931538609E+03  0.17300000000E+03 0.  1.
<mgrwt>
<rscale>  2 0.23632055E+03</rscale>
<asrwt>0</asrwt>
<pdfrwt beam="1">  1       21 0.43518944E-01 0.23632055E+03</pdfrwt>
<pdfrwt beam="2">  1       21 0.33250114E-01 0.23632055E+03</pdfrwt>
<totfact> 0.43298065E+04</totfact>
</mgrwt>
</event>
<event>
 4    1  0.4327903E+000  0.1862307E+03  0.7546771E-02  0.1161906E+00
         21   -1    0    0  503  502  0.00000000000E+00  0.00000000000E+00  0.45166457752E+03  0.45166457752E+03  0.00000000000E+00 0.  1.
         21   -1    0    0  501  503 -0.00000000000E+00 -0.00000000000E+00 -0.96141488748E+02  0.96141488748E+02  0.00000000000E+00 0. -1.
          6    1    1    2  501    0  0.67265670000E+02 -0.15106856799E+02  0.54866528527E+02  0.19414485168E+03  0.17300000000E+03 0. -1.
         -6    1    1    2    0  502 -0.67265670000E+02  0.15106856799E+02  0.30065656025E+03  0.35366121459E+03  0.17300000000E+03 0.  1.
<mgrwt>
<rscale>  2 0.18623074E+03</rscale>
<asrwt>0</asrwt>
<pdfrwt beam="1">  1       21 0.69486857E-01 0.18623074E+03</pdfrwt>
<pdfrwt beam="2">  1       21 0.14790999E-01 0.18623074E+03</pdfrwt>
<totfact> 0.75990509E+04</totfact>
</mgrwt>
</event>
<event>
 4    1  0.4327903E+000  0.2180485E+03  0.7546771E-02  0.1135346E+00
         21   -1    0    0  501  502  0.00000000000E+00  0.00000000000E+00  0.23326517254E+02  0.23326517254E+02  0.00000000000E+00 0.  1.
         21   -1    0    0  502  503 -0.00000000000E+00 -0.00000000000E+00 -0.21532254141E+04  0.21532254141E+04  0.00000000000E+00 0.  1.
          6    1    1    2  501    0  0.61367572777E+02 -0.11768677439E+03 -0.81346778206E+03  0.84218465214E+03  0.17300000000E+03 0.  1.
         -6    1    1    2    0  503 -0.61367572777E+02  0.11768677439E+03 -0.13164311148E+04  0.13343672792E+04  0.17300000000E+03 0.  1.
<mgrwt>
<rscale>  2 0.21804852E+03</rscale>
<asrwt>0</asrwt>
<pdfrwt beam="1">  1       21 0.35886932E-02 0.21804852E+03</pdfrwt>
<pdfrwt beam="2">  1       21 0.33126561E+00 0.21804852E+03</pdfrwt>
<totfact> 0.10289506E+04</totfact>
</mgrwt>
</event>
<event>
 4    1  0.4327903E+000  0.3019091E+03  0.7546771E-02  0.1084290E+00
         21   -1    0    0  501  502  0.00000000000E+00  0.00000000000E+00  0.78541893365E+02  0.78541893365E+02  0.00000000000E+00 0.  1.
         21   -1    0    0  502  503 -0.00000000000E+00 -0.00000000000E+00 -0.11656187449E+04  0.11656187449E+04  0.00000000000E+00 0. -1.
          6    1    1    2  501    0 -0.21556437512E+03  0.12145824895E+03 -0.50237800507E+03  0.58611668296E+03  0.17300000000E+03 0. -1.
         -6    1    1    2    0  503  0.21556437512E+03 -0.12145824895E+03 -0.58469884643E+03  0.65804395527E+03  0.17300000000E+03 0.  1.
<mgrwt>
<rscale>  2 0.30190910E+03</rscale>
<asrwt>0</asrwt>
<pdfrwt beam="1">  1       21 0.12083369E-01 0.30190910E+03</pdfrwt>
<pdfrwt beam="2">  1       21 0.17932594E+00 0.30190910E+03</pdfrwt>
<totfact> 0.99262263E+03</totfact>
</mgrwt>
</event>
<event>
 4    1  0.4327903E+000  0.1737645E+03  0.7546771E-02  0.1173978E+00
         21   -1    0    0  503  502  0.00000000000E+00  0.00000000000E+00  0.31065443144E+02  0.31065443144E+02  0.00000000000E+00 0.  1.
         21   -1    0    0  501  503 -0.00000000000E+00 -0.00000000000E+00 -0.12365247237E+04  0.12365247237E+04  0.00000000000E+00 0.  1.
          6    1    1    2  501    0  0.16058600933E+02 -0.26847808366E+01 -0.89590054459E+03  0.91259622644E+03  0.17300000000E+03 0.  1.
         -6    1    1    2    0  502 -0.16058600933E+02  0.26847808366E+01 -0.30955873597E+03  0.35499394041E+03  0.17300000000E+03 0.  1.
<mgrwt>
<rscale>  2 0.17376446E+03</rscale>
<asrwt>0</asrwt>
<pdfrwt beam="1">  1       21 0.47792999E-02 0.17376446E+03</pdfrwt>
<pdfrwt beam="2">  1       21 0.19023454E+00 0.17376446E+03</pdfrwt>
<totfact> 0.45690711E+04</totfact>
</mgrwt>
</event>
<event>
 4    1  0.4327903E+000  0.2230014E+03  0.7546771E-02  0.1131665E+00
         21   -1    0    0  503  502  0.00000000000E+00  0.00000000000E+00  0.13708621617E+03  0.13708621617E+03  0.00000000000E+00 0. -1.
         21   -1    0    0  501  503 -0.00000000000E+00 -0.00000000000E+00 -0.41352888504E+03  0.41352888504E+03  0.00000000000E+00 0.  1.
          6    1    1    2  501    0 -0.92302521771E+01  0.14041166803E+03 -0.23468340394E+03  0.32373744633E+03  0.17300000000E+03 0.  1.
         -6    1    1    2    0  502  0.92302521771E+01 -0.14041166803E+03 -0.41759264935E+02  0.22687765488E+03  0.17300000000E+03 0. -1.
<mgrwt>
<rscale>  2 0.22300142E+03</rscale>
<asrwt>0</asrwt>
<pdfrwt beam="1">  1       21 0.21090187E-01 0.22300142E+03</pdfrwt>
<pdfrwt beam="2">  1       21 0.63619828E-01 0.22300142E+03</pdfrwt>
<totfact> 0.47030415E+04</totfact>
</mgrwt>
</event>
<event>
 4    1  0.4327903E+000  0.1910347E+03  0.7546771E-02  0.1157531E+00
         21   -1    0    0  501  502  0.00000000000E+00  0.00000000000E+00  0.18207373063E+04  0.18207373063E+04  0.00000000000E+00 0.  1.
         21   -1    0    0  502  503 -0.00000000000E+00 -0.00000000000E+00 -0.28024968845E+02  0.28024968845E+02  0.00000000000E+00 0. -1.
          6    1    1    2  501    0 -0.50336959555E+00 -0.81024722951E+02  0.40305144834E+03  0.44603220637E+03  0.17300000000E+03 0. -1.
         -6    1    1    2    0  503  0.50336959555E+00  0.81024722951E+02  0.13896608891E+04  0.14027300688E+04  0.17300000000E+03 0.  1.
<mgrwt>
<rscale>  2 0.19103471E+03</rscale>
<asrwt>0</asrwt>
<pdfrwt beam="1">  1       21 0.28011334E+00 0.19103471E+03</pdfrwt>
<pdfrwt beam="2">  1       21 0.43115351E-02 0.19103471E+03</pdfrwt>
<totfact> 0.15375238E+04</totfact>
</mgrwt>
</event>
<event>
 4    1  0.4327903E+000  0.2856535E+03  0.7546771E-02  0.1092641E+00
         21   -1    0    0  501  502  0.00000000000E+00  0.00000000000E+00  0.73833353794E+02  0.73833353794E+02  0.00000000000E+00 0. -1.
         21   -1    0    0  502  503 -0.00000000000E+00 -0.00000000000E+00 -0.11322899064E+04  0.11322899064E+04  0.00000000000E+00 0. -1.
          6    1    1    2  501    0 -0.20105739995E+03  0.10604167078E+03 -0.62257100530E+03  0.68497632853E+03  0.17300000000E+03 0. -1.
         -6    1    1    2    0  503  0.20105739995E+03 -0.10604167078E+03 -0.43588554728E+03  0.52114693162E+03  0.17300000000E+03 0. -1.
<mgrwt>
<rscale>  2 0.28565349E+03</rscale>
<asrwt>0</asrwt>
<pdfrwt beam="1">  1       21 0.11358978E-01 0.28565349E+03</pdfrwt>
<pdfrwt beam="2">  1       21 0.17419844E+00 0.28565349E+03</pdfrwt>
<totfact> 0.12156514E+04</totfact>
</mgrwt>
</event>
<event>
 4    1  0.4327903E+000  0.1815736E+03  0.7546771E-02  0.1166289E+00
         21   -1    0    0  501  502  0.00000000000E+00  0.00000000000E+00  0.50949870932E+03  0.50949870932E+03  0.00000000000E+00 0. -1.
         21   -1    0    0  502  503 -0.00000000000E+00 -0.00000000000E+00 -0.67777483381E+02  0.67777483381E+02  0.00000000000E+00 0.  1.
          6    1    1    2  501    0 -0.33022609973E+02  0.44152893373E+02  0.15944228507E+03  0.24164191075E+03  0.17300000000E+03 0. -1.
         -6    1    1    2    0  503  0.33022609973E+02 -0.44152893373E+02  0.28227894088E+03  0.33563428196E+03  0.17300000000E+03 0.  1.
<mgrwt>
<rscale>  2 0.18157360E+03</rscale>
<asrwt>0</asrwt>
<pdfrwt beam="1">  1       21 0.78384414E-01 0.18157360E+03</pdfrwt>
<pdfrwt beam="2">  1       21 0.10427306E-01 0.18157360E+03</pdfrwt>
<totfact> 0.10898064E+05</totfact>
</mgrwt>
</event>
<event>
 4    1  0.4327903E+000  0.2001916E+03  0.7546771E-02  0.1149577E+00
         21   -1    0    0  501  502  0.00000000000E+00  0.00000000000E+00  0.22567478105E+03  0.22567478105E+03  0.00000000000E+00 0. -1.
         21   -1    0    0  502  503 -0.00000000000E+00 -0.00000000000E+00 -0.62763564166E+03  0.62763564166E+03  0.00000000000E+00 0.  1.
          6    1    1    2  501    0 -0.67581166736E+02  0.74702478322E+02  0.16030752351E+03  0.25646671608E+03  0.17300000000E+03 0. -1.
         -6    1    1    2    0  503  0.67581166736E+02 -0.74702478322E+02 -0.56226838412E+03  0.59684370663E+03  0.17300000000E+03 0.  1.
<mgrwt>
<rscale>  2 0.20019159E+03</rscale>
<asrwt>0</asrwt>
<pdfrwt beam="1">  1       21 0.34719197E-01 0.20019159E+03</pdfrwt>
<pdfrwt beam="2">  1       21 0.96559330E-01 0.20019159E+03</pdfrwt>
<totfact> 0.70896889E+03</totfact>
</mgrwt>
</event>
<event>
 4    1  0.4327903E+000  0.1783289E+03  0.7546771E-02  0.1169430E+00
         21   -1    0    0  501  502  0.00000000000E+00  0.00000000000E+00  0.51288088633E+03  0.51288088633E+03  0.00000000000E+00 0. -1.
         21   -1    0    0  502  503 -0.00000000000E+00 -0.00000000000E+00 -0.15717721239E+03  0.15717721239E+03  0.00000000000E+00 0. -1.
          6    1    1    2  501    0 -0.24194944350E+02  0.35871874193E+02  0.43855285310E+03  0.47342348025E+03  0.17300000000E+03 0. -1.
         -6    1    1    2    0  503  0.24194944350E+02 -0.35871874193E+02 -0.82849179163E+02  0.19663461846E+03  0.17300000000E+03 0. -1.
<mgrwt>
<rscale>  2 0.17832887E+03</rscale>
<asrwt>0</asrwt>
<pdfrwt beam="1">  1       21 0.78904751E-01 0.17832887E+03</pdfrwt>
<pdfrwt beam="2">  1       21 0.24181110E-01 0.17832887E+03</pdfrwt>
<totfact> 0.23092445E+04</totfact>
</mgrwt>
</event>
<event>
 4    1  0.4327903E+000  0.3470715E+03  0.7546771E-02  0.1063823E+00
         21   -1    0    0  501  502  0.00000000000E+00  0.00000000000E+00  0.35772962218E+03  0.35772962218E+03  0.00000000000E+00 0. -1.
         21   -1    0    0  502  503 -0.00000000000E+00 -0.00000000000E+00 -0.39311139501E+03  0.39311139501E+03  0.00000000000E+00 0. -1.
          6    1    1    2  501    0 -0.30007232757E+03 -0.22050197825E+02  0.12448458258E+03  0.36872079450E+03  0.17300000000E+03 0. -1.
         -6    1    1    2    0  503  0.30007232757E+03  0.22050197825E+02 -0.15986635541E+03  0.38212022269E+03  0.17300000000E+03 0. -1.
<mgrwt>
<rscale>  2 0.34707148E+03</rscale>
<asrwt>0</asrwt>
<pdfrwt beam="1">  1       21 0.55035327E-01 0.34707148E+03</pdfrwt>
<pdfrwt beam="2">  1       21 0.60478676E-01 0.34707148E+03</pdfrwt>
<totfact> 0.72936421E+03</totfact>
</mgrwt>
</event>
<event>
 4    1  0.4327903E+000  0.1776844E+03  0.7546771E-02  0.1170063E+00
         21   -1    0    0  503  502  0.00000000000E+00  0.00000000000E+00  0.11425296002E+03  0.11425296002E+03  0.00000000000E+00 0.  1.
         21   -1    0    0  501  503 -0.00000000000E+00 -0.00000000000E+00 -0.32870749630E+03  0.32870749630E+03  0.00000000000E+00 0.  1.
          6    1    1    2  501    0  0.39606295636E+02 -0.86084025807E+01 -0.18818830712E+02  0.17867823493E+03  0.17300000000E+03 0.  1.
         -6    1    1    2    0  502 -0.39606295636E+02  0.86084025807E+01 -0.19563570556E+03  0.26428222139E+03  0.17300000000E+03 0.  1.
<mgrwt>
<rscale>  2 0.17768445E+03</rscale>
<asrwt>0</asrwt>
<pdfrwt beam="1">  1       21 0.17577379E-01 0.17768445E+03</pdfrwt>
<pdfrwt beam="2">  1       21 0.50570383E-01 0.17768445E+03</pdfrwt>
<totfact> 0.10976792E+05</totfact>
</mgrwt>
</event>
<event>
 4    1  0.4327903E+000  0.2008792E+03  0.7546771E-02  0.1148999E+00
         21   -1    0    0  503  502  0.00000000000E+00  0.00000000000E+00  0.62099485419E+03  0.62099485419E+03  0.00000000000E+00 0.  1.
         21   -1    0    0  501  503 -0.00000000000E+00 -0.00000000000E+00 -0.87692512018E+02  0.87692512018E+02  0.00000000000E+00 0. -1.
          6    1    1    2  501    0 -0.10033337223E+03 -0.18885791870E+02  0.86319194128E+02  0.21864002834E+03  0.17300000000E+03 0. -1.
         -6    1    1    2    0  502  0.10033337223E+03  0.18885791870E+02  0.44698314804E+03  0.49004733787E+03  0.17300000000E+03 0.  1.
<mgrwt>
<rscale>  2 0.20087921E+03</rscale>
<asrwt>0</asrwt>
<pdfrwt beam="1">  1       21 0.95537667E-01 0.20087921E+03</pdfrwt>
<pdfrwt beam="2">  1       21 0.13491156E-01 0.20087921E+03</pdfrwt>
<totfact> 0.43274650E+04</totfact>
</mgrwt>
</event>
<event>
 4    1  0.4327903E+000  0.1867123E+03  0.7546771E-02  0.1161460E+00
         21   -1    0    0  501  502  0.00000000000E+00  0.00000000000E+00  0.18615535166E+03  0.18615535166E+03  0.00000000000E+00 0.  1.
         21   -1    0    0  502  503 -0.00000000000E+00 -0.00000000000E+00 -0.43035473344E+03  0.43035473344E+03  0.00000000000E+00 0.  1.
          6    1    1    2  501    0 -0.54132281288E+02 -0.44745651271E+02  0.10957305737E+03  0.21648956577E+03  0.17300000000E+03 0.  1.
         -6    1    1    2    0  503  0.54132281288E+02  0.44745651271E+02 -0.35377243915E+03  0.40002051933E+03  0.17300000000E+03 0.  1.
<mgrwt>
<rscale>  2 0.18671228E+03</rscale>
<asrwt>0</asrwt>
<pdfrwt beam="1">  1       21 0.28639285E-01 0.18671228E+03</pdfrwt>
<pdfrwt beam="2">  1       21 0.66208420E-01 0.18671228E+03</pdfrwt>
<totfact> 0.24500248E+04</totfact>
</mgrwt>
</event>
<event>
 4    1  0.4327903E+000  0.2023041E+03  0.7546771E-02  0.1147809E+00
         21   -1    0    0  501  502  0.00000000000E+00  0.00000000000E+00  0.73286786724E+03  0.73286786724E+03  0.00000000000E+00 0. -1.
         21   -1    0    0  502  503 -0.00000000000E+00 -0.00000000000E+00 -0.35949331398E+03  0.35949331398E+03  0.00000000000E+00 0. -1.
          6    1    1    2  501    0  0.98943923203E+02 -0.34757036460E+02  0.68865563725E+03  0.71775590436E+03  0.17300000000E+03 0. -1.
         -6    1    1    2    0  503 -0.98943923203E+02  0.34757036460E+02 -0.31528108399E+03  0.37460527685E+03  0.17300000000E+03 0. -1.
<mgrwt>
<rscale>  2 0.20230411E+03</rscale>
<asrwt>0</asrwt>
<pdfrwt beam="1">  1       21 0.11274890E+00 0.20230411E+03</pdfrwt>
<pdfrwt beam="2">  1       21 0.55306664E-01 0.20230411E+03</pdfrwt>
<totfact> 0.18795447E+03</totfact>
</mgrwt>
</event>
<event>
 4    1  0.4327903E+000  0.1981819E+03  0.7546771E-02  0.1151282E+00
         21   -1    0    0  503  502  0.00000000000E+00  0.00000000000E+00  0.79083526917E+03  0.79083526917E+03  0.00000000000E+00 0.  1.
         21   -1    0    0  501  503 -0.00000000000E+00 -0.00000000000E+00 -0.22316666284E+03  0.22316666284E+03  0.00000000000E+00 0.  1.
          6    1    1    2  501    0  0.94336358563E+02  0.21159139465E+02 -0.16320651150E+03  0.25673414873E+03  0.17300000000E+03 0.  1.
         -6    1    1    2    0  502 -0.94336358563E+02 -0.21159139465E+02  0.73087511783E+03  0.75726778328E+03  0.17300000000E+03 0.  1.
<mgrwt>
<rscale>  2 0.19818188E+03</rscale>
<asrwt>0</asrwt>
<pdfrwt beam="1">  1       21 0.12166696E+00 0.19818188E+03</pdfrwt>
<pdfrwt beam="2">  1       21 0.34333333E-01 0.19818188E+03</pdfrwt>
<totfact> 0.41527059E+03</totfact>
</mgrwt>
</event>
<event>
 4    1  0.4327903E+000  0.1992776E+03  0.7546771E-02  0.1150350E+00
         21   -1    0    0  503  502  0.00000000000E+00  0.00000000000E+00  0.50241554223E+03  0.50241554223E+03  0.00000000000E+00 0. -1.
         21   -1    0    0  501  503 -0.00000000000E+00 -0.00000000000E+00 -0.79476160905E+02  0.79476160905E+02  0.00000000000E+00 0. -1.
          6    1    1    2  501    0 -0.98758037327E+02  0.54219583527E+01  0.18994689137E+03  0.27530232311E+03  0.17300000000E+03 0. -1.
         -6    1    1    2    0  502  0.98758037327E+02 -0.54219583527E+01  0.23299248996E+03  0.30658938003E+03  0.17300000000E+03 0. -1.
<mgrwt>
<rscale>  2 0.19927756E+03</rscale>
<asrwt>0</asrwt>
<pdfrwt beam="1">  1       21 0.77294697E-01 0.19927756E+03</pdfrwt>
<pdfrwt beam="2">  1       21 0.12227102E-01 0.19927756E+03</pdfrwt>
<totfact> 0.84089651E+04</totfact>
</mgrwt>
</event>
<event>
 4    1  0.4327903E+000  0.1974732E+03  0.7546771E-02  0.1151889E+00
         21   -1    0    0  501  502  0.00000000000E+00  0.00000000000E+00  0.92428350541E+03  0.92428350541E+03  0.00000000000E+00 0.  1.
         21   -1    0    0  502  503 -0.00000000000E+00 -0.00000000000E+00 -0.43987666474E+02  0.43987666474E+02  0.00000000000E+00 0.  1.
          6    1    1    2  501    0  0.59912279375E+02  0.74007949893E+02  0.34228047944E+03  0.39516020102E+03  0.17300000000E+03 0.  1.
         -6    1    1    2    0  503 -0.59912279375E+02 -0.74007949893E+02  0.53801535949E+03  0.57311097086E+03  0.17300000000E+03 0.  1.
<mgrwt>
<rscale>  2 0.19747318E+03</rscale>
<asrwt>0</asrwt>
<pdfrwt beam="1">  1       21 0.14219745E+00 0.19747318E+03</pdfrwt>
<pdfrwt beam="2">  1       21 0.67673340E-02 0.19747318E+03</pdfrwt>
<totfact> 0.54965142E+04</totfact>
</mgrwt>
</event>
<event>
 4    1  0.4327903E+000  0.2060654E+03  0.7546771E-02  0.1144720E+00
         21   -1    0    0  501  502  0.00000000000E+00  0.00000000000E+00  0.55786854270E+02  0.55786854270E+02  0.00000000000E+00 0.  1.
         21   -1    0    0  502  503 -0.00000000000E+00 -0.00000000000E+00 -0.10952841106E+04  0.10952841106E+04  0.00000000000E+00 0. -1.
          6    1    1    2  501    0  0.97316000103E+02 -0.55349339658E+02 -0.20187102965E+03  0.28846986998E+03  0.17300000000E+03 0.  1.
         -6    1    1    2    0  503 -0.97316000103E+02  0.55349339658E+02 -0.83762622671E+03  0.86260109492E+03  0.17300000000E+03 0. -1.
<mgrwt>
<rscale>  2 0.20606541E+03</rscale>
<asrwt>0</asrwt>
<pdfrwt beam="1">  1       21 0.85825924E-02 0.20606541E+03</pdfrwt>
<pdfrwt beam="2">  1       21 0.16850526E+00 0.20606541E+03</pdfrwt>
<totfact> 0.22995972E+04</totfact>
</mgrwt>
</event>
<event>
 4    1  0.4327903E+000  0.2088485E+03  0.7546771E-02  0.1142481E+00
         21   -1    0    0  503  502  0.00000000000E+00  0.00000000000E+00  0.13502058548E+03  0.13502058548E+03  0.00000000000E+00 0.  1.
         21   -1    0    0  501  503 -0.00000000000E+00 -0.00000000000E+00 -0.53426016792E+03  0.53426016792E+03  0.00000000000E+00 0.  1.
          6    1    1    2  501    0 -0.28403361669E+02 -0.11349869441E+03 -0.41002895454E+03  0.46015372230E+03  0.17300000000E+03 0.  1.
         -6    1    1    2    0  502  0.28403361669E+02  0.11349869441E+03  0.10789372104E+02  0.20912703110E+03  0.17300000000E+03 0.  1.
<mgrwt>
<rscale>  2 0.20884852E+03</rscale>
<asrwt>0</asrwt>
<pdfrwt beam="1">  1       21 0.20772397E-01 0.20884852E+03</pdfrwt>
<pdfrwt beam="2">  1       21 0.82193873E-01 0.20884852E+03</pdfrwt>
<totfact> 0.27561465E+04</totfact>
</mgrwt>
</event>
<event>
 4    1  0.4327903E+000  0.2042046E+03  0.7546771E-02  0.1146239E+00
         21   -1    0    0  503  502  0.00000000000E+00  0.00000000000E+00  0.14143304772E+04  0.14143304772E+04  0.00000000000E+00 0. -1.
         21   -1    0    0  501  503 -0.00000000000E+00 -0.00000000000E+00 -0.40854225990E+02  0.40854225990E+02  0.00000000000E+00 0.  1.
          6    1    1    2  501    0 -0.10730729503E+03 -0.15989762734E+02  0.30288757333E+03  0.36529496322E+03  0.17300000000E+03 0.  1.
         -6    1    1    2    0  502  0.10730729503E+03  0.15989762734E+02  0.10705886779E+04  0.10898897399E+04  0.17300000000E+03 0. -1.
<mgrwt>
<rscale>  2 0.20420462E+03</rscale>
<asrwt>0</asrwt>
<pdfrwt beam="1">  1       21 0.21758927E+00 0.20420462E+03</pdfrwt>
<pdfrwt beam="2">  1       21 0.62852666E-02 0.20420462E+03</pdfrwt>
<totfact> 0.18780214E+04</totfact>
</mgrwt>
</event>
<event>
 4    1  0.4327903E+000  0.2123575E+03  0.7546771E-02  0.1139713E+00
         21   -1    0    0  501  502  0.00000000000E+00  0.00000000000E+00  0.44016373920E+03  0.44016373920E+03  0.00000000000E+00 0. -1.
         21   -1    0    0  502  503 -0.00000000000E+00 -0.00000000000E+00 -0.10252030162E+03  0.10252030162E+03  0.00000000000E+00 0. -1.
          6    1    1    2  501    0 -0.47332100726E+02  0.11369429792E+03  0.16182567790E+03  0.26698927163E+03  0.17300000000E+03 0. -1.
         -6    1    1    2    0  503  0.47332100726E+02 -0.11369429792E+03  0.17581775968E+03  0.27569476919E+03  0.17300000000E+03 0. -1.
<mgrwt>
<rscale>  2 0.21235753E+03</rscale>
<asrwt>0</asrwt>
<pdfrwt beam="1">  1       21 0.67717497E-01 0.21235753E+03</pdfrwt>
<pdfrwt beam="2">  1       21 0.15772354E-01 0.21235753E+03</pdfrwt>
<totfact> 0.70712292E+04</totfact>
</mgrwt>
</event>
<event>
 4    1  0.4327903E+000  0.1829579E+03  0.7546771E-02  0.1164971E+00
         21   -1    0    0  501  502  0.00000000000E+00  0.00000000000E+00  0.22328449671E+03  0.22328449671E+03  0.00000000000E+00 0.  1.
         21   -1    0    0  502  503 -0.00000000000E+00 -0.00000000000E+00 -0.22717392715E+03  0.22717392715E+03  0.00000000000E+00 0. -1.
          6    1    1    2  501    0  0.49678183065E+02 -0.32812510720E+02  0.12940260849E+03  0.22409510886E+03  0.17300000000E+03 0.  1.
         -6    1    1    2    0  503 -0.49678183065E+02  0.32812510720E+02 -0.13329203893E+03  0.22636331500E+03  0.17300000000E+03 0. -1.
<mgrwt>
<rscale>  2 0.18295787E+03</rscale>
<asrwt>0</asrwt>
<pdfrwt beam="1">  1       21 0.34351461E-01 0.18295787E+03</pdfrwt>
<pdfrwt beam="2">  1       21 0.34949835E-01 0.18295787E+03</pdfrwt>
<totfact> 0.64720762E+04</totfact>
</mgrwt>
</event>
<event>
 4    1  0.4327903E+000  0.1857173E+03  0.7546771E-02  0.1162382E+00
         21   -1    0    0  501  502  0.00000000000E+00  0.00000000000E+00  0.45321492158E+03  0.45321492158E+03  0.00000000000E+00 0. -1.
         21   -1    0    0  502  503 -0.00000000000E+00 -0.00000000000E+00 -0.83361995995E+02  0.83361995995E+02  0.00000000000E+00 0. -1.
          6    1    1    2  501    0  0.46706172015E+01  0.67380146522E+02  0.26409705567E+03  0.32285934031E+03  0.17300000000E+03 0.  1.
         -6    1    1    2    0  503 -0.46706172015E+01 -0.67380146522E+02  0.10575586991E+03  0.21371757726E+03  0.17300000000E+03 0.  1.
<mgrwt>
<rscale>  2 0.18571726E+03</rscale>
<asrwt>0</asrwt>
<pdfrwt beam="1">  1       21 0.69725371E-01 0.18571726E+03</pdfrwt>
<pdfrwt beam="2">  1       21 0.12824923E-01 0.18571726E+03</pdfrwt>
<totfact> 0.97614045E+04</totfact>
</mgrwt>
</event>
<event>
 4    1  0.4327903E+000  0.2225475E+03  0.7546771E-02  0.1131998E+00
         21   -1    0    0  503  502  0.00000000000E+00  0.00000000000E+00  0.37463891832E+02  0.37463891832E+02  0.00000000000E+00 0.  1.
         21   -1    0    0  501  503 -0.00000000000E+00 -0.00000000000E+00 -0.13564560257E+04  0.13564560257E+04  0.00000000000E+00 0.  1.
          6    1    1    2  501    0 -0.38101364563E+02 -0.13470955150E+03 -0.77057166930E+03  0.80206488190E+03  0.17300000000E+03 0.  1.
         -6    1    1    2    0  502  0.38101364563E+02  0.13470955150E+03 -0.54842046457E+03  0.59185503564E+03  0.17300000000E+03 0.  1.
<mgrwt>
<rscale>  2 0.22254747E+03</rscale>
<asrwt>0</asrwt>
<pdfrwt beam="1">  1       21 0.57636758E-02 0.22254747E+03</pdfrwt>
<pdfrwt beam="2">  1       21 0.20868554E+00 0.22254747E+03</pdfrwt>
<totfact> 0.24442233E+04</totfact>
</mgrwt>
</event>
<event>
 4    1  0.4327903E+000  0.2010706E+03  0.7546771E-02  0.1148839E+00
         21   -1    0    0  501  502  0.00000000000E+00  0.00000000000E+00  0.11015445164E+04  0.11015445164E+04  0.00000000000E+00 0. -1.
         21   -1    0    0  502  503 -0.00000000000E+00 -0.00000000000E+00 -0.16077258709E+03  0.16077258709E+03  0.00000000000E+00 0. -1.
          6    1    1    2  501    0  0.96888739901E+02 -0.33361324737E+02  0.10248406588E+04  0.10443791370E+04  0.17300000000E+03 0. -1.
         -6    1    1    2    0  503 -0.96888739901E+02  0.33361324737E+02 -0.84068729559E+02  0.21793796640E+03  0.17300000000E+03 0. -1.
<mgrwt>
<rscale>  2 0.20107065E+03</rscale>
<asrwt>0</asrwt>
<pdfrwt beam="1">  1       21 0.16946838E+00 0.20107065E+03</pdfrwt>
<pdfrwt beam="2">  1       21 0.24734245E-01 0.20107065E+03</pdfrwt>
<totfact> 0.33015161E+03</totfact>
</mgrwt>
</event>
<event>
 4    1  0.4327903E+000  0.1747021E+03  0.7546771E-02  0.1173031E+00
         21   -1    0    0  503  502  0.00000000000E+00  0.00000000000E+00  0.22937189400E+03  0.22937189400E+03  0.00000000000E+00 0.  1.
         21   -1    0    0  501  503 -0.00000000000E+00 -0.00000000000E+00 -0.21938398429E+03  0.21938398429E+03  0.00000000000E+00 0.  1.
          6    1    1    2  501    0 -0.11553803494E+02  0.21408864000E+02 -0.13575228194E+03  0.22124536579E+03  0.17300000000E+03 0. -1.
         -6    1    1    2    0  502  0.11553803494E+02 -0.21408864000E+02  0.14574019166E+03  0.22751051250E+03  0.17300000000E+03 0. -1.
<mgrwt>
<rscale>  2 0.17470212E+03</rscale>
<asrwt>0</asrwt>
<pdfrwt beam="1">  1       21 0.35287984E-01 0.17470212E+03</pdfrwt>
<pdfrwt beam="2">  1       21 0.33751382E-01 0.17470212E+03</pdfrwt>
<totfact> 0.65987794E+04</totfact>
</mgrwt>
</event>
<event>
 4    1  0.4327903E+000  0.2534770E+03  0.7546771E-02  0.1111127E+00
         21   -1    0    0  503  502  0.00000000000E+00  0.00000000000E+00  0.12969639620E+03  0.12969639620E+03  0.00000000000E+00 0.  1.
         21   -1    0    0  501  503 -0.00000000000E+00 -0.00000000000E+00 -0.60935635683E+03  0.60935635683E+03  0.00000000000E+00 0. -1.
          6    1    1    2  501    0 -0.91222171721E+02  0.16124552481E+03 -0.39963617313E+03  0.47324377942E+03  0.17300000000E+03 0. -1.
         -6    1    1    2    0  502  0.91222171721E+02 -0.16124552481E+03 -0.80023787497E+02  0.26580897361E+03  0.17300000000E+03 0.  1.
<mgrwt>
<rscale>  2 0.25347703E+03</rscale>
<asrwt>0</asrwt>
<pdfrwt beam="1">  1       21 0.19953292E-01 0.25347703E+03</pdfrwt>
<pdfrwt beam="2">  1       21 0.93747132E-01 0.25347703E+03</pdfrwt>
<totfact> 0.21426838E+04</totfact>
</mgrwt>
</event>
<event>
 4    1  0.4327903E+000  0.1900255E+03  0.7546771E-02  0.1158438E+00
         21   -1    0    0  501  502  0.00000000000E+00  0.00000000000E+00  0.11949114705E+03  0.11949114705E+03  0.00000000000E+00 0.  1.
         21   -1    0    0  502  503 -0.00000000000E+00 -0.00000000000E+00 -0.32535783345E+03  0.32535783345E+03  0.00000000000E+00 0.  1.
          6    1    1    2  501    0 -0.27426656466E+02 -0.73678264170E+02 -0.43587341589E+02  0.19496041763E+03  0.17300000000E+03 0.  1.
         -6    1    1    2    0  503  0.27426656466E+02  0.73678264170E+02 -0.16227934481E+03  0.24988856286E+03  0.17300000000E+03 0.  1.
<mgrwt>
<rscale>  2 0.19002555E+03</rscale>
<asrwt>0</asrwt>
<pdfrwt beam="1">  1       21 0.18383253E-01 0.19002555E+03</pdfrwt>
<pdfrwt beam="2">  1       21 0.50055052E-01 0.19002555E+03</pdfrwt>
<totfact> 0.10275744E+05</totfact>
</mgrwt>
</event>
<event>
 4    1  0.4327903E+000  0.1786082E+03  0.7546771E-02  0.1169157E+00
         21   -1    0    0  501  502  0.00000000000E+00  0.00000000000E+00  0.53727637357E+03  0.53727637357E+03  0.00000000000E+00 0. -1.
         21   -1    0    0  502  503 -0.00000000000E+00 -0.00000000000E+00 -0.98470434604E+02  0.98470434604E+02  0.00000000000E+00 0. -1.
          6    1    1    2  501    0  0.29180771354E+01  0.44310010146E+02  0.41969477285E+03  0.45611905741E+03  0.17300000000E+03 0. -1.
         -6    1    1    2    0  503 -0.29180771354E+01 -0.44310010146E+02  0.19111166112E+02  0.17962775076E+03  0.17300000000E+03 0. -1.
<mgrwt>
<rscale>  2 0.17860821E+03</rscale>
<asrwt>0</asrwt>
<pdfrwt beam="1">  1       21 0.82657902E-01 0.17860821E+03</pdfrwt>
<pdfrwt beam="2">  1       21 0.15149298E-01 0.17860821E+03</pdfrwt>
<totfact> 0.49541975E+04</totfact>
</mgrwt>
</event>
<event>
 4    1  0.4327903E+000  0.2202149E+03  0.7546771E-02  0.1133723E+00
         21   -1    0    0  501  502  0.00000000000E+00  0.00000000000E+00  0.70562514008E+03  0.70562514008E+03  0.00000000000E+00 0. -1.
         21   -1    0    0  502  503 -0.00000000000E+00 -0.00000000000E+00 -0.79598402039E+02  0.79598402039E+02  0.00000000000E+00 0.  1.
          6    1    1    2  501    0 -0.53105203745E+02 -0.12548077382E+03  0.16790925456E+03  0.27692617252E+03  0.17300000000E+03 0.  1.
         -6    1    1    2    0  503  0.53105203745E+02  0.12548077382E+03  0.45811748349E+03  0.50829736960E+03  0.17300000000E+03 0. -1.
<mgrwt>
<rscale>  2 0.22021487E+03</rscale>
<asrwt>0</asrwt>
<pdfrwt beam="1">  1       21 0.10855771E+00 0.22021487E+03</pdfrwt>
<pdfrwt beam="2">  1       21 0.12245908E-01 0.22021487E+03</pdfrwt>
<totfact> 0.37595826E+04</totfact>
</mgrwt>
</event>
<event>
 4    1  0.4327903E+000  0.2094933E+03  0.7546771E-02  0.1141968E+00
         21   -1    0    0  503  502  0.00000000000E+00  0.00000000000E+00  0.44685605421E+03  0.44685605421E+03  0.00000000000E+00 0. -1.
         21   -1    0    0  501  503 -0.00000000000E+00 -0.00000000000E+00 -0.98318592521E+02  0.98318592521E+02  0.00000000000E+00 0. -1.
          6    1    1    2  501    0 -0.25478071260E+02 -0.11536589951E+03  0.18316875602E+03  0.27827722880E+03  0.17300000000E+03 0. -1.
         -6    1    1    2    0  502  0.25478071260E+02  0.11536589951E+03  0.16536870567E+03  0.26689741794E+03  0.17300000000E+03 0. -1.
<mgrwt>
<rscale>  2 0.20949325E+03</rscale>
<asrwt>0</asrwt>
<pdfrwt beam="1">  1       21 0.68747084E-01 0.20949325E+03</pdfrwt>
<pdfrwt beam="2">  1       21 0.15125938E-01 0.20949325E+03</pdfrwt>
<totfact> 0.73936078E+04</totfact>
</mgrwt>
</event>
<event>
 4    1  0.4327903E+000  0.1774168E+03  0.7546771E-02  0.1170327E+00
         21   -1    0    0  503  502  0.00000000000E+00  0.00000000000E+00  0.74935063005E+03  0.74935063005E+03  0.00000000000E+00 0.  1.
         21   -1    0    0  501  503 -0.00000000000E+00 -0.00000000000E+00 -0.42914925361E+02  0.42914925361E+02  0.00000000000E+00 0.  1.
          6    1    1    2  501    0 -0.18898559067E+02 -0.34504453501E+02  0.29554609894E+03  0.34470887636E+03  0.17300000000E+03 0.  1.
         -6    1    1    2    0  502  0.18898559067E+02  0.34504453501E+02  0.41088960575E+03  0.44755667905E+03  0.17300000000E+03 0.  1.
<mgrwt>
<rscale>  2 0.17741678E+03</rscale>
<asrwt>0</asrwt>
<pdfrwt beam="1">  1       21 0.11528470E+00 0.17741678E+03</pdfrwt>
<pdfrwt beam="2">  1       21 0.66022968E-02 0.17741678E+03</pdfrwt>
<totfact> 0.98146000E+04</totfact>
</mgrwt>
</event>
<event>
 4    1  0.4327903E+000  0.3148435E+03  0.7546771E-02  0.1078047E+00
         21   -1    0    0  503  502  0.00000000000E+00  0.00000000000E+00  0.38859714210E+03  0.38859714210E+03  0.00000000000E+00 0. -1.
         21   -1    0    0  501  503 -0.00000000000E+00 -0.00000000000E+00 -0.38495254529E+03  0.38495254529E+03  0.00000000000E+00 0. -1.
          6    1    1    2  501    0  0.43434111076E+02 -0.25944341995E+03 -0.22282446667E+03  0.38571641539E+03  0.17300000000E+03 0. -1.
         -6    1    1    2    0  502 -0.43434111076E+02  0.25944341995E+03  0.22646906347E+03  0.38783327200E+03  0.17300000000E+03 0. -1.
<mgrwt>
<rscale>  2 0.31484347E+03</rscale>
<asrwt>0</asrwt>
<pdfrwt beam="1">  1       21 0.59784176E-01 0.31484347E+03</pdfrwt>
<pdfrwt beam="2">  1       21 0.59223469E-01 0.31484347E+03</pdfrwt>
<totfact> 0.64748503E+03</totfact>
</mgrwt>
</event>
<event>
 4    1  0.4327903E+000  0.1865445E+03  0.7546771E-02  0.1161615E+00
         21   -1    0    0  503  502  0.00000000000E+00  0.00000000000E+00  0.55790845659E+02  0.55790845659E+02  0.00000000000E+00 0. -1.
         21   -1    0    0  501  503 -0.00000000000E+00 -0.00000000000E+00 -0.73761570941E+03  0.73761570941E+03  0.00000000000E+00 0. -1.
          6    1    1    2  501    0  0.46081028113E+02 -0.52406071032E+02 -0.49678529673E+03  0.53065477335E+03  0.17300000000E+03 0. -1.
         -6    1    1    2    0  502 -0.46081028113E+02  0.52406071032E+02 -0.18503956703E+03  0.26275178172E+03  0.17300000000E+03 0. -1.
<mgrwt>
<rscale>  2 0.18654452E+03</rscale>
<asrwt>0</asrwt>
<pdfrwt beam="1">  1       21 0.85832072E-02 0.18654452E+03</pdfrwt>
<pdfrwt beam="2">  1       21 0.11347934E+00 0.18654452E+03</pdfrwt>
<totfact> 0.64463442E+04</totfact>
</mgrwt>
</event>
<event>
 4    1  0.4327903E+000  0.1990567E+03  0.7546771E-02  0.1150537E+00
         21   -1    0    0  501  502  0.00000000000E+00  0.00000000000E+00  0.16096283638E+03  0.16096283638E+03  0.00000000000E+00 0. -1.
         21   -1    0    0  502  503 -0.00000000000E+00 -0.00000000000E+00 -0.35861602389E+03  0.35861602389E+03  0.00000000000E+00 0.  1.
          6    1    1    2  501    0 -0.49692830663E+02  0.85001211603E+02  0.46647726985E+02  0.20444948967E+03  0.17300000000E+03 0. -1.
         -6    1    1    2    0  503  0.49692830663E+02 -0.85001211603E+02 -0.24430091449E+03  0.31512937060E+03  0.17300000000E+03 0.  1.
<mgrwt>
<rscale>  2 0.19905673E+03</rscale>
<asrwt>0</asrwt>
<pdfrwt beam="1">  1       21 0.24763513E-01 0.19905673E+03</pdfrwt>
<pdfrwt beam="2">  1       21 0.55171696E-01 0.19905673E+03</pdfrwt>
<totfact> 0.47642447E+04</totfact>
</mgrwt>
</event>
<event>
 4    1  0.4327903E+000  0.1980909E+03  0.7546771E-02  0.1151360E+00
         21   -1    0    0  501  502  0.00000000000E+00  0.00000000000E+00  0.18414046867E+03  0.18414046867E+03  0.00000000000E+00 0. -1.
         21   -1    0    0  502  503 -0.00000000000E+00 -0.00000000000E+00 -0.21448784218E+03  0.21448784218E+03  0.00000000000E+00 0. -1.
          6    1    1    2  501    0 -0.43985810274E+02  0.85885164593E+02 -0.31216455234E+02  0.20053548334E+03  0.17300000000E+03 0. -1.
         -6    1    1    2    0  503  0.43985810274E+02 -0.85885164593E+02  0.86908172382E+00  0.19809282750E+03  0.17300000000E+03 0. -1.
<mgrwt>
<rscale>  2 0.19809092E+03</rscale>
<asrwt>0</asrwt>
<pdfrwt beam="1">  1       21 0.28329303E-01 0.19809092E+03</pdfrwt>
<pdfrwt beam="2">  1       21 0.32998130E-01 0.19809092E+03</pdfrwt>
<totfact> 0.10508651E+05</totfact>
</mgrwt>
</event>
<event>
 4    1  0.4327903E+000  0.1924090E+03  0.7546771E-02  0.1156306E+00
         21   -1    0    0  503  502  0.00000000000E+00  0.00000000000E+00  0.91393217806E+02  0.91393217806E+02  0.00000000000E+00 0.  1.
         21   -1    0    0  501  503 -0.00000000000E+00 -0.00000000000E+00 -0.51779322285E+03  0.51779322285E+03  0.00000000000E+00 0.  1.
          6    1    1    2  501    0 -0.60201024518E+02 -0.58890205294E+02 -0.35531396825E+03  0.40406588036E+03  0.17300000000E+03 0.  1.
         -6    1    1    2    0  502  0.60201024518E+02  0.58890205294E+02 -0.71086036796E+02  0.20512056031E+03  0.17300000000E+03 0.  1.
<mgrwt>
<rscale>  2 0.19240899E+03</rscale>
<asrwt>0</asrwt>
<pdfrwt beam="1">  1       21 0.14060495E-01 0.19240899E+03</pdfrwt>
<pdfrwt beam="2">  1       21 0.79660496E-01 0.19240899E+03</pdfrwt>
<totfact> 0.61274238E+04</totfact>
</mgrwt>
</event>
<event>
 4    1  0.4327903E+000  0.2662955E+03  0.7546771E-02  0.1103419E+00
         21   -1    0    0  503  502  0.00000000000E+00  0.00000000000E+00  0.73673622793E+03  0.73673622793E+03  0.00000000000E+00 0.  1.
         21   -1    0    0  501  503 -0.00000000000E+00 -0.00000000000E+00 -0.20514653264E+03  0.20514653264E+03  0.00000000000E+00 0.  1.
          6    1    1    2  501    0  0.19313008447E+03  0.60704835036E+02 -0.77316570617E+02  0.27729255060E+03  0.17300000000E+03 0.  1.
         -6    1    1    2    0  502 -0.19313008447E+03 -0.60704835036E+02  0.60890626591E+03  0.66459020997E+03  0.17300000000E+03 0.  1.
<mgrwt>
<rscale>  2 0.26629552E+03</rscale>
<asrwt>0</asrwt>
<pdfrwt beam="1">  1       21 0.11334403E+00 0.26629552E+03</pdfrwt>
<pdfrwt beam="2">  1       21 0.31561005E-01 0.26629552E+03</pdfrwt>
<totfact> 0.55723020E+03</totfact>
</mgrwt>
</event>
<event>
 4    1  0.4327903E+000  0.1978969E+03  0.7546771E-02  0.1151526E+00
         21   -1    0    0  501  502  0.00000000000E+00  0.00000000000E+00  0.27032844668E+03  0.27032844668E+03  0.00000000000E+00 0. -1.
         21   -1    0    0  502  503 -0.00000000000E+00 -0.00000000000E+00 -0.23958708685E+03  0.23958708685E+03  0.00000000000E+00 0. -1.
          6    1    1    2  501    0 -0.91134115042E+02  0.30475237929E+02  0.17567487945E+03  0.26462205184E+03  0.17300000000E+03 0. -1.
         -6    1    1    2    0  503  0.91134115042E+02 -0.30475237929E+02 -0.14493351961E+03  0.24529348169E+03  0.17300000000E+03 0. -1.
<mgrwt>
<rscale>  2 0.19789686E+03</rscale>
<asrwt>0</asrwt>
<pdfrwt beam="1">  1       21 0.41588992E-01 0.19789686E+03</pdfrwt>
<pdfrwt beam="2">  1       21 0.36859552E-01 0.19789686E+03</pdfrwt>
<totfact> 0.39407143E+04</totfact>
</mgrwt>
</event>
<event>
 4    1  0.4327903E+000  0.1897854E+03  0.7546771E-02  0.1158655E+00
         21   -1    0    0  501  502  0.00000000000E+00  0.00000000000E+00  0.14805113021E+04  0.14805113021E+04  0.00000000000E+00 0. -1.
         21   -1    0    0  502  503 -0.00000000000E+00 -0.00000000000E+00 -0.51972508300E+02  0.51972508300E+02  0.00000000000E+00 0. -1.
          6    1    1    2  501    0 -0.97618835270E+01  0.77422232796E+02  0.12731000489E+04  0.12871682995E+04  0.17300000000E+03 0. -1.
         -6    1    1    2    0  503  0.97618835270E+01 -0.77422232796E+02  0.15543874482E+03  0.24531551091E+03  0.17300000000E+03 0. -1.
<mgrwt>
<rscale>  2 0.18978540E+03</rscale>
<asrwt>0</asrwt>
<pdfrwt beam="1">  1       21 0.22777094E+00 0.18978540E+03</pdfrwt>
<pdfrwt beam="2">  1       21 0.79957716E-02 0.18978540E+03</pdfrwt>
<totfact> 0.10863296E+04</totfact>
</mgrwt>
</event>
<event>
 4    1  0.4327903E+000  0.2317332E+03  0.7546771E-02  0.1125426E+00
         21   -1    0    0  501  502  0.00000000000E+00  0.00000000000E+00  0.36261160942E+03  0.36261160942E+03  0.00000000000E+00 0. -1.
         21   -1    0    0  502  503 -0.00000000000E+00 -0.00000000000E+00 -0.15222644431E+03  0.15222644431E+03  0.00000000000E+00 0. -1.
          6    1    1    2  501    0 -0.12376554575E+03 -0.91942097015E+02  0.14761046320E+03  0.27475281320E+03  0.17300000000E+03 0.  1.
         -6    1    1    2    0  503  0.12376554575E+03  0.91942097015E+02  0.62774701908E+02  0.24008524052E+03  0.17300000000E+03 0.  1.
<mgrwt>
<rscale>  2 0.23173316E+03</rscale>
<asrwt>0</asrwt>
<pdfrwt beam="1">  1       21 0.55786401E-01 0.23173316E+03</pdfrwt>
<pdfrwt beam="2">  1       21 0.23419453E-01 0.23173316E+03</pdfrwt>
<totfact> 0.50983255E+04</totfact>
</mgrwt>
</event>
<event>
 4    1  0.4327903E+000  0.1981421E+03  0.7546771E-02  0.1151316E+00
         21   -1    0    0  501  502  0.00000000000E+00  0.00000000000E+00  0.12342416762E+03  0.12342416762E+03  0.00000000000E+00 0.  1.
         21   -1    0    0  502  503 -0.00000000000E+00 -0.00000000000E+00 -0.31994180958E+03  0.31994180958E+03  0.00000000000E+00 0. -1.
          6    1    1    2  501    0 -0.24997957662E+01  0.96566296081E+02 -0.81404741824E+02  0.21421258252E+03  0.17300000000E+03 0. -1.
         -6    1    1    2    0  503  0.24997957662E+01 -0.96566296081E+02 -0.11511290013E+03  0.22915339468E+03  0.17300000000E+03 0. -1.
<mgrwt>
<rscale>  2 0.19814212E+03</rscale>
<asrwt>0</asrwt>
<pdfrwt beam="1">  1       21 0.18988334E-01 0.19814212E+03</pdfrwt>
<pdfrwt beam="2">  1       21 0.49221817E-01 0.19814212E+03</pdfrwt>
<totfact> 0.99885402E+04</totfact>
</mgrwt>
</event>
<event>
 4    1  0.4327903E+000  0.2499120E+03  0.7546771E-02  0.1113360E+00
         21   -1    0    0  501  502  0.00000000000E+00  0.00000000000E+00  0.66513258743E+03  0.66513258743E+03  0.00000000000E+00 0. -1.
         21   -1    0    0  502  503 -0.00000000000E+00 -0.00000000000E+00 -0.96202828553E+02  0.96202828553E+02  0.00000000000E+00 0. -1.
          6    1    1    2  501    0  0.12621984616E+03  0.12882367255E+03  0.34335975404E+03  0.42467859478E+03  0.17300000000E+03 0. -1.
         -6    1    1    2    0  503 -0.12621984616E+03 -0.12882367255E+03  0.22557000484E+03  0.33665682120E+03  0.17300000000E+03 0. -1.
<mgrwt>
<rscale>  2 0.24991196E+03</rscale>
<asrwt>0</asrwt>
<pdfrwt beam="1">  1       21 0.10232809E+00 0.24991196E+03</pdfrwt>
<pdfrwt beam="2">  1       21 0.14800436E-01 0.24991196E+03</pdfrwt>
<totfact> 0.30318869E+04</totfact>
</mgrwt>
</event>
<event>
 4    1  0.4327903E+000  0.1971325E+03  0.7546771E-02  0.1152181E+00
         21   -1    0    0  501  502  0.00000000000E+00  0.00000000000E+00  0.31859855718E+04  0.31859855718E+04  0.00000000000E+00 0. -1.
         21   -1    0    0  502  503 -0.00000000000E+00 -0.00000000000E+00 -0.38434589466E+02  0.38434589466E+02  0.00000000000E+00 0.  1.
          6    1    1    2  501    0  0.81318733214E+02  0.48160872192E+02  0.29058176040E+04  0.29124967216E+04  0.17300000000E+03 0. -1.
         -6    1    1    2    0  503 -0.81318733214E+02 -0.48160872192E+02  0.24173337839E+03  0.31192343966E+03  0.17300000000E+03 0.  1.
<mgrwt>
<rscale>  2 0.19713246E+03</rscale>
<asrwt>0</asrwt>
<pdfrwt beam="1">  1       21 0.49015142E+00 0.19713246E+03</pdfrwt>
<pdfrwt beam="2">  1       21 0.59130163E-02 0.19713246E+03</pdfrwt>
<totfact> 0.44531132E+02</totfact>
</mgrwt>
</event>
<event>
 4    1  0.4327903E+000  0.1755580E+03  0.7546771E-02  0.1172173E+00
         21   -1    0    0  501  502  0.00000000000E+00  0.00000000000E+00  0.15032412278E+03  0.15032412278E+03  0.00000000000E+00 0. -1.
         21   -1    0    0  502  503 -0.00000000000E+00 -0.00000000000E+00 -0.43796457199E+03  0.43796457199E+03  0.00000000000E+00 0. -1.
          6    1    1    2  501    0  0.17024481241E+02 -0.24531507022E+02  0.70695938507E+02  0.18925787571E+03  0.17300000000E+03 0. -1.
         -6    1    1    2    0  503 -0.17024481241E+02  0.24531507022E+02 -0.35833638772E+03  0.39903081906E+03  0.17300000000E+03 0. -1.
<mgrwt>
<rscale>  2 0.17555805E+03</rscale>
<asrwt>0</asrwt>
<pdfrwt beam="1">  1       21 0.23126788E-01 0.17555805E+03</pdfrwt>
<pdfrwt beam="2">  1       21 0.67379165E-01 0.17555805E+03</pdfrwt>
<totfact> 0.35712798E+04</totfact>
</mgrwt>
</event>
<event>
 4    1  0.4327903E+000  0.1754417E+03  0.7546771E-02  0.1172289E+00
         21   -1    0    0  501  502  0.00000000000E+00  0.00000000000E+00  0.46550201231E+03  0.46550201231E+03  0.00000000000E+00 0.  1.
         21   -1    0    0  502  503 -0.00000000000E+00 -0.00000000000E+00 -0.16598219607E+03  0.16598219607E+03  0.00000000000E+00 0.  1.
          6    1    1    2  501    0 -0.16874171179E+02 -0.23791795967E+02  0.39466543844E+03  0.43190345623E+03  0.17300000000E+03 0.  1.
         -6    1    1    2    0  503  0.16874171179E+02  0.23791795967E+02 -0.95145622192E+02  0.19958075215E+03  0.17300000000E+03 0.  1.
<mgrwt>
<rscale>  2 0.17544169E+03</rscale>
<asrwt>0</asrwt>
<pdfrwt beam="1">  1       21 0.71615694E-01 0.17544169E+03</pdfrwt>
<pdfrwt beam="2">  1       21 0.25535723E-01 0.17544169E+03</pdfrwt>
<totfact> 0.25879781E+04</totfact>
</mgrwt>
</event>
<event>
 4    1  0.4327903E+000  0.2704977E+03  0.7546771E-02  0.1100995E+00
         21   -1    0    0  503  502  0.00000000000E+00  0.00000000000E+00  0.38270152395E+03  0.38270152395E+03  0.00000000000E+00 0.  1.
         21   -1    0    0  501  503 -0.00000000000E+00 -0.00000000000E+00 -0.19441684293E+03  0.19441684293E+03  0.00000000000E+00 0. -1.
          6    1    1    2  501    0 -0.14072354762E+03  0.15309103963E+03  0.56971034360E+02  0.27643205680E+03  0.17300000000E+03 0. -1.
         -6    1    1    2    0  502  0.14072354762E+03 -0.15309103963E+03  0.13131364667E+03  0.30068631008E+03  0.17300000000E+03 0.  1.
<mgrwt>
<rscale>  2 0.27049766E+03</rscale>
<asrwt>0</asrwt>
<pdfrwt beam="1">  1       21 0.58877157E-01 0.27049766E+03</pdfrwt>
<pdfrwt beam="2">  1       21 0.29910284E-01 0.27049766E+03</pdfrwt>
<totfact> 0.27841962E+04</totfact>
</mgrwt>
</event>
<event>
 4    1  0.4327903E+000  0.1751440E+03  0.7546771E-02  0.1172587E+00
         21   -1    0    0  501  502  0.00000000000E+00  0.00000000000E+00  0.85316463908E+03  0.85316463908E+03  0.00000000000E+00 0. -1.
         21   -1    0    0  502  503 -0.00000000000E+00 -0.00000000000E+00 -0.48917170483E+02  0.48917170483E+02  0.00000000000E+00 0. -1.
          6    1    1    2  501    0 -0.27014129676E+02  0.40823683084E+01  0.63430448176E+03  0.65804073165E+03  0.17300000000E+03 0. -1.
         -6    1    1    2    0  503  0.27014129676E+02 -0.40823683084E+01  0.16994298684E+03  0.24404107792E+03  0.17300000000E+03 0. -1.
<mgrwt>
<rscale>  2 0.17514402E+03</rscale>
<asrwt>0</asrwt>
<pdfrwt beam="1">  1       21 0.13125609E+00 0.17514402E+03</pdfrwt>
<pdfrwt beam="2">  1       21 0.75257191E-02 0.17514402E+03</pdfrwt>
<totfact> 0.56816765E+04</totfact>
</mgrwt>
</event>
<event>
 4    1  0.4327903E+000  0.1736632E+03  0.7546771E-02  0.1174081E+00
         21   -1    0    0  503  502  0.00000000000E+00  0.00000000000E+00  0.88749817102E+02  0.88749817102E+02  0.00000000000E+00 0.  1.
         21   -1    0    0  501  503 -0.00000000000E+00 -0.00000000000E+00 -0.34823120678E+03  0.34823120678E+03  0.00000000000E+00 0.  1.
          6    1    1    2  501    0 -0.15055110471E+02 -0.18074942823E+01 -0.95782908486E+02  0.19832621850E+03  0.17300000000E+03 0.  1.
         -6    1    1    2    0  502  0.15055110471E+02  0.18074942823E+01 -0.16369848119E+03  0.23865480538E+03  0.17300000000E+03 0.  1.
<mgrwt>
<rscale>  2 0.17366325E+03</rscale>
<asrwt>0</asrwt>
<pdfrwt beam="1">  1       21 0.13653818E-01 0.17366325E+03</pdfrwt>
<pdfrwt beam="2">  1       21 0.53574032E-01 0.17366325E+03</pdfrwt>
<totfact> 0.15435084E+05</totfact>
</mgrwt>
</event>
<event>
 4    1  0.4327903E+000  0.2709782E+03  0.7546771E-02  0.1100721E+00
         21   -1    0    0  503  502  0.00000000000E+00  0.00000000000E+00  0.18846902376E+03  0.18846902376E+03  0.00000000000E+00 0. -1.
         21   -1    0    0  501  503 -0.00000000000E+00 -0.00000000000E+00 -0.75493254873E+03  0.75493254873E+03  0.00000000000E+00 0. -1.
          6    1    1    2  501    0 -0.20041380915E+03  0.57744883276E+02 -0.61136600422E+03  0.66872831371E+03  0.17300000000E+03 0. -1.
         -6    1    1    2    0  502  0.20041380915E+03 -0.57744883276E+02  0.44902479248E+02  0.27467325877E+03  0.17300000000E+03 0. -1.
<mgrwt>
<rscale>  2 0.27097817E+03</rscale>
<asrwt>0</asrwt>
<pdfrwt beam="1">  1       21 0.28995234E-01 0.27097817E+03</pdfrwt>
<pdfrwt beam="2">  1       21 0.11614347E+00 0.27097817E+03</pdfrwt>
<totfact> 0.61826723E+03</totfact>
</mgrwt>
</event>
<event>
 4    1  0.4327903E+000  0.1835222E+03  0.7546771E-02  0.1164437E+00
         21   -1    0    0  503  502  0.00000000000E+00  0.00000000000E+00  0.34495512158E+03  0.34495512158E+03  0.00000000000E+00 0. -1.
         21   -1    0    0  501  503 -0.00000000000E+00 -0.00000000000E+00 -0.17343036590E+03  0.17343036590E+03  0.00000000000E+00 0. -1.
          6    1    1    2  501    0  0.56941823580E+02  0.22561284018E+02 -0.85584371271E+02  0.20249708002E+03  0.17300000000E+03 0. -1.
         -6    1    1    2    0  502 -0.56941823580E+02 -0.22561284018E+02  0.25710912695E+03  0.31588840747E+03  0.17300000000E+03 0. -1.
<mgrwt>
<rscale>  2 0.18352216E+03</rscale>
<asrwt>0</asrwt>
<pdfrwt beam="1">  1       21 0.53070019E-01 0.18352216E+03</pdfrwt>
<pdfrwt beam="2">  1       21 0.26681595E-01 0.18352216E+03</pdfrwt>
<totfact> 0.45169646E+04</totfact>
</mgrwt>
</event>
<event>
 4    1  0.4327903E+000  0.2471155E+03  0.7546771E-02  0.1115141E+00
         21   -1    0    0  503  502  0.00000000000E+00  0.00000000000E+00  0.78898651371E+03  0.78898651371E+03  0.00000000000E+00 0. -1.
         21   -1    0    0  501  503 -0.00000000000E+00 -0.00000000000E+00 -0.31500946403E+03  0.31500946403E+03  0.00000000000E+00 0.  1.
          6    1    1    2  501    0 -0.10753606456E+03 -0.13990377720E+03 -0.24242389509E+03  0.34617252486E+03  0.17300000000E+03 0.  1.
         -6    1    1    2    0  502  0.10753606456E+03  0.13990377720E+03  0.71640094478E+03  0.75782345288E+03  0.17300000000E+03 0. -1.
<mgrwt>
<rscale>  2 0.24711550E+03</rscale>
<asrwt>0</asrwt>
<pdfrwt beam="1">  1       21 0.12138254E+00 0.24711550E+03</pdfrwt>
<pdfrwt beam="2">  1       21 0.48462995E-01 0.24711550E+03</pdfrwt>
<totfact> 0.19943216E+03</totfact>
</mgrwt>
</event>
<event>
 4    1  0.4327903E+000  0.1843113E+03  0.7546771E-02  0.1163695E+00
         21   -1    0    0  503  502  0.00000000000E+00  0.00000000000E+00  0.13918792710E+04  0.13918792710E+04  0.00000000000E+00 0.  1.
         21   -1    0    0  501  503 -0.00000000000E+00 -0.00000000000E+00 -0.32484955895E+02  0.32484955895E+02  0.00000000000E+00 0.  1.
          6    1    1    2  501    0  0.62342530957E+02  0.12453185708E+02  0.32454168437E+03  0.37322644319E+03  0.17300000000E+03 0.  1.
         -6    1    1    2    0  502 -0.62342530957E+02 -0.12453185708E+02  0.10348526308E+04  0.10511377837E+04  0.17300000000E+03 0.  1.
<mgrwt>
<rscale>  2 0.18431135E+03</rscale>
<asrwt>0</asrwt>
<pdfrwt beam="1">  1       21 0.21413523E+00 0.18431135E+03</pdfrwt>
<pdfrwt beam="2">  1       21 0.49976866E-02 0.18431135E+03</pdfrwt>
<totfact> 0.29620690E+04</totfact>
</mgrwt>
</event>
<event>
 4    1  0.4327903E+000  0.2116355E+03  0.7546771E-02  0.1140277E+00
         21   -1    0    0  501  502  0.00000000000E+00  0.00000000000E+00  0.29253981911E+03  0.29253981911E+03  0.00000000000E+00 0. -1.
         21   -1    0    0  502  503 -0.00000000000E+00 -0.00000000000E+00 -0.10312081790E+04  0.10312081790E+04  0.00000000000E+00 0. -1.
          6    1    1    2  501    0 -0.11510976389E+03 -0.40128908607E+02  0.24143158525E+03  0.32105886907E+03  0.17300000000E+03 0. -1.
         -6    1    1    2    0  503  0.11510976389E+03  0.40128908607E+02 -0.98009994512E+03  0.10026891290E+04  0.17300000000E+03 0. -1.
<mgrwt>
<rscale>  2 0.21163551E+03</rscale>
<asrwt>0</asrwt>
<pdfrwt beam="1">  1       21 0.45006127E-01 0.21163551E+03</pdfrwt>
<pdfrwt beam="2">  1       21 0.15864741E+00 0.21163551E+03</pdfrwt>
<totfact> 0.11968424E+03</totfact>
</mgrwt>
</event>
<event>
 4    1  0.4327903E+000  0.2060076E+03  0.7546771E-02  0.1144767E+00
         21   -1    0    0  503  502  0.00000000000E+00  0.00000000000E+00  0.11007643927E+04  0.11007643927E+04  0.00000000000E+00 0.  1.
         21   -1    0    0  501  503 -0.00000000000E+00 -0.00000000000E+00 -0.46701850441E+02  0.46701850441E+02  0.00000000000E+00 0. -1.
          6    1    1    2  501    0 -0.10395510286E+03  0.41273267765E+02  0.28739214427E+03  0.35360060892E+03  0.17300000000E+03 0. -1.
         -6    1    1    2    0  502  0.10395510286E+03 -0.41273267765E+02  0.76667039801E+03  0.79386563424E+03  0.17300000000E+03 0.  1.
<mgrwt>
<rscale>  2 0.20600764E+03</rscale>
<asrwt>0</asrwt>
<pdfrwt beam="1">  1       21 0.16934835E+00 0.20600764E+03</pdfrwt>
<pdfrwt beam="2">  1       21 0.71849009E-02 0.20600764E+03</pdfrwt>
<totfact> 0.30913114E+04</totfact>
</mgrwt>
</event>
<event>
 4    1  0.4327903E+000  0.2839512E+03  0.7546771E-02  0.1093550E+00
         21   -1    0    0  503  502  0.00000000000E+00  0.00000000000E+00  0.75214701751E+02  0.75214701751E+02  0.00000000000E+00 0.  1.
         21   -1    0    0  501  503 -0.00000000000E+00 -0.00000000000E+00 -0.10764994781E+04  0.10764994781E+04  0.00000000000E+00 0. -1.
          6    1    1    2  501    0 -0.20857351641E+03 -0.84831310685E+02 -0.46330853396E+03  0.54339954054E+03  0.17300000000E+03 0.  1.
         -6    1    1    2    0  502  0.20857351641E+03  0.84831310685E+02 -0.53797624237E+03  0.60831463929E+03  0.17300000000E+03 0. -1.
<mgrwt>
<rscale>  2 0.28395116E+03</rscale>
<asrwt>0</asrwt>
<pdfrwt beam="1">  1       21 0.11571493E-01 0.28395116E+03</pdfrwt>
<pdfrwt beam="2">  1       21 0.16561530E+00 0.28395116E+03</pdfrwt>
<totfact> 0.13554683E+04</totfact>
</mgrwt>
</event>
<event>
 4    1  0.4327903E+000  0.2561175E+03  0.7546771E-02  0.1109499E+00
         21   -1    0    0  503  502  0.00000000000E+00  0.00000000000E+00  0.41468627491E+03  0.41468627491E+03  0.00000000000E+00 0.  1.
         21   -1    0    0  501  503 -0.00000000000E+00 -0.00000000000E+00 -0.17862029724E+03  0.17862029724E+03  0.00000000000E+00 0.  1.
          6    1    1    2  501    0 -0.14586883446E+03  0.11995616194E+03  0.17687327402E+02  0.25672755833E+03  0.17300000000E+03 0.  1.
         -6    1    1    2    0  502  0.14586883446E+03 -0.11995616194E+03  0.21837865027E+03  0.33657901382E+03  0.17300000000E+03 0.  1.
<mgrwt>
<rscale>  2 0.25611755E+03</rscale>
<asrwt>0</asrwt>
<pdfrwt beam="1">  1       21 0.63797888E-01 0.25611755E+03</pdfrwt>
<pdfrwt beam="2">  1       21 0.27480046E-01 0.25611755E+03</pdfrwt>
<totfact> 0.27768624E+04</totfact>
</mgrwt>
</event>
<event>
 4    1  0.4327903E+000  0.2621072E+03  0.7546771E-02  0.1105884E+00
         21   -1    0    0  503  502  0.00000000000E+00  0.00000000000E+00  0.82486437402E+02  0.82486437402E+02  0.00000000000E+00 0.  1.
         21   -1    0    0  501  503 -0.00000000000E+00 -0.00000000000E+00 -0.90905768426E+03  0.90905768426E+03  0.00000000000E+00 0. -1.
          6    1    1    2  501    0 -0.74392786178E+02 -0.18230985513E+03 -0.55681453712E+03  0.61542066805E+03  0.17300000000E+03 0. -1.
         -6    1    1    2    0  502  0.74392786178E+02  0.18230985513E+03 -0.26975670974E+03  0.37612345362E+03  0.17300000000E+03 0.  1.
<mgrwt>
<rscale>  2 0.26210717E+03</rscale>
<asrwt>0</asrwt>
<pdfrwt beam="1">  1       21 0.12690221E-01 0.26210717E+03</pdfrwt>
<pdfrwt beam="2">  1       21 0.13985503E+00 0.26210717E+03</pdfrwt>
<totfact> 0.18277446E+04</totfact>
</mgrwt>
</event>
<event>
 4    1  0.4327903E+000  0.2771558E+03  0.7546771E-02  0.1097253E+00
         21   -1    0    0  503  502  0.00000000000E+00  0.00000000000E+00  0.79058128223E+02  0.79058128223E+02  0.00000000000E+00 0. -1.
         21   -1    0    0  501  503 -0.00000000000E+00 -0.00000000000E+00 -0.98355695118E+03  0.98355695118E+03  0.00000000000E+00 0. -1.
          6    1    1    2  501    0 -0.66003142007E+02 -0.20622788628E+03 -0.39374530268E+03  0.48150879454E+03  0.17300000000E+03 0. -1.
         -6    1    1    2    0  502  0.66003142007E+02  0.20622788628E+03 -0.51075352028E+03  0.58110628486E+03  0.17300000000E+03 0. -1.
<mgrwt>
<rscale>  2 0.27715583E+03</rscale>
<asrwt>0</asrwt>
<pdfrwt beam="1">  1       21 0.12162789E-01 0.27715583E+03</pdfrwt>
<pdfrwt beam="2">  1       21 0.15131646E+00 0.27715583E+03</pdfrwt>
<totfact> 0.15902026E+04</totfact>
</mgrwt>
</event>
<event>
 4    1  0.4327903E+000  0.1924152E+03  0.7546771E-02  0.1156301E+00
         21   -1    0    0  503  502  0.00000000000E+00  0.00000000000E+00  0.72509642548E+02  0.72509642548E+02  0.00000000000E+00 0. -1.
         21   -1    0    0  501  503 -0.00000000000E+00 -0.00000000000E+00 -0.60240990165E+03  0.60240990165E+03  0.00000000000E+00 0. -1.
          6    1    1    2  501    0 -0.79759857274E+02 -0.27073375755E+02 -0.39668928640E+03  0.44089226853E+03  0.17300000000E+03 0. -1.
         -6    1    1    2    0  502  0.79759857274E+02  0.27073375755E+02 -0.13321097270E+03  0.23402727567E+03  0.17300000000E+03 0. -1.
<mgrwt>
<rscale>  2 0.19241518E+03</rscale>
<asrwt>0</asrwt>
<pdfrwt beam="1">  1       21 0.11155329E-01 0.19241518E+03</pdfrwt>
<pdfrwt beam="2">  1       21 0.92678449E-01 0.19241518E+03</pdfrwt>
<totfact> 0.65614631E+04</totfact>
</mgrwt>
</event>
<event>
 4    1  0.4327903E+000  0.1825800E+03  0.7546771E-02  0.1165329E+00
         21   -1    0    0  501  502  0.00000000000E+00  0.00000000000E+00  0.10935773832E+03  0.10935773832E+03  0.00000000000E+00 0.  1.
         21   -1    0    0  502  503 -0.00000000000E+00 -0.00000000000E+00 -0.34516381383E+03  0.34516381383E+03  0.00000000000E+00 0.  1.
          6    1    1    2  501    0  0.39889940723E+02  0.42605895681E+02 -0.40215931466E+02  0.18695665503E+03  0.17300000000E+03 0.  1.
         -6    1    1    2    0  503 -0.39889940723E+02 -0.42605895681E+02 -0.19559014405E+03  0.26756489711E+03  0.17300000000E+03 0.  1.
<mgrwt>
<rscale>  2 0.18258004E+03</rscale>
<asrwt>0</asrwt>
<pdfrwt beam="1">  1       21 0.16824268E-01 0.18258004E+03</pdfrwt>
<pdfrwt beam="2">  1       21 0.53102124E-01 0.18258004E+03</pdfrwt>
<totfact> 0.10721253E+05</totfact>
</mgrwt>
</event>
<event>
 4    1  0.4327903E+000  0.1993523E+03  0.7546771E-02  0.1150287E+00
         21   -1    0    0  501  502  0.00000000000E+00  0.00000000000E+00  0.11585743240E+04  0.11585743240E+04  0.00000000000E+00 0. -1.
         21   -1    0    0  502  503 -0.00000000000E+00 -0.00000000000E+00 -0.36180530943E+02  0.36180530943E+02  0.00000000000E+00 0. -1.
          6    1    1    2  501    0 -0.63997721216E+02  0.75608496497E+02  0.42507536013E+03  0.46950017557E+03  0.17300000000E+03 0. -1.
         -6    1    1    2    0  503  0.63997721216E+02 -0.75608496497E+02  0.69731843291E+03  0.72525467937E+03  0.17300000000E+03 0. -1.
<mgrwt>
<rscale>  2 0.19935233E+03</rscale>
<asrwt>0</asrwt>
<pdfrwt beam="1">  1       21 0.17824217E+00 0.19935233E+03</pdfrwt>
<pdfrwt beam="2">  1       21 0.55662364E-02 0.19935233E+03</pdfrwt>
<totfact> 0.41749575E+04</totfact>
</mgrwt>
</event>
<event>
 4    1  0.4327903E+000  0.2656889E+03  0.7546771E-02  0.1103773E+00
         21   -1    0    0  501  502  0.00000000000E+00  0.00000000000E+00  0.57068184542E+03  0.57068184542E+03  0.00000000000E+00 0.  1.
         21   -1    0    0  502  503 -0.00000000000E+00 -0.00000000000E+00 -0.12831027132E+03  0.12831027132E+03  0.00000000000E+00 0.  1.
          6    1    1    2  501    0 -0.30981164845E+02 -0.19925298907E+03  0.28746881305E+03  0.39144463811E+03  0.17300000000E+03 0.  1.
         -6    1    1    2    0  503  0.30981164845E+02  0.19925298907E+03  0.15490276105E+03  0.30754747863E+03  0.17300000000E+03 0.  1.
<mgrwt>
<rscale>  2 0.26568889E+03</rscale>
<asrwt>0</asrwt>
<pdfrwt beam="1">  1       21 0.87797206E-01 0.26568889E+03</pdfrwt>
<pdfrwt beam="2">  1       21 0.19740042E-01 0.26568889E+03</pdfrwt>
<totfact> 0.25343676E+04</totfact>
</mgrwt>
</event>
<event>
 4    1  0.4327903E+000  0.2507869E+03  0.7546771E-02  0.1112809E+00
         21   -1    0    0  503  502  0.00000000000E+00  0.00000000000E+00  0.97523359219E+02  0.97523359219E+02  0.00000000000E+00 0.  1.
         21   -1    0    0  501  503 -0.00000000000E+00 -0.00000000000E+00 -0.76325245768E+03  0.76325245768E+03  0.00000000000E+00 0. -1.
          6    1    1    2  501    0  0.16780047221E+03  0.69340242096E+02 -0.50233384170E+03  0.56145645972E+03  0.17300000000E+03 0. -1.
         -6    1    1    2    0  502 -0.16780047221E+03 -0.69340242096E+02 -0.16339525676E+03  0.29931935718E+03  0.17300000000E+03 0.  1.
<mgrwt>
<rscale>  2 0.25078690E+03</rscale>
<asrwt>0</asrwt>
<pdfrwt beam="1">  1       21 0.15003594E-01 0.25078690E+03</pdfrwt>
<pdfrwt beam="2">  1       21 0.11742345E+00 0.25078690E+03</pdfrwt>
<totfact> 0.21134064E+04</totfact>
</mgrwt>
</event>
<event>
 4    1  0.4327903E+000  0.2876977E+03  0.7546771E-02  0.1091557E+00
         21   -1    0    0  503  502  0.00000000000E+00  0.00000000000E+00  0.70476814103E+02  0.70476814103E+02  0.00000000000E+00 0.  1.
         21   -1    0    0  501  503 -0.00000000000E+00 -0.00000000000E+00 -0.16216135653E+04  0.16216135653E+04  0.00000000000E+00 0.  1.
          6    1    1    2  501    0 -0.17470643927E+03 -0.14939420397E+03 -0.12198553668E+04  0.12533224182E+04  0.17300000000E+03 0.  1.
         -6    1    1    2    0  502  0.17470643927E+03  0.14939420397E+03 -0.33128138434E+03  0.43876796113E+03  0.17300000000E+03 0.  1.
<mgrwt>
<rscale>  2 0.28769770E+03</rscale>
<asrwt>0</asrwt>
<pdfrwt beam="1">  1       21 0.10842588E-01 0.28769770E+03</pdfrwt>
<pdfrwt beam="2">  1       21 0.24947899E+00 0.28769770E+03</pdfrwt>
<totfact> 0.43370770E+03</totfact>
</mgrwt>
</event>
<event>
 4    1  0.4327903E+000  0.2415242E+03  0.7546771E-02  0.1118782E+00
         21   -1    0    0  501  502  0.00000000000E+00  0.00000000000E+00  0.39034899793E+03  0.39034899793E+03  0.00000000000E+00 0.  1.
         21   -1    0    0  502  503 -0.00000000000E+00 -0.00000000000E+00 -0.34000967086E+03  0.34000967086E+03  0.00000000000E+00 0.  1.
          6    1    1    2  501    0  0.99135283467E+02  0.13629789227E+03  0.29856239642E+03  0.38402268738E+03  0.17300000000E+03 0.  1.
         -6    1    1    2    0  503 -0.99135283467E+02 -0.13629789227E+03 -0.24822306934E+03  0.34633598141E+03  0.17300000000E+03 0.  1.
<mgrwt>
<rscale>  2 0.24152416E+03</rscale>
<asrwt>0</asrwt>
<pdfrwt beam="1">  1       21 0.60053692E-01 0.24152416E+03</pdfrwt>
<pdfrwt beam="2">  1       21 0.52309180E-01 0.24152416E+03</pdfrwt>
<totfact> 0.86855069E+03</totfact>
</mgrwt>
</event>
<event>
 4    1  0.4327903E+000  0.1898706E+03  0.7546771E-02  0.1158578E+00
         21   -1    0    0  501  502  0.00000000000E+00  0.00000000000E+00  0.12576843475E+04  0.12576843475E+04  0.00000000000E+00 0.  1.
         21   -1    0    0  502  503 -0.00000000000E+00 -0.00000000000E+00 -0.28751049899E+02  0.28751049899E+02  0.00000000000E+00 0.  1.
          6    1    1    2  501    0  0.12646266376E+02 -0.77213376966E+02  0.57916599378E+03  0.60949494009E+03  0.17300000000E+03 0.  1.
         -6    1    1    2    0  503 -0.12646266376E+02  0.77213376966E+02  0.64976730380E+03  0.67694045729E+03  0.17300000000E+03 0.  1.
<mgrwt>
<rscale>  2 0.18987057E+03</rscale>
<asrwt>0</asrwt>
<pdfrwt beam="1">  1       21 0.19348986E+00 0.18987057E+03</pdfrwt>
<pdfrwt beam="2">  1       21 0.44232394E-02 0.18987057E+03</pdfrwt>
<totfact> 0.49048595E+04</totfact>
</mgrwt>
</event>
<event>
 4    1  0.4327903E+000  0.2143189E+03  0.7546771E-02  0.1138191E+00
         21   -1    0    0  503  502  0.00000000000E+00  0.00000000000E+00  0.11021504821E+03  0.11021504821E+03  0.00000000000E+00 0. -1.
         21   -1    0    0  501  503 -0.00000000000E+00 -0.00000000000E+00 -0.41679893660E+03  0.41679893660E+03  0.00000000000E+00 0. -1.
          6    1    1    2  501    0  0.12530601883E+03  0.17377639737E+02 -0.15602290592E+03  0.26509569572E+03  0.17300000000E+03 0. -1.
         -6    1    1    2    0  502 -0.12530601883E+03 -0.17377639737E+02 -0.15056098247E+03  0.26191828909E+03  0.17300000000E+03 0. -1.
<mgrwt>
<rscale>  2 0.21431888E+03</rscale>
<asrwt>0</asrwt>
<pdfrwt beam="1">  1       21 0.16956162E-01 0.21431888E+03</pdfrwt>
<pdfrwt beam="2">  1       21 0.64122912E-01 0.21431888E+03</pdfrwt>
<totfact> 0.69689370E+04</totfact>
</mgrwt>
</event>
<event>
 4    1  0.4327903E+000  0.3027575E+03  0.7546771E-02  0.1083870E+00
         21   -1    0    0  501  502  0.00000000000E+00  0.00000000000E+00  0.89142015972E+02  0.89142015972E+02  0.00000000000E+00 0.  1.
         21   -1    0    0  502  503 -0.00000000000E+00 -0.00000000000E+00 -0.14645710446E+04  0.14645710446E+04  0.00000000000E+00 0. -1.
          6    1    1    2  501    0  0.84211857979E+01  0.24831875899E+03 -0.26370228659E+03  0.40149846623E+03  0.17300000000E+03 0.  1.
         -6    1    1    2    0  503 -0.84211857979E+01 -0.24831875899E+03 -0.11117267421E+04  0.11522145944E+04  0.17300000000E+03 0. -1.
<mgrwt>
<rscale>  2 0.30275753E+03</rscale>
<asrwt>0</asrwt>
<pdfrwt beam="1">  1       21 0.13714157E-01 0.30275753E+03</pdfrwt>
<pdfrwt beam="2">  1       21 0.22531861E+00 0.30275753E+03</pdfrwt>
<totfact> 0.39432247E+03</totfact>
</mgrwt>
</event>
<event>
 4    1  0.4327903E+000  0.2534177E+03  0.7546771E-02  0.1111164E+00
         21   -1    0    0  501  502  0.00000000000E+00  0.00000000000E+00  0.74691629751E+03  0.74691629751E+03  0.00000000000E+00 0. -1.
         21   -1    0    0  502  503 -0.00000000000E+00 -0.00000000000E+00 -0.23518762280E+03  0.23518762280E+03  0.00000000000E+00 0. -1.
          6    1    1    2  501    0  0.17827074378E+03  0.50110767127E+02  0.64698826999E+03  0.69484845007E+03  0.17300000000E+03 0. -1.
         -6    1    1    2    0  503 -0.17827074378E+03 -0.50110767127E+02 -0.13525959527E+03  0.28725547024E+03  0.17300000000E+03 0. -1.
<mgrwt>
<rscale>  2 0.25341773E+03</rscale>
<asrwt>0</asrwt>
<pdfrwt beam="1">  1       21 0.11491020E+00 0.25341773E+03</pdfrwt>
<pdfrwt beam="2">  1       21 0.36182712E-01 0.25341773E+03</pdfrwt>
<totfact> 0.41368719E+03</totfact>
</mgrwt>
</event>
<event>
 4    1  0.4327903E+000  0.2482446E+03  0.7546771E-02  0.1114419E+00
         21   -1    0    0  503  502  0.00000000000E+00  0.00000000000E+00  0.45347009723E+03  0.45347009723E+03  0.00000000000E+00 0.  1.
         21   -1    0    0  501  503 -0.00000000000E+00 -0.00000000000E+00 -0.42968921922E+03  0.42968921922E+03  0.00000000000E+00 0. -1.
          6    1    1    2  501    0  0.33276483204E+02 -0.17489723458E+03 -0.35324311556E+03  0.43174768753E+03  0.17300000000E+03 0. -1.
         -6    1    1    2    0  502 -0.33276483204E+02  0.17489723458E+03  0.37702399357E+03  0.45141162892E+03  0.17300000000E+03 0.  1.
<mgrwt>
<rscale>  2 0.24824457E+03</rscale>
<asrwt>0</asrwt>
<pdfrwt beam="1">  1       21 0.69764631E-01 0.24824457E+03</pdfrwt>
<pdfrwt beam="2">  1       21 0.66106033E-01 0.24824457E+03</pdfrwt>
<totfact> 0.37639509E+03</totfact>
</mgrwt>
</event>
<event>
 4    1  0.4327903E+000  0.2542779E+03  0.7546771E-02  0.1110631E+00
         21   -1    0    0  503  502  0.00000000000E+00  0.00000000000E+00  0.15573610080E+04  0.15573610080E+04  0.00000000000E+00 0.  1.
         21   -1    0    0  501  503 -0.00000000000E+00 -0.00000000000E+00 -0.60327613837E+02  0.60327613837E+02  0.00000000000E+00 0.  1.
          6    1    1    2  501    0  0.86420363570E+02  0.16510531306E+03  0.29686232328E+03  0.39087655676E+03  0.17300000000E+03 0.  1.
         -6    1    1    2    0  502 -0.86420363570E+02 -0.16510531306E+03  0.12001710709E+04  0.12268120651E+04  0.17300000000E+03 0.  1.
<mgrwt>
<rscale>  2 0.25427789E+03</rscale>
<asrwt>0</asrwt>
<pdfrwt beam="1">  1       21 0.23959397E+00 0.25427789E+03</pdfrwt>
<pdfrwt beam="2">  1       21 0.92811725E-02 0.25427789E+03</pdfrwt>
<totfact> 0.67232915E+03</totfact>
</mgrwt>
</event>
<event>
 4    1  0.4327903E+000  0.1791145E+03  0.7546771E-02  0.1168663E+00
         21   -1    0    0  501  502  0.00000000000E+00  0.00000000000E+00  0.10905559872E+03  0.10905559872E+03  0.00000000000E+00 0.  1.
         21   -1    0    0  502  503 -0.00000000000E+00 -0.00000000000E+00 -0.42363811765E+03  0.42363811765E+03  0.00000000000E+00 0.  1.
          6    1    1    2  501    0 -0.28724943122E+02 -0.36440235445E+02 -0.10055216527E+02  0.17939654538E+03  0.17300000000E+03 0.  1.
         -6    1    1    2    0  503  0.28724943122E+02  0.36440235445E+02 -0.30452730240E+03  0.35329717099E+03  0.17300000000E+03 0.  1.
<mgrwt>
<rscale>  2 0.17911453E+03</rscale>
<asrwt>0</asrwt>
<pdfrwt beam="1">  1       21 0.16777785E-01 0.17911453E+03</pdfrwt>
<pdfrwt beam="2">  1       21 0.65175095E-01 0.17911453E+03</pdfrwt>
<totfact> 0.69659427E+04</totfact>
</mgrwt>
</event>
<event>
 4    1  0.4327903E+000  0.1793627E+03  0.7546771E-02  0.1168421E+00
         21   -1    0    0  501  502  0.00000000000E+00  0.00000000000E+00  0.29250156565E+03  0.29250156565E+03  0.00000000000E+00 0.  1.
         21   -1    0    0  502  503 -0.00000000000E+00 -0.00000000000E+00 -0.12020472983E+03  0.12020472983E+03  0.00000000000E+00 0.  1.
          6    1    1    2  501    0  0.42481114226E+02 -0.20912208767E+02  0.25981621239E+02  0.18123468262E+03  0.17300000000E+03 0.  1.
         -6    1    1    2    0  503 -0.42481114226E+02  0.20912208767E+02  0.14631521459E+03  0.23147161286E+03  0.17300000000E+03 0.  1.
<mgrwt>
<rscale>  2 0.17936266E+03</rscale>
<asrwt>0</asrwt>
<pdfrwt beam="1">  1       21 0.45000241E-01 0.17936266E+03</pdfrwt>
<pdfrwt beam="2">  1       21 0.18493035E-01 0.17936266E+03</pdfrwt>
<totfact> 0.12713147E+05</totfact>
</mgrwt>
</event>
<event>
 4    1  0.4327903E+000  0.2100163E+03  0.7546771E-02  0.1141553E+00
         21   -1    0    0  501  502  0.00000000000E+00  0.00000000000E+00  0.77320709685E+02  0.77320709685E+02  0.00000000000E+00 0.  1.
         21   -1    0    0  502  503 -0.00000000000E+00 -0.00000000000E+00 -0.57061455602E+03  0.57061455602E+03  0.00000000000E+00 0. -1.
          6    1    1    2  501    0  0.45763391445E+02 -0.10992523287E+03 -0.25230916880E+03  0.32827848160E+03  0.17300000000E+03 0. -1.
         -6    1    1    2    0  503 -0.45763391445E+02  0.10992523287E+03 -0.24098467753E+03  0.31965678411E+03  0.17300000000E+03 0.  1.
<mgrwt>
<rscale>  2 0.21001630E+03</rscale>
<asrwt>0</asrwt>
<pdfrwt beam="1">  1       21 0.11895493E-01 0.21001630E+03</pdfrwt>
<pdfrwt beam="2">  1       21 0.87786859E-01 0.21001630E+03</pdfrwt>
<totfact> 0.65790662E+04</totfact>
</mgrwt>
</event>
<event>
 4    1  0.4327903E+000  0.2017707E+03  0.7546771E-02  0.1148254E+00
         21   -1    0    0  503  502  0.00000000000E+00  0.00000000000E+00  0.48267092267E+03  0.48267092267E+03  0.00000000000E+00 0. -1.
         21   -1    0    0  501  503 -0.00000000000E+00 -0.00000000000E+00 -0.34727394123E+03  0.34727394123E+03  0.00000000000E+00 0.  1.
          6    1    1    2  501    0 -0.25439021947E+02 -0.10067399207E+03 -0.29337986723E+03  0.35606620594E+03  0.17300000000E+03 0.  1.
         -6    1    1    2    0  502  0.25439021947E+02  0.10067399207E+03  0.42877684867E+03  0.47387865796E+03  0.17300000000E+03 0. -1.
<mgrwt>
<rscale>  2 0.20177065E+03</rscale>
<asrwt>0</asrwt>
<pdfrwt beam="1">  1       21 0.74257065E-01 0.20177065E+03</pdfrwt>
<pdfrwt beam="2">  1       21 0.53426760E-01 0.20177065E+03</pdfrwt>
<totfact> 0.53531766E+03</totfact>
</mgrwt>
</event>
<event>
 4    1  0.4327903E+000  0.2576406E+03  0.7546771E-02  0.1108569E+00
         21   -1    0    0  501  502  0.00000000000E+00  0.00000000000E+00  0.22719301040E+02  0.22719301040E+02  0.00000000000E+00 0.  1.
         21   -1    0    0  502  503 -0.00000000000E+00 -0.00000000000E+00 -0.31103209656E+04  0.31103209656E+04  0.00000000000E+00 0. -1.
          6    1    1    2  501    0 -0.13153590063E+03 -0.13837625559E+03 -0.11580173849E+04  0.11863317179E+04  0.17300000000E+03 0.  1.
         -6    1    1    2    0  503  0.13153590063E+03  0.13837625559E+03 -0.19295842797E+04  0.19467085487E+04  0.17300000000E+03 0. -1.
<mgrwt>
<rscale>  2 0.25764060E+03</rscale>
<asrwt>0</asrwt>
<pdfrwt beam="1">  1       21 0.34952755E-02 0.25764060E+03</pdfrwt>
<pdfrwt beam="2">  1       21 0.47851113E+00 0.25764060E+03</pdfrwt>
<totfact> 0.12012540E+03</totfact>
</mgrwt>
</event>
<event>
 4    1  0.4327903E+000  0.1881543E+03  0.7546771E-02  0.1160137E+00
         21   -1    0    0  503  502  0.00000000000E+00  0.00000000000E+00  0.14123949987E+03  0.14123949987E+03  0.00000000000E+00 0. -1.
         21   -1    0    0  501  503 -0.00000000000E+00 -0.00000000000E+00 -0.25987884461E+03  0.25987884461E+03  0.00000000000E+00 0.  1.
          6    1    1    2  501    0  0.70325980434E+02 -0.22963176781E+02 -0.97108987648E+02  0.21173617191E+03  0.17300000000E+03 0.  1.
         -6    1    1    2    0  502 -0.70325980434E+02  0.22963176781E+02 -0.21530357091E+02  0.18938217257E+03  0.17300000000E+03 0. -1.
<mgrwt>
<rscale>  2 0.18815433E+03</rscale>
<asrwt>0</asrwt>
<pdfrwt beam="1">  1       21 0.21729154E-01 0.18815433E+03</pdfrwt>
<pdfrwt beam="2">  1       21 0.39981360E-01 0.18815433E+03</pdfrwt>
<totfact> 0.11932007E+05</totfact>
</mgrwt>
</event>
<event>
 4    1  0.4327903E+000  0.2155867E+03  0.7546771E-02  0.1137217E+00
         21   -1    0    0  503  502  0.00000000000E+00  0.00000000000E+00  0.19674178665E+03  0.19674178665E+03  0.00000000000E+00 0. -1.
         21   -1    0    0  501  503 -0.00000000000E+00 -0.00000000000E+00 -0.34621081144E+03  0.34621081144E+03  0.00000000000E+00 0. -1.
          6    1    1    2  501    0  0.12320388528E+03  0.37005526080E+02 -0.22774002562E+03  0.31359707521E+03  0.17300000000E+03 0. -1.
         -6    1    1    2    0  502 -0.12320388528E+03 -0.37005526080E+02  0.78271000835E+02  0.22935552289E+03  0.17300000000E+03 0. -1.
<mgrwt>
<rscale>  2 0.21558666E+03</rscale>
<asrwt>0</asrwt>
<pdfrwt beam="1">  1       21 0.30267967E-01 0.21558666E+03</pdfrwt>
<pdfrwt beam="2">  1       21 0.53263202E-01 0.21558666E+03</pdfrwt>
<totfact> 0.34539131E+04</totfact>
</mgrwt>
</event>
<event>
 4    1  0.4327903E+000  0.1826776E+03  0.7546771E-02  0.1165237E+00
         21   -1    0    0  501  502  0.00000000000E+00  0.00000000000E+00  0.40828691696E+02  0.40828691696E+02  0.00000000000E+00 0. -1.
         21   -1    0    0  502  503 -0.00000000000E+00 -0.00000000000E+00 -0.97200192617E+03  0.97200192617E+03  0.00000000000E+00 0.  1.
          6    1    1    2  501    0  0.57070412323E+02  0.13604492238E+02 -0.26358335090E+03  0.32069814007E+03  0.17300000000E+03 0. -1.
         -6    1    1    2    0  503 -0.57070412323E+02 -0.13604492238E+02 -0.66758988358E+03  0.69213247780E+03  0.17300000000E+03 0.  1.
<mgrwt>
<rscale>  2 0.18267762E+03</rscale>
<asrwt>0</asrwt>
<pdfrwt beam="1">  1       21 0.62813380E-02 0.18267762E+03</pdfrwt>
<pdfrwt beam="2">  1       21 0.14953874E+00 0.18267762E+03</pdfrwt>
<totfact> 0.55228507E+04</totfact>
</mgrwt>
</event>
<event>
 4    1  0.4327903E+000  0.1854989E+03  0.7546771E-02  0.1162585E+00
         21   -1    0    0  503  502  0.00000000000E+00  0.00000000000E+00  0.15693135306E+02  0.15693135306E+02  0.00000000000E+00 0. -1.
         21   -1    0    0  501  503 -0.00000000000E+00 -0.00000000000E+00 -0.24892398754E+04  0.24892398754E+04  0.00000000000E+00 0.  1.
          6    1    1    2  501    0  0.24035447794E+02 -0.62475173399E+02 -0.80446160583E+03  0.82557151435E+03  0.17300000000E+03 0. -1.
         -6    1    1    2    0  502 -0.24035447794E+02  0.62475173399E+02 -0.16690851343E+04  0.16793614964E+04  0.17300000000E+03 0.  1.
<mgrwt>
<rscale>  2 0.18549892E+03</rscale>
<asrwt>0</asrwt>
<pdfrwt beam="1">  1       21 0.24143275E-02 0.18549892E+03</pdfrwt>
<pdfrwt beam="2">  1       21 0.38296015E+00 0.18549892E+03</pdfrwt>
<totfact> 0.10132223E+04</totfact>
</mgrwt>
</event>
<event>
 4    1  0.4327903E+000  0.1860764E+03  0.7546771E-02  0.1162049E+00
         21   -1    0    0  503  502  0.00000000000E+00  0.00000000000E+00  0.23702671132E+03  0.23702671132E+03  0.00000000000E+00 0. -1.
         21   -1    0    0  501  503 -0.00000000000E+00 -0.00000000000E+00 -0.15293354004E+03  0.15293354004E+03  0.00000000000E+00 0.  1.
          6    1    1    2  501    0  0.68056457856E+02 -0.79842795794E+01  0.83327961779E+02  0.20388226846E+03  0.17300000000E+03 0. -1.
         -6    1    1    2    0  502 -0.68056457856E+02  0.79842795794E+01  0.76520949239E+00  0.18607798290E+03  0.17300000000E+03 0.  1.
<mgrwt>
<rscale>  2 0.18607641E+03</rscale>
<asrwt>0</asrwt>
<pdfrwt beam="1">  1       21 0.36465648E-01 0.18607641E+03</pdfrwt>
<pdfrwt beam="2">  1       21 0.23528237E-01 0.18607641E+03</pdfrwt>
<totfact> 0.12358008E+05</totfact>
</mgrwt>
</event>
<event>
 4    1  0.4327903E+000  0.2650413E+03  0.7546771E-02  0.1104152E+00
         21   -1    0    0  501  502  0.00000000000E+00  0.00000000000E+00  0.21446640066E+03  0.21446640066E+03  0.00000000000E+00 0. -1.
         21   -1    0    0  502  503 -0.00000000000E+00 -0.00000000000E+00 -0.33316002461E+03  0.33316002461E+03  0.00000000000E+00 0.  1.
          6    1    1    2  501    0 -0.34060762089E+02  0.19788314891E+03 -0.23792053848E+02  0.26610700472E+03  0.17300000000E+03 0. -1.
         -6    1    1    2    0  503  0.34060762089E+02 -0.19788314891E+03 -0.94901570104E+02  0.28151942055E+03  0.17300000000E+03 0.  1.
<mgrwt>
<rscale>  2 0.26504127E+03</rscale>
<asrwt>0</asrwt>
<pdfrwt beam="1">  1       21 0.32994831E-01 0.26504127E+03</pdfrwt>
<pdfrwt beam="2">  1       21 0.51255388E-01 0.26504127E+03</pdfrwt>
<totfact> 0.30898539E+04</totfact>
</mgrwt>
</event>
<event>
 4    1  0.4327903E+000  0.2153975E+03  0.7546771E-02  0.1137362E+00
         21   -1    0    0  503  502  0.00000000000E+00  0.00000000000E+00  0.10563654210E+04  0.10563654210E+04  0.00000000000E+00 0.  1.
         21   -1    0    0  501  503 -0.00000000000E+00 -0.00000000000E+00 -0.65595443978E+02  0.65595443978E+02  0.00000000000E+00 0.  1.
          6    1    1    2  501    0 -0.22467873626E+02  0.12634193323E+03  0.17291452415E+03  0.27621644068E+03  0.17300000000E+03 0.  1.
         -6    1    1    2    0  502  0.22467873626E+02 -0.12634193323E+03  0.81785545285E+03  0.84574442428E+03  0.17300000000E+03 0.  1.
<mgrwt>
<rscale>  2 0.21539751E+03</rscale>
<asrwt>0</asrwt>
<pdfrwt beam="1">  1       21 0.16251774E+00 0.21539751E+03</pdfrwt>
<pdfrwt beam="2">  1       21 0.10091608E-01 0.21539751E+03</pdfrwt>
<totfact> 0.18969648E+04</totfact>
</mgrwt>
</event>
<event>
 4    1  0.4327903E+000  0.3481222E+03  0.7546771E-02  0.1063388E+00
         21   -1    0    0  501  502  0.00000000000E+00  0.00000000000E+00  0.24494309177E+03  0.24494309177E+03  0.00000000000E+00 0. -1.
         21   -1    0    0  502  503 -0.00000000000E+00 -0.00000000000E+00 -0.50042680300E+03  0.50042680300E+03  0.00000000000E+00 0.  1.
          6    1    1    2  501    0 -0.27410932770E+03  0.12698083349E+03 -0.88097412005E+02  0.35909637928E+03  0.17300000000E+03 0.  1.
         -6    1    1    2    0  503  0.27410932770E+03 -0.12698083349E+03 -0.16738629923E+03  0.38627351550E+03  0.17300000000E+03 0. -1.
<mgrwt>
<rscale>  2 0.34812218E+03</rscale>
<asrwt>0</asrwt>
<pdfrwt beam="1">  1       21 0.37683553E-01 0.34812218E+03</pdfrwt>
<pdfrwt beam="2">  1       21 0.76988739E-01 0.34812218E+03</pdfrwt>
<totfact> 0.93858909E+03</totfact>
</mgrwt>
</event>
<event>
 4    1  0.4327903E+000  0.2056306E+03  0.7546771E-02  0.1145074E+00
         21   -1    0    0  501  502  0.00000000000E+00  0.00000000000E+00  0.71904287089E+03  0.71904287089E+03  0.00000000000E+00 0.  1.
         21   -1    0    0  502  503 -0.00000000000E+00 -0.00000000000E+00 -0.58893459198E+02  0.58893459198E+02  0.00000000000E+00 0.  1.
          6    1    1    2  501    0 -0.68491341410E+02 -0.87543704237E+02  0.31507687256E+03  0.37624114558E+03  0.17300000000E+03 0.  1.
         -6    1    1    2    0  503  0.68491341410E+02  0.87543704237E+02  0.34507253912E+03  0.40169518451E+03  0.17300000000E+03 0.  1.
<mgrwt>
<rscale>  2 0.20563065E+03</rscale>
<asrwt>0</asrwt>
<pdfrwt beam="1">  1       21 0.11062197E+00 0.20563065E+03</pdfrwt>
<pdfrwt beam="2">  1       21 0.90605327E-02 0.20563065E+03</pdfrwt>
<totfact> 0.61796396E+04</totfact>
</mgrwt>
</event>
<event>
 4    1  0.4327903E+000  0.2181989E+03  0.7546771E-02  0.1135233E+00
         21   -1    0    0  501  502  0.00000000000E+00  0.00000000000E+00  0.39002488123E+03  0.39002488123E+03  0.00000000000E+00 0. -1.
         21   -1    0    0  502  503 -0.00000000000E+00 -0.00000000000E+00 -0.14907041134E+03  0.14907041134E+03  0.00000000000E+00 0.  1.
          6    1    1    2  501    0  0.12022601126E+03  0.56810705143E+02  0.23519125461E+03  0.32082031770E+03  0.17300000000E+03 0. -1.
         -6    1    1    2    0  503 -0.12022601126E+03 -0.56810705143E+02  0.57632152825E+01  0.21827497487E+03  0.17300000000E+03 0.  1.
<mgrwt>
<rscale>  2 0.21819888E+03</rscale>
<asrwt>0</asrwt>
<pdfrwt beam="1">  1       21 0.60003828E-01 0.21819888E+03</pdfrwt>
<pdfrwt beam="2">  1       21 0.22933910E-01 0.21819888E+03</pdfrwt>
<totfact> 0.45660380E+04</totfact>
</mgrwt>
</event>
<event>
 4    1  0.4327903E+000  0.1853376E+03  0.7546771E-02  0.1162735E+00
         21   -1    0    0  503  502  0.00000000000E+00  0.00000000000E+00  0.59036011299E+03  0.59036011299E+03  0.00000000000E+00 0.  1.
         21   -1    0    0  501  503 -0.00000000000E+00 -0.00000000000E+00 -0.95562488029E+02  0.95562488029E+02  0.00000000000E+00 0.  1.
          6    1    1    2  501    0  0.47644844312E+02 -0.46378749794E+02  0.32908702986E+02  0.18823655956E+03  0.17300000000E+03 0.  1.
         -6    1    1    2    0  502 -0.47644844312E+02  0.46378749794E+02  0.46188892197E+03  0.49768604146E+03  0.17300000000E+03 0.  1.
<mgrwt>
<rscale>  2 0.18533758E+03</rscale>
<asrwt>0</asrwt>
<pdfrwt beam="1">  1       21 0.90824630E-01 0.18533758E+03</pdfrwt>
<pdfrwt beam="2">  1       21 0.14701922E-01 0.18533758E+03</pdfrwt>
<totfact> 0.42008459E+04</totfact>
</mgrwt>
</event>
<event>
 4    1  0.4327903E+000  0.1794926E+03  0.7546771E-02  0.1168295E+00
         21   -1    0    0  501  502  0.00000000000E+00  0.00000000000E+00  0.10895816382E+04  0.10895816382E+04  0.00000000000E+00 0.  1.
         21   -1    0    0  502  503 -0.00000000000E+00 -0.00000000000E+00 -0.29673361533E+02  0.29673361533E+02  0.00000000000E+00 0.  1.
          6    1    1    2  501    0  0.21346384364E+02 -0.42812819595E+02  0.56317660998E+03  0.59108840259E+03  0.17300000000E+03 0.  1.
         -6    1    1    2    0  503 -0.21346384364E+02  0.42812819595E+02  0.49673166666E+03  0.52816659711E+03  0.17300000000E+03 0.  1.
<mgrwt>
<rscale>  2 0.17949263E+03</rscale>
<asrwt>0</asrwt>
<pdfrwt beam="1">  1       21 0.16762791E+00 0.17949263E+03</pdfrwt>
<pdfrwt beam="2">  1       21 0.45651334E-02 0.17949263E+03</pdfrwt>
<totfact> 0.70087917E+04</totfact>
</mgrwt>
</event>
<event>
 4    1  0.4327903E+000  0.1863401E+03  0.7546771E-02  0.1161804E+00
         21   -1    0    0  501  502  0.00000000000E+00  0.00000000000E+00  0.28368317563E+03  0.28368317563E+03  0.00000000000E+00 0.  1.
         21   -1    0    0  502  503 -0.00000000000E+00 -0.00000000000E+00 -0.19732828234E+03  0.19732828234E+03  0.00000000000E+00 0.  1.
          6    1    1    2  501    0  0.49093744834E+02 -0.48820435000E+02  0.19137996656E+03  0.26711219039E+03  0.17300000000E+03 0.  1.
         -6    1    1    2    0  503 -0.49093744834E+02  0.48820435000E+02 -0.10502507327E+03  0.21389926758E+03  0.17300000000E+03 0.  1.
<mgrwt>
<rscale>  2 0.18634009E+03</rscale>
<asrwt>0</asrwt>
<pdfrwt beam="1">  1       21 0.43643566E-01 0.18634009E+03</pdfrwt>
<pdfrwt beam="2">  1       21 0.30358197E-01 0.18634009E+03</pdfrwt>
<totfact> 0.52687165E+04</totfact>
</mgrwt>
</event>
<event>
 4    1  0.4327903E+000  0.1932785E+03  0.7546771E-02  0.1155537E+00
         21   -1    0    0  503  502  0.00000000000E+00  0.00000000000E+00  0.10376278663E+03  0.10376278663E+03  0.00000000000E+00 0.  1.
         21   -1    0    0  501  503 -0.00000000000E+00 -0.00000000000E+00 -0.37574655299E+03  0.37574655299E+03  0.00000000000E+00 0. -1.
          6    1    1    2  501    0  0.62216615443E+02 -0.59637955063E+02 -0.18504286714E+03  0.26757700873E+03  0.17300000000E+03 0. -1.
         -6    1    1    2    0  502 -0.62216615443E+02  0.59637955063E+02 -0.86940899217E+02  0.21193233089E+03  0.17300000000E+03 0.  1.
<mgrwt>
<rscale>  2 0.19327854E+03</rscale>
<asrwt>0</asrwt>
<pdfrwt beam="1">  1       21 0.15963506E-01 0.19327854E+03</pdfrwt>
<pdfrwt beam="2">  1       21 0.57807162E-01 0.19327854E+03</pdfrwt>
<totfact> 0.98238336E+04</totfact>
</mgrwt>
</event>
<event>
 4    1  0.4327903E+000  0.2050304E+03  0.7546771E-02  0.1145563E+00
         21   -1    0    0  501  502  0.00000000000E+00  0.00000000000E+00  0.74646260525E+03  0.74646260525E+03  0.00000000000E+00 0.  1.
         21   -1    0    0  502  503 -0.00000000000E+00 -0.00000000000E+00 -0.77178978706E+02  0.77178978706E+02  0.00000000000E+00 0.  1.
          6    1    1    2  501    0 -0.10744275046E+03  0.23759392846E+02  0.12052460118E+03  0.23783110155E+03  0.17300000000E+03 0.  1.
         -6    1    1    2    0  503  0.10744275046E+03 -0.23759392846E+02  0.54875902537E+03  0.58581048241E+03  0.17300000000E+03 0.  1.
<mgrwt>
<rscale>  2 0.20503037E+03</rscale>
<asrwt>0</asrwt>
<pdfrwt beam="1">  1       21 0.11484040E+00 0.20503037E+03</pdfrwt>
<pdfrwt beam="2">  1       21 0.11873690E-01 0.20503037E+03</pdfrwt>
<totfact> 0.34933199E+04</totfact>
</mgrwt>
</event>
<event>
 4    1  0.4327903E+000  0.1914717E+03  0.7546771E-02  0.1157141E+00
         21   -1    0    0  503  502  0.00000000000E+00  0.00000000000E+00  0.47771137547E+02  0.47771137547E+02  0.00000000000E+00 0.  1.
         21   -1    0    0  501  503 -0.00000000000E+00 -0.00000000000E+00 -0.14551663510E+04  0.14551663510E+04  0.00000000000E+00 0.  1.
          6    1    1    2  501    0  0.42506385353E+02  0.70182766762E+02 -0.12203076960E+04  0.12352377450E+04  0.17300000000E+03 0.  1.
         -6    1    1    2    0  502 -0.42506385353E+02 -0.70182766762E+02 -0.18708751740E+03  0.26769974358E+03  0.17300000000E+03 0.  1.
<mgrwt>
<rscale>  2 0.19147170E+03</rscale>
<asrwt>0</asrwt>
<pdfrwt beam="1">  1       21 0.73494062E-02 0.19147170E+03</pdfrwt>
<pdfrwt beam="2">  1       21 0.22387173E+00 0.19147170E+03</pdfrwt>
<totfact> 0.13259187E+04</totfact>
</mgrwt>
</event>
<event>
 4    1  0.4327903E+000  0.1922298E+03  0.7546771E-02  0.1156465E+00
         21   -1    0    0  501  502  0.00000000000E+00  0.00000000000E+00  0.30160685494E+03  0.30160685494E+03  0.00000000000E+00 0. -1.
         21   -1    0    0  502  503 -0.00000000000E+00 -0.00000000000E+00 -0.13125188672E+03  0.13125188672E+03  0.00000000000E+00 0. -1.
          6    1    1    2  501    0 -0.29541946591E+02  0.78425613952E+02  0.14100705909E+03  0.23840153994E+03  0.17300000000E+03 0. -1.
         -6    1    1    2    0  503  0.29541946591E+02 -0.78425613952E+02  0.29347909129E+02  0.19445720172E+03  0.17300000000E+03 0. -1.
<mgrwt>
<rscale>  2 0.19222982E+03</rscale>
<asrwt>0</asrwt>
<pdfrwt beam="1">  1       21 0.46401055E-01 0.19222982E+03</pdfrwt>
<pdfrwt beam="2">  1       21 0.20192598E-01 0.19222982E+03</pdfrwt>
<totfact> 0.10089277E+05</totfact>
</mgrwt>
</event>
<event>
 4    1  0.4327903E+000  0.2185102E+03  0.7546771E-02  0.1134999E+00
         21   -1    0    0  501  502  0.00000000000E+00  0.00000000000E+00  0.72121348920E+02  0.72121348920E+02  0.00000000000E+00 0.  1.
         21   -1    0    0  502  503 -0.00000000000E+00 -0.00000000000E+00 -0.66623119620E+03  0.66623119620E+03  0.00000000000E+00 0.  1.
          6    1    1    2  501    0  0.39571477682E+02 -0.12748256896E+03 -0.26774890708E+03  0.34559540575E+03  0.17300000000E+03 0.  1.
         -6    1    1    2    0  503 -0.39571477682E+02  0.12748256896E+03 -0.32636094020E+03  0.39275713937E+03  0.17300000000E+03 0.  1.
<mgrwt>
<rscale>  2 0.21851020E+03</rscale>
<asrwt>0</asrwt>
<pdfrwt beam="1">  1       21 0.11095592E-01 0.21851020E+03</pdfrwt>
<pdfrwt beam="2">  1       21 0.10249711E+00 0.21851020E+03</pdfrwt>
<totfact> 0.51571129E+04</totfact>
</mgrwt>
</event>
<event>
 4    1  0.4327903E+000  0.1886961E+03  0.7546771E-02  0.1159643E+00
         21   -1    0    0  501  502  0.00000000000E+00  0.00000000000E+00  0.11317169701E+03  0.11317169701E+03  0.00000000000E+00 0. -1.
         21   -1    0    0  502  503 -0.00000000000E+00 -0.00000000000E+00 -0.31911032899E+03  0.31911032899E+03  0.00000000000E+00 0. -1.
          6    1    1    2  501    0  0.74477286482E+02  0.11417153156E+02 -0.12860510800E+03  0.22835387317E+03  0.17300000000E+03 0. -1.
         -6    1    1    2    0  503 -0.74477286482E+02 -0.11417153156E+02 -0.77333523985E+02  0.20392815284E+03  0.17300000000E+03 0. -1.
<mgrwt>
<rscale>  2 0.18869610E+03</rscale>
<asrwt>0</asrwt>
<pdfrwt beam="1">  1       21 0.17411031E-01 0.18869610E+03</pdfrwt>
<pdfrwt beam="2">  1       21 0.49093896E-01 0.18869610E+03</pdfrwt>
<totfact> 0.11834064E+05</totfact>
</mgrwt>
</event>
<event>
 4    1  0.4327903E+000  0.1786200E+03  0.7546771E-02  0.1169145E+00
         21   -1    0    0  503  502  0.00000000000E+00  0.00000000000E+00  0.69255385026E+02  0.69255385026E+02  0.00000000000E+00 0.  1.
         21   -1    0    0  501  503 -0.00000000000E+00 -0.00000000000E+00 -0.65018058504E+03  0.65018058504E+03  0.00000000000E+00 0.  1.
          6    1    1    2  501    0 -0.44301247264E+02 -0.36751796647E+01 -0.48465916830E+03  0.51652649193E+03  0.17300000000E+03 0.  1.
         -6    1    1    2    0  502  0.44301247264E+02  0.36751796647E+01 -0.96266031721E+02  0.20290947814E+03  0.17300000000E+03 0.  1.
<mgrwt>
<rscale>  2 0.17862001E+03</rscale>
<asrwt>0</asrwt>
<pdfrwt beam="1">  1       21 0.10654675E-01 0.17862001E+03</pdfrwt>
<pdfrwt beam="2">  1       21 0.10002778E+00 0.17862001E+03</pdfrwt>
<totfact> 0.59904210E+04</totfact>
</mgrwt>
</event>
<event>
 4    1  0.4327903E+000  0.2124672E+03  0.7546771E-02  0.1139627E+00
         21   -1    0    0  503  502  0.00000000000E+00  0.00000000000E+00  0.39885444251E+03  0.39885444251E+03  0.00000000000E+00 0.  1.
         21   -1    0    0  501  503 -0.00000000000E+00 -0.00000000000E+00 -0.11574313511E+03  0.11574313511E+03  0.00000000000E+00 0. -1.
          6    1    1    2  501    0  0.14575634742E+02 -0.12247800383E+03  0.17984547670E+03  0.27836434046E+03  0.17300000000E+03 0. -1.
         -6    1    1    2    0  502 -0.14575634742E+02  0.12247800383E+03  0.10326583070E+03  0.23623323716E+03  0.17300000000E+03 0.  1.
<mgrwt>
<rscale>  2 0.21246720E+03</rscale>
<asrwt>0</asrwt>
<pdfrwt beam="1">  1       21 0.61362221E-01 0.21246720E+03</pdfrwt>
<pdfrwt beam="2">  1       21 0.17806636E-01 0.21246720E+03</pdfrwt>
<totfact> 0.70096200E+04</totfact>
</mgrwt>
</event>
<event>
 4    1  0.4327903E+000  0.1913587E+03  0.7546771E-02  0.1157242E+00
         21   -1    0    0  503  502  0.00000000000E+00  0.00000000000E+00  0.19918607022E+03  0.19918607022E+03  0.00000000000E+00 0. -1.
         21   -1    0    0  501  503 -0.00000000000E+00 -0.00000000000E+00 -0.20609301342E+03  0.20609301342E+03  0.00000000000E+00 0. -1.
          6    1    1    2  501    0 -0.24121370519E+02 -0.78149243022E+02 -0.70041763178E+02  0.20377436858E+03  0.17300000000E+03 0. -1.
         -6    1    1    2    0  502  0.24121370519E+02  0.78149243022E+02  0.63134819973E+02  0.20150471507E+03  0.17300000000E+03 0. -1.
<mgrwt>
<rscale>  2 0.19135868E+03</rscale>
<asrwt>0</asrwt>
<pdfrwt beam="1">  1       21 0.30644011E-01 0.19135868E+03</pdfrwt>
<pdfrwt beam="2">  1       21 0.31706617E-01 0.19135868E+03</pdfrwt>
<totfact> 0.97826221E+04</totfact>
</mgrwt>
</event>
<event>
 4    1  0.4327903E+000  0.1826927E+03  0.7546771E-02  0.1165222E+00
         21   -1    0    0  503  502  0.00000000000E+00  0.00000000000E+00  0.18854443912E+04  0.18854443912E+04  0.00000000000E+00 0. -1.
         21   -1    0    0  501  503 -0.00000000000E+00 -0.00000000000E+00 -0.22064472618E+02  0.22064472618E+02  0.00000000000E+00 0. -1.
          6    1    1    2  501    0 -0.29194534637E+02  0.50944144122E+02  0.50761443053E+03  0.53948960764E+03  0.17300000000E+03 0. -1.
         -6    1    1    2    0  502  0.29194534637E+02 -0.50944144122E+02  0.13557654880E+04  0.13680192561E+04  0.17300000000E+03 0. -1.
<mgrwt>
<rscale>  2 0.18269271E+03</rscale>
<asrwt>0</asrwt>
<pdfrwt beam="1">  1       21 0.29006824E+00 0.18269271E+03</pdfrwt>
<pdfrwt beam="2">  1       21 0.33945357E-02 0.18269271E+03</pdfrwt>
<totfact> 0.20269721E+04</totfact>
</mgrwt>
</event>
<event>
 4    1  0.4327903E+000  0.1918713E+03  0.7546771E-02  0.1156784E+00
         21   -1    0    0  503  502  0.00000000000E+00  0.00000000000E+00  0.94473551864E+02  0.94473551864E+02  0.00000000000E+00 0.  1.
         21   -1    0    0  501  503 -0.00000000000E+00 -0.00000000000E+00 -0.80944606279E+03  0.80944606279E+03  0.00000000000E+00 0. -1.
          6    1    1    2  501    0 -0.77700752085E+02  0.29123514585E+02 -0.68295462998E+03  0.70939524427E+03  0.17300000000E+03 0. -1.
         -6    1    1    2    0  502  0.77700752085E+02 -0.29123514585E+02 -0.32017880951E+02  0.19452437039E+03  0.17300000000E+03 0.  1.
<mgrwt>
<rscale>  2 0.19187127E+03</rscale>
<asrwt>0</asrwt>
<pdfrwt beam="1">  1       21 0.14534393E-01 0.19187127E+03</pdfrwt>
<pdfrwt beam="2">  1       21 0.12453016E+00 0.19187127E+03</pdfrwt>
<totfact> 0.20015670E+04</totfact>
</mgrwt>
</event>
<event>
 4    1  0.4327903E+000  0.1853431E+03  0.7546771E-02  0.1162730E+00
         21   -1    0    0  501  502  0.00000000000E+00  0.00000000000E+00  0.72952987632E+02  0.72952987632E+02  0.00000000000E+00 0. -1.
         21   -1    0    0  502  503 -0.00000000000E+00 -0.00000000000E+00 -0.60992100485E+03  0.60992100485E+03  0.00000000000E+00 0. -1.
          6    1    1    2  501    0 -0.62172130400E+02  0.23615141476E+02 -0.10546194389E+03  0.21324697023E+03  0.17300000000E+03 0. -1.
         -6    1    1    2    0  503  0.62172130400E+02 -0.23615141476E+02 -0.43150607333E+03  0.46962702225E+03  0.17300000000E+03 0. -1.
<mgrwt>
<rscale>  2 0.18534306E+03</rscale>
<asrwt>0</asrwt>
<pdfrwt beam="1">  1       21 0.11223536E-01 0.18534306E+03</pdfrwt>
<pdfrwt beam="2">  1       21 0.93834004E-01 0.18534306E+03</pdfrwt>
<totfact> 0.63260459E+04</totfact>
</mgrwt>
</event>
<event>
 4    1  0.4327903E+000  0.2350195E+03  0.7546771E-02  0.1123156E+00
         21   -1    0    0  503  502  0.00000000000E+00  0.00000000000E+00  0.17575326714E+04  0.17575326714E+04  0.00000000000E+00 0. -1.
         21   -1    0    0  501  503 -0.00000000000E+00 -0.00000000000E+00 -0.42238215492E+02  0.42238215492E+02  0.00000000000E+00 0.  1.
          6    1    1    2  501    0 -0.15890473468E+03  0.73789546390E+01  0.40237663362E+03  0.46598403294E+03  0.17300000000E+03 0.  1.
         -6    1    1    2    0  502  0.15890473468E+03 -0.73789546390E+01  0.13129178223E+04  0.13337868540E+04  0.17300000000E+03 0. -1.
<mgrwt>
<rscale>  2 0.23501950E+03</rscale>
<asrwt>0</asrwt>
<pdfrwt beam="1">  1       21 0.27038959E+00 0.23501950E+03</pdfrwt>
<pdfrwt beam="2">  1       21 0.64981883E-02 0.23501950E+03</pdfrwt>
<totfact> 0.83540428E+03</totfact>
</mgrwt>
</event>
<event>
 4    1  0.4327903E+000  0.1855062E+03  0.7546771E-02  0.1162578E+00
         21   -1    0    0  501  502  0.00000000000E+00  0.00000000000E+00  0.55529536729E+03  0.55529536729E+03  0.00000000000E+00 0.  1.
         21   -1    0    0  502  503 -0.00000000000E+00 -0.00000000000E+00 -0.10014339951E+03  0.10014339951E+03  0.00000000000E+00 0. -1.
          6    1    1    2  501    0 -0.41705375528E+01 -0.66829380651E+02  0.42990683376E+03  0.46822264492E+03  0.17300000000E+03 0.  1.
         -6    1    1    2    0  503  0.41705375528E+01  0.66829380651E+02  0.25245134024E+02  0.18721612188E+03  0.17300000000E+03 0. -1.
<mgrwt>
<rscale>  2 0.18550622E+03</rscale>
<asrwt>0</asrwt>
<pdfrwt beam="1">  1       21 0.85430054E-01 0.18550622E+03</pdfrwt>
<pdfrwt beam="2">  1       21 0.15406677E-01 0.18550622E+03</pdfrwt>
<totfact> 0.44412547E+04</totfact>
</mgrwt>
</event>
<event>
 4    1  0.4327903E+000  0.1776356E+03  0.7546771E-02  0.1170111E+00
         21   -1    0    0  501  502  0.00000000000E+00  0.00000000000E+00  0.10460966413E+04  0.10460966413E+04  0.00000000000E+00 0. -1.
         21   -1    0    0  502  503 -0.00000000000E+00 -0.00000000000E+00 -0.66066004658E+02  0.66066004658E+02  0.00000000000E+00 0. -1.
          6    1    1    2  501    0 -0.13736852005E+02  0.37904029442E+02  0.89994454406E+03  0.91730834452E+03  0.17300000000E+03 0. -1.
         -6    1    1    2    0  503  0.13736852005E+02 -0.37904029442E+02  0.80086092533E+02  0.19485430138E+03  0.17300000000E+03 0. -1.
<mgrwt>
<rscale>  2 0.17763563E+03</rscale>
<asrwt>0</asrwt>
<pdfrwt beam="1">  1       21 0.16093793E+00 0.17763563E+03</pdfrwt>
<pdfrwt beam="2">  1       21 0.10164001E-01 0.17763563E+03</pdfrwt>
<totfact> 0.19740962E+04</totfact>
</mgrwt>
</event>
<event>
 4    1  0.4327903E+000  0.1855361E+03  0.7546771E-02  0.1162550E+00
         21   -1    0    0  503  502  0.00000000000E+00  0.00000000000E+00  0.31715650080E+03  0.31715650080E+03  0.00000000000E+00 0.  1.
         21   -1    0    0  501  503 -0.00000000000E+00 -0.00000000000E+00 -0.10856544702E+03  0.10856544702E+03  0.00000000000E+00 0. -1.
          6    1    1    2  501    0 -0.53892846927E+02 -0.39877460219E+02  0.10093411631E+03  0.21121398301E+03  0.17300000000E+03 0. -1.
         -6    1    1    2    0  502  0.53892846927E+02  0.39877460219E+02  0.10765693746E+03  0.21450796481E+03  0.17300000000E+03 0. -1.
<mgrwt>
<rscale>  2 0.18553612E+03</rscale>
<asrwt>0</asrwt>
<pdfrwt beam="1">  1       21 0.48793307E-01 0.18553612E+03</pdfrwt>
<pdfrwt beam="2">  1       21 0.16702377E-01 0.18553612E+03</pdfrwt>
<totfact> 0.12951842E+05</totfact>
</mgrwt>
</event>
<event>
 4    1  0.4327903E+000  0.2334885E+03  0.7546771E-02  0.1124208E+00
         21   -1    0    0  503  502  0.00000000000E+00  0.00000000000E+00  0.17692148772E+03  0.17692148772E+03  0.00000000000E+00 0. -1.
         21   -1    0    0  501  503 -0.00000000000E+00 -0.00000000000E+00 -0.31649571683E+03  0.31649571683E+03  0.00000000000E+00 0. -1.
          6    1    1    2  501    0 -0.38447164912E+02 -0.15201880562E+03 -0.10986880460E+03  0.25804661590E+03  0.17300000000E+03 0. -1.
         -6    1    1    2    0  502  0.38447164912E+02  0.15201880562E+03 -0.29705424507E+02  0.23537058864E+03  0.17300000000E+03 0. -1.
<mgrwt>
<rscale>  2 0.23348855E+03</rscale>
<asrwt>0</asrwt>
<pdfrwt beam="1">  1       21 0.27218691E-01 0.23348855E+03</pdfrwt>
<pdfrwt beam="2">  1       21 0.48691648E-01 0.23348855E+03</pdfrwt>
<totfact> 0.50851238E+04</totfact>
</mgrwt>
</event>
<event>
 4    1  0.4327903E+000  0.2254552E+03  0.7546771E-02  0.1129880E+00
         21   -1    0    0  501  502  0.00000000000E+00  0.00000000000E+00  0.20701592558E+03  0.20701592558E+03  0.00000000000E+00 0. -1.
         21   -1    0    0  502  503 -0.00000000000E+00 -0.00000000000E+00 -0.27170009682E+03  0.27170009682E+03  0.00000000000E+00 0. -1.
          6    1    1    2  501    0  0.10822435041E+03 -0.95856843730E+02  0.41933937009E+02  0.22932182535E+03  0.17300000000E+03 0. -1.
         -6    1    1    2    0  503 -0.10822435041E+03  0.95856843730E+02 -0.10661810825E+03  0.24939419704E+03  0.17300000000E+03 0. -1.
<mgrwt>
<rscale>  2 0.22545519E+03</rscale>
<asrwt>0</asrwt>
<pdfrwt beam="1">  1       21 0.31848604E-01 0.22545519E+03</pdfrwt>
<pdfrwt beam="2">  1       21 0.41800015E-01 0.22545519E+03</pdfrwt>
<totfact> 0.51440365E+04</totfact>
</mgrwt>
</event>
<event>
 4    1  0.4327903E+000  0.1902169E+03  0.7546771E-02  0.1158266E+00
         21   -1    0    0  503  502  0.00000000000E+00  0.00000000000E+00  0.16026728561E+04  0.16026728561E+04  0.00000000000E+00 0. -1.
         21   -1    0    0  501  503 -0.00000000000E+00 -0.00000000000E+00 -0.55681564039E+02  0.55681564039E+02  0.00000000000E+00 0. -1.
          6    1    1    2  501    0 -0.25383600518E+02  0.74894327085E+02  0.13414382068E+03  0.23275964433E+03  0.17300000000E+03 0. -1.
         -6    1    1    2    0  502  0.25383600518E+02 -0.74894327085E+02  0.14128474714E+04  0.14255947758E+04  0.17300000000E+03 0. -1.
<mgrwt>
<rscale>  2 0.19021695E+03</rscale>
<asrwt>0</asrwt>
<pdfrwt beam="1">  1       21 0.24656502E+00 0.19021695E+03</pdfrwt>
<pdfrwt beam="2">  1       21 0.85663957E-02 0.19021695E+03</pdfrwt>
<totfact> 0.74376149E+03</totfact>
</mgrwt>
</event>
<event>
 4    1  0.4327903E+000  0.2474783E+03  0.7546771E-02  0.1114909E+00
         21   -1    0    0  503  502  0.00000000000E+00  0.00000000000E+00  0.55353497032E+03  0.55353497032E+03  0.00000000000E+00 0.  1.
         21   -1    0    0  501  503 -0.00000000000E+00 -0.00000000000E+00 -0.11692012810E+03  0.11692012810E+03  0.00000000000E+00 0. -1.
          6    1    1    2  501    0 -0.66758698958E+02 -0.16388958853E+03  0.14064184056E+03  0.28465004555E+03  0.17300000000E+03 0. -1.
         -6    1    1    2    0  502  0.66758698958E+02  0.16388958853E+03  0.29597300166E+03  0.38580505287E+03  0.17300000000E+03 0.  1.
<mgrwt>
<rscale>  2 0.24747832E+03</rscale>
<asrwt>0</asrwt>
<pdfrwt beam="1">  1       21 0.85159225E-01 0.24747832E+03</pdfrwt>
<pdfrwt beam="2">  1       21 0.17987712E-01 0.24747832E+03</pdfrwt>
<totfact> 0.32623346E+04</totfact>
</mgrwt>
</event>
<event>
 4    1  0.4327903E+000  0.2426516E+03  0.7546771E-02  0.1118039E+00
         21   -1    0    0  501  502  0.00000000000E+00  0.00000000000E+00  0.13366150462E+03  0.13366150462E+03  0.00000000000E+00 0.  1.
         21   -1    0    0  502  503 -0.00000000000E+00 -0.00000000000E+00 -0.50107983439E+03  0.50107983439E+03  0.00000000000E+00 0.  1.
          6    1    1    2  501    0  0.14462302636E+03  0.89638021755E+02 -0.73370847830E+02  0.25350162920E+03  0.17300000000E+03 0.  1.
         -6    1    1    2    0  503 -0.14462302636E+03 -0.89638021755E+02 -0.29404748194E+03  0.38123970981E+03  0.17300000000E+03 0.  1.
<mgrwt>
<rscale>  2 0.24265159E+03</rscale>
<asrwt>0</asrwt>
<pdfrwt beam="1">  1       21 0.20563309E-01 0.24265159E+03</pdfrwt>
<pdfrwt beam="2">  1       21 0.77089204E-01 0.24265159E+03</pdfrwt>
<totfact> 0.31940136E+04</totfact>
</mgrwt>
</event>
<event>
 4    1  0.4327903E+000  0.1897901E+03  0.7546771E-02  0.1158651E+00
         21   -1    0    0  501  502  0.00000000000E+00  0.00000000000E+00  0.12997707623E+03  0.12997707623E+03  0.00000000000E+00 0. -1.
         21   -1    0    0  502  503 -0.00000000000E+00 -0.00000000000E+00 -0.36814857216E+03  0.36814857216E+03  0.00000000000E+00 0. -1.
          6    1    1    2  501    0  0.70401886698E+02  0.33687605589E+02  0.47560512256E+01  0.18984967855E+03  0.17300000000E+03 0. -1.
         -6    1    1    2    0  503 -0.70401886698E+02 -0.33687605589E+02 -0.24292754715E+03  0.30827596985E+03  0.17300000000E+03 0. -1.
<mgrwt>
<rscale>  2 0.18979010E+03</rscale>
<asrwt>0</asrwt>
<pdfrwt beam="1">  1       21 0.19996473E-01 0.18979010E+03</pdfrwt>
<pdfrwt beam="2">  1       21 0.56638242E-01 0.18979010E+03</pdfrwt>
<totfact> 0.67762975E+04</totfact>
</mgrwt>
</event>
<event>
 4    1  0.4327903E+000  0.2567364E+03  0.7546771E-02  0.1109120E+00
         21   -1    0    0  501  502  0.00000000000E+00  0.00000000000E+00  0.89966763241E+02  0.89966763241E+02  0.00000000000E+00 0.  1.
         21   -1    0    0  502  503 -0.00000000000E+00 -0.00000000000E+00 -0.76996931986E+03  0.76996931986E+03  0.00000000000E+00 0.  1.
          6    1    1    2  501    0 -0.18338413263E+03  0.48526636664E+02 -0.24533321756E+03  0.35510838092E+03  0.17300000000E+03 0.  1.
         -6    1    1    2    0  503  0.18338413263E+03 -0.48526636664E+02 -0.43466933907E+03  0.50482770218E+03  0.17300000000E+03 0.  1.
<mgrwt>
<rscale>  2 0.25673639E+03</rscale>
<asrwt>0</asrwt>
<pdfrwt beam="1">  1       21 0.13841041E-01 0.25673639E+03</pdfrwt>
<pdfrwt beam="2">  1       21 0.11845682E+00 0.25673639E+03</pdfrwt>
<totfact> 0.23893935E+04</totfact>
</mgrwt>
</event>
<event>
 4    1  0.4327903E+000  0.1752143E+03  0.7546771E-02  0.1172517E+00
         21   -1    0    0  501  502  0.00000000000E+00  0.00000000000E+00  0.14897224002E+03  0.14897224002E+03  0.00000000000E+00 0. -1.
         21   -1    0    0  502  503 -0.00000000000E+00 -0.00000000000E+00 -0.46178350695E+03  0.46178350695E+03  0.00000000000E+00 0. -1.
          6    1    1    2  501    0  0.18704478184E+02 -0.20523399940E+02  0.70835763855E+02  0.18899146248E+03  0.17300000000E+03 0. -1.
         -6    1    1    2    0  503 -0.18704478184E+02  0.20523399940E+02 -0.38364703078E+03  0.42176428449E+03  0.17300000000E+03 0. -1.
<mgrwt>
<rscale>  2 0.17521435E+03</rscale>
<asrwt>0</asrwt>
<pdfrwt beam="1">  1       21 0.22918806E-01 0.17521435E+03</pdfrwt>
<pdfrwt beam="2">  1       21 0.71043615E-01 0.17521435E+03</pdfrwt>
<totfact> 0.32347551E+04</totfact>
</mgrwt>
</event>
<event>
 4    1  0.4327903E+000  0.1780436E+03  0.7546771E-02  0.1169710E+00
         21   -1    0    0  501  502  0.00000000000E+00  0.00000000000E+00  0.33738109968E+03  0.33738109968E+03  0.00000000000E+00 0.  1.
         21   -1    0    0  502  503 -0.00000000000E+00 -0.00000000000E+00 -0.11897130208E+03  0.11897130208E+03  0.00000000000E+00 0.  1.
          6    1    1    2  501    0  0.42004691222E+02  0.24722848553E+01  0.21383063724E+03  0.27824997340E+03  0.17300000000E+03 0.  1.
         -6    1    1    2    0  503 -0.42004691222E+02 -0.24722848553E+01  0.45791603605E+01  0.17810242836E+03  0.17300000000E+03 0.  1.
<mgrwt>
<rscale>  2 0.17804355E+03</rscale>
<asrwt>0</asrwt>
<pdfrwt beam="1">  1       21 0.51904784E-01 0.17804355E+03</pdfrwt>
<pdfrwt beam="2">  1       21 0.18303277E-01 0.17804355E+03</pdfrwt>
<totfact> 0.96465670E+04</totfact>
</mgrwt>
</event>
<event>
 4    1  0.4327903E+000  0.3058385E+03  0.7546771E-02  0.1082358E+00
         21   -1    0    0  503  502  0.00000000000E+00  0.00000000000E+00  0.11314185622E+04  0.11314185622E+04  0.00000000000E+00 0.  1.
         21   -1    0    0  501  503 -0.00000000000E+00 -0.00000000000E+00 -0.83086245577E+02  0.83086245577E+02  0.00000000000E+00 0.  1.
          6    1    1    2  501    0 -0.14811762791E+03 -0.20413078356E+03  0.56701784478E+03  0.64424098348E+03  0.17300000000E+03 0.  1.
         -6    1    1    2    0  502  0.14811762791E+03  0.20413078356E+03  0.48131447182E+03  0.57026382428E+03  0.17300000000E+03 0.  1.
<mgrwt>
<rscale>  2 0.30583853E+03</rscale>
<asrwt>0</asrwt>
<pdfrwt beam="1">  1       21 0.17406438E+00 0.30583853E+03</pdfrwt>
<pdfrwt beam="2">  1       21 0.12782500E-01 0.30583853E+03</pdfrwt>
<totfact> 0.97403585E+03</totfact>
</mgrwt>
</event>
<event>
 4    1  0.4327903E+000  0.2676424E+03  0.7546771E-02  0.1102637E+00
         21   -1    0    0  501  502  0.00000000000E+00  0.00000000000E+00  0.42326668348E+03  0.42326668348E+03  0.00000000000E+00 0. -1.
         21   -1    0    0  502  503 -0.00000000000E+00 -0.00000000000E+00 -0.54330698501E+03  0.54330698501E+03  0.00000000000E+00 0. -1.
          6    1    1    2  501    0  0.15379595558E+03  0.13435133423E+03  0.34099300749E+03  0.43348438048E+03  0.17300000000E+03 0. -1.
         -6    1    1    2    0  503 -0.15379595558E+03 -0.13435133423E+03 -0.46103330902E+03  0.53308928801E+03  0.17300000000E+03 0. -1.
<mgrwt>
<rscale>  2 0.26764244E+03</rscale>
<asrwt>0</asrwt>
<pdfrwt beam="1">  1       21 0.65117951E-01 0.26764244E+03</pdfrwt>
<pdfrwt beam="2">  1       21 0.83585690E-01 0.26764244E+03</pdfrwt>
<totfact> 0.25546036E+03</totfact>
</mgrwt>
</event>
<event>
 4    1  0.4327903E+000  0.4683855E+03  0.7546771E-02  0.1022377E+00
         21   -1    0    0  501  502  0.00000000000E+00  0.00000000000E+00  0.25376351171E+03  0.25376351171E+03  0.00000000000E+00 0.  1.
         21   -1    0    0  502  503 -0.00000000000E+00 -0.00000000000E+00 -0.88244045886E+03  0.88244045886E+03  0.00000000000E+00 0.  1.
          6    1    1    2  501    0  0.29463117911E+03 -0.32038793353E+03 -0.23339259933E+03  0.52331354375E+03  0.17300000000E+03 0.  1.
         -6    1    1    2    0  503 -0.29463117911E+03  0.32038793353E+03 -0.39528434783E+03  0.61289042682E+03  0.17300000000E+03 0.  1.
<mgrwt>
<rscale>  2 0.46838548E+03</rscale>
<asrwt>0</asrwt>
<pdfrwt beam="1">  1       21 0.39040540E-01 0.46838548E+03</pdfrwt>
<pdfrwt beam="2">  1       21 0.13576007E+00 0.46838548E+03</pdfrwt>
<totfact> 0.20905137E+03</totfact>
</mgrwt>
</event>
<event>
 4    1  0.4327903E+000  0.1737331E+03  0.7546771E-02  0.1174010E+00
         21   -1    0    0  501  502  0.00000000000E+00  0.00000000000E+00  0.40664144897E+03  0.40664144897E+03  0.00000000000E+00 0.  1.
         21   -1    0    0  502  503 -0.00000000000E+00 -0.00000000000E+00 -0.79031232376E+02  0.79031232376E+02  0.00000000000E+00 0.  1.
          6    1    1    2  501    0 -0.15939380707E+02  0.37380606581E+00  0.22368621130E+03  0.28322910287E+03  0.17300000000E+03 0.  1.
         -6    1    1    2    0  503  0.15939380707E+02 -0.37380606581E+00  0.10392400529E+03  0.20244357847E+03  0.17300000000E+03 0.  1.
<mgrwt>
<rscale>  2 0.17373314E+03</rscale>
<asrwt>0</asrwt>
<pdfrwt beam="1">  1       21 0.62560222E-01 0.17373314E+03</pdfrwt>
<pdfrwt beam="2">  1       21 0.12158651E-01 0.17373314E+03</pdfrwt>
<totfact> 0.13663149E+05</totfact>
</mgrwt>
</event>
<event>
 4    1  0.4327903E+000  0.2317685E+03  0.7546771E-02  0.1125401E+00
         21   -1    0    0  503  502  0.00000000000E+00  0.00000000000E+00  0.31739894127E+03  0.31739894127E+03  0.00000000000E+00 0. -1.
         21   -1    0    0  501  503 -0.00000000000E+00 -0.00000000000E+00 -0.30586690486E+03  0.30586690486E+03  0.00000000000E+00 0. -1.
          6    1    1    2  501    0 -0.14672350268E+03  0.47537692564E+02 -0.20251279569E+03  0.30777922423E+03  0.17300000000E+03 0. -1.
         -6    1    1    2    0  502  0.14672350268E+03 -0.47537692564E+02  0.21404483210E+03  0.31548662190E+03  0.17300000000E+03 0. -1.
<mgrwt>
<rscale>  2 0.23176846E+03</rscale>
<asrwt>0</asrwt>
<pdfrwt beam="1">  1       21 0.48830607E-01 0.23176846E+03</pdfrwt>
<pdfrwt beam="2">  1       21 0.47056447E-01 0.23176846E+03</pdfrwt>
<totfact> 0.16906655E+04</totfact>
</mgrwt>
</event>
<event>
 4    1  0.4327903E+000  0.2279117E+03  0.7546771E-02  0.1128118E+00
         21   -1    0    0  501  502  0.00000000000E+00  0.00000000000E+00  0.55295626871E+03  0.55295626871E+03  0.00000000000E+00 0.  1.
         21   -1    0    0  502  503 -0.00000000000E+00 -0.00000000000E+00 -0.94030232737E+02  0.94030232737E+02  0.00000000000E+00 0. -1.
          6    1    1    2  501    0 -0.99534899164E+02  0.11003439691E+03  0.23957875026E+03  0.33066862904E+03  0.17300000000E+03 0.  1.
         -6    1    1    2    0  503  0.99534899164E+02 -0.11003439691E+03  0.21934728572E+03  0.31631787241E+03  0.17300000000E+03 0. -1.
<mgrwt>
<rscale>  2 0.22791175E+03</rscale>
<asrwt>0</asrwt>
<pdfrwt beam="1">  1       21 0.85070193E-01 0.22791175E+03</pdfrwt>
<pdfrwt beam="2">  1       21 0.14466190E-01 0.22791175E+03</pdfrwt>
<totfact> 0.49267556E+04</totfact>
</mgrwt>
</event>
<event>
 4    1  0.4327903E+000  0.1801632E+03  0.7546771E-02  0.1167645E+00
         21   -1    0    0  501  502  0.00000000000E+00  0.00000000000E+00  0.10044270313E+04  0.10044270313E+04  0.00000000000E+00 0. -1.
         21   -1    0    0  502  503 -0.00000000000E+00 -0.00000000000E+00 -0.62639524856E+02  0.62639524856E+02  0.00000000000E+00 0. -1.
          6    1    1    2  501    0 -0.28218349560E+02 -0.41635363705E+02  0.84211186742E+03  0.86116849456E+03  0.17300000000E+03 0. -1.
         -6    1    1    2    0  503  0.28218349560E+02  0.41635363705E+02  0.99675639053E+02  0.20589806163E+03  0.17300000000E+03 0. -1.
<mgrwt>
<rscale>  2 0.18016320E+03</rscale>
<asrwt>0</asrwt>
<pdfrwt beam="1">  1       21 0.15452722E+00 0.18016320E+03</pdfrwt>
<pdfrwt beam="2">  1       21 0.96368507E-02 0.18016320E+03</pdfrwt>
<totfact> 0.24131684E+04</totfact>
</mgrwt>
</event>
<event>
 4    1  0.4327903E+000  0.2374748E+03  0.7546771E-02  0.1121487E+00
         21   -1    0    0  503  502  0.00000000000E+00  0.00000000000E+00  0.17946883360E+03  0.17946883360E+03  0.00000000000E+00 0.  1.
         21   -1    0    0  501  503 -0.00000000000E+00 -0.00000000000E+00 -0.32650335098E+03  0.32650335098E+03  0.00000000000E+00 0.  1.
          6    1    1    2  501    0 -0.29131748537E+02 -0.16005196571E+03 -0.12256897690E+03  0.26724042471E+03  0.17300000000E+03 0.  1.
         -6    1    1    2    0  502  0.29131748537E+02  0.16005196571E+03 -0.24465540477E+02  0.23873175987E+03  0.17300000000E+03 0.  1.
<mgrwt>
<rscale>  2 0.23747482E+03</rscale>
<asrwt>0</asrwt>
<pdfrwt beam="1">  1       21 0.27610590E-01 0.23747482E+03</pdfrwt>
<pdfrwt beam="2">  1       21 0.50231284E-01 0.23747482E+03</pdfrwt>
<totfact> 0.46264857E+04</totfact>
</mgrwt>
</event>
<event>
 4    1  0.4327903E+000  0.2346777E+03  0.7546771E-02  0.1123390E+00
         21   -1    0    0  503  502  0.00000000000E+00  0.00000000000E+00  0.42622673590E+03  0.42622673590E+03  0.00000000000E+00 0. -1.
         21   -1    0    0  501  503 -0.00000000000E+00 -0.00000000000E+00 -0.23603098985E+03  0.23603098985E+03  0.00000000000E+00 0.  1.
          6    1    1    2  501    0 -0.14349953767E+03 -0.67472176636E+02 -0.12766188796E+03  0.26715383128E+03  0.17300000000E+03 0.  1.
         -6    1    1    2    0  502  0.14349953767E+03  0.67472176636E+02  0.31785763401E+03  0.39510389447E+03  0.17300000000E+03 0. -1.
<mgrwt>
<rscale>  2 0.23467768E+03</rscale>
<asrwt>0</asrwt>
<pdfrwt beam="1">  1       21 0.65573344E-01 0.23467768E+03</pdfrwt>
<pdfrwt beam="2">  1       21 0.36312460E-01 0.23467768E+03</pdfrwt>
<totfact> 0.15250028E+04</totfact>
</mgrwt>
</event>
<event>
 4    1  0.4327903E+000  0.3993742E+03  0.7546771E-02  0.1043997E+00
         21   -1    0    0  501  502  0.00000000000E+00  0.00000000000E+00  0.28570986105E+03  0.28570986105E+03  0.00000000000E+00 0.  1.
         21   -1    0    0  502  503 -0.00000000000E+00 -0.00000000000E+00 -0.14288700658E+04  0.14288700658E+04  0.00000000000E+00 0. -1.
          6    1    1    2  501    0  0.30729889802E+03  0.18745172271E+03  0.97601139850E+02  0.41112740552E+03  0.17300000000E+03 0.  1.
         -6    1    1    2    0  503 -0.30729889802E+03 -0.18745172271E+03 -0.12407613446E+04  0.13034525213E+04  0.17300000000E+03 0. -1.
<mgrwt>
<rscale>  2 0.39937421E+03</rscale>
<asrwt>0</asrwt>
<pdfrwt beam="1">  1       21 0.43955363E-01 0.39937421E+03</pdfrwt>
<pdfrwt beam="2">  1       21 0.21982616E+00 0.39937421E+03</pdfrwt>
<totfact> 0.42037203E+02</totfact>
</mgrwt>
</event>
<event>
 4    1  0.4327903E+000  0.1798040E+03  0.7546771E-02  0.1167993E+00
         21   -1    0    0  501  502  0.00000000000E+00  0.00000000000E+00  0.74057866333E+02  0.74057866333E+02  0.00000000000E+00 0. -1.
         21   -1    0    0  502  503 -0.00000000000E+00 -0.00000000000E+00 -0.44714162274E+03  0.44714162274E+03  0.00000000000E+00 0. -1.
          6    1    1    2  501    0 -0.43405972094E+01  0.48802163880E+02 -0.14642171964E+03  0.23188102976E+03  0.17300000000E+03 0. -1.
         -6    1    1    2    0  503  0.43405972094E+01 -0.48802163880E+02 -0.22666203677E+03  0.28931845931E+03  0.17300000000E+03 0. -1.
<mgrwt>
<rscale>  2 0.17980404E+03</rscale>
<asrwt>0</asrwt>
<pdfrwt beam="1">  1       21 0.11393518E-01 0.17980404E+03</pdfrwt>
<pdfrwt beam="2">  1       21 0.68791019E-01 0.17980404E+03</pdfrwt>
<totfact> 0.12452039E+05</totfact>
</mgrwt>
</event>
<event>
 4    1  0.4327903E+000  0.1801439E+03  0.7546771E-02  0.1167664E+00
         21   -1    0    0  503  502  0.00000000000E+00  0.00000000000E+00  0.58850031047E+03  0.58850031047E+03  0.00000000000E+00 0. -1.
         21   -1    0    0  501  503 -0.00000000000E+00 -0.00000000000E+00 -0.72842822535E+02  0.72842822535E+02  0.00000000000E+00 0. -1.
          6    1    1    2  501    0 -0.11358831157E+02 -0.48926654706E+02  0.94829937488E+02  0.20357936445E+03  0.17300000000E+03 0. -1.
         -6    1    1    2    0  502  0.11358831157E+02  0.48926654706E+02  0.42082755044E+03  0.45776376855E+03  0.17300000000E+03 0. -1.
<mgrwt>
<rscale>  2 0.18014394E+03</rscale>
<asrwt>0</asrwt>
<pdfrwt beam="1">  1       21 0.90538506E-01 0.18014394E+03</pdfrwt>
<pdfrwt beam="2">  1       21 0.11206588E-01 0.18014394E+03</pdfrwt>
<totfact> 0.69087170E+04</totfact>
</mgrwt>
</event>
<event>
 4    1  0.4327903E+000  0.2970054E+03  0.7546771E-02  0.1086747E+00
         21   -1    0    0  501  502  0.00000000000E+00  0.00000000000E+00  0.30781391362E+03  0.30781391362E+03  0.00000000000E+00 0. -1.
         21   -1    0    0  502  503 -0.00000000000E+00 -0.00000000000E+00 -0.32285695215E+03  0.32285695215E+03  0.00000000000E+00 0. -1.
          6    1    1    2  501    0  0.17225035436E+03  0.16915386348E+03  0.98185647952E+02  0.31281405910E+03  0.17300000000E+03 0. -1.
         -6    1    1    2    0  503 -0.17225035436E+03 -0.16915386348E+03 -0.11322868648E+03  0.31785680667E+03  0.17300000000E+03 0. -1.
<mgrwt>
<rscale>  2 0.29700541E+03</rscale>
<asrwt>0</asrwt>
<pdfrwt beam="1">  1       21 0.47355987E-01 0.29700541E+03</pdfrwt>
<pdfrwt beam="2">  1       21 0.49670300E-01 0.29700541E+03</pdfrwt>
<totfact> 0.15608548E+04</totfact>
</mgrwt>
</event>
<event>
 4    1  0.4327903E+000  0.1978064E+03  0.7546771E-02  0.1151603E+00
         21   -1    0    0  503  502  0.00000000000E+00  0.00000000000E+00  0.92351659765E+03  0.92351659765E+03  0.00000000000E+00 0. -1.
         21   -1    0    0  501  503 -0.00000000000E+00 -0.00000000000E+00 -0.48599494005E+02  0.48599494005E+02  0.00000000000E+00 0. -1.
          6    1    1    2  501    0 -0.95498624531E+02 -0.88543163089E+01  0.26340833068E+03  0.32941058707E+03  0.17300000000E+03 0. -1.
         -6    1    1    2    0  502  0.95498624531E+02  0.88543163089E+01  0.61150877296E+03  0.64270550458E+03  0.17300000000E+03 0. -1.
<mgrwt>
<rscale>  2 0.19780644E+03</rscale>
<asrwt>0</asrwt>
<pdfrwt beam="1">  1       21 0.14207946E+00 0.19780644E+03</pdfrwt>
<pdfrwt beam="2">  1       21 0.74768459E-02 0.19780644E+03</pdfrwt>
<totfact> 0.46349142E+04</totfact>
</mgrwt>
</event>
<event>
 4    1  0.4327903E+000  0.2235267E+03  0.7546771E-02  0.1131281E+00
         21   -1    0    0  501  502  0.00000000000E+00  0.00000000000E+00  0.13053596875E+03  0.13053596875E+03  0.00000000000E+00 0.  1.
         21   -1    0    0  502  503 -0.00000000000E+00 -0.00000000000E+00 -0.42100159018E+03  0.42100159018E+03  0.00000000000E+00 0.  1.
          6    1    1    2  501    0  0.76147930769E+02  0.11931750168E+03 -0.62121264543E+02  0.23199832990E+03  0.17300000000E+03 0.  1.
         -6    1    1    2    0  503 -0.76147930769E+02 -0.11931750168E+03 -0.22834435688E+03  0.31953922903E+03  0.17300000000E+03 0.  1.
<mgrwt>
<rscale>  2 0.22352667E+03</rscale>
<asrwt>0</asrwt>
<pdfrwt beam="1">  1       21 0.20082457E-01 0.22352667E+03</pdfrwt>
<pdfrwt beam="2">  1       21 0.64769476E-01 0.22352667E+03</pdfrwt>
<totfact> 0.49577480E+04</totfact>
</mgrwt>
</event>
<event>
 4    1  0.4327903E+000  0.2225514E+03  0.7546771E-02  0.1131995E+00
         21   -1    0    0  501  502  0.00000000000E+00  0.00000000000E+00  0.34944432132E+02  0.34944432132E+02  0.00000000000E+00 0. -1.
         21   -1    0    0  502  503 -0.00000000000E+00 -0.00000000000E+00 -0.20212749865E+04  0.20212749865E+04  0.00000000000E+00 0. -1.
          6    1    1    2  501    0  0.42646376480E+02 -0.13334697665E+03 -0.15551334070E+04  0.15709770982E+04  0.17300000000E+03 0. -1.
         -6    1    1    2    0  503 -0.42646376480E+02  0.13334697665E+03 -0.43119714739E+03  0.48524232042E+03  0.17300000000E+03 0. -1.
<mgrwt>
<rscale>  2 0.22255141E+03</rscale>
<asrwt>0</asrwt>
<pdfrwt beam="1">  1       21 0.53760671E-02 0.22255141E+03</pdfrwt>
<pdfrwt beam="2">  1       21 0.31096535E+00 0.22255141E+03</pdfrwt>
<totfact> 0.67956769E+03</totfact>
</mgrwt>
</event>
<event>
 4    1  0.4327903E+000  0.2308394E+03  0.7546771E-02  0.1126050E+00
         21   -1    0    0  501  502  0.00000000000E+00  0.00000000000E+00  0.32631200156E+03  0.32631200156E+03  0.00000000000E+00 0.  1.
         21   -1    0    0  502  503 -0.00000000000E+00 -0.00000000000E+00 -0.50942743065E+03  0.50942743065E+03  0.00000000000E+00 0. -1.
          6    1    1    2  501    0 -0.40153204141E+02 -0.14746374566E+03  0.25288545616E+03  0.34240018987E+03  0.17300000000E+03 0.  1.
         -6    1    1    2    0  503  0.40153204141E+02  0.14746374566E+03 -0.43600088525E+03  0.49333924233E+03  0.17300000000E+03 0. -1.
<mgrwt>
<rscale>  2 0.23083942E+03</rscale>
<asrwt>0</asrwt>
<pdfrwt beam="1">  1       21 0.50201846E-01 0.23083942E+03</pdfrwt>
<pdfrwt beam="2">  1       21 0.78373451E-01 0.23083942E+03</pdfrwt>
<totfact> 0.52936217E+03</totfact>
</mgrwt>
</event>
<event>
 4    1  0.4327903E+000  0.2313379E+03  0.7546771E-02  0.1125702E+00
         21   -1    0    0  503  502  0.00000000000E+00  0.00000000000E+00  0.41872244183E+03  0.41872244183E+03  0.00000000000E+00 0. -1.
         21   -1    0    0  501  503 -0.00000000000E+00 -0.00000000000E+00 -0.13194378947E+03  0.13194378947E+03  0.00000000000E+00 0. -1.
          6    1    1    2  501    0 -0.13274419720E+03 -0.77247599238E+02  0.94658840672E+02  0.24995501514E+03  0.17300000000E+03 0. -1.
         -6    1    1    2    0  502  0.13274419720E+03  0.77247599238E+02  0.19211981169E+03  0.30071121616E+03  0.17300000000E+03 0. -1.
<mgrwt>
<rscale>  2 0.23133788E+03</rscale>
<asrwt>0</asrwt>
<pdfrwt beam="1">  1       21 0.64418836E-01 0.23133788E+03</pdfrwt>
<pdfrwt beam="2">  1       21 0.20299045E-01 0.23133788E+03</pdfrwt>
<totfact> 0.48999713E+04</totfact>
</mgrwt>
</event>
<event>
 4    1  0.4327903E+000  0.1816349E+03  0.7546771E-02  0.1166230E+00
         21   -1    0    0  501  502  0.00000000000E+00  0.00000000000E+00  0.74126730473E+02  0.74126730473E+02  0.00000000000E+00 0. -1.
         21   -1    0    0  502  503 -0.00000000000E+00 -0.00000000000E+00 -0.47794810289E+03  0.47794810289E+03  0.00000000000E+00 0. -1.
          6    1    1    2  501    0  0.44141340327E+02  0.33373357515E+02 -0.12950683010E+03  0.22307679834E+03  0.17300000000E+03 0. -1.
         -6    1    1    2    0  503 -0.44141340327E+02 -0.33373357515E+02 -0.27431454232E+03  0.32899803502E+03  0.17300000000E+03 0. -1.
<mgrwt>
<rscale>  2 0.18163491E+03</rscale>
<asrwt>0</asrwt>
<pdfrwt beam="1">  1       21 0.11404112E-01 0.18163491E+03</pdfrwt>
<pdfrwt beam="2">  1       21 0.73530477E-01 0.18163491E+03</pdfrwt>
<totfact> 0.10723923E+05</totfact>
</mgrwt>
</event>
<event>
 4    1  0.4327903E+000  0.2577104E+03  0.7546771E-02  0.1108527E+00
         21   -1    0    0  501  502  0.00000000000E+00  0.00000000000E+00  0.98520932021E+03  0.98520932021E+03  0.00000000000E+00 0. -1.
         21   -1    0    0  502  503 -0.00000000000E+00 -0.00000000000E+00 -0.67693099865E+02  0.67693099865E+02  0.00000000000E+00 0.  1.
          6    1    1    2  501    0  0.18481988900E+03  0.48241715086E+02  0.49269974374E+03  0.55602849920E+03  0.17300000000E+03 0. -1.
         -6    1    1    2    0  503 -0.18481988900E+03 -0.48241715086E+02  0.42481647661E+03  0.49687392087E+03  0.17300000000E+03 0.  1.
<mgrwt>
<rscale>  2 0.25771041E+03</rscale>
<asrwt>0</asrwt>
<pdfrwt beam="1">  1       21 0.15157065E+00 0.25771041E+03</pdfrwt>
<pdfrwt beam="2">  1       21 0.10414324E-01 0.25771041E+03</pdfrwt>
<totfact> 0.21124711E+04</totfact>
</mgrwt>
</event>
<event>
 4    1  0.4327903E+000  0.2507740E+03  0.7546771E-02  0.1112817E+00
         21   -1    0    0  503  502  0.00000000000E+00  0.00000000000E+00  0.75138590175E+03  0.75138590175E+03  0.00000000000E+00 0. -1.
         21   -1    0    0  501  503 -0.00000000000E+00 -0.00000000000E+00 -0.17644859044E+03  0.17644859044E+03  0.00000000000E+00 0.  1.
          6    1    1    2  501    0 -0.11709266342E+03  0.13873688003E+03 -0.48884596436E+02  0.25549426114E+03  0.17300000000E+03 0.  1.
         -6    1    1    2    0  502  0.11709266342E+03 -0.13873688003E+03  0.62382190774E+03  0.67234023105E+03  0.17300000000E+03 0. -1.
<mgrwt>
<rscale>  2 0.25077403E+03</rscale>
<asrwt>0</asrwt>
<pdfrwt beam="1">  1       21 0.11559783E+00 0.25077403E+03</pdfrwt>
<pdfrwt beam="2">  1       21 0.27145937E-01 0.25077403E+03</pdfrwt>
<totfact> 0.71961807E+03</totfact>
</mgrwt>
</event>
<event>
 4    1  0.4327903E+000  0.2141561E+03  0.7546771E-02  0.1138316E+00
         21   -1    0    0  501  502  0.00000000000E+00  0.00000000000E+00  0.13778724038E+03  0.13778724038E+03  0.00000000000E+00 0. -1.
         21   -1    0    0  502  503 -0.00000000000E+00 -0.00000000000E+00 -0.34654164382E+03  0.34654164382E+03  0.00000000000E+00 0. -1.
          6    1    1    2  501    0  0.11432966633E+03  0.53502770414E+02 -0.15250785617E+03  0.26290961420E+03  0.17300000000E+03 0. -1.
         -6    1    1    2    0  503 -0.11432966633E+03 -0.53502770414E+02 -0.56246547272E+02  0.22141926999E+03  0.17300000000E+03 0. -1.
<mgrwt>
<rscale>  2 0.21415606E+03</rscale>
<asrwt>0</asrwt>
<pdfrwt beam="1">  1       21 0.21198038E-01 0.21415606E+03</pdfrwt>
<pdfrwt beam="2">  1       21 0.53314098E-01 0.21415606E+03</pdfrwt>
<totfact> 0.68296269E+04</totfact>
</mgrwt>
</event>
<event>
 4    1  0.4327903E+000  0.2170380E+03  0.7546771E-02  0.1136111E+00
         21   -1    0    0  503  502  0.00000000000E+00  0.00000000000E+00  0.95103872531E+03  0.95103872531E+03  0.00000000000E+00 0.  1.
         21   -1    0    0  501  503 -0.00000000000E+00 -0.00000000000E+00 -0.50941862757E+02  0.50941862757E+02  0.00000000000E+00 0.  1.
          6    1    1    2  501    0  0.11048788071E+03  0.70490557929E+02  0.36666103844E+03  0.42608192598E+03  0.17300000000E+03 0.  1.
         -6    1    1    2    0  502 -0.11048788071E+03 -0.70490557929E+02  0.53343582411E+03  0.57589866208E+03  0.17300000000E+03 0.  1.
<mgrwt>
<rscale>  2 0.21703799E+03</rscale>
<asrwt>0</asrwt>
<pdfrwt beam="1">  1       21 0.14631364E+00 0.21703799E+03</pdfrwt>
<pdfrwt beam="2">  1       21 0.78372104E-02 0.21703799E+03</pdfrwt>
<totfact> 0.39127876E+04</totfact>
</mgrwt>
</event>
<event>
 4    1  0.4327903E+000  0.1857039E+03  0.7546771E-02  0.1162394E+00
         21   -1    0    0  503  502  0.00000000000E+00  0.00000000000E+00  0.64831584633E+03  0.64831584633E+03  0.00000000000E+00 0.  1.
         21   -1    0    0  501  503 -0.00000000000E+00 -0.00000000000E+00 -0.88834211832E+02  0.88834211832E+02  0.00000000000E+00 0.  1.
          6    1    1    2  501    0  0.67455226036E+02 -0.25920160406E+01  0.46281378508E+02  0.19138414789E+03  0.17300000000E+03 0.  1.
         -6    1    1    2    0  502 -0.67455226036E+02  0.25920160406E+01  0.51320025599E+03  0.54576591027E+03  0.17300000000E+03 0.  1.
<mgrwt>
<rscale>  2 0.18570387E+03</rscale>
<asrwt>0</asrwt>
<pdfrwt beam="1">  1       21 0.99740896E-01 0.18570387E+03</pdfrwt>
<pdfrwt beam="2">  1       21 0.13666802E-01 0.18570387E+03</pdfrwt>
<totfact> 0.38506077E+04</totfact>
</mgrwt>
</event>
<event>
 4    1  0.4327903E+000  0.4570652E+03  0.7546771E-02  0.1025636E+00
         21   -1    0    0  501  502  0.00000000000E+00  0.00000000000E+00  0.23641707784E+03  0.23641707784E+03  0.00000000000E+00 0. -1.
         21   -1    0    0  502  503 -0.00000000000E+00 -0.00000000000E+00 -0.11547297071E+04  0.11547297071E+04  0.00000000000E+00 0.  1.
          6    1    1    2  501    0 -0.40044433174E+03 -0.13646957409E+03 -0.12213618075E+03  0.47310237172E+03  0.17300000000E+03 0. -1.
         -6    1    1    2    0  503  0.40044433174E+03  0.13646957409E+03 -0.79617644848E+03  0.91804441319E+03  0.17300000000E+03 0.  1.
<mgrwt>
<rscale>  2 0.45706521E+03</rscale>
<asrwt>0</asrwt>
<pdfrwt beam="1">  1       21 0.36371859E-01 0.45706521E+03</pdfrwt>
<pdfrwt beam="2">  1       21 0.17765072E+00 0.45706521E+03</pdfrwt>
<totfact> 0.11552138E+03</totfact>
</mgrwt>
</event>
<event>
 4    1  0.4327903E+000  0.2161914E+03  0.7546771E-02  0.1136755E+00
         21   -1    0    0  501  502  0.00000000000E+00  0.00000000000E+00  0.13413708367E+04  0.13413708367E+04  0.00000000000E+00 0. -1.
         21   -1    0    0  502  503 -0.00000000000E+00 -0.00000000000E+00 -0.36146062881E+02  0.36146062881E+02  0.00000000000E+00 0.  1.
          6    1    1    2  501    0 -0.12597280935E+03  0.30668601558E+02  0.78333602078E+03  0.81262170367E+03  0.17300000000E+03 0. -1.
         -6    1    1    2    0  503  0.12597280935E+03 -0.30668601558E+02  0.52188875302E+03  0.56489519590E+03  0.17300000000E+03 0.  1.
<mgrwt>
<rscale>  2 0.21619138E+03</rscale>
<asrwt>0</asrwt>
<pdfrwt beam="1">  1       21 0.20636471E+00 0.21619138E+03</pdfrwt>
<pdfrwt beam="2">  1       21 0.55609338E-02 0.21619138E+03</pdfrwt>
<totfact> 0.26999523E+04</totfact>
</mgrwt>
</event>
<event>
 4    1  0.4327903E+000  0.1780143E+03  0.7546771E-02  0.1169739E+00
         21   -1    0    0  501  502  0.00000000000E+00  0.00000000000E+00  0.19464181440E+04  0.19464181440E+04  0.00000000000E+00 0.  1.
         21   -1    0    0  502  503 -0.00000000000E+00 -0.00000000000E+00 -0.23983590893E+02  0.23983590893E+02  0.00000000000E+00 0.  1.
          6    1    1    2  501    0  0.41665819388E+02  0.49042937945E+01  0.15195510978E+04  0.15299426890E+04  0.17300000000E+03 0.  1.
         -6    1    1    2    0  503 -0.41665819388E+02 -0.49042937945E+01  0.40288345527E+03  0.44045904592E+03  0.17300000000E+03 0.  1.
<mgrwt>
<rscale>  2 0.17801430E+03</rscale>
<asrwt>0</asrwt>
<pdfrwt beam="1">  1       21 0.29944882E+00 0.17801430E+03</pdfrwt>
<pdfrwt beam="2">  1       21 0.36897847E-02 0.17801430E+03</pdfrwt>
<totfact> 0.15664622E+04</totfact>
</mgrwt>
</event>
<event>
 4    1  0.4327903E+000  0.3098284E+03  0.7546771E-02  0.1080428E+00
         21   -1    0    0  501  502  0.00000000000E+00  0.00000000000E+00  0.12062566507E+03  0.12062566507E+03  0.00000000000E+00 0.  1.
         21   -1    0    0  502  503 -0.00000000000E+00 -0.00000000000E+00 -0.90919675031E+03  0.90919675031E+03  0.00000000000E+00 0. -1.
          6    1    1    2  501    0  0.51077952532E+02  0.25190415132E+03 -0.57613315802E+03  0.65415829465E+03  0.17300000000E+03 0.  1.
         -6    1    1    2    0  503 -0.51077952532E+02 -0.25190415132E+03 -0.21243792721E+03  0.37566412073E+03  0.17300000000E+03 0. -1.
<mgrwt>
<rscale>  2 0.30982843E+03</rscale>
<asrwt>0</asrwt>
<pdfrwt beam="1">  1       21 0.18557795E-01 0.30982843E+03</pdfrwt>
<pdfrwt beam="2">  1       21 0.13987642E+00 0.30982843E+03</pdfrwt>
<totfact> 0.88632920E+03</totfact>
</mgrwt>
</event>
<event>
 4    1  0.4327903E+000  0.2270435E+03  0.7546771E-02  0.1128738E+00
         21   -1    0    0  501  502  0.00000000000E+00  0.00000000000E+00  0.33478212683E+03  0.33478212683E+03  0.00000000000E+00 0.  1.
         21   -1    0    0  502  503 -0.00000000000E+00 -0.00000000000E+00 -0.22237453580E+03  0.22237453580E+03  0.00000000000E+00 0.  1.
          6    1    1    2  501    0 -0.11765883249E+03  0.88182373911E+02  0.21070262061E+03  0.30974881156E+03  0.17300000000E+03 0.  1.
         -6    1    1    2    0  503  0.11765883249E+03 -0.88182373911E+02 -0.98295029587E+02  0.24740785107E+03  0.17300000000E+03 0.  1.
<mgrwt>
<rscale>  2 0.22704346E+03</rscale>
<asrwt>0</asrwt>
<pdfrwt beam="1">  1       21 0.51504943E-01 0.22704346E+03</pdfrwt>
<pdfrwt beam="2">  1       21 0.34211467E-01 0.22704346E+03</pdfrwt>
<totfact> 0.28952701E+04</totfact>
</mgrwt>
</event>
<event>
 4    1  0.4327903E+000  0.1805803E+03  0.7546771E-02  0.1167243E+00
         21   -1    0    0  503  502  0.00000000000E+00  0.00000000000E+00  0.52032033743E+02  0.52032033743E+02  0.00000000000E+00 0. -1.
         21   -1    0    0  501  503 -0.00000000000E+00 -0.00000000000E+00 -0.67268676254E+03  0.67268676254E+03  0.00000000000E+00 0. -1.
          6    1    1    2  501    0 -0.41096623558E+02 -0.31485148694E+02 -0.40505560707E+03  0.44348539082E+03  0.17300000000E+03 0. -1.
         -6    1    1    2    0  502  0.41096623558E+02  0.31485148694E+02 -0.21559912173E+03  0.28123340546E+03  0.17300000000E+03 0. -1.
<mgrwt>
<rscale>  2 0.18058031E+03</rscale>
<asrwt>0</asrwt>
<pdfrwt beam="1">  1       21 0.80049285E-02 0.18058031E+03</pdfrwt>
<pdfrwt beam="2">  1       21 0.10349027E+00 0.18058031E+03</pdfrwt>
<totfact> 0.91143685E+04</totfact>
</mgrwt>
</event>
<event>
 4    1  0.4327903E+000  0.2513525E+03  0.7546771E-02  0.1112453E+00
         21   -1    0    0  503  502  0.00000000000E+00  0.00000000000E+00  0.55393584435E+02  0.55393584435E+02  0.00000000000E+00 0.  1.
         21   -1    0    0  501  503 -0.00000000000E+00 -0.00000000000E+00 -0.13696290278E+04  0.13696290278E+04  0.00000000000E+00 0. -1.
          6    1    1    2  501    0 -0.15047360167E+03  0.10298919251E+03 -0.94852562786E+03  0.98126395291E+03  0.17300000000E+03 0. -1.
         -6    1    1    2    0  502  0.15047360167E+03 -0.10298919251E+03 -0.36570981554E+03  0.44375865936E+03  0.17300000000E+03 0.  1.
<mgrwt>
<rscale>  2 0.25135250E+03</rscale>
<asrwt>0</asrwt>
<pdfrwt beam="1">  1       21 0.85220906E-02 0.25135250E+03</pdfrwt>
<pdfrwt beam="2">  1       21 0.21071214E+00 0.25135250E+03</pdfrwt>
<totfact> 0.11808202E+04</totfact>
</mgrwt>
</event>
<event>
 4    1  0.4327903E+000  0.3301601E+03  0.7546771E-02  0.1071066E+00
         21   -1    0    0  503  502  0.00000000000E+00  0.00000000000E+00  0.11566671314E+04  0.11566671314E+04  0.00000000000E+00 0. -1.
         21   -1    0    0  501  503 -0.00000000000E+00 -0.00000000000E+00 -0.26916947721E+03  0.26916947721E+03  0.00000000000E+00 0.  1.
          6    1    1    2  501    0  0.21862401743E+03  0.17686224832E+03 -0.13097188763E+03  0.35518917668E+03  0.17300000000E+03 0.  1.
         -6    1    1    2    0  502 -0.21862401743E+03 -0.17686224832E+03  0.10184695418E+04  0.10706474319E+04  0.17300000000E+03 0. -1.
<mgrwt>
<rscale>  2 0.33016014E+03</rscale>
<asrwt>0</asrwt>
<pdfrwt beam="1">  1       21 0.17794879E+00 0.33016014E+03</pdfrwt>
<pdfrwt beam="2">  1       21 0.41410689E-01 0.33016014E+03</pdfrwt>
<totfact> 0.94159741E+02</totfact>
</mgrwt>
</event>
<event>
 4    1  0.4327903E+000  0.1920214E+03  0.7546771E-02  0.1156651E+00
         21   -1    0    0  501  502  0.00000000000E+00  0.00000000000E+00  0.74891687286E+03  0.74891687286E+03  0.00000000000E+00 0.  1.
         21   -1    0    0  502  503 -0.00000000000E+00 -0.00000000000E+00 -0.49269486470E+02  0.49269486470E+02  0.00000000000E+00 0.  1.
          6    1    1    2  501    0  0.79887420244E+02 -0.23690334319E+02  0.36052256262E+03  0.40847123523E+03  0.17300000000E+03 0.  1.
         -6    1    1    2    0  503 -0.79887420244E+02  0.23690334319E+02  0.33912482377E+03  0.38971512410E+03  0.17300000000E+03 0.  1.
<mgrwt>
<rscale>  2 0.19202144E+03</rscale>
<asrwt>0</asrwt>
<pdfrwt beam="1">  1       21 0.11521797E+00 0.19202144E+03</pdfrwt>
<pdfrwt beam="2">  1       21 0.75799215E-02 0.19202144E+03</pdfrwt>
<totfact> 0.76936132E+04</totfact>
</mgrwt>
</event>
<event>
 4    1  0.4327903E+000  0.1921600E+03  0.7546771E-02  0.1156527E+00
         21   -1    0    0  501  502  0.00000000000E+00  0.00000000000E+00  0.21105338233E+03  0.21105338233E+03  0.00000000000E+00 0. -1.
         21   -1    0    0  502  503 -0.00000000000E+00 -0.00000000000E+00 -0.71431350520E+03  0.71431350520E+03  0.00000000000E+00 0. -1.
          6    1    1    2  501    0 -0.60846334279E+02  0.57394934092E+02  0.15041722038E+03  0.24403031583E+03  0.17300000000E+03 0. -1.
         -6    1    1    2    0  503  0.60846334279E+02 -0.57394934092E+02 -0.65367734326E+03  0.68133657170E+03  0.17300000000E+03 0. -1.
<mgrwt>
<rscale>  2 0.19215997E+03</rscale>
<asrwt>0</asrwt>
<pdfrwt beam="1">  1       21 0.32469751E-01 0.19215997E+03</pdfrwt>
<pdfrwt beam="2">  1       21 0.10989439E+00 0.19215997E+03</pdfrwt>
<totfact> 0.59774178E+03</totfact>
</mgrwt>
</event>
<event>
 4    1  0.4327903E+000  0.2419287E+03  0.7546771E-02  0.1118515E+00
         21   -1    0    0  501  502  0.00000000000E+00  0.00000000000E+00  0.14709440823E+04  0.14709440823E+04  0.00000000000E+00 0. -1.
         21   -1    0    0  502  503 -0.00000000000E+00 -0.00000000000E+00 -0.50142731888E+02  0.50142731888E+02  0.00000000000E+00 0.  1.
          6    1    1    2  501    0 -0.46281858555E+02  0.16266069488E+03  0.36482889780E+03  0.43775522471E+03  0.17300000000E+03 0.  1.
         -6    1    1    2    0  503  0.46281858555E+02 -0.16266069488E+03  0.10559724526E+04  0.10833315895E+04  0.17300000000E+03 0.  1.
<mgrwt>
<rscale>  2 0.24192873E+03</rscale>
<asrwt>0</asrwt>
<pdfrwt beam="1">  1       21 0.22629906E+00 0.24192873E+03</pdfrwt>
<pdfrwt beam="2">  1       21 0.77142675E-02 0.24192873E+03</pdfrwt>
<totfact> 0.11312215E+04</totfact>
</mgrwt>
</event>
<event>
 4    1  0.4327903E+000  0.2305561E+03  0.7546771E-02  0.1126249E+00
         21   -1    0    0  501  502  0.00000000000E+00  0.00000000000E+00  0.58685336468E+03  0.58685336468E+03  0.00000000000E+00 0. -1.
         21   -1    0    0  502  503 -0.00000000000E+00 -0.00000000000E+00 -0.12280222596E+03  0.12280222596E+03  0.00000000000E+00 0. -1.
          6    1    1    2  501    0 -0.61197009699E+02  0.13957816120E+03  0.41378804657E+03  0.47368416119E+03  0.17300000000E+03 0. -1.
         -6    1    1    2    0  503  0.61197009699E+02 -0.13957816120E+03  0.50263092153E+02  0.23597142944E+03  0.17300000000E+03 0. -1.
<mgrwt>
<rscale>  2 0.23055615E+03</rscale>
<asrwt>0</asrwt>
<pdfrwt beam="1">  1       21 0.90285132E-01 0.23055615E+03</pdfrwt>
<pdfrwt beam="2">  1       21 0.18892650E-01 0.23055615E+03</pdfrwt>
<totfact> 0.26213850E+04</totfact>
</mgrwt>
</event>
<event>
 4    1  0.4327903E+000  0.2011675E+03  0.7546771E-02  0.1148758E+00
         21   -1    0    0  503  502  0.00000000000E+00  0.00000000000E+00  0.78792567927E+03  0.78792567927E+03  0.00000000000E+00 0. -1.
         21   -1    0    0  501  503 -0.00000000000E+00 -0.00000000000E+00 -0.75798804369E+02  0.75798804369E+02  0.00000000000E+00 0. -1.
          6    1    1    2  501    0 -0.85308000384E+02 -0.57113007138E+02  0.11084758885E+03  0.22968573850E+03  0.17300000000E+03 0. -1.
         -6    1    1    2    0  502  0.85308000384E+02  0.57113007138E+02  0.60127928604E+03  0.63403874514E+03  0.17300000000E+03 0. -1.
<mgrwt>
<rscale>  2 0.20116747E+03</rscale>
<asrwt>0</asrwt>
<pdfrwt beam="1">  1       21 0.12121933E+00 0.20116747E+03</pdfrwt>
<pdfrwt beam="2">  1       21 0.11661355E-01 0.20116747E+03</pdfrwt>
<totfact> 0.31649482E+04</totfact>
</mgrwt>
</event>
<event>
 4    1  0.4327903E+000  0.3416444E+03  0.7546771E-02  0.1066098E+00
         21   -1    0    0  501  502  0.00000000000E+00  0.00000000000E+00  0.45805817943E+03  0.45805817943E+03  0.00000000000E+00 0. -1.
         21   -1    0    0  502  503 -0.00000000000E+00 -0.00000000000E+00 -0.37530183760E+03  0.37530183760E+03  0.00000000000E+00 0. -1.
          6    1    1    2  501    0 -0.27058937905E+03 -0.11650447197E+03  0.27746890279E+03  0.44012486417E+03  0.17300000000E+03 0. -1.
         -6    1    1    2    0  503  0.27058937905E+03  0.11650447197E+03 -0.19471256096E+03  0.39323515286E+03  0.17300000000E+03 0. -1.
<mgrwt>
<rscale>  2 0.34164441E+03</rscale>
<asrwt>0</asrwt>
<pdfrwt beam="1">  1       21 0.70470488E-01 0.34164441E+03</pdfrwt>
<pdfrwt beam="2">  1       21 0.57738745E-01 0.34164441E+03</pdfrwt>
<totfact> 0.47020816E+03</totfact>
</mgrwt>
</event>
<event>
 4    1  0.4327903E+000  0.2097522E+03  0.7546771E-02  0.1141762E+00
         21   -1    0    0  503  502  0.00000000000E+00  0.00000000000E+00  0.56331577763E+02  0.56331577763E+02  0.00000000000E+00 0.  1.
         21   -1    0    0  501  503 -0.00000000000E+00 -0.00000000000E+00 -0.78723091983E+03  0.78723091983E+03  0.00000000000E+00 0.  1.
          6    1    1    2  501    0 -0.11658314029E+03  0.21802624675E+02 -0.32798000462E+03  0.38931589548E+03  0.17300000000E+03 0.  1.
         -6    1    1    2    0  502  0.11658314029E+03 -0.21802624675E+02 -0.40291933745E+03  0.45424660212E+03  0.17300000000E+03 0.  1.
<mgrwt>
<rscale>  2 0.20975219E+03</rscale>
<asrwt>0</asrwt>
<pdfrwt beam="1">  1       21 0.86663967E-02 0.20975219E+03</pdfrwt>
<pdfrwt beam="2">  1       21 0.12111245E+00 0.20975219E+03</pdfrwt>
<totfact> 0.53389512E+04</totfact>
</mgrwt>
</event>
<event>
 4    1  0.4327903E+000  0.2457297E+03  0.7546771E-02  0.1116034E+00
         21   -1    0    0  503  502  0.00000000000E+00  0.00000000000E+00  0.71177586886E+02  0.71177586886E+02  0.00000000000E+00 0.  1.
         21   -1    0    0  501  503 -0.00000000000E+00 -0.00000000000E+00 -0.12109125284E+04  0.12109125284E+04  0.00000000000E+00 0. -1.
          6    1    1    2  501    0 -0.17380189755E+03 -0.15716373426E+02 -0.92064115940E+03  0.95287105548E+03  0.17300000000E+03 0. -1.
         -6    1    1    2    0  502  0.17380189755E+03  0.15716373426E+02 -0.21909378213E+03  0.32921905983E+03  0.17300000000E+03 0.  1.
<mgrwt>
<rscale>  2 0.24572974E+03</rscale>
<asrwt>0</asrwt>
<pdfrwt beam="1">  1       21 0.10950398E-01 0.24572974E+03</pdfrwt>
<pdfrwt beam="2">  1       21 0.18629424E+00 0.24572974E+03</pdfrwt>
<totfact> 0.10967697E+04</totfact>
</mgrwt>
</event>
<event>
 4    1  0.4327903E+000  0.1786748E+03  0.7546771E-02  0.1169092E+00
         21   -1    0    0  503  502  0.00000000000E+00  0.00000000000E+00  0.87362008489E+03  0.87362008489E+03  0.00000000000E+00 0. -1.
         21   -1    0    0  501  503 -0.00000000000E+00 -0.00000000000E+00 -0.37468104209E+02  0.37468104209E+02  0.00000000000E+00 0. -1.
          6    1    1    2  501    0  0.39731573534E+02  0.20422533409E+02  0.48965744505E+03  0.52123803708E+03  0.17300000000E+03 0. -1.
         -6    1    1    2    0  502 -0.39731573534E+02 -0.20422533409E+02  0.34649453563E+03  0.38985015202E+03  0.17300000000E+03 0. -1.
<mgrwt>
<rscale>  2 0.17867478E+03</rscale>
<asrwt>0</asrwt>
<pdfrwt beam="1">  1       21 0.13440307E+00 0.17867478E+03</pdfrwt>
<pdfrwt beam="2">  1       21 0.57643244E-02 0.17867478E+03</pdfrwt>
<totfact> 0.84449966E+04</totfact>
</mgrwt>
</event>
<event>
 4    1  0.4327903E+000  0.2928976E+03  0.7546771E-02  0.1088846E+00
         21   -1    0    0  501  502  0.00000000000E+00  0.00000000000E+00  0.28570876811E+03  0.28570876811E+03  0.00000000000E+00 0. -1.
         21   -1    0    0  502  503 -0.00000000000E+00 -0.00000000000E+00 -0.34519944083E+03  0.34519944083E+03  0.00000000000E+00 0.  1.
          6    1    1    2  501    0 -0.22738795248E+03  0.64457243311E+02  0.84064398857E+02  0.30472256284E+03  0.17300000000E+03 0. -1.
         -6    1    1    2    0  503  0.22738795248E+03 -0.64457243311E+02 -0.14355507157E+03  0.32618564610E+03  0.17300000000E+03 0.  1.
<mgrwt>
<rscale>  2 0.29289762E+03</rscale>
<asrwt>0</asrwt>
<pdfrwt beam="1">  1       21 0.43955195E-01 0.29289762E+03</pdfrwt>
<pdfrwt beam="2">  1       21 0.53107606E-01 0.29289762E+03</pdfrwt>
<totfact> 0.15846260E+04</totfact>
</mgrwt>
</event>
<event>
 4    1  0.4327903E+000  0.2059877E+03  0.7546771E-02  0.1144783E+00
         21   -1    0    0  501  502  0.00000000000E+00  0.00000000000E+00  0.80385691268E+03  0.80385691268E+03  0.00000000000E+00 0.  1.
         21   -1    0    0  502  503 -0.00000000000E+00 -0.00000000000E+00 -0.56694724002E+02  0.56694724002E+02  0.00000000000E+00 0.  1.
          6    1    1    2  501    0  0.53934117089E+02 -0.97944181156E+02  0.48658477062E+03  0.52838971471E+03  0.17300000000E+03 0.  1.
         -6    1    1    2    0  503 -0.53934117089E+02  0.97944181156E+02  0.26057741805E+03  0.33216192197E+03  0.17300000000E+03 0.  1.
<mgrwt>
<rscale>  2 0.20598775E+03</rscale>
<asrwt>0</asrwt>
<pdfrwt beam="1">  1       21 0.12367029E+00 0.20598775E+03</pdfrwt>
<pdfrwt beam="2">  1       21 0.87222658E-02 0.20598775E+03</pdfrwt>
<totfact> 0.50203585E+04</totfact>
</mgrwt>
</event>
<event>
 4    1  0.4327903E+000  0.1895298E+03  0.7546771E-02  0.1158886E+00
         21   -1    0    0  501  502  0.00000000000E+00  0.00000000000E+00  0.91447769861E+03  0.91447769861E+03  0.00000000000E+00 0. -1.
         21   -1    0    0  502  503 -0.00000000000E+00 -0.00000000000E+00 -0.41216012390E+02  0.41216012390E+02  0.00000000000E+00 0. -1.
          6    1    1    2  501    0 -0.43372838401E+02  0.64119660425E+02  0.54017021795E+03  0.57245558633E+03  0.17300000000E+03 0. -1.
         -6    1    1    2    0  503  0.43372838401E+02 -0.64119660425E+02  0.33309146827E+03  0.38323812467E+03  0.17300000000E+03 0. -1.
<mgrwt>
<rscale>  2 0.18952977E+03</rscale>
<asrwt>0</asrwt>
<pdfrwt beam="1">  1       21 0.14068886E+00 0.18952977E+03</pdfrwt>
<pdfrwt beam="2">  1       21 0.63409257E-02 0.18952977E+03</pdfrwt>
<totfact> 0.63470598E+04</totfact>
</mgrwt>
</event>
<event>
 4    1  0.4327903E+000  0.2288637E+03  0.7546771E-02  0.1127442E+00
         21   -1    0    0  501  502  0.00000000000E+00  0.00000000000E+00  0.13660836404E+04  0.13660836404E+04  0.00000000000E+00 0. -1.
         21   -1    0    0  502  503 -0.00000000000E+00 -0.00000000000E+00 -0.52390517789E+02  0.52390517789E+02  0.00000000000E+00 0. -1.
          6    1    1    2  501    0 -0.14907077620E+03 -0.15082924395E+02  0.10241102074E+04  0.10493713870E+04  0.17300000000E+03 0. -1.
         -6    1    1    2    0  503  0.14907077620E+03  0.15082924395E+02  0.28958291520E+03  0.36910277119E+03  0.17300000000E+03 0. -1.
<mgrwt>
<rscale>  2 0.22886370E+03</rscale>
<asrwt>0</asrwt>
<pdfrwt beam="1">  1       21 0.21016669E+00 0.22886370E+03</pdfrwt>
<pdfrwt beam="2">  1       21 0.80600807E-02 0.22886370E+03</pdfrwt>
<totfact> 0.13328385E+04</totfact>
</mgrwt>
</event>
<event>
 4    1  0.4327903E+000  0.1783026E+03  0.7546771E-02  0.1169456E+00
         21   -1    0    0  501  502  0.00000000000E+00  0.00000000000E+00  0.10424041416E+03  0.10424041416E+03  0.00000000000E+00 0. -1.
         21   -1    0    0  502  503 -0.00000000000E+00 -0.00000000000E+00 -0.48333262765E+03  0.48333262765E+03  0.00000000000E+00 0. -1.
          6    1    1    2  501    0  0.27410052609E+02  0.33339496440E+02 -0.11085791066E+02  0.17864693608E+03  0.17300000000E+03 0. -1.
         -6    1    1    2    0  503 -0.27410052609E+02 -0.33339496440E+02 -0.36800642242E+03  0.40892610573E+03  0.17300000000E+03 0. -1.
<mgrwt>
<rscale>  2 0.17830264E+03</rscale>
<asrwt>0</asrwt>
<pdfrwt beam="1">  1       21 0.16036987E-01 0.17830264E+03</pdfrwt>
<pdfrwt beam="2">  1       21 0.74358867E-01 0.17830264E+03</pdfrwt>
<totfact> 0.56648867E+04</totfact>
</mgrwt>
</event>
<event>
 4    1  0.4327903E+000  0.1752865E+03  0.7546771E-02  0.1172444E+00
         21   -1    0    0  501  502  0.00000000000E+00  0.00000000000E+00  0.59679417177E+03  0.59679417177E+03  0.00000000000E+00 0. -1.
         21   -1    0    0  502  503 -0.00000000000E+00 -0.00000000000E+00 -0.66655189101E+02  0.66655189101E+02  0.00000000000E+00 0. -1.
          6    1    1    2  501    0 -0.48957026007E+01  0.27791802445E+02  0.42332928226E+03  0.45818449712E+03  0.17300000000E+03 0. -1.
         -6    1    1    2    0  503  0.48957026007E+01 -0.27791802445E+02  0.10680970041E+03  0.20526486375E+03  0.17300000000E+03 0. -1.
<mgrwt>
<rscale>  2 0.17528649E+03</rscale>
<asrwt>0</asrwt>
<pdfrwt beam="1">  1       21 0.91814484E-01 0.17528649E+03</pdfrwt>
<pdfrwt beam="2">  1       21 0.10254645E-01 0.17528649E+03</pdfrwt>
<totfact> 0.78448830E+04</totfact>
</mgrwt>
</event>
<event>
 4    1  0.4327903E+000  0.1769428E+03  0.7546771E-02  0.1170795E+00
         21   -1    0    0  501  502  0.00000000000E+00  0.00000000000E+00  0.38905570751E+03  0.38905570751E+03  0.00000000000E+00 0. -1.
         21   -1    0    0  502  503 -0.00000000000E+00 -0.00000000000E+00 -0.86306304129E+02  0.86306304129E+02  0.00000000000E+00 0. -1.
          6    1    1    2  501    0  0.31248761620E+02 -0.20081630700E+02  0.21316268453E+03  0.27703264622E+03  0.17300000000E+03 0. -1.
         -6    1    1    2    0  503 -0.31248761620E+02  0.20081630700E+02  0.89586718855E+02  0.19832936542E+03  0.17300000000E+03 0. -1.
<mgrwt>
<rscale>  2 0.17694281E+03</rscale>
<asrwt>0</asrwt>
<pdfrwt beam="1">  1       21 0.59854724E-01 0.17694281E+03</pdfrwt>
<pdfrwt beam="2">  1       21 0.13277893E-01 0.17694281E+03</pdfrwt>
<totfact> 0.12815615E+05</totfact>
</mgrwt>
</event>
<event>
 4    1  0.4327903E+000  0.1842074E+03  0.7546771E-02  0.1163792E+00
         21   -1    0    0  501  502  0.00000000000E+00  0.00000000000E+00  0.18886433329E+04  0.18886433329E+04  0.00000000000E+00 0.  1.
         21   -1    0    0  502  503 -0.00000000000E+00 -0.00000000000E+00 -0.66997171888E+02  0.66997171888E+02  0.00000000000E+00 0.  1.
          6    1    1    2  501    0  0.35580294461E+02  0.52320289901E+02  0.17473204416E+04  0.17570034421E+04  0.17300000000E+03 0.  1.
         -6    1    1    2    0  503 -0.35580294461E+02 -0.52320289901E+02  0.74325719419E+02  0.19863706265E+03  0.17300000000E+03 0.  1.
<mgrwt>
<rscale>  2 0.18420741E+03</rscale>
<asrwt>0</asrwt>
<pdfrwt beam="1">  1       21 0.29056047E+00 0.18420741E+03</pdfrwt>
<pdfrwt beam="2">  1       21 0.10307259E-01 0.18420741E+03</pdfrwt>
<totfact> 0.30064324E+03</totfact>
</mgrwt>
</event>
<event>
 4    1  0.4327903E+000  0.2547658E+03  0.7546771E-02  0.1110329E+00
         21   -1    0    0  501  502  0.00000000000E+00  0.00000000000E+00  0.68491233475E+03  0.68491233475E+03  0.00000000000E+00 0.  1.
         21   -1    0    0  502  503 -0.00000000000E+00 -0.00000000000E+00 -0.34262001423E+03  0.34262001423E+03  0.00000000000E+00 0. -1.
          6    1    1    2  501    0 -0.10353178045E+03  0.15574914944E+03  0.60812269203E+03  0.65933211334E+03  0.17300000000E+03 0.  1.
         -6    1    1    2    0  503  0.10353178045E+03 -0.15574914944E+03 -0.26583037151E+03  0.36820023565E+03  0.17300000000E+03 0. -1.
<mgrwt>
<rscale>  2 0.25476583E+03</rscale>
<asrwt>0</asrwt>
<pdfrwt beam="1">  1       21 0.10537113E+00 0.25476583E+03</pdfrwt>
<pdfrwt beam="2">  1       21 0.52710771E-01 0.25476583E+03</pdfrwt>
<totfact> 0.23529832E+03</totfact>
</mgrwt>
</event>
<event>
 4    1  0.4327903E+000  0.2134472E+03  0.7546771E-02  0.1138865E+00
         21   -1    0    0  501  502  0.00000000000E+00  0.00000000000E+00  0.47087335782E+02  0.47087335782E+02  0.00000000000E+00 0.  1.
         21   -1    0    0  502  503 -0.00000000000E+00 -0.00000000000E+00 -0.15213876370E+04  0.15213876370E+04  0.00000000000E+00 0.  1.
          6    1    1    2  501    0 -0.11504465757E+03 -0.48943225072E+02 -0.26398158509E+03  0.33947899756E+03  0.17300000000E+03 0.  1.
         -6    1    1    2    0  503  0.11504465757E+03  0.48943225072E+02 -0.12103187161E+04  0.12289959752E+04  0.17300000000E+03 0.  1.
<mgrwt>
<rscale>  2 0.21344721E+03</rscale>
<asrwt>0</asrwt>
<pdfrwt beam="1">  1       21 0.72442048E-02 0.21344721E+03</pdfrwt>
<pdfrwt beam="2">  1       21 0.23405966E+00 0.21344721E+03</pdfrwt>
<totfact> 0.11573834E+04</totfact>
</mgrwt>
</event>
<event>
 4    1  0.4327903E+000  0.2053684E+03  0.7546771E-02  0.1145287E+00
         21   -1    0    0  503  502  0.00000000000E+00  0.00000000000E+00  0.69460141425E+02  0.69460141425E+02  0.00000000000E+00 0.  1.
         21   -1    0    0  501  503 -0.00000000000E+00 -0.00000000000E+00 -0.60742032699E+03  0.60742032699E+03  0.00000000000E+00 0.  1.
          6    1    1    2  501    0 -0.83794694975E+02 -0.72288580065E+02 -0.26253265861E+03  0.33331604604E+03  0.17300000000E+03 0.  1.
         -6    1    1    2    0  502  0.83794694975E+02  0.72288580065E+02 -0.27542752696E+03  0.34356442237E+03  0.17300000000E+03 0.  1.
<mgrwt>
<rscale>  2 0.20536842E+03</rscale>
<asrwt>0</asrwt>
<pdfrwt beam="1">  1       21 0.10686176E-01 0.20536842E+03</pdfrwt>
<pdfrwt beam="2">  1       21 0.93449279E-01 0.20536842E+03</pdfrwt>
<totfact> 0.69042202E+04</totfact>
</mgrwt>
</event>
<event>
 4    1  0.4327903E+000  0.2531534E+03  0.7546771E-02  0.1111328E+00
         21   -1    0    0  501  502  0.00000000000E+00  0.00000000000E+00  0.51100603040E+03  0.51100603040E+03  0.00000000000E+00 0.  1.
         21   -1    0    0  502  503 -0.00000000000E+00 -0.00000000000E+00 -0.12951353127E+03  0.12951353127E+03  0.00000000000E+00 0. -1.
          6    1    1    2  501    0  0.16427864442E+03 -0.84676898770E+02  0.24773384646E+03  0.35420150886E+03  0.17300000000E+03 0. -1.
         -6    1    1    2    0  503 -0.16427864442E+03  0.84676898770E+02  0.13375865267E+03  0.28631805281E+03  0.17300000000E+03 0.  1.
<mgrwt>
<rscale>  2 0.25315341E+03</rscale>
<asrwt>0</asrwt>
<pdfrwt beam="1">  1       21 0.78616312E-01 0.25315341E+03</pdfrwt>
<pdfrwt beam="2">  1       21 0.19925159E-01 0.25315341E+03</pdfrwt>
<totfact> 0.32268177E+04</totfact>
</mgrwt>
</event>
<event>
 4    1  0.4327903E+000  0.2081969E+03  0.7546771E-02  0.1143002E+00
         21   -1    0    0  501  502  0.00000000000E+00  0.00000000000E+00  0.44433604209E+03  0.44433604209E+03  0.00000000000E+00 0. -1.
         21   -1    0    0  502  503 -0.00000000000E+00 -0.00000000000E+00 -0.18139201864E+03  0.18139201864E+03  0.00000000000E+00 0. -1.
          6    1    1    2  501    0  0.11010337730E+03  0.35974818312E+02  0.34417412952E+03  0.40224591070E+03  0.17300000000E+03 0. -1.
         -6    1    1    2    0  503 -0.11010337730E+03 -0.35974818312E+02 -0.81230106072E+02  0.22348215002E+03  0.17300000000E+03 0. -1.
<mgrwt>
<rscale>  2 0.20819688E+03</rscale>
<asrwt>0</asrwt>
<pdfrwt beam="1">  1       21 0.68359391E-01 0.20819688E+03</pdfrwt>
<pdfrwt beam="2">  1       21 0.27906465E-01 0.20819688E+03</pdfrwt>
<totfact> 0.23723936E+04</totfact>
</mgrwt>
</event>
<event>
 4    1  0.4327903E+000  0.2501487E+03  0.7546771E-02  0.1113211E+00
         21   -1    0    0  501  502  0.00000000000E+00  0.00000000000E+00  0.35657159324E+03  0.35657159324E+03  0.00000000000E+00 0. -1.
         21   -1    0    0  502  503 -0.00000000000E+00 -0.00000000000E+00 -0.69523624529E+03  0.69523624529E+03  0.00000000000E+00 0.  1.
          6    1    1    2  501    0 -0.11984958114E+03  0.13520885210E+03  0.28537960073E+03  0.37949423223E+03  0.17300000000E+03 0. -1.
         -6    1    1    2    0  503  0.11984958114E+03 -0.13520885210E+03 -0.62404425278E+03  0.67231360630E+03  0.17300000000E+03 0.  1.
<mgrwt>
<rscale>  2 0.25014867E+03</rscale>
<asrwt>0</asrwt>
<pdfrwt beam="1">  1       21 0.54857168E-01 0.25014867E+03</pdfrwt>
<pdfrwt beam="2">  1       21 0.10695942E+00 0.25014867E+03</pdfrwt>
<totfact> 0.20915606E+03</totfact>
</mgrwt>
</event>
<event>
 4    1  0.4327903E+000  0.1759782E+03  0.7546771E-02  0.1171753E+00
         21   -1    0    0  503  502  0.00000000000E+00  0.00000000000E+00  0.95374836900E+03  0.95374836900E+03  0.00000000000E+00 0. -1.
         21   -1    0    0  501  503 -0.00000000000E+00 -0.00000000000E+00 -0.41997175586E+02  0.41997175586E+02  0.00000000000E+00 0. -1.
          6    1    1    2  501    0 -0.11656691789E+02 -0.30057156543E+02  0.69300641026E+03  0.71500083621E+03  0.17300000000E+03 0. -1.
         -6    1    1    2    0  502  0.11656691789E+02  0.30057156543E+02  0.21874478316E+03  0.28074470838E+03  0.17300000000E+03 0. -1.
<mgrwt>
<rscale>  2 0.17597816E+03</rscale>
<asrwt>0</asrwt>
<pdfrwt beam="1">  1       21 0.14673050E+00 0.17597816E+03</pdfrwt>
<pdfrwt beam="2">  1       21 0.64611047E-02 0.17597816E+03</pdfrwt>
<totfact> 0.55502161E+04</totfact>
</mgrwt>
</event>
<event>
 4    1  0.4327903E+000  0.1791399E+03  0.7546771E-02  0.1168638E+00
         21   -1    0    0  503  502  0.00000000000E+00  0.00000000000E+00  0.40059980809E+03  0.40059980809E+03  0.00000000000E+00 0. -1.
         21   -1    0    0  501  503 -0.00000000000E+00 -0.00000000000E+00 -0.60243062540E+03  0.60243062540E+03  0.00000000000E+00 0. -1.
          6    1    1    2  501    0  0.45230830955E+02 -0.10783888427E+02 -0.56789741540E+03  0.59548181730E+03  0.17300000000E+03 0. -1.
         -6    1    1    2    0  502 -0.45230830955E+02  0.10783888427E+02  0.36606659809E+03  0.40754861619E+03  0.17300000000E+03 0. -1.
<mgrwt>
<rscale>  2 0.17913995E+03</rscale>
<asrwt>0</asrwt>
<pdfrwt beam="1">  1       21 0.61630740E-01 0.17913995E+03</pdfrwt>
<pdfrwt beam="2">  1       21 0.92681635E-01 0.17913995E+03</pdfrwt>
<totfact> 0.24298340E+03</totfact>
</mgrwt>
</event>
<event>
 4    1  0.4327903E+000  0.2806871E+03  0.7546771E-02  0.1095314E+00
         21   -1    0    0  501  502  0.00000000000E+00  0.00000000000E+00  0.28976287136E+04  0.28976287136E+04  0.00000000000E+00 0.  1.
         21   -1    0    0  502  503 -0.00000000000E+00 -0.00000000000E+00 -0.78595253272E+02  0.78595253272E+02  0.00000000000E+00 0. -1.
          6    1    1    2  501    0  0.32840404762E+02  0.21858129192E+03  0.26130082403E+04  0.26280405889E+04  0.17300000000E+03 0.  1.
         -6    1    1    2    0  503 -0.32840404762E+02 -0.21858129192E+03  0.20602522003E+03  0.34818337791E+03  0.17300000000E+03 0. -1.
<mgrwt>
<rscale>  2 0.28068714E+03</rscale>
<asrwt>0</asrwt>
<pdfrwt beam="1">  1       21 0.44578895E+00 0.28068714E+03</pdfrwt>
<pdfrwt beam="2">  1       21 0.12091580E-01 0.28068714E+03</pdfrwt>
<totfact> 0.22620160E+02</totfact>
</mgrwt>
</event>
<event>
 4    1  0.4327903E+000  0.1825826E+03  0.7546771E-02  0.1165327E+00
         21   -1    0    0  503  502  0.00000000000E+00  0.00000000000E+00  0.10769690627E+04  0.10769690627E+04  0.00000000000E+00 0.  1.
         21   -1    0    0  501  503 -0.00000000000E+00 -0.00000000000E+00 -0.44760443755E+02  0.44760443755E+02  0.00000000000E+00 0.  1.
          6    1    1    2  501    0  0.31213276414E+02 -0.49327009598E+02  0.20460792682E+03  0.27422769047E+03  0.17300000000E+03 0.  1.
         -6    1    1    2    0  502 -0.31213276414E+02  0.49327009598E+02  0.82760069213E+03  0.84750181599E+03  0.17300000000E+03 0.  1.
<mgrwt>
<rscale>  2 0.18258265E+03</rscale>
<asrwt>0</asrwt>
<pdfrwt beam="1">  1       21 0.16568753E+00 0.18258265E+03</pdfrwt>
<pdfrwt beam="2">  1       21 0.68862230E-02 0.18258265E+03</pdfrwt>
<totfact> 0.35850837E+04</totfact>
</mgrwt>
</event>
<event>
 4    1  0.4327903E+000  0.1784929E+03  0.7546771E-02  0.1169270E+00
         21   -1    0    0  501  502  0.00000000000E+00  0.00000000000E+00  0.65596074563E+03  0.65596074563E+03  0.00000000000E+00 0.  1.
         21   -1    0    0  502  503 -0.00000000000E+00 -0.00000000000E+00 -0.54449401464E+02  0.54449401464E+02  0.00000000000E+00 0.  1.
          6    1    1    2  501    0  0.24012162132E+02  0.36798397350E+02  0.41748136826E+03  0.45403788258E+03  0.17300000000E+03 0.  1.
         -6    1    1    2    0  503 -0.24012162132E+02 -0.36798397350E+02  0.18402997591E+03  0.25637226451E+03  0.17300000000E+03 0.  1.
<mgrwt>
<rscale>  2 0.17849287E+03</rscale>
<asrwt>0</asrwt>
<pdfrwt beam="1">  1       21 0.10091703E+00 0.17849287E+03</pdfrwt>
<pdfrwt beam="2">  1       21 0.83768315E-02 0.17849287E+03</pdfrwt>
<totfact> 0.89507842E+04</totfact>
</mgrwt>
</event>
<event>
 4    1  0.4327903E+000  0.1917203E+03  0.7546771E-02  0.1156919E+00
         21   -1    0    0  503  502  0.00000000000E+00  0.00000000000E+00  0.46846104757E+02  0.46846104757E+02  0.00000000000E+00 0. -1.
         21   -1    0    0  501  503 -0.00000000000E+00 -0.00000000000E+00 -0.10128681261E+04  0.10128681261E+04  0.00000000000E+00 0. -1.
          6    1    1    2  501    0  0.95460693119E+01 -0.82076547843E+02 -0.73453528740E+03  0.75914344862E+03  0.17300000000E+03 0. -1.
         -6    1    1    2    0  502 -0.95460693119E+01  0.82076547843E+02 -0.23148673395E+03  0.30057078225E+03  0.17300000000E+03 0. -1.
<mgrwt>
<rscale>  2 0.19172034E+03</rscale>
<asrwt>0</asrwt>
<pdfrwt beam="1">  1       21 0.72070931E-02 0.19172034E+03</pdfrwt>
<pdfrwt beam="2">  1       21 0.15582586E+00 0.19172034E+03</pdfrwt>
<totfact> 0.38888112E+04</totfact>
</mgrwt>
</event>
<event>
 4    1  0.4327903E+000  0.1835348E+03  0.7546771E-02  0.1164425E+00
         21   -1    0    0  503  502  0.00000000000E+00  0.00000000000E+00  0.21532160790E+03  0.21532160790E+03  0.00000000000E+00 0.  1.
         21   -1    0    0  501  503 -0.00000000000E+00 -0.00000000000E+00 -0.27479736401E+03  0.27479736401E+03  0.00000000000E+00 0.  1.
          6    1    1    2  501    0  0.44520664933E+02  0.42117914345E+02  0.13109027010E+03  0.22554304961E+03  0.17300000000E+03 0.  1.
         -6    1    1    2    0  502 -0.44520664933E+02 -0.42117914345E+02 -0.19056602621E+03  0.26457592230E+03  0.17300000000E+03 0.  1.
<mgrwt>
<rscale>  2 0.18353476E+03</rscale>
<asrwt>0</asrwt>
<pdfrwt beam="1">  1       21 0.33126401E-01 0.18353476E+03</pdfrwt>
<pdfrwt beam="2">  1       21 0.42276517E-01 0.18353476E+03</pdfrwt>
<totfact> 0.47443978E+04</totfact>
</mgrwt>
</event>
<event>
 4    1  0.4327903E+000  0.1968519E+03  0.7546771E-02  0.1152423E+00
         21   -1    0    0  501  502  0.00000000000E+00  0.00000000000E+00  0.39796594621E+02  0.39796594621E+02  0.00000000000E+00 0.  1.
         21   -1    0    0  502  503 -0.00000000000E+00 -0.00000000000E+00 -0.99856268874E+03  0.99856268874E+03  0.00000000000E+00 0.  1.
          6    1    1    2  501    0  0.62645832346E+02 -0.69979700634E+02 -0.39748997885E+03  0.44356390982E+03  0.17300000000E+03 0.  1.
         -6    1    1    2    0  503 -0.62645832346E+02  0.69979700634E+02 -0.56127611528E+03  0.59479537355E+03  0.17300000000E+03 0.  1.
<mgrwt>
<rscale>  2 0.19685187E+03</rscale>
<asrwt>0</asrwt>
<pdfrwt beam="1">  1       21 0.61225535E-02 0.19685187E+03</pdfrwt>
<pdfrwt beam="2">  1       21 0.15362502E+00 0.19685187E+03</pdfrwt>
<totfact> 0.53324954E+04</totfact>
</mgrwt>
</event>
<event>
 4    1  0.4327903E+000  0.2081380E+03  0.7546771E-02  0.1143049E+00
         21   -1    0    0  503  502  0.00000000000E+00  0.00000000000E+00  0.14911129260E+04  0.14911129260E+04  0.00000000000E+00 0.  1.
         21   -1    0    0  501  503 -0.00000000000E+00 -0.00000000000E+00 -0.33768181690E+02  0.33768181690E+02  0.00000000000E+00 0. -1.
          6    1    1    2  501    0  0.90870639513E+02  0.71658711556E+02  0.44376936368E+03  0.49015578361E+03  0.17300000000E+03 0. -1.
         -6    1    1    2    0  502 -0.90870639513E+02 -0.71658711556E+02  0.10135753806E+04  0.10347253241E+04  0.17300000000E+03 0.  1.
<mgrwt>
<rscale>  2 0.20813804E+03</rscale>
<asrwt>0</asrwt>
<pdfrwt beam="1">  1       21 0.22940194E+00 0.20813804E+03</pdfrwt>
<pdfrwt beam="2">  1       21 0.51951060E-02 0.20813804E+03</pdfrwt>
<totfact> 0.21955448E+04</totfact>
</mgrwt>
</event>
<event>
 4    1  0.4327903E+000  0.3916338E+03  0.7546771E-02  0.1046716E+00
         21   -1    0    0  501  502  0.00000000000E+00  0.00000000000E+00  0.13912321340E+03  0.13912321340E+03  0.00000000000E+00 0. -1.
         21   -1    0    0  502  503 -0.00000000000E+00 -0.00000000000E+00 -0.11038602285E+04  0.11038602285E+04  0.00000000000E+00 0.  1.
          6    1    1    2  501    0  0.19099658711E+03  0.29490395289E+03 -0.46019158817E+03  0.60427918675E+03  0.17300000000E+03 0.  1.
         -6    1    1    2    0  503 -0.19099658711E+03 -0.29490395289E+03 -0.50454542696E+03  0.63870425518E+03  0.17300000000E+03 0. -1.
<mgrwt>
<rscale>  2 0.39163381E+03</rscale>
<asrwt>0</asrwt>
<pdfrwt beam="1">  1       21 0.21403571E-01 0.39163381E+03</pdfrwt>
<pdfrwt beam="2">  1       21 0.16982465E+00 0.39163381E+03</pdfrwt>
<totfact> 0.38421976E+03</totfact>
</mgrwt>
</event>
<event>
 4    1  0.4327903E+000  0.1972959E+03  0.7546771E-02  0.1152041E+00
         21   -1    0    0  501  502  0.00000000000E+00  0.00000000000E+00  0.13439232611E+03  0.13439232611E+03  0.00000000000E+00 0. -1.
         21   -1    0    0  502  503 -0.00000000000E+00 -0.00000000000E+00 -0.30742582899E+03  0.30742582899E+03  0.00000000000E+00 0. -1.
          6    1    1    2  501    0  0.35558786578E+02  0.87933167446E+02 -0.33384847904E+02  0.20010051801E+03  0.17300000000E+03 0. -1.
         -6    1    1    2    0  503 -0.35558786578E+02 -0.87933167446E+02 -0.13964865497E+03  0.24171763708E+03  0.17300000000E+03 0. -1.
<mgrwt>
<rscale>  2 0.19729589E+03</rscale>
<asrwt>0</asrwt>
<pdfrwt beam="1">  1       21 0.20675743E-01 0.19729589E+03</pdfrwt>
<pdfrwt beam="2">  1       21 0.47296281E-01 0.19729589E+03</pdfrwt>
<totfact> 0.92593352E+04</totfact>
</mgrwt>
</event>
<event>
 4    1  0.4327903E+000  0.3692712E+03  0.7546771E-02  0.1054972E+00
         21   -1    0    0  501  502  0.00000000000E+00  0.00000000000E+00  0.11979657301E+04  0.11979657301E+04  0.00000000000E+00 0. -1.
         21   -1    0    0  502  503 -0.00000000000E+00 -0.00000000000E+00 -0.14949361170E+03  0.14949361170E+03  0.00000000000E+00 0. -1.
          6    1    1    2  501    0  0.28985044779E+03  0.14972961436E+03  0.85331741620E+03  0.92979129501E+03  0.17300000000E+03 0. -1.
         -6    1    1    2    0  503 -0.28985044779E+03 -0.14972961436E+03  0.19515470218E+03  0.41766804676E+03  0.17300000000E+03 0. -1.
<mgrwt>
<rscale>  2 0.36927123E+03</rscale>
<asrwt>0</asrwt>
<pdfrwt beam="1">  1       21 0.18430241E+00 0.36927123E+03</pdfrwt>
<pdfrwt beam="2">  1       21 0.22999018E-01 0.36927123E+03</pdfrwt>
<totfact> 0.26728199E+03</totfact>
</mgrwt>
</event>
<event>
 4    1  0.4327903E+000  0.2404739E+03  0.7546771E-02  0.1119477E+00
         21   -1    0    0  501  502  0.00000000000E+00  0.00000000000E+00  0.18620378834E+03  0.18620378834E+03  0.00000000000E+00 0. -1.
         21   -1    0    0  502  503 -0.00000000000E+00 -0.00000000000E+00 -0.50642837067E+03  0.50642837067E+03  0.00000000000E+00 0.  1.
          6    1    1    2  501    0  0.99531936523E+02 -0.13413467802E+03  0.55262164142E+02  0.24674202119E+03  0.17300000000E+03 0. -1.
         -6    1    1    2    0  503 -0.99531936523E+02  0.13413467802E+03 -0.37548674647E+03  0.44589013783E+03  0.17300000000E+03 0.  1.
<mgrwt>
<rscale>  2 0.24047395E+03</rscale>
<asrwt>0</asrwt>
<pdfrwt beam="1">  1       21 0.28646737E-01 0.24047395E+03</pdfrwt>
<pdfrwt beam="2">  1       21 0.77912056E-01 0.24047395E+03</pdfrwt>
<totfact> 0.16547665E+04</totfact>
</mgrwt>
</event>
<event>
 4    1  0.4327903E+000  0.1837021E+03  0.7546771E-02  0.1164267E+00
         21   -1    0    0  503  502  0.00000000000E+00  0.00000000000E+00  0.33772055212E+03  0.33772055212E+03  0.00000000000E+00 0.  1.
         21   -1    0    0  501  503 -0.00000000000E+00 -0.00000000000E+00 -0.12880509564E+03  0.12880509564E+03  0.00000000000E+00 0. -1.
          6    1    1    2  501    0  0.34246158270E+02  0.51426291591E+02  0.21491242387E+03  0.28272568465E+03  0.17300000000E+03 0.  1.
         -6    1    1    2    0  502 -0.34246158270E+02 -0.51426291591E+02 -0.59969673880E+01  0.18379996311E+03  0.17300000000E+03 0. -1.
<mgrwt>
<rscale>  2 0.18370210E+03</rscale>
<asrwt>0</asrwt>
<pdfrwt beam="1">  1       21 0.51957008E-01 0.18370210E+03</pdfrwt>
<pdfrwt beam="2">  1       21 0.19816169E-01 0.18370210E+03</pdfrwt>
<totfact> 0.82880315E+04</totfact>
</mgrwt>
</event>
<event>
 4    1  0.4327903E+000  0.2683540E+03  0.7546771E-02  0.1102225E+00
         21   -1    0    0  501  502  0.00000000000E+00  0.00000000000E+00  0.32345122329E+03  0.32345122329E+03  0.00000000000E+00 0.  1.
         21   -1    0    0  502  503 -0.00000000000E+00 -0.00000000000E+00 -0.22640262695E+03  0.22640262695E+03  0.00000000000E+00 0. -1.
          6    1    1    2  501    0 -0.19056612440E+03  0.75956592036E+02  0.83956840705E+02  0.28118072968E+03  0.17300000000E+03 0.  1.
         -6    1    1    2    0  503  0.19056612440E+03 -0.75956592036E+02  0.13091755636E+02  0.26867312056E+03  0.17300000000E+03 0.  1.
<mgrwt>
<rscale>  2 0.26835397E+03</rscale>
<asrwt>0</asrwt>
<pdfrwt beam="1">  1       21 0.49761727E-01 0.26835397E+03</pdfrwt>
<pdfrwt beam="2">  1       21 0.34831173E-01 0.26835397E+03</pdfrwt>
<totfact> 0.29478716E+04</totfact>
</mgrwt>
</event>
<event>
 4    1  0.4327903E+000  0.2379688E+03  0.7546771E-02  0.1121153E+00
         21   -1    0    0  501  502  0.00000000000E+00  0.00000000000E+00  0.20793809362E+03  0.20793809362E+03  0.00000000000E+00 0. -1.
         21   -1    0    0  502  503 -0.00000000000E+00 -0.00000000000E+00 -0.44227559591E+03  0.44227559591E+03  0.00000000000E+00 0. -1.
          6    1    1    2  501    0 -0.16087819471E+02  0.16260785658E+03  0.84355016837E+02  0.25247752736E+03  0.17300000000E+03 0. -1.
         -6    1    1    2    0  503  0.16087819471E+02 -0.16260785658E+03 -0.31869251912E+03  0.39773616217E+03  0.17300000000E+03 0. -1.
<mgrwt>
<rscale>  2 0.23796876E+03</rscale>
<asrwt>0</asrwt>
<pdfrwt beam="1">  1       21 0.31990476E-01 0.23796876E+03</pdfrwt>
<pdfrwt beam="2">  1       21 0.68042399E-01 0.23796876E+03</pdfrwt>
<totfact> 0.18057491E+04</totfact>
</mgrwt>
</event>
<event>
 4    1  0.4327903E+000  0.2420320E+03  0.7546771E-02  0.1118446E+00
         21   -1    0    0  503  502  0.00000000000E+00  0.00000000000E+00  0.55233565081E+02  0.55233565081E+02  0.00000000000E+00 0.  1.
         21   -1    0    0  501  503 -0.00000000000E+00 -0.00000000000E+00 -0.12527427547E+04  0.12527427547E+04  0.00000000000E+00 0. -1.
          6    1    1    2  501    0  0.15755257379E+03 -0.61868401378E+02 -0.85489354645E+03  0.88849450665E+03  0.17300000000E+03 0. -1.
         -6    1    1    2    0  502 -0.15755257379E+03  0.61868401378E+02 -0.34261564316E+03  0.41948181311E+03  0.17300000000E+03 0.  1.
<mgrwt>
<rscale>  2 0.24203205E+03</rscale>
<asrwt>0</asrwt>
<pdfrwt beam="1">  1       21 0.84974724E-02 0.24203205E+03</pdfrwt>
<pdfrwt beam="2">  1       21 0.19272964E+00 0.24203205E+03</pdfrwt>
<totfact> 0.15608041E+04</totfact>
</mgrwt>
</event>
<event>
 4    1  0.4327903E+000  0.1843708E+03  0.7546771E-02  0.1163639E+00
         21   -1    0    0  503  502  0.00000000000E+00  0.00000000000E+00  0.19751154678E+03  0.19751154678E+03  0.00000000000E+00 0. -1.
         21   -1    0    0  501  503 -0.00000000000E+00 -0.00000000000E+00 -0.17230577510E+03  0.17230577510E+03  0.00000000000E+00 0. -1.
          6    1    1    2  501    0  0.28736774216E+02  0.56901633497E+02  0.62808815099E+01  0.18447776982E+03  0.17300000000E+03 0. -1.
         -6    1    1    2    0  502 -0.28736774216E+02 -0.56901633497E+02  0.18924890168E+02  0.18533955205E+03  0.17300000000E+03 0. -1.
<mgrwt>
<rscale>  2 0.18437082E+03</rscale>
<asrwt>0</asrwt>
<pdfrwt beam="1">  1       21 0.30386392E-01 0.18437082E+03</pdfrwt>
<pdfrwt beam="2">  1       21 0.26508581E-01 0.18437082E+03</pdfrwt>
<totfact> 0.14110111E+05</totfact>
</mgrwt>
</event>
<event>
 4    1  0.4327903E+000  0.1771374E+03  0.7546771E-02  0.1170603E+00
         21   -1    0    0  503  502  0.00000000000E+00  0.00000000000E+00  0.56561533448E+03  0.56561533448E+03  0.00000000000E+00 0.  1.
         21   -1    0    0  501  503 -0.00000000000E+00 -0.00000000000E+00 -0.56502227396E+02  0.56502227396E+02  0.00000000000E+00 0.  1.
          6    1    1    2  501    0 -0.36241361782E+02 -0.11629103837E+02  0.21262098418E+03  0.27674059202E+03  0.17300000000E+03 0.  1.
         -6    1    1    2    0  502  0.36241361782E+02  0.11629103837E+02  0.29649212291E+03  0.34537696985E+03  0.17300000000E+03 0.  1.
<mgrwt>
<rscale>  2 0.17713744E+03</rscale>
<asrwt>0</asrwt>
<pdfrwt beam="1">  1       21 0.87017740E-01 0.17713744E+03</pdfrwt>
<pdfrwt beam="2">  1       21 0.86926508E-02 0.17713744E+03</pdfrwt>
<totfact> 0.11857632E+05</totfact>
</mgrwt>
</event>
<event>
 4    1  0.4327903E+000  0.2028620E+03  0.7546771E-02  0.1147347E+00
         21   -1    0    0  501  502  0.00000000000E+00  0.00000000000E+00  0.13395855915E+03  0.13395855915E+03  0.00000000000E+00 0.  1.
         21   -1    0    0  502  503 -0.00000000000E+00 -0.00000000000E+00 -0.48387697903E+03  0.48387697903E+03  0.00000000000E+00 0. -1.
          6    1    1    2  501    0 -0.63085228495E+01  0.10575526077E+03  0.11703301318E+02  0.20319926157E+03  0.17300000000E+03 0.  1.
         -6    1    1    2    0  503  0.63085228495E+01 -0.10575526077E+03 -0.36162172119E+03  0.41463627661E+03  0.17300000000E+03 0. -1.
<mgrwt>
<rscale>  2 0.20286195E+03</rscale>
<asrwt>0</asrwt>
<pdfrwt beam="1">  1       21 0.20609009E-01 0.20286195E+03</pdfrwt>
<pdfrwt beam="2">  1       21 0.74442614E-01 0.20286195E+03</pdfrwt>
<totfact> 0.35086417E+04</totfact>
</mgrwt>
</event>
<event>
 4    1  0.4327903E+000  0.1858572E+03  0.7546771E-02  0.1162252E+00
         21   -1    0    0  501  502  0.00000000000E+00  0.00000000000E+00  0.71086978656E+03  0.71086978656E+03  0.00000000000E+00 0.  1.
         21   -1    0    0  502  503 -0.00000000000E+00 -0.00000000000E+00 -0.52164003191E+02  0.52164003191E+02  0.00000000000E+00 0.  1.
          6    1    1    2  501    0  0.55184556941E+02 -0.39605201052E+02  0.42918187481E+03  0.46769647095E+03  0.17300000000E+03 0.  1.
         -6    1    1    2    0  503 -0.55184556941E+02  0.39605201052E+02  0.22952390855E+03  0.29533731880E+03  0.17300000000E+03 0.  1.
<mgrwt>
<rscale>  2 0.18585722E+03</rscale>
<asrwt>0</asrwt>
<pdfrwt beam="1">  1       21 0.10936458E+00 0.18585722E+03</pdfrwt>
<pdfrwt beam="2">  1       21 0.80252318E-02 0.18585722E+03</pdfrwt>
<totfact> 0.79286219E+04</totfact>
</mgrwt>
</event>
<event>
 4    1  0.4327903E+000  0.1825733E+03  0.7546771E-02  0.1165336E+00
         21   -1    0    0  501  502  0.00000000000E+00  0.00000000000E+00  0.18740966030E+03  0.18740966030E+03  0.00000000000E+00 0. -1.
         21   -1    0    0  502  503 -0.00000000000E+00 -0.00000000000E+00 -0.17956899985E+03  0.17956899985E+03  0.00000000000E+00 0. -1.
          6    1    1    2  501    0 -0.49295117663E+02 -0.31209201847E+02 -0.13970686300E+02  0.18310708064E+03  0.17300000000E+03 0. -1.
         -6    1    1    2    0  503  0.49295117663E+02  0.31209201847E+02  0.21811346752E+02  0.18387157951E+03  0.17300000000E+03 0. -1.
<mgrwt>
<rscale>  2 0.18257334E+03</rscale>
<asrwt>0</asrwt>
<pdfrwt beam="1">  1       21 0.28832255E-01 0.18257334E+03</pdfrwt>
<pdfrwt beam="2">  1       21 0.27626000E-01 0.18257334E+03</pdfrwt>
<totfact> 0.14441459E+05</totfact>
</mgrwt>
</event>
<event>
 4    1  0.4327903E+000  0.2080503E+03  0.7546771E-02  0.1143119E+00
         21   -1    0    0  501  502  0.00000000000E+00  0.00000000000E+00  0.20103579685E+02  0.20103579685E+02  0.00000000000E+00 0.  1.
         21   -1    0    0  502  503 -0.00000000000E+00 -0.00000000000E+00 -0.21729293013E+04  0.21729293013E+04  0.00000000000E+00 0.  1.
          6    1    1    2  501    0  0.11360713381E+03 -0.21197992931E+02 -0.97165405602E+03  0.99367828815E+03  0.17300000000E+03 0.  1.
         -6    1    1    2    0  503 -0.11360713381E+03  0.21197992931E+02 -0.11811716656E+04  0.11993545929E+04  0.17300000000E+03 0.  1.
<mgrwt>
<rscale>  2 0.20805032E+03</rscale>
<asrwt>0</asrwt>
<pdfrwt beam="1">  1       21 0.30928589E-02 0.20805032E+03</pdfrwt>
<pdfrwt beam="2">  1       21 0.33429676E+00 0.20805032E+03</pdfrwt>
<totfact> 0.12788420E+04</totfact>
</mgrwt>
</event>
<event>
 4    1  0.4327903E+000  0.2633084E+03  0.7546771E-02  0.1105172E+00
         21   -1    0    0  501  502  0.00000000000E+00  0.00000000000E+00  0.28128814136E+04  0.28128814136E+04  0.00000000000E+00 0.  1.
         21   -1    0    0  502  503 -0.00000000000E+00 -0.00000000000E+00 -0.48461613773E+03  0.48461613773E+03  0.00000000000E+00 0.  1.
          6    1    1    2  501    0  0.15623904669E+03 -0.12244043776E+03  0.27704062517E+04  0.27828909608E+04  0.17300000000E+03 0.  1.
         -6    1    1    2    0  503 -0.15623904669E+03  0.12244043776E+03 -0.44214097581E+03  0.51460659051E+03  0.17300000000E+03 0.  1.
<mgrwt>
<rscale>  2 0.26330838E+03</rscale>
<asrwt>0</asrwt>
<pdfrwt beam="1">  1       21 0.43275098E+00 0.26330838E+03</pdfrwt>
<pdfrwt beam="2">  1       21 0.74556331E-01 0.26330838E+03</pdfrwt>
<totfact> 0.76334205E+00</totfact>
</mgrwt>
</event>
<event>
 4    1  0.4327903E+000  0.2236256E+03  0.7546771E-02  0.1131209E+00
         21   -1    0    0  501  502  0.00000000000E+00  0.00000000000E+00  0.51335058151E+03  0.51335058151E+03  0.00000000000E+00 0.  1.
         21   -1    0    0  502  503 -0.00000000000E+00 -0.00000000000E+00 -0.21998203956E+03  0.21998203956E+03  0.00000000000E+00 0.  1.
          6    1    1    2  501    0 -0.29739948311E+02 -0.13854575116E+03  0.42037687499E+03  0.47615659895E+03  0.17300000000E+03 0.  1.
         -6    1    1    2    0  503  0.29739948311E+02  0.13854575116E+03 -0.12700833305E+03  0.25717602212E+03  0.17300000000E+03 0.  1.
<mgrwt>
<rscale>  2 0.22362556E+03</rscale>
<asrwt>0</asrwt>
<pdfrwt beam="1">  1       21 0.78977012E-01 0.22362556E+03</pdfrwt>
<pdfrwt beam="2">  1       21 0.33843391E-01 0.22362556E+03</pdfrwt>
<totfact> 0.11672526E+04</totfact>
</mgrwt>
</event>
<event>
 4    1  0.4327903E+000  0.1878022E+03  0.7546771E-02  0.1160459E+00
         21   -1    0    0  503  502  0.00000000000E+00  0.00000000000E+00  0.10454979524E+03  0.10454979524E+03  0.00000000000E+00 0. -1.
         21   -1    0    0  501  503 -0.00000000000E+00 -0.00000000000E+00 -0.45924608684E+03  0.45924608684E+03  0.00000000000E+00 0. -1.
          6    1    1    2  501    0  0.54992575098E+02  0.48130020696E+02 -0.32258181570E+03  0.37326761182E+03  0.17300000000E+03 0. -1.
         -6    1    1    2    0  502 -0.54992575098E+02 -0.48130020696E+02 -0.32114475897E+02  0.19052827027E+03  0.17300000000E+03 0. -1.
<mgrwt>
<rscale>  2 0.18780224E+03</rscale>
<asrwt>0</asrwt>
<pdfrwt beam="1">  1       21 0.16084584E-01 0.18780224E+03</pdfrwt>
<pdfrwt beam="2">  1       21 0.70653244E-01 0.18780224E+03</pdfrwt>
<totfact> 0.62824949E+04</totfact>
</mgrwt>
</event>
<event>
 4    1  0.4327903E+000  0.1923932E+03  0.7546771E-02  0.1156320E+00
         21   -1    0    0  503  502  0.00000000000E+00  0.00000000000E+00  0.33437068273E+03  0.33437068273E+03  0.00000000000E+00 0. -1.
         21   -1    0    0  501  503 -0.00000000000E+00 -0.00000000000E+00 -0.20213226552E+03  0.20213226552E+03  0.00000000000E+00 0. -1.
          6    1    1    2  501    0  0.54376017688E+02 -0.64260331237E+02 -0.11429546462E+03  0.22378247184E+03  0.17300000000E+03 0. -1.
         -6    1    1    2    0  502 -0.54376017688E+02  0.64260331237E+02  0.24653388183E+03  0.31272047640E+03  0.17300000000E+03 0. -1.
<mgrwt>
<rscale>  2 0.19239319E+03</rscale>
<asrwt>0</asrwt>
<pdfrwt beam="1">  1       21 0.51441643E-01 0.19239319E+03</pdfrwt>
<pdfrwt beam="2">  1       21 0.31097272E-01 0.19239319E+03</pdfrwt>
<totfact> 0.35677597E+04</totfact>
</mgrwt>
</event>
<event>
 4    1  0.4327903E+000  0.1859422E+03  0.7546771E-02  0.1162173E+00
         21   -1    0    0  503  502  0.00000000000E+00  0.00000000000E+00  0.21412865424E+04  0.21412865424E+04  0.00000000000E+00 0. -1.
         21   -1    0    0  501  503 -0.00000000000E+00 -0.00000000000E+00 -0.30756512563E+02  0.30756512563E+02  0.00000000000E+00 0. -1.
          6    1    1    2  501    0  0.66971488287E+02 -0.12661793860E+02  0.30676180026E+03  0.35871618777E+03  0.17300000000E+03 0. -1.
         -6    1    1    2    0  502 -0.66971488287E+02  0.12661793860E+02  0.18037682296E+04  0.18133268672E+04  0.17300000000E+03 0. -1.
<mgrwt>
<rscale>  2 0.18594220E+03</rscale>
<asrwt>0</asrwt>
<pdfrwt beam="1">  1       21 0.32942858E+00 0.18594220E+03</pdfrwt>
<pdfrwt beam="2">  1       21 0.47317728E-02 0.18594220E+03</pdfrwt>
<totfact> 0.68704692E+03</totfact>
</mgrwt>
</event>
<event>
 4    1  0.4327903E+000  0.3157526E+03  0.7546771E-02  0.1077621E+00
         21   -1    0    0  503  502  0.00000000000E+00  0.00000000000E+00  0.95045599760E+03  0.95045599760E+03  0.00000000000E+00 0. -1.
         21   -1    0    0  501  503 -0.00000000000E+00 -0.00000000000E+00 -0.12413299254E+03  0.12413299254E+03  0.00000000000E+00 0.  1.
          6    1    1    2  501    0 -0.19958502513E+03 -0.17302168063E+03  0.20165212640E+03  0.37465085654E+03  0.17300000000E+03 0.  1.
         -6    1    1    2    0  502  0.19958502513E+03  0.17302168063E+03  0.62467087866E+03  0.69993813360E+03  0.17300000000E+03 0. -1.
<mgrwt>
<rscale>  2 0.31575257E+03</rscale>
<asrwt>0</asrwt>
<pdfrwt beam="1">  1       21 0.14622399E+00 0.31575257E+03</pdfrwt>
<pdfrwt beam="2">  1       21 0.19097384E-01 0.31575257E+03</pdfrwt>
<totfact> 0.74470702E+03</totfact>
</mgrwt>
</event>
<event>
 4    1  0.4327903E+000  0.1774965E+03  0.7546771E-02  0.1170248E+00
         21   -1    0    0  501  502  0.00000000000E+00  0.00000000000E+00  0.34901425588E+02  0.34901425588E+02  0.00000000000E+00 0. -1.
         21   -1    0    0  502  503 -0.00000000000E+00 -0.00000000000E+00 -0.10093469037E+04  0.10093469037E+04  0.00000000000E+00 0. -1.
          6    1    1    2  501    0 -0.19313476075E+02 -0.34684467177E+02 -0.31749355469E+03  0.36374053925E+03  0.17300000000E+03 0. -1.
         -6    1    1    2    0  503  0.19313476075E+02  0.34684467177E+02 -0.65695192343E+03  0.68050779005E+03  0.17300000000E+03 0. -1.
<mgrwt>
<rscale>  2 0.17749654E+03</rscale>
<asrwt>0</asrwt>
<pdfrwt beam="1">  1       21 0.53694502E-02 0.17749654E+03</pdfrwt>
<pdfrwt beam="2">  1       21 0.15528413E+00 0.17749654E+03</pdfrwt>
<totfact> 0.65532588E+04</totfact>
</mgrwt>
</event>
<event>
 4    1  0.4327903E+000  0.2444800E+03  0.7546771E-02  0.1116844E+00
         21   -1    0    0  503  502  0.00000000000E+00  0.00000000000E+00  0.25551137538E+03  0.25551137538E+03  0.00000000000E+00 0.  1.
         21   -1    0    0  501  503 -0.00000000000E+00 -0.00000000000E+00 -0.26379453450E+03  0.26379453450E+03  0.00000000000E+00 0. -1.
          6    1    1    2  501    0 -0.14319103975E+03  0.96632395086E+02 -0.91514074586E+02  0.26104658491E+03  0.17300000000E+03 0. -1.
         -6    1    1    2    0  502  0.14319103975E+03 -0.96632395086E+02  0.83230915466E+02  0.25825932497E+03  0.17300000000E+03 0.  1.
<mgrwt>
<rscale>  2 0.24448005E+03</rscale>
<asrwt>0</asrwt>
<pdfrwt beam="1">  1       21 0.39309443E-01 0.24448005E+03</pdfrwt>
<pdfrwt beam="2">  1       21 0.40583774E-01 0.24448005E+03</pdfrwt>
<totfact> 0.35586481E+04</totfact>
</mgrwt>
</event>
<event>
 4    1  0.4327903E+000  0.1978287E+03  0.7546771E-02  0.1151584E+00
         21   -1    0    0  503  502  0.00000000000E+00  0.00000000000E+00  0.78914043900E+02  0.78914043900E+02  0.00000000000E+00 0.  1.
         21   -1    0    0  501  503 -0.00000000000E+00 -0.00000000000E+00 -0.53404552326E+03  0.53404552326E+03  0.00000000000E+00 0.  1.
          6    1    1    2  501    0  0.81056479632E+02 -0.51352281071E+02 -0.30943805581E+03  0.36727118052E+03  0.17300000000E+03 0.  1.
         -6    1    1    2    0  502 -0.81056479632E+02  0.51352281071E+02 -0.14569342355E+03  0.24568838664E+03  0.17300000000E+03 0.  1.
<mgrwt>
<rscale>  2 0.19782874E+03</rscale>
<asrwt>0</asrwt>
<pdfrwt beam="1">  1       21 0.12140622E-01 0.19782874E+03</pdfrwt>
<pdfrwt beam="2">  1       21 0.82160847E-01 0.19782874E+03</pdfrwt>
<totfact> 0.74236573E+04</totfact>
</mgrwt>
</event>
<event>
 4    1  0.4327903E+000  0.1730812E+03  0.7546771E-02  0.1174672E+00
         21   -1    0    0  503  502  0.00000000000E+00  0.00000000000E+00  0.49033508484E+02  0.49033508484E+02  0.00000000000E+00 0. -1.
         21   -1    0    0  501  503 -0.00000000000E+00 -0.00000000000E+00 -0.61379609747E+03  0.61379609747E+03  0.00000000000E+00 0. -1.
          6    1    1    2  501    0  0.17338254194E+01 -0.50108302732E+01 -0.25982121373E+03  0.31219253302E+03  0.17300000000E+03 0. -1.
         -6    1    1    2    0  502 -0.17338254194E+01  0.50108302732E+01 -0.30494137525E+03  0.35063707293E+03  0.17300000000E+03 0. -1.
<mgrwt>
<rscale>  2 0.17308124E+03</rscale>
<asrwt>0</asrwt>
<pdfrwt beam="1">  1       21 0.75436163E-02 0.17308124E+03</pdfrwt>
<pdfrwt beam="2">  1       21 0.94430174E-01 0.17308124E+03</pdfrwt>
<totfact> 0.12579215E+05</totfact>
</mgrwt>
</event>
<event>
 4    1  0.4327903E+000  0.2620079E+03  0.7546771E-02  0.1105943E+00
         21   -1    0    0  501  502  0.00000000000E+00  0.00000000000E+00  0.42499877821E+03  0.42499877821E+03  0.00000000000E+00 0. -1.
         21   -1    0    0  502  503 -0.00000000000E+00 -0.00000000000E+00 -0.16662570327E+03  0.16662570327E+03  0.00000000000E+00 0. -1.
          6    1    1    2  501    0  0.11453999404E+03  0.15999918804E+03  0.18093981498E+03  0.31841382987E+03  0.17300000000E+03 0. -1.
         -6    1    1    2    0  503 -0.11453999404E+03 -0.15999918804E+03  0.77433259959E+02  0.27321065161E+03  0.17300000000E+03 0. -1.
<mgrwt>
<rscale>  2 0.26200792E+03</rscale>
<asrwt>0</asrwt>
<pdfrwt beam="1">  1       21 0.65384427E-01 0.26200792E+03</pdfrwt>
<pdfrwt beam="2">  1       21 0.25634724E-01 0.26200792E+03</pdfrwt>
<totfact> 0.30025543E+04</totfact>
</mgrwt>
</event>
<event>
 4    1  0.4327903E+000  0.1806092E+03  0.7546771E-02  0.1167215E+00
         21   -1    0    0  501  502  0.00000000000E+00  0.00000000000E+00  0.13351238231E+04  0.13351238231E+04  0.00000000000E+00 0.  1.
         21   -1    0    0  502  503 -0.00000000000E+00 -0.00000000000E+00 -0.88073496667E+02  0.88073496667E+02  0.00000000000E+00 0.  1.
          6    1    1    2  501    0  0.17824407215E+02 -0.48713360572E+02  0.12284240808E+04  0.12416301476E+04  0.17300000000E+03 0.  1.
         -6    1    1    2    0  503 -0.17824407215E+02  0.48713360572E+02  0.18626245591E+02  0.18156717219E+03  0.17300000000E+03 0.  1.
<mgrwt>
<rscale>  2 0.18060925E+03</rscale>
<asrwt>0</asrwt>
<pdfrwt beam="1">  1       21 0.20540365E+00 0.18060925E+03</pdfrwt>
<pdfrwt beam="2">  1       21 0.13549770E-01 0.18060925E+03</pdfrwt>
<totfact> 0.59173787E+03</totfact>
</mgrwt>
</event>
<event>
 4    1  0.4327903E+000  0.2292825E+03  0.7546771E-02  0.1127146E+00
         21   -1    0    0  503  502  0.00000000000E+00  0.00000000000E+00  0.65930327378E+02  0.65930327378E+02  0.00000000000E+00 0.  1.
         21   -1    0    0  501  503 -0.00000000000E+00 -0.00000000000E+00 -0.79825004848E+03  0.79825004848E+03  0.00000000000E+00 0.  1.
          6    1    1    2  501    0 -0.14671196914E+03 -0.33422618640E+02 -0.38055512589E+03  0.44428895683E+03  0.17300000000E+03 0.  1.
         -6    1    1    2    0  502  0.14671196914E+03  0.33422618640E+02 -0.35176459522E+03  0.41989141903E+03  0.17300000000E+03 0.  1.
<mgrwt>
<rscale>  2 0.22928252E+03</rscale>
<asrwt>0</asrwt>
<pdfrwt beam="1">  1       21 0.10143127E-01 0.22928252E+03</pdfrwt>
<pdfrwt beam="2">  1       21 0.12280770E+00 0.22928252E+03</pdfrwt>
<totfact> 0.38684661E+04</totfact>
</mgrwt>
</event>
<event>
 4    1  0.4327903E+000  0.1943197E+03  0.7546771E-02  0.1154622E+00
         21   -1    0    0  501  502  0.00000000000E+00  0.00000000000E+00  0.17155603530E+03  0.17155603530E+03  0.00000000000E+00 0. -1.
         21   -1    0    0  502  503 -0.00000000000E+00 -0.00000000000E+00 -0.22857347001E+03  0.22857347001E+03  0.00000000000E+00 0. -1.
          6    1    1    2  501    0 -0.62562271490E+02 -0.62586690745E+02  0.10002873190E+02  0.19457694916E+03  0.17300000000E+03 0. -1.
         -6    1    1    2    0  503  0.62562271490E+02  0.62586690745E+02 -0.67020307898E+02  0.20555255616E+03  0.17300000000E+03 0. -1.
<mgrwt>
<rscale>  2 0.19431966E+03</rscale>
<asrwt>0</asrwt>
<pdfrwt beam="1">  1       21 0.26393236E-01 0.19431966E+03</pdfrwt>
<pdfrwt beam="2">  1       21 0.35165149E-01 0.19431966E+03</pdfrwt>
<totfact> 0.10637757E+05</totfact>
</mgrwt>
</event>
<event>
 4    1  0.4327903E+000  0.2319078E+03  0.7546771E-02  0.1125304E+00
         21   -1    0    0  503  502  0.00000000000E+00  0.00000000000E+00  0.29752155008E+03  0.29752155008E+03  0.00000000000E+00 0.  1.
         21   -1    0    0  501  503 -0.00000000000E+00 -0.00000000000E+00 -0.35717819330E+03  0.35717819330E+03  0.00000000000E+00 0.  1.
          6    1    1    2  501    0 -0.95555662678E+02 -0.12133147245E+03 -0.25988580432E+03  0.34831285099E+03  0.17300000000E+03 0.  1.
         -6    1    1    2    0  502  0.95555662678E+02  0.12133147245E+03  0.20022916110E+03  0.30638689240E+03  0.17300000000E+03 0.  1.
<mgrwt>
<rscale>  2 0.23190776E+03</rscale>
<asrwt>0</asrwt>
<pdfrwt beam="1">  1       21 0.45772546E-01 0.23190776E+03</pdfrwt>
<pdfrwt beam="2">  1       21 0.54950491E-01 0.23190776E+03</pdfrwt>
<totfact> 0.13961115E+04</totfact>
</mgrwt>
</event>
<event>
 4    1  0.4327903E+000  0.1753626E+03  0.7546771E-02  0.1172368E+00
         21   -1    0    0  503  502  0.00000000000E+00  0.00000000000E+00  0.56583978652E+03  0.56583978652E+03  0.00000000000E+00 0. -1.
         21   -1    0    0  501  503 -0.00000000000E+00 -0.00000000000E+00 -0.30151553148E+03  0.30151553148E+03  0.00000000000E+00 0. -1.
          6    1    1    2  501    0 -0.28597920748E+02 -0.22832078474E+01 -0.26049025479E+03  0.31401787680E+03  0.17300000000E+03 0. -1.
         -6    1    1    2    0  502  0.28597920748E+02  0.22832078474E+01  0.52481450983E+03  0.55333744120E+03  0.17300000000E+03 0. -1.
<mgrwt>
<rscale>  2 0.17536264E+03</rscale>
<asrwt>0</asrwt>
<pdfrwt beam="1">  1       21 0.87052275E-01 0.17536264E+03</pdfrwt>
<pdfrwt beam="2">  1       21 0.46387005E-01 0.17536264E+03</pdfrwt>
<totfact> 0.51209032E+03</totfact>
</mgrwt>
</event>
<event>
 4    1  0.4327903E+000  0.1806818E+03  0.7546771E-02  0.1167145E+00
         21   -1    0    0  503  502  0.00000000000E+00  0.00000000000E+00  0.26828202332E+02  0.26828202332E+02  0.00000000000E+00 0.  1.
         21   -1    0    0  501  503 -0.00000000000E+00 -0.00000000000E+00 -0.13382892137E+04  0.13382892137E+04  0.00000000000E+00 0.  1.
          6    1    1    2  501    0 -0.94776911796E+01  0.51255122306E+02 -0.86134011949E+03  0.88008676597E+03  0.17300000000E+03 0. -1.
         -6    1    1    2    0  502  0.94776911796E+01 -0.51255122306E+02 -0.45012089185E+03  0.48503065003E+03  0.17300000000E+03 0. -1.
<mgrwt>
<rscale>  2 0.18068180E+03</rscale>
<asrwt>0</asrwt>
<pdfrwt beam="1">  1       21 0.41274166E-02 0.18068180E+03</pdfrwt>
<pdfrwt beam="2">  1       21 0.20589060E+00 0.18068180E+03</pdfrwt>
<totfact> 0.46161322E+04</totfact>
</mgrwt>
</event>
<event>
 4    1  0.4327903E+000  0.2815975E+03  0.7546771E-02  0.1094820E+00
         21   -1    0    0  501  502  0.00000000000E+00  0.00000000000E+00  0.10337057138E+03  0.10337057138E+03  0.00000000000E+00 0. -1.
         21   -1    0    0  502  503 -0.00000000000E+00 -0.00000000000E+00 -0.11333018259E+04  0.11333018259E+04  0.00000000000E+00 0.  1.
          6    1    1    2  501    0 -0.21713246824E+03 -0.47134569098E+02 -0.16348378963E+03  0.32561346078E+03  0.17300000000E+03 0. -1.
         -6    1    1    2    0  503  0.21713246824E+03  0.47134569098E+02 -0.86644746489E+03  0.91105893650E+03  0.17300000000E+03 0.  1.
<mgrwt>
<rscale>  2 0.28159754E+03</rscale>
<asrwt>0</asrwt>
<pdfrwt beam="1">  1       21 0.15903166E-01 0.28159754E+03</pdfrwt>
<pdfrwt beam="2">  1       21 0.17435412E+00 0.28159754E+03</pdfrwt>
<totfact> 0.65844921E+03</totfact>
</mgrwt>
</event>
<event>
 4    1  0.4327903E+000  0.2002724E+03  0.7546771E-02  0.1149509E+00
         21   -1    0    0  503  502  0.00000000000E+00  0.00000000000E+00  0.78816966906E+02  0.78816966906E+02  0.00000000000E+00 0.  1.
         21   -1    0    0  501  503 -0.00000000000E+00 -0.00000000000E+00 -0.11269281262E+04  0.11269281262E+04  0.00000000000E+00 0.  1.
          6    1    1    2  501    0  0.95799247288E+02 -0.31662906720E+02 -0.97051872572E+03  0.99096701883E+03  0.17300000000E+03 0.  1.
         -6    1    1    2    0  502 -0.95799247288E+02  0.31662906720E+02 -0.77592433583E+02  0.21477807428E+03  0.17300000000E+03 0.  1.
<mgrwt>
<rscale>  2 0.20027240E+03</rscale>
<asrwt>0</asrwt>
<pdfrwt beam="1">  1       21 0.12125687E-01 0.20027240E+03</pdfrwt>
<pdfrwt beam="2">  1       21 0.17337356E+00 0.20027240E+03</pdfrwt>
<totfact> 0.11572609E+04</totfact>
</mgrwt>
</event>
<event>
 4    1  0.4327903E+000  0.1981058E+03  0.7546771E-02  0.1151347E+00
         21   -1    0    0  503  502  0.00000000000E+00  0.00000000000E+00  0.29012454568E+02  0.29012454568E+02  0.00000000000E+00 0. -1.
         21   -1    0    0  501  503 -0.00000000000E+00 -0.00000000000E+00 -0.13528210566E+04  0.13528210566E+04  0.00000000000E+00 0.  1.
          6    1    1    2  501    0 -0.88718567989E+02  0.38025431381E+02 -0.66767892633E+03  0.69644889720E+03  0.17300000000E+03 0. -1.
         -6    1    1    2    0  502  0.88718567989E+02 -0.38025431381E+02 -0.65612967574E+03  0.68538461401E+03  0.17300000000E+03 0.  1.
<mgrwt>
<rscale>  2 0.19810582E+03</rscale>
<asrwt>0</asrwt>
<pdfrwt beam="1">  1       21 0.44634546E-02 0.19810582E+03</pdfrwt>
<pdfrwt beam="2">  1       21 0.20812631E+00 0.19810582E+03</pdfrwt>
<totfact> 0.38706361E+04</totfact>
</mgrwt>
</event>
<event>
 4    1  0.4327903E+000  0.2517524E+03  0.7546771E-02  0.1112202E+00
         21   -1    0    0  501  502  0.00000000000E+00  0.00000000000E+00  0.13173386500E+03  0.13173386500E+03  0.00000000000E+00 0.  1.
         21   -1    0    0  502  503 -0.00000000000E+00 -0.00000000000E+00 -0.51902333927E+03  0.51902333927E+03  0.00000000000E+00 0. -1.
          6    1    1    2  501    0 -0.17398045906E+03  0.56400814057E+02 -0.10571050224E+03  0.27304571457E+03  0.17300000000E+03 0.  1.
         -6    1    1    2    0  503  0.17398045906E+03 -0.56400814057E+02 -0.28157897203E+03  0.37771148970E+03  0.17300000000E+03 0.  1.
<mgrwt>
<rscale>  2 0.25175236E+03</rscale>
<asrwt>0</asrwt>
<pdfrwt beam="1">  1       21 0.20266748E-01 0.25175236E+03</pdfrwt>
<pdfrwt beam="2">  1       21 0.79849746E-01 0.25175236E+03</pdfrwt>
<totfact> 0.30185333E+04</totfact>
</mgrwt>
</event>
<event>
 4    1  0.4327903E+000  0.2498388E+03  0.7546771E-02  0.1113407E+00
         21   -1    0    0  503  502  0.00000000000E+00  0.00000000000E+00  0.13523437978E+03  0.13523437978E+03  0.00000000000E+00 0. -1.
         21   -1    0    0  501  503 -0.00000000000E+00 -0.00000000000E+00 -0.62775323984E+03  0.62775323984E+03  0.00000000000E+00 0. -1.
          6    1    1    2  501    0  0.16281874018E+03 -0.77333636535E+02 -0.44254726298E+03  0.50820026905E+03  0.17300000000E+03 0. -1.
         -6    1    1    2    0  502 -0.16281874018E+03  0.77333636535E+02 -0.49971597085E+02  0.25478735057E+03  0.17300000000E+03 0. -1.
<mgrwt>
<rscale>  2 0.24983882E+03</rscale>
<asrwt>0</asrwt>
<pdfrwt beam="1">  1       21 0.20805289E-01 0.24983882E+03</pdfrwt>
<pdfrwt beam="2">  1       21 0.96577421E-01 0.24983882E+03</pdfrwt>
<totfact> 0.18494960E+04</totfact>
</mgrwt>
</event>
<event>
 4    1  0.4327903E+000  0.1777811E+03  0.7546771E-02  0.1169968E+00
         21   -1    0    0  503  502  0.00000000000E+00  0.00000000000E+00  0.37017008616E+02  0.37017008616E+02  0.00000000000E+00 0.  1.
         21   -1    0    0  501  503 -0.00000000000E+00 -0.00000000000E+00 -0.92241103946E+03  0.92241103946E+03  0.00000000000E+00 0.  1.
          6    1    1    2  501    0  0.15769640403E+02  0.37794730276E+02 -0.57350418456E+03  0.60042749179E+03  0.17300000000E+03 0.  1.
         -6    1    1    2    0  502 -0.15769640403E+02 -0.37794730276E+02 -0.31188984629E+03  0.35900055629E+03  0.17300000000E+03 0.  1.
<mgrwt>
<rscale>  2 0.17778111E+03</rscale>
<asrwt>0</asrwt>
<pdfrwt beam="1">  1       21 0.56949248E-02 0.17778111E+03</pdfrwt>
<pdfrwt beam="2">  1       21 0.14190938E+00 0.17778111E+03</pdfrwt>
<totfact> 0.75037055E+04</totfact>
</mgrwt>
</event>
<event>
 4    1  0.4327903E+000  0.1804109E+03  0.7546771E-02  0.1167406E+00
         21   -1    0    0  503  502  0.00000000000E+00  0.00000000000E+00  0.37464344859E+02  0.37464344859E+02  0.00000000000E+00 0. -1.
         21   -1    0    0  501  503 -0.00000000000E+00 -0.00000000000E+00 -0.96962017077E+03  0.96962017077E+03  0.00000000000E+00 0. -1.
          6    1    1    2  501    0  0.36770689700E+02 -0.35594899972E+02 -0.62846929633E+03  0.65385146399E+03  0.17300000000E+03 0. -1.
         -6    1    1    2    0  502 -0.36770689700E+02  0.35594899972E+02 -0.30368652957E+03  0.35323305164E+03  0.17300000000E+03 0. -1.
<mgrwt>
<rscale>  2 0.18041087E+03</rscale>
<asrwt>0</asrwt>
<pdfrwt beam="1">  1       21 0.57637447E-02 0.18041087E+03</pdfrwt>
<pdfrwt beam="2">  1       21 0.14917235E+00 0.18041087E+03</pdfrwt>
<totfact> 0.64468758E+04</totfact>
</mgrwt>
</event>
<event>
 4    1  0.4327903E+000  0.2357096E+03  0.7546771E-02  0.1122684E+00
         21   -1    0    0  501  502  0.00000000000E+00  0.00000000000E+00  0.88893876400E+03  0.88893876400E+03  0.00000000000E+00 0.  1.
         21   -1    0    0  502  503 -0.00000000000E+00 -0.00000000000E+00 -0.73290687048E+02  0.73290687048E+02  0.00000000000E+00 0. -1.
          6    1    1    2  501    0  0.15679419944E+03 -0.32335553352E+02  0.59242807370E+03  0.63759707614E+03  0.17300000000E+03 0. -1.
         -6    1    1    2    0  503 -0.15679419944E+03  0.32335553352E+02  0.22322000325E+03  0.32463237491E+03  0.17300000000E+03 0. -1.
<mgrwt>
<rscale>  2 0.23570959E+03</rscale>
<asrwt>0</asrwt>
<pdfrwt beam="1">  1       21 0.13675980E+00 0.23570959E+03</pdfrwt>
<pdfrwt beam="2">  1       21 0.11275491E-01 0.23570959E+03</pdfrwt>
<totfact> 0.24296210E+04</totfact>
</mgrwt>
</event>
<event>
 4    1  0.4327903E+000  0.2425014E+03  0.7546771E-02  0.1118138E+00
         21   -1    0    0  501  502  0.00000000000E+00  0.00000000000E+00  0.55689351808E+02  0.55689351808E+02  0.00000000000E+00 0.  1.
         21   -1    0    0  502  503 -0.00000000000E+00 -0.00000000000E+00 -0.11025337227E+04  0.11025337227E+04  0.00000000000E+00 0. -1.
          6    1    1    2  501    0  0.97330045450E+02 -0.13930116161E+03 -0.40442565486E+03  0.47155812121E+03  0.17300000000E+03 0.  1.
         -6    1    1    2    0  503 -0.97330045450E+02  0.13930116161E+03 -0.64241871600E+03  0.68666495326E+03  0.17300000000E+03 0.  1.
<mgrwt>
<rscale>  2 0.24250145E+03</rscale>
<asrwt>0</asrwt>
<pdfrwt beam="1">  1       21 0.85675927E-02 0.24250145E+03</pdfrwt>
<pdfrwt beam="2">  1       21 0.16962057E+00 0.24250145E+03</pdfrwt>
<totfact> 0.22144581E+04</totfact>
</mgrwt>
</event>
<event>
 4    1  0.4327903E+000  0.1785550E+03  0.7546771E-02  0.1169209E+00
         21   -1    0    0  501  502  0.00000000000E+00  0.00000000000E+00  0.53662922145E+02  0.53662922145E+02  0.00000000000E+00 0. -1.
         21   -1    0    0  502  503 -0.00000000000E+00 -0.00000000000E+00 -0.10030770952E+04  0.10030770952E+04  0.00000000000E+00 0. -1.
          6    1    1    2  501    0 -0.95153342255E+01 -0.43154775937E+02 -0.13733182850E+03  0.22525964439E+03  0.17300000000E+03 0. -1.
         -6    1    1    2    0  503  0.95153342255E+01  0.43154775937E+02 -0.81208234451E+03  0.83148037291E+03  0.17300000000E+03 0. -1.
<mgrwt>
<rscale>  2 0.17855497E+03</rscale>
<asrwt>0</asrwt>
<pdfrwt beam="1">  1       21 0.82558343E-02 0.17855497E+03</pdfrwt>
<pdfrwt beam="2">  1       21 0.15431955E+00 0.17855497E+03</pdfrwt>
<totfact> 0.31780253E+04</totfact>
</mgrwt>
</event>
<event>
 4    1  0.4327903E+000  0.2030098E+03  0.7546771E-02  0.1147224E+00
         21   -1    0    0  503  502  0.00000000000E+00  0.00000000000E+00  0.58254869978E+03  0.58254869978E+03  0.00000000000E+00 0.  1.
         21   -1    0    0  501  503 -0.00000000000E+00 -0.00000000000E+00 -0.17550521087E+03  0.17550521087E+03  0.00000000000E+00 0. -1.
          6    1    1    2  501    0 -0.66371711331E+02 -0.82938441525E+02 -0.89312055008E+02  0.22178735834E+03  0.17300000000E+03 0. -1.
         -6    1    1    2    0  502  0.66371711331E+02  0.82938441525E+02  0.49635554392E+03  0.53626655231E+03  0.17300000000E+03 0.  1.
<mgrwt>
<rscale>  2 0.20300983E+03</rscale>
<asrwt>0</asrwt>
<pdfrwt beam="1">  1       21 0.89622876E-01 0.20300983E+03</pdfrwt>
<pdfrwt beam="2">  1       21 0.27000802E-01 0.20300983E+03</pdfrwt>
<totfact> 0.13769222E+04</totfact>
</mgrwt>
</event>
<event>
 4    1  0.4327903E+000  0.2595418E+03  0.7546771E-02  0.1107419E+00
         21   -1    0    0  503  502  0.00000000000E+00  0.00000000000E+00  0.17178918384E+03  0.17178918384E+03  0.00000000000E+00 0. -1.
         21   -1    0    0  501  503 -0.00000000000E+00 -0.00000000000E+00 -0.14070115879E+04  0.14070115879E+04  0.00000000000E+00 0. -1.
          6    1    1    2  501    0  0.18567460747E+03 -0.54386379385E+02 -0.12880488121E+04  0.13139374721E+04  0.17300000000E+03 0. -1.
         -6    1    1    2    0  502 -0.18567460747E+03  0.54386379385E+02  0.52826408064E+02  0.26486329967E+03  0.17300000000E+03 0. -1.
<mgrwt>
<rscale>  2 0.25954178E+03</rscale>
<asrwt>0</asrwt>
<pdfrwt beam="1">  1       21 0.26429105E-01 0.25954178E+03</pdfrwt>
<pdfrwt beam="2">  1       21 0.21646332E+00 0.25954178E+03</pdfrwt>
<totfact> 0.13494277E+03</totfact>
</mgrwt>
</event>
<event>
 4    1  0.4327903E+000  0.1853381E+03  0.7546771E-02  0.1162735E+00
         21   -1    0    0  501  502  0.00000000000E+00  0.00000000000E+00  0.28019190647E+03  0.28019190647E+03  0.00000000000E+00 0.  1.
         21   -1    0    0  502  503 -0.00000000000E+00 -0.00000000000E+00 -0.12261690653E+03  0.12261690653E+03  0.00000000000E+00 0.  1.
          6    1    1    2  501    0 -0.43556651374E+02 -0.50239639409E+02  0.81462711674E+02  0.20245092403E+03  0.17300000000E+03 0.  1.
         -6    1    1    2    0  503  0.43556651374E+02  0.50239639409E+02  0.76112288261E+02  0.20035788897E+03  0.17300000000E+03 0.  1.
<mgrwt>
<rscale>  2 0.18533808E+03</rscale>
<asrwt>0</asrwt>
<pdfrwt beam="1">  1       21 0.43106447E-01 0.18533808E+03</pdfrwt>
<pdfrwt beam="2">  1       21 0.18864140E-01 0.18533808E+03</pdfrwt>
<totfact> 0.13352110E+05</totfact>
</mgrwt>
</event>
<event>
 4    1  0.4327903E+000  0.1944107E+03  0.7546771E-02  0.1154542E+00
         21   -1    0    0  503  502  0.00000000000E+00  0.00000000000E+00  0.18496503369E+03  0.18496503369E+03  0.00000000000E+00 0.  1.
         21   -1    0    0  501  503 -0.00000000000E+00 -0.00000000000E+00 -0.20573809723E+03  0.20573809723E+03  0.00000000000E+00 0.  1.
          6    1    1    2  501    0  0.19017415050E+02  0.86630499871E+02 -0.26498090056E+02  0.19620819137E+03  0.17300000000E+03 0.  1.
         -6    1    1    2    0  502 -0.19017415050E+02 -0.86630499871E+02  0.57250265110E+01  0.19449493955E+03  0.17300000000E+03 0.  1.
<mgrwt>
<rscale>  2 0.19441066E+03</rscale>
<asrwt>0</asrwt>
<pdfrwt beam="1">  1       21 0.28456159E-01 0.19441066E+03</pdfrwt>
<pdfrwt beam="2">  1       21 0.31652015E-01 0.19441066E+03</pdfrwt>
<totfact> 0.11324220E+05</totfact>
</mgrwt>
</event>
<event>
 4    1  0.4327903E+000  0.1867835E+03  0.7546771E-02  0.1161395E+00
         21   -1    0    0  501  502  0.00000000000E+00  0.00000000000E+00  0.59986229045E+03  0.59986229045E+03  0.00000000000E+00 0.  1.
         21   -1    0    0  502  503 -0.00000000000E+00 -0.00000000000E+00 -0.91165631933E+02  0.91165631933E+02  0.00000000000E+00 0.  1.
          6    1    1    2  501    0 -0.28052286658E+02 -0.64592009089E+02  0.46224297857E+03  0.49855454031E+03  0.17300000000E+03 0.  1.
         -6    1    1    2    0  503  0.28052286658E+02  0.64592009089E+02  0.46453679939E+02  0.19247338207E+03  0.17300000000E+03 0.  1.
<mgrwt>
<rscale>  2 0.18678345E+03</rscale>
<asrwt>0</asrwt>
<pdfrwt beam="1">  1       21 0.92286504E-01 0.18678345E+03</pdfrwt>
<pdfrwt beam="2">  1       21 0.14025482E-01 0.18678345E+03</pdfrwt>
<totfact> 0.44057095E+04</totfact>
</mgrwt>
</event>
<event>
 4    1  0.4327903E+000  0.2368482E+03  0.7546771E-02  0.1121910E+00
         21   -1    0    0  501  502  0.00000000000E+00  0.00000000000E+00  0.21395056326E+03  0.21395056326E+03  0.00000000000E+00 0. -1.
         21   -1    0    0  502  503 -0.00000000000E+00 -0.00000000000E+00 -0.31756596417E+03  0.31756596417E+03  0.00000000000E+00 0. -1.
          6    1    1    2  501    0 -0.14235654907E+03  0.76828959486E+02  0.59162200254E+02  0.24412546368E+03  0.17300000000E+03 0. -1.
         -6    1    1    2    0  503  0.14235654907E+03 -0.76828959486E+02 -0.16277760116E+03  0.28739106374E+03  0.17300000000E+03 0. -1.
<mgrwt>
<rscale>  2 0.23684821E+03</rscale>
<asrwt>0</asrwt>
<pdfrwt beam="1">  1       21 0.32915471E-01 0.23684821E+03</pdfrwt>
<pdfrwt beam="2">  1       21 0.48856302E-01 0.23684821E+03</pdfrwt>
<totfact> 0.34753706E+04</totfact>
</mgrwt>
</event>
<event>
 4    1  0.4327903E+000  0.3272159E+03  0.7546771E-02  0.1072375E+00
         21   -1    0    0  501  502  0.00000000000E+00  0.00000000000E+00  0.69169813566E+03  0.69169813566E+03  0.00000000000E+00 0. -1.
         21   -1    0    0  502  503 -0.00000000000E+00 -0.00000000000E+00 -0.15598058212E+03  0.15598058212E+03  0.00000000000E+00 0.  1.
          6    1    1    2  501    0 -0.78191178730E+02 -0.26650968617E+03  0.30483592368E+03  0.44720824414E+03  0.17300000000E+03 0.  1.
         -6    1    1    2    0  503  0.78191178730E+02  0.26650968617E+03  0.23088162986E+03  0.40047047364E+03  0.17300000000E+03 0.  1.
<mgrwt>
<rscale>  2 0.32721594E+03</rscale>
<asrwt>0</asrwt>
<pdfrwt beam="1">  1       21 0.10641510E+00 0.32721594E+03</pdfrwt>
<pdfrwt beam="2">  1       21 0.23997013E-01 0.32721594E+03</pdfrwt>
<totfact> 0.10765856E+04</totfact>
</mgrwt>
</event>
<event>
 4    1  0.4327903E+000  0.1892489E+03  0.7546771E-02  0.1159141E+00
         21   -1    0    0  503  502  0.00000000000E+00  0.00000000000E+00  0.28775559728E+03  0.28775559728E+03  0.00000000000E+00 0.  1.
         21   -1    0    0  501  503 -0.00000000000E+00 -0.00000000000E+00 -0.16722196815E+03  0.16722196815E+03  0.00000000000E+00 0.  1.
          6    1    1    2  501    0  0.73692839656E+02  0.21342322898E+02 -0.54766417253E+02  0.19701393307E+03  0.17300000000E+03 0.  1.
         -6    1    1    2    0  502 -0.73692839656E+02 -0.21342322898E+02  0.17530004638E+03  0.25796363237E+03  0.17300000000E+03 0.  1.
<mgrwt>
<rscale>  2 0.18924886E+03</rscale>
<asrwt>0</asrwt>
<pdfrwt beam="1">  1       21 0.44270092E-01 0.18924886E+03</pdfrwt>
<pdfrwt beam="2">  1       21 0.25726457E-01 0.18924886E+03</pdfrwt>
<totfact> 0.70370417E+04</totfact>
</mgrwt>
</event>
<event>
 4    1  0.4327903E+000  0.1932005E+03  0.7546771E-02  0.1155606E+00
         21   -1    0    0  501  502  0.00000000000E+00  0.00000000000E+00  0.33913021928E+03  0.33913021928E+03  0.00000000000E+00 0.  1.
         21   -1    0    0  502  503 -0.00000000000E+00 -0.00000000000E+00 -0.12647749801E+03  0.12647749801E+03  0.00000000000E+00 0.  1.
          6    1    1    2  501    0  0.46136070733E+02  0.72587216594E+02  0.19018890199E+03  0.27110562421E+03  0.17300000000E+03 0.  1.
         -6    1    1    2    0  503 -0.46136070733E+02 -0.72587216594E+02  0.22463819283E+02  0.19450209308E+03  0.17300000000E+03 0.  1.
<mgrwt>
<rscale>  2 0.19320052E+03</rscale>
<asrwt>0</asrwt>
<pdfrwt beam="1">  1       21 0.52173879E-01 0.19320052E+03</pdfrwt>
<pdfrwt beam="2">  1       21 0.19458077E-01 0.19320052E+03</pdfrwt>
<totfact> 0.84682383E+04</totfact>
</mgrwt>
</event>
<event>
 4    1  0.4327903E+000  0.2300145E+03  0.7546771E-02  0.1126630E+00
         21   -1    0    0  501  502  0.00000000000E+00  0.00000000000E+00  0.10363821637E+03  0.10363821637E+03  0.00000000000E+00 0.  1.
         21   -1    0    0  502  503 -0.00000000000E+00 -0.00000000000E+00 -0.58208711607E+03  0.58208711607E+03  0.00000000000E+00 0.  1.
          6    1    1    2  501    0 -0.11401526645E+03  0.99890887763E+02 -0.11898074737E+03  0.25896541986E+03  0.17300000000E+03 0.  1.
         -6    1    1    2    0  503  0.11401526645E+03 -0.99890887763E+02 -0.35946815233E+03  0.42675991258E+03  0.17300000000E+03 0.  1.
<mgrwt>
<rscale>  2 0.23001450E+03</rscale>
<asrwt>0</asrwt>
<pdfrwt beam="1">  1       21 0.15944341E-01 0.23001450E+03</pdfrwt>
<pdfrwt beam="2">  1       21 0.89551866E-01 0.23001450E+03</pdfrwt>
<totfact> 0.36582695E+04</totfact>
</mgrwt>
</event>
<event>
 4    1  0.4327903E+000  0.1967963E+03  0.7546771E-02  0.1152471E+00
         21   -1    0    0  503  502  0.00000000000E+00  0.00000000000E+00  0.54487377977E+03  0.54487377977E+03  0.00000000000E+00 0.  1.
         21   -1    0    0  501  503 -0.00000000000E+00 -0.00000000000E+00 -0.12031104451E+03  0.12031104451E+03  0.00000000000E+00 0.  1.
          6    1    1    2  501    0 -0.92769113965E+02 -0.13916056878E+02 -0.47673086559E+00  0.19679683030E+03  0.17300000000E+03 0.  1.
         -6    1    1    2    0  502  0.92769113965E+02  0.13916056878E+02  0.42503946613E+03  0.46838799399E+03  0.17300000000E+03 0.  1.
<mgrwt>
<rscale>  2 0.19679625E+03</rscale>
<asrwt>0</asrwt>
<pdfrwt beam="1">  1       21 0.83826734E-01 0.19679625E+03</pdfrwt>
<pdfrwt beam="2">  1       21 0.18509392E-01 0.19679625E+03</pdfrwt>
<totfact> 0.32903971E+04</totfact>
</mgrwt>
</event>
<event>
 4    1  0.4327903E+000  0.2160130E+03  0.7546771E-02  0.1136891E+00
         21   -1    0    0  501  502  0.00000000000E+00  0.00000000000E+00  0.21556033178E+03  0.21556033178E+03  0.00000000000E+00 0.  1.
         21   -1    0    0  502  503 -0.00000000000E+00 -0.00000000000E+00 -0.21692270302E+03  0.21692270302E+03  0.00000000000E+00 0. -1.
          6    1    1    2  501    0 -0.10715026163E+03 -0.72466761756E+02  0.92344930732E+01  0.21621028188E+03  0.17300000000E+03 0. -1.
         -6    1    1    2    0  503  0.10715026163E+03  0.72466761756E+02 -0.10596864314E+02  0.21627275293E+03  0.17300000000E+03 0.  1.
<mgrwt>
<rscale>  2 0.21601299E+03</rscale>
<asrwt>0</asrwt>
<pdfrwt beam="1">  1       21 0.33163128E-01 0.21601299E+03</pdfrwt>
<pdfrwt beam="2">  1       21 0.33372724E-01 0.21601299E+03</pdfrwt>
<totfact> 0.74950040E+04</totfact>
</mgrwt>
</event>
<event>
 4    1  0.4327903E+000  0.1850363E+03  0.7546771E-02  0.1163016E+00
         21   -1    0    0  503  502  0.00000000000E+00  0.00000000000E+00  0.15725101933E+03  0.15725101933E+03  0.00000000000E+00 0. -1.
         21   -1    0    0  501  503 -0.00000000000E+00 -0.00000000000E+00 -0.22974490181E+03  0.22974490181E+03  0.00000000000E+00 0. -1.
          6    1    1    2  501    0 -0.61347774620E+02  0.23364146664E+02 -0.80494999018E+02  0.20178671331E+03  0.17300000000E+03 0.  1.
         -6    1    1    2    0  502  0.61347774620E+02 -0.23364146664E+02  0.80011165418E+01  0.18520920783E+03  0.17300000000E+03 0.  1.
<mgrwt>
<rscale>  2 0.18503630E+03</rscale>
<asrwt>0</asrwt>
<pdfrwt beam="1">  1       21 0.24192464E-01 0.18503630E+03</pdfrwt>
<pdfrwt beam="2">  1       21 0.35345370E-01 0.18503630E+03</pdfrwt>
<totfact> 0.12476955E+05</totfact>
</mgrwt>
</event>
<event>
 4    1  0.4327903E+000  0.1802823E+03  0.7546771E-02  0.1167530E+00
         21   -1    0    0  501  502  0.00000000000E+00  0.00000000000E+00  0.42543261126E+03  0.42543261126E+03  0.00000000000E+00 0.  1.
         21   -1    0    0  502  503 -0.00000000000E+00 -0.00000000000E+00 -0.16942551029E+03  0.16942551029E+03  0.00000000000E+00 0.  1.
          6    1    1    2  501    0 -0.85158764079E+01 -0.50001729364E+02  0.34839892835E+03  0.39227988270E+03  0.17300000000E+03 0.  1.
         -6    1    1    2    0  503  0.85158764079E+01  0.50001729364E+02 -0.92391827377E+02  0.20257823885E+03  0.17300000000E+03 0.  1.
<mgrwt>
<rscale>  2 0.18028226E+03</rscale>
<asrwt>0</asrwt>
<pdfrwt beam="1">  1       21 0.65451170E-01 0.18028226E+03</pdfrwt>
<pdfrwt beam="2">  1       21 0.26065463E-01 0.18028226E+03</pdfrwt>
<totfact> 0.30225478E+04</totfact>
</mgrwt>
</event>
<event>
 4    1  0.4327903E+000  0.1763704E+03  0.7546771E-02  0.1171363E+00
         21   -1    0    0  503  502  0.00000000000E+00  0.00000000000E+00  0.27931488257E+02  0.27931488257E+02  0.00000000000E+00 0.  1.
         21   -1    0    0  501  503 -0.00000000000E+00 -0.00000000000E+00 -0.12060142399E+04  0.12060142399E+04  0.00000000000E+00 0.  1.
          6    1    1    2  501    0  0.62631444241E+00 -0.34309030287E+02 -0.41831867465E+03  0.45397909136E+03  0.17300000000E+03 0.  1.
         -6    1    1    2    0  502 -0.62631444241E+00  0.34309030287E+02 -0.75976407696E+03  0.77996663677E+03  0.17300000000E+03 0.  1.
<mgrwt>
<rscale>  2 0.17637035E+03</rscale>
<asrwt>0</asrwt>
<pdfrwt beam="1">  1       21 0.42971523E-02 0.17637035E+03</pdfrwt>
<pdfrwt beam="2">  1       21 0.18554064E+00 0.17637035E+03</pdfrwt>
<totfact> 0.58589074E+04</totfact>
</mgrwt>
</event>
<event>
 4    1  0.4327903E+000  0.2158123E+03  0.7546771E-02  0.1137044E+00
         21   -1    0    0  503  502  0.00000000000E+00  0.00000000000E+00  0.11449932591E+03  0.11449932591E+03  0.00000000000E+00 0.  1.
         21   -1    0    0  501  503 -0.00000000000E+00 -0.00000000000E+00 -0.42710614217E+03  0.42710614217E+03  0.00000000000E+00 0.  1.
          6    1    1    2  501    0  0.55514453990E+02 -0.11646493555E+03 -0.21539357590E+03  0.30490872135E+03  0.17300000000E+03 0.  1.
         -6    1    1    2    0  502 -0.55514453990E+02  0.11646493555E+03 -0.97213240355E+02  0.23669674674E+03  0.17300000000E+03 0.  1.
<mgrwt>
<rscale>  2 0.21581227E+03</rscale>
<asrwt>0</asrwt>
<pdfrwt beam="1">  1       21 0.17615280E-01 0.21581227E+03</pdfrwt>
<pdfrwt beam="2">  1       21 0.65708639E-01 0.21581227E+03</pdfrwt>
<totfact> 0.61537835E+04</totfact>
</mgrwt>
</event>
<event>
 4    1  0.4327903E+000  0.3341589E+03  0.7546771E-02  0.1069311E+00
         21   -1    0    0  503  502  0.00000000000E+00  0.00000000000E+00  0.21853255872E+03  0.21853255872E+03  0.00000000000E+00 0.  1.
         21   -1    0    0  501  503 -0.00000000000E+00 -0.00000000000E+00 -0.52914899531E+03  0.52914899531E+03  0.00000000000E+00 0. -1.
          6    1    1    2  501    0  0.10543656385E+03  0.26573722113E+03 -0.86003720918E+02  0.34504895261E+03  0.17300000000E+03 0.  1.
         -6    1    1    2    0  502 -0.10543656385E+03 -0.26573722113E+03 -0.22461271567E+03  0.40263260142E+03  0.17300000000E+03 0. -1.
<mgrwt>
<rscale>  2 0.33415885E+03</rscale>
<asrwt>0</asrwt>
<pdfrwt beam="1">  1       21 0.33620394E-01 0.33415885E+03</pdfrwt>
<pdfrwt beam="2">  1       21 0.81407538E-01 0.33415885E+03</pdfrwt>
<totfact> 0.10453713E+04</totfact>
</mgrwt>
</event>
<event>
 4    1  0.4327903E+000  0.2628187E+03  0.7546771E-02  0.1105461E+00
         21   -1    0    0  503  502  0.00000000000E+00  0.00000000000E+00  0.16260611355E+03  0.16260611355E+03  0.00000000000E+00 0.  1.
         21   -1    0    0  501  503 -0.00000000000E+00 -0.00000000000E+00 -0.60708185454E+03  0.60708185454E+03  0.00000000000E+00 0.  1.
          6    1    1    2  501    0 -0.19227536154E+03 -0.46635563730E+02 -0.43312154153E+03  0.50662408174E+03  0.17300000000E+03 0.  1.
         -6    1    1    2    0  502  0.19227536154E+03  0.46635563730E+02 -0.11354199454E+02  0.26306388635E+03  0.17300000000E+03 0.  1.
<mgrwt>
<rscale>  2 0.26281874E+03</rscale>
<asrwt>0</asrwt>
<pdfrwt beam="1">  1       21 0.25016325E-01 0.26281874E+03</pdfrwt>
<pdfrwt beam="2">  1       21 0.93397211E-01 0.26281874E+03</pdfrwt>
<totfact> 0.13998983E+04</totfact>
</mgrwt>
</event>
<event>
 4    1  0.4327903E+000  0.2258944E+03  0.7546771E-02  0.1129563E+00
         21   -1    0    0  501  502  0.00000000000E+00  0.00000000000E+00  0.12029291893E+04  0.12029291893E+04  0.00000000000E+00 0.  1.
         21   -1    0    0  502  503 -0.00000000000E+00 -0.00000000000E+00 -0.61076912578E+02  0.61076912578E+02  0.00000000000E+00 0. -1.
          6    1    1    2  501    0  0.13757405925E+03  0.46611776356E+02  0.92022751739E+03  0.94754786857E+03  0.17300000000E+03 0.  1.
         -6    1    1    2    0  503 -0.13757405925E+03 -0.46611776356E+02  0.22162475930E+03  0.31645823327E+03  0.17300000000E+03 0. -1.
<mgrwt>
<rscale>  2 0.22589440E+03</rscale>
<asrwt>0</asrwt>
<pdfrwt beam="1">  1       21 0.18506601E+00 0.22589440E+03</pdfrwt>
<pdfrwt beam="2">  1       21 0.93964490E-02 0.22589440E+03</pdfrwt>
<totfact> 0.14865127E+04</totfact>
</mgrwt>
</event>
<event>
 4    1  0.4327903E+000  0.2230179E+03  0.7546771E-02  0.1131653E+00
         21   -1    0    0  501  502  0.00000000000E+00  0.00000000000E+00  0.82081427175E+03  0.82081427175E+03  0.00000000000E+00 0. -1.
         21   -1    0    0  502  503 -0.00000000000E+00 -0.00000000000E+00 -0.60710003914E+02  0.60710003914E+02  0.00000000000E+00 0. -1.
          6    1    1    2  501    0 -0.11410839505E+03 -0.82384893597E+02  0.39926055525E+03  0.45732481618E+03  0.17300000000E+03 0. -1.
         -6    1    1    2    0  503  0.11410839505E+03  0.82384893597E+02  0.36084371259E+03  0.42419945949E+03  0.17300000000E+03 0. -1.
<mgrwt>
<rscale>  2 0.22301793E+03</rscale>
<asrwt>0</asrwt>
<pdfrwt beam="1">  1       21 0.12627911E+00 0.22301793E+03</pdfrwt>
<pdfrwt beam="2">  1       21 0.93400012E-02 0.22301793E+03</pdfrwt>
<totfact> 0.41868025E+04</totfact>
</mgrwt>
</event>
<event>
 4    1  0.4327903E+000  0.1951959E+03  0.7546771E-02  0.1153857E+00
         21   -1    0    0  503  502  0.00000000000E+00  0.00000000000E+00  0.13525648913E+03  0.13525648913E+03  0.00000000000E+00 0.  1.
         21   -1    0    0  501  503 -0.00000000000E+00 -0.00000000000E+00 -0.43380326640E+03  0.43380326640E+03  0.00000000000E+00 0.  1.
          6    1    1    2  501    0  0.40807611137E+02  0.80666964920E+02 -0.31775567583E+03  0.37292102365E+03  0.17300000000E+03 0.  1.
         -6    1    1    2    0  502 -0.40807611137E+02 -0.80666964920E+02  0.19208898562E+02  0.19613873187E+03  0.17300000000E+03 0.  1.
<mgrwt>
<rscale>  2 0.19519585E+03</rscale>
<asrwt>0</asrwt>
<pdfrwt beam="1">  1       21 0.20808691E-01 0.19519585E+03</pdfrwt>
<pdfrwt beam="2">  1       21 0.66738964E-01 0.19519585E+03</pdfrwt>
<totfact> 0.44043044E+04</totfact>
</mgrwt>
</event>
<event>
 4    1  0.4327903E+000  0.2415780E+03  0.7546771E-02  0.1118746E+00
         21   -1    0    0  503  502  0.00000000000E+00  0.00000000000E+00  0.99593964490E+03  0.99593964490E+03  0.00000000000E+00 0.  1.
         21   -1    0    0  501  503 -0.00000000000E+00 -0.00000000000E+00 -0.60579675735E+02  0.60579675735E+02  0.00000000000E+00 0.  1.
          6    1    1    2  501    0  0.13727250564E+03  0.97914299246E+02  0.56322620893E+03  0.61284885023E+03  0.17300000000E+03 0.  1.
         -6    1    1    2    0  502 -0.13727250564E+03 -0.97914299246E+02  0.37213376023E+03  0.44367047040E+03  0.17300000000E+03 0.  1.
<mgrwt>
<rscale>  2 0.24157804E+03</rscale>
<asrwt>0</asrwt>
<pdfrwt beam="1">  1       21 0.15322147E+00 0.24157804E+03</pdfrwt>
<pdfrwt beam="2">  1       21 0.93199508E-02 0.24157804E+03</pdfrwt>
<totfact> 0.25207237E+04</totfact>
</mgrwt>
</event>
<event>
 4    1  0.4327903E+000  0.1941431E+03  0.7546771E-02  0.1154777E+00
         21   -1    0    0  501  502  0.00000000000E+00  0.00000000000E+00  0.26505326692E+03  0.26505326692E+03  0.00000000000E+00 0. -1.
         21   -1    0    0  502  503 -0.00000000000E+00 -0.00000000000E+00 -0.49858638444E+03  0.49858638444E+03  0.00000000000E+00 0. -1.
          6    1    1    2  501    0 -0.57015947205E+02 -0.67169394411E+02  0.20604314924E+03  0.28309949687E+03  0.17300000000E+03 0. -1.
         -6    1    1    2    0  503  0.57015947205E+02  0.67169394411E+02 -0.43957626676E+03  0.48054015449E+03  0.17300000000E+03 0. -1.
<mgrwt>
<rscale>  2 0.19414311E+03</rscale>
<asrwt>0</asrwt>
<pdfrwt beam="1">  1       21 0.40777425E-01 0.19414311E+03</pdfrwt>
<pdfrwt beam="2">  1       21 0.76705598E-01 0.19414311E+03</pdfrwt>
<totfact> 0.87503305E+03</totfact>
</mgrwt>
</event>
<event>
 4    1  0.4327903E+000  0.2357743E+03  0.7546771E-02  0.1122640E+00
         21   -1    0    0  503  502  0.00000000000E+00  0.00000000000E+00  0.17278909203E+03  0.17278909203E+03  0.00000000000E+00 0.  1.
         21   -1    0    0  501  503 -0.00000000000E+00 -0.00000000000E+00 -0.47379214743E+03  0.47379214743E+03  0.00000000000E+00 0. -1.
          6    1    1    2  501    0 -0.12980257520E+03 -0.93871370753E+02 -0.33365930663E+03  0.40855608633E+03  0.17300000000E+03 0. -1.
         -6    1    1    2    0  502  0.12980257520E+03  0.93871370753E+02  0.32656251235E+02  0.23802515313E+03  0.17300000000E+03 0.  1.
<mgrwt>
<rscale>  2 0.23577435E+03</rscale>
<asrwt>0</asrwt>
<pdfrwt beam="1">  1       21 0.26582938E-01 0.23577435E+03</pdfrwt>
<pdfrwt beam="2">  1       21 0.72891098E-01 0.23577435E+03</pdfrwt>
<totfact> 0.22274248E+04</totfact>
</mgrwt>
</event>
<event>
 4    1  0.4327903E+000  0.1760360E+03  0.7546771E-02  0.1171695E+00
         21   -1    0    0  503  502  0.00000000000E+00  0.00000000000E+00  0.25646069605E+03  0.25646069605E+03  0.00000000000E+00 0.  1.
         21   -1    0    0  501  503 -0.00000000000E+00 -0.00000000000E+00 -0.15925713010E+03  0.15925713010E+03  0.00000000000E+00 0.  1.
          6    1    1    2  501    0 -0.25891542711E+02 -0.19731119396E+02 -0.53498328551E+02  0.18398576090E+03  0.17300000000E+03 0.  1.
         -6    1    1    2    0  502  0.25891542711E+02  0.19731119396E+02  0.15070189450E+03  0.23173206524E+03  0.17300000000E+03 0.  1.
<mgrwt>
<rscale>  2 0.17603604E+03</rscale>
<asrwt>0</asrwt>
<pdfrwt beam="1">  1       21 0.39455492E-01 0.17603604E+03</pdfrwt>
<pdfrwt beam="2">  1       21 0.24501097E-01 0.17603604E+03</pdfrwt>
<totfact> 0.98092713E+04</totfact>
</mgrwt>
</event>
<event>
 4    1  0.4327903E+000  0.2201528E+03  0.7546771E-02  0.1133769E+00
         21   -1    0    0  501  502  0.00000000000E+00  0.00000000000E+00  0.85271979737E+02  0.85271979737E+02  0.00000000000E+00 0. -1.
         21   -1    0    0  502  503 -0.00000000000E+00 -0.00000000000E+00 -0.10307990415E+04  0.10307990415E+04  0.00000000000E+00 0. -1.
          6    1    1    2  501    0 -0.13626247264E+02 -0.13547164169E+03 -0.99005316167E+02  0.24139033317E+03  0.17300000000E+03 0. -1.
         -6    1    1    2    0  503  0.13626247264E+02  0.13547164169E+03 -0.84652174556E+03  0.87468068803E+03  0.17300000000E+03 0. -1.
<mgrwt>
<rscale>  2 0.22015277E+03</rscale>
<asrwt>0</asrwt>
<pdfrwt beam="1">  1       21 0.13118767E-01 0.22015277E+03</pdfrwt>
<pdfrwt beam="2">  1       21 0.15858446E+00 0.22015277E+03</pdfrwt>
<totfact> 0.12639596E+04</totfact>
</mgrwt>
</event>
<event>
 4    1  0.4327903E+000  0.1869460E+03  0.7546771E-02  0.1161245E+00
         21   -1    0    0  501  502  0.00000000000E+00  0.00000000000E+00  0.60700867583E+03  0.60700867583E+03  0.00000000000E+00 0.  1.
         21   -1    0    0  502  503 -0.00000000000E+00 -0.00000000000E+00 -0.15688567092E+03  0.15688567092E+03  0.00000000000E+00 0. -1.
          6    1    1    2  501    0 -0.69500432963E+02 -0.13766253635E+02  0.52894600637E+03  0.56101042555E+03  0.17300000000E+03 0.  1.
         -6    1    1    2    0  503  0.69500432963E+02  0.13766253635E+02 -0.78823001466E+02  0.20288392120E+03  0.17300000000E+03 0. -1.
<mgrwt>
<rscale>  2 0.18694603E+03</rscale>
<asrwt>0</asrwt>
<pdfrwt beam="1">  1       21 0.93385949E-01 0.18694603E+03</pdfrwt>
<pdfrwt beam="2">  1       21 0.24136257E-01 0.18694603E+03</pdfrwt>
<totfact> 0.15673752E+04</totfact>
</mgrwt>
</event>
<event>
 4    1  0.4327903E+000  0.2874144E+03  0.7546771E-02  0.1091707E+00
         21   -1    0    0  503  502  0.00000000000E+00  0.00000000000E+00  0.20675530289E+03  0.20675530289E+03  0.00000000000E+00 0.  1.
         21   -1    0    0  501  503 -0.00000000000E+00 -0.00000000000E+00 -0.40055299961E+03  0.40055299961E+03  0.00000000000E+00 0. -1.
          6    1    1    2  501    0  0.22944723584E+03 -0.56547327026E+01 -0.81628192731E+02  0.29878114379E+03  0.17300000000E+03 0. -1.
         -6    1    1    2    0  502 -0.22944723584E+03  0.56547327026E+01 -0.11216950399E+03  0.30852715871E+03  0.17300000000E+03 0.  1.
<mgrwt>
<rscale>  2 0.28741435E+03</rscale>
<asrwt>0</asrwt>
<pdfrwt beam="1">  1       21 0.31808508E-01 0.28741435E+03</pdfrwt>
<pdfrwt beam="2">  1       21 0.61623538E-01 0.28741435E+03</pdfrwt>
<totfact> 0.22182795E+04</totfact>
</mgrwt>
</event>
<event>
 4    1  0.4327903E+000  0.1802233E+03  0.7546771E-02  0.1167587E+00
         21   -1    0    0  503  502  0.00000000000E+00  0.00000000000E+00  0.50039288198E+02  0.50039288198E+02  0.00000000000E+00 0. -1.
         21   -1    0    0  501  503 -0.00000000000E+00 -0.00000000000E+00 -0.65112797813E+03  0.65112797813E+03  0.00000000000E+00 0. -1.
          6    1    1    2  501    0  0.40026514123E+02  0.30810987270E+02 -0.28097279199E+03  0.33380555509E+03  0.17300000000E+03 0. -1.
         -6    1    1    2    0  502 -0.40026514123E+02 -0.30810987270E+02 -0.32011589794E+03  0.36736171124E+03  0.17300000000E+03 0. -1.
<mgrwt>
<rscale>  2 0.18022330E+03</rscale>
<asrwt>0</asrwt>
<pdfrwt beam="1">  1       21 0.76983524E-02 0.18022330E+03</pdfrwt>
<pdfrwt beam="2">  1       21 0.10017353E+00 0.18022330E+03</pdfrwt>
<totfact> 0.10542283E+05</totfact>
</mgrwt>
</event>
<event>
 4    1  0.4327903E+000  0.1784265E+03  0.7546771E-02  0.1169335E+00
         21   -1    0    0  501  502  0.00000000000E+00  0.00000000000E+00  0.17275569200E+03  0.17275569200E+03  0.00000000000E+00 0.  1.
         21   -1    0    0  502  503 -0.00000000000E+00 -0.00000000000E+00 -0.29974630261E+03  0.29974630261E+03  0.00000000000E+00 0.  1.
          6    1    1    2  501    0  0.39017537035E+02 -0.19612106797E+02  0.83133064184E+02  0.19684285430E+03  0.17300000000E+03 0.  1.
         -6    1    1    2    0  503 -0.39017537035E+02  0.19612106797E+02 -0.21012367479E+03  0.27565914031E+03  0.17300000000E+03 0.  1.
<mgrwt>
<rscale>  2 0.17842646E+03</rscale>
<asrwt>0</asrwt>
<pdfrwt beam="1">  1       21 0.26577799E-01 0.17842646E+03</pdfrwt>
<pdfrwt beam="2">  1       21 0.46114816E-01 0.17842646E+03</pdfrwt>
<totfact> 0.61087711E+04</totfact>
</mgrwt>
</event>
<event>
 4    1  0.4327903E+000  0.2697518E+03  0.7546771E-02  0.1101422E+00
         21   -1    0    0  503  502  0.00000000000E+00  0.00000000000E+00  0.35279613664E+02  0.35279613664E+02  0.00000000000E+00 0.  1.
         21   -1    0    0  501  503 -0.00000000000E+00 -0.00000000000E+00 -0.21942693327E+04  0.21942693327E+04  0.00000000000E+00 0. -1.
          6    1    1    2  501    0  0.67909855445E+02 -0.19551283795E+03 -0.80636799347E+03  0.85029133782E+03  0.17300000000E+03 0. -1.
         -6    1    1    2    0  502 -0.67909855445E+02  0.19551283795E+03 -0.13526217256E+04  0.13792576086E+04  0.17300000000E+03 0.  1.
<mgrwt>
<rscale>  2 0.26975177E+03</rscale>
<asrwt>0</asrwt>
<pdfrwt beam="1">  1       21 0.54276331E-02 0.26975177E+03</pdfrwt>
<pdfrwt beam="2">  1       21 0.33757989E+00 0.26975177E+03</pdfrwt>
<totfact> 0.44602123E+03</totfact>
</mgrwt>
</event>
<event>
 4    1  0.4327903E+000  0.2102793E+03  0.7546771E-02  0.1141345E+00
         21   -1    0    0  503  502  0.00000000000E+00  0.00000000000E+00  0.13428519012E+03  0.13428519012E+03  0.00000000000E+00 0.  1.
         21   -1    0    0  501  503 -0.00000000000E+00 -0.00000000000E+00 -0.36931933395E+03  0.36931933395E+03  0.00000000000E+00 0.  1.
          6    1    1    2  501    0  0.26400325746E+02 -0.11658213269E+03 -0.34607569038E+02  0.21310808220E+03  0.17300000000E+03 0.  1.
         -6    1    1    2    0  502 -0.26400325746E+02  0.11658213269E+03 -0.20042657479E+03  0.29049644188E+03  0.17300000000E+03 0.  1.
<mgrwt>
<rscale>  2 0.21027927E+03</rscale>
<asrwt>0</asrwt>
<pdfrwt beam="1">  1       21 0.20659260E-01 0.21027927E+03</pdfrwt>
<pdfrwt beam="2">  1       21 0.56818358E-01 0.21027927E+03</pdfrwt>
<totfact> 0.62735558E+04</totfact>
</mgrwt>
</event>
<event>
 4    1  0.4327903E+000  0.1979705E+03  0.7546771E-02  0.1151463E+00
         21   -1    0    0  503  502  0.00000000000E+00  0.00000000000E+00  0.11401744804E+03  0.11401744804E+03  0.00000000000E+00 0. -1.
         21   -1    0    0  501  503 -0.00000000000E+00 -0.00000000000E+00 -0.38278120346E+03  0.38278120346E+03  0.00000000000E+00 0. -1.
          6    1    1    2  501    0 -0.92022477400E+02  0.28199232528E+02 -0.21371196015E+03  0.29131621131E+03  0.17300000000E+03 0. -1.
         -6    1    1    2    0  502  0.92022477400E+02 -0.28199232528E+02 -0.55051795268E+02  0.20548244018E+03  0.17300000000E+03 0. -1.
<mgrwt>
<rscale>  2 0.19797054E+03</rscale>
<asrwt>0</asrwt>
<pdfrwt beam="1">  1       21 0.17541146E-01 0.19797054E+03</pdfrwt>
<pdfrwt beam="2">  1       21 0.58889417E-01 0.19797054E+03</pdfrwt>
<totfact> 0.79238755E+04</totfact>
</mgrwt>
</event>
<event>
 4    1  0.4327903E+000  0.2566798E+03  0.7546771E-02  0.1109155E+00
         21   -1    0    0  501  502  0.00000000000E+00  0.00000000000E+00  0.87886339025E+03  0.87886339025E+03  0.00000000000E+00 0.  1.
         21   -1    0    0  502  503 -0.00000000000E+00 -0.00000000000E+00 -0.94968104022E+02  0.94968104022E+02  0.00000000000E+00 0. -1.
          6    1    1    2  501    0 -0.18077092921E+03  0.57248525792E+02  0.16848388163E+03  0.30703638371E+03  0.17300000000E+03 0.  1.
         -6    1    1    2    0  503  0.18077092921E+03 -0.57248525792E+02  0.61541140460E+03  0.66679511056E+03  0.17300000000E+03 0.  1.
<mgrwt>
<rscale>  2 0.25667981E+03</rscale>
<asrwt>0</asrwt>
<pdfrwt beam="1">  1       21 0.13520975E+00 0.25667981E+03</pdfrwt>
<pdfrwt beam="2">  1       21 0.14610478E-01 0.25667981E+03</pdfrwt>
<totfact> 0.15483509E+04</totfact>
</mgrwt>
</event>
<event>
 4    1  0.4327903E+000  0.3505797E+03  0.7546771E-02  0.1062377E+00
         21   -1    0    0  503  502  0.00000000000E+00  0.00000000000E+00  0.87241343430E+03  0.87241343430E+03  0.00000000000E+00 0.  1.
         21   -1    0    0  501  503 -0.00000000000E+00 -0.00000000000E+00 -0.19922661415E+03  0.19922661415E+03  0.00000000000E+00 0. -1.
          6    1    1    2  501    0 -0.93317483095E+01 -0.30477867834E+03  0.46624874559E+02  0.35366651414E+03  0.17300000000E+03 0. -1.
         -6    1    1    2    0  502  0.93317483095E+01  0.30477867834E+03  0.62656194560E+03  0.71797353431E+03  0.17300000000E+03 0.  1.
<mgrwt>
<rscale>  2 0.35057970E+03</rscale>
<asrwt>0</asrwt>
<pdfrwt beam="1">  1       21 0.13421745E+00 0.35057970E+03</pdfrwt>
<pdfrwt beam="2">  1       21 0.30650249E-01 0.35057970E+03</pdfrwt>
<totfact> 0.36851150E+03</totfact>
</mgrwt>
</event>
<event>
 4    1  0.4327903E+000  0.2684119E+03  0.7546771E-02  0.1102192E+00
         21   -1    0    0  501  502  0.00000000000E+00  0.00000000000E+00  0.27778756584E+03  0.27778756584E+03  0.00000000000E+00 0. -1.
         21   -1    0    0  502  503 -0.00000000000E+00 -0.00000000000E+00 -0.34234707402E+03  0.34234707402E+03  0.00000000000E+00 0.  1.
          6    1    1    2  501    0 -0.18268336778E+03 -0.93502717773E+02  0.12038784039E+03  0.29417376362E+03  0.17300000000E+03 0. -1.
         -6    1    1    2    0  503  0.18268336778E+03  0.93502717773E+02 -0.18494734857E+03  0.32596087624E+03  0.17300000000E+03 0.  1.
<mgrwt>
<rscale>  2 0.26841194E+03</rscale>
<asrwt>0</asrwt>
<pdfrwt beam="1">  1       21 0.42736549E-01 0.26841194E+03</pdfrwt>
<pdfrwt beam="2">  1       21 0.52668780E-01 0.26841194E+03</pdfrwt>
<totfact> 0.17276353E+04</totfact>
</mgrwt>
</event>
<event>
 4    1  0.4327903E+000  0.1765563E+03  0.7546771E-02  0.1171178E+00
         21   -1    0    0  503  502  0.00000000000E+00  0.00000000000E+00  0.41955945471E+03  0.41955945471E+03  0.00000000000E+00 0.  1.
         21   -1    0    0  501  503 -0.00000000000E+00 -0.00000000000E+00 -0.83012273578E+02  0.83012273578E+02  0.00000000000E+00 0.  1.
          6    1    1    2  501    0 -0.17736404611E+02  0.30472208793E+02  0.86853817227E+02  0.19676310915E+03  0.17300000000E+03 0. -1.
         -6    1    1    2    0  502  0.17736404611E+02 -0.30472208793E+02  0.24969336390E+03  0.30580861913E+03  0.17300000000E+03 0. -1.
<mgrwt>
<rscale>  2 0.17655632E+03</rscale>
<asrwt>0</asrwt>
<pdfrwt beam="1">  1       21 0.64547607E-01 0.17655632E+03</pdfrwt>
<pdfrwt beam="2">  1       21 0.12771119E-01 0.17655632E+03</pdfrwt>
<totfact> 0.11682194E+05</totfact>
</mgrwt>
</event>
<event>
 4    1  0.4327903E+000  0.2760687E+03  0.7546771E-02  0.1097856E+00
         21   -1    0    0  503  502  0.00000000000E+00  0.00000000000E+00  0.14498901894E+04  0.14498901894E+04  0.00000000000E+00 0. -1.
         21   -1    0    0  501  503 -0.00000000000E+00 -0.00000000000E+00 -0.53277515238E+02  0.53277515238E+02  0.00000000000E+00 0.  1.
          6    1    1    2  501    0  0.20233758293E+03 -0.73105679507E+02  0.78520354416E+03  0.83232117815E+03  0.17300000000E+03 0. -1.
         -6    1    1    2    0  502 -0.20233758293E+03  0.73105679507E+02  0.61140912997E+03  0.67084652645E+03  0.17300000000E+03 0.  1.
<mgrwt>
<rscale>  2 0.27606872E+03</rscale>
<asrwt>0</asrwt>
<pdfrwt beam="1">  1       21 0.22306000E+00 0.27606872E+03</pdfrwt>
<pdfrwt beam="2">  1       21 0.81965419E-02 0.27606872E+03</pdfrwt>
<totfact> 0.10409524E+04</totfact>
</mgrwt>
</event>
<event>
 4    1  0.4327903E+000  0.1902752E+03  0.7546771E-02  0.1158213E+00
         21   -1    0    0  501  502  0.00000000000E+00  0.00000000000E+00  0.17478373344E+02  0.17478373344E+02  0.00000000000E+00 0. -1.
         21   -1    0    0  502  503 -0.00000000000E+00 -0.00000000000E+00 -0.29002727094E+04  0.29002727094E+04  0.00000000000E+00 0. -1.
          6    1    1    2  501    0  0.65259587077E+02 -0.44909212431E+02 -0.66148891304E+03  0.68831114559E+03  0.17300000000E+03 0. -1.
         -6    1    1    2    0  503 -0.65259587077E+02  0.44909212431E+02 -0.22213054230E+04  0.22294399371E+04  0.17300000000E+03 0. -1.
<mgrwt>
<rscale>  2 0.19027520E+03</rscale>
<asrwt>0</asrwt>
<pdfrwt beam="1">  1       21 0.26889811E-02 0.19027520E+03</pdfrwt>
<pdfrwt beam="2">  1       21 0.44619571E+00 0.19027520E+03</pdfrwt>
<totfact> 0.33537285E+03</totfact>
</mgrwt>
</event>
<event>
 4    1  0.4327903E+000  0.2041502E+03  0.7546771E-02  0.1146284E+00
         21   -1    0    0  501  502  0.00000000000E+00  0.00000000000E+00  0.72788448257E+03  0.72788448257E+03  0.00000000000E+00 0.  1.
         21   -1    0    0  502  503 -0.00000000000E+00 -0.00000000000E+00 -0.86536810493E+02  0.86536810493E+02  0.00000000000E+00 0.  1.
          6    1    1    2  501    0  0.31363490124E+02 -0.10375271400E+03  0.55753536896E+03  0.59373645822E+03  0.17300000000E+03 0. -1.
         -6    1    1    2    0  503 -0.31363490124E+02  0.10375271400E+03  0.83812303114E+02  0.22068483484E+03  0.17300000000E+03 0. -1.
<mgrwt>
<rscale>  2 0.20415018E+03</rscale>
<asrwt>0</asrwt>
<pdfrwt beam="1">  1       21 0.11198222E+00 0.20415018E+03</pdfrwt>
<pdfrwt beam="2">  1       21 0.13313356E-01 0.20415018E+03</pdfrwt>
<totfact> 0.30252771E+04</totfact>
</mgrwt>
</event>
<event>
 4    1  0.4327903E+000  0.1982918E+03  0.7546771E-02  0.1151188E+00
         21   -1    0    0  501  502  0.00000000000E+00  0.00000000000E+00  0.25606835569E+03  0.25606835569E+03  0.00000000000E+00 0. -1.
         21   -1    0    0  502  503 -0.00000000000E+00 -0.00000000000E+00 -0.15925069427E+03  0.15925069427E+03  0.00000000000E+00 0. -1.
          6    1    1    2  501    0 -0.64815975484E+02 -0.72038482456E+02  0.91242736841E+01  0.19850165239E+03  0.17300000000E+03 0. -1.
         -6    1    1    2    0  503  0.64815975484E+02  0.72038482456E+02  0.87693387735E+02  0.21681739756E+03  0.17300000000E+03 0. -1.
<mgrwt>
<rscale>  2 0.19829184E+03</rscale>
<asrwt>0</asrwt>
<pdfrwt beam="1">  1       21 0.39395132E-01 0.19829184E+03</pdfrwt>
<pdfrwt beam="2">  1       21 0.24500107E-01 0.19829184E+03</pdfrwt>
<totfact> 0.97559239E+04</totfact>
</mgrwt>
</event>
<event>
 4    1  0.4327903E+000  0.2238318E+03  0.7546771E-02  0.1131058E+00
         21   -1    0    0  501  502  0.00000000000E+00  0.00000000000E+00  0.22561955161E+03  0.22561955161E+03  0.00000000000E+00 0.  1.
         21   -1    0    0  502  503 -0.00000000000E+00 -0.00000000000E+00 -0.23321634935E+03  0.23321634935E+03  0.00000000000E+00 0. -1.
          6    1    1    2  501    0  0.60517077212E+02  0.12848869316E+03  0.46383246807E+02  0.22858710919E+03  0.17300000000E+03 0.  1.
         -6    1    1    2    0  503 -0.60517077212E+02 -0.12848869316E+03 -0.53980044551E+02  0.23024879177E+03  0.17300000000E+03 0.  1.
<mgrwt>
<rscale>  2 0.22383177E+03</rscale>
<asrwt>0</asrwt>
<pdfrwt beam="1">  1       21 0.34710700E-01 0.22383177E+03</pdfrwt>
<pdfrwt beam="2">  1       21 0.35879438E-01 0.22383177E+03</pdfrwt>
<totfact> 0.59090734E+04</totfact>
</mgrwt>
</event>
<event>
 4    1  0.4327903E+000  0.1883199E+03  0.7546771E-02  0.1159985E+00
         21   -1    0    0  501  502  0.00000000000E+00  0.00000000000E+00  0.17785902320E+03  0.17785902320E+03  0.00000000000E+00 0.  1.
         21   -1    0    0  502  503 -0.00000000000E+00 -0.00000000000E+00 -0.21511661516E+03  0.21511661516E+03  0.00000000000E+00 0.  1.
          6    1    1    2  501    0 -0.68887649690E+01  0.74080491569E+02 -0.71745814856E+02  0.20152378585E+03  0.17300000000E+03 0.  1.
         -6    1    1    2    0  503  0.68887649690E+01 -0.74080491569E+02  0.34488222898E+02  0.19145185252E+03  0.17300000000E+03 0.  1.
<mgrwt>
<rscale>  2 0.18831987E+03</rscale>
<asrwt>0</asrwt>
<pdfrwt beam="1">  1       21 0.27362927E-01 0.18831987E+03</pdfrwt>
<pdfrwt beam="2">  1       21 0.33094864E-01 0.18831987E+03</pdfrwt>
<totfact> 0.11214580E+05</totfact>
</mgrwt>
</event>
<event>
 4    1  0.4327903E+000  0.2068501E+03  0.7546771E-02  0.1144085E+00
         21   -1    0    0  503  502  0.00000000000E+00  0.00000000000E+00  0.41231383785E+03  0.41231383785E+03  0.00000000000E+00 0. -1.
         21   -1    0    0  501  503 -0.00000000000E+00 -0.00000000000E+00 -0.28489147912E+03  0.28489147912E+03  0.00000000000E+00 0.  1.
          6    1    1    2  501    0 -0.61081337434E+02  0.95535500486E+02 -0.21424260111E+03  0.29780338105E+03  0.17300000000E+03 0.  1.
         -6    1    1    2    0  502  0.61081337434E+02 -0.95535500486E+02  0.34166495984E+03  0.39940193592E+03  0.17300000000E+03 0. -1.
<mgrwt>
<rscale>  2 0.20685009E+03</rscale>
<asrwt>0</asrwt>
<pdfrwt beam="1">  1       21 0.63432898E-01 0.20685009E+03</pdfrwt>
<pdfrwt beam="2">  1       21 0.43829458E-01 0.20685009E+03</pdfrwt>
<totfact> 0.11385935E+04</totfact>
</mgrwt>
</event>
<event>
 4    1  0.4327903E+000  0.3090305E+03  0.7546771E-02  0.1080811E+00
         21   -1    0    0  501  502  0.00000000000E+00  0.00000000000E+00  0.13857430393E+04  0.13857430393E+04  0.00000000000E+00 0. -1.
         21   -1    0    0  502  503 -0.00000000000E+00 -0.00000000000E+00 -0.13840464052E+03  0.13840464052E+03  0.00000000000E+00 0.  1.
          6    1    1    2  501    0  0.49757393167E+02 -0.25118733660E+03  0.11636503690E+04  0.12039859042E+04  0.17300000000E+03 0. -1.
         -6    1    1    2    0  503 -0.49757393167E+02  0.25118733660E+03  0.83688029777E+02  0.32016177563E+03  0.17300000000E+03 0.  1.
<mgrwt>
<rscale>  2 0.30903054E+03</rscale>
<asrwt>0</asrwt>
<pdfrwt beam="1">  1       21 0.21319123E+00 0.30903054E+03</pdfrwt>
<pdfrwt beam="2">  1       21 0.21293023E-01 0.30903054E+03</pdfrwt>
<totfact> 0.20642535E+03</totfact>
</mgrwt>
</event>
<event>
 4    1  0.4327903E+000  0.2125460E+03  0.7546771E-02  0.1139566E+00
         21   -1    0    0  501  502  0.00000000000E+00  0.00000000000E+00  0.31450377568E+03  0.31450377568E+03  0.00000000000E+00 0. -1.
         21   -1    0    0  502  503 -0.00000000000E+00 -0.00000000000E+00 -0.29348964124E+03  0.29348964124E+03  0.00000000000E+00 0. -1.
          6    1    1    2  501    0  0.79633623955E+02  0.94367820128E+02  0.22772623607E+03  0.31150447530E+03  0.17300000000E+03 0. -1.
         -6    1    1    2    0  503 -0.79633623955E+02 -0.94367820128E+02 -0.20671210163E+03  0.29648894161E+03  0.17300000000E+03 0. -1.
<mgrwt>
<rscale>  2 0.21254599E+03</rscale>
<asrwt>0</asrwt>
<pdfrwt beam="1">  1       21 0.48385196E-01 0.21254599E+03</pdfrwt>
<pdfrwt beam="2">  1       21 0.45152253E-01 0.21254599E+03</pdfrwt>
<totfact> 0.18971741E+04</totfact>
</mgrwt>
</event>
<event>
 4    1  0.4327903E+000  0.2649151E+03  0.7546771E-02  0.1104226E+00
         21   -1    0    0  503  502  0.00000000000E+00  0.00000000000E+00  0.11400226841E+03  0.11400226841E+03  0.00000000000E+00 0. -1.
         21   -1    0    0  501  503 -0.00000000000E+00 -0.00000000000E+00 -0.84550946095E+03  0.84550946095E+03  0.00000000000E+00 0. -1.
          6    1    1    2  501    0  0.16703674921E+03  0.11112933318E+03 -0.61592505233E+03  0.67048018193E+03  0.17300000000E+03 0. -1.
         -6    1    1    2    0  502 -0.16703674921E+03 -0.11112933318E+03 -0.11558214021E+03  0.28903154744E+03  0.17300000000E+03 0. -1.
<mgrwt>
<rscale>  2 0.26491509E+03</rscale>
<asrwt>0</asrwt>
<pdfrwt beam="1">  1       21 0.17538811E-01 0.26491509E+03</pdfrwt>
<pdfrwt beam="2">  1       21 0.13007838E+00 0.26491509E+03</pdfrwt>
<totfact> 0.12154451E+04</totfact>
</mgrwt>
</event>
<event>
 4    1  0.4327903E+000  0.2845343E+03  0.7546771E-02  0.1093238E+00
         21   -1    0    0  501  502  0.00000000000E+00  0.00000000000E+00  0.12616916135E+03  0.12616916135E+03  0.00000000000E+00 0.  1.
         21   -1    0    0  502  503 -0.00000000000E+00 -0.00000000000E+00 -0.95070786498E+03  0.95070786498E+03  0.00000000000E+00 0. -1.
          6    1    1    2  501    0  0.16656003736E+03 -0.15260577200E+03 -0.10528661456E+03  0.30338925310E+03  0.17300000000E+03 0.  1.
         -6    1    1    2    0  503 -0.16656003736E+03  0.15260577200E+03 -0.71925208908E+03  0.77348777323E+03  0.17300000000E+03 0. -1.
<mgrwt>
<rscale>  2 0.28453430E+03</rscale>
<asrwt>0</asrwt>
<pdfrwt beam="1">  1       21 0.19410640E-01 0.28453430E+03</pdfrwt>
<pdfrwt beam="2">  1       21 0.14626275E+00 0.28453430E+03</pdfrwt>
<totfact> 0.73340466E+03</totfact>
</mgrwt>
</event>
<event>
 4    1  0.4327903E+000  0.2872776E+03  0.7546771E-02  0.1091779E+00
         21   -1    0    0  501  502  0.00000000000E+00  0.00000000000E+00  0.46411910563E+03  0.46411910563E+03  0.00000000000E+00 0.  1.
         21   -1    0    0  502  503 -0.00000000000E+00 -0.00000000000E+00 -0.17835230298E+03  0.17835230298E+03  0.00000000000E+00 0. -1.
          6    1    1    2  501    0  0.22358689503E+03 -0.51071560693E+02  0.16047740019E+03  0.32906139231E+03  0.17300000000E+03 0. -1.
         -6    1    1    2    0  503 -0.22358689503E+03  0.51071560693E+02  0.12528940246E+03  0.31341001629E+03  0.17300000000E+03 0.  1.
<mgrwt>
<rscale>  2 0.28727757E+03</rscale>
<asrwt>0</asrwt>
<pdfrwt beam="1">  1       21 0.71402939E-01 0.28727757E+03</pdfrwt>
<pdfrwt beam="2">  1       21 0.27438816E-01 0.28727757E+03</pdfrwt>
<totfact> 0.21425563E+04</totfact>
</mgrwt>
</event>
<event>
 4    1  0.4327903E+000  0.2527849E+03  0.7546771E-02  0.1111557E+00
         21   -1    0    0  501  502  0.00000000000E+00  0.00000000000E+00  0.39499396799E+03  0.39499396799E+03  0.00000000000E+00 0.  1.
         21   -1    0    0  502  503 -0.00000000000E+00 -0.00000000000E+00 -0.31255133382E+03  0.31255133382E+03  0.00000000000E+00 0. -1.
          6    1    1    2  501    0  0.12592235716E+03 -0.13459109319E+03  0.28693535733E+03  0.38240306182E+03  0.17300000000E+03 0.  1.
         -6    1    1    2    0  503 -0.12592235716E+03  0.13459109319E+03 -0.20449272316E+03  0.32514223999E+03  0.17300000000E+03 0. -1.
<mgrwt>
<rscale>  2 0.25278489E+03</rscale>
<asrwt>0</asrwt>
<pdfrwt beam="1">  1       21 0.60768303E-01 0.25278489E+03</pdfrwt>
<pdfrwt beam="2">  1       21 0.48084820E-01 0.25278489E+03</pdfrwt>
<totfact> 0.10039382E+04</totfact>
</mgrwt>
</event>
<event>
 4    1  0.4327903E+000  0.2155450E+03  0.7546771E-02  0.1137249E+00
         21   -1    0    0  503  502  0.00000000000E+00  0.00000000000E+00  0.36485640524E+03  0.36485640524E+03  0.00000000000E+00 0. -1.
         21   -1    0    0  501  503 -0.00000000000E+00 -0.00000000000E+00 -0.14340204078E+03  0.14340204078E+03  0.00000000000E+00 0.  1.
          6    1    1    2  501    0 -0.11452316336E+03 -0.58438940462E+02  0.25668253262E+02  0.21706801684E+03  0.17300000000E+03 0.  1.
         -6    1    1    2    0  502  0.11452316336E+03  0.58438940462E+02  0.19578611119E+03  0.29119042918E+03  0.17300000000E+03 0.  1.
<mgrwt>
<rscale>  2 0.21554504E+03</rscale>
<asrwt>0</asrwt>
<pdfrwt beam="1">  1       21 0.56131754E-01 0.21554504E+03</pdfrwt>
<pdfrwt beam="2">  1       21 0.22061853E-01 0.21554504E+03</pdfrwt>
<totfact> 0.56754184E+04</totfact>
</mgrwt>
</event>
<event>
 4    1  0.4327903E+000  0.2061080E+03  0.7546771E-02  0.1144686E+00
         21   -1    0    0  501  502  0.00000000000E+00  0.00000000000E+00  0.53283116195E+03  0.53283116195E+03  0.00000000000E+00 0.  1.
         21   -1    0    0  502  503 -0.00000000000E+00 -0.00000000000E+00 -0.33554794983E+03  0.33554794983E+03  0.00000000000E+00 0. -1.
          6    1    1    2  501    0  0.89765897093E+02  0.67034135703E+02  0.47775662445E+03  0.52031902121E+03  0.17300000000E+03 0.  1.
         -6    1    1    2    0  503 -0.89765897093E+02 -0.67034135703E+02 -0.28047341233E+03  0.34806009058E+03  0.17300000000E+03 0. -1.
<mgrwt>
<rscale>  2 0.20610796E+03</rscale>
<asrwt>0</asrwt>
<pdfrwt beam="1">  1       21 0.81974025E-01 0.20610796E+03</pdfrwt>
<pdfrwt beam="2">  1       21 0.51622761E-01 0.20610796E+03</pdfrwt>
<totfact> 0.45899808E+03</totfact>
</mgrwt>
</event>
<event>
 4    1  0.4327903E+000  0.2092120E+03  0.7546771E-02  0.1142192E+00
         21   -1    0    0  503  502  0.00000000000E+00  0.00000000000E+00  0.36723160086E+02  0.36723160086E+02  0.00000000000E+00 0. -1.
         21   -1    0    0  501  503 -0.00000000000E+00 -0.00000000000E+00 -0.18525821374E+04  0.18525821374E+04  0.00000000000E+00 0.  1.
          6    1    1    2  501    0 -0.98336736769E+02 -0.64579773155E+02 -0.34379101164E+03  0.40244492864E+03  0.17300000000E+03 0. -1.
         -6    1    1    2    0  502  0.98336736769E+02  0.64579773155E+02 -0.14720679657E+04  0.14868603689E+04  0.17300000000E+03 0.  1.
<mgrwt>
<rscale>  2 0.20921200E+03</rscale>
<asrwt>0</asrwt>
<pdfrwt beam="1">  1       21 0.56497154E-02 0.20921200E+03</pdfrwt>
<pdfrwt beam="2">  1       21 0.28501272E+00 0.20921200E+03</pdfrwt>
<totfact> 0.89464321E+03</totfact>
</mgrwt>
</event>
<event>
 4    1  0.4327903E+000  0.2353733E+03  0.7546771E-02  0.1122914E+00
         21   -1    0    0  503  502  0.00000000000E+00  0.00000000000E+00  0.21038316394E+03  0.21038316394E+03  0.00000000000E+00 0. -1.
         21   -1    0    0  501  503 -0.00000000000E+00 -0.00000000000E+00 -0.30385110872E+03  0.30385110872E+03  0.00000000000E+00 0.  1.
          6    1    1    2  501    0  0.14297265480E+03 -0.70925491900E+02 -0.14062647305E+03  0.27418316933E+03  0.17300000000E+03 0.  1.
         -6    1    1    2    0  502 -0.14297265480E+03  0.70925491900E+02  0.47158528272E+02  0.24005110333E+03  0.17300000000E+03 0. -1.
<mgrwt>
<rscale>  2 0.23537333E+03</rscale>
<asrwt>0</asrwt>
<pdfrwt beam="1">  1       21 0.32366641E-01 0.23537333E+03</pdfrwt>
<pdfrwt beam="2">  1       21 0.46746324E-01 0.23537333E+03</pdfrwt>
<totfact> 0.39413629E+04</totfact>
</mgrwt>
</event>
<event>
 4    1  0.4327903E+000  0.3001920E+03  0.7546771E-02  0.1085145E+00
         21   -1    0    0  501  502  0.00000000000E+00  0.00000000000E+00  0.75628859709E+03  0.75628859709E+03  0.00000000000E+00 0.  1.
         21   -1    0    0  502  503 -0.00000000000E+00 -0.00000000000E+00 -0.33830481291E+03  0.33830481291E+03  0.00000000000E+00 0. -1.
          6    1    1    2  501    0 -0.23579335182E+03  0.67732742426E+02  0.64948563228E+03  0.71550458818E+03  0.17300000000E+03 0.  1.
         -6    1    1    2    0  503  0.23579335182E+03 -0.67732742426E+02 -0.23150184810E+03  0.37908882182E+03  0.17300000000E+03 0. -1.
<mgrwt>
<rscale>  2 0.30019199E+03</rscale>
<asrwt>0</asrwt>
<pdfrwt beam="1">  1       21 0.11635209E+00 0.30019199E+03</pdfrwt>
<pdfrwt beam="2">  1       21 0.52046895E-01 0.30019199E+03</pdfrwt>
<totfact> 0.18413819E+03</totfact>
</mgrwt>
</event>
<event>
 4    1  0.4327903E+000  0.2098031E+03  0.7546771E-02  0.1141722E+00
         21   -1    0    0  501  502  0.00000000000E+00  0.00000000000E+00  0.52988528382E+03  0.52988528382E+03  0.00000000000E+00 0.  1.
         21   -1    0    0  502  503 -0.00000000000E+00 -0.00000000000E+00 -0.22472486658E+03  0.22472486658E+03  0.00000000000E+00 0.  1.
          6    1    1    2  501    0 -0.62446475787E+02 -0.10093937751E+03  0.45214002455E+03  0.49844550562E+03  0.17300000000E+03 0.  1.
         -6    1    1    2    0  503  0.62446475787E+02  0.10093937751E+03 -0.14697960732E+03  0.25616464478E+03  0.17300000000E+03 0.  1.
<mgrwt>
<rscale>  2 0.20980305E+03</rscale>
<asrwt>0</asrwt>
<pdfrwt beam="1">  1       21 0.81520812E-01 0.20980305E+03</pdfrwt>
<pdfrwt beam="2">  1       21 0.34573057E-01 0.20980305E+03</pdfrwt>
<totfact> 0.10503665E+04</totfact>
</mgrwt>
</event>
<event>
 4    1  0.4327903E+000  0.3051284E+03  0.7546771E-02  0.1082705E+00
         21   -1    0    0  503  502  0.00000000000E+00  0.00000000000E+00  0.18144501835E+04  0.18144501835E+04  0.00000000000E+00 0. -1.
         21   -1    0    0  501  503 -0.00000000000E+00 -0.00000000000E+00 -0.66494685236E+02  0.66494685236E+02  0.00000000000E+00 0.  1.
          6    1    1    2  501    0 -0.11088534469E+03  0.22556321696E+03  0.42458622787E+03  0.52285446293E+03  0.17300000000E+03 0.  1.
         -6    1    1    2    0  502  0.11088534469E+03 -0.22556321696E+03  0.13233692704E+04  0.13580904058E+04  0.17300000000E+03 0. -1.
<mgrwt>
<rscale>  2 0.30512837E+03</rscale>
<asrwt>0</asrwt>
<pdfrwt beam="1">  1       21 0.27914614E+00 0.30512837E+03</pdfrwt>
<pdfrwt beam="2">  1       21 0.10229953E-01 0.30512837E+03</pdfrwt>
<totfact> 0.31654171E+03</totfact>
</mgrwt>
</event>
<event>
 4    1  0.4327903E+000  0.2640378E+03  0.7546771E-02  0.1104741E+00
         21   -1    0    0  501  502  0.00000000000E+00  0.00000000000E+00  0.96273025344E+02  0.96273025344E+02  0.00000000000E+00 0.  1.
         21   -1    0    0  502  503 -0.00000000000E+00 -0.00000000000E+00 -0.15630602547E+04  0.15630602547E+04  0.00000000000E+00 0. -1.
          6    1    1    2  501    0  0.80606549594E+02  0.18245427216E+03 -0.12557516305E+03  0.29237834879E+03  0.17300000000E+03 0.  1.
         -6    1    1    2    0  503 -0.80606549594E+02 -0.18245427216E+03 -0.13412120663E+04  0.13669549313E+04  0.17300000000E+03 0. -1.
<mgrwt>
<rscale>  2 0.26403783E+03</rscale>
<asrwt>0</asrwt>
<pdfrwt beam="1">  1       21 0.14811234E-01 0.26403783E+03</pdfrwt>
<pdfrwt beam="2">  1       21 0.24047081E+00 0.26403783E+03</pdfrwt>
<totfact> 0.28431353E+03</totfact>
</mgrwt>
</event>
<event>
 4    1  0.4327903E+000  0.1955907E+03  0.7546771E-02  0.1153513E+00
         21   -1    0    0  501  502  0.00000000000E+00  0.00000000000E+00  0.17813843966E+03  0.17813843966E+03  0.00000000000E+00 0. -1.
         21   -1    0    0  502  503 -0.00000000000E+00 -0.00000000000E+00 -0.32102959464E+03  0.32102959464E+03  0.00000000000E+00 0. -1.
          6    1    1    2  501    0  0.71497516154E+00  0.91248037599E+02  0.72157454606E+02  0.20847641068E+03  0.17300000000E+03 0. -1.
         -6    1    1    2    0  503 -0.71497516154E+00 -0.91248037599E+02 -0.21504860958E+03  0.29069162361E+03  0.17300000000E+03 0. -1.
<mgrwt>
<rscale>  2 0.19559068E+03</rscale>
<asrwt>0</asrwt>
<pdfrwt beam="1">  1       21 0.27405914E-01 0.19559068E+03</pdfrwt>
<pdfrwt beam="2">  1       21 0.49389168E-01 0.19559068E+03</pdfrwt>
<totfact> 0.49573361E+04</totfact>
</mgrwt>
</event>
<event>
 4    1  0.4327903E+000  0.2083959E+03  0.7546771E-02  0.1142843E+00
         21   -1    0    0  501  502  0.00000000000E+00  0.00000000000E+00  0.92429997465E+03  0.92429997465E+03  0.00000000000E+00 0.  1.
         21   -1    0    0  502  503 -0.00000000000E+00 -0.00000000000E+00 -0.47362689503E+02  0.47362689503E+02  0.00000000000E+00 0.  1.
          6    1    1    2  501    0 -0.96549767782E+02 -0.64637552753E+02  0.48181358925E+03  0.52495066975E+03  0.17300000000E+03 0.  1.
         -6    1    1    2    0  503  0.96549767782E+02  0.64637552753E+02  0.39512369590E+03  0.44671199440E+03  0.17300000000E+03 0.  1.
<mgrwt>
<rscale>  2 0.20839595E+03</rscale>
<asrwt>0</asrwt>
<pdfrwt beam="1">  1       21 0.14219998E+00 0.20839595E+03</pdfrwt>
<pdfrwt beam="2">  1       21 0.72865683E-02 0.20839595E+03</pdfrwt>
<totfact> 0.48076908E+04</totfact>
</mgrwt>
</event>
<event>
 4    1  0.4327903E+000  0.1947645E+03  0.7546771E-02  0.1154233E+00
         21   -1    0    0  503  502  0.00000000000E+00  0.00000000000E+00  0.42971138147E+03  0.42971138147E+03  0.00000000000E+00 0. -1.
         21   -1    0    0  501  503 -0.00000000000E+00 -0.00000000000E+00 -0.15317227898E+03  0.15317227898E+03  0.00000000000E+00 0. -1.
          6    1    1    2  501    0 -0.57927334448E+02 -0.68180805791E+02  0.32797147026E+03  0.38144263482E+03  0.17300000000E+03 0. -1.
         -6    1    1    2    0  502  0.57927334448E+02  0.68180805791E+02 -0.51432367763E+02  0.20144102563E+03  0.17300000000E+03 0. -1.
<mgrwt>
<rscale>  2 0.19476447E+03</rscale>
<asrwt>0</asrwt>
<pdfrwt beam="1">  1       21 0.66109443E-01 0.19476447E+03</pdfrwt>
<pdfrwt beam="2">  1       21 0.23564966E-01 0.19476447E+03</pdfrwt>
<totfact> 0.35567237E+04</totfact>
</mgrwt>
</event>
<event>
 4    1  0.4327903E+000  0.2102896E+03  0.7546771E-02  0.1141337E+00
         21   -1    0    0  503  502  0.00000000000E+00  0.00000000000E+00  0.44921281742E+02  0.44921281742E+02  0.00000000000E+00 0. -1.
         21   -1    0    0  501  503 -0.00000000000E+00 -0.00000000000E+00 -0.14480115280E+04  0.14480115280E+04  0.00000000000E+00 0. -1.
          6    1    1    2  501    0  0.11638066259E+03  0.27354651862E+02 -0.11239107707E+04  0.11434146912E+04  0.17300000000E+03 0. -1.
         -6    1    1    2    0  502 -0.11638066259E+03 -0.27354651862E+02 -0.27917947556E+03  0.34951811853E+03  0.17300000000E+03 0. -1.
<mgrwt>
<rscale>  2 0.21028965E+03</rscale>
<asrwt>0</asrwt>
<pdfrwt beam="1">  1       21 0.69109660E-02 0.21028965E+03</pdfrwt>
<pdfrwt beam="2">  1       21 0.22277102E+00 0.21028965E+03</pdfrwt>
<totfact> 0.14744842E+04</totfact>
</mgrwt>
</event>
<event>
 4    1  0.4327903E+000  0.2539680E+03  0.7546771E-02  0.1110823E+00
         21   -1    0    0  501  502  0.00000000000E+00  0.00000000000E+00  0.36538090923E+03  0.36538090923E+03  0.00000000000E+00 0.  1.
         21   -1    0    0  502  503 -0.00000000000E+00 -0.00000000000E+00 -0.22013264337E+03  0.22013264337E+03  0.00000000000E+00 0. -1.
          6    1    1    2  501    0 -0.16652183979E+03 -0.82711584040E+02  0.20292108651E+03  0.32507952352E+03  0.17300000000E+03 0.  1.
         -6    1    1    2    0  503  0.16652183979E+03  0.82711584040E+02 -0.57672820652E+02  0.26043402908E+03  0.17300000000E+03 0. -1.
<mgrwt>
<rscale>  2 0.25396797E+03</rscale>
<asrwt>0</asrwt>
<pdfrwt beam="1">  1       21 0.56212447E-01 0.25396797E+03</pdfrwt>
<pdfrwt beam="2">  1       21 0.33866561E-01 0.25396797E+03</pdfrwt>
<totfact> 0.24231675E+04</totfact>
</mgrwt>
</event>
<event>
 4    1  0.4327903E+000  0.2186942E+03  0.7546771E-02  0.1134860E+00
         21   -1    0    0  503  502  0.00000000000E+00  0.00000000000E+00  0.67737597269E+03  0.67737597269E+03  0.00000000000E+00 0.  1.
         21   -1    0    0  501  503 -0.00000000000E+00 -0.00000000000E+00 -0.75813505395E+02  0.75813505395E+02  0.00000000000E+00 0. -1.
          6    1    1    2  501    0  0.12973684120E+03  0.32657187874E+02  0.20208617985E+03  0.29776830585E+03  0.17300000000E+03 0. -1.
         -6    1    1    2    0  502 -0.12973684120E+03 -0.32657187874E+02  0.39947628745E+03  0.45542117223E+03  0.17300000000E+03 0.  1.
<mgrwt>
<rscale>  2 0.21869417E+03</rscale>
<asrwt>0</asrwt>
<pdfrwt beam="1">  1       21 0.10421168E+00 0.21869417E+03</pdfrwt>
<pdfrwt beam="2">  1       21 0.11663617E-01 0.21869417E+03</pdfrwt>
<totfact> 0.45320651E+04</totfact>
</mgrwt>
</event>
<event>
 4    1  0.4327903E+000  0.2312113E+03  0.7546771E-02  0.1125790E+00
         21   -1    0    0  503  502  0.00000000000E+00  0.00000000000E+00  0.10334319881E+03  0.10334319881E+03  0.00000000000E+00 0.  1.
         21   -1    0    0  501  503 -0.00000000000E+00 -0.00000000000E+00 -0.67447420520E+03  0.67447420520E+03  0.00000000000E+00 0.  1.
          6    1    1    2  501    0  0.14203761272E+03  0.57922106289E+02 -0.47330951383E+03  0.52676422592E+03  0.17300000000E+03 0.  1.
         -6    1    1    2    0  502 -0.14203761272E+03 -0.57922106289E+02 -0.97821492566E+02  0.25105317810E+03  0.17300000000E+03 0.  1.
<mgrwt>
<rscale>  2 0.23121128E+03</rscale>
<asrwt>0</asrwt>
<pdfrwt beam="1">  1       21 0.15898953E-01 0.23121128E+03</pdfrwt>
<pdfrwt beam="2">  1       21 0.10376527E+00 0.23121128E+03</pdfrwt>
<totfact> 0.25944894E+04</totfact>
</mgrwt>
</event>
<event>
 4    1  0.4327903E+000  0.2874355E+03  0.7546771E-02  0.1091696E+00
         21   -1    0    0  503  502  0.00000000000E+00  0.00000000000E+00  0.11942457117E+03  0.11942457117E+03  0.00000000000E+00 0.  1.
         21   -1    0    0  501  503 -0.00000000000E+00 -0.00000000000E+00 -0.73539915639E+03  0.73539915639E+03  0.00000000000E+00 0. -1.
          6    1    1    2  501    0  0.20321209447E+03 -0.10674728560E+03 -0.41204473980E+03  0.50239427337E+03  0.17300000000E+03 0. -1.
         -6    1    1    2    0  502 -0.20321209447E+03  0.10674728560E+03 -0.20392984542E+03  0.35242945418E+03  0.17300000000E+03 0. -1.
<mgrwt>
<rscale>  2 0.28743545E+03</rscale>
<asrwt>0</asrwt>
<pdfrwt beam="1">  1       21 0.18373011E-01 0.28743545E+03</pdfrwt>
<pdfrwt beam="2">  1       21 0.11313833E+00 0.28743545E+03</pdfrwt>
<totfact> 0.15643347E+04</totfact>
</mgrwt>
</event>
<event>
 4    1  0.4327903E+000  0.1930748E+03  0.7546771E-02  0.1155717E+00
         21   -1    0    0  501  502  0.00000000000E+00  0.00000000000E+00  0.12635286568E+03  0.12635286568E+03  0.00000000000E+00 0.  1.
         21   -1    0    0  502  503 -0.00000000000E+00 -0.00000000000E+00 -0.36695105607E+03  0.36695105607E+03  0.00000000000E+00 0.  1.
          6    1    1    2  501    0 -0.78893809462E+02  0.33535628020E+02 -0.22949563444E+03  0.29991018280E+03  0.17300000000E+03 0.  1.
         -6    1    1    2    0  503  0.78893809462E+02 -0.33535628020E+02 -0.11102555945E+02  0.19339373895E+03  0.17300000000E+03 0.  1.
<mgrwt>
<rscale>  2 0.19307478E+03</rscale>
<asrwt>0</asrwt>
<pdfrwt beam="1">  1       21 0.19438903E-01 0.19307478E+03</pdfrwt>
<pdfrwt beam="2">  1       21 0.56454007E-01 0.19307478E+03</pdfrwt>
<totfact> 0.71831860E+04</totfact>
</mgrwt>
</event>
<event>
 4    1  0.4327903E+000  0.2418676E+03  0.7546771E-02  0.1118555E+00
         21   -1    0    0  501  502  0.00000000000E+00  0.00000000000E+00  0.60916987096E+02  0.60916987096E+02  0.00000000000E+00 0.  1.
         21   -1    0    0  502  503 -0.00000000000E+00 -0.00000000000E+00 -0.11134315550E+04  0.11134315550E+04  0.00000000000E+00 0.  1.
          6    1    1    2  501    0  0.61575646223E+02  0.15741467400E+03 -0.30851839227E+03  0.39202492034E+03  0.17300000000E+03 0.  1.
         -6    1    1    2    0  503 -0.61575646223E+02 -0.15741467400E+03 -0.74399617562E+03  0.78232362174E+03  0.17300000000E+03 0.  1.
<mgrwt>
<rscale>  2 0.24186761E+03</rscale>
<asrwt>0</asrwt>
<pdfrwt beam="1">  1       21 0.93718448E-02 0.24186761E+03</pdfrwt>
<pdfrwt beam="2">  1       21 0.17129715E+00 0.24186761E+03</pdfrwt>
<totfact> 0.18401842E+04</totfact>
</mgrwt>
</event>
<event>
 4    1  0.4327903E+000  0.1803403E+03  0.7546771E-02  0.1167474E+00
         21   -1    0    0  501  502  0.00000000000E+00  0.00000000000E+00  0.25202202779E+03  0.25202202779E+03  0.00000000000E+00 0.  1.
         21   -1    0    0  502  503 -0.00000000000E+00 -0.00000000000E+00 -0.38130606695E+03  0.38130606695E+03  0.00000000000E+00 0.  1.
          6    1    1    2  501    0 -0.14253533052E+02  0.48892265401E+02  0.19292220011E+03  0.26408633459E+03  0.17300000000E+03 0.  1.
         -6    1    1    2    0  503  0.14253533052E+02 -0.48892265401E+02 -0.32220623927E+03  0.36924176016E+03  0.17300000000E+03 0.  1.
<mgrwt>
<rscale>  2 0.18034028E+03</rscale>
<asrwt>0</asrwt>
<pdfrwt beam="1">  1       21 0.38772620E-01 0.18034028E+03</pdfrwt>
<pdfrwt beam="2">  1       21 0.58662472E-01 0.18034028E+03</pdfrwt>
<totfact> 0.17575344E+04</totfact>
</mgrwt>
</event>
<event>
 4    1  0.4327903E+000  0.1789266E+03  0.7546771E-02  0.1168846E+00
         21   -1    0    0  503  502  0.00000000000E+00  0.00000000000E+00  0.31438657823E+03  0.31438657823E+03  0.00000000000E+00 0.  1.
         21   -1    0    0  501  503 -0.00000000000E+00 -0.00000000000E+00 -0.16732444076E+03  0.16732444076E+03  0.00000000000E+00 0.  1.
          6    1    1    2  501    0 -0.64708678589E+01 -0.45209013413E+02 -0.77154371193E+02  0.19485256996E+03  0.17300000000E+03 0.  1.
         -6    1    1    2    0  502  0.64708678589E+01  0.45209013413E+02  0.22421650867E+03  0.28685844904E+03  0.17300000000E+03 0.  1.
<mgrwt>
<rscale>  2 0.17892660E+03</rscale>
<asrwt>0</asrwt>
<pdfrwt beam="1">  1       21 0.48367166E-01 0.17892660E+03</pdfrwt>
<pdfrwt beam="2">  1       21 0.25742222E-01 0.17892660E+03</pdfrwt>
<totfact> 0.58840152E+04</totfact>
</mgrwt>
</event>
<event>
 4    1  0.4327903E+000  0.1875331E+03  0.7546771E-02  0.1160705E+00
         21   -1    0    0  503  502  0.00000000000E+00  0.00000000000E+00  0.78837538663E+02  0.78837538663E+02  0.00000000000E+00 0.  1.
         21   -1    0    0  501  503 -0.00000000000E+00 -0.00000000000E+00 -0.94015838173E+03  0.94015838173E+03  0.00000000000E+00 0.  1.
          6    1    1    2  501    0 -0.59002134447E+02  0.41933497525E+02 -0.80000802755E+03  0.82169429488E+03  0.17300000000E+03 0.  1.
         -6    1    1    2    0  502  0.59002134447E+02 -0.41933497525E+02 -0.61312815510E+02  0.19730162551E+03  0.17300000000E+03 0.  1.
<mgrwt>
<rscale>  2 0.18753312E+03</rscale>
<asrwt>0</asrwt>
<pdfrwt beam="1">  1       21 0.12128851E-01 0.18753312E+03</pdfrwt>
<pdfrwt beam="2">  1       21 0.14463976E+00 0.18753312E+03</pdfrwt>
<totfact> 0.18993947E+04</totfact>
</mgrwt>
</event>
<event>
 4    1  0.4327903E+000  0.2868179E+03  0.7546771E-02  0.1092022E+00
         21   -1    0    0  501  502  0.00000000000E+00  0.00000000000E+00  0.93902014963E+03  0.93902014963E+03  0.00000000000E+00 0.  1.
         21   -1    0    0  502  503 -0.00000000000E+00 -0.00000000000E+00 -0.38623373334E+03  0.38623373334E+03  0.00000000000E+00 0. -1.
          6    1    1    2  501    0 -0.77738863538E+01 -0.22863741972E+03  0.85904423026E+03  0.90566080436E+03  0.17300000000E+03 0.  1.
         -6    1    1    2    0  503  0.77738863538E+01  0.22863741972E+03 -0.30625781396E+03  0.41959307861E+03  0.17300000000E+03 0. -1.
<mgrwt>
<rscale>  2 0.28681789E+03</rscale>
<asrwt>0</asrwt>
<pdfrwt beam="1">  1       21 0.14446464E+00 0.28681789E+03</pdfrwt>
<pdfrwt beam="2">  1       21 0.59420574E-01 0.28681789E+03</pdfrwt>
<totfact> 0.80320231E+02</totfact>
</mgrwt>
</event>
<event>
 4    1  0.4327903E+000  0.1816478E+03  0.7546771E-02  0.1166218E+00
         21   -1    0    0  501  502  0.00000000000E+00  0.00000000000E+00  0.15987446373E+03  0.15987446373E+03  0.00000000000E+00 0.  1.
         21   -1    0    0  502  503 -0.00000000000E+00 -0.00000000000E+00 -0.28035263636E+03  0.28035263636E+03  0.00000000000E+00 0.  1.
          6    1    1    2  501    0  0.35769846858E+02 -0.42278064955E+02  0.52821487497E+02  0.18917194893E+03  0.17300000000E+03 0.  1.
         -6    1    1    2    0  503 -0.35769846858E+02  0.42278064955E+02 -0.17329966013E+03  0.25105515116E+03  0.17300000000E+03 0.  1.
<mgrwt>
<rscale>  2 0.18164778E+03</rscale>
<asrwt>0</asrwt>
<pdfrwt beam="1">  1       21 0.24596072E-01 0.18164778E+03</pdfrwt>
<pdfrwt beam="2">  1       21 0.43131174E-01 0.18164778E+03</pdfrwt>
<totfact> 0.81117903E+04</totfact>
</mgrwt>
</event>
<event>
 4    1  0.4327903E+000  0.1794422E+03  0.7546771E-02  0.1168344E+00
         21   -1    0    0  501  502  0.00000000000E+00  0.00000000000E+00  0.40421812684E+03  0.40421812684E+03  0.00000000000E+00 0. -1.
         21   -1    0    0  502  503 -0.00000000000E+00 -0.00000000000E+00 -0.25878263658E+03  0.25878263658E+03  0.00000000000E+00 0. -1.
          6    1    1    2  501    0 -0.30366399255E+02 -0.36720563052E+02  0.34851706850E+03  0.39199957269E+03  0.17300000000E+03 0. -1.
         -6    1    1    2    0  503  0.30366399255E+02  0.36720563052E+02 -0.20308157825E+03  0.27100119073E+03  0.17300000000E+03 0. -1.
<mgrwt>
<rscale>  2 0.17944224E+03</rscale>
<asrwt>0</asrwt>
<pdfrwt beam="1">  1       21 0.62187404E-01 0.17944224E+03</pdfrwt>
<pdfrwt beam="2">  1       21 0.39812713E-01 0.17944224E+03</pdfrwt>
<totfact> 0.14711443E+04</totfact>
</mgrwt>
</event>
<event>
 4    1  0.4327903E+000  0.4081717E+03  0.7546771E-02  0.1040986E+00
         21   -1    0    0  503  502  0.00000000000E+00  0.00000000000E+00  0.98693850053E+02  0.98693850053E+02  0.00000000000E+00 0.  1.
         21   -1    0    0  501  503 -0.00000000000E+00 -0.00000000000E+00 -0.18618633287E+04  0.18618633287E+04  0.00000000000E+00 0.  1.
          6    1    1    2  501    0 -0.46944736269E+02  0.36670329197E+03 -0.58210528330E+03  0.71095054219E+03  0.17300000000E+03 0.  1.
         -6    1    1    2    0  502  0.46944736269E+02 -0.36670329197E+03 -0.11810641954E+04  0.12496066366E+04  0.17300000000E+03 0.  1.
<mgrwt>
<rscale>  2 0.40817167E+03</rscale>
<asrwt>0</asrwt>
<pdfrwt beam="1">  1       21 0.15183669E-01 0.40817167E+03</pdfrwt>
<pdfrwt beam="2">  1       21 0.28644052E+00 0.40817167E+03</pdfrwt>
<totfact> 0.13065535E+03</totfact>
</mgrwt>
</event>
<event>
 4    1  0.4327903E+000  0.2583736E+03  0.7546771E-02  0.1108124E+00
         21   -1    0    0  503  502  0.00000000000E+00  0.00000000000E+00  0.42159457670E+03  0.42159457670E+03  0.00000000000E+00 0. -1.
         21   -1    0    0  501  503 -0.00000000000E+00 -0.00000000000E+00 -0.19405460910E+03  0.19405460910E+03  0.00000000000E+00 0. -1.
          6    1    1    2  501    0 -0.11247346203E+03 -0.15549153296E+03 -0.18280818963E+02  0.25901946804E+03  0.17300000000E+03 0. -1.
         -6    1    1    2    0  502  0.11247346203E+03  0.15549153296E+03  0.24582078656E+03  0.35662971776E+03  0.17300000000E+03 0. -1.
<mgrwt>
<rscale>  2 0.25837356E+03</rscale>
<asrwt>0</asrwt>
<pdfrwt beam="1">  1       21 0.64860704E-01 0.25837356E+03</pdfrwt>
<pdfrwt beam="2">  1       21 0.29854555E-01 0.25837356E+03</pdfrwt>
<totfact> 0.22758474E+04</totfact>
</mgrwt>
</event>
<event>
 4    1  0.4327903E+000  0.2187915E+03  0.7546771E-02  0.1134787E+00
         21   -1    0    0  503  502  0.00000000000E+00  0.00000000000E+00  0.24225058344E+04  0.24225058344E+04  0.00000000000E+00 0. -1.
         21   -1    0    0  501  503 -0.00000000000E+00 -0.00000000000E+00 -0.24725889816E+02  0.24725889816E+02  0.00000000000E+00 0. -1.
          6    1    1    2  501    0 -0.34160348004E+02  0.12951361973E+03  0.65055017149E+03  0.68635649097E+03  0.17300000000E+03 0. -1.
         -6    1    1    2    0  502  0.34160348004E+02 -0.12951361973E+03  0.17472297731E+04  0.17608752333E+04  0.17300000000E+03 0. -1.
<mgrwt>
<rscale>  2 0.21879147E+03</rscale>
<asrwt>0</asrwt>
<pdfrwt beam="1">  1       21 0.37269302E+00 0.21879147E+03</pdfrwt>
<pdfrwt beam="2">  1       21 0.38039850E-02 0.21879147E+03</pdfrwt>
<totfact> 0.52844929E+03</totfact>
</mgrwt>
</event>
<event>
 4    1  0.4327903E+000  0.2846087E+03  0.7546771E-02  0.1093198E+00
         21   -1    0    0  503  502  0.00000000000E+00  0.00000000000E+00  0.29752641574E+04  0.29752641574E+04  0.00000000000E+00 0. -1.
         21   -1    0    0  501  503 -0.00000000000E+00 -0.00000000000E+00 -0.27725348673E+02  0.27725348673E+02  0.00000000000E+00 0.  1.
          6    1    1    2  501    0 -0.21595291988E+03  0.66614223830E+02  0.12720994540E+04  0.13035486716E+04  0.17300000000E+03 0.  1.
         -6    1    1    2    0  502  0.21595291988E+03 -0.66614223830E+02  0.16754393547E+04  0.16994408345E+04  0.17300000000E+03 0. -1.
<mgrwt>
<rscale>  2 0.28460871E+03</rscale>
<asrwt>0</asrwt>
<pdfrwt beam="1">  1       21 0.45773269E+00 0.28460871E+03</pdfrwt>
<pdfrwt beam="2">  1       21 0.42654406E-02 0.28460871E+03</pdfrwt>
<totfact> 0.11556794E+03</totfact>
</mgrwt>
</event>
<event>
 4    1  0.4327903E+000  0.2113777E+03  0.7546771E-02  0.1140480E+00
         21   -1    0    0  503  502  0.00000000000E+00  0.00000000000E+00  0.51474377896E+02  0.51474377896E+02  0.00000000000E+00 0. -1.
         21   -1    0    0  501  503 -0.00000000000E+00 -0.00000000000E+00 -0.87256234644E+03  0.87256234644E+03  0.00000000000E+00 0. -1.
          6    1    1    2  501    0  0.61675642238E+02  0.10463091296E+03 -0.37718921335E+03  0.43237971212E+03  0.17300000000E+03 0. -1.
         -6    1    1    2    0  502 -0.61675642238E+02 -0.10463091296E+03 -0.44389875519E+03  0.49165701221E+03  0.17300000000E+03 0. -1.
<mgrwt>
<rscale>  2 0.21137765E+03</rscale>
<asrwt>0</asrwt>
<pdfrwt beam="1">  1       21 0.79191350E-02 0.21137765E+03</pdfrwt>
<pdfrwt beam="2">  1       21 0.13424036E+00 0.21137765E+03</pdfrwt>
<totfact> 0.48181687E+04</totfact>
</mgrwt>
</event>
<event>
 4    1  0.4327903E+000  0.2657038E+03  0.7546771E-02  0.1103764E+00
         21   -1    0    0  501  502  0.00000000000E+00  0.00000000000E+00  0.14751822357E+03  0.14751822357E+03  0.00000000000E+00 0.  1.
         21   -1    0    0  502  503 -0.00000000000E+00 -0.00000000000E+00 -0.74837917740E+03  0.74837917740E+03  0.00000000000E+00 0. -1.
          6    1    1    2  501    0 -0.18268605699E+03  0.85412545804E+02 -0.31467835299E+02  0.26756069042E+03  0.17300000000E+03 0.  1.
         -6    1    1    2    0  503  0.18268605699E+03 -0.85412545804E+02 -0.56939311853E+03  0.62833671055E+03  0.17300000000E+03 0. -1.
<mgrwt>
<rscale>  2 0.26570378E+03</rscale>
<asrwt>0</asrwt>
<pdfrwt beam="1">  1       21 0.22695111E-01 0.26570378E+03</pdfrwt>
<pdfrwt beam="2">  1       21 0.11513526E+00 0.26570378E+03</pdfrwt>
<totfact> 0.10165370E+04</totfact>
</mgrwt>
</event>
<event>
 4    1  0.4327903E+000  0.3241855E+03  0.7546771E-02  0.1073739E+00
         21   -1    0    0  503  502  0.00000000000E+00  0.00000000000E+00  0.23923569695E+03  0.23923569695E+03  0.00000000000E+00 0.  1.
         21   -1    0    0  501  503 -0.00000000000E+00 -0.00000000000E+00 -0.50386773590E+03  0.50386773590E+03  0.00000000000E+00 0. -1.
          6    1    1    2  501    0  0.17130121794E+03  0.21406342284E+03 -0.26532120418E+03  0.41891717279E+03  0.17300000000E+03 0. -1.
         -6    1    1    2    0  502 -0.17130121794E+03 -0.21406342284E+03  0.68916523413E+00  0.32418626007E+03  0.17300000000E+03 0.  1.
<mgrwt>
<rscale>  2 0.32418553E+03</rscale>
<asrwt>0</asrwt>
<pdfrwt beam="1">  1       21 0.36805492E-01 0.32418553E+03</pdfrwt>
<pdfrwt beam="2">  1       21 0.77518113E-01 0.32418553E+03</pdfrwt>
<totfact> 0.97875715E+03</totfact>
</mgrwt>
</event>
<event>
 4    1  0.4327903E+000  0.1745220E+03  0.7546771E-02  0.1173213E+00
         21   -1    0    0  501  502  0.00000000000E+00  0.00000000000E+00  0.20520573722E+02  0.20520573722E+02  0.00000000000E+00 0.  1.
         21   -1    0    0  502  503 -0.00000000000E+00 -0.00000000000E+00 -0.17249845944E+04  0.17249845944E+04  0.00000000000E+00 0.  1.
          6    1    1    2  501    0 -0.74223849636E+01  0.21767632298E+02 -0.52620291936E+03  0.55438924409E+03  0.17300000000E+03 0. -1.
         -6    1    1    2    0  503  0.74223849636E+01 -0.21767632298E+02 -0.11782611013E+04  0.11911159240E+04  0.17300000000E+03 0. -1.
<mgrwt>
<rscale>  2 0.17452198E+03</rscale>
<asrwt>0</asrwt>
<pdfrwt beam="1">  1       21 0.31570110E-02 0.17452198E+03</pdfrwt>
<pdfrwt beam="2">  1       21 0.26538227E+00 0.17452198E+03</pdfrwt>
<totfact> 0.31949831E+04</totfact>
</mgrwt>
</event>
<event>
 4    1  0.4327903E+000  0.2245197E+03  0.7546771E-02  0.1130558E+00
         21   -1    0    0  501  502  0.00000000000E+00  0.00000000000E+00  0.52852397511E+03  0.52852397511E+03  0.00000000000E+00 0.  1.
         21   -1    0    0  502  503 -0.00000000000E+00 -0.00000000000E+00 -0.11308718106E+03  0.11308718106E+03  0.00000000000E+00 0.  1.
          6    1    1    2  501    0 -0.13250129406E+03 -0.54069283412E+02  0.33467216110E+03  0.40300686812E+03  0.17300000000E+03 0.  1.
         -6    1    1    2    0  503  0.13250129406E+03  0.54069283412E+02  0.80764632954E+02  0.23860428805E+03  0.17300000000E+03 0.  1.
<mgrwt>
<rscale>  2 0.22451967E+03</rscale>
<asrwt>0</asrwt>
<pdfrwt beam="1">  1       21 0.81311379E-01 0.22451967E+03</pdfrwt>
<pdfrwt beam="2">  1       21 0.17398028E-01 0.22451967E+03</pdfrwt>
<totfact> 0.38992507E+04</totfact>
</mgrwt>
</event>
<event>
 4    1  0.4327903E+000  0.1768054E+03  0.7546771E-02  0.1170931E+00
         21   -1    0    0  503  502  0.00000000000E+00  0.00000000000E+00  0.12765471930E+04  0.12765471930E+04  0.00000000000E+00 0.  1.
         21   -1    0    0  501  503 -0.00000000000E+00 -0.00000000000E+00 -0.32810940793E+02  0.32810940793E+02  0.00000000000E+00 0.  1.
          6    1    1    2  501    0 -0.32434208030E+02 -0.16708422953E+02  0.29213980060E+03  0.34147593230E+03  0.17300000000E+03 0.  1.
         -6    1    1    2    0  502  0.32434208030E+02  0.16708422953E+02  0.95159645164E+03  0.96788220153E+03  0.17300000000E+03 0.  1.
<mgrwt>
<rscale>  2 0.17680540E+03</rscale>
<asrwt>0</asrwt>
<pdfrwt beam="1">  1       21 0.19639184E+00 0.17680540E+03</pdfrwt>
<pdfrwt beam="2">  1       21 0.50478380E-02 0.17680540E+03</pdfrwt>
<totfact> 0.37907234E+04</totfact>
</mgrwt>
</event>
<event>
 4    1  0.4327903E+000  0.2119265E+03  0.7546771E-02  0.1140049E+00
         21   -1    0    0  501  502  0.00000000000E+00  0.00000000000E+00  0.30243800940E+03  0.30243800940E+03  0.00000000000E+00 0.  1.
         21   -1    0    0  502  503 -0.00000000000E+00 -0.00000000000E+00 -0.22252357857E+03  0.22252357857E+03  0.00000000000E+00 0. -1.
          6    1    1    2  501    0  0.12114582373E+03  0.17536128991E+02  0.19134365192E+03  0.28552621519E+03  0.17300000000E+03 0.  1.
         -6    1    1    2    0  503 -0.12114582373E+03 -0.17536128991E+02 -0.11142922110E+03  0.23943537279E+03  0.17300000000E+03 0. -1.
<mgrwt>
<rscale>  2 0.21192646E+03</rscale>
<asrwt>0</asrwt>
<pdfrwt beam="1">  1       21 0.46528924E-01 0.21192646E+03</pdfrwt>
<pdfrwt beam="2">  1       21 0.34234397E-01 0.21192646E+03</pdfrwt>
<totfact> 0.36008579E+04</totfact>
</mgrwt>
</event>
<event>
 4    1  0.4327903E+000  0.2059970E+03  0.7546771E-02  0.1144776E+00
         21   -1    0    0  503  502  0.00000000000E+00  0.00000000000E+00  0.11449277504E+03  0.11449277504E+03  0.00000000000E+00 0. -1.
         21   -1    0    0  501  503 -0.00000000000E+00 -0.00000000000E+00 -0.37314647318E+03  0.37314647318E+03  0.00000000000E+00 0.  1.
          6    1    1    2  501    0 -0.55935488288E+02 -0.96834771421E+02 -0.14933942526E+03  0.25443469839E+03  0.17300000000E+03 0.  1.
         -6    1    1    2    0  502  0.55935488288E+02  0.96834771421E+02 -0.10931427289E+03  0.23320454983E+03  0.17300000000E+03 0. -1.
<mgrwt>
<rscale>  2 0.20599697E+03</rscale>
<asrwt>0</asrwt>
<pdfrwt beam="1">  1       21 0.17614273E-01 0.20599697E+03</pdfrwt>
<pdfrwt beam="2">  1       21 0.57407149E-01 0.20599697E+03</pdfrwt>
<totfact> 0.82750206E+04</totfact>
</mgrwt>
</event>
<event>
 4    1  0.4327903E+000  0.1913706E+03  0.7546771E-02  0.1157231E+00
         21   -1    0    0  503  502  0.00000000000E+00  0.00000000000E+00  0.32554387843E+03  0.32554387843E+03  0.00000000000E+00 0.  1.
         21   -1    0    0  501  503 -0.00000000000E+00 -0.00000000000E+00 -0.11288433599E+03  0.11288433599E+03  0.00000000000E+00 0.  1.
          6    1    1    2  501    0  0.77455615514E+02  0.26350561090E+02  0.93489618811E+02  0.21298599313E+03  0.17300000000E+03 0.  1.
         -6    1    1    2    0  502 -0.77455615514E+02 -0.26350561090E+02  0.11916992363E+03  0.22544222129E+03  0.17300000000E+03 0.  1.
<mgrwt>
<rscale>  2 0.19137065E+03</rscale>
<asrwt>0</asrwt>
<pdfrwt beam="1">  1       21 0.50083673E-01 0.19137065E+03</pdfrwt>
<pdfrwt beam="2">  1       21 0.17366821E-01 0.19137065E+03</pdfrwt>
<totfact> 0.11395120E+05</totfact>
</mgrwt>
</event>
<event>
 4    1  0.4327903E+000  0.1781198E+03  0.7546771E-02  0.1169635E+00
         21   -1    0    0  501  502  0.00000000000E+00  0.00000000000E+00  0.10214600737E+03  0.10214600737E+03  0.00000000000E+00 0. -1.
         21   -1    0    0  502  503 -0.00000000000E+00 -0.00000000000E+00 -0.97212761074E+03  0.97212761074E+03  0.00000000000E+00 0. -1.
          6    1    1    2  501    0 -0.41434399368E+02  0.89910462122E+01  0.81042978860E+01  0.17830403250E+03  0.17300000000E+03 0. -1.
         -6    1    1    2    0  503  0.41434399368E+02 -0.89910462122E+01 -0.87808590125E+03  0.89596958561E+03  0.17300000000E+03 0. -1.
<mgrwt>
<rscale>  2 0.17811976E+03</rscale>
<asrwt>0</asrwt>
<pdfrwt beam="1">  1       21 0.15714770E-01 0.17811976E+03</pdfrwt>
<pdfrwt beam="2">  1       21 0.14955809E+00 0.17811976E+03</pdfrwt>
<totfact> 0.10974977E+04</totfact>
</mgrwt>
</event>
<event>
 4    1  0.4327903E+000  0.2050643E+03  0.7546771E-02  0.1145535E+00
         21   -1    0    0  503  502  0.00000000000E+00  0.00000000000E+00  0.29233521855E+03  0.29233521855E+03  0.00000000000E+00 0. -1.
         21   -1    0    0  501  503 -0.00000000000E+00 -0.00000000000E+00 -0.18158965369E+03  0.18158965369E+03  0.00000000000E+00 0. -1.
          6    1    1    2  501    0  0.10768171949E+03  0.22956856723E+02 -0.52659512095E+02  0.21171772292E+03  0.17300000000E+03 0. -1.
         -6    1    1    2    0  502 -0.10768171949E+03 -0.22956856723E+02  0.16340507696E+03  0.26220714933E+03  0.17300000000E+03 0. -1.
<mgrwt>
<rscale>  2 0.20506431E+03</rscale>
<asrwt>0</asrwt>
<pdfrwt beam="1">  1       21 0.44974649E-01 0.20506431E+03</pdfrwt>
<pdfrwt beam="2">  1       21 0.27936870E-01 0.20506431E+03</pdfrwt>
<totfact> 0.57715795E+04</totfact>
</mgrwt>
</event>
<event>
 4    1  0.4327903E+000  0.4009407E+03  0.7546771E-02  0.1043454E+00
         21   -1    0    0  503  502  0.00000000000E+00  0.00000000000E+00  0.53420909263E+03  0.53420909263E+03  0.00000000000E+00 0.  1.
         21   -1    0    0  501  503 -0.00000000000E+00 -0.00000000000E+00 -0.49056593267E+03  0.49056593267E+03  0.00000000000E+00 0.  1.
          6    1    1    2  501    0  0.30888485905E+03 -0.18818760551E+03 -0.29676190547E+03  0.49881966637E+03  0.17300000000E+03 0.  1.
         -6    1    1    2    0  502 -0.30888485905E+03  0.18818760551E+03  0.34040506542E+03  0.52595535893E+03  0.17300000000E+03 0.  1.
<mgrwt>
<rscale>  2 0.40094068E+03</rscale>
<asrwt>0</asrwt>
<pdfrwt beam="1">  1       21 0.82186015E-01 0.40094068E+03</pdfrwt>
<pdfrwt beam="2">  1       21 0.75471682E-01 0.40094068E+03</pdfrwt>
<totfact> 0.17814651E+03</totfact>
</mgrwt>
</event>
<event>
 4    1  0.4327903E+000  0.2000941E+03  0.7546771E-02  0.1149660E+00
         21   -1    0    0  501  502  0.00000000000E+00  0.00000000000E+00  0.82924069319E+03  0.82924069319E+03  0.00000000000E+00 0.  1.
         21   -1    0    0  502  503 -0.00000000000E+00 -0.00000000000E+00 -0.65319568564E+02  0.65319568564E+02  0.00000000000E+00 0.  1.
          6    1    1    2  501    0 -0.73250828114E+02 -0.68869143157E+02  0.61039312792E+03  0.64235302856E+03  0.17300000000E+03 0.  1.
         -6    1    1    2    0  503  0.73250828114E+02  0.68869143157E+02  0.15352799671E+03  0.25220723319E+03  0.17300000000E+03 0.  1.
<mgrwt>
<rscale>  2 0.20009408E+03</rscale>
<asrwt>0</asrwt>
<pdfrwt beam="1">  1       21 0.12757548E+00 0.20009408E+03</pdfrwt>
<pdfrwt beam="2">  1       21 0.10049165E-01 0.20009408E+03</pdfrwt>
<totfact> 0.36304295E+04</totfact>
</mgrwt>
</event>
<event>
 4    1  0.4327903E+000  0.1797148E+03  0.7546771E-02  0.1168079E+00
         21   -1    0    0  503  502  0.00000000000E+00  0.00000000000E+00  0.18657007087E+03  0.18657007087E+03  0.00000000000E+00 0. -1.
         21   -1    0    0  501  503 -0.00000000000E+00 -0.00000000000E+00 -0.17920935739E+03  0.17920935739E+03  0.00000000000E+00 0. -1.
          6    1    1    2  501    0 -0.42658066732E+02 -0.23424156119E+02 -0.30056294830E+02  0.18221081912E+03  0.17300000000E+03 0. -1.
         -6    1    1    2    0  502  0.42658066732E+02  0.23424156119E+02  0.37417008315E+02  0.18356860913E+03  0.17300000000E+03 0. -1.
<mgrwt>
<rscale>  2 0.17971478E+03</rscale>
<asrwt>0</asrwt>
<pdfrwt beam="1">  1       21 0.28703088E-01 0.17971478E+03</pdfrwt>
<pdfrwt beam="2">  1       21 0.27570671E-01 0.17971478E+03</pdfrwt>
<totfact> 0.14637726E+05</totfact>
</mgrwt>
</event>
<event>
 4    1  0.4327903E+000  0.2263691E+03  0.7546771E-02  0.1129222E+00
         21   -1    0    0  503  502  0.00000000000E+00  0.00000000000E+00  0.13361264495E+04  0.13361264495E+04  0.00000000000E+00 0. -1.
         21   -1    0    0  501  503 -0.00000000000E+00 -0.00000000000E+00 -0.48161437838E+02  0.48161437838E+02  0.00000000000E+00 0. -1.
          6    1    1    2  501    0 -0.80081939449E+02  0.12206909040E+03  0.33161121733E+03  0.40150838013E+03  0.17300000000E+03 0. -1.
         -6    1    1    2    0  502  0.80081939449E+02 -0.12206909040E+03  0.95635379433E+03  0.98277950721E+03  0.17300000000E+03 0. -1.
<mgrwt>
<rscale>  2 0.22636912E+03</rscale>
<asrwt>0</asrwt>
<pdfrwt beam="1">  1       21 0.20555789E+00 0.22636912E+03</pdfrwt>
<pdfrwt beam="2">  1       21 0.74094530E-02 0.22636912E+03</pdfrwt>
<totfact> 0.16539884E+04</totfact>
</mgrwt>
</event>
<event>
 4    1  0.4327903E+000  0.2227005E+03  0.7546771E-02  0.1131886E+00
         21   -1    0    0  501  502  0.00000000000E+00  0.00000000000E+00  0.83589230309E+02  0.83589230309E+02  0.00000000000E+00 0. -1.
         21   -1    0    0  502  503 -0.00000000000E+00 -0.00000000000E+00 -0.72854697833E+03  0.72854697833E+03  0.00000000000E+00 0.  1.
          6    1    1    2  501    0  0.34152839023E+01  0.14019581744E+03 -0.14753663709E+03  0.26713777471E+03  0.17300000000E+03 0. -1.
         -6    1    1    2    0  503 -0.34152839023E+01 -0.14019581744E+03 -0.49742111093E+03  0.54499843393E+03  0.17300000000E+03 0. -1.
<mgrwt>
<rscale>  2 0.22270054E+03</rscale>
<asrwt>0</asrwt>
<pdfrwt beam="1">  1       21 0.12859882E-01 0.22270054E+03</pdfrwt>
<pdfrwt beam="2">  1       21 0.11208415E+00 0.22270054E+03</pdfrwt>
<totfact> 0.31809969E+04</totfact>
</mgrwt>
</event>
<event>
 4    1  0.4327903E+000  0.2180624E+03  0.7546771E-02  0.1135336E+00
         21   -1    0    0  503  502  0.00000000000E+00  0.00000000000E+00  0.77268146963E+02  0.77268146963E+02  0.00000000000E+00 0.  1.
         21   -1    0    0  501  503 -0.00000000000E+00 -0.00000000000E+00 -0.67373924500E+03  0.67373924500E+03  0.00000000000E+00 0.  1.
          6    1    1    2  501    0 -0.30810185697E+02 -0.12912381850E+03 -0.40872706302E+03  0.46325915004E+03  0.17300000000E+03 0.  1.
         -6    1    1    2    0  502  0.30810185697E+02  0.12912381850E+03 -0.18774403502E+03  0.28774824193E+03  0.17300000000E+03 0.  1.
<mgrwt>
<rscale>  2 0.21806244E+03</rscale>
<asrwt>0</asrwt>
<pdfrwt beam="1">  1       21 0.11887407E-01 0.21806244E+03</pdfrwt>
<pdfrwt beam="2">  1       21 0.10365219E+00 0.21806244E+03</pdfrwt>
<totfact> 0.44388044E+04</totfact>
</mgrwt>
</event>
<event>
 4    1  0.4327903E+000  0.1853247E+03  0.7546771E-02  0.1162747E+00
         21   -1    0    0  503  502  0.00000000000E+00  0.00000000000E+00  0.50075153781E+03  0.50075153781E+03  0.00000000000E+00 0. -1.
         21   -1    0    0  501  503 -0.00000000000E+00 -0.00000000000E+00 -0.68662128989E+02  0.68662128989E+02  0.00000000000E+00 0. -1.
          6    1    1    2  501    0  0.47826888152E+02  0.46139140998E+02  0.20665033320E+03  0.27757808230E+03  0.17300000000E+03 0. -1.
         -6    1    1    2    0  502 -0.47826888152E+02 -0.46139140998E+02  0.22543907563E+03  0.29183558450E+03  0.17300000000E+03 0. -1.
<mgrwt>
<rscale>  2 0.18532467E+03</rscale>
<asrwt>0</asrwt>
<pdfrwt beam="1">  1       21 0.77038696E-01 0.18532467E+03</pdfrwt>
<pdfrwt beam="2">  1       21 0.10563405E-01 0.18532467E+03</pdfrwt>
<totfact> 0.11057046E+05</totfact>
</mgrwt>
</event>
<event>
 4    1  0.4327903E+000  0.1733352E+03  0.7546771E-02  0.1174414E+00
         21   -1    0    0  503  502  0.00000000000E+00  0.00000000000E+00  0.83950984067E+02  0.83950984067E+02  0.00000000000E+00 0. -1.
         21   -1    0    0  501  503 -0.00000000000E+00 -0.00000000000E+00 -0.72959556048E+03  0.72959556048E+03  0.00000000000E+00 0. -1.
          6    1    1    2  501    0  0.92457972336E+01 -0.55326310861E+01 -0.61316551696E+03  0.63719466881E+03  0.17300000000E+03 0. -1.
         -6    1    1    2    0  502 -0.92457972336E+01  0.55326310861E+01 -0.32479059456E+02  0.17635187574E+03  0.17300000000E+03 0. -1.
<mgrwt>
<rscale>  2 0.17333521E+03</rscale>
<asrwt>0</asrwt>
<pdfrwt beam="1">  1       21 0.12915537E-01 0.17333521E+03</pdfrwt>
<pdfrwt beam="2">  1       21 0.11224547E+00 0.17333521E+03</pdfrwt>
<totfact> 0.32341838E+04</totfact>
</mgrwt>
</event>
<event>
 4    1  0.4327903E+000  0.1887005E+03  0.7546771E-02  0.1159639E+00
         21   -1    0    0  501  502  0.00000000000E+00  0.00000000000E+00  0.92817270390E+02  0.92817270390E+02  0.00000000000E+00 0. -1.
         21   -1    0    0  502  503 -0.00000000000E+00 -0.00000000000E+00 -0.47676450695E+03  0.47676450695E+03  0.00000000000E+00 0. -1.
          6    1    1    2  501    0  0.27393576962E+02 -0.70202943197E+02 -0.66104235858E+02  0.19994407041E+03  0.17300000000E+03 0. -1.
         -6    1    1    2    0  503 -0.27393576962E+02  0.70202943197E+02 -0.31784300071E+03  0.36963770694E+03  0.17300000000E+03 0. -1.
<mgrwt>
<rscale>  2 0.18870045E+03</rscale>
<asrwt>0</asrwt>
<pdfrwt beam="1">  1       21 0.14279580E-01 0.18870045E+03</pdfrwt>
<pdfrwt beam="2">  1       21 0.73348386E-01 0.18870045E+03</pdfrwt>
<totfact> 0.71798350E+04</totfact>
</mgrwt>
</event>
<event>
 4    1  0.4327903E+000  0.2184700E+03  0.7546771E-02  0.1135029E+00
         21   -1    0    0  501  502  0.00000000000E+00  0.00000000000E+00  0.19354088345E+03  0.19354088345E+03  0.00000000000E+00 0.  1.
         21   -1    0    0  502  503 -0.00000000000E+00 -0.00000000000E+00 -0.29292198921E+03  0.29292198921E+03  0.00000000000E+00 0.  1.
          6    1    1    2  501    0  0.13288905295E+03 -0.11858860426E+02  0.47023604966E+02  0.22347338183E+03  0.17300000000E+03 0.  1.
         -6    1    1    2    0  503 -0.13288905295E+03  0.11858860426E+02 -0.14640471073E+03  0.26298949083E+03  0.17300000000E+03 0.  1.
<mgrwt>
<rscale>  2 0.21846998E+03</rscale>
<asrwt>0</asrwt>
<pdfrwt beam="1">  1       21 0.29775520E-01 0.21846998E+03</pdfrwt>
<pdfrwt beam="2">  1       21 0.45064922E-01 0.21846998E+03</pdfrwt>
<totfact> 0.50467395E+04</totfact>
</mgrwt>
</event>
<event>
 4    1  0.4327903E+000  0.1896688E+03  0.7546771E-02  0.1158760E+00
         21   -1    0    0  501  502  0.00000000000E+00  0.00000000000E+00  0.33430875131E+03  0.33430875131E+03  0.00000000000E+00 0. -1.
         21   -1    0    0  502  503 -0.00000000000E+00 -0.00000000000E+00 -0.17112557833E+03  0.17112557833E+03  0.00000000000E+00 0. -1.
          6    1    1    2  501    0 -0.68764406421E+02 -0.36286474396E+02  0.23555753972E+03  0.30242619981E+03  0.17300000000E+03 0. -1.
         -6    1    1    2    0  503  0.68764406421E+02  0.36286474396E+02 -0.72374366740E+02  0.20300812983E+03  0.17300000000E+03 0. -1.
<mgrwt>
<rscale>  2 0.18966880E+03</rscale>
<asrwt>0</asrwt>
<pdfrwt beam="1">  1       21 0.51432116E-01 0.18966880E+03</pdfrwt>
<pdfrwt beam="2">  1       21 0.26327012E-01 0.18966880E+03</pdfrwt>
<totfact> 0.49350069E+04</totfact>
</mgrwt>
</event>
<event>
 4    1  0.4327903E+000  0.1773000E+03  0.7546771E-02  0.1170442E+00
         21   -1    0    0  501  502  0.00000000000E+00  0.00000000000E+00  0.13204725214E+03  0.13204725214E+03  0.00000000000E+00 0.  1.
         21   -1    0    0  502  503 -0.00000000000E+00 -0.00000000000E+00 -0.23811413327E+03  0.23811413327E+03  0.00000000000E+00 0.  1.
          6    1    1    2  501    0 -0.16525601306E+01  0.38775964871E+02 -0.55797078128E+02  0.18587259167E+03  0.17300000000E+03 0. -1.
         -6    1    1    2    0  503  0.16525601306E+01 -0.38775964871E+02 -0.50269803000E+02  0.18428879375E+03  0.17300000000E+03 0. -1.
<mgrwt>
<rscale>  2 0.17730005E+03</rscale>
<asrwt>0</asrwt>
<pdfrwt beam="1">  1       21 0.20314962E-01 0.17730005E+03</pdfrwt>
<pdfrwt beam="2">  1       21 0.36632943E-01 0.17730005E+03</pdfrwt>
<totfact> 0.16188844E+05</totfact>
</mgrwt>
</event>
<event>
 4    1  0.4327903E+000  0.2362623E+03  0.7546771E-02  0.1122308E+00
         21   -1    0    0  501  502  0.00000000000E+00  0.00000000000E+00  0.21260083822E+03  0.21260083822E+03  0.00000000000E+00 0.  1.
         21   -1    0    0  502  503 -0.00000000000E+00 -0.00000000000E+00 -0.33709708417E+03  0.33709708417E+03  0.00000000000E+00 0. -1.
          6    1    1    2  501    0 -0.14850829050E+03 -0.61936593017E+02  0.66996155759E+02  0.24557756166E+03  0.17300000000E+03 0.  1.
         -6    1    1    2    0  503  0.14850829050E+03  0.61936593017E+02 -0.19149240170E+03  0.30412036073E+03  0.17300000000E+03 0. -1.
<mgrwt>
<rscale>  2 0.23626226E+03</rscale>
<asrwt>0</asrwt>
<pdfrwt beam="1">  1       21 0.32707821E-01 0.23626226E+03</pdfrwt>
<pdfrwt beam="2">  1       21 0.51861090E-01 0.23626226E+03</pdfrwt>
<totfact> 0.31058167E+04</totfact>
</mgrwt>
</event>
<event>
 4    1  0.4327903E+000  0.2201462E+03  0.7546771E-02  0.1133774E+00
         21   -1    0    0  503  502  0.00000000000E+00  0.00000000000E+00  0.69432120166E+02  0.69432120166E+02  0.00000000000E+00 0.  1.
         21   -1    0    0  501  503 -0.00000000000E+00 -0.00000000000E+00 -0.72574979315E+03  0.72574979315E+03  0.00000000000E+00 0.  1.
          6    1    1    2  501    0 -0.39926260896E+02 -0.13015848327E+03 -0.40588944488E+03  0.46174731027E+03  0.17300000000E+03 0.  1.
         -6    1    1    2    0  502  0.39926260896E+02  0.13015848327E+03 -0.25042822811E+03  0.33343460305E+03  0.17300000000E+03 0.  1.
<mgrwt>
<rscale>  2 0.22014617E+03</rscale>
<asrwt>0</asrwt>
<pdfrwt beam="1">  1       21 0.10681865E-01 0.22014617E+03</pdfrwt>
<pdfrwt beam="2">  1       21 0.11165381E+00 0.22014617E+03</pdfrwt>
<totfact> 0.44833879E+04</totfact>
</mgrwt>
</event>
<event>
 4    1  0.4327903E+000  0.1837590E+03  0.7546771E-02  0.1164214E+00
         21   -1    0    0  501  502  0.00000000000E+00  0.00000000000E+00  0.59231945853E+03  0.59231945853E+03  0.00000000000E+00 0. -1.
         21   -1    0    0  502  503 -0.00000000000E+00 -0.00000000000E+00 -0.86096991059E+02  0.86096991059E+02  0.00000000000E+00 0. -1.
          6    1    1    2  501    0  0.34037521034E+02 -0.51766974393E+02  0.45027693267E+03  0.48632981460E+03  0.17300000000E+03 0. -1.
         -6    1    1    2    0  503 -0.34037521034E+02  0.51766974393E+02  0.55945534799E+02  0.19208663499E+03  0.17300000000E+03 0. -1.
<mgrwt>
<rscale>  2 0.18375901E+03</rscale>
<asrwt>0</asrwt>
<pdfrwt beam="1">  1       21 0.91126068E-01 0.18375901E+03</pdfrwt>
<pdfrwt beam="2">  1       21 0.13245691E-01 0.18375901E+03</pdfrwt>
<totfact> 0.50382318E+04</totfact>
</mgrwt>
</event>
<event>
 4    1  0.4327903E+000  0.1988192E+03  0.7546771E-02  0.1150739E+00
         21   -1    0    0  503  502  0.00000000000E+00  0.00000000000E+00  0.79238207537E+02  0.79238207537E+02  0.00000000000E+00 0.  1.
         21   -1    0    0  501  503 -0.00000000000E+00 -0.00000000000E+00 -0.88443964674E+03  0.88443964674E+03  0.00000000000E+00 0. -1.
          6    1    1    2  501    0  0.96091857681E+02  0.19142299689E+02 -0.72074395727E+03  0.74766364409E+03  0.17300000000E+03 0. -1.
         -6    1    1    2    0  502 -0.96091857681E+02 -0.19142299689E+02 -0.84457481936E+02  0.21601421019E+03  0.17300000000E+03 0.  1.
<mgrwt>
<rscale>  2 0.19881920E+03</rscale>
<asrwt>0</asrwt>
<pdfrwt beam="1">  1       21 0.12190494E-01 0.19881920E+03</pdfrwt>
<pdfrwt beam="2">  1       21 0.13606764E+00 0.19881920E+03</pdfrwt>
<totfact> 0.21879002E+04</totfact>
</mgrwt>
</event>
<event>
 4    1  0.4327903E+000  0.2209730E+03  0.7546771E-02  0.1133160E+00
         21   -1    0    0  501  502  0.00000000000E+00  0.00000000000E+00  0.84147596384E+03  0.84147596384E+03  0.00000000000E+00 0. -1.
         21   -1    0    0  502  503 -0.00000000000E+00 -0.00000000000E+00 -0.87695424403E+02  0.87695424403E+02  0.00000000000E+00 0.  1.
          6    1    1    2  501    0  0.13214528704E+03  0.37916916757E+02  0.64711067316E+03  0.68379916114E+03  0.17300000000E+03 0. -1.
         -6    1    1    2    0  503 -0.13214528704E+03 -0.37916916757E+02  0.10666986628E+03  0.24537222711E+03  0.17300000000E+03 0.  1.
<mgrwt>
<rscale>  2 0.22097301E+03</rscale>
<asrwt>0</asrwt>
<pdfrwt beam="1">  1       21 0.12945784E+00 0.22097301E+03</pdfrwt>
<pdfrwt beam="2">  1       21 0.13491604E-01 0.22097301E+03</pdfrwt>
<totfact> 0.20402869E+04</totfact>
</mgrwt>
</event>
<event>
 4    1  0.4327903E+000  0.1956351E+03  0.7546771E-02  0.1153475E+00
         21   -1    0    0  501  502  0.00000000000E+00  0.00000000000E+00  0.89669000517E+02  0.89669000517E+02  0.00000000000E+00 0.  1.
         21   -1    0    0  502  503 -0.00000000000E+00 -0.00000000000E+00 -0.10406553165E+04  0.10406553165E+04  0.00000000000E+00 0.  1.
          6    1    1    2  501    0  0.24206862379E+02 -0.88080128236E+02 -0.41439566132E+02  0.19997579558E+03  0.17300000000E+03 0.  1.
         -6    1    1    2    0  503 -0.24206862379E+02  0.88080128236E+02 -0.90954674986E+03  0.93034852144E+03  0.17300000000E+03 0.  1.
<mgrwt>
<rscale>  2 0.19563507E+03</rscale>
<asrwt>0</asrwt>
<pdfrwt beam="1">  1       21 0.13795231E-01 0.19563507E+03</pdfrwt>
<pdfrwt beam="2">  1       21 0.16010082E+00 0.19563507E+03</pdfrwt>
<totfact> 0.11448653E+04</totfact>
</mgrwt>
</event>
<event>
 4    1  0.4327903E+000  0.2065663E+03  0.7546771E-02  0.1144314E+00
         21   -1    0    0  501  502  0.00000000000E+00  0.00000000000E+00  0.27921481308E+04  0.27921481308E+04  0.00000000000E+00 0. -1.
         21   -1    0    0  502  503 -0.00000000000E+00 -0.00000000000E+00 -0.67372596123E+02  0.67372596123E+02  0.00000000000E+00 0.  1.
          6    1    1    2  501    0  0.11255805441E+03 -0.84451844311E+01  0.26195786774E+04  0.26277104261E+04  0.17300000000E+03 0. -1.
         -6    1    1    2    0  503 -0.11255805441E+03  0.84451844311E+01  0.10519685729E+03  0.23181030075E+03  0.17300000000E+03 0.  1.
<mgrwt>
<rscale>  2 0.20656630E+03</rscale>
<asrwt>0</asrwt>
<pdfrwt beam="1">  1       21 0.42956116E+00 0.20656630E+03</pdfrwt>
<pdfrwt beam="2">  1       21 0.10365017E-01 0.20656630E+03</pdfrwt>
<totfact> 0.42150617E+02</totfact>
</mgrwt>
</event>
<event>
 4    1  0.4327903E+000  0.2274010E+03  0.7546771E-02  0.1128483E+00
         21   -1    0    0  503  502  0.00000000000E+00  0.00000000000E+00  0.14643809992E+03  0.14643809992E+03  0.00000000000E+00 0.  1.
         21   -1    0    0  501  503 -0.00000000000E+00 -0.00000000000E+00 -0.43502520276E+03  0.43502520276E+03  0.00000000000E+00 0. -1.
          6    1    1    2  501    0  0.13057852881E+03 -0.68785525892E+02 -0.27043944786E+03  0.35333934923E+03  0.17300000000E+03 0. -1.
         -6    1    1    2    0  502 -0.13057852881E+03  0.68785525892E+02 -0.18147654980E+02  0.22812395345E+03  0.17300000000E+03 0. -1.
<mgrwt>
<rscale>  2 0.22740097E+03</rscale>
<asrwt>0</asrwt>
<pdfrwt beam="1">  1       21 0.22528939E-01 0.22740097E+03</pdfrwt>
<pdfrwt beam="2">  1       21 0.66926952E-01 0.22740097E+03</pdfrwt>
<totfact> 0.37084586E+04</totfact>
</mgrwt>
</event>
<event>
 4    1  0.4327903E+000  0.3493863E+03  0.7546771E-02  0.1062867E+00
         21   -1    0    0  503  502  0.00000000000E+00  0.00000000000E+00  0.93241326401E+03  0.93241326401E+03  0.00000000000E+00 0. -1.
         21   -1    0    0  501  503 -0.00000000000E+00 -0.00000000000E+00 -0.22164098511E+03  0.22164098511E+03  0.00000000000E+00 0.  1.
          6    1    1    2  501    0 -0.16447759376E+03  0.25512528200E+03 -0.13784379997E+02  0.34965811516E+03  0.17300000000E+03 0.  1.
         -6    1    1    2    0  502  0.16447759376E+03 -0.25512528200E+03  0.72455665890E+03  0.80439613395E+03  0.17300000000E+03 0. -1.
<mgrwt>
<rscale>  2 0.34938630E+03</rscale>
<asrwt>0</asrwt>
<pdfrwt beam="1">  1       21 0.14344819E+00 0.34938630E+03</pdfrwt>
<pdfrwt beam="2">  1       21 0.34098614E-01 0.34938630E+03</pdfrwt>
<totfact> 0.25029574E+03</totfact>
</mgrwt>
</event>
<event>
 4    1  0.4327903E+000  0.1847339E+03  0.7546771E-02  0.1163299E+00
         21   -1    0    0  503  502  0.00000000000E+00  0.00000000000E+00  0.72437991584E+02  0.72437991584E+02  0.00000000000E+00 0.  1.
         21   -1    0    0  501  503 -0.00000000000E+00 -0.00000000000E+00 -0.49342350951E+03  0.49342350951E+03  0.00000000000E+00 0.  1.
          6    1    1    2  501    0  0.30954477412E+02  0.56916068653E+02 -0.27065254706E+03  0.32768799150E+03  0.17300000000E+03 0.  1.
         -6    1    1    2    0  502 -0.30954477412E+02 -0.56916068653E+02 -0.15033297086E+03  0.23817350959E+03  0.17300000000E+03 0.  1.
<mgrwt>
<rscale>  2 0.18473391E+03</rscale>
<asrwt>0</asrwt>
<pdfrwt beam="1">  1       21 0.11144307E-01 0.18473391E+03</pdfrwt>
<pdfrwt beam="2">  1       21 0.75911307E-01 0.18473391E+03</pdfrwt>
<totfact> 0.10394587E+05</totfact>
</mgrwt>
</event>
<event>
 4    1  0.4327903E+000  0.1763141E+03  0.7546771E-02  0.1171419E+00
         21   -1    0    0  503  502  0.00000000000E+00  0.00000000000E+00  0.34106131479E+03  0.34106131479E+03  0.00000000000E+00 0.  1.
         21   -1    0    0  501  503 -0.00000000000E+00 -0.00000000000E+00 -0.11438526747E+03  0.11438526747E+03  0.00000000000E+00 0.  1.
          6    1    1    2  501    0  0.23168367854E+02 -0.24917684702E+02  0.10695886422E+02  0.17663823557E+03  0.17300000000E+03 0.  1.
         -6    1    1    2    0  502 -0.23168367854E+02  0.24917684702E+02  0.21598016090E+03  0.27880834669E+03  0.17300000000E+03 0.  1.
<mgrwt>
<rscale>  2 0.17631411E+03</rscale>
<asrwt>0</asrwt>
<pdfrwt beam="1">  1       21 0.52470971E-01 0.17631411E+03</pdfrwt>
<pdfrwt beam="2">  1       21 0.17597734E-01 0.17631411E+03</pdfrwt>
<totfact> 0.10145993E+05</totfact>
</mgrwt>
</event>
<event>
 4    1  0.4327903E+000  0.1825992E+03  0.7546771E-02  0.1165311E+00
         21   -1    0    0  503  502  0.00000000000E+00  0.00000000000E+00  0.29074912738E+03  0.29074912738E+03  0.00000000000E+00 0. -1.
         21   -1    0    0  501  503 -0.00000000000E+00 -0.00000000000E+00 -0.15808469213E+03  0.15808469213E+03  0.00000000000E+00 0. -1.
          6    1    1    2  501    0  0.32723942936E+02  0.48400679029E+02 -0.51263040667E+02  0.18965859198E+03  0.17300000000E+03 0. -1.
         -6    1    1    2    0  502 -0.32723942936E+02 -0.48400679029E+02  0.18392747591E+03  0.25917522753E+03  0.17300000000E+03 0. -1.
<mgrwt>
<rscale>  2 0.18259924E+03</rscale>
<asrwt>0</asrwt>
<pdfrwt beam="1">  1       21 0.44730635E-01 0.18259924E+03</pdfrwt>
<pdfrwt beam="2">  1       21 0.24320722E-01 0.18259924E+03</pdfrwt>
<totfact> 0.76900287E+04</totfact>
</mgrwt>
</event>
<event>
 4    1  0.4327903E+000  0.2002897E+03  0.7546771E-02  0.1149495E+00
         21   -1    0    0  501  502  0.00000000000E+00  0.00000000000E+00  0.18318696238E+03  0.18318696238E+03  0.00000000000E+00 0.  1.
         21   -1    0    0  502  503 -0.00000000000E+00 -0.00000000000E+00 -0.50193097815E+03  0.50193097815E+03  0.00000000000E+00 0.  1.
          6    1    1    2  501    0  0.78117970250E+02  0.63910596294E+02  0.97822576532E+02  0.22290185749E+03  0.17300000000E+03 0.  1.
         -6    1    1    2    0  503 -0.78117970250E+02 -0.63910596294E+02 -0.41656659230E+03  0.46221608304E+03  0.17300000000E+03 0.  1.
<mgrwt>
<rscale>  2 0.20028974E+03</rscale>
<asrwt>0</asrwt>
<pdfrwt beam="1">  1       21 0.28182610E-01 0.20028974E+03</pdfrwt>
<pdfrwt beam="2">  1       21 0.77220150E-01 0.20028974E+03</pdfrwt>
<totfact> 0.17834282E+04</totfact>
</mgrwt>
</event>
<event>
 4    1  0.4327903E+000  0.1768688E+03  0.7546771E-02  0.1170868E+00
         21   -1    0    0  501  502  0.00000000000E+00  0.00000000000E+00  0.88296357107E+02  0.88296357107E+02  0.00000000000E+00 0.  1.
         21   -1    0    0  502  503 -0.00000000000E+00 -0.00000000000E+00 -0.35712203050E+03  0.35712203050E+03  0.00000000000E+00 0.  1.
          6    1    1    2  501    0 -0.30271451206E+02  0.20909898591E+02 -0.11458298321E+03  0.21074117932E+03  0.17300000000E+03 0. -1.
         -6    1    1    2    0  503  0.30271451206E+02 -0.20909898591E+02 -0.15424269018E+03  0.23467720829E+03  0.17300000000E+03 0. -1.
<mgrwt>
<rscale>  2 0.17686883E+03</rscale>
<asrwt>0</asrwt>
<pdfrwt beam="1">  1       21 0.13584055E-01 0.17686883E+03</pdfrwt>
<pdfrwt beam="2">  1       21 0.54941851E-01 0.17686883E+03</pdfrwt>
<totfact> 0.14756671E+05</totfact>
</mgrwt>
</event>
<event>
 4    1  0.4327903E+000  0.2023973E+03  0.7546771E-02  0.1147732E+00
         21   -1    0    0  501  502  0.00000000000E+00  0.00000000000E+00  0.32519891435E+02  0.32519891435E+02  0.00000000000E+00 0. -1.
         21   -1    0    0  502  503 -0.00000000000E+00 -0.00000000000E+00 -0.18148468802E+04  0.18148468802E+04  0.00000000000E+00 0.  1.
          6    1    1    2  501    0  0.98930094857E+02 -0.35334237632E+02 -0.38028840154E+03  0.43079454542E+03  0.17300000000E+03 0. -1.
         -6    1    1    2    0  503 -0.98930094857E+02  0.35334237632E+02 -0.14020385872E+04  0.14165722262E+04  0.17300000000E+03 0.  1.
<mgrwt>
<rscale>  2 0.20239731E+03</rscale>
<asrwt>0</asrwt>
<pdfrwt beam="1">  1       21 0.50030602E-02 0.20239731E+03</pdfrwt>
<pdfrwt beam="2">  1       21 0.27920721E+00 0.20239731E+03</pdfrwt>
<totfact> 0.11968646E+04</totfact>
</mgrwt>
</event>
<event>
 4    1  0.4327903E+000  0.1742868E+03  0.7546771E-02  0.1173450E+00
         21   -1    0    0  501  502  0.00000000000E+00  0.00000000000E+00  0.25594681698E+03  0.25594681698E+03  0.00000000000E+00 0. -1.
         21   -1    0    0  502  503 -0.00000000000E+00 -0.00000000000E+00 -0.26504266568E+03  0.26504266568E+03  0.00000000000E+00 0. -1.
          6    1    1    2  501    0  0.43204810379E+01  0.20693187957E+02  0.18902989978E+03  0.25711510573E+03  0.17300000000E+03 0. -1.
         -6    1    1    2    0  503 -0.43204810379E+01 -0.20693187957E+02 -0.19812574849E+03  0.26387437693E+03  0.17300000000E+03 0. -1.
<mgrwt>
<rscale>  2 0.17428676E+03</rscale>
<asrwt>0</asrwt>
<pdfrwt beam="1">  1       21 0.39376433E-01 0.17428676E+03</pdfrwt>
<pdfrwt beam="2">  1       21 0.40775795E-01 0.17428676E+03</pdfrwt>
<totfact> 0.36369733E+04</totfact>
</mgrwt>
</event>
<event>
 4    1  0.4327903E+000  0.2521678E+03  0.7546771E-02  0.1111942E+00
         21   -1    0    0  501  502  0.00000000000E+00  0.00000000000E+00  0.10770656299E+04  0.10770656299E+04  0.00000000000E+00 0. -1.
         21   -1    0    0  502  503 -0.00000000000E+00 -0.00000000000E+00 -0.59371426272E+02  0.59371426272E+02  0.00000000000E+00 0. -1.
          6    1    1    2  501    0  0.94948140946E+02 -0.15698547553E+03  0.46631181580E+03  0.53012762477E+03  0.17300000000E+03 0. -1.
         -6    1    1    2    0  503 -0.94948140946E+02  0.15698547553E+03  0.55138238787E+03  0.60630943143E+03  0.17300000000E+03 0. -1.
<mgrwt>
<rscale>  2 0.25216778E+03</rscale>
<asrwt>0</asrwt>
<pdfrwt beam="1">  1       21 0.16570239E+00 0.25216778E+03</pdfrwt>
<pdfrwt beam="2">  1       21 0.91340664E-02 0.25216778E+03</pdfrwt>
<totfact> 0.20990902E+04</totfact>
</mgrwt>
</event>
<event>
 4    1  0.4327903E+000  0.1804704E+03  0.7546771E-02  0.1167349E+00
         21   -1    0    0  501  502  0.00000000000E+00  0.00000000000E+00  0.97042839269E+02  0.97042839269E+02  0.00000000000E+00 0. -1.
         21   -1    0    0  502  503 -0.00000000000E+00 -0.00000000000E+00 -0.45764817654E+03  0.45764817654E+03  0.00000000000E+00 0. -1.
          6    1    1    2  501    0  0.17193540896E+02  0.48424833615E+02 -0.37089107690E+02  0.18424218917E+03  0.17300000000E+03 0.  1.
         -6    1    1    2    0  503 -0.17193540896E+02 -0.48424833615E+02 -0.32351622958E+03  0.37044882664E+03  0.17300000000E+03 0.  1.
<mgrwt>
<rscale>  2 0.18047045E+03</rscale>
<asrwt>0</asrwt>
<pdfrwt beam="1">  1       21 0.14929668E-01 0.18047045E+03</pdfrwt>
<pdfrwt beam="2">  1       21 0.70407412E-01 0.18047045E+03</pdfrwt>
<totfact> 0.72758000E+04</totfact>
</mgrwt>
</event>
<event>
 4    1  0.4327903E+000  0.1955843E+03  0.7546771E-02  0.1153519E+00
         21   -1    0    0  503  502  0.00000000000E+00  0.00000000000E+00  0.44654077489E+02  0.44654077489E+02  0.00000000000E+00 0.  1.
         21   -1    0    0  501  503 -0.00000000000E+00 -0.00000000000E+00 -0.94382045933E+03  0.94382045933E+03  0.00000000000E+00 0. -1.
          6    1    1    2  501    0  0.41904840349E+02 -0.81044404392E+02 -0.59977939978E+03  0.63086332872E+03  0.17300000000E+03 0. -1.
         -6    1    1    2    0  502 -0.41904840349E+02  0.81044404392E+02 -0.29938698206E+03  0.35761120810E+03  0.17300000000E+03 0.  1.
<mgrwt>
<rscale>  2 0.19558428E+03</rscale>
<asrwt>0</asrwt>
<pdfrwt beam="1">  1       21 0.68698583E-02 0.19558428E+03</pdfrwt>
<pdfrwt beam="2">  1       21 0.14520314E+00 0.19558428E+03</pdfrwt>
<totfact> 0.50772067E+04</totfact>
</mgrwt>
</event>
<event>
 4    1  0.4327903E+000  0.2485818E+03  0.7546771E-02  0.1114204E+00
         21   -1    0    0  503  502  0.00000000000E+00  0.00000000000E+00  0.10969395137E+03  0.10969395137E+03  0.00000000000E+00 0. -1.
         21   -1    0    0  501  503 -0.00000000000E+00 -0.00000000000E+00 -0.58773575214E+03  0.58773575214E+03  0.00000000000E+00 0.  1.
          6    1    1    2  501    0  0.67634645189E+02 -0.16519530761E+03 -0.31009366973E+03  0.39743052084E+03  0.17300000000E+03 0. -1.
         -6    1    1    2    0  502 -0.67634645189E+02  0.16519530761E+03 -0.16794813104E+03  0.29999918268E+03  0.17300000000E+03 0.  1.
<mgrwt>
<rscale>  2 0.24858185E+03</rscale>
<asrwt>0</asrwt>
<pdfrwt beam="1">  1       21 0.16875993E-01 0.24858185E+03</pdfrwt>
<pdfrwt beam="2">  1       21 0.90420882E-01 0.24858185E+03</pdfrwt>
<totfact> 0.31938702E+04</totfact>
</mgrwt>
</event>
<event>
 4    1  0.4327903E+000  0.2646853E+03  0.7546771E-02  0.1104360E+00
         21   -1    0    0  503  502  0.00000000000E+00  0.00000000000E+00  0.20154390213E+03  0.20154390213E+03  0.00000000000E+00 0. -1.
         21   -1    0    0  501  503 -0.00000000000E+00 -0.00000000000E+00 -0.52138017190E+03  0.52138017190E+03  0.00000000000E+00 0.  1.
          6    1    1    2  501    0  0.18252426164E+03  0.82548319058E+02  0.48759155625E+02  0.26913897214E+03  0.17300000000E+03 0. -1.
         -6    1    1    2    0  502 -0.18252426164E+03 -0.82548319058E+02 -0.36859542540E+03  0.45378510189E+03  0.17300000000E+03 0.  1.
<mgrwt>
<rscale>  2 0.26468534E+03</rscale>
<asrwt>0</asrwt>
<pdfrwt beam="1">  1       21 0.31006754E-01 0.26468534E+03</pdfrwt>
<pdfrwt beam="2">  1       21 0.80212334E-01 0.26468534E+03</pdfrwt>
<totfact> 0.13100276E+04</totfact>
</mgrwt>
</event>
<event>
 4    1  0.4327903E+000  0.1802770E+03  0.7546771E-02  0.1167535E+00
         21   -1    0    0  503  502  0.00000000000E+00  0.00000000000E+00  0.84645701827E+02  0.84645701827E+02  0.00000000000E+00 0. -1.
         21   -1    0    0  501  503 -0.00000000000E+00 -0.00000000000E+00 -0.47566465859E+03  0.47566465859E+03  0.00000000000E+00 0. -1.
          6    1    1    2  501    0  0.50457595572E+02  0.49843590893E+01 -0.31852641794E+03  0.36600395040E+03  0.17300000000E+03 0. -1.
         -6    1    1    2    0  502 -0.50457595572E+02 -0.49843590893E+01 -0.72492538823E+02  0.19430641001E+03  0.17300000000E+03 0. -1.
<mgrwt>
<rscale>  2 0.18027704E+03</rscale>
<asrwt>0</asrwt>
<pdfrwt beam="1">  1       21 0.13022416E-01 0.18027704E+03</pdfrwt>
<pdfrwt beam="2">  1       21 0.73179176E-01 0.18027704E+03</pdfrwt>
<totfact> 0.85533644E+04</totfact>
</mgrwt>
</event>
<event>
 4    1  0.4327903E+000  0.1736927E+03  0.7546771E-02  0.1174051E+00
         21   -1    0    0  501  502  0.00000000000E+00  0.00000000000E+00  0.84400005839E+03  0.84400005839E+03  0.00000000000E+00 0.  1.
         21   -1    0    0  502  503 -0.00000000000E+00 -0.00000000000E+00 -0.46330414149E+02  0.46330414149E+02  0.00000000000E+00 0.  1.
          6    1    1    2  501    0  0.12877530621E+02 -0.86203896243E+01  0.61161606053E+03  0.63580134272E+03  0.17300000000E+03 0. -1.
         -6    1    1    2    0  503 -0.12877530621E+02  0.86203896243E+01  0.18605358371E+03  0.25452912981E+03  0.17300000000E+03 0. -1.
<mgrwt>
<rscale>  2 0.17369267E+03</rscale>
<asrwt>0</asrwt>
<pdfrwt beam="1">  1       21 0.12984615E+00 0.17369267E+03</pdfrwt>
<pdfrwt beam="2">  1       21 0.71277566E-02 0.17369267E+03</pdfrwt>
<totfact> 0.64177261E+04</totfact>
</mgrwt>
</event>
<event>
 4    1  0.4327903E+000  0.1935904E+03  0.7546771E-02  0.1155262E+00
         21   -1    0    0  501  502  0.00000000000E+00  0.00000000000E+00  0.35237619065E+03  0.35237619065E+03  0.00000000000E+00 0.  1.
         21   -1    0    0  502  503 -0.00000000000E+00 -0.00000000000E+00 -0.16438055933E+03  0.16438055933E+03  0.00000000000E+00 0.  1.
          6    1    1    2  501    0  0.37043130917E+02  0.78587884944E+02  0.24750815634E+03  0.31422529602E+03  0.17300000000E+03 0.  1.
         -6    1    1    2    0  503 -0.37043130917E+02 -0.78587884944E+02 -0.59512525017E+02  0.20253145396E+03  0.17300000000E+03 0.  1.
<mgrwt>
<rscale>  2 0.19359042E+03</rscale>
<asrwt>0</asrwt>
<pdfrwt beam="1">  1       21 0.54211721E-01 0.19359042E+03</pdfrwt>
<pdfrwt beam="2">  1       21 0.25289317E-01 0.19359042E+03</pdfrwt>
<totfact> 0.47631223E+04</totfact>
</mgrwt>
</event>
<event>
 4    1  0.4327903E+000  0.2120420E+03  0.7546771E-02  0.1139959E+00
         21   -1    0    0  501  502  0.00000000000E+00  0.00000000000E+00  0.32775649002E+03  0.32775649002E+03  0.00000000000E+00 0. -1.
         21   -1    0    0  502  503 -0.00000000000E+00 -0.00000000000E+00 -0.14735479989E+03  0.14735479989E+03  0.00000000000E+00 0.  1.
          6    1    1    2  501    0  0.12095226341E+03  0.20083888927E+02  0.15262240296E+03  0.26125736450E+03  0.17300000000E+03 0.  1.
         -6    1    1    2    0  503 -0.12095226341E+03 -0.20083888927E+02  0.27779287169E+02  0.21385392541E+03  0.17300000000E+03 0.  1.
<mgrwt>
<rscale>  2 0.21204201E+03</rscale>
<asrwt>0</asrwt>
<pdfrwt beam="1">  1       21 0.50424075E-01 0.21204201E+03</pdfrwt>
<pdfrwt beam="2">  1       21 0.22669969E-01 0.21204201E+03</pdfrwt>
<totfact> 0.67701104E+04</totfact>
</mgrwt>
</event>
<event>
 4    1  0.4327903E+000  0.2126677E+03  0.7546771E-02  0.1139471E+00
         21   -1    0    0  501  502  0.00000000000E+00  0.00000000000E+00  0.27233046830E+03  0.27233046830E+03  0.00000000000E+00 0. -1.
         21   -1    0    0  502  503 -0.00000000000E+00 -0.00000000000E+00 -0.18850824750E+03  0.18850824750E+03  0.00000000000E+00 0. -1.
          6    1    1    2  501    0 -0.43917971710E+02 -0.11562763298E+03  0.12139713671E+03  0.24487711724E+03  0.17300000000E+03 0.  1.
         -6    1    1    2    0  503  0.43917971710E+02  0.11562763298E+03 -0.37574915904E+02  0.21596159856E+03  0.17300000000E+03 0.  1.
<mgrwt>
<rscale>  2 0.21266767E+03</rscale>
<asrwt>0</asrwt>
<pdfrwt beam="1">  1       21 0.41896995E-01 0.21266767E+03</pdfrwt>
<pdfrwt beam="2">  1       21 0.29001269E-01 0.21266767E+03</pdfrwt>
<totfact> 0.61846152E+04</totfact>
</mgrwt>
</event>
<event>
 4    1  0.4327903E+000  0.2388790E+03  0.7546771E-02  0.1120542E+00
         21   -1    0    0  501  502  0.00000000000E+00  0.00000000000E+00  0.61357898494E+03  0.61357898494E+03  0.00000000000E+00 0.  1.
         21   -1    0    0  502  503 -0.00000000000E+00 -0.00000000000E+00 -0.19533778779E+03  0.19533778779E+03  0.00000000000E+00 0.  1.
          6    1    1    2  501    0  0.16289929685E+03  0.24453827678E+02  0.50187106844E+03  0.55582167998E+03  0.17300000000E+03 0.  1.
         -6    1    1    2    0  503 -0.16289929685E+03 -0.24453827678E+02 -0.83629871284E+02  0.25309509275E+03  0.17300000000E+03 0.  1.
<mgrwt>
<rscale>  2 0.23887899E+03</rscale>
<asrwt>0</asrwt>
<pdfrwt beam="1">  1       21 0.94396766E-01 0.23887899E+03</pdfrwt>
<pdfrwt beam="2">  1       21 0.30051968E-01 0.23887899E+03</pdfrwt>
<totfact> 0.96881373E+03</totfact>
</mgrwt>
</event>
<event>
 4    1  0.4327903E+000  0.2730250E+03  0.7546771E-02  0.1099561E+00
         21   -1    0    0  501  502  0.00000000000E+00  0.00000000000E+00  0.19105903478E+04  0.19105903478E+04  0.00000000000E+00 0. -1.
         21   -1    0    0  502  503 -0.00000000000E+00 -0.00000000000E+00 -0.37375263428E+03  0.37375263428E+03  0.00000000000E+00 0.  1.
          6    1    1    2  501    0 -0.20664257196E+03  0.43731941371E+02  0.18493328332E+04  0.18693781221E+04  0.17300000000E+03 0. -1.
         -6    1    1    2    0  503  0.20664257196E+03 -0.43731941371E+02 -0.31249511967E+03  0.41496486003E+03  0.17300000000E+03 0.  1.
<mgrwt>
<rscale>  2 0.27302497E+03</rscale>
<asrwt>0</asrwt>
<pdfrwt beam="1">  1       21 0.29393697E+00 0.27302497E+03</pdfrwt>
<pdfrwt beam="2">  1       21 0.57500407E-01 0.27302497E+03</pdfrwt>
<totfact> 0.94089474E+01</totfact>
</mgrwt>
</event>
<event>
 4    1  0.4327903E+000  0.2280140E+03  0.7546771E-02  0.1128045E+00
         21   -1    0    0  503  502  0.00000000000E+00  0.00000000000E+00  0.22765106439E+02  0.22765106439E+02  0.00000000000E+00 0.  1.
         21   -1    0    0  501  503 -0.00000000000E+00 -0.00000000000E+00 -0.22840242363E+04  0.22840242363E+04  0.00000000000E+00 0. -1.
          6    1    1    2  501    0  0.11816939776E+03  0.89985531210E+02 -0.11426552891E+04  0.11651830380E+04  0.17300000000E+03 0. -1.
         -6    1    1    2    0  502 -0.11816939776E+03 -0.89985531210E+02 -0.11186038408E+04  0.11416063047E+04  0.17300000000E+03 0. -1.
<mgrwt>
<rscale>  2 0.22801404E+03</rscale>
<asrwt>0</asrwt>
<pdfrwt beam="1">  1       21 0.35023225E-02 0.22801404E+03</pdfrwt>
<pdfrwt beam="2">  1       21 0.35138850E+00 0.22801404E+03</pdfrwt>
<totfact> 0.80657941E+03</totfact>
</mgrwt>
</event>
<event>
 4    1  0.4327903E+000  0.1978831E+03  0.7546771E-02  0.1151537E+00
         21   -1    0    0  501  502  0.00000000000E+00  0.00000000000E+00  0.16679754626E+03  0.16679754626E+03  0.00000000000E+00 0. -1.
         21   -1    0    0  502  503 -0.00000000000E+00 -0.00000000000E+00 -0.44326832874E+03  0.44326832874E+03  0.00000000000E+00 0. -1.
          6    1    1    2  501    0  0.95641902724E+02 -0.90187845816E+01  0.70970105472E+02  0.21022480325E+03  0.17300000000E+03 0. -1.
         -6    1    1    2    0  503 -0.95641902724E+02  0.90187845816E+01 -0.34744088796E+03  0.39984107175E+03  0.17300000000E+03 0. -1.
<mgrwt>
<rscale>  2 0.19788308E+03</rscale>
<asrwt>0</asrwt>
<pdfrwt beam="1">  1       21 0.25661161E-01 0.19788308E+03</pdfrwt>
<pdfrwt beam="2">  1       21 0.68195127E-01 0.19788308E+03</pdfrwt>
<totfact> 0.28195565E+04</totfact>
</mgrwt>
</event>
<event>
 4    1  0.4327903E+000  0.2122259E+03  0.7546771E-02  0.1139815E+00
         21   -1    0    0  501  502  0.00000000000E+00  0.00000000000E+00  0.10677207002E+04  0.10677207002E+04  0.00000000000E+00 0. -1.
         21   -1    0    0  502  503 -0.00000000000E+00 -0.00000000000E+00 -0.12728631819E+03  0.12728631819E+03  0.00000000000E+00 0. -1.
          6    1    1    2  501    0 -0.12026320513E+03 -0.25447634778E+02  0.95878232022E+03  0.98198948986E+03  0.17300000000E+03 0. -1.
         -6    1    1    2    0  503  0.12026320513E+03  0.25447634778E+02 -0.18347938206E+02  0.21301752853E+03  0.17300000000E+03 0. -1.
<mgrwt>
<rscale>  2 0.21222587E+03</rscale>
<asrwt>0</asrwt>
<pdfrwt beam="1">  1       21 0.16426472E+00 0.21222587E+03</pdfrwt>
<pdfrwt beam="2">  1       21 0.19582511E-01 0.21222587E+03</pdfrwt>
<totfact> 0.55367492E+03</totfact>
</mgrwt>
</event>
<event>
 4    1  0.4327903E+000  0.1916520E+03  0.7546771E-02  0.1156980E+00
         21   -1    0    0  503  502  0.00000000000E+00  0.00000000000E+00  0.67752160873E+02  0.67752160873E+02  0.00000000000E+00 0. -1.
         21   -1    0    0  501  503 -0.00000000000E+00 -0.00000000000E+00 -0.61913341410E+03  0.61913341410E+03  0.00000000000E+00 0. -1.
          6    1    1    2  501    0  0.65685643936E+02  0.49868859764E+02 -0.39681069378E+03  0.44066907504E+03  0.17300000000E+03 0. -1.
         -6    1    1    2    0  502 -0.65685643936E+02 -0.49868859764E+02 -0.15457055944E+03  0.24621649993E+03  0.17300000000E+03 0. -1.
<mgrwt>
<rscale>  2 0.19165205E+03</rscale>
<asrwt>0</asrwt>
<pdfrwt beam="1">  1       21 0.10423410E-01 0.19165205E+03</pdfrwt>
<pdfrwt beam="2">  1       21 0.95251292E-01 0.19165205E+03</pdfrwt>
<totfact> 0.69454828E+04</totfact>
</mgrwt>
</event>
<event>
 4    1  0.4327903E+000  0.1781334E+03  0.7546771E-02  0.1169622E+00
         21   -1    0    0  503  502  0.00000000000E+00  0.00000000000E+00  0.14056387177E+04  0.14056387177E+04  0.00000000000E+00 0. -1.
         21   -1    0    0  501  503 -0.00000000000E+00 -0.00000000000E+00 -0.40530148348E+02  0.40530148348E+02  0.00000000000E+00 0. -1.
          6    1    1    2  501    0 -0.49677218178E+00  0.42452888890E+02  0.11638381391E+04  0.11773914848E+04  0.17300000000E+03 0. -1.
         -6    1    1    2    0  502  0.49677218178E+00 -0.42452888890E+02  0.20127043028E+03  0.26877738123E+03  0.17300000000E+03 0. -1.
<mgrwt>
<rscale>  2 0.17813336E+03</rscale>
<asrwt>0</asrwt>
<pdfrwt beam="1">  1       21 0.21625207E+00 0.17813336E+03</pdfrwt>
<pdfrwt beam="2">  1       21 0.62354085E-02 0.17813336E+03</pdfrwt>
<totfact> 0.19816559E+04</totfact>
</mgrwt>
</event>
<event>
 4    1  0.4327903E+000  0.2205042E+03  0.7546771E-02  0.1133508E+00
         21   -1    0    0  501  502  0.00000000000E+00  0.00000000000E+00  0.41452839091E+03  0.41452839091E+03  0.00000000000E+00 0. -1.
         21   -1    0    0  502  503 -0.00000000000E+00 -0.00000000000E+00 -0.12822010850E+03  0.12822010850E+03  0.00000000000E+00 0.  1.
          6    1    1    2  501    0  0.10804606556E+03  0.83780477436E+02  0.22236830068E+03  0.31316095196E+03  0.17300000000E+03 0. -1.
         -6    1    1    2    0  503 -0.10804606556E+03 -0.83780477436E+02  0.63939981733E+02  0.22958754745E+03  0.17300000000E+03 0.  1.
<mgrwt>
<rscale>  2 0.22050424E+03</rscale>
<asrwt>0</asrwt>
<pdfrwt beam="1">  1       21 0.63773598E-01 0.22050424E+03</pdfrwt>
<pdfrwt beam="2">  1       21 0.19726171E-01 0.22050424E+03</pdfrwt>
<totfact> 0.53101338E+04</totfact>
</mgrwt>
</event>
<event>
 4    1  0.4327903E+000  0.2007346E+03  0.7546771E-02  0.1149121E+00
         21   -1    0    0  503  502  0.00000000000E+00  0.00000000000E+00  0.72692260875E+02  0.72692260875E+02  0.00000000000E+00 0.  1.
         21   -1    0    0  501  503 -0.00000000000E+00 -0.00000000000E+00 -0.99320621715E+03  0.99320621715E+03  0.00000000000E+00 0.  1.
          6    1    1    2  501    0 -0.74325088193E+02 -0.69578519621E+02 -0.81453541743E+03  0.83890543887E+03  0.17300000000E+03 0.  1.
         -6    1    1    2    0  502  0.74325088193E+02  0.69578519621E+02 -0.10597853885E+03  0.22699303915E+03  0.17300000000E+03 0.  1.
<mgrwt>
<rscale>  2 0.20073462E+03</rscale>
<asrwt>0</asrwt>
<pdfrwt beam="1">  1       21 0.11183425E-01 0.20073462E+03</pdfrwt>
<pdfrwt beam="2">  1       21 0.15280095E+00 0.20073462E+03</pdfrwt>
<totfact> 0.18838206E+04</totfact>
</mgrwt>
</event>
<event>
 4    1  0.4327903E+000  0.2122798E+03  0.7546771E-02  0.1139773E+00
         21   -1    0    0  503  502  0.00000000000E+00  0.00000000000E+00  0.33223286749E+02  0.33223286749E+02  0.00000000000E+00 0.  1.
         21   -1    0    0  501  503 -0.00000000000E+00 -0.00000000000E+00 -0.14435644605E+04  0.14435644605E+04  0.00000000000E+00 0.  1.
          6    1    1    2  501    0 -0.28523418765E+02  0.11966665828E+03 -0.88665634244E+03  0.91171386087E+03  0.17300000000E+03 0.  1.
         -6    1    1    2    0  502  0.28523418765E+02 -0.11966665828E+03 -0.52368483136E+03  0.56507388642E+03  0.17300000000E+03 0.  1.
<mgrwt>
<rscale>  2 0.21227976E+03</rscale>
<asrwt>0</asrwt>
<pdfrwt beam="1">  1       21 0.51112751E-02 0.21227976E+03</pdfrwt>
<pdfrwt beam="2">  1       21 0.22208683E+00 0.21227976E+03</pdfrwt>
<totfact> 0.24935389E+04</totfact>
</mgrwt>
</event>
<event>
 4    1  0.4327903E+000  0.2480432E+03  0.7546771E-02  0.1114548E+00
         21   -1    0    0  503  502  0.00000000000E+00  0.00000000000E+00  0.96048325949E+03  0.96048325949E+03  0.00000000000E+00 0.  1.
         21   -1    0    0  501  503 -0.00000000000E+00 -0.00000000000E+00 -0.69636933213E+02  0.69636933213E+02  0.00000000000E+00 0. -1.
          6    1    1    2  501    0 -0.11830355333E+03  0.13266761764E+03  0.29962143848E+03  0.38897099365E+03  0.17300000000E+03 0. -1.
         -6    1    1    2    0  502  0.11830355333E+03 -0.13266761764E+03  0.59122488780E+03  0.64114919906E+03  0.17300000000E+03 0.  1.
<mgrwt>
<rscale>  2 0.24804320E+03</rscale>
<asrwt>0</asrwt>
<pdfrwt beam="1">  1       21 0.14776665E+00 0.24804320E+03</pdfrwt>
<pdfrwt beam="2">  1       21 0.10713375E-01 0.24804320E+03</pdfrwt>
<totfact> 0.21597454E+04</totfact>
</mgrwt>
</event>
<event>
 4    1  0.4327903E+000  0.1826077E+03  0.7546771E-02  0.1165303E+00
         21   -1    0    0  503  502  0.00000000000E+00  0.00000000000E+00  0.12444828598E+03  0.12444828598E+03  0.00000000000E+00 0.  1.
         21   -1    0    0  501  503 -0.00000000000E+00 -0.00000000000E+00 -0.28115432733E+03  0.28115432733E+03  0.00000000000E+00 0.  1.
          6    1    1    2  501    0 -0.53898207966E+02 -0.22617949428E+02 -0.12230718997E+03  0.21978315945E+03  0.17300000000E+03 0.  1.
         -6    1    1    2    0  502  0.53898207966E+02  0.22617949428E+02 -0.34398851376E+02  0.18581945386E+03  0.17300000000E+03 0.  1.
<mgrwt>
<rscale>  2 0.18260774E+03</rscale>
<asrwt>0</asrwt>
<pdfrwt beam="1">  1       21 0.19145890E-01 0.18260774E+03</pdfrwt>
<pdfrwt beam="2">  1       21 0.43254512E-01 0.18260774E+03</pdfrwt>
<totfact> 0.12910974E+05</totfact>
</mgrwt>
</event>
<event>
 4    1  0.4327903E+000  0.2371525E+03  0.7546771E-02  0.1121704E+00
         21   -1    0    0  503  502  0.00000000000E+00  0.00000000000E+00  0.63087697592E+02  0.63087697592E+02  0.00000000000E+00 0.  1.
         21   -1    0    0  501  503 -0.00000000000E+00 -0.00000000000E+00 -0.10420115417E+04  0.10420115417E+04  0.00000000000E+00 0. -1.
          6    1    1    2  501    0 -0.28107774080E+02 -0.15975693775E+03 -0.69947722246E+03  0.73858629209E+03  0.17300000000E+03 0. -1.
         -6    1    1    2    0  502  0.28107774080E+02  0.15975693775E+03 -0.27944662168E+03  0.36651294724E+03  0.17300000000E+03 0.  1.
<mgrwt>
<rscale>  2 0.23715254E+03</rscale>
<asrwt>0</asrwt>
<pdfrwt beam="1">  1       21 0.97058003E-02 0.23715254E+03</pdfrwt>
<pdfrwt beam="2">  1       21 0.16030946E+00 0.23715254E+03</pdfrwt>
<totfact> 0.20816160E+04</totfact>
</mgrwt>
</event>
<event>
 4    1  0.4327903E+000  0.2595715E+03  0.7546771E-02  0.1107401E+00
         21   -1    0    0  503  502  0.00000000000E+00  0.00000000000E+00  0.47713908170E+03  0.47713908170E+03  0.00000000000E+00 0.  1.
         21   -1    0    0  501  503 -0.00000000000E+00 -0.00000000000E+00 -0.18317823172E+03  0.18317823172E+03  0.00000000000E+00 0.  1.
          6    1    1    2  501    0 -0.59251763501E+01  0.19342506471E+03 -0.11049774929E+02  0.25980658363E+03  0.17300000000E+03 0.  1.
         -6    1    1    2    0  502  0.59251763501E+01 -0.19342506471E+03  0.30501062491E+03  0.40051072979E+03  0.17300000000E+03 0.  1.
<mgrwt>
<rscale>  2 0.25957150E+03</rscale>
<asrwt>0</asrwt>
<pdfrwt beam="1">  1       21 0.73406012E-01 0.25957150E+03</pdfrwt>
<pdfrwt beam="2">  1       21 0.28181266E-01 0.25957150E+03</pdfrwt>
<totfact> 0.19353262E+04</totfact>
</mgrwt>
</event>
<event>
 4    1  0.4327903E+000  0.1987296E+03  0.7546771E-02  0.1150815E+00
         21   -1    0    0  501  502  0.00000000000E+00  0.00000000000E+00  0.44417088230E+02  0.44417088230E+02  0.00000000000E+00 0. -1.
         21   -1    0    0  502  503 -0.00000000000E+00 -0.00000000000E+00 -0.11336028357E+04  0.11336028357E+04  0.00000000000E+00 0.  1.
          6    1    1    2  501    0 -0.93888421060E+02  0.27375746727E+02 -0.27107264202E+03  0.33611581988E+03  0.17300000000E+03 0. -1.
         -6    1    1    2    0  503  0.93888421060E+02 -0.27375746727E+02 -0.81811310547E+03  0.84190410408E+03  0.17300000000E+03 0.  1.
<mgrwt>
<rscale>  2 0.19872963E+03</rscale>
<asrwt>0</asrwt>
<pdfrwt beam="1">  1       21 0.68333978E-02 0.19872963E+03</pdfrwt>
<pdfrwt beam="2">  1       21 0.17440045E+00 0.19872963E+03</pdfrwt>
<totfact> 0.31225081E+04</totfact>
</mgrwt>
</event>
<event>
 4    1  0.4327903E+000  0.1746606E+03  0.7546771E-02  0.1173073E+00
         21   -1    0    0  501  502  0.00000000000E+00  0.00000000000E+00  0.30588093129E+03  0.30588093129E+03  0.00000000000E+00 0. -1.
         21   -1    0    0  502  503 -0.00000000000E+00 -0.00000000000E+00 -0.22983148763E+03  0.22983148763E+03  0.00000000000E+00 0. -1.
          6    1    1    2  501    0  0.14385171700E+02 -0.19245566164E+02  0.23955189498E+03  0.29646489737E+03  0.17300000000E+03 0. -1.
         -6    1    1    2    0  503 -0.14385171700E+02  0.19245566164E+02 -0.16350245132E+03  0.23924752155E+03  0.17300000000E+03 0. -1.
<mgrwt>
<rscale>  2 0.17466060E+03</rscale>
<asrwt>0</asrwt>
<pdfrwt beam="1">  1       21 0.47058605E-01 0.17466060E+03</pdfrwt>
<pdfrwt beam="2">  1       21 0.35358690E-01 0.17466060E+03</pdfrwt>
<totfact> 0.33645444E+04</totfact>
</mgrwt>
</event>
<event>
 4    1  0.4327903E+000  0.2514198E+03  0.7546771E-02  0.1112411E+00
         21   -1    0    0  503  502  0.00000000000E+00  0.00000000000E+00  0.18893094353E+03  0.18893094353E+03  0.00000000000E+00 0.  1.
         21   -1    0    0  501  503 -0.00000000000E+00 -0.00000000000E+00 -0.53787974190E+03  0.53787974190E+03  0.00000000000E+00 0. -1.
          6    1    1    2  501    0 -0.17717097400E+03 -0.43513023295E+02  0.48944750488E+02  0.25613966078E+03  0.17300000000E+03 0.  1.
         -6    1    1    2    0  502  0.17717097400E+03  0.43513023295E+02 -0.39789354886E+03  0.47067102465E+03  0.17300000000E+03 0. -1.
<mgrwt>
<rscale>  2 0.25141984E+03</rscale>
<asrwt>0</asrwt>
<pdfrwt beam="1">  1       21 0.29066299E-01 0.25141984E+03</pdfrwt>
<pdfrwt beam="2">  1       21 0.82750729E-01 0.25141984E+03</pdfrwt>
<totfact> 0.13943177E+04</totfact>
</mgrwt>
</event>
<event>
 4    1  0.4327903E+000  0.2004139E+03  0.7546771E-02  0.1149390E+00
         21   -1    0    0  501  502  0.00000000000E+00  0.00000000000E+00  0.26175094384E+03  0.26175094384E+03  0.00000000000E+00 0. -1.
         21   -1    0    0  502  503 -0.00000000000E+00 -0.00000000000E+00 -0.17792424052E+03  0.17792424052E+03  0.00000000000E+00 0. -1.
          6    1    1    2  501    0 -0.82339250453E+02 -0.58795990119E+02  0.12344715705E+03  0.23538249978E+03  0.17300000000E+03 0. -1.
         -6    1    1    2    0  503  0.82339250453E+02  0.58795990119E+02 -0.39620453722E+02  0.20429268458E+03  0.17300000000E+03 0. -1.
<mgrwt>
<rscale>  2 0.20041387E+03</rscale>
<asrwt>0</asrwt>
<pdfrwt beam="1">  1       21 0.40269376E-01 0.20041387E+03</pdfrwt>
<pdfrwt beam="2">  1       21 0.27372960E-01 0.20041387E+03</pdfrwt>
<totfact> 0.75379808E+04</totfact>
</mgrwt>
</event>
<event>
 4    1  0.4327903E+000  0.2136927E+03  0.7546771E-02  0.1138675E+00
         21   -1    0    0  503  502  0.00000000000E+00  0.00000000000E+00  0.35792058209E+03  0.35792058209E+03  0.00000000000E+00 0. -1.
         21   -1    0    0  501  503 -0.00000000000E+00 -0.00000000000E+00 -0.12776602336E+03  0.12776602336E+03  0.00000000000E+00 0. -1.
          6    1    1    2  501    0 -0.12537854910E+03 -0.39739042682E+01  0.12426910947E+03  0.24719907779E+03  0.17300000000E+03 0. -1.
         -6    1    1    2    0  502  0.12537854910E+03  0.39739042682E+01  0.10588544925E+03  0.23848752767E+03  0.17300000000E+03 0. -1.
<mgrwt>
<rscale>  2 0.21369271E+03</rscale>
<asrwt>0</asrwt>
<pdfrwt beam="1">  1       21 0.55064705E-01 0.21369271E+03</pdfrwt>
<pdfrwt beam="2">  1       21 0.19656311E-01 0.21369271E+03</pdfrwt>
<totfact> 0.73504585E+04</totfact>
</mgrwt>
</event>
<event>
 4    1  0.4327903E+000  0.2421168E+03  0.7546771E-02  0.1118391E+00
         21   -1    0    0  503  502  0.00000000000E+00  0.00000000000E+00  0.25727963798E+03  0.25727963798E+03  0.00000000000E+00 0.  1.
         21   -1    0    0  501  503 -0.00000000000E+00 -0.00000000000E+00 -0.53199830829E+03  0.53199830829E+03  0.00000000000E+00 0. -1.
          6    1    1    2  501    0 -0.72754008519E+02  0.15296540323E+03 -0.43575274597E+03  0.49849876225E+03  0.17300000000E+03 0. -1.
         -6    1    1    2    0  502  0.72754008519E+02 -0.15296540323E+03  0.16103407566E+03  0.29077918403E+03  0.17300000000E+03 0.  1.
<mgrwt>
<rscale>  2 0.24211683E+03</rscale>
<asrwt>0</asrwt>
<pdfrwt beam="1">  1       21 0.39581483E-01 0.24211683E+03</pdfrwt>
<pdfrwt beam="2">  1       21 0.81845893E-01 0.24211683E+03</pdfrwt>
<totfact> 0.77750158E+03</totfact>
</mgrwt>
</event>
<event>
 4    1  0.4327903E+000  0.1997564E+03  0.7546771E-02  0.1149945E+00
         21   -1    0    0  501  502  0.00000000000E+00  0.00000000000E+00  0.51749092870E+03  0.51749092870E+03  0.00000000000E+00 0.  1.
         21   -1    0    0  502  503 -0.00000000000E+00 -0.00000000000E+00 -0.78808243642E+02  0.78808243642E+02  0.00000000000E+00 0.  1.
          6    1    1    2  501    0 -0.79916330125E+02  0.59891448088E+02  0.26313638799E+03  0.33036852765E+03  0.17300000000E+03 0.  1.
         -6    1    1    2    0  503  0.79916330125E+02 -0.59891448088E+02  0.17554629707E+03  0.26593064470E+03  0.17300000000E+03 0.  1.
<mgrwt>
<rscale>  2 0.19975637E+03</rscale>
<asrwt>0</asrwt>
<pdfrwt beam="1">  1       21 0.79613987E-01 0.19975637E+03</pdfrwt>
<pdfrwt beam="2">  1       21 0.12124345E-01 0.19975637E+03</pdfrwt>
<totfact> 0.79851169E+04</totfact>
</mgrwt>
</event>
<event>
 4    1  0.4327903E+000  0.2036442E+03  0.7546771E-02  0.1146700E+00
         21   -1    0    0  503  502  0.00000000000E+00  0.00000000000E+00  0.95924134767E+03  0.95924134767E+03  0.00000000000E+00 0. -1.
         21   -1    0    0  501  503 -0.00000000000E+00 -0.00000000000E+00 -0.63808361055E+02  0.63808361055E+02  0.00000000000E+00 0. -1.
          6    1    1    2  501    0 -0.10645747421E+03 -0.14448237066E+02  0.15724670259E+03  0.25728869164E+03  0.17300000000E+03 0. -1.
         -6    1    1    2    0  502  0.10645747421E+03  0.14448237066E+02  0.73818628402E+03  0.76576101708E+03  0.17300000000E+03 0. -1.
<mgrwt>
<rscale>  2 0.20364416E+03</rscale>
<asrwt>0</asrwt>
<pdfrwt beam="1">  1       21 0.14757558E+00 0.20364416E+03</pdfrwt>
<pdfrwt beam="2">  1       21 0.98166716E-02 0.20364416E+03</pdfrwt>
<totfact> 0.25972267E+04</totfact>
</mgrwt>
</event>
