<event>
 4    1  0.4594485E+006  0.2189559E+02  0.7546771E-02  0.1710064E+00
         21   -1    0    0  503  501  0.00000000000E+00  0.00000000000E+00  0.55818498227E+02  0.55818498227E+02  0.00000000000E+00 0. -1.
         21   -1    0    0  504  502 -0.00000000000E+00 -0.00000000000E+00 -0.22167466600E+02  0.22167466600E+02  0.00000000000E+00 0.  1.
         21    1    1    2  503  502 -0.16668447952E+02  0.14197876978E+02 -0.13692489184E+02  0.25824428897E+02  0.00000000000E+00 0.  1.
         21    1    1    2  504  501  0.16668447952E+02 -0.14197876978E+02  0.47343520811E+02  0.52161535930E+02  0.00000000000E+00 0. -1.
<mgrwt>
<rscale>  2 0.21895590E+02</rscale>
<asrwt>0</asrwt>
<pdfrwt beam="1">  1       21 0.85874612E-02 0.21895590E+02</pdfrwt>
<pdfrwt beam="2">  1       21 0.34103795E-02 0.21895590E+02</pdfrwt>
<totfact> 0.38706010E+07</totfact>
</mgrwt>
</event>
<event>
 4    1  0.4594485E+006  0.6031564E+02  0.7546771E-02  0.1396512E+00
         21   -1    0    0  502  501  0.00000000000E+00  0.00000000000E+00  0.96433049548E+03  0.96433049548E+03  0.00000000000E+00 0. -1.
         21   -1    0    0  504  502 -0.00000000000E+00 -0.00000000000E+00 -0.89805817214E+01  0.89805817214E+01  0.00000000000E+00 0. -1.
         21    1    1    2  503  501  0.50545211215E+02 -0.32911359432E+02  0.84827600027E+03  0.85041763187E+03  0.00000000000E+00 0. -1.
         21    1    1    2  504  503 -0.50545211215E+02  0.32911359432E+02  0.10707391349E+03  0.12289344534E+03  0.00000000000E+00 0. -1.
<mgrwt>
<rscale>  2 0.60315636E+02</rscale>
<asrwt>0</asrwt>
<pdfrwt beam="1">  1       21 0.14835846E+00 0.60315636E+02</pdfrwt>
<pdfrwt beam="2">  1       21 0.13816287E-02 0.60315636E+02</pdfrwt>
<totfact> 0.70599504E+05</totfact>
</mgrwt>
</event>
<event>
 4    1  0.4594485E+006  0.2210705E+02  0.7546771E-02  0.1706407E+00
         21   -1    0    0  502  501  0.00000000000E+00  0.00000000000E+00  0.15128094382E+02  0.15128094382E+02  0.00000000000E+00 0.  1.
         21   -1    0    0  504  502 -0.00000000000E+00 -0.00000000000E+00 -0.39120671416E+02  0.39120671416E+02  0.00000000000E+00 0.  1.
         21    1    1    2  503  501  0.21595550037E+02  0.47279892665E+01 -0.67507504899E+00  0.22117354956E+02  0.00000000000E+00 0.  1.
         21    1    1    2  504  503 -0.21595550037E+02 -0.47279892665E+01 -0.23317501985E+02  0.32131410842E+02  0.00000000000E+00 0.  1.
<mgrwt>
<rscale>  2 0.22107050E+02</rscale>
<asrwt>0</asrwt>
<pdfrwt beam="1">  1       21 0.23273992E-02 0.22107050E+02</pdfrwt>
<pdfrwt beam="2">  1       21 0.60185647E-02 0.22107050E+02</pdfrwt>
<totfact> 0.12480339E+08</totfact>
</mgrwt>
</event>
<event>
 4    1  0.4594485E+006  0.2320004E+02  0.7546771E-02  0.1688288E+00
         21   -1    0    0  502  501  0.00000000000E+00  0.00000000000E+00  0.44774606674E+03  0.44774606674E+03  0.00000000000E+00 0.  1.
         21   -1    0    0  503  502 -0.00000000000E+00 -0.00000000000E+00 -0.12644231538E+03  0.12644231538E+03  0.00000000000E+00 0. -1.
         21    1    1    2  503  504  0.22100789728E+02  0.70566920896E+01 -0.12507432339E+03  0.12720781494E+03  0.00000000000E+00 0. -1.
         21    1    1    2  504  501 -0.22100789728E+02 -0.70566920896E+01  0.44637807475E+03  0.44698056717E+03  0.00000000000E+00 0.  1.
<mgrwt>
<rscale>  2 0.23200039E+02</rscale>
<asrwt>0</asrwt>
<pdfrwt beam="1">  1       21 0.68884010E-01 0.23200039E+02</pdfrwt>
<pdfrwt beam="2">  1       21 0.19452664E-01 0.23200039E+02</pdfrwt>
<totfact> 0.53237799E+04</totfact>
</mgrwt>
</event>
<event>
 4    1  0.4594485E+006  0.2197950E+02  0.7546771E-02  0.1708607E+00
         21   -1    0    0  504  501  0.00000000000E+00  0.00000000000E+00  0.92926581256E+02  0.92926581256E+02  0.00000000000E+00 0. -1.
         21   -1    0    0  503  502 -0.00000000000E+00 -0.00000000000E+00 -0.54252950353E+01  0.54252950353E+01  0.00000000000E+00 0. -1.
         21    1    1    2  503  501  0.21953383478E+02 -0.10711151570E+01  0.33700859194E+02  0.40234888396E+02  0.00000000000E+00 0. -1.
         21    1    1    2  504  502 -0.21953383478E+02  0.10711151570E+01  0.53800427027E+02  0.58116987896E+02  0.00000000000E+00 0. -1.
<mgrwt>
<rscale>  2 0.21979498E+02</rscale>
<asrwt>0</asrwt>
<pdfrwt beam="1">  1       21 0.14296396E-01 0.21979498E+02</pdfrwt>
<pdfrwt beam="2">  1       21 0.83466084E-03 0.21979498E+02</pdfrwt>
<totfact> 0.14192053E+08</totfact>
</mgrwt>
</event>
<event>
 4    1  0.4594485E+006  0.2268548E+02  0.7546771E-02  0.1696660E+00
         21   -1    0    0  503  501  0.00000000000E+00  0.00000000000E+00  0.17680073293E+03  0.17680073293E+03  0.00000000000E+00 0.  1.
         21   -1    0    0  504  502 -0.00000000000E+00 -0.00000000000E+00 -0.29982809363E+02  0.29982809363E+02  0.00000000000E+00 0. -1.
         21    1    1    2  503  502  0.42497454078E+01 -0.22283868320E+02 -0.24835952830E+02  0.33637117538E+02  0.00000000000E+00 0. -1.
         21    1    1    2  504  501 -0.42497454078E+01  0.22283868320E+02  0.17165387640E+03  0.17314642476E+03  0.00000000000E+00 0.  1.
<mgrwt>
<rscale>  2 0.22685483E+02</rscale>
<asrwt>0</asrwt>
<pdfrwt beam="1">  1       21 0.27200112E-01 0.22685483E+02</pdfrwt>
<pdfrwt beam="2">  1       21 0.46127400E-02 0.22685483E+02</pdfrwt>
<totfact> 0.33856425E+06</totfact>
</mgrwt>
</event>
<event>
 4    1  0.4594485E+006  0.2500469E+02  0.7546771E-02  0.1660935E+00
         21   -1    0    0  504  501  0.00000000000E+00  0.00000000000E+00  0.23701822957E+01  0.23701822957E+01  0.00000000000E+00 0.  1.
         21   -1    0    0  503  502 -0.00000000000E+00 -0.00000000000E+00 -0.28251999127E+03  0.28251999127E+03  0.00000000000E+00 0.  1.
         21    1    1    2  503  501  0.77385381497E+01  0.23777077245E+02 -0.17675007701E+03  0.17851001120E+03  0.00000000000E+00 0.  1.
         21    1    1    2  504  502 -0.77385381497E+01 -0.23777077245E+02 -0.10339973196E+03  0.10638016237E+03  0.00000000000E+00 0.  1.
<mgrwt>
<rscale>  2 0.25004687E+02</rscale>
<asrwt>0</asrwt>
<pdfrwt beam="1">  1       21 0.36464349E-03 0.25004687E+02</pdfrwt>
<pdfrwt beam="2">  1       21 0.43464607E-01 0.25004687E+02</pdfrwt>
<totfact> 0.68348355E+07</totfact>
</mgrwt>
</event>
<event>
 4    1  0.4594485E+006  0.2507178E+02  0.7546771E-02  0.1659973E+00
         21   -1    0    0  504  501  0.00000000000E+00  0.00000000000E+00  0.43148008853E+01  0.43148008853E+01  0.00000000000E+00 0.  1.
         21   -1    0    0  503  502 -0.00000000000E+00 -0.00000000000E+00 -0.20005303907E+03  0.20005303907E+03  0.00000000000E+00 0.  1.
         21    1    1    2  503  501  0.79757812315E+01 -0.23769326731E+02 -0.15113989537E+03  0.15320529348E+03  0.00000000000E+00 0.  1.
         21    1    1    2  504  502 -0.79757812315E+01  0.23769326731E+02 -0.44598342817E+02  0.51162546472E+02  0.00000000000E+00 0.  1.
<mgrwt>
<rscale>  2 0.25071777E+02</rscale>
<asrwt>0</asrwt>
<pdfrwt beam="1">  1       21 0.66381574E-03 0.25071777E+02</pdfrwt>
<pdfrwt beam="2">  1       21 0.30777380E-01 0.25071777E+02</pdfrwt>
<totfact> 0.53782585E+07</totfact>
</mgrwt>
</event>
<event>
 4    1  0.4594485E+006  0.2372367E+02  0.7546771E-02  0.1680041E+00
         21   -1    0    0  504  501  0.00000000000E+00  0.00000000000E+00  0.20317900064E+02  0.20317900064E+02  0.00000000000E+00 0. -1.
         21   -1    0    0  503  502 -0.00000000000E+00 -0.00000000000E+00 -0.91540557991E+02  0.91540557991E+02  0.00000000000E+00 0. -1.
         21    1    1    2  503  501  0.23449461529E+02 -0.35965759104E+01 -0.82318036977E+02  0.85668382826E+02  0.00000000000E+00 0. -1.
         21    1    1    2  504  502 -0.23449461529E+02  0.35965759104E+01  0.11095379050E+02  0.26190075230E+02  0.00000000000E+00 0. -1.
<mgrwt>
<rscale>  2 0.23723672E+02</rscale>
<asrwt>0</asrwt>
<pdfrwt beam="1">  1       21 0.31258308E-02 0.23723672E+02</pdfrwt>
<pdfrwt beam="2">  1       21 0.14083162E-01 0.23723672E+02</pdfrwt>
<totfact> 0.19838821E+07</totfact>
</mgrwt>
</event>
<event>
 4    1  0.4594485E+006  0.3732918E+02  0.7546771E-02  0.1528839E+00
         21   -1    0    0  503  501  0.00000000000E+00  0.00000000000E+00  0.13000271944E+03  0.13000271944E+03  0.00000000000E+00 0.  1.
         21   -1    0    0  504  502 -0.00000000000E+00 -0.00000000000E+00 -0.11056970177E+02  0.11056970177E+02  0.00000000000E+00 0.  1.
         21    1    1    2  503  502  0.30670825420E+02  0.21278355032E+02  0.47137614445E+02  0.60128384482E+02  0.00000000000E+00 0.  1.
         21    1    1    2  504  501 -0.30670825420E+02 -0.21278355032E+02  0.71808134814E+02  0.80931305131E+02  0.00000000000E+00 0.  1.
<mgrwt>
<rscale>  2 0.37329183E+02</rscale>
<asrwt>0</asrwt>
<pdfrwt beam="1">  1       21 0.20000417E-01 0.37329183E+02</pdfrwt>
<pdfrwt beam="2">  1       21 0.17010724E-02 0.37329183E+02</pdfrwt>
<totfact> 0.30372294E+07</totfact>
</mgrwt>
</event>
<event>
 4    1  0.4594485E+006  0.2042181E+02  0.7546771E-02  0.1737068E+00
         21   -1    0    0  503  501  0.00000000000E+00  0.00000000000E+00  0.29403229541E+02  0.29403229541E+02  0.00000000000E+00 0.  1.
         21   -1    0    0  504  502 -0.00000000000E+00 -0.00000000000E+00 -0.32737598617E+02  0.32737598617E+02  0.00000000000E+00 0. -1.
         21    1    1    2  503  502 -0.19369352606E+02  0.64713601276E+01  0.21723327774E+02  0.29815319751E+02  0.00000000000E+00 0.  1.
         21    1    1    2  504  501  0.19369352606E+02 -0.64713601276E+01 -0.25057696851E+02  0.32325508406E+02  0.00000000000E+00 0. -1.
<mgrwt>
<rscale>  2 0.20421810E+02</rscale>
<asrwt>0</asrwt>
<pdfrwt beam="1">  1       21 0.45235738E-02 0.20421810E+02</pdfrwt>
<pdfrwt beam="2">  1       21 0.50365536E-02 0.20421810E+02</pdfrwt>
<totfact> 0.57562439E+07</totfact>
</mgrwt>
</event>
<event>
 4    1  0.4594485E+006  0.3362649E+02  0.7546771E-02  0.1561147E+00
         21   -1    0    0  503  501  0.00000000000E+00  0.00000000000E+00  0.10465086614E+04  0.10465086614E+04  0.00000000000E+00 0.  1.
         21   -1    0    0  504  502 -0.00000000000E+00 -0.00000000000E+00 -0.13659812203E+02  0.13659812203E+02  0.00000000000E+00 0. -1.
         21    1    1    2  503  502  0.27697030302E+02  0.19068701769E+02  0.77368061867E+01  0.34505058248E+02  0.00000000000E+00 0. -1.
         21    1    1    2  504  501 -0.27697030302E+02 -0.19068701769E+02  0.10251120430E+04  0.10256634153E+04  0.00000000000E+00 0.  1.
<mgrwt>
<rscale>  2 0.33626491E+02</rscale>
<asrwt>0</asrwt>
<pdfrwt beam="1">  1       21 0.16100127E+00 0.33626491E+02</pdfrwt>
<pdfrwt beam="2">  1       21 0.21015104E-02 0.33626491E+02</pdfrwt>
<totfact> 0.30004303E+05</totfact>
</mgrwt>
</event>
<event>
 4    1  0.4594485E+006  0.2280704E+02  0.7546771E-02  0.1694657E+00
         21   -1    0    0  504  501  0.00000000000E+00  0.00000000000E+00  0.95350711528E+02  0.95350711528E+02  0.00000000000E+00 0.  1.
         21   -1    0    0  501  502 -0.00000000000E+00 -0.00000000000E+00 -0.56786414192E+02  0.56786414192E+02  0.00000000000E+00 0. -1.
         21    1    1    2  503  502 -0.20285575694E+02 -0.10423834490E+02 -0.53040378394E+02  0.57735973595E+02  0.00000000000E+00 0. -1.
         21    1    1    2  504  503  0.20285575694E+02  0.10423834490E+02  0.91604675731E+02  0.94401152125E+02  0.00000000000E+00 0.  1.
<mgrwt>
<rscale>  2 0.22807036E+02</rscale>
<asrwt>0</asrwt>
<pdfrwt beam="1">  1       21 0.14669340E-01 0.22807036E+02</pdfrwt>
<pdfrwt beam="2">  1       21 0.87363714E-02 0.22807036E+02</pdfrwt>
<totfact> 0.35575703E+06</totfact>
</mgrwt>
</event>
<event>
 4    1  0.4594485E+006  0.3034034E+02  0.7546771E-02  0.1594357E+00
         21   -1    0    0  504  501  0.00000000000E+00  0.00000000000E+00  0.11850495580E+02  0.11850495580E+02  0.00000000000E+00 0. -1.
         21   -1    0    0  501  502 -0.00000000000E+00 -0.00000000000E+00 -0.13469870044E+03  0.13469870044E+03  0.00000000000E+00 0.  1.
         21    1    1    2  503  502  0.17585857754E+02 -0.24723948459E+02 -0.10909834103E+03  0.11323861548E+03  0.00000000000E+00 0.  1.
         21    1    1    2  504  503 -0.17585857754E+02  0.24723948459E+02 -0.13749863826E+02  0.33310580535E+02  0.00000000000E+00 0. -1.
<mgrwt>
<rscale>  2 0.30340337E+02</rscale>
<asrwt>0</asrwt>
<pdfrwt beam="1">  1       21 0.18231532E-02 0.30340337E+02</pdfrwt>
<pdfrwt beam="2">  1       21 0.20722876E-01 0.30340337E+02</pdfrwt>
<totfact> 0.24665437E+07</totfact>
</mgrwt>
</event>
<event>
 4    1  0.4594485E+006  0.2018334E+02  0.7546771E-02  0.1741706E+00
         21   -1    0    0  503  501  0.00000000000E+00  0.00000000000E+00  0.17219760354E+03  0.17219760354E+03  0.00000000000E+00 0. -1.
         21   -1    0    0  501  502 -0.00000000000E+00 -0.00000000000E+00 -0.77621275475E+03  0.77621275475E+03  0.00000000000E+00 0.  1.
         21    1    1    2  503  504 -0.12541203147E+01 -0.20144342826E+02  0.17147442432E+03  0.17265817549E+03  0.00000000000E+00 0. -1.
         21    1    1    2  504  502  0.12541203147E+01  0.20144342826E+02 -0.77548957553E+03  0.77575218280E+03  0.00000000000E+00 0.  1.
<mgrwt>
<rscale>  2 0.20183344E+02</rscale>
<asrwt>0</asrwt>
<pdfrwt beam="1">  1       21 0.26491939E-01 0.20183344E+02</pdfrwt>
<pdfrwt beam="2">  1       21 0.11941735E+00 0.20183344E+02</pdfrwt>
<totfact> 0.95989569E+03</totfact>
</mgrwt>
</event>
<event>
 4    1  0.4594485E+006  0.2217075E+02  0.7546771E-02  0.1705316E+00
         21   -1    0    0  503  501  0.00000000000E+00  0.00000000000E+00  0.31955394992E+03  0.31955394992E+03  0.00000000000E+00 0. -1.
         21   -1    0    0  504  502 -0.00000000000E+00 -0.00000000000E+00 -0.16747966821E+01  0.16747966821E+01  0.00000000000E+00 0. -1.
         21    1    1    2  503  502 -0.13935854833E+02  0.17243373407E+02  0.11307228611E+03  0.11522536119E+03  0.00000000000E+00 0. -1.
         21    1    1    2  504  501  0.13935854833E+02 -0.17243373407E+02  0.20480686713E+03  0.20600338541E+03  0.00000000000E+00 0. -1.
<mgrwt>
<rscale>  2 0.22170746E+02</rscale>
<asrwt>0</asrwt>
<pdfrwt beam="1">  1       21 0.49162098E-01 0.22170746E+02</pdfrwt>
<pdfrwt beam="2">  1       21 0.25766128E-03 0.22170746E+02</pdfrwt>
<totfact> 0.86871076E+07</totfact>
</mgrwt>
</event>
<event>
 4    1  0.4594485E+006  0.2168117E+02  0.7546771E-02  0.1713825E+00
         21   -1    0    0  502  501  0.00000000000E+00  0.00000000000E+00  0.40177972479E+03  0.40177972479E+03  0.00000000000E+00 0.  1.
         21   -1    0    0  504  502 -0.00000000000E+00 -0.00000000000E+00 -0.62426723877E+01  0.62426723877E+01  0.00000000000E+00 0.  1.
         21    1    1    2  503  501 -0.19986287508E+02  0.84036532495E+01  0.38167123372E+03  0.38228654662E+03  0.00000000000E+00 0.  1.
         21    1    1    2  504  503  0.19986287508E+02 -0.84036532495E+01  0.13865818684E+02  0.25735850561E+02  0.00000000000E+00 0.  1.
<mgrwt>
<rscale>  2 0.21681169E+02</rscale>
<asrwt>0</asrwt>
<pdfrwt beam="1">  1       21 0.61812245E-01 0.21681169E+02</pdfrwt>
<pdfrwt beam="2">  1       21 0.96041145E-03 0.21681169E+02</pdfrwt>
<totfact> 0.79336541E+06</totfact>
</mgrwt>
</event>
<event>
 4    1  0.4594485E+006  0.2872402E+02  0.7546771E-02  0.1612637E+00
         21   -1    0    0  503  501  0.00000000000E+00  0.00000000000E+00  0.23593817078E+02  0.23593817078E+02  0.00000000000E+00 0. -1.
         21   -1    0    0  504  502 -0.00000000000E+00 -0.00000000000E+00 -0.46038880854E+03  0.46038880854E+03  0.00000000000E+00 0.  1.
         21    1    1    2  503  502 -0.26877177634E+02 -0.10133437570E+02 -0.45101686926E+03  0.45193062033E+03  0.00000000000E+00 0.  1.
         21    1    1    2  504  501  0.26877177634E+02  0.10133437570E+02  0.14221877801E+02  0.32052005284E+02  0.00000000000E+00 0. -1.
<mgrwt>
<rscale>  2 0.28724018E+02</rscale>
<asrwt>0</asrwt>
<pdfrwt beam="1">  1       21 0.36298178E-02 0.28724018E+02</pdfrwt>
<pdfrwt beam="2">  1       21 0.70829052E-01 0.28724018E+02</pdfrwt>
<totfact> 0.80525914E+05</totfact>
</mgrwt>
</event>
<event>
 4    1  0.4594485E+006  0.2168039E+02  0.7546771E-02  0.1713839E+00
         21   -1    0    0  504  501  0.00000000000E+00  0.00000000000E+00  0.50553634096E+03  0.50553634096E+03  0.00000000000E+00 0. -1.
         21   -1    0    0  501  502 -0.00000000000E+00 -0.00000000000E+00 -0.16193756455E+01  0.16193756455E+01  0.00000000000E+00 0. -1.
         21    1    1    2  503  502  0.18538720818E+02  0.11240771713E+02  0.86482936080E+02  0.89159056474E+02  0.00000000000E+00 0. -1.
         21    1    1    2  504  503 -0.18538720818E+02 -0.11240771713E+02  0.41743402924E+03  0.41799666013E+03  0.00000000000E+00 0. -1.
<mgrwt>
<rscale>  2 0.21680386E+02</rscale>
<asrwt>0</asrwt>
<pdfrwt beam="1">  1       21 0.77774696E-01 0.21680386E+02</pdfrwt>
<pdfrwt beam="2">  1       21 0.24913512E-03 0.21680386E+02</pdfrwt>
<totfact> 0.36153088E+07</totfact>
</mgrwt>
</event>
<event>
 4    1  0.4594485E+006  0.2095838E+02  0.7546771E-02  0.1726915E+00
         21   -1    0    0  504  501  0.00000000000E+00  0.00000000000E+00  0.44819330962E+01  0.44819330962E+01  0.00000000000E+00 0. -1.
         21   -1    0    0  501  502 -0.00000000000E+00 -0.00000000000E+00 -0.23718618739E+03  0.23718618739E+03  0.00000000000E+00 0. -1.
         21    1    1    2  503  502 -0.10334438905E+02 -0.18233295310E+02 -0.20891446233E+03  0.20996310689E+03  0.00000000000E+00 0. -1.
         21    1    1    2  504  503  0.10334438905E+02  0.18233295310E+02 -0.23789791967E+02  0.31705013597E+02  0.00000000000E+00 0. -1.
<mgrwt>
<rscale>  2 0.20958380E+02</rscale>
<asrwt>0</asrwt>
<pdfrwt beam="1">  1       21 0.68952792E-03 0.20958380E+02</pdfrwt>
<pdfrwt beam="2">  1       21 0.36490196E-01 0.20958380E+02</pdfrwt>
<totfact> 0.35594353E+07</totfact>
</mgrwt>
</event>
<event>
 4    1  0.4594485E+006  0.2371291E+02  0.7546771E-02  0.1680208E+00
         21   -1    0    0  503  501  0.00000000000E+00  0.00000000000E+00  0.62072546339E+02  0.62072546339E+02  0.00000000000E+00 0. -1.
         21   -1    0    0  504  502 -0.00000000000E+00 -0.00000000000E+00 -0.10172382217E+02  0.10172382217E+02  0.00000000000E+00 0. -1.
         21    1    1    2  503  502 -0.50807289985E+01  0.23162219530E+02  0.37901761728E+02  0.44708452923E+02  0.00000000000E+00 0. -1.
         21    1    1    2  504  501  0.50807289985E+01 -0.23162219530E+02  0.13998402394E+02  0.27536475633E+02  0.00000000000E+00 0. -1.
<mgrwt>
<rscale>  2 0.23712913E+02</rscale>
<asrwt>0</asrwt>
<pdfrwt beam="1">  1       21 0.95496223E-02 0.23712913E+02</pdfrwt>
<pdfrwt beam="2">  1       21 0.15649819E-02 0.23712913E+02</pdfrwt>
<totfact> 0.11041062E+08</totfact>
</mgrwt>
</event>
<event>
 4    1  0.4594485E+006  0.2630554E+02  0.7546771E-02  0.1642928E+00
         21   -1    0    0  502  501  0.00000000000E+00  0.00000000000E+00  0.46380731720E+02  0.46380731720E+02  0.00000000000E+00 0.  1.
         21   -1    0    0  504  502 -0.00000000000E+00 -0.00000000000E+00 -0.25905127110E+02  0.25905127110E+02  0.00000000000E+00 0.  1.
         21    1    1    2  503  501  0.12752699592E+02 -0.23007613194E+02  0.33774259217E+02  0.42809837624E+02  0.00000000000E+00 0.  1.
         21    1    1    2  504  503 -0.12752699592E+02  0.23007613194E+02 -0.13298654607E+02  0.29476021206E+02  0.00000000000E+00 0.  1.
<mgrwt>
<rscale>  2 0.26305543E+02</rscale>
<asrwt>0</asrwt>
<pdfrwt beam="1">  1       21 0.71354972E-02 0.26305543E+02</pdfrwt>
<pdfrwt beam="2">  1       21 0.39854042E-02 0.26305543E+02</pdfrwt>
<totfact> 0.42860871E+07</totfact>
</mgrwt>
</event>
<event>
 4    1  0.4594485E+006  0.2300005E+02  0.7546771E-02  0.1691509E+00
         21   -1    0    0  503  501  0.00000000000E+00  0.00000000000E+00  0.10412866821E+03  0.10412866821E+03  0.00000000000E+00 0. -1.
         21   -1    0    0  504  502 -0.00000000000E+00 -0.00000000000E+00 -0.73376380527E+01  0.73376380527E+01  0.00000000000E+00 0. -1.
         21    1    1    2  503  502  0.17889821939E+02 -0.14455323208E+02  0.17482857975E+02  0.28890351694E+02  0.00000000000E+00 0. -1.
         21    1    1    2  504  501 -0.17889821939E+02  0.14455323208E+02  0.79308172186E+02  0.82575954573E+02  0.00000000000E+00 0. -1.
<mgrwt>
<rscale>  2 0.23000046E+02</rscale>
<asrwt>0</asrwt>
<pdfrwt beam="1">  1       21 0.16019794E-01 0.23000046E+02</pdfrwt>
<pdfrwt beam="2">  1       21 0.11288675E-02 0.23000046E+02</pdfrwt>
<totfact> 0.75309386E+07</totfact>
</mgrwt>
</event>
<event>
 4    1  0.4594485E+006  0.2191627E+02  0.7546771E-02  0.1709704E+00
         21   -1    0    0  503  501  0.00000000000E+00  0.00000000000E+00  0.71094130809E+01  0.71094130809E+01  0.00000000000E+00 0.  1.
         21   -1    0    0  504  502 -0.00000000000E+00 -0.00000000000E+00 -0.10869875991E+03  0.10869875991E+03  0.00000000000E+00 0.  1.
         21    1    1    2  503  502  0.11790895612E+02 -0.18474237771E+02 -0.86416365816E+02  0.89152178669E+02  0.00000000000E+00 0.  1.
         21    1    1    2  504  501 -0.11790895612E+02  0.18474237771E+02 -0.15172981016E+02  0.26655994325E+02  0.00000000000E+00 0.  1.
<mgrwt>
<rscale>  2 0.21916265E+02</rscale>
<asrwt>0</asrwt>
<pdfrwt beam="1">  1       21 0.10937559E-02 0.21916265E+02</pdfrwt>
<pdfrwt beam="2">  1       21 0.16722885E-01 0.21916265E+02</pdfrwt>
<totfact> 0.72425668E+07</totfact>
</mgrwt>
</event>
<event>
 4    1  0.4594485E+006  0.2575798E+02  0.7546771E-02  0.1650348E+00
         21   -1    0    0  503  501  0.00000000000E+00  0.00000000000E+00  0.29940813999E+01  0.29940813999E+01  0.00000000000E+00 0.  1.
         21   -1    0    0  504  502 -0.00000000000E+00 -0.00000000000E+00 -0.23642452781E+03  0.23642452781E+03  0.00000000000E+00 0. -1.
         21    1    1    2  503  502 -0.25576905487E+02 -0.30488000933E+01 -0.86734214476E+02  0.90478158895E+02  0.00000000000E+00 0.  1.
         21    1    1    2  504  501  0.25576905487E+02  0.30488000933E+01 -0.14669623193E+03  0.14894045032E+03  0.00000000000E+00 0. -1.
<mgrwt>
<rscale>  2 0.25757975E+02</rscale>
<asrwt>0</asrwt>
<pdfrwt beam="1">  1       21 0.46062781E-03 0.25757975E+02</pdfrwt>
<pdfrwt beam="2">  1       21 0.36373012E-01 0.25757975E+02</pdfrwt>
<totfact> 0.68322673E+07</totfact>
</mgrwt>
</event>
<event>
 4    1  0.4594485E+006  0.2465355E+02  0.7546771E-02  0.1666028E+00
         21   -1    0    0  504  501  0.00000000000E+00  0.00000000000E+00  0.28052277580E+03  0.28052277580E+03  0.00000000000E+00 0. -1.
         21   -1    0    0  501  502 -0.00000000000E+00 -0.00000000000E+00 -0.95922416324E+01  0.95922416324E+01  0.00000000000E+00 0. -1.
         21    1    1    2  503  502 -0.16497436937E+02 -0.18320270344E+02  0.78374411754E+01  0.25869348951E+02  0.00000000000E+00 0. -1.
         21    1    1    2  504  503  0.16497436937E+02  0.18320270344E+02  0.26309309299E+03  0.26424566848E+03  0.00000000000E+00 0. -1.
<mgrwt>
<rscale>  2 0.24653554E+02</rscale>
<asrwt>0</asrwt>
<pdfrwt beam="1">  1       21 0.43157344E-01 0.24653554E+02</pdfrwt>
<pdfrwt beam="2">  1       21 0.14757297E-02 0.24653554E+02</pdfrwt>
<totfact> 0.85579706E+06</totfact>
</mgrwt>
</event>
<event>
 4    1  0.4594485E+006  0.2212360E+02  0.7546771E-02  0.1706123E+00
         21   -1    0    0  502  501  0.00000000000E+00  0.00000000000E+00  0.46777298855E+03  0.46777298855E+03  0.00000000000E+00 0. -1.
         21   -1    0    0  503  502 -0.00000000000E+00 -0.00000000000E+00 -0.50332886014E+01  0.50332886014E+01  0.00000000000E+00 0.  1.
         21    1    1    2  503  504  0.41143398227E+00  0.22119778070E+02  0.20969168175E+02  0.30482123839E+02  0.00000000000E+00 0.  1.
         21    1    1    2  504  501 -0.41143398227E+00 -0.22119778070E+02  0.44177053177E+03  0.44232415331E+03  0.00000000000E+00 0. -1.
<mgrwt>
<rscale>  2 0.22123604E+02</rscale>
<asrwt>0</asrwt>
<pdfrwt beam="1">  1       21 0.71965041E-01 0.22123604E+02</pdfrwt>
<pdfrwt beam="2">  1       21 0.77435246E-03 0.22123604E+02</pdfrwt>
<totfact> 0.80643796E+06</totfact>
</mgrwt>
</event>
<event>
 4    1  0.4594485E+006  0.3092323E+02  0.7546771E-02  0.1588102E+00
         21   -1    0    0  503  501  0.00000000000E+00  0.00000000000E+00  0.23728928893E+02  0.23728928893E+02  0.00000000000E+00 0.  1.
         21   -1    0    0  504  502 -0.00000000000E+00 -0.00000000000E+00 -0.45883526674E+03  0.45883526674E+03  0.00000000000E+00 0. -1.
         21    1    1    2  503  502 -0.27900988002E+02 -0.13333460479E+02  0.12889756402E+02  0.33502121126E+02  0.00000000000E+00 0.  1.
         21    1    1    2  504  501  0.27900988002E+02  0.13333460479E+02 -0.44799609425E+03  0.44906207451E+03  0.00000000000E+00 0. -1.
<mgrwt>
<rscale>  2 0.30923232E+02</rscale>
<asrwt>0</asrwt>
<pdfrwt beam="1">  1       21 0.36506048E-02 0.30923232E+02</pdfrwt>
<pdfrwt beam="2">  1       21 0.70590034E-01 0.30923232E+02</pdfrwt>
<totfact> 0.80717338E+05</totfact>
</mgrwt>
</event>
<event>
 4    1  0.4594485E+006  0.2589123E+02  0.7546771E-02  0.1648521E+00
         21   -1    0    0  503  501  0.00000000000E+00  0.00000000000E+00  0.82195761559E+02  0.82195761559E+02  0.00000000000E+00 0. -1.
         21   -1    0    0  501  502 -0.00000000000E+00 -0.00000000000E+00 -0.18054399188E+02  0.18054399188E+02  0.00000000000E+00 0.  1.
         21    1    1    2  503  504 -0.13176180241E+02  0.22287757766E+02  0.69186136014E+02  0.73872033196E+02  0.00000000000E+00 0. -1.
         21    1    1    2  504  502  0.13176180241E+02 -0.22287757766E+02 -0.50447736425E+01  0.26378127551E+02  0.00000000000E+00 0.  1.
<mgrwt>
<rscale>  2 0.25891232E+02</rscale>
<asrwt>0</asrwt>
<pdfrwt beam="1">  1       21 0.12645502E-01 0.25891232E+02</pdfrwt>
<pdfrwt beam="2">  1       21 0.27775999E-02 0.25891232E+02</pdfrwt>
<totfact> 0.29167196E+07</totfact>
</mgrwt>
</event>
<event>
 4    1  0.4594485E+006  0.3209378E+02  0.7546771E-02  0.1576035E+00
         21   -1    0    0  504  501  0.00000000000E+00  0.00000000000E+00  0.71848630090E+02  0.71848630090E+02  0.00000000000E+00 0. -1.
         21   -1    0    0  503  502 -0.00000000000E+00 -0.00000000000E+00 -0.22023206171E+02  0.22023206171E+02  0.00000000000E+00 0. -1.
         21    1    1    2  503  501 -0.31487521513E+02 -0.62086213625E+01 -0.28175277079E+01  0.32217222920E+02  0.00000000000E+00 0. -1.
         21    1    1    2  504  502  0.31487521513E+02  0.62086213625E+01  0.52642951627E+02  0.61654613341E+02  0.00000000000E+00 0. -1.
<mgrwt>
<rscale>  2 0.32093784E+02</rscale>
<asrwt>0</asrwt>
<pdfrwt beam="1">  1       21 0.11053635E-01 0.32093784E+02</pdfrwt>
<pdfrwt beam="2">  1       21 0.33881856E-02 0.32093784E+02</pdfrwt>
<totfact> 0.27991365E+07</totfact>
</mgrwt>
</event>
<event>
 4    1  0.4594485E+006  0.3257813E+02  0.7546771E-02  0.1571223E+00
         21   -1    0    0  504  501  0.00000000000E+00  0.00000000000E+00  0.25470449980E+03  0.25470449980E+03  0.00000000000E+00 0.  1.
         21   -1    0    0  501  502 -0.00000000000E+00 -0.00000000000E+00 -0.14481942768E+02  0.14481942768E+02  0.00000000000E+00 0. -1.
         21    1    1    2  503  502  0.24861648062E+02 -0.21053097172E+02  0.65200562378E+01  0.33224171596E+02  0.00000000000E+00 0. -1.
         21    1    1    2  504  503 -0.24861648062E+02  0.21053097172E+02  0.23370250079E+03  0.23596227097E+03  0.00000000000E+00 0.  1.
<mgrwt>
<rscale>  2 0.32578128E+02</rscale>
<asrwt>0</asrwt>
<pdfrwt beam="1">  1       21 0.39185304E-01 0.32578128E+02</pdfrwt>
<pdfrwt beam="2">  1       21 0.22279914E-02 0.32578128E+02</pdfrwt>
<totfact> 0.56804661E+06</totfact>
</mgrwt>
</event>
<event>
 4    1  0.4594485E+006  0.2103465E+02  0.7546771E-02  0.1725503E+00
         21   -1    0    0  502  501  0.00000000000E+00  0.00000000000E+00  0.27843684698E+02  0.27843684698E+02  0.00000000000E+00 0. -1.
         21   -1    0    0  503  502 -0.00000000000E+00 -0.00000000000E+00 -0.97940100312E+02  0.97940100312E+02  0.00000000000E+00 0. -1.
         21    1    1    2  503  504  0.36012527581E+01 -0.20724080790E+02 -0.92612346479E+02  0.94971065417E+02  0.00000000000E+00 0. -1.
         21    1    1    2  504  501 -0.36012527581E+01  0.20724080790E+02  0.22515930865E+02  0.30812719593E+02  0.00000000000E+00 0. -1.
<mgrwt>
<rscale>  2 0.21034651E+02</rscale>
<asrwt>0</asrwt>
<pdfrwt beam="1">  1       21 0.42836438E-02 0.21034651E+02</pdfrwt>
<pdfrwt beam="2">  1       21 0.15067708E-01 0.21034651E+02</pdfrwt>
<totfact> 0.10523652E+07</totfact>
</mgrwt>
</event>
<event>
 4    1  0.4594485E+006  0.2076573E+02  0.7546771E-02  0.1730516E+00
         21   -1    0    0  504  501  0.00000000000E+00  0.00000000000E+00  0.48948529012E+02  0.48948529012E+02  0.00000000000E+00 0. -1.
         21   -1    0    0  503  502 -0.00000000000E+00 -0.00000000000E+00 -0.92761127335E+02  0.92761127335E+02  0.00000000000E+00 0.  1.
         21    1    1    2  503  501 -0.87172352662E+01  0.18847423140E+02  0.45500051543E+02  0.50014700240E+02  0.00000000000E+00 0. -1.
         21    1    1    2  504  502  0.87172352662E+01 -0.18847423140E+02 -0.89312649865E+02  0.91694956108E+02  0.00000000000E+00 0.  1.
<mgrwt>
<rscale>  2 0.20765730E+02</rscale>
<asrwt>0</asrwt>
<pdfrwt beam="1">  1       21 0.75305429E-02 0.20765730E+02</pdfrwt>
<pdfrwt beam="2">  1       21 0.14270943E-01 0.20765730E+02</pdfrwt>
<totfact> 0.46775022E+06</totfact>
</mgrwt>
</event>
<event>
 4    1  0.4594485E+006  0.2073835E+02  0.7546771E-02  0.1731032E+00
         21   -1    0    0  502  501  0.00000000000E+00  0.00000000000E+00  0.28044563934E+00  0.28044563934E+00  0.00000000000E+00 0. -1.
         21   -1    0    0  503  502 -0.00000000000E+00 -0.00000000000E+00 -0.17176732068E+04  0.17176732068E+04  0.00000000000E+00 0. -1.
         21    1    1    2  503  504  0.71031023090E+01 -0.19483965379E+02 -0.11399245924E+04  0.11401132204E+04  0.00000000000E+00 0. -1.
         21    1    1    2  504  501 -0.71031023090E+01  0.19483965379E+02 -0.57746816879E+03  0.57784043207E+03  0.00000000000E+00 0. -1.
<mgrwt>
<rscale>  2 0.20738345E+02</rscale>
<asrwt>0</asrwt>
<pdfrwt beam="1">  1       21 0.43145594E-04 0.20738345E+02</pdfrwt>
<pdfrwt beam="2">  1       21 0.26425673E+00 0.20738345E+02</pdfrwt>
<totfact> 0.23524373E+07</totfact>
</mgrwt>
</event>
<event>
 4    1  0.4594485E+006  0.2271284E+02  0.7546771E-02  0.1696208E+00
         21   -1    0    0  502  501  0.00000000000E+00  0.00000000000E+00  0.90072147326E+02  0.90072147326E+02  0.00000000000E+00 0.  1.
         21   -1    0    0  503  502 -0.00000000000E+00 -0.00000000000E+00 -0.33514364129E+02  0.33514364129E+02  0.00000000000E+00 0. -1.
         21    1    1    2  503  504  0.22325862273E+02 -0.41747812551E+01 -0.27987191312E+02  0.36043803938E+02  0.00000000000E+00 0. -1.
         21    1    1    2  504  501 -0.22325862273E+02  0.41747812551E+01  0.84544974510E+02  0.87542707518E+02  0.00000000000E+00 0.  1.
<mgrwt>
<rscale>  2 0.22712836E+02</rscale>
<asrwt>0</asrwt>
<pdfrwt beam="1">  1       21 0.13857253E-01 0.22712836E+02</pdfrwt>
<pdfrwt beam="2">  1       21 0.51560560E-02 0.22712836E+02</pdfrwt>
<totfact> 0.91781754E+06</totfact>
</mgrwt>
</event>
<event>
 4    1  0.4594485E+006  0.2124036E+02  0.7546771E-02  0.1721731E+00
         21   -1    0    0  502  501  0.00000000000E+00  0.00000000000E+00  0.63267021000E+02  0.63267021000E+02  0.00000000000E+00 0.  1.
         21   -1    0    0  503  502 -0.00000000000E+00 -0.00000000000E+00 -0.43601415647E+02  0.43601415647E+02  0.00000000000E+00 0.  1.
         21    1    1    2  503  504  0.12739311221E+02  0.16995969313E+02 -0.39036923784E+02  0.44441359585E+02  0.00000000000E+00 0.  1.
         21    1    1    2  504  501 -0.12739311221E+02 -0.16995969313E+02  0.58702529137E+02  0.62427077061E+02  0.00000000000E+00 0.  1.
<mgrwt>
<rscale>  2 0.21240363E+02</rscale>
<asrwt>0</asrwt>
<pdfrwt beam="1">  1       21 0.97333878E-02 0.21240363E+02</pdfrwt>
<pdfrwt beam="2">  1       21 0.67079101E-02 0.21240363E+02</pdfrwt>
<totfact> 0.10711912E+07</totfact>
</mgrwt>
</event>
<event>
 4    1  0.4594485E+006  0.2084934E+02  0.7546771E-02  0.1728947E+00
         21   -1    0    0  503  501  0.00000000000E+00  0.00000000000E+00  0.22601449415E+01  0.22601449415E+01  0.00000000000E+00 0.  1.
         21   -1    0    0  504  502 -0.00000000000E+00 -0.00000000000E+00 -0.40300332147E+03  0.40300332147E+03  0.00000000000E+00 0.  1.
         21    1    1    2  503  502  0.20398899778E+01  0.20749307845E+02 -0.53864935118E+02  0.57759208464E+02  0.00000000000E+00 0.  1.
         21    1    1    2  504  501 -0.20398899778E+01 -0.20749307845E+02 -0.34687824141E+03  0.34750425794E+03  0.00000000000E+00 0.  1.
<mgrwt>
<rscale>  2 0.20849339E+02</rscale>
<asrwt>0</asrwt>
<pdfrwt beam="1">  1       21 0.34771485E-03 0.20849339E+02</pdfrwt>
<pdfrwt beam="2">  1       21 0.62000467E-01 0.20849339E+02</pdfrwt>
<totfact> 0.35066731E+07</totfact>
</mgrwt>
</event>
<event>
 4    1  0.4594485E+006  0.2106714E+02  0.7546771E-02  0.1724903E+00
         21   -1    0    0  504  501  0.00000000000E+00  0.00000000000E+00  0.12824761426E+03  0.12824761426E+03  0.00000000000E+00 0.  1.
         21   -1    0    0  501  502 -0.00000000000E+00 -0.00000000000E+00 -0.48553021627E+01  0.48553021627E+01  0.00000000000E+00 0.  1.
         21    1    1    2  503  502 -0.20737815035E+02  0.37104729745E+01  0.26028303490E+02  0.33485775558E+02  0.00000000000E+00 0.  1.
         21    1    1    2  504  503  0.20737815035E+02 -0.37104729745E+01  0.97364008602E+02  0.99617140860E+02  0.00000000000E+00 0.  1.
<mgrwt>
<rscale>  2 0.21067145E+02</rscale>
<asrwt>0</asrwt>
<pdfrwt beam="1">  1       21 0.19730400E-01 0.21067145E+02</pdfrwt>
<pdfrwt beam="2">  1       21 0.74696966E-03 0.21067145E+02</pdfrwt>
<totfact> 0.95223124E+07</totfact>
</mgrwt>
</event>
<event>
 4    1  0.4594485E+006  0.2900484E+02  0.7546771E-02  0.1609357E+00
         21   -1    0    0  503  501  0.00000000000E+00  0.00000000000E+00  0.49808302933E+02  0.49808302933E+02  0.00000000000E+00 0. -1.
         21   -1    0    0  504  502 -0.00000000000E+00 -0.00000000000E+00 -0.41634826482E+03  0.41634826482E+03  0.00000000000E+00 0.  1.
         21    1    1    2  503  502  0.26936557805E+02 -0.10756502868E+02 -0.41157157220E+03  0.41259234063E+03  0.00000000000E+00 0.  1.
         21    1    1    2  504  501 -0.26936557805E+02  0.10756502868E+02  0.45031610313E+02  0.53564227127E+02  0.00000000000E+00 0. -1.
<mgrwt>
<rscale>  2 0.29004836E+02</rscale>
<asrwt>0</asrwt>
<pdfrwt beam="1">  1       21 0.76628159E-02 0.29004836E+02</pdfrwt>
<pdfrwt beam="2">  1       21 0.64053579E-01 0.29004836E+02</pdfrwt>
<totfact> 0.29732628E+05</totfact>
</mgrwt>
</event>
<event>
 4    1  0.4594485E+006  0.2460331E+02  0.7546771E-02  0.1666766E+00
         21   -1    0    0  502  501  0.00000000000E+00  0.00000000000E+00  0.29727462294E+02  0.29727462294E+02  0.00000000000E+00 0. -1.
         21   -1    0    0  503  502 -0.00000000000E+00 -0.00000000000E+00 -0.32772999812E+02  0.32772999812E+02  0.00000000000E+00 0.  1.
         21    1    1    2  503  504 -0.22333457098E+02  0.10321805936E+02 -0.20753297412E+02  0.32187300868E+02  0.00000000000E+00 0.  1.
         21    1    1    2  504  501  0.22333457098E+02 -0.10321805936E+02  0.17707759895E+02  0.30313161238E+02  0.00000000000E+00 0. -1.
<mgrwt>
<rscale>  2 0.24603312E+02</rscale>
<asrwt>0</asrwt>
<pdfrwt beam="1">  1       21 0.45734558E-02 0.24603312E+02</pdfrwt>
<pdfrwt beam="2">  1       21 0.50420000E-02 0.24603312E+02</pdfrwt>
<totfact> 0.59366860E+07</totfact>
</mgrwt>
</event>
<event>
 4    1  0.4594485E+006  0.2077311E+02  0.7546771E-02  0.1730377E+00
         21   -1    0    0  503  501  0.00000000000E+00  0.00000000000E+00  0.53416057525E+01  0.53416057525E+01  0.00000000000E+00 0. -1.
         21   -1    0    0  504  502 -0.00000000000E+00 -0.00000000000E+00 -0.35014182904E+03  0.35014182904E+03  0.00000000000E+00 0. -1.
         21    1    1    2  503  502 -0.15834720302E+02 -0.13445576557E+02 -0.32829480351E+03  0.32895136405E+03  0.00000000000E+00 0. -1.
         21    1    1    2  504  501  0.15834720302E+02  0.13445576557E+02 -0.16505419773E+02  0.26532070742E+02  0.00000000000E+00 0. -1.
<mgrwt>
<rscale>  2 0.20773105E+02</rscale>
<asrwt>0</asrwt>
<pdfrwt beam="1">  1       21 0.82178539E-03 0.20773105E+02</pdfrwt>
<pdfrwt beam="2">  1       21 0.53867981E-01 0.20773105E+02</pdfrwt>
<totfact> 0.13043071E+07</totfact>
</mgrwt>
</event>
<event>
 4    1  0.4594485E+006  0.4356005E+02  0.7546771E-02  0.1483536E+00
         21   -1    0    0  503  501  0.00000000000E+00  0.00000000000E+00  0.25061899918E+02  0.25061899918E+02  0.00000000000E+00 0.  1.
         21   -1    0    0  504  502 -0.00000000000E+00 -0.00000000000E+00 -0.81857785927E+02  0.81857785927E+02  0.00000000000E+00 0.  1.
         21    1    1    2  503  502  0.40880694067E+02  0.15041492866E+02 -0.13749247247E+02  0.45678435337E+02  0.00000000000E+00 0.  1.
         21    1    1    2  504  501 -0.40880694067E+02 -0.15041492866E+02 -0.43046638762E+02  0.61241250508E+02  0.00000000000E+00 0.  1.
<mgrwt>
<rscale>  2 0.43560047E+02</rscale>
<asrwt>0</asrwt>
<pdfrwt beam="1">  1       21 0.38556769E-02 0.43560047E+02</pdfrwt>
<pdfrwt beam="2">  1       21 0.12593505E-01 0.43560047E+02</pdfrwt>
<totfact> 0.19216368E+07</totfact>
</mgrwt>
</event>
<event>
 4    1  0.4594485E+006  0.2817980E+02  0.7546771E-02  0.1619126E+00
         21   -1    0    0  503  501  0.00000000000E+00  0.00000000000E+00  0.10216896297E+04  0.10216896297E+04  0.00000000000E+00 0. -1.
         21   -1    0    0  504  502 -0.00000000000E+00 -0.00000000000E+00 -0.22131114687E+01  0.22131114687E+01  0.00000000000E+00 0. -1.
         21    1    1    2  503  502 -0.18748888720E+02 -0.21037585926E+02  0.97370755266E+02  0.10136648771E+03  0.00000000000E+00 0. -1.
         21    1    1    2  504  501  0.18748888720E+02  0.21037585926E+02  0.92210576293E+03  0.92253625342E+03  0.00000000000E+00 0. -1.
<mgrwt>
<rscale>  2 0.28179795E+02</rscale>
<asrwt>0</asrwt>
<pdfrwt beam="1">  1       21 0.15718264E+00 0.28179795E+02</pdfrwt>
<pdfrwt beam="2">  1       21 0.34047950E-03 0.28179795E+02</pdfrwt>
<totfact> 0.49388465E+06</totfact>
</mgrwt>
</event>
<event>
 4    1  0.4594485E+006  0.2270801E+02  0.7546771E-02  0.1696287E+00
         21   -1    0    0  503  501  0.00000000000E+00  0.00000000000E+00  0.63333697693E+02  0.63333697693E+02  0.00000000000E+00 0.  1.
         21   -1    0    0  504  502 -0.00000000000E+00 -0.00000000000E+00 -0.94491698843E+01  0.94491698843E+01  0.00000000000E+00 0.  1.
         21    1    1    2  503  502  0.18271917545E+02 -0.13482981533E+02  0.13406196845E+02  0.26370056421E+02  0.00000000000E+00 0.  1.
         21    1    1    2  504  501 -0.18271917545E+02  0.13482981533E+02  0.40478330964E+02  0.46412811156E+02  0.00000000000E+00 0.  1.
<mgrwt>
<rscale>  2 0.22708011E+02</rscale>
<asrwt>0</asrwt>
<pdfrwt beam="1">  1       21 0.97436455E-02 0.22708011E+02</pdfrwt>
<pdfrwt beam="2">  1       21 0.14537185E-02 0.22708011E+02</pdfrwt>
<totfact> 0.11799250E+08</totfact>
</mgrwt>
</event>
<event>
 4    1  0.4594485E+006  0.3514392E+02  0.7546771E-02  0.1547326E+00
         21   -1    0    0  504  501  0.00000000000E+00  0.00000000000E+00  0.63097384305E+02  0.63097384305E+02  0.00000000000E+00 0.  1.
         21   -1    0    0  503  502 -0.00000000000E+00 -0.00000000000E+00 -0.20792434453E+02  0.20792434453E+02  0.00000000000E+00 0.  1.
         21    1    1    2  503  501 -0.95612662026E+01  0.33818297421E+02  0.11000469989E+02  0.36825336276E+02  0.00000000000E+00 0.  1.
         21    1    1    2  504  502  0.95612662026E+01 -0.33818297421E+02  0.31304479862E+02  0.47064482482E+02  0.00000000000E+00 0.  1.
<mgrwt>
<rscale>  2 0.35143919E+02</rscale>
<asrwt>0</asrwt>
<pdfrwt beam="1">  1       21 0.97072898E-02 0.35143919E+02</pdfrwt>
<pdfrwt beam="2">  1       21 0.31988361E-02 0.35143919E+02</pdfrwt>
<totfact> 0.38840470E+07</totfact>
</mgrwt>
</event>
<event>
 4    1  0.4594485E+006  0.2086328E+02  0.7546771E-02  0.1728686E+00
         21   -1    0    0  503  501  0.00000000000E+00  0.00000000000E+00  0.37997091397E+01  0.37997091397E+01  0.00000000000E+00 0. -1.
         21   -1    0    0  504  502 -0.00000000000E+00 -0.00000000000E+00 -0.72631534587E+03  0.72631534587E+03  0.00000000000E+00 0.  1.
         21    1    1    2  503  502  0.21668025240E+01  0.20750460444E+02 -0.69629211696E+03  0.69660461438E+03  0.00000000000E+00 0.  1.
         21    1    1    2  504  501 -0.21668025240E+01 -0.20750460444E+02 -0.26223519776E+02  0.33510440631E+02  0.00000000000E+00 0. -1.
<mgrwt>
<rscale>  2 0.20863285E+02</rscale>
<asrwt>0</asrwt>
<pdfrwt beam="1">  1       21 0.58457102E-03 0.20863285E+02</pdfrwt>
<pdfrwt beam="2">  1       21 0.11174075E+00 0.20863285E+02</pdfrwt>
<totfact> 0.47345444E+06</totfact>
</mgrwt>
</event>
<event>
 4    1  0.4594485E+006  0.2389536E+02  0.7546771E-02  0.1677395E+00
         21   -1    0    0  502  501  0.00000000000E+00  0.00000000000E+00  0.14671138620E+02  0.14671138620E+02  0.00000000000E+00 0.  1.
         21   -1    0    0  503  502 -0.00000000000E+00 -0.00000000000E+00 -0.84409864019E+02  0.84409864019E+02  0.00000000000E+00 0.  1.
         21    1    1    2  503  504  0.14435628460E+02  0.19042075872E+02 -0.71237850690E+02  0.75138667765E+02  0.00000000000E+00 0.  1.
         21    1    1    2  504  501 -0.14435628460E+02 -0.19042075872E+02  0.14991252908E+01  0.23942334873E+02  0.00000000000E+00 0.  1.
<mgrwt>
<rscale>  2 0.23895356E+02</rscale>
<asrwt>0</asrwt>
<pdfrwt beam="1">  1       21 0.22570983E-02 0.23895356E+02</pdfrwt>
<pdfrwt beam="2">  1       21 0.12986133E-01 0.23895356E+02</pdfrwt>
<totfact> 0.37785131E+07</totfact>
</mgrwt>
</event>
<event>
 4    1  0.4594485E+006  0.2413882E+02  0.7546771E-02  0.1673689E+00
         21   -1    0    0  502  501  0.00000000000E+00  0.00000000000E+00  0.31899055346E+01  0.31899055346E+01  0.00000000000E+00 0.  1.
         21   -1    0    0  503  502 -0.00000000000E+00 -0.00000000000E+00 -0.21836090418E+03  0.21836090418E+03  0.00000000000E+00 0.  1.
         21    1    1    2  503  504 -0.13916983718E+02 -0.19723088582E+02 -0.15237413516E+03  0.15427430028E+03  0.00000000000E+00 0.  1.
         21    1    1    2  504  501  0.13916983718E+02  0.19723088582E+02 -0.62796863484E+02  0.67276509441E+02  0.00000000000E+00 0.  1.
<mgrwt>
<rscale>  2 0.24138821E+02</rscale>
<asrwt>0</asrwt>
<pdfrwt beam="1">  1       21 0.49075449E-03 0.24138821E+02</pdfrwt>
<pdfrwt beam="2">  1       21 0.33593999E-01 0.24138821E+02</pdfrwt>
<totfact> 0.71012957E+07</totfact>
</mgrwt>
</event>
<event>
 4    1  0.4594485E+006  0.2319398E+02  0.7546771E-02  0.1688385E+00
         21   -1    0    0  503  501  0.00000000000E+00  0.00000000000E+00  0.30890892675E+02  0.30890892675E+02  0.00000000000E+00 0.  1.
         21   -1    0    0  504  502 -0.00000000000E+00 -0.00000000000E+00 -0.15240002718E+03  0.15240002718E+03  0.00000000000E+00 0.  1.
         21    1    1    2  503  502 -0.11702706794E+02 -0.20025165118E+02 -0.14700503452E+03  0.14882352220E+03  0.00000000000E+00 0.  1.
         21    1    1    2  504  501  0.11702706794E+02  0.20025165118E+02  0.25495900011E+02  0.34467397663E+02  0.00000000000E+00 0.  1.
<mgrwt>
<rscale>  2 0.23193977E+02</rscale>
<asrwt>0</asrwt>
<pdfrwt beam="1">  1       21 0.47524451E-02 0.23193977E+02</pdfrwt>
<pdfrwt beam="2">  1       21 0.23446158E-01 0.23193977E+02</pdfrwt>
<totfact> 0.42232718E+06</totfact>
</mgrwt>
</event>
<event>
 4    1  0.4594485E+006  0.2145896E+02  0.7546771E-02  0.1717781E+00
         21   -1    0    0  503  501  0.00000000000E+00  0.00000000000E+00  0.66940947009E+00  0.66940947009E+00  0.00000000000E+00 0.  1.
         21   -1    0    0  504  502 -0.00000000000E+00 -0.00000000000E+00 -0.74056429212E+03  0.74056429212E+03  0.00000000000E+00 0.  1.
         21    1    1    2  503  502  0.71264655968E+01 -0.20241053796E+02 -0.27111445308E+03  0.27196237504E+03  0.00000000000E+00 0.  1.
         21    1    1    2  504  501 -0.71264655968E+01  0.20241053796E+02 -0.46878042957E+03  0.46927132655E+03  0.00000000000E+00 0.  1.
<mgrwt>
<rscale>  2 0.21458955E+02</rscale>
<asrwt>0</asrwt>
<pdfrwt beam="1">  1       21 0.10298581E-03 0.21458955E+02</pdfrwt>
<pdfrwt beam="2">  1       21 0.11393326E+00 0.21458955E+02</pdfrwt>
<totfact> 0.56221601E+07</totfact>
</mgrwt>
</event>
<event>
 4    1  0.4594485E+006  0.2485018E+02  0.7546771E-02  0.1663163E+00
         21   -1    0    0  503  501  0.00000000000E+00  0.00000000000E+00  0.96527736187E+01  0.96527736187E+01  0.00000000000E+00 0. -1.
         21   -1    0    0  504  502 -0.00000000000E+00 -0.00000000000E+00 -0.11110175890E+03  0.11110175890E+03  0.00000000000E+00 0. -1.
         21    1    1    2  503  502  0.24827887036E+02 -0.10523656379E+01 -0.11401276632E+02  0.27340822170E+02  0.00000000000E+00 0. -1.
         21    1    1    2  504  501 -0.24827887036E+02  0.10523656379E+01 -0.90047708645E+02  0.93413710344E+02  0.00000000000E+00 0. -1.
<mgrwt>
<rscale>  2 0.24850180E+02</rscale>
<asrwt>0</asrwt>
<pdfrwt beam="1">  1       21 0.14850421E-02 0.24850180E+02</pdfrwt>
<pdfrwt beam="2">  1       21 0.17092579E-01 0.24850180E+02</pdfrwt>
<totfact> 0.45346195E+07</totfact>
</mgrwt>
</event>
<event>
 4    1  0.4594485E+006  0.2147095E+02  0.7546771E-02  0.1717566E+00
         21   -1    0    0  504  501  0.00000000000E+00  0.00000000000E+00  0.28617093763E+02  0.28617093763E+02  0.00000000000E+00 0.  1.
         21   -1    0    0  503  502 -0.00000000000E+00 -0.00000000000E+00 -0.87471678528E+02  0.87471678528E+02  0.00000000000E+00 0. -1.
         21    1    1    2  503  501 -0.35844812990E+01 -0.21169626099E+02 -0.81855031135E+02  0.84624155520E+02  0.00000000000E+00 0. -1.
         21    1    1    2  504  502  0.35844812990E+01  0.21169626099E+02  0.23000446370E+02  0.31464616771E+02  0.00000000000E+00 0.  1.
<mgrwt>
<rscale>  2 0.21470947E+02</rscale>
<asrwt>0</asrwt>
<pdfrwt beam="1">  1       21 0.44026298E-02 0.21470947E+02</pdfrwt>
<pdfrwt beam="2">  1       21 0.13457181E-01 0.21470947E+02</pdfrwt>
<totfact> 0.12251227E+07</totfact>
</mgrwt>
</event>
<event>
 4    1  0.4594485E+006  0.2005049E+02  0.7546771E-02  0.1744326E+00
         21   -1    0    0  504  501  0.00000000000E+00  0.00000000000E+00  0.70754043704E+02  0.70754043704E+02  0.00000000000E+00 0. -1.
         21   -1    0    0  503  502 -0.00000000000E+00 -0.00000000000E+00 -0.82186127089E+02  0.82186127089E+02  0.00000000000E+00 0. -1.
         21    1    1    2  503  501 -0.18470232691E+02 -0.78020868577E+01 -0.79495395427E+02  0.81984998317E+02  0.00000000000E+00 0. -1.
         21    1    1    2  504  502  0.18470232691E+02  0.78020868577E+01  0.68063312042E+02  0.70955172476E+02  0.00000000000E+00 0. -1.
<mgrwt>
<rscale>  2 0.20050488E+02</rscale>
<asrwt>0</asrwt>
<pdfrwt beam="1">  1       21 0.10885238E-01 0.20050488E+02</pdfrwt>
<pdfrwt beam="2">  1       21 0.12644020E-01 0.20050488E+02</pdfrwt>
<totfact> 0.31195098E+06</totfact>
</mgrwt>
</event>
<event>
 4    1  0.4594485E+006  0.2951913E+02  0.7546771E-02  0.1603466E+00
         21   -1    0    0  503  501  0.00000000000E+00  0.00000000000E+00  0.17803704843E+03  0.17803704843E+03  0.00000000000E+00 0. -1.
         21   -1    0    0  504  502 -0.00000000000E+00 -0.00000000000E+00 -0.58192512576E+01  0.58192512576E+01  0.00000000000E+00 0. -1.
         21    1    1    2  503  502  0.13935694870E+01  0.29486215917E+02  0.49460225979E+02  0.57599417696E+02  0.00000000000E+00 0. -1.
         21    1    1    2  504  501 -0.13935694870E+01 -0.29486215917E+02  0.12275757119E+03  0.12625688199E+03  0.00000000000E+00 0. -1.
<mgrwt>
<rscale>  2 0.29519129E+02</rscale>
<asrwt>0</asrwt>
<pdfrwt beam="1">  1       21 0.27390311E-01 0.29519129E+02</pdfrwt>
<pdfrwt beam="2">  1       21 0.89526956E-03 0.29519129E+02</pdfrwt>
<totfact> 0.44053429E+07</totfact>
</mgrwt>
</event>
<event>
 4    1  0.4594485E+006  0.4028213E+02  0.7546771E-02  0.1506145E+00
         21   -1    0    0  504  501  0.00000000000E+00  0.00000000000E+00  0.57484787154E+01  0.57484787154E+01  0.00000000000E+00 0. -1.
         21   -1    0    0  503  502 -0.00000000000E+00 -0.00000000000E+00 -0.52609877263E+03  0.52609877263E+03  0.00000000000E+00 0. -1.
         21    1    1    2  503  501  0.35715991613E+02 -0.18628423822E+02 -0.79140562231E+02  0.88802470806E+02  0.00000000000E+00 0. -1.
         21    1    1    2  504  502 -0.35715991613E+02  0.18628423822E+02 -0.44120973169E+03  0.44304478054E+03  0.00000000000E+00 0. -1.
<mgrwt>
<rscale>  2 0.40282133E+02</rscale>
<asrwt>0</asrwt>
<pdfrwt beam="1">  1       21 0.88438122E-03 0.40282133E+02</pdfrwt>
<pdfrwt beam="2">  1       21 0.80938284E-01 0.40282133E+02</pdfrwt>
<totfact> 0.55806947E+06</totfact>
</mgrwt>
</event>
<event>
 4    1  0.4594485E+006  0.2510825E+02  0.7546771E-02  0.1659452E+00
         21   -1    0    0  502  501  0.00000000000E+00  0.00000000000E+00  0.41282681829E+03  0.41282681829E+03  0.00000000000E+00 0.  1.
         21   -1    0    0  504  502 -0.00000000000E+00 -0.00000000000E+00 -0.40889315129E+01  0.40889315129E+01  0.00000000000E+00 0.  1.
         21    1    1    2  503  501  0.12799694851E+02  0.21600738414E+02  0.36937103093E+03  0.37022342251E+03  0.00000000000E+00 0.  1.
         21    1    1    2  504  503 -0.12799694851E+02 -0.21600738414E+02  0.39366855847E+02  0.46692327288E+02  0.00000000000E+00 0.  1.
<mgrwt>
<rscale>  2 0.25108247E+02</rscale>
<asrwt>0</asrwt>
<pdfrwt beam="1">  1       21 0.63511785E-01 0.25108247E+02</pdfrwt>
<pdfrwt beam="2">  1       21 0.62906671E-03 0.25108247E+02</pdfrwt>
<totfact> 0.14495365E+07</totfact>
</mgrwt>
</event>
<event>
 4    1  0.4594485E+006  0.2099826E+02  0.7546771E-02  0.1726175E+00
         21   -1    0    0  503  501  0.00000000000E+00  0.00000000000E+00  0.11954935294E+03  0.11954935294E+03  0.00000000000E+00 0.  1.
         21   -1    0    0  504  502 -0.00000000000E+00 -0.00000000000E+00 -0.12253258771E+02  0.12253258771E+02  0.00000000000E+00 0.  1.
         21    1    1    2  503  502  0.16183361662E+02  0.13380053884E+02 -0.14495053716E+01  0.21048232763E+02  0.00000000000E+00 0.  1.
         21    1    1    2  504  501 -0.16183361662E+02 -0.13380053884E+02  0.10874559954E+03  0.11075437895E+03  0.00000000000E+00 0.  1.
<mgrwt>
<rscale>  2 0.20998263E+02</rscale>
<asrwt>0</asrwt>
<pdfrwt beam="1">  1       21 0.18392207E-01 0.20998263E+02</pdfrwt>
<pdfrwt beam="2">  1       21 0.18851168E-02 0.20998263E+02</pdfrwt>
<totfact> 0.26678136E+07</totfact>
</mgrwt>
</event>
<event>
 4    1  0.4594485E+006  0.2437076E+02  0.7546771E-02  0.1670208E+00
         21   -1    0    0  503  501  0.00000000000E+00  0.00000000000E+00  0.43288472144E+03  0.43288472144E+03  0.00000000000E+00 0. -1.
         21   -1    0    0  504  502 -0.00000000000E+00 -0.00000000000E+00 -0.14676780445E+01  0.14676780445E+01  0.00000000000E+00 0. -1.
         21    1    1    2  503  502 -0.23715783137E+02 -0.56120822455E+01  0.27114799279E+03  0.27224101056E+03  0.00000000000E+00 0. -1.
         21    1    1    2  504  501  0.23715783137E+02  0.56120822455E+01  0.16026905061E+03  0.16211138893E+03  0.00000000000E+00 0. -1.
<mgrwt>
<rscale>  2 0.24370758E+02</rscale>
<asrwt>0</asrwt>
<pdfrwt beam="1">  1       21 0.66597548E-01 0.24370758E+02</pdfrwt>
<pdfrwt beam="2">  1       21 0.22579697E-03 0.24370758E+02</pdfrwt>
<totfact> 0.58924199E+07</totfact>
</mgrwt>
</event>
<event>
 4    1  0.4594485E+006  0.2498477E+02  0.7546771E-02  0.1661221E+00
         21   -1    0    0  503  501  0.00000000000E+00  0.00000000000E+00  0.20505419985E+03  0.20505419985E+03  0.00000000000E+00 0.  1.
         21   -1    0    0  504  502 -0.00000000000E+00 -0.00000000000E+00 -0.31170269099E+01  0.31170269099E+01  0.00000000000E+00 0.  1.
         21    1    1    2  503  502  0.51224139522E+01 -0.24454027106E+02  0.85065423964E+02  0.88658699069E+02  0.00000000000E+00 0.  1.
         21    1    1    2  504  501 -0.51224139522E+01  0.24454027106E+02  0.11687174898E+03  0.11951252769E+03  0.00000000000E+00 0.  1.
<mgrwt>
<rscale>  2 0.24984767E+02</rscale>
<asrwt>0</asrwt>
<pdfrwt beam="1">  1       21 0.31546789E-01 0.24984767E+02</pdfrwt>
<pdfrwt beam="2">  1       21 0.47954276E-03 0.24984767E+02</pdfrwt>
<totfact> 0.83201144E+07</totfact>
</mgrwt>
</event>
<event>
 4    1  0.4594485E+006  0.2417617E+02  0.7546771E-02  0.1673125E+00
         21   -1    0    0  502  501  0.00000000000E+00  0.00000000000E+00  0.39101284846E+03  0.39101284846E+03  0.00000000000E+00 0. -1.
         21   -1    0    0  503  502 -0.00000000000E+00 -0.00000000000E+00 -0.11810264116E+02  0.11810264116E+02  0.00000000000E+00 0. -1.
         21    1    1    2  503  504  0.21290232270E+02  0.11454829505E+02  0.13669298228E+01  0.24214780739E+02  0.00000000000E+00 0. -1.
         21    1    1    2  504  501 -0.21290232270E+02 -0.11454829505E+02  0.37783565452E+03  0.37860833184E+03  0.00000000000E+00 0. -1.
<mgrwt>
<rscale>  2 0.24176168E+02</rscale>
<asrwt>0</asrwt>
<pdfrwt beam="1">  1       21 0.60155813E-01 0.24176168E+02</pdfrwt>
<pdfrwt beam="2">  1       21 0.18169640E-02 0.24176168E+02</pdfrwt>
<totfact> 0.32443932E+06</totfact>
</mgrwt>
</event>
<event>
 4    1  0.4594485E+006  0.2119548E+02  0.7546771E-02  0.1722549E+00
         21   -1    0    0  504  501  0.00000000000E+00  0.00000000000E+00  0.85871331065E+01  0.85871331065E+01  0.00000000000E+00 0. -1.
         21   -1    0    0  503  502 -0.00000000000E+00 -0.00000000000E+00 -0.84176126742E+03  0.84176126742E+03  0.00000000000E+00 0. -1.
         21    1    1    2  503  501 -0.20010851271E+02  0.69867182714E+01 -0.82833679495E+03  0.82860792554E+03  0.00000000000E+00 0. -1.
         21    1    1    2  504  502  0.20010851271E+02 -0.69867182714E+01 -0.48373393719E+01  0.21740474994E+02  0.00000000000E+00 0. -1.
<mgrwt>
<rscale>  2 0.21195481E+02</rscale>
<asrwt>0</asrwt>
<pdfrwt beam="1">  1       21 0.13210974E-02 0.21195481E+02</pdfrwt>
<pdfrwt beam="2">  1       21 0.12950174E+00 0.21195481E+02</pdfrwt>
<totfact> 0.10075064E+06</totfact>
</mgrwt>
</event>
<event>
 4    1  0.4594485E+006  0.2120105E+02  0.7546771E-02  0.1722447E+00
         21   -1    0    0  503  501  0.00000000000E+00  0.00000000000E+00  0.10999771544E+02  0.10999771544E+02  0.00000000000E+00 0. -1.
         21   -1    0    0  501  502 -0.00000000000E+00 -0.00000000000E+00 -0.99330635556E+02  0.99330635556E+02  0.00000000000E+00 0. -1.
         21    1    1    2  503  504  0.16235060144E+02  0.13634781998E+02 -0.18419767864E+01  0.21280914841E+02  0.00000000000E+00 0. -1.
         21    1    1    2  504  502 -0.16235060144E+02 -0.13634781998E+02 -0.86488887226E+02  0.89049492259E+02  0.00000000000E+00 0. -1.
<mgrwt>
<rscale>  2 0.21201049E+02</rscale>
<asrwt>0</asrwt>
<pdfrwt beam="1">  1       21 0.16922726E-02 0.21201049E+02</pdfrwt>
<pdfrwt beam="2">  1       21 0.15281636E-01 0.21201049E+02</pdfrwt>
<totfact> 0.43281518E+07</totfact>
</mgrwt>
</event>
<event>
 4    1  0.4594485E+006  0.2635861E+02  0.7546771E-02  0.1642221E+00
         21   -1    0    0  504  501  0.00000000000E+00  0.00000000000E+00  0.14080749319E+02  0.14080749319E+02  0.00000000000E+00 0.  1.
         21   -1    0    0  503  502 -0.00000000000E+00 -0.00000000000E+00 -0.50263025628E+02  0.50263025628E+02  0.00000000000E+00 0. -1.
         21    1    1    2  503  501 -0.10999073042E+02  0.23954059437E+02 -0.13736850610E+02  0.29723351695E+02  0.00000000000E+00 0.  1.
         21    1    1    2  504  502  0.10999073042E+02 -0.23954059437E+02 -0.22445425699E+02  0.34620423252E+02  0.00000000000E+00 0. -1.
<mgrwt>
<rscale>  2 0.26358615E+02</rscale>
<asrwt>0</asrwt>
<pdfrwt beam="1">  1       21 0.21662692E-02 0.26358615E+02</pdfrwt>
<pdfrwt beam="2">  1       21 0.77327731E-02 0.26358615E+02</pdfrwt>
<totfact> 0.97588556E+07</totfact>
</mgrwt>
</event>
<event>
 4    1  0.4594485E+006  0.4618778E+02  0.7546771E-02  0.1467060E+00
         21   -1    0    0  504  501  0.00000000000E+00  0.00000000000E+00  0.32343145763E+02  0.32343145763E+02  0.00000000000E+00 0. -1.
         21   -1    0    0  503  502 -0.00000000000E+00 -0.00000000000E+00 -0.68440472678E+02  0.68440472678E+02  0.00000000000E+00 0. -1.
         21    1    1    2  503  501 -0.37876094086E+02  0.26433166675E+02 -0.84527289132E+01  0.46954865880E+02  0.00000000000E+00 0. -1.
         21    1    1    2  504  502  0.37876094086E+02 -0.26433166675E+02 -0.27644598002E+02  0.53828752562E+02  0.00000000000E+00 0. -1.
<mgrwt>
<rscale>  2 0.46187778E+02</rscale>
<asrwt>0</asrwt>
<pdfrwt beam="1">  1       21 0.49758687E-02 0.46187778E+02</pdfrwt>
<pdfrwt beam="2">  1       21 0.10529303E-01 0.46187778E+02</pdfrwt>
<totfact> 0.17417175E+07</totfact>
</mgrwt>
</event>
<event>
 4    1  0.4594485E+006  0.7183303E+02  0.7546771E-02  0.1353968E+00
         21   -1    0    0  503  501  0.00000000000E+00  0.00000000000E+00  0.30474729474E+02  0.30474729474E+02  0.00000000000E+00 0.  1.
         21   -1    0    0  504  502 -0.00000000000E+00 -0.00000000000E+00 -0.14993102534E+04  0.14993102534E+04  0.00000000000E+00 0. -1.
         21    1    1    2  503  502  0.20389679272E+02  0.68878485288E+02 -0.14548263016E+04  0.14565986244E+04  0.00000000000E+00 0. -1.
         21    1    1    2  504  501 -0.20389679272E+02 -0.68878485288E+02 -0.14009222317E+02  0.73186358472E+02  0.00000000000E+00 0.  1.
<mgrwt>
<rscale>  2 0.71833034E+02</rscale>
<asrwt>0</asrwt>
<pdfrwt beam="1">  1       21 0.46884199E-02 0.71833034E+02</pdfrwt>
<pdfrwt beam="2">  1       21 0.23066312E+00 0.71833034E+02</pdfrwt>
<totfact> 0.29758675E+04</totfact>
</mgrwt>
</event>
<event>
 4    1  0.4594485E+006  0.2149421E+02  0.7546771E-02  0.1717149E+00
         21   -1    0    0  504  501  0.00000000000E+00  0.00000000000E+00  0.26979664474E+03  0.26979664474E+03  0.00000000000E+00 0.  1.
         21   -1    0    0  503  502 -0.00000000000E+00 -0.00000000000E+00 -0.29199579937E+02  0.29199579937E+02  0.00000000000E+00 0.  1.
         21    1    1    2  503  501 -0.15028363016E+01  0.21441612242E+02  0.26534677009E+03  0.26621590795E+03  0.00000000000E+00 0.  1.
         21    1    1    2  504  502  0.15028363016E+01 -0.21441612242E+02 -0.24749705286E+02  0.32780316720E+02  0.00000000000E+00 0.  1.
<mgrwt>
<rscale>  2 0.21494214E+02</rscale>
<asrwt>0</asrwt>
<pdfrwt beam="1">  1       21 0.41507174E-01 0.21494214E+02</pdfrwt>
<pdfrwt beam="2">  1       21 0.44922432E-02 0.21494214E+02</pdfrwt>
<totfact> 0.16100332E+06</totfact>
</mgrwt>
</event>
<event>
 4    1  0.4594485E+006  0.2082523E+02  0.7546771E-02  0.1729398E+00
         21   -1    0    0  504  501  0.00000000000E+00  0.00000000000E+00  0.38979964167E+02  0.38979964167E+02  0.00000000000E+00 0.  1.
         21   -1    0    0  503  502 -0.00000000000E+00 -0.00000000000E+00 -0.16620524918E+02  0.16620524918E+02  0.00000000000E+00 0.  1.
         21    1    1    2  503  501 -0.20707113810E+02  0.22148321124E+01 -0.48045344448E+01  0.21372262277E+02  0.00000000000E+00 0.  1.
         21    1    1    2  504  502  0.20707113810E+02 -0.22148321124E+01  0.27163973693E+02  0.34228226808E+02  0.00000000000E+00 0.  1.
<mgrwt>
<rscale>  2 0.20825226E+02</rscale>
<asrwt>0</asrwt>
<pdfrwt beam="1">  1       21 0.59969175E-02 0.20825226E+02</pdfrwt>
<pdfrwt beam="2">  1       21 0.25570038E-02 0.20825226E+02</pdfrwt>
<totfact> 0.10667130E+08</totfact>
</mgrwt>
</event>
<event>
 4    1  0.4594485E+006  0.3281338E+02  0.7546771E-02  0.1568922E+00
         21   -1    0    0  504  501  0.00000000000E+00  0.00000000000E+00  0.19526868782E+03  0.19526868782E+03  0.00000000000E+00 0.  1.
         21   -1    0    0  501  502 -0.00000000000E+00 -0.00000000000E+00 -0.23332640612E+02  0.23332640612E+02  0.00000000000E+00 0. -1.
         21    1    1    2  503  502  0.18438193757E+02  0.27143156365E+02 -0.95483314563E+01  0.34174384560E+02  0.00000000000E+00 0. -1.
         21    1    1    2  504  503 -0.18438193757E+02 -0.27143156365E+02  0.18148437866E+03  0.18442694387E+03  0.00000000000E+00 0.  1.
<mgrwt>
<rscale>  2 0.32813380E+02</rscale>
<asrwt>0</asrwt>
<pdfrwt beam="1">  1       21 0.30041336E-01 0.32813380E+02</pdfrwt>
<pdfrwt beam="2">  1       21 0.35896371E-02 0.32813380E+02</pdfrwt>
<totfact> 0.44174318E+06</totfact>
</mgrwt>
</event>
<event>
 4    1  0.4594485E+006  0.2046083E+02  0.7546771E-02  0.1736316E+00
         21   -1    0    0  503  501  0.00000000000E+00  0.00000000000E+00  0.17158576353E+02  0.17158576353E+02  0.00000000000E+00 0.  1.
         21   -1    0    0  504  502 -0.00000000000E+00 -0.00000000000E+00 -0.15282669112E+03  0.15282669112E+03  0.00000000000E+00 0. -1.
         21    1    1    2  503  502 -0.15204698720E+02  0.13691698339E+02 -0.14574737075E+03  0.14717656589E+03  0.00000000000E+00 0. -1.
         21    1    1    2  504  501  0.15204698720E+02 -0.13691698339E+02  0.10079255985E+02  0.22808701581E+02  0.00000000000E+00 0.  1.
<mgrwt>
<rscale>  2 0.20460828E+02</rscale>
<asrwt>0</asrwt>
<pdfrwt beam="1">  1       21 0.26397811E-02 0.20460828E+02</pdfrwt>
<pdfrwt beam="2">  1       21 0.23511798E-01 0.20460828E+02</pdfrwt>
<totfact> 0.10314463E+07</totfact>
</mgrwt>
</event>
<event>
 4    1  0.4594485E+006  0.2642174E+02  0.7546771E-02  0.1641382E+00
         21   -1    0    0  503  501  0.00000000000E+00  0.00000000000E+00  0.50587092272E+03  0.50587092272E+03  0.00000000000E+00 0.  1.
         21   -1    0    0  501  502 -0.00000000000E+00 -0.00000000000E+00 -0.15713240488E+02  0.15713240488E+02  0.00000000000E+00 0.  1.
         21    1    1    2  503  504  0.24673087174E+02  0.94523562902E+01  0.49415578273E+03  0.49486164316E+03  0.00000000000E+00 0.  1.
         21    1    1    2  504  502 -0.24673087174E+02 -0.94523562902E+01 -0.39981004930E+01  0.26722520048E+02  0.00000000000E+00 0.  1.
<mgrwt>
<rscale>  2 0.26421739E+02</rscale>
<asrwt>0</asrwt>
<pdfrwt beam="1">  1       21 0.77826283E-01 0.26421739E+02</pdfrwt>
<pdfrwt beam="2">  1       21 0.24174220E-02 0.26421739E+02</pdfrwt>
<totfact> 0.12430516E+06</totfact>
</mgrwt>
</event>
<event>
 4    1  0.4594485E+006  0.2056889E+02  0.7546771E-02  0.1734246E+00
         21   -1    0    0  504  501  0.00000000000E+00  0.00000000000E+00  0.84690933872E+01  0.84690933872E+01  0.00000000000E+00 0.  1.
         21   -1    0    0  503  502 -0.00000000000E+00 -0.00000000000E+00 -0.12869945130E+03  0.12869945130E+03  0.00000000000E+00 0.  1.
         21    1    1    2  503  501  0.14740907044E+02  0.14345198212E+02 -0.11376204792E+03  0.11560658545E+03  0.00000000000E+00 0.  1.
         21    1    1    2  504  502 -0.14740907044E+02 -0.14345198212E+02 -0.64683099996E+01  0.21561959245E+02  0.00000000000E+00 0.  1.
<mgrwt>
<rscale>  2 0.20568886E+02</rscale>
<asrwt>0</asrwt>
<pdfrwt beam="1">  1       21 0.13029375E-02 0.20568886E+02</pdfrwt>
<pdfrwt beam="2">  1       21 0.19799915E-01 0.20568886E+02</pdfrwt>
<totfact> 0.40910755E+07</totfact>
</mgrwt>
</event>
<event>
 4    1  0.4594485E+006  0.2791838E+02  0.7546771E-02  0.1622308E+00
         21   -1    0    0  504  501  0.00000000000E+00  0.00000000000E+00  0.65412639214E+02  0.65412639214E+02  0.00000000000E+00 0. -1.
         21   -1    0    0  503  502 -0.00000000000E+00 -0.00000000000E+00 -0.33452344383E+02  0.33452344383E+02  0.00000000000E+00 0.  1.
         21    1    1    2  503  501 -0.24465530049E+02  0.13448931581E+02  0.55643412961E+02  0.62254520536E+02  0.00000000000E+00 0. -1.
         21    1    1    2  504  502  0.24465530049E+02 -0.13448931581E+02 -0.23683118130E+02  0.36610463061E+02  0.00000000000E+00 0.  1.
<mgrwt>
<rscale>  2 0.27918380E+02</rscale>
<asrwt>0</asrwt>
<pdfrwt beam="1">  1       21 0.10063483E-01 0.27918380E+02</pdfrwt>
<pdfrwt beam="2">  1       21 0.51465145E-02 0.27918380E+02</pdfrwt>
<totfact> 0.16380394E+07</totfact>
</mgrwt>
</event>
<event>
 4    1  0.4594485E+006  0.2440670E+02  0.7546771E-02  0.1669673E+00
         21   -1    0    0  503  501  0.00000000000E+00  0.00000000000E+00  0.21173311440E+02  0.21173311440E+02  0.00000000000E+00 0. -1.
         21   -1    0    0  501  502 -0.00000000000E+00 -0.00000000000E+00 -0.50140663844E+02  0.50140663844E+02  0.00000000000E+00 0.  1.
         21    1    1    2  503  504 -0.17783051094E+02  0.16716754148E+02  0.91389507787E+01  0.26061603880E+02  0.00000000000E+00 0. -1.
         21    1    1    2  504  502  0.17783051094E+02 -0.16716754148E+02 -0.38106303183E+02  0.45252371404E+02  0.00000000000E+00 0.  1.
<mgrwt>
<rscale>  2 0.24406695E+02</rscale>
<asrwt>0</asrwt>
<pdfrwt beam="1">  1       21 0.32574326E-02 0.24406695E+02</pdfrwt>
<pdfrwt beam="2">  1       21 0.77139482E-02 0.24406695E+02</pdfrwt>
<totfact> 0.50944899E+07</totfact>
</mgrwt>
</event>
<event>
 4    1  0.4594485E+006  0.2204431E+02  0.7546771E-02  0.1707487E+00
         21   -1    0    0  503  501  0.00000000000E+00  0.00000000000E+00  0.14623313712E+03  0.14623313712E+03  0.00000000000E+00 0.  1.
         21   -1    0    0  504  502 -0.00000000000E+00 -0.00000000000E+00 -0.45685506353E+01  0.45685506353E+01  0.00000000000E+00 0. -1.
         21    1    1    2  503  502  0.20908636047E+02 -0.69843007586E+01  0.31464120290E+02  0.38417995575E+02  0.00000000000E+00 0. -1.
         21    1    1    2  504  501 -0.20908636047E+02  0.69843007586E+01  0.11020046620E+03  0.11238369218E+03  0.00000000000E+00 0.  1.
<mgrwt>
<rscale>  2 0.22044308E+02</rscale>
<asrwt>0</asrwt>
<pdfrwt beam="1">  1       21 0.22497402E-01 0.22044308E+02</pdfrwt>
<pdfrwt beam="2">  1       21 0.70285405E-03 0.22044308E+02</pdfrwt>
<totfact> 0.83907431E+07</totfact>
</mgrwt>
</event>
<event>
 4    1  0.4594485E+006  0.4481016E+02  0.7546771E-02  0.1475530E+00
         21   -1    0    0  504  501  0.00000000000E+00  0.00000000000E+00  0.14139516756E+02  0.14139516756E+02  0.00000000000E+00 0.  1.
         21   -1    0    0  503  502 -0.00000000000E+00 -0.00000000000E+00 -0.23858365461E+03  0.23858365461E+03  0.00000000000E+00 0. -1.
         21    1    1    2  503  501  0.37305462818E+02  0.24824433781E+02 -0.19261622624E+03  0.19775985609E+03  0.00000000000E+00 0. -1.
         21    1    1    2  504  502 -0.37305462818E+02 -0.24824433781E+02 -0.31827911613E+02  0.54963315277E+02  0.00000000000E+00 0.  1.
<mgrwt>
<rscale>  2 0.44810156E+02</rscale>
<asrwt>0</asrwt>
<pdfrwt beam="1">  1       21 0.21753104E-02 0.44810156E+02</pdfrwt>
<pdfrwt beam="2">  1       21 0.36705175E-01 0.44810156E+02</pdfrwt>
<totfact> 0.69382858E+06</totfact>
</mgrwt>
</event>
<event>
 4    1  0.4594485E+006  0.2608464E+02  0.7546771E-02  0.1645894E+00
         21   -1    0    0  503  501  0.00000000000E+00  0.00000000000E+00  0.16287235613E+03  0.16287235613E+03  0.00000000000E+00 0. -1.
         21   -1    0    0  504  502 -0.00000000000E+00 -0.00000000000E+00 -0.17055621111E+03  0.17055621111E+03  0.00000000000E+00 0. -1.
         21    1    1    2  503  502 -0.14444525832E+02  0.21720137253E+02  0.16081797089E+03  0.16291969940E+03  0.00000000000E+00 0. -1.
         21    1    1    2  504  501  0.14444525832E+02 -0.21720137253E+02 -0.16850182587E+03  0.17050886784E+03  0.00000000000E+00 0. -1.
<mgrwt>
<rscale>  2 0.26084645E+02</rscale>
<asrwt>0</asrwt>
<pdfrwt beam="1">  1       21 0.25057286E-01 0.26084645E+02</pdfrwt>
<pdfrwt beam="2">  1       21 0.26239417E-01 0.26084645E+02</pdfrwt>
<totfact> 0.21526411E+05</totfact>
</mgrwt>
</event>
<event>
 4    1  0.4594485E+006  0.2192553E+02  0.7546771E-02  0.1709543E+00
         21   -1    0    0  504  501  0.00000000000E+00  0.00000000000E+00  0.50314796329E+02  0.50314796329E+02  0.00000000000E+00 0.  1.
         21   -1    0    0  503  502 -0.00000000000E+00 -0.00000000000E+00 -0.30074065943E+02  0.30074065943E+02  0.00000000000E+00 0.  1.
         21    1    1    2  503  501 -0.21208096849E+02  0.55628546638E+01 -0.23080908013E+02  0.31834840014E+02  0.00000000000E+00 0.  1.
         21    1    1    2  504  502  0.21208096849E+02 -0.55628546638E+01  0.43321638399E+02  0.48554022259E+02  0.00000000000E+00 0.  1.
<mgrwt>
<rscale>  2 0.21925527E+02</rscale>
<asrwt>0</asrwt>
<pdfrwt beam="1">  1       21 0.77407379E-02 0.21925527E+02</pdfrwt>
<pdfrwt beam="2">  1       21 0.46267794E-02 0.21925527E+02</pdfrwt>
<totfact> 0.28385988E+07</totfact>
</mgrwt>
</event>
<event>
 4    1  0.4594485E+006  0.2075433E+02  0.7546771E-02  0.1730730E+00
         21   -1    0    0  504  501  0.00000000000E+00  0.00000000000E+00  0.18040814905E+01  0.18040814905E+01  0.00000000000E+00 0. -1.
         21   -1    0    0  501  502 -0.00000000000E+00 -0.00000000000E+00 -0.49895719240E+03  0.49895719240E+03  0.00000000000E+00 0. -1.
         21    1    1    2  503  502 -0.91004624591E+01  0.18652718065E+02 -0.42938573958E+03  0.42988702662E+03  0.00000000000E+00 0. -1.
         21    1    1    2  504  503  0.91004624591E+01 -0.18652718065E+02 -0.67767371338E+02  0.70874247271E+02  0.00000000000E+00 0. -1.
<mgrwt>
<rscale>  2 0.20754332E+02</rscale>
<asrwt>0</asrwt>
<pdfrwt beam="1">  1       21 0.27755089E-03 0.20754332E+02</pdfrwt>
<pdfrwt beam="2">  1       21 0.76762676E-01 0.20754332E+02</pdfrwt>
<totfact> 0.31463917E+07</totfact>
</mgrwt>
</event>
<event>
 4    1  0.4594485E+006  0.3448402E+02  0.7546771E-02  0.1553231E+00
         21   -1    0    0  504  501  0.00000000000E+00  0.00000000000E+00  0.14042925036E+03  0.14042925036E+03  0.00000000000E+00 0. -1.
         21   -1    0    0  501  502 -0.00000000000E+00 -0.00000000000E+00 -0.54651327507E+02  0.54651327507E+02  0.00000000000E+00 0.  1.
         21    1    1    2  503  502 -0.17789922350E+02  0.29540923014E+02 -0.46776778926E+02  0.58113806591E+02  0.00000000000E+00 0.  1.
         21    1    1    2  504  503  0.17789922350E+02 -0.29540923014E+02  0.13255470178E+03  0.13696677127E+03  0.00000000000E+00 0. -1.
<mgrwt>
<rscale>  2 0.34484018E+02</rscale>
<asrwt>0</asrwt>
<pdfrwt beam="1">  1       21 0.21604500E-01 0.34484018E+02</pdfrwt>
<pdfrwt beam="2">  1       21 0.84078966E-02 0.34484018E+02</pdfrwt>
<totfact> 0.20290663E+06</totfact>
</mgrwt>
</event>
<event>
 4    1  0.4594485E+006  0.2920474E+02  0.7546771E-02  0.1607049E+00
         21   -1    0    0  502  501  0.00000000000E+00  0.00000000000E+00  0.32651134613E+02  0.32651134613E+02  0.00000000000E+00 0.  1.
         21   -1    0    0  503  502 -0.00000000000E+00 -0.00000000000E+00 -0.33582934069E+02  0.33582934069E+02  0.00000000000E+00 0.  1.
         21    1    1    2  503  504 -0.22432245788E+02  0.18700561043E+02 -0.16075271575E+02  0.33336631363E+02  0.00000000000E+00 0.  1.
         21    1    1    2  504  501  0.22432245788E+02 -0.18700561043E+02  0.15143472119E+02  0.32897437320E+02  0.00000000000E+00 0.  1.
<mgrwt>
<rscale>  2 0.29204737E+02</rscale>
<asrwt>0</asrwt>
<pdfrwt beam="1">  1       21 0.50232515E-02 0.29204737E+02</pdfrwt>
<pdfrwt beam="2">  1       21 0.51666052E-02 0.29204737E+02</pdfrwt>
<totfact> 0.51209898E+07</totfact>
</mgrwt>
</event>
<event>
 4    1  0.4594485E+006  0.2663404E+02  0.7546771E-02  0.1638583E+00
         21   -1    0    0  502  501  0.00000000000E+00  0.00000000000E+00  0.10555560058E+03  0.10555560058E+03  0.00000000000E+00 0. -1.
         21   -1    0    0  504  502 -0.00000000000E+00 -0.00000000000E+00 -0.13487081039E+02  0.13487081039E+02  0.00000000000E+00 0. -1.
         21    1    1    2  503  501  0.10503094286E+02  0.24475637657E+02  0.88194473150E+02  0.92128371974E+02  0.00000000000E+00 0. -1.
         21    1    1    2  504  503 -0.10503094286E+02 -0.24475637657E+02  0.38740463926E+01  0.26914309647E+02  0.00000000000E+00 0. -1.
<mgrwt>
<rscale>  2 0.26634035E+02</rscale>
<asrwt>0</asrwt>
<pdfrwt beam="1">  1       21 0.16239323E-01 0.26634035E+02</pdfrwt>
<pdfrwt beam="2">  1       21 0.20749356E-02 0.26634035E+02</pdfrwt>
<totfact> 0.30113232E+07</totfact>
</mgrwt>
</event>
<event>
 4    1  0.4594485E+006  0.2544034E+02  0.7546771E-02  0.1654757E+00
         21   -1    0    0  503  501  0.00000000000E+00  0.00000000000E+00  0.17553486667E+04  0.17553486667E+04  0.00000000000E+00 0.  1.
         21   -1    0    0  504  502 -0.00000000000E+00 -0.00000000000E+00 -0.70610321016E+00  0.70610321016E+00  0.00000000000E+00 0.  1.
         21    1    1    2  503  502  0.20200293048E+02 -0.15464767987E+02  0.14842581244E+04  0.14844761335E+04  0.00000000000E+00 0.  1.
         21    1    1    2  504  501 -0.20200293048E+02  0.15464767987E+02  0.27038443903E+03  0.27157863642E+03  0.00000000000E+00 0.  1.
<mgrwt>
<rscale>  2 0.25440340E+02</rscale>
<asrwt>0</asrwt>
<pdfrwt beam="1">  1       21 0.27005015E+00 0.25440340E+02</pdfrwt>
<pdfrwt beam="2">  1       21 0.10863267E-03 0.25440340E+02</pdfrwt>
<totfact> 0.60530882E+06</totfact>
</mgrwt>
</event>
<event>
 4    1  0.4594485E+006  0.2190640E+02  0.7546771E-02  0.1709876E+00
         21   -1    0    0  504  501  0.00000000000E+00  0.00000000000E+00  0.24933482362E+03  0.24933482362E+03  0.00000000000E+00 0. -1.
         21   -1    0    0  501  502 -0.00000000000E+00 -0.00000000000E+00 -0.14616841387E+02  0.14616841387E+02  0.00000000000E+00 0.  1.
         21    1    1    2  503  502  0.15681055432E+02  0.15296896932E+02 -0.56212614326E+01  0.22616125559E+02  0.00000000000E+00 0.  1.
         21    1    1    2  504  503 -0.15681055432E+02 -0.15296896932E+02  0.24033924366E+03  0.24133553944E+03  0.00000000000E+00 0. -1.
<mgrwt>
<rscale>  2 0.21906404E+02</rscale>
<asrwt>0</asrwt>
<pdfrwt beam="1">  1       21 0.38359200E-01 0.21906404E+02</pdfrwt>
<pdfrwt beam="2">  1       21 0.22487450E-02 0.21906404E+02</pdfrwt>
<totfact> 0.55016443E+06</totfact>
</mgrwt>
</event>
<event>
 4    1  0.4594485E+006  0.3066940E+02  0.7546771E-02  0.1590805E+00
         21   -1    0    0  503  501  0.00000000000E+00  0.00000000000E+00  0.11520673522E+02  0.11520673522E+02  0.00000000000E+00 0. -1.
         21   -1    0    0  504  502 -0.00000000000E+00 -0.00000000000E+00 -0.13410932562E+03  0.13410932562E+03  0.00000000000E+00 0.  1.
         21    1    1    2  503  502  0.44327982647E+00  0.30666198593E+02 -0.10683725429E+03  0.11115219808E+03  0.00000000000E+00 0.  1.
         21    1    1    2  504  501 -0.44327982647E+00 -0.30666198593E+02 -0.15751397801E+02  0.34477801058E+02  0.00000000000E+00 0. -1.
<mgrwt>
<rscale>  2 0.30669402E+02</rscale>
<asrwt>0</asrwt>
<pdfrwt beam="1">  1       21 0.17724114E-02 0.30669402E+02</pdfrwt>
<pdfrwt beam="2">  1       21 0.20632203E-01 0.30669402E+02</pdfrwt>
<totfact> 0.26017303E+07</totfact>
</mgrwt>
</event>
<event>
 4    1  0.4594485E+006  0.2237648E+02  0.7546771E-02  0.1701821E+00
         21   -1    0    0  504  501  0.00000000000E+00  0.00000000000E+00  0.32674178446E+02  0.32674178446E+02  0.00000000000E+00 0.  1.
         21   -1    0    0  503  502 -0.00000000000E+00 -0.00000000000E+00 -0.17744969837E+02  0.17744969837E+02  0.00000000000E+00 0.  1.
         21    1    1    2  503  501 -0.16026729875E+01 -0.22319014683E+02  0.16775703857E+02  0.27966608966E+02  0.00000000000E+00 0.  1.
         21    1    1    2  504  502  0.16026729875E+01  0.22319014683E+02 -0.18464952483E+01  0.22452539318E+02  0.00000000000E+00 0.  1.
<mgrwt>
<rscale>  2 0.22376483E+02</rscale>
<asrwt>0</asrwt>
<pdfrwt beam="1">  1       21 0.50267967E-02 0.22376483E+02</pdfrwt>
<pdfrwt beam="2">  1       21 0.27299954E-02 0.22376483E+02</pdfrwt>
<totfact> 0.13051048E+08</totfact>
</mgrwt>
</event>
<event>
 4    1  0.4594485E+006  0.2056671E+02  0.7546771E-02  0.1734288E+00
         21   -1    0    0  504  501  0.00000000000E+00  0.00000000000E+00  0.15315753681E+02  0.15315753681E+02  0.00000000000E+00 0. -1.
         21   -1    0    0  503  502 -0.00000000000E+00 -0.00000000000E+00 -0.11543400608E+03  0.11543400608E+03  0.00000000000E+00 0.  1.
         21    1    1    2  503  501 -0.15775640703E+02  0.13195400711E+02  0.69613748761E+01  0.21712903530E+02  0.00000000000E+00 0. -1.
         21    1    1    2  504  502  0.15775640703E+02 -0.13195400711E+02 -0.10707962727E+03  0.10903685623E+03  0.00000000000E+00 0.  1.
<mgrwt>
<rscale>  2 0.20566707E+02</rscale>
<asrwt>0</asrwt>
<pdfrwt beam="1">  1       21 0.23562698E-02 0.20566707E+02</pdfrwt>
<pdfrwt beam="2">  1       21 0.17759078E-01 0.20566707E+02</pdfrwt>
<totfact> 0.20040584E+07</totfact>
</mgrwt>
</event>
<event>
 4    1  0.4594485E+006  0.2077554E+02  0.7546771E-02  0.1730331E+00
         21   -1    0    0  503  501  0.00000000000E+00  0.00000000000E+00  0.62170032166E+02  0.62170032166E+02  0.00000000000E+00 0.  1.
         21   -1    0    0  504  502 -0.00000000000E+00 -0.00000000000E+00 -0.72572859826E+01  0.72572859826E+01  0.00000000000E+00 0.  1.
         21    1    1    2  503  502 -0.20728699785E+02  0.13943232572E+01  0.20228081009E+02  0.28996523816E+02  0.00000000000E+00 0.  1.
         21    1    1    2  504  501  0.20728699785E+02 -0.13943232572E+01  0.34684665174E+02  0.40430794333E+02  0.00000000000E+00 0.  1.
<mgrwt>
<rscale>  2 0.20775542E+02</rscale>
<asrwt>0</asrwt>
<pdfrwt beam="1">  1       21 0.95646200E-02 0.20775542E+02</pdfrwt>
<pdfrwt beam="2">  1       21 0.11165056E-02 0.20775542E+02</pdfrwt>
<totfact> 0.17637708E+08</totfact>
</mgrwt>
</event>
<event>
 4    1  0.4594485E+006  0.2173056E+02  0.7546771E-02  0.1712954E+00
         21   -1    0    0  503  501  0.00000000000E+00  0.00000000000E+00  0.11356749472E+02  0.11356749472E+02  0.00000000000E+00 0. -1.
         21   -1    0    0  501  502 -0.00000000000E+00 -0.00000000000E+00 -0.46890518366E+02  0.46890518366E+02  0.00000000000E+00 0. -1.
         21    1    1    2  503  504 -0.21056118819E+02 -0.53718724113E+01 -0.79661444867E+01  0.23144688611E+02  0.00000000000E+00 0. -1.
         21    1    1    2  504  502  0.21056118819E+02  0.53718724113E+01 -0.27567624408E+02  0.35102579227E+02  0.00000000000E+00 0. -1.
<mgrwt>
<rscale>  2 0.21730558E+02</rscale>
<asrwt>0</asrwt>
<pdfrwt beam="1">  1       21 0.17471923E-02 0.21730558E+02</pdfrwt>
<pdfrwt beam="2">  1       21 0.72139258E-02 0.21730558E+02</pdfrwt>
<totfact> 0.14388137E+08</totfact>
</mgrwt>
</event>
<event>
 4    1  0.4594485E+006  0.3352634E+02  0.7546771E-02  0.1562090E+00
         21   -1    0    0  502  501  0.00000000000E+00  0.00000000000E+00  0.10762733951E+03  0.10762733951E+03  0.00000000000E+00 0.  1.
         21   -1    0    0  503  502 -0.00000000000E+00 -0.00000000000E+00 -0.27097478845E+02  0.27097478845E+02  0.00000000000E+00 0. -1.
         21    1    1    2  503  504  0.31633871164E+02 -0.11104682846E+02 -0.12544441483E+02  0.35796351742E+02  0.00000000000E+00 0. -1.
         21    1    1    2  504  501 -0.31633871164E+02  0.11104682846E+02  0.93074302144E+02  0.98928466609E+02  0.00000000000E+00 0.  1.
<mgrwt>
<rscale>  2 0.33526345E+02</rscale>
<asrwt>0</asrwt>
<pdfrwt beam="1">  1       21 0.16558052E-01 0.33526345E+02</pdfrwt>
<pdfrwt beam="2">  1       21 0.41688430E-02 0.33526345E+02</pdfrwt>
<totfact> 0.10142644E+07</totfact>
</mgrwt>
</event>
<event>
 4    1  0.4594485E+006  0.2463799E+02  0.7546771E-02  0.1666257E+00
         21   -1    0    0  504  501  0.00000000000E+00  0.00000000000E+00  0.42008436577E+02  0.42008436577E+02  0.00000000000E+00 0.  1.
         21   -1    0    0  503  502 -0.00000000000E+00 -0.00000000000E+00 -0.29925510966E+02  0.29925510966E+02  0.00000000000E+00 0.  1.
         21    1    1    2  503  501  0.13075912073E+02  0.20881839821E+02  0.31905878368E+02  0.40311484533E+02  0.00000000000E+00 0.  1.
         21    1    1    2  504  502 -0.13075912073E+02 -0.20881839821E+02 -0.19822952756E+02  0.31622463010E+02  0.00000000000E+00 0.  1.
<mgrwt>
<rscale>  2 0.24637993E+02</rscale>
<asrwt>0</asrwt>
<pdfrwt beam="1">  1       21 0.64628364E-02 0.24637993E+02</pdfrwt>
<pdfrwt beam="2">  1       21 0.46039247E-02 0.24637993E+02</pdfrwt>
<totfact> 0.39434188E+07</totfact>
</mgrwt>
</event>
<event>
 4    1  0.4594485E+006  0.7458979E+02  0.7546771E-02  0.1345146E+00
         21   -1    0    0  503  501  0.00000000000E+00  0.00000000000E+00  0.11666041045E+02  0.11666041045E+02  0.00000000000E+00 0. -1.
         21   -1    0    0  504  502 -0.00000000000E+00 -0.00000000000E+00 -0.12659354338E+04  0.12659354338E+04  0.00000000000E+00 0. -1.
         21    1    1    2  503  502  0.11126718077E+02 -0.73755225999E+02 -0.12281553157E+03  0.14369165603E+03  0.00000000000E+00 0. -1.
         21    1    1    2  504  501 -0.11126718077E+02  0.73755225999E+02 -0.11314538612E+04  0.11339098188E+04  0.00000000000E+00 0. -1.
<mgrwt>
<rscale>  2 0.74589793E+02</rscale>
<asrwt>0</asrwt>
<pdfrwt beam="1">  1       21 0.17947757E-02 0.74589793E+02</pdfrwt>
<pdfrwt beam="2">  1       21 0.19475928E+00 0.74589793E+02</pdfrwt>
<totfact> 0.22769674E+05</totfact>
</mgrwt>
</event>
<event>
 4    1  0.4594485E+006  0.2202209E+02  0.7546771E-02  0.1707870E+00
         21   -1    0    0  504  501  0.00000000000E+00  0.00000000000E+00  0.17315763603E+02  0.17315763603E+02  0.00000000000E+00 0.  1.
         21   -1    0    0  503  502 -0.00000000000E+00 -0.00000000000E+00 -0.32285691833E+02  0.32285691833E+02  0.00000000000E+00 0.  1.
         21    1    1    2  503  501 -0.64351888036E+01 -0.21060878363E+02  0.15429321898E+01  0.22076070577E+02  0.00000000000E+00 0.  1.
         21    1    1    2  504  502  0.64351888036E+01  0.21060878363E+02 -0.16512860420E+02  0.27525384859E+02  0.00000000000E+00 0.  1.
<mgrwt>
<rscale>  2 0.22022086E+02</rscale>
<asrwt>0</asrwt>
<pdfrwt beam="1">  1       21 0.26639636E-02 0.22022086E+02</pdfrwt>
<pdfrwt beam="2">  1       21 0.49670295E-02 0.22022086E+02</pdfrwt>
<totfact> 0.13749192E+08</totfact>
</mgrwt>
</event>
<event>
 4    1  0.4594485E+006  0.2545884E+02  0.7546771E-02  0.1654498E+00
         21   -1    0    0  504  501  0.00000000000E+00  0.00000000000E+00  0.68020837540E+03  0.68020837540E+03  0.00000000000E+00 0.  1.
         21   -1    0    0  503  502 -0.00000000000E+00 -0.00000000000E+00 -0.64883334252E+02  0.64883334252E+02  0.00000000000E+00 0. -1.
         21    1    1    2  503  501 -0.31123662177E+01 -0.25267876036E+02  0.67746266273E+03  0.67794086157E+03  0.00000000000E+00 0.  1.
         21    1    1    2  504  502  0.31123662177E+01  0.25267876036E+02 -0.62137621584E+02  0.67150848088E+02  0.00000000000E+00 0. -1.
<mgrwt>
<rscale>  2 0.25458837E+02</rscale>
<asrwt>0</asrwt>
<pdfrwt beam="1">  1       21 0.10464744E+00 0.25458837E+02</pdfrwt>
<pdfrwt beam="2">  1       21 0.99820519E-02 0.25458837E+02</pdfrwt>
<totfact> 0.67722089E+04</totfact>
</mgrwt>
</event>
<event>
 4    1  0.4594485E+006  0.3230645E+02  0.7546771E-02  0.1573909E+00
         21   -1    0    0  503  501  0.00000000000E+00  0.00000000000E+00  0.76887813606E+01  0.76887813606E+01  0.00000000000E+00 0.  1.
         21   -1    0    0  504  502 -0.00000000000E+00 -0.00000000000E+00 -0.19550034933E+03  0.19550034933E+03  0.00000000000E+00 0.  1.
         21    1    1    2  503  502 -0.11220102889E+02 -0.30295480621E+02 -0.37737869005E+02  0.49677496031E+02  0.00000000000E+00 0.  1.
         21    1    1    2  504  501  0.11220102889E+02  0.30295480621E+02 -0.15007369897E+03  0.15351163466E+03  0.00000000000E+00 0.  1.
<mgrwt>
<rscale>  2 0.32306452E+02</rscale>
<asrwt>0</asrwt>
<pdfrwt beam="1">  1       21 0.11828894E-02 0.32306452E+02</pdfrwt>
<pdfrwt beam="2">  1       21 0.30076978E-01 0.32306452E+02</pdfrwt>
<totfact> 0.24735152E+07</totfact>
</mgrwt>
</event>
<event>
 4    1  0.4594485E+006  0.2776460E+02  0.7546771E-02  0.1624199E+00
         21   -1    0    0  503  501  0.00000000000E+00  0.00000000000E+00  0.18176510478E+02  0.18176510478E+02  0.00000000000E+00 0.  1.
         21   -1    0    0  501  502 -0.00000000000E+00 -0.00000000000E+00 -0.11673946219E+04  0.11673946219E+04  0.00000000000E+00 0.  1.
         21    1    1    2  503  504  0.19498183527E+02 -0.19765970629E+02  0.73092181381E+01  0.28710580376E+02  0.00000000000E+00 0.  1.
         21    1    1    2  504  502 -0.19498183527E+02  0.19765970629E+02 -0.11565273296E+04  0.11568605520E+04  0.00000000000E+00 0.  1.
<mgrwt>
<rscale>  2 0.27764595E+02</rscale>
<asrwt>0</asrwt>
<pdfrwt beam="1">  1       21 0.27963850E-02 0.27764595E+02</pdfrwt>
<pdfrwt beam="2">  1       21 0.17959925E+00 0.27764595E+02</pdfrwt>
<totfact> 0.14668577E+05</totfact>
</mgrwt>
</event>
<event>
 4    1  0.4594485E+006  0.3264697E+02  0.7546771E-02  0.1570547E+00
         21   -1    0    0  502  501  0.00000000000E+00  0.00000000000E+00  0.18380974446E+02  0.18380974446E+02  0.00000000000E+00 0. -1.
         21   -1    0    0  504  502 -0.00000000000E+00 -0.00000000000E+00 -0.41702701282E+03  0.41702701282E+03  0.00000000000E+00 0. -1.
         21    1    1    2  503  501 -0.32215414694E+02  0.52906881095E+01  0.26795166817E+01  0.32756741813E+02  0.00000000000E+00 0. -1.
         21    1    1    2  504  503  0.32215414694E+02 -0.52906881095E+01 -0.40132555506E+03  0.40265124545E+03  0.00000000000E+00 0. -1.
<mgrwt>
<rscale>  2 0.32646965E+02</rscale>
<asrwt>0</asrwt>
<pdfrwt beam="1">  1       21 0.28278423E-02 0.32646965E+02</pdfrwt>
<pdfrwt beam="2">  1       21 0.64158001E-01 0.32646965E+02</pdfrwt>
<totfact> 0.14772692E+06</totfact>
</mgrwt>
</event>
<event>
 4    1  0.4594485E+006  0.2458761E+02  0.7546771E-02  0.1666997E+00
         21   -1    0    0  503  501  0.00000000000E+00  0.00000000000E+00  0.16365554665E+02  0.16365554665E+02  0.00000000000E+00 0. -1.
         21   -1    0    0  504  502 -0.00000000000E+00 -0.00000000000E+00 -0.52185630558E+02  0.52185630558E+02  0.00000000000E+00 0.  1.
         21    1    1    2  503  502  0.65783529451E+01  0.23691255640E+02 -0.36435811077E+02  0.43955871623E+02  0.00000000000E+00 0.  1.
         21    1    1    2  504  501 -0.65783529451E+01 -0.23691255640E+02  0.61573518365E+00  0.24595313600E+02  0.00000000000E+00 0. -1.
<mgrwt>
<rscale>  2 0.24587605E+02</rscale>
<asrwt>0</asrwt>
<pdfrwt beam="1">  1       21 0.25177777E-02 0.24587605E+02</pdfrwt>
<pdfrwt beam="2">  1       21 0.80285585E-02 0.24587605E+02</pdfrwt>
<totfact> 0.71420196E+07</totfact>
</mgrwt>
</event>
<event>
 4    1  0.4594485E+006  0.2443181E+02  0.7546771E-02  0.1669300E+00
         21   -1    0    0  504  501  0.00000000000E+00  0.00000000000E+00  0.63080290193E+02  0.63080290193E+02  0.00000000000E+00 0.  1.
         21   -1    0    0  503  502 -0.00000000000E+00 -0.00000000000E+00 -0.17742214414E+02  0.17742214414E+02  0.00000000000E+00 0.  1.
         21    1    1    2  503  501 -0.23246594457E+01 -0.24320962090E+02 -0.49367042316E+01  0.24925574963E+02  0.00000000000E+00 0.  1.
         21    1    1    2  504  502  0.23246594457E+01  0.24320962090E+02  0.50274780010E+02  0.55896929644E+02  0.00000000000E+00 0.  1.
<mgrwt>
<rscale>  2 0.24431808E+02</rscale>
<asrwt>0</asrwt>
<pdfrwt beam="1">  1       21 0.97046599E-02 0.24431808E+02</pdfrwt>
<pdfrwt beam="2">  1       21 0.27295715E-02 0.24431808E+02</pdfrwt>
<totfact> 0.46043746E+07</totfact>
</mgrwt>
</event>
<event>
 4    1  0.4594485E+006  0.3299170E+02  0.7546771E-02  0.1567194E+00
         21   -1    0    0  503  501  0.00000000000E+00  0.00000000000E+00  0.42587491883E+03  0.42587491883E+03  0.00000000000E+00 0.  1.
         21   -1    0    0  501  502 -0.00000000000E+00 -0.00000000000E+00 -0.87171692372E+01  0.87171692372E+01  0.00000000000E+00 0.  1.
         21    1    1    2  503  504 -0.31065538123E+02  0.11107863115E+02  0.39126375414E+03  0.39265223491E+03  0.00000000000E+00 0.  1.
         21    1    1    2  504  502  0.31065538123E+02 -0.11107863115E+02  0.25893995457E+02  0.41939853154E+02  0.00000000000E+00 0.  1.
<mgrwt>
<rscale>  2 0.32991700E+02</rscale>
<asrwt>0</asrwt>
<pdfrwt beam="1">  1       21 0.65519202E-01 0.32991700E+02</pdfrwt>
<pdfrwt beam="2">  1       21 0.13411033E-02 0.32991700E+02</pdfrwt>
<totfact> 0.45103722E+06</totfact>
</mgrwt>
</event>
<event>
 4    1  0.4594485E+006  0.2169051E+02  0.7546771E-02  0.1713660E+00
         21   -1    0    0  503  501  0.00000000000E+00  0.00000000000E+00  0.48197293911E+03  0.48197293911E+03  0.00000000000E+00 0. -1.
         21   -1    0    0  504  502 -0.00000000000E+00 -0.00000000000E+00 -0.16740464681E+02  0.16740464681E+02  0.00000000000E+00 0.  1.
         21    1    1    2  503  502  0.31441649233E+01  0.21461418848E+02  0.47459364909E+03  0.47508905484E+03  0.00000000000E+00 0. -1.
         21    1    1    2  504  501 -0.31441649233E+01 -0.21461418848E+02 -0.93611746659E+01  0.23624348947E+02  0.00000000000E+00 0.  1.
<mgrwt>
<rscale>  2 0.21690511E+02</rscale>
<asrwt>0</asrwt>
<pdfrwt beam="1">  1       21 0.74149672E-01 0.21690511E+02</pdfrwt>
<pdfrwt beam="2">  1       21 0.25754565E-02 0.21690511E+02</pdfrwt>
<totfact> 0.12239292E+06</totfact>
</mgrwt>
</event>
<event>
 4    1  0.4594485E+006  0.4634367E+02  0.7546771E-02  0.1466124E+00
         21   -1    0    0  502  501  0.00000000000E+00  0.00000000000E+00  0.13317913935E+02  0.13317913935E+02  0.00000000000E+00 0. -1.
         21   -1    0    0  504  502 -0.00000000000E+00 -0.00000000000E+00 -0.25359724871E+03  0.25359724871E+03  0.00000000000E+00 0.  1.
         21    1    1    2  503  501 -0.28248645863E+02  0.36738940675E+02 -0.39612256106E+02  0.60966110166E+02  0.00000000000E+00 0. -1.
         21    1    1    2  504  503  0.28248645863E+02 -0.36738940675E+02 -0.20066707867E+03  0.20594905248E+03  0.00000000000E+00 0.  1.
<mgrwt>
<rscale>  2 0.46343670E+02</rscale>
<asrwt>0</asrwt>
<pdfrwt beam="1">  1       21 0.20489100E-02 0.46343670E+02</pdfrwt>
<pdfrwt beam="2">  1       21 0.39014958E-01 0.46343670E+02</pdfrwt>
<totfact> 0.68043164E+06</totfact>
</mgrwt>
</event>
<event>
 4    1  0.4594485E+006  0.2184529E+02  0.7546771E-02  0.1710941E+00
         21   -1    0    0  502  501  0.00000000000E+00  0.00000000000E+00  0.86132422588E+03  0.86132422588E+03  0.00000000000E+00 0.  1.
         21   -1    0    0  503  502 -0.00000000000E+00 -0.00000000000E+00 -0.99868808084E+01  0.99868808084E+01  0.00000000000E+00 0.  1.
         21    1    1    2  503  504  0.19269233767E+02 -0.10291416989E+02  0.22701434714E+01  0.21962927514E+02  0.00000000000E+00 0.  1.
         21    1    1    2  504  501 -0.19269233767E+02  0.10291416989E+02  0.84906720160E+03  0.84934817918E+03  0.00000000000E+00 0.  1.
<mgrwt>
<rscale>  2 0.21845289E+02</rscale>
<asrwt>0</asrwt>
<pdfrwt beam="1">  1       21 0.13251136E+00 0.21845289E+02</pdfrwt>
<pdfrwt beam="2">  1       21 0.15364439E-02 0.21845289E+02</pdfrwt>
<totfact> 0.76217975E+05</totfact>
</mgrwt>
</event>
<event>
 4    1  0.4594485E+006  0.2157312E+02  0.7546771E-02  0.1715741E+00
         21   -1    0    0  502  501  0.00000000000E+00  0.00000000000E+00  0.22492583926E+03  0.22492583926E+03  0.00000000000E+00 0.  1.
         21   -1    0    0  504  502 -0.00000000000E+00 -0.00000000000E+00 -0.28500120990E+02  0.28500120990E+02  0.00000000000E+00 0.  1.
         21    1    1    2  503  501  0.21535399689E+02  0.12752178913E+01  0.22023946164E+03  0.22129351569E+03  0.00000000000E+00 0.  1.
         21    1    1    2  504  503 -0.21535399689E+02 -0.12752178913E+01 -0.23813743370E+02  0.32132444565E+02  0.00000000000E+00 0.  1.
<mgrwt>
<rscale>  2 0.21573123E+02</rscale>
<asrwt>0</asrwt>
<pdfrwt beam="1">  1       21 0.34603974E-01 0.21573123E+02</pdfrwt>
<pdfrwt beam="2">  1       21 0.43846341E-02 0.21573123E+02</pdfrwt>
<totfact> 0.23498632E+06</totfact>
</mgrwt>
</event>
<event>
 4    1  0.4594485E+006  0.5956827E+02  0.7546771E-02  0.1399652E+00
         21   -1    0    0  504  501  0.00000000000E+00  0.00000000000E+00  0.43397241746E+03  0.43397241746E+03  0.00000000000E+00 0.  1.
         21   -1    0    0  503  502 -0.00000000000E+00 -0.00000000000E+00 -0.15479031767E+03  0.15479031767E+03  0.00000000000E+00 0. -1.
         21    1    1    2  503  501  0.89448408170E+01  0.58892856086E+02 -0.14690976597E+03  0.15852715229E+03  0.00000000000E+00 0. -1.
         21    1    1    2  504  502 -0.89448408170E+01 -0.58892856086E+02  0.42609186576E+03  0.43023558284E+03  0.00000000000E+00 0.  1.
<mgrwt>
<rscale>  2 0.59568269E+02</rscale>
<asrwt>0</asrwt>
<pdfrwt beam="1">  1       21 0.66764987E-01 0.59568269E+02</pdfrwt>
<pdfrwt beam="2">  1       21 0.23813895E-01 0.59568269E+02</pdfrwt>
<totfact> 0.37580002E+04</totfact>
</mgrwt>
</event>
<event>
 4    1  0.4594485E+006  0.2409640E+02  0.7546771E-02  0.1674330E+00
         21   -1    0    0  504  501  0.00000000000E+00  0.00000000000E+00  0.85771260536E+02  0.85771260536E+02  0.00000000000E+00 0. -1.
         21   -1    0    0  503  502 -0.00000000000E+00 -0.00000000000E+00 -0.36277791167E+02  0.36277791167E+02  0.00000000000E+00 0.  1.
         21    1    1    2  503  501  0.25746655714E+01 -0.23958460136E+02  0.79783807156E+02  0.83343221676E+02  0.00000000000E+00 0. -1.
         21    1    1    2  504  502 -0.25746655714E+01  0.23958460136E+02 -0.30290337787E+02  0.38705830028E+02  0.00000000000E+00 0.  1.
<mgrwt>
<rscale>  2 0.24096405E+02</rscale>
<asrwt>0</asrwt>
<pdfrwt beam="1">  1       21 0.13195578E-01 0.24096405E+02</pdfrwt>
<pdfrwt beam="2">  1       21 0.55811987E-02 0.24096405E+02</pdfrwt>
<totfact> 0.88830823E+06</totfact>
</mgrwt>
</event>
<event>
 4    1  0.4594485E+006  0.2149204E+02  0.7546771E-02  0.1717188E+00
         21   -1    0    0  503  501  0.00000000000E+00  0.00000000000E+00  0.36569520799E+02  0.36569520799E+02  0.00000000000E+00 0.  1.
         21   -1    0    0  504  502 -0.00000000000E+00 -0.00000000000E+00 -0.32418558449E+02  0.32418558449E+02  0.00000000000E+00 0.  1.
         21    1    1    2  503  502 -0.20959489014E+02  0.47547612121E+01 -0.24873591077E+02  0.32872533626E+02  0.00000000000E+00 0.  1.
         21    1    1    2  504  501  0.20959489014E+02 -0.47547612121E+01  0.29024553427E+02  0.36115545622E+02  0.00000000000E+00 0.  1.
<mgrwt>
<rscale>  2 0.21492044E+02</rscale>
<asrwt>0</asrwt>
<pdfrwt beam="1">  1       21 0.56260802E-02 0.21492044E+02</pdfrwt>
<pdfrwt beam="2">  1       21 0.49874705E-02 0.21492044E+02</pdfrwt>
<totfact> 0.41924399E+07</totfact>
</mgrwt>
</event>
<event>
 4    1  0.4594485E+006  0.2431830E+02  0.7546771E-02  0.1670991E+00
         21   -1    0    0  503  501  0.00000000000E+00  0.00000000000E+00  0.61681001334E+02  0.61681001334E+02  0.00000000000E+00 0.  1.
         21   -1    0    0  504  502 -0.00000000000E+00 -0.00000000000E+00 -0.10238682170E+02  0.10238682170E+02  0.00000000000E+00 0.  1.
         21    1    1    2  503  502 -0.23594336368E+02  0.58895539209E+01  0.34788437934E+02  0.42445435183E+02  0.00000000000E+00 0.  1.
         21    1    1    2  504  501  0.23594336368E+02 -0.58895539209E+01  0.16653881230E+02  0.29474248320E+02  0.00000000000E+00 0.  1.
<mgrwt>
<rscale>  2 0.24318297E+02</rscale>
<asrwt>0</asrwt>
<pdfrwt beam="1">  1       21 0.94893846E-02 0.24318297E+02</pdfrwt>
<pdfrwt beam="2">  1       21 0.15751819E-02 0.24318297E+02</pdfrwt>
<totfact> 0.11127243E+08</totfact>
</mgrwt>
</event>
<event>
 4    1  0.4594485E+006  0.2061368E+02  0.7546771E-02  0.1733393E+00
         21   -1    0    0  502  501  0.00000000000E+00  0.00000000000E+00  0.45643226192E+03  0.45643226192E+03  0.00000000000E+00 0.  1.
         21   -1    0    0  503  502 -0.00000000000E+00 -0.00000000000E+00 -0.75534821262E+01  0.75534821262E+01  0.00000000000E+00 0. -1.
         21    1    1    2  503  504 -0.74025202957E+01  0.19238672551E+02  0.72130497270E+01  0.21839228801E+02  0.00000000000E+00 0. -1.
         21    1    1    2  504  501  0.74025202957E+01 -0.19238672551E+02  0.44166573007E+03  0.44214651525E+03  0.00000000000E+00 0.  1.
<mgrwt>
<rscale>  2 0.20613681E+02</rscale>
<asrwt>0</asrwt>
<pdfrwt beam="1">  1       21 0.70220327E-01 0.20613681E+02</pdfrwt>
<pdfrwt beam="2">  1       21 0.11620745E-02 0.20613681E+02</pdfrwt>
<totfact> 0.45682530E+06</totfact>
</mgrwt>
</event>
<event>
 4    1  0.4594485E+006  0.2421298E+02  0.7546771E-02  0.1672570E+00
         21   -1    0    0  502  501  0.00000000000E+00  0.00000000000E+00  0.14978695185E+01  0.14978695185E+01  0.00000000000E+00 0. -1.
         21   -1    0    0  503  502 -0.00000000000E+00 -0.00000000000E+00 -0.48029502350E+03  0.48029502350E+03  0.00000000000E+00 0.  1.
         21    1    1    2  503  504  0.10295681097E+02  0.21914999851E+02 -0.34303480263E+03  0.34388827268E+03  0.00000000000E+00 0.  1.
         21    1    1    2  504  501 -0.10295681097E+02 -0.21914999851E+02 -0.13576235135E+03  0.13790462034E+03  0.00000000000E+00 0. -1.
<mgrwt>
<rscale>  2 0.24212977E+02</rscale>
<asrwt>0</asrwt>
<pdfrwt beam="1">  1       21 0.23044149E-03 0.24212977E+02</pdfrwt>
<pdfrwt beam="2">  1       21 0.73891534E-01 0.24212977E+02</pdfrwt>
<totfact> 0.46134882E+07</totfact>
</mgrwt>
</event>
<event>
 4    1  0.4594485E+006  0.2398695E+02  0.7546771E-02  0.1675994E+00
         21   -1    0    0  503  501  0.00000000000E+00  0.00000000000E+00  0.24014080818E+02  0.24014080818E+02  0.00000000000E+00 0.  1.
         21   -1    0    0  504  502 -0.00000000000E+00 -0.00000000000E+00 -0.24273439590E+02  0.24273439590E+02  0.00000000000E+00 0.  1.
         21    1    1    2  503  502 -0.96178622368E+01 -0.21974319364E+02 -0.28738681138E+01  0.24158499611E+02  0.00000000000E+00 0.  1.
         21    1    1    2  504  501  0.96178622368E+01  0.21974319364E+02  0.26145093415E+01  0.24129020797E+02  0.00000000000E+00 0.  1.
<mgrwt>
<rscale>  2 0.23986954E+02</rscale>
<asrwt>0</asrwt>
<pdfrwt beam="1">  1       21 0.36944740E-02 0.23986954E+02</pdfrwt>
<pdfrwt beam="2">  1       21 0.37343753E-02 0.23986954E+02</pdfrwt>
<totfact> 0.13296175E+08</totfact>
</mgrwt>
</event>
<event>
 4    1  0.4594485E+006  0.2134723E+02  0.7546771E-02  0.1719792E+00
         21   -1    0    0  503  501  0.00000000000E+00  0.00000000000E+00  0.62785690155E+03  0.62785690155E+03  0.00000000000E+00 0. -1.
         21   -1    0    0  504  502 -0.00000000000E+00 -0.00000000000E+00 -0.43928877016E+01  0.43928877016E+01  0.00000000000E+00 0.  1.
         21    1    1    2  503  502  0.12864526009E+02 -0.17035499519E+02  0.60056297407E+03  0.60094225188E+03  0.00000000000E+00 0. -1.
         21    1    1    2  504  501 -0.12864526009E+02  0.17035499519E+02  0.22901039783E+02  0.31307537374E+02  0.00000000000E+00 0.  1.
<mgrwt>
<rscale>  2 0.21347231E+02</rscale>
<asrwt>0</asrwt>
<pdfrwt beam="1">  1       21 0.96593298E-01 0.21347231E+02</pdfrwt>
<pdfrwt beam="2">  1       21 0.67582937E-03 0.21347231E+02</pdfrwt>
<totfact> 0.52779308E+06</totfact>
</mgrwt>
</event>
<event>
 4    1  0.4594485E+006  0.2038407E+02  0.7546771E-02  0.1737796E+00
         21   -1    0    0  502  501  0.00000000000E+00  0.00000000000E+00  0.10619933482E+03  0.10619933482E+03  0.00000000000E+00 0.  1.
         21   -1    0    0  503  502 -0.00000000000E+00 -0.00000000000E+00 -0.33928858714E+02  0.33928858714E+02  0.00000000000E+00 0.  1.
         21    1    1    2  503  504 -0.20065190012E+02  0.35914438096E+01 -0.29765387354E+02  0.36076150061E+02  0.00000000000E+00 0.  1.
         21    1    1    2  504  501  0.20065190012E+02 -0.35914438096E+01  0.10203586346E+03  0.10405204348E+03  0.00000000000E+00 0.  1.
<mgrwt>
<rscale>  2 0.20384070E+02</rscale>
<asrwt>0</asrwt>
<pdfrwt beam="1">  1       21 0.16338359E-01 0.20384070E+02</pdfrwt>
<pdfrwt beam="2">  1       21 0.52198245E-02 0.20384070E+02</pdfrwt>
<totfact> 0.66686443E+06</totfact>
</mgrwt>
</event>
<event>
 4    1  0.4594485E+006  0.2036868E+02  0.7546771E-02  0.1738094E+00
         21   -1    0    0  502  501  0.00000000000E+00  0.00000000000E+00  0.41348852338E+02  0.41348852338E+02  0.00000000000E+00 0. -1.
         21   -1    0    0  503  502 -0.00000000000E+00 -0.00000000000E+00 -0.21214908824E+02  0.21214908824E+02  0.00000000000E+00 0. -1.
         21    1    1    2  503  504 -0.52499107793E+01 -0.19680482438E+02 -0.12642978946E+02  0.23973482618E+02  0.00000000000E+00 0. -1.
         21    1    1    2  504  501  0.52499107793E+01  0.19680482438E+02  0.32776922460E+02  0.38590278545E+02  0.00000000000E+00 0. -1.
<mgrwt>
<rscale>  2 0.20368676E+02</rscale>
<asrwt>0</asrwt>
<pdfrwt beam="1">  1       21 0.63613619E-02 0.20368676E+02</pdfrwt>
<pdfrwt beam="2">  1       21 0.32638321E-02 0.20368676E+02</pdfrwt>
<totfact> 0.66090061E+07</totfact>
</mgrwt>
</event>
<event>
 4    1  0.4594485E+006  0.2336686E+02  0.7546771E-02  0.1685631E+00
         21   -1    0    0  504  501  0.00000000000E+00  0.00000000000E+00  0.11577718541E+04  0.11577718541E+04  0.00000000000E+00 0. -1.
         21   -1    0    0  501  502 -0.00000000000E+00 -0.00000000000E+00 -0.11083800371E+01  0.11083800371E+01  0.00000000000E+00 0. -1.
         21    1    1    2  503  502  0.23329975370E+02 -0.13124872872E+01  0.13913671368E+03  0.14108520641E+03  0.00000000000E+00 0. -1.
         21    1    1    2  504  503 -0.23329975370E+02  0.13124872872E+01  0.10175267604E+04  0.10177950278E+04  0.00000000000E+00 0. -1.
<mgrwt>
<rscale>  2 0.23366865E+02</rscale>
<asrwt>0</asrwt>
<pdfrwt beam="1">  1       21 0.17811778E+00 0.23366865E+02</pdfrwt>
<pdfrwt beam="2">  1       21 0.17052093E-03 0.23366865E+02</pdfrwt>
<totfact> 0.97267791E+06</totfact>
</mgrwt>
</event>
<event>
 4    1  0.4594485E+006  0.2606468E+02  0.7546771E-02  0.1646164E+00
         21   -1    0    0  503  501  0.00000000000E+00  0.00000000000E+00  0.45065608934E+03  0.45065608934E+03  0.00000000000E+00 0. -1.
         21   -1    0    0  504  502 -0.00000000000E+00 -0.00000000000E+00 -0.16788728045E+01  0.16788728045E+01  0.00000000000E+00 0.  1.
         21    1    1    2  503  502 -0.46869836761E+00  0.26060466385E+02  0.29674600081E+03  0.29788849690E+03  0.00000000000E+00 0.  1.
         21    1    1    2  504  501  0.46869836761E+00 -0.26060466385E+02  0.15223121572E+03  0.15444646525E+03  0.00000000000E+00 0. -1.
<mgrwt>
<rscale>  2 0.26064681E+02</rscale>
<asrwt>0</asrwt>
<pdfrwt beam="1">  1       21 0.69331610E-01 0.26064681E+02</pdfrwt>
<pdfrwt beam="2">  1       21 0.25828848E-03 0.26064681E+02</pdfrwt>
<totfact> 0.45276870E+07</totfact>
</mgrwt>
</event>
<event>
 4    1  0.4594485E+006  0.2260557E+02  0.7546771E-02  0.1697985E+00
         21   -1    0    0  504  501  0.00000000000E+00  0.00000000000E+00  0.21706108231E+03  0.21706108231E+03  0.00000000000E+00 0. -1.
         21   -1    0    0  501  502 -0.00000000000E+00 -0.00000000000E+00 -0.10007607194E+03  0.10007607194E+03  0.00000000000E+00 0. -1.
         21    1    1    2  503  502  0.17860238819E+02 -0.13857265539E+02 -0.98199855545E+02  0.10076816743E+03  0.00000000000E+00 0. -1.
         21    1    1    2  504  503 -0.17860238819E+02  0.13857265539E+02  0.21518486591E+03  0.21636898682E+03  0.00000000000E+00 0. -1.
<mgrwt>
<rscale>  2 0.22605573E+02</rscale>
<asrwt>0</asrwt>
<pdfrwt beam="1">  1       21 0.33394013E-01 0.22605573E+02</pdfrwt>
<pdfrwt beam="2">  1       21 0.15396319E-01 0.22605573E+02</pdfrwt>
<totfact> 0.32331441E+05</totfact>
</mgrwt>
</event>
<event>
 4    1  0.4594485E+006  0.2067671E+02  0.7546771E-02  0.1732196E+00
         21   -1    0    0  503  501  0.00000000000E+00  0.00000000000E+00  0.39406227648E+01  0.39406227648E+01  0.00000000000E+00 0. -1.
         21   -1    0    0  504  502 -0.00000000000E+00 -0.00000000000E+00 -0.91810447170E+03  0.91810447170E+03  0.00000000000E+00 0.  1.
         21    1    1    2  503  502  0.15864016955E+02  0.13261197129E+02 -0.89000893891E+03  0.89024908746E+03  0.00000000000E+00 0.  1.
         21    1    1    2  504  501 -0.15864016955E+02 -0.13261197129E+02 -0.24154910031E+02  0.31796007011E+02  0.00000000000E+00 0. -1.
<mgrwt>
<rscale>  2 0.20676711E+02</rscale>
<asrwt>0</asrwt>
<pdfrwt beam="1">  1       21 0.60624903E-03 0.20676711E+02</pdfrwt>
<pdfrwt beam="2">  1       21 0.14124699E+00 0.20676711E+02</pdfrwt>
<totfact> 0.26311081E+06</totfact>
</mgrwt>
</event>
<event>
 4    1  0.4594485E+006  0.3035759E+02  0.7546771E-02  0.1594169E+00
         21   -1    0    0  504  501  0.00000000000E+00  0.00000000000E+00  0.31806137514E+02  0.31806137514E+02  0.00000000000E+00 0.  1.
         21   -1    0    0  501  502 -0.00000000000E+00 -0.00000000000E+00 -0.68172975425E+02  0.68172975425E+02  0.00000000000E+00 0.  1.
         21    1    1    2  503  502 -0.30021885583E+02 -0.45022080062E+01 -0.56089148768E+02  0.63777551697E+02  0.00000000000E+00 0.  1.
         21    1    1    2  504  503  0.30021885583E+02  0.45022080062E+01  0.19722310857E+02  0.36201561243E+02  0.00000000000E+00 0.  1.
<mgrwt>
<rscale>  2 0.30357594E+02</rscale>
<asrwt>0</asrwt>
<pdfrwt beam="1">  1       21 0.48932519E-02 0.30357594E+02</pdfrwt>
<pdfrwt beam="2">  1       21 0.10488150E-01 0.30357594E+02</pdfrwt>
<totfact> 0.16837901E+07</totfact>
</mgrwt>
</event>
<event>
 4    1  0.4594485E+006  0.2154462E+02  0.7546771E-02  0.1716249E+00
         21   -1    0    0  502  501  0.00000000000E+00  0.00000000000E+00  0.61246167355E+03  0.61246167355E+03  0.00000000000E+00 0.  1.
         21   -1    0    0  503  502 -0.00000000000E+00 -0.00000000000E+00 -0.37449743448E+01  0.37449743448E+01  0.00000000000E+00 0.  1.
         21    1    1    2  503  504 -0.12737808803E+01 -0.21506934642E+02  0.29191170547E+02  0.36280782699E+02  0.00000000000E+00 0.  1.
         21    1    1    2  504  501  0.12737808803E+01  0.21506934642E+02  0.57952552866E+03  0.57992586520E+03  0.00000000000E+00 0.  1.
<mgrwt>
<rscale>  2 0.21544622E+02</rscale>
<asrwt>0</asrwt>
<pdfrwt beam="1">  1       21 0.94224793E-01 0.21544622E+02</pdfrwt>
<pdfrwt beam="2">  1       21 0.57615039E-03 0.21544622E+02</pdfrwt>
<totfact> 0.70612692E+06</totfact>
</mgrwt>
</event>
<event>
 4    1  0.4594485E+006  0.2440519E+02  0.7546771E-02  0.1669695E+00
         21   -1    0    0  504  501  0.00000000000E+00  0.00000000000E+00  0.19058588079E+02  0.19058588079E+02  0.00000000000E+00 0.  1.
         21   -1    0    0  503  502 -0.00000000000E+00 -0.00000000000E+00 -0.52368786841E+02  0.52368786841E+02  0.00000000000E+00 0. -1.
         21    1    1    2  503  501 -0.21628629607E+02  0.11305556116E+02  0.60234604571E+01  0.25137527596E+02  0.00000000000E+00 0.  1.
         21    1    1    2  504  502  0.21628629607E+02 -0.11305556116E+02 -0.39333659219E+02  0.46289847324E+02  0.00000000000E+00 0. -1.
<mgrwt>
<rscale>  2 0.24405188E+02</rscale>
<asrwt>0</asrwt>
<pdfrwt beam="1">  1       21 0.29320905E-02 0.24405188E+02</pdfrwt>
<pdfrwt beam="2">  1       21 0.80567365E-02 0.24405188E+02</pdfrwt>
<totfact> 0.55930455E+07</totfact>
</mgrwt>
</event>
<event>
 4    1  0.4594485E+006  0.2070938E+02  0.7546771E-02  0.1731578E+00
         21   -1    0    0  504  501  0.00000000000E+00  0.00000000000E+00  0.56751431837E+01  0.56751431837E+01  0.00000000000E+00 0.  1.
         21   -1    0    0  501  502 -0.00000000000E+00 -0.00000000000E+00 -0.90684945809E+03  0.90684945809E+03  0.00000000000E+00 0.  1.
         21    1    1    2  503  502 -0.15318676981E+02 -0.13936157763E+02 -0.88742489889E+03  0.88766650806E+03  0.00000000000E+00 0.  1.
         21    1    1    2  504  503  0.15318676981E+02  0.13936157763E+02 -0.13749416021E+02  0.24858093221E+02  0.00000000000E+00 0.  1.
<mgrwt>
<rscale>  2 0.20709378E+02</rscale>
<asrwt>0</asrwt>
<pdfrwt beam="1">  1       21 0.87309942E-03 0.20709378E+02</pdfrwt>
<pdfrwt beam="2">  1       21 0.13951523E+00 0.20709378E+02</pdfrwt>
<totfact> 0.15764060E+06</totfact>
</mgrwt>
</event>
<event>
 4    1  0.4594485E+006  0.2003899E+02  0.7546771E-02  0.1744554E+00
         21   -1    0    0  504  501  0.00000000000E+00  0.00000000000E+00  0.51019387021E+01  0.51019387021E+01  0.00000000000E+00 0.  1.
         21   -1    0    0  503  502 -0.00000000000E+00 -0.00000000000E+00 -0.11480175445E+03  0.11480175445E+03  0.00000000000E+00 0.  1.
         21    1    1    2  503  501 -0.20027481809E+02 -0.67896631529E+00 -0.88465992189E+02  0.90707181617E+02  0.00000000000E+00 0.  1.
         21    1    1    2  504  502  0.20027481809E+02  0.67896631529E+00 -0.21233823556E+02  0.29196511533E+02  0.00000000000E+00 0.  1.
<mgrwt>
<rscale>  2 0.20038988E+02</rscale>
<asrwt>0</asrwt>
<pdfrwt beam="1">  1       21 0.78491364E-03 0.20038988E+02</pdfrwt>
<pdfrwt beam="2">  1       21 0.17661808E-01 0.20038988E+02</pdfrwt>
<totfact> 0.10556192E+08</totfact>
</mgrwt>
</event>
<event>
 4    1  0.4594485E+006  0.2898413E+02  0.7546771E-02  0.1609597E+00
         21   -1    0    0  502  501  0.00000000000E+00  0.00000000000E+00  0.15452625975E+03  0.15452625975E+03  0.00000000000E+00 0.  1.
         21   -1    0    0  503  502 -0.00000000000E+00 -0.00000000000E+00 -0.13939901907E+02  0.13939901907E+02  0.00000000000E+00 0.  1.
         21    1    1    2  503  504 -0.27699957422E+02 -0.85318433531E+01  0.45047503093E+01  0.29332111543E+02  0.00000000000E+00 0.  1.
         21    1    1    2  504  501  0.27699957422E+02  0.85318433531E+01  0.13608160754E+03  0.13913405012E+03  0.00000000000E+00 0.  1.
<mgrwt>
<rscale>  2 0.28984133E+02</rscale>
<asrwt>0</asrwt>
<pdfrwt beam="1">  1       21 0.23773270E-01 0.28984133E+02</pdfrwt>
<pdfrwt beam="2">  1       21 0.21446004E-02 0.28984133E+02</pdfrwt>
<totfact> 0.14897730E+07</totfact>
</mgrwt>
</event>
<event>
 4    1  0.4594485E+006  0.2173587E+02  0.7546771E-02  0.1712860E+00
         21   -1    0    0  504  501  0.00000000000E+00  0.00000000000E+00  0.55265896116E+01  0.55265896116E+01  0.00000000000E+00 0. -1.
         21   -1    0    0  503  502 -0.00000000000E+00 -0.00000000000E+00 -0.15899355756E+03  0.15899355756E+03  0.00000000000E+00 0. -1.
         21    1    1    2  503  501 -0.62675898691E+01 -0.20812625783E+02 -0.13266598491E+03  0.13443478578E+03  0.00000000000E+00 0. -1.
         21    1    1    2  504  502  0.62675898691E+01  0.20812625783E+02 -0.20800983031E+02  0.30085361388E+02  0.00000000000E+00 0. -1.
<mgrwt>
<rscale>  2 0.21735871E+02</rscale>
<asrwt>0</asrwt>
<pdfrwt beam="1">  1       21 0.85024466E-03 0.21735871E+02</pdfrwt>
<pdfrwt beam="2">  1       21 0.24460544E-01 0.21735871E+02</pdfrwt>
<totfact> 0.54308160E+07</totfact>
</mgrwt>
</event>
<event>
 4    1  0.4594485E+006  0.2583311E+02  0.7546771E-02  0.1649316E+00
         21   -1    0    0  504  501  0.00000000000E+00  0.00000000000E+00  0.38967001955E+02  0.38967001955E+02  0.00000000000E+00 0.  1.
         21   -1    0    0  501  502 -0.00000000000E+00 -0.00000000000E+00 -0.48883988339E+02  0.48883988339E+02  0.00000000000E+00 0. -1.
         21    1    1    2  503  502  0.44433244630E+01 -0.25448107634E+02 -0.40363099156E+02  0.47922114810E+02  0.00000000000E+00 0. -1.
         21    1    1    2  504  503 -0.44433244630E+01  0.25448107634E+02  0.30446112771E+02  0.39928875483E+02  0.00000000000E+00 0.  1.
<mgrwt>
<rscale>  2 0.25833105E+02</rscale>
<asrwt>0</asrwt>
<pdfrwt beam="1">  1       21 0.59949234E-02 0.25833105E+02</pdfrwt>
<pdfrwt beam="2">  1       21 0.75206136E-02 0.25833105E+02</pdfrwt>
<totfact> 0.20404025E+07</totfact>
</mgrwt>
</event>
<event>
 4    1  0.4594485E+006  0.3017801E+02  0.7546771E-02  0.1596129E+00
         21   -1    0    0  504  501  0.00000000000E+00  0.00000000000E+00  0.68528108690E+02  0.68528108690E+02  0.00000000000E+00 0. -1.
         21   -1    0    0  503  502 -0.00000000000E+00 -0.00000000000E+00 -0.10001145763E+03  0.10001145763E+03  0.00000000000E+00 0. -1.
         21    1    1    2  503  501 -0.14328115117E+02 -0.26559696217E+02 -0.94213045476E+02  0.98928308809E+02  0.00000000000E+00 0. -1.
         21    1    1    2  504  502  0.14328115117E+02  0.26559696217E+02  0.62729696531E+02  0.69611257515E+02  0.00000000000E+00 0. -1.
<mgrwt>
<rscale>  2 0.30178011E+02</rscale>
<asrwt>0</asrwt>
<pdfrwt beam="1">  1       21 0.10542786E-01 0.30178011E+02</pdfrwt>
<pdfrwt beam="2">  1       21 0.15386378E-01 0.30178011E+02</pdfrwt>
<totfact> 0.24892917E+06</totfact>
</mgrwt>
</event>
<event>
 4    1  0.4594485E+006  0.2093642E+02  0.7546771E-02  0.1727323E+00
         21   -1    0    0  503  501  0.00000000000E+00  0.00000000000E+00  0.25274944969E+02  0.25274944969E+02  0.00000000000E+00 0. -1.
         21   -1    0    0  504  502 -0.00000000000E+00 -0.00000000000E+00 -0.20985045361E+02  0.20985045361E+02  0.00000000000E+00 0.  1.
         21    1    1    2  503  502 -0.28529388409E+01 -0.20741133562E+02 -0.74914685097E+01  0.22236366203E+02  0.00000000000E+00 0.  1.
         21    1    1    2  504  501  0.28529388409E+01  0.20741133562E+02  0.11781368118E+02  0.24023624127E+02  0.00000000000E+00 0. -1.
<mgrwt>
<rscale>  2 0.20936425E+02</rscale>
<asrwt>0</asrwt>
<pdfrwt beam="1">  1       21 0.38884531E-02 0.20936425E+02</pdfrwt>
<pdfrwt beam="2">  1       21 0.32284685E-02 0.20936425E+02</pdfrwt>
<totfact> 0.14784822E+08</totfact>
</mgrwt>
</event>
<event>
 4    1  0.4594485E+006  0.2393350E+02  0.7546771E-02  0.1676810E+00
         21   -1    0    0  504  501  0.00000000000E+00  0.00000000000E+00  0.97039800620E+03  0.97039800620E+03  0.00000000000E+00 0. -1.
         21   -1    0    0  503  502 -0.00000000000E+00 -0.00000000000E+00 -0.70764249620E+00  0.70764249620E+00  0.00000000000E+00 0. -1.
         21    1    1    2  503  501  0.14437851994E+02  0.19088237018E+02  0.28711039080E+03  0.28810621109E+03  0.00000000000E+00 0. -1.
         21    1    1    2  504  502 -0.14437851994E+02 -0.19088237018E+02  0.68257997290E+03  0.68299943760E+03  0.00000000000E+00 0. -1.
<mgrwt>
<rscale>  2 0.23933499E+02</rscale>
<asrwt>0</asrwt>
<pdfrwt beam="1">  1       21 0.14929094E+00 0.23933499E+02</pdfrwt>
<pdfrwt beam="2">  1       21 0.10886885E-03 0.23933499E+02</pdfrwt>
<totfact> 0.28505878E+07</totfact>
</mgrwt>
</event>
<event>
 4    1  0.4594485E+006  0.2303750E+02  0.7546771E-02  0.1690903E+00
         21   -1    0    0  503  501  0.00000000000E+00  0.00000000000E+00  0.77629692835E+02  0.77629692835E+02  0.00000000000E+00 0.  1.
         21   -1    0    0  504  502 -0.00000000000E+00 -0.00000000000E+00 -0.69887850922E+01  0.69887850922E+01  0.00000000000E+00 0.  1.
         21    1    1    2  503  502 -0.49166989397E+01 -0.22506725547E+02  0.41562927616E+02  0.47520559501E+02  0.00000000000E+00 0.  1.
         21    1    1    2  504  501  0.49166989397E+01  0.22506725547E+02  0.29077980127E+02  0.37097918426E+02  0.00000000000E+00 0.  1.
<mgrwt>
<rscale>  2 0.23037505E+02</rscale>
<asrwt>0</asrwt>
<pdfrwt beam="1">  1       21 0.11943029E-01 0.23037505E+02</pdfrwt>
<pdfrwt beam="2">  1       21 0.10751978E-02 0.23037505E+02</pdfrwt>
<totfact> 0.13327541E+08</totfact>
</mgrwt>
</event>
<event>
 4    1  0.4594485E+006  0.3521231E+02  0.7546771E-02  0.1546723E+00
         21   -1    0    0  502  501  0.00000000000E+00  0.00000000000E+00  0.35559329376E+02  0.35559329376E+02  0.00000000000E+00 0.  1.
         21   -1    0    0  504  502 -0.00000000000E+00 -0.00000000000E+00 -0.45104866566E+02  0.45104866566E+02  0.00000000000E+00 0.  1.
         21    1    1    2  503  501  0.35076267480E+02  0.30923405064E+01  0.14440801521E+02  0.38058426908E+02  0.00000000000E+00 0.  1.
         21    1    1    2  504  503 -0.35076267480E+02 -0.30923405064E+01 -0.23986338711E+02  0.42605769033E+02  0.00000000000E+00 0.  1.
<mgrwt>
<rscale>  2 0.35212315E+02</rscale>
<asrwt>0</asrwt>
<pdfrwt beam="1">  1       21 0.54706661E-02 0.35212315E+02</pdfrwt>
<pdfrwt beam="2">  1       21 0.69392102E-02 0.35212315E+02</pdfrwt>
<totfact> 0.28694258E+07</totfact>
</mgrwt>
</event>
<event>
 4    1  0.4594485E+006  0.2470895E+02  0.7546771E-02  0.1665218E+00
         21   -1    0    0  504  501  0.00000000000E+00  0.00000000000E+00  0.36511658079E+01  0.36511658079E+01  0.00000000000E+00 0. -1.
         21   -1    0    0  503  502 -0.00000000000E+00 -0.00000000000E+00 -0.30031315685E+03  0.30031315685E+03  0.00000000000E+00 0.  1.
         21    1    1    2  503  501  0.87448840817E+01 -0.23109719070E+02 -0.47151997353E+02  0.53233851706E+02  0.00000000000E+00 0. -1.
         21    1    1    2  504  502 -0.87448840817E+01  0.23109719070E+02 -0.24950999369E+03  0.25073047095E+03  0.00000000000E+00 0.  1.
<mgrwt>
<rscale>  2 0.24708948E+02</rscale>
<asrwt>0</asrwt>
<pdfrwt beam="1">  1       21 0.56171794E-03 0.24708948E+02</pdfrwt>
<pdfrwt beam="2">  1       21 0.46202014E-01 0.24708948E+02</pdfrwt>
<totfact> 0.32051542E+07</totfact>
</mgrwt>
</event>
<event>
 4    1  0.4594485E+006  0.2146636E+02  0.7546771E-02  0.1717648E+00
         21   -1    0    0  502  501  0.00000000000E+00  0.00000000000E+00  0.11485709132E+01  0.11485709132E+01  0.00000000000E+00 0.  1.
         21   -1    0    0  504  502 -0.00000000000E+00 -0.00000000000E+00 -0.56624746426E+03  0.56624746426E+03  0.00000000000E+00 0.  1.
         21    1    1    2  503  501  0.19677706913E+02 -0.85785945969E+01 -0.12938423614E+03  0.13115290693E+03  0.00000000000E+00 0.  1.
         21    1    1    2  504  503 -0.19677706913E+02  0.85785945969E+01 -0.43571465721E+03  0.43624312825E+03  0.00000000000E+00 0.  1.
<mgrwt>
<rscale>  2 0.21466356E+02</rscale>
<asrwt>0</asrwt>
<pdfrwt beam="1">  1       21 0.17670317E-03 0.21466356E+02</pdfrwt>
<pdfrwt beam="2">  1       21 0.87115018E-01 0.21466356E+02</pdfrwt>
<totfact> 0.46647959E+07</totfact>
</mgrwt>
</event>
<event>
 4    1  0.4594485E+006  0.4431256E+02  0.7546771E-02  0.1478679E+00
         21   -1    0    0  503  501  0.00000000000E+00  0.00000000000E+00  0.13093555841E+03  0.13093555841E+03  0.00000000000E+00 0. -1.
         21   -1    0    0  501  502 -0.00000000000E+00 -0.00000000000E+00 -0.15362239799E+02  0.15362239799E+02  0.00000000000E+00 0. -1.
         21    1    1    2  503  504 -0.20617997969E+01  0.44264562952E+02  0.46503203575E+02  0.64235118856E+02  0.00000000000E+00 0. -1.
         21    1    1    2  504  502  0.20617997969E+01 -0.44264562952E+02  0.69070115039E+02  0.82062679357E+02  0.00000000000E+00 0. -1.
<mgrwt>
<rscale>  2 0.44312555E+02</rscale>
<asrwt>0</asrwt>
<pdfrwt beam="1">  1       21 0.20143931E-01 0.44312555E+02</pdfrwt>
<pdfrwt beam="2">  1       21 0.23634216E-02 0.44312555E+02</pdfrwt>
<totfact> 0.18426533E+07</totfact>
</mgrwt>
</event>
<event>
 4    1  0.4594485E+006  0.2426297E+02  0.7546771E-02  0.1671820E+00
         21   -1    0    0  503  501  0.00000000000E+00  0.00000000000E+00  0.94184035765E+03  0.94184035765E+03  0.00000000000E+00 0. -1.
         21   -1    0    0  504  502 -0.00000000000E+00 -0.00000000000E+00 -0.70311004634E+00  0.70311004634E+00  0.00000000000E+00 0.  1.
         21    1    1    2  503  502 -0.24262344623E+02 -0.17358934609E+00  0.62760176543E+03  0.62807059115E+03  0.00000000000E+00 0. -1.
         21    1    1    2  504  501  0.24262344623E+02  0.17358934609E+00  0.31353548218E+03  0.31447287655E+03  0.00000000000E+00 0.  1.
<mgrwt>
<rscale>  2 0.24262966E+02</rscale>
<asrwt>0</asrwt>
<pdfrwt beam="1">  1       21 0.14489751E+00 0.24262966E+02</pdfrwt>
<pdfrwt beam="2">  1       21 0.10817153E-03 0.24262966E+02</pdfrwt>
<totfact> 0.30950710E+07</totfact>
</mgrwt>
</event>
<event>
 4    1  0.4594485E+006  0.2421296E+02  0.7546771E-02  0.1672571E+00
         21   -1    0    0  503  501  0.00000000000E+00  0.00000000000E+00  0.11671221904E+02  0.11671221904E+02  0.00000000000E+00 0.  1.
         21   -1    0    0  504  502 -0.00000000000E+00 -0.00000000000E+00 -0.11980213432E+03  0.11980213432E+03  0.00000000000E+00 0. -1.
         21    1    1    2  503  502  0.24082602303E+02 -0.25091386453E+01 -0.10415963335E+03  0.10693688199E+03  0.00000000000E+00 0. -1.
         21    1    1    2  504  501 -0.24082602303E+02  0.25091386453E+01 -0.39712790669E+01  0.24536474234E+02  0.00000000000E+00 0.  1.
<mgrwt>
<rscale>  2 0.24212962E+02</rscale>
<asrwt>0</asrwt>
<pdfrwt beam="1">  1       21 0.17955727E-02 0.24212962E+02</pdfrwt>
<pdfrwt beam="2">  1       21 0.18431097E-01 0.24212962E+02</pdfrwt>
<totfact> 0.29600983E+07</totfact>
</mgrwt>
</event>
<event>
 4    1  0.4594485E+006  0.5988169E+02  0.7546771E-02  0.1398329E+00
         21   -1    0    0  502  501  0.00000000000E+00  0.00000000000E+00  0.18383272068E+02  0.18383272068E+02  0.00000000000E+00 0.  1.
         21   -1    0    0  504  502 -0.00000000000E+00 -0.00000000000E+00 -0.26533749213E+03  0.26533749213E+03  0.00000000000E+00 0.  1.
         21    1    1    2  503  501  0.47500827832E+02  0.36462149963E+02 -0.50468516693E+02  0.78312758870E+02  0.00000000000E+00 0.  1.
         21    1    1    2  504  503 -0.47500827832E+02 -0.36462149963E+02 -0.19648570337E+03  0.20540800533E+03  0.00000000000E+00 0.  1.
<mgrwt>
<rscale>  2 0.59881692E+02</rscale>
<asrwt>0</asrwt>
<pdfrwt beam="1">  1       21 0.28281959E-02 0.59881692E+02</pdfrwt>
<pdfrwt beam="2">  1       21 0.40821150E-01 0.59881692E+02</pdfrwt>
<totfact> 0.38214800E+06</totfact>
</mgrwt>
</event>
<event>
 4    1  0.4594485E+006  0.2363821E+02  0.7546771E-02  0.1681369E+00
         21   -1    0    0  503  501  0.00000000000E+00  0.00000000000E+00  0.73713445273E+02  0.73713445273E+02  0.00000000000E+00 0. -1.
         21   -1    0    0  504  502 -0.00000000000E+00 -0.00000000000E+00 -0.11703280226E+02  0.11703280226E+02  0.00000000000E+00 0. -1.
         21    1    1    2  503  502 -0.59696421754E+01  0.22872003259E+02  0.56556509578E+01  0.24305381061E+02  0.00000000000E+00 0. -1.
         21    1    1    2  504  501  0.59696421754E+01 -0.22872003259E+02  0.56354514089E+02  0.61111344438E+02  0.00000000000E+00 0. -1.
<mgrwt>
<rscale>  2 0.23638214E+02</rscale>
<asrwt>0</asrwt>
<pdfrwt beam="1">  1       21 0.11340530E-01 0.23638214E+02</pdfrwt>
<pdfrwt beam="2">  1       21 0.18005047E-02 0.23638214E+02</pdfrwt>
<totfact> 0.66942163E+07</totfact>
</mgrwt>
</event>
<event>
 4    1  0.4594485E+006  0.2274133E+02  0.7546771E-02  0.1695738E+00
         21   -1    0    0  504  501  0.00000000000E+00  0.00000000000E+00  0.11516581775E+03  0.11516581775E+03  0.00000000000E+00 0. -1.
         21   -1    0    0  503  502 -0.00000000000E+00 -0.00000000000E+00 -0.10691399079E+03  0.10691399079E+03  0.00000000000E+00 0.  1.
         21    1    1    2  503  501  0.56178783728E+01  0.22036503531E+02  0.11280883432E+03  0.11507823924E+03  0.00000000000E+00 0. -1.
         21    1    1    2  504  502 -0.56178783728E+01 -0.22036503531E+02 -0.10455700736E+03  0.10700156930E+03  0.00000000000E+00 0.  1.
<mgrwt>
<rscale>  2 0.22741329E+02</rscale>
<asrwt>0</asrwt>
<pdfrwt beam="1">  1       21 0.17717818E-01 0.22741329E+02</pdfrwt>
<pdfrwt beam="2">  1       21 0.16448306E-01 0.22741329E+02</pdfrwt>
<totfact> 0.89208670E+05</totfact>
</mgrwt>
</event>
<event>
 4    1  0.4594485E+006  0.2014406E+02  0.7546771E-02  0.1742478E+00
         21   -1    0    0  503  501  0.00000000000E+00  0.00000000000E+00  0.36299511215E+02  0.36299511215E+02  0.00000000000E+00 0.  1.
         21   -1    0    0  504  502 -0.00000000000E+00 -0.00000000000E+00 -0.17951726133E+03  0.17951726133E+03  0.00000000000E+00 0. -1.
         21    1    1    2  503  502 -0.66851177739E+01 -0.19002425640E+02 -0.17610347278E+03  0.17725184372E+03  0.00000000000E+00 0. -1.
         21    1    1    2  504  501  0.66851177739E+01  0.19002425640E+02  0.32885722662E+02  0.38564928819E+02  0.00000000000E+00 0.  1.
<mgrwt>
<rscale>  2 0.20144056E+02</rscale>
<asrwt>0</asrwt>
<pdfrwt beam="1">  1       21 0.55845403E-02 0.20144056E+02</pdfrwt>
<pdfrwt beam="2">  1       21 0.27618040E-01 0.20144056E+02</pdfrwt>
<totfact> 0.23905988E+06</totfact>
</mgrwt>
</event>
<event>
 4    1  0.4594485E+006  0.2122304E+02  0.7546771E-02  0.1722046E+00
         21   -1    0    0  502  501  0.00000000000E+00  0.00000000000E+00  0.63553909346E+02  0.63553909346E+02  0.00000000000E+00 0. -1.
         21   -1    0    0  503  502 -0.00000000000E+00 -0.00000000000E+00 -0.70774621714E+02  0.70774621714E+02  0.00000000000E+00 0.  1.
         21    1    1    2  503  504 -0.20350924789E+02 -0.60213901356E+01 -0.67323118095E+02  0.70589089164E+02  0.00000000000E+00 0.  1.
         21    1    1    2  504  501  0.20350924789E+02  0.60213901356E+01  0.60102405727E+02  0.63739441896E+02  0.00000000000E+00 0. -1.
<mgrwt>
<rscale>  2 0.21223037E+02</rscale>
<asrwt>0</asrwt>
<pdfrwt beam="1">  1       21 0.97775246E-02 0.21223037E+02</pdfrwt>
<pdfrwt beam="2">  1       21 0.10888403E-01 0.21223037E+02</pdfrwt>
<totfact> 0.48194887E+06</totfact>
</mgrwt>
</event>
<event>
 4    1  0.4594485E+006  0.2186997E+02  0.7546771E-02  0.1710510E+00
         21   -1    0    0  503  501  0.00000000000E+00  0.00000000000E+00  0.16245454003E+03  0.16245454003E+03  0.00000000000E+00 0. -1.
         21   -1    0    0  501  502 -0.00000000000E+00 -0.00000000000E+00 -0.29506137311E+01  0.29506137311E+01  0.00000000000E+00 0. -1.
         21    1    1    2  503  504 -0.45008388066E+01 -0.21401825949E+02  0.83613256149E+02  0.86426108947E+02  0.00000000000E+00 0. -1.
         21    1    1    2  504  502  0.45008388066E+01  0.21401825949E+02  0.75890670153E+02  0.78979044817E+02  0.00000000000E+00 0. -1.
<mgrwt>
<rscale>  2 0.21869973E+02</rscale>
<asrwt>0</asrwt>
<pdfrwt beam="1">  1       21 0.24992999E-01 0.21869973E+02</pdfrwt>
<pdfrwt beam="2">  1       21 0.45394070E-03 0.21869973E+02</pdfrwt>
<totfact> 0.13256424E+08</totfact>
</mgrwt>
</event>
<event>
 4    1  0.4594485E+006  0.2505483E+02  0.7546771E-02  0.1660216E+00
         21   -1    0    0  502  501  0.00000000000E+00  0.00000000000E+00  0.64947973851E+03  0.64947973851E+03  0.00000000000E+00 0. -1.
         21   -1    0    0  503  502 -0.00000000000E+00 -0.00000000000E+00 -0.17279271684E+01  0.17279271684E+01  0.00000000000E+00 0. -1.
         21    1    1    2  503  504  0.10110367580E+02 -0.22924336222E+02  0.10773793397E+03  0.11061287059E+03  0.00000000000E+00 0. -1.
         21    1    1    2  504  501 -0.10110367580E+02  0.22924336222E+02  0.54001387737E+03  0.54059479509E+03  0.00000000000E+00 0. -1.
<mgrwt>
<rscale>  2 0.25054834E+02</rscale>
<asrwt>0</asrwt>
<pdfrwt beam="1">  1       21 0.99919765E-01 0.25054834E+02</pdfrwt>
<pdfrwt beam="2">  1       21 0.26583547E-03 0.25054834E+02</pdfrwt>
<totfact> 0.19831180E+07</totfact>
</mgrwt>
</event>
<event>
 4    1  0.4594485E+006  0.4649807E+02  0.7546771E-02  0.1465200E+00
         21   -1    0    0  504  501  0.00000000000E+00  0.00000000000E+00  0.16798243811E+04  0.16798243811E+04  0.00000000000E+00 0. -1.
         21   -1    0    0  503  502 -0.00000000000E+00 -0.00000000000E+00 -0.49890396212E+01  0.49890396212E+01  0.00000000000E+00 0. -1.
         21    1    1    2  503  501 -0.40351533059E+02  0.23104643886E+02  0.11176450343E+03  0.12105112563E+03  0.00000000000E+00 0. -1.
         21    1    1    2  504  502  0.40351533059E+02 -0.23104643886E+02  0.15630708381E+04  0.15637622951E+04  0.00000000000E+00 0. -1.
<mgrwt>
<rscale>  2 0.46498073E+02</rscale>
<asrwt>0</asrwt>
<pdfrwt beam="1">  1       21 0.25843407E+00 0.46498073E+02</pdfrwt>
<pdfrwt beam="2">  1       21 0.76754590E-03 0.46498073E+02</pdfrwt>
<totfact> 0.38313045E+05</totfact>
</mgrwt>
</event>
<event>
 4    1  0.4594485E+006  0.2035112E+02  0.7546771E-02  0.1738434E+00
         21   -1    0    0  504  501  0.00000000000E+00  0.00000000000E+00  0.71786709701E+02  0.71786709701E+02  0.00000000000E+00 0. -1.
         21   -1    0    0  501  502 -0.00000000000E+00 -0.00000000000E+00 -0.36270203569E+02  0.36270203569E+02  0.00000000000E+00 0. -1.
         21    1    1    2  503  502  0.19111622120E+02 -0.69938458041E+01 -0.31787112105E+02  0.37743721003E+02  0.00000000000E+00 0. -1.
         21    1    1    2  504  503 -0.19111622120E+02  0.69938458041E+01  0.67303618236E+02  0.70313192268E+02  0.00000000000E+00 0. -1.
<mgrwt>
<rscale>  2 0.20351117E+02</rscale>
<asrwt>0</asrwt>
<pdfrwt beam="1">  1       21 0.11044109E-01 0.20351117E+02</pdfrwt>
<pdfrwt beam="2">  1       21 0.55800313E-02 0.20351117E+02</pdfrwt>
<totfact> 0.11575452E+07</totfact>
</mgrwt>
</event>
<event>
 4    1  0.4594485E+006  0.2361525E+02  0.7546771E-02  0.1681727E+00
         21   -1    0    0  504  501  0.00000000000E+00  0.00000000000E+00  0.38529038047E+02  0.38529038047E+02  0.00000000000E+00 0. -1.
         21   -1    0    0  503  502 -0.00000000000E+00 -0.00000000000E+00 -0.14645452360E+02  0.14645452360E+02  0.00000000000E+00 0. -1.
         21    1    1    2  503  501 -0.25322619022E+01  0.23479089768E+02  0.14816154021E+02  0.27878278760E+02  0.00000000000E+00 0. -1.
         21    1    1    2  504  502  0.25322619022E+01 -0.23479089768E+02  0.90674316666E+01  0.25296211647E+02  0.00000000000E+00 0. -1.
<mgrwt>
<rscale>  2 0.23615249E+02</rscale>
<asrwt>0</asrwt>
<pdfrwt beam="1">  1       21 0.59275443E-02 0.23615249E+02</pdfrwt>
<pdfrwt beam="2">  1       21 0.22531465E-02 0.23615249E+02</pdfrwt>
<totfact> 0.13712516E+08</totfact>
</mgrwt>
</event>
<event>
 4    1  0.4594485E+006  0.2083937E+02  0.7546771E-02  0.1729134E+00
         21   -1    0    0  504  501  0.00000000000E+00  0.00000000000E+00  0.12016223172E+02  0.12016223172E+02  0.00000000000E+00 0. -1.
         21   -1    0    0  503  502 -0.00000000000E+00 -0.00000000000E+00 -0.40366555444E+02  0.40366555444E+02  0.00000000000E+00 0.  1.
         21    1    1    2  503  501  0.20070634428E+01  0.20742493203E+02 -0.57012280070E+01  0.21605169028E+02  0.00000000000E+00 0. -1.
         21    1    1    2  504  502 -0.20070634428E+01 -0.20742493203E+02 -0.22649104266E+02  0.30777609588E+02  0.00000000000E+00 0.  1.
<mgrwt>
<rscale>  2 0.20839370E+02</rscale>
<asrwt>0</asrwt>
<pdfrwt beam="1">  1       21 0.18486497E-02 0.20839370E+02</pdfrwt>
<pdfrwt beam="2">  1       21 0.62102393E-02 0.20839370E+02</pdfrwt>
<totfact> 0.16588489E+08</totfact>
</mgrwt>
</event>
<event>
 4    1  0.4594485E+006  0.3119887E+02  0.7546771E-02  0.1585203E+00
         21   -1    0    0  504  501  0.00000000000E+00  0.00000000000E+00  0.33209146306E+03  0.33209146306E+03  0.00000000000E+00 0. -1.
         21   -1    0    0  501  502 -0.00000000000E+00 -0.00000000000E+00 -0.44945910737E+01  0.44945910737E+01  0.00000000000E+00 0. -1.
         21    1    1    2  503  502 -0.13574154399E+02  0.28091130277E+02  0.64537405903E+02  0.71682954937E+02  0.00000000000E+00 0. -1.
         21    1    1    2  504  503  0.13574154399E+02 -0.28091130277E+02  0.26305946608E+03  0.26490309920E+03  0.00000000000E+00 0. -1.
<mgrwt>
<rscale>  2 0.31198866E+02</rscale>
<asrwt>0</asrwt>
<pdfrwt beam="1">  1       21 0.51090975E-01 0.31198866E+02</pdfrwt>
<pdfrwt beam="2">  1       21 0.69147581E-03 0.31198866E+02</pdfrwt>
<totfact> 0.20187294E+07</totfact>
</mgrwt>
</event>
<event>
 4    1  0.4594485E+006  0.2192550E+02  0.7546771E-02  0.1709544E+00
         21   -1    0    0  502  501  0.00000000000E+00  0.00000000000E+00  0.19060290369E+03  0.19060290369E+03  0.00000000000E+00 0.  1.
         21   -1    0    0  504  502 -0.00000000000E+00 -0.00000000000E+00 -0.90017725311E+01  0.90017725311E+01  0.00000000000E+00 0.  1.
         21    1    1    2  503  501 -0.50409186583E+01  0.21338150849E+02  0.17547490716E+03  0.17683939206E+03  0.00000000000E+00 0.  1.
         21    1    1    2  504  503  0.50409186583E+01 -0.21338150849E+02  0.61262240079E+01  0.22765284167E+02  0.00000000000E+00 0.  1.
<mgrwt>
<rscale>  2 0.21925500E+02</rscale>
<asrwt>0</asrwt>
<pdfrwt beam="1">  1       21 0.29323520E-01 0.21925500E+02</pdfrwt>
<pdfrwt beam="2">  1       21 0.13848882E-02 0.21925500E+02</pdfrwt>
<totfact> 0.18890697E+07</totfact>
</mgrwt>
</event>
<event>
 4    1  0.4594485E+006  0.2175817E+02  0.7546771E-02  0.1712468E+00
         21   -1    0    0  504  501  0.00000000000E+00  0.00000000000E+00  0.43505645650E+03  0.43505645650E+03  0.00000000000E+00 0.  1.
         21   -1    0    0  503  502 -0.00000000000E+00 -0.00000000000E+00 -0.13903503216E+01  0.13903503216E+01  0.00000000000E+00 0.  1.
         21    1    1    2  503  501  0.21592994276E+02 -0.26759022112E+01  0.11509856285E+03  0.11713708646E+03  0.00000000000E+00 0.  1.
         21    1    1    2  504  502 -0.21592994276E+02  0.26759022112E+01  0.31856754333E+03  0.31930972036E+03  0.00000000000E+00 0.  1.
<mgrwt>
<rscale>  2 0.21758168E+02</rscale>
<asrwt>0</asrwt>
<pdfrwt beam="1">  1       21 0.66931654E-01 0.21758168E+02</pdfrwt>
<pdfrwt beam="2">  1       21 0.21390040E-03 0.21758168E+02</pdfrwt>
<totfact> 0.61416174E+07</totfact>
</mgrwt>
</event>
<event>
 4    1  0.4594485E+006  0.4514526E+02  0.7546771E-02  0.1473437E+00
         21   -1    0    0  502  501  0.00000000000E+00  0.00000000000E+00  0.14849851945E+02  0.14849851945E+02  0.00000000000E+00 0.  1.
         21   -1    0    0  504  502 -0.00000000000E+00 -0.00000000000E+00 -0.15282201523E+03  0.15282201523E+03  0.00000000000E+00 0.  1.
         21    1    1    2  503  501 -0.47979698334E+01 -0.44889576166E+02 -0.42221875677E+02  0.61812469200E+02  0.00000000000E+00 0.  1.
         21    1    1    2  504  503  0.47979698334E+01  0.44889576166E+02 -0.95750287612E+02  0.10585939798E+03  0.00000000000E+00 0.  1.
<mgrwt>
<rscale>  2 0.45145261E+02</rscale>
<asrwt>0</asrwt>
<pdfrwt beam="1">  1       21 0.22845927E-02 0.45145261E+02</pdfrwt>
<pdfrwt beam="2">  1       21 0.23511079E-01 0.45145261E+02</pdfrwt>
<totfact> 0.14744923E+07</totfact>
</mgrwt>
</event>
<event>
 4    1  0.4594485E+006  0.2511112E+02  0.7546771E-02  0.1659411E+00
         21   -1    0    0  504  501  0.00000000000E+00  0.00000000000E+00  0.21676144562E+03  0.21676144562E+03  0.00000000000E+00 0.  1.
         21   -1    0    0  503  502 -0.00000000000E+00 -0.00000000000E+00 -0.32245186700E+01  0.32245186700E+01  0.00000000000E+00 0.  1.
         21    1    1    2  503  501  0.18285667054E+02 -0.17210543266E+02  0.14117296709E+03  0.14338889446E+03  0.00000000000E+00 0.  1.
         21    1    1    2  504  502 -0.18285667054E+02  0.17210543266E+02  0.72363959866E+02  0.76597069830E+02  0.00000000000E+00 0.  1.
<mgrwt>
<rscale>  2 0.25111121E+02</rscale>
<asrwt>0</asrwt>
<pdfrwt beam="1">  1       21 0.33347903E-01 0.25111121E+02</pdfrwt>
<pdfrwt beam="2">  1       21 0.49607996E-03 0.25111121E+02</pdfrwt>
<totfact> 0.71526956E+07</totfact>
</mgrwt>
</event>
<event>
 4    1  0.4594485E+006  0.2098625E+02  0.7546771E-02  0.1726398E+00
         21   -1    0    0  503  501  0.00000000000E+00  0.00000000000E+00  0.31305968581E+03  0.31305968581E+03  0.00000000000E+00 0. -1.
         21   -1    0    0  504  502 -0.00000000000E+00 -0.00000000000E+00 -0.15554392202E+01  0.15554392202E+01  0.00000000000E+00 0. -1.
         21    1    1    2  503  502  0.54716941925E+01  0.20260388673E+02  0.20437505658E+03  0.20544971779E+03  0.00000000000E+00 0. -1.
         21    1    1    2  504  501 -0.54716941925E+01 -0.20260388673E+02  0.10712919001E+03  0.10916540724E+03  0.00000000000E+00 0. -1.
<mgrwt>
<rscale>  2 0.20986252E+02</rscale>
<asrwt>0</asrwt>
<pdfrwt beam="1">  1       21 0.48162978E-01 0.20986252E+02</pdfrwt>
<pdfrwt beam="2">  1       21 0.23929859E-03 0.20986252E+02</pdfrwt>
<totfact> 0.99150188E+07</totfact>
</mgrwt>
</event>
<event>
 4    1  0.4594485E+006  0.2917356E+02  0.7546771E-02  0.1607408E+00
         21   -1    0    0  504  501  0.00000000000E+00  0.00000000000E+00  0.11720328679E+02  0.11720328679E+02  0.00000000000E+00 0. -1.
         21   -1    0    0  501  502 -0.00000000000E+00 -0.00000000000E+00 -0.37864291225E+03  0.37864291225E+03  0.00000000000E+00 0. -1.
         21    1    1    2  503  502 -0.28685145276E+02  0.53159142996E+01 -0.35893134974E+03  0.36011499598E+03  0.00000000000E+00 0. -1.
         21    1    1    2  504  503  0.28685145276E+02 -0.53159142996E+01 -0.79912338332E+01  0.30248244949E+02  0.00000000000E+00 0. -1.
<mgrwt>
<rscale>  2 0.29173558E+02</rscale>
<asrwt>0</asrwt>
<pdfrwt beam="1">  1       21 0.18031275E-02 0.29173558E+02</pdfrwt>
<pdfrwt beam="2">  1       21 0.58252756E-01 0.29173558E+02</pdfrwt>
<totfact> 0.35835553E+06</totfact>
</mgrwt>
</event>
<event>
 4    1  0.4594485E+006  0.2104402E+02  0.7546771E-02  0.1725330E+00
         21   -1    0    0  503  501  0.00000000000E+00  0.00000000000E+00  0.62196214907E+02  0.62196214907E+02  0.00000000000E+00 0. -1.
         21   -1    0    0  501  502 -0.00000000000E+00 -0.00000000000E+00 -0.88842461114E+02  0.88842461114E+02  0.00000000000E+00 0. -1.
         21    1    1    2  503  504 -0.74643449856E+01  0.19675726351E+02  0.59106799535E+02  0.62741249628E+02  0.00000000000E+00 0. -1.
         21    1    1    2  504  502  0.74643449856E+01 -0.19675726351E+02 -0.85753045743E+02  0.88297426393E+02  0.00000000000E+00 0. -1.
<mgrwt>
<rscale>  2 0.21044017E+02</rscale>
<asrwt>0</asrwt>
<pdfrwt beam="1">  1       21 0.95686485E-02 0.21044017E+02</pdfrwt>
<pdfrwt beam="2">  1       21 0.13668071E-01 0.21044017E+02</pdfrwt>
<totfact> 0.34110505E+06</totfact>
</mgrwt>
</event>
<event>
 4    1  0.4594485E+006  0.3247026E+02  0.7546771E-02  0.1572286E+00
         21   -1    0    0  504  501  0.00000000000E+00  0.00000000000E+00  0.29299843016E+02  0.29299843016E+02  0.00000000000E+00 0. -1.
         21   -1    0    0  501  502 -0.00000000000E+00 -0.00000000000E+00 -0.22408888271E+03  0.22408888271E+03  0.00000000000E+00 0.  1.
         21    1    1    2  503  502 -0.15915881225E+02 -0.28301992786E+02 -0.21347186465E+03  0.21592719853E+03  0.00000000000E+00 0.  1.
         21    1    1    2  504  503  0.15915881225E+02  0.28301992786E+02  0.18682824957E+02  0.37461527187E+02  0.00000000000E+00 0. -1.
<mgrwt>
<rscale>  2 0.32470264E+02</rscale>
<asrwt>0</asrwt>
<pdfrwt beam="1">  1       21 0.45076682E-02 0.32470264E+02</pdfrwt>
<pdfrwt beam="2">  1       21 0.34475212E-01 0.32470264E+02</pdfrwt>
<totfact> 0.23741564E+06</totfact>
</mgrwt>
</event>
<event>
 4    1  0.4594485E+006  0.8544665E+02  0.7546771E-02  0.1314269E+00
         21   -1    0    0  502  501  0.00000000000E+00  0.00000000000E+00  0.52444697866E+01  0.52444697866E+01  0.00000000000E+00 0. -1.
         21   -1    0    0  503  502 -0.00000000000E+00 -0.00000000000E+00 -0.13977753748E+04  0.13977753748E+04  0.00000000000E+00 0. -1.
         21    1    1    2  503  504 -0.73445943186E+02 -0.43667190388E+02 -0.65179358349E+03  0.65737052380E+03  0.00000000000E+00 0. -1.
         21    1    1    2  504  501  0.73445943186E+02  0.43667190388E+02 -0.74073732156E+03  0.74564932082E+03  0.00000000000E+00 0. -1.
<mgrwt>
<rscale>  2 0.85446651E+02</rscale>
<asrwt>0</asrwt>
<pdfrwt beam="1">  1       21 0.80684132E-03 0.85446651E+02</pdfrwt>
<pdfrwt beam="2">  1       21 0.21504242E+00 0.85446651E+02</pdfrwt>
<totfact> 0.59712979E+05</totfact>
</mgrwt>
</event>
<event>
 4    1  0.4594485E+006  0.2062091E+02  0.7546771E-02  0.1733255E+00
         21   -1    0    0  503  501  0.00000000000E+00  0.00000000000E+00  0.16462921046E+03  0.16462921046E+03  0.00000000000E+00 0. -1.
         21   -1    0    0  504  502 -0.00000000000E+00 -0.00000000000E+00 -0.53785712505E+02  0.53785712505E+02  0.00000000000E+00 0. -1.
         21    1    1    2  503  502  0.12008482919E+02  0.16763604892E+02 -0.51131261224E+02  0.55132821307E+02  0.00000000000E+00 0. -1.
         21    1    1    2  504  501 -0.12008482919E+02 -0.16763604892E+02  0.16197475918E+03  0.16328210166E+03  0.00000000000E+00 0. -1.
<mgrwt>
<rscale>  2 0.20620914E+02</rscale>
<asrwt>0</asrwt>
<pdfrwt beam="1">  1       21 0.25327571E-01 0.20620914E+02</pdfrwt>
<pdfrwt beam="2">  1       21 0.82747251E-02 0.20620914E+02</pdfrwt>
<totfact> 0.14863516E+06</totfact>
</mgrwt>
</event>
<event>
 4    1  0.4594485E+006  0.2249771E+02  0.7546771E-02  0.1699784E+00
         21   -1    0    0  502  501  0.00000000000E+00  0.00000000000E+00  0.13008961017E+01  0.13008961017E+01  0.00000000000E+00 0. -1.
         21   -1    0    0  503  502 -0.00000000000E+00 -0.00000000000E+00 -0.39099103993E+03  0.39099103993E+03  0.00000000000E+00 0. -1.
         21    1    1    2  503  504  0.22352897034E+02 -0.25484941302E+01 -0.20857408258E+03  0.20978392396E+03  0.00000000000E+00 0. -1.
         21    1    1    2  504  501 -0.22352897034E+02  0.25484941302E+01 -0.18111606125E+03  0.18250801207E+03  0.00000000000E+00 0. -1.
<mgrwt>
<rscale>  2 0.22497707E+02</rscale>
<asrwt>0</asrwt>
<pdfrwt beam="1">  1       21 0.20013798E-03 0.22497707E+02</pdfrwt>
<pdfrwt beam="2">  1       21 0.60152433E-01 0.22497707E+02</pdfrwt>
<totfact> 0.84516764E+07</totfact>
</mgrwt>
</event>
<event>
 4    1  0.4594485E+006  0.2483305E+02  0.7546771E-02  0.1663412E+00
         21   -1    0    0  504  501  0.00000000000E+00  0.00000000000E+00  0.31535464877E+03  0.31535464877E+03  0.00000000000E+00 0.  1.
         21   -1    0    0  503  502 -0.00000000000E+00 -0.00000000000E+00 -0.32492064102E+02  0.32492064102E+02  0.00000000000E+00 0.  1.
         21    1    1    2  503  501 -0.17222673182E+02 -0.17890215252E+02 -0.27177122799E+02  0.36814077157E+02  0.00000000000E+00 0.  1.
         21    1    1    2  504  502  0.17222673182E+02  0.17890215252E+02  0.31003970746E+03  0.31103263571E+03  0.00000000000E+00 0.  1.
<mgrwt>
<rscale>  2 0.24833048E+02</rscale>
<asrwt>0</asrwt>
<pdfrwt beam="1">  1       21 0.48516098E-01 0.24833048E+02</pdfrwt>
<pdfrwt beam="2">  1       21 0.49987793E-02 0.24833048E+02</pdfrwt>
<totfact> 0.10230400E+06</totfact>
</mgrwt>
</event>
<event>
 4    1  0.4594485E+006  0.3652940E+02  0.7546771E-02  0.1535424E+00
         21   -1    0    0  504  501  0.00000000000E+00  0.00000000000E+00  0.15059479725E+04  0.15059479725E+04  0.00000000000E+00 0. -1.
         21   -1    0    0  503  502 -0.00000000000E+00 -0.00000000000E+00 -0.95309343260E+01  0.95309343260E+01  0.00000000000E+00 0. -1.
         21    1    1    2  503  501 -0.28374622628E+02  0.23006039082E+02  0.14698656218E+04  0.14703194697E+04  0.00000000000E+00 0. -1.
         21    1    1    2  504  502  0.28374622628E+02 -0.23006039082E+02  0.26551416375E+02  0.45159437054E+02  0.00000000000E+00 0. -1.
<mgrwt>
<rscale>  2 0.36529400E+02</rscale>
<asrwt>0</asrwt>
<pdfrwt beam="1">  1       21 0.23168411E+00 0.36529400E+02</pdfrwt>
<pdfrwt beam="2">  1       21 0.14662988E-02 0.36529400E+02</pdfrwt>
<totfact> 0.20000928E+05</totfact>
</mgrwt>
</event>
<event>
 4    1  0.4594485E+006  0.2207309E+02  0.7546771E-02  0.1706991E+00
         21   -1    0    0  502  501  0.00000000000E+00  0.00000000000E+00  0.17500066672E+02  0.17500066672E+02  0.00000000000E+00 0. -1.
         21   -1    0    0  503  502 -0.00000000000E+00 -0.00000000000E+00 -0.42863132321E+02  0.42863132321E+02  0.00000000000E+00 0. -1.
         21    1    1    2  503  504  0.77837117333E+01 -0.20655151928E+02 -0.30549055638E+02  0.37689073614E+02  0.00000000000E+00 0. -1.
         21    1    1    2  504  501 -0.77837117333E+01  0.20655151928E+02  0.51859899898E+01  0.22674125379E+02  0.00000000000E+00 0. -1.
<mgrwt>
<rscale>  2 0.22073094E+02</rscale>
<asrwt>0</asrwt>
<pdfrwt beam="1">  1       21 0.26923180E-02 0.22073094E+02</pdfrwt>
<pdfrwt beam="2">  1       21 0.65943280E-02 0.22073094E+02</pdfrwt>
<totfact> 0.86011958E+07</totfact>
</mgrwt>
</event>
<event>
 4    1  0.4594485E+006  0.2047403E+02  0.7546771E-02  0.1736062E+00
         21   -1    0    0  503  501  0.00000000000E+00  0.00000000000E+00  0.29711515904E+02  0.29711515904E+02  0.00000000000E+00 0. -1.
         21   -1    0    0  504  502 -0.00000000000E+00 -0.00000000000E+00 -0.24870598555E+02  0.24870598555E+02  0.00000000000E+00 0. -1.
         21    1    1    2  503  502  0.24155259159E+01  0.20331042573E+02 -0.15532042044E+02  0.25698840199E+02  0.00000000000E+00 0. -1.
         21    1    1    2  504  501 -0.24155259159E+01 -0.20331042573E+02  0.20372959393E+02  0.28883274260E+02  0.00000000000E+00 0. -1.
<mgrwt>
<rscale>  2 0.20474034E+02</rscale>
<asrwt>0</asrwt>
<pdfrwt beam="1">  1       21 0.45710024E-02 0.20474034E+02</pdfrwt>
<pdfrwt beam="2">  1       21 0.38262460E-02 0.20474034E+02</pdfrwt>
<totfact> 0.87356604E+07</totfact>
</mgrwt>
</event>
<event>
 4    1  0.4594485E+006  0.3713970E+02  0.7546771E-02  0.1530381E+00
         21   -1    0    0  504  501  0.00000000000E+00  0.00000000000E+00  0.23217654207E+03  0.23217654207E+03  0.00000000000E+00 0. -1.
         21   -1    0    0  503  502 -0.00000000000E+00 -0.00000000000E+00 -0.71942665242E+01  0.71942665242E+01  0.00000000000E+00 0.  1.
         21    1    1    2  503  501 -0.23486272052E+02 -0.28770683083E+02  0.16244538031E+03  0.16663690697E+03  0.00000000000E+00 0. -1.
         21    1    1    2  504  502  0.23486272052E+02  0.28770683083E+02  0.62536895234E+02  0.72733901624E+02  0.00000000000E+00 0.  1.
<mgrwt>
<rscale>  2 0.37139698E+02</rscale>
<asrwt>0</asrwt>
<pdfrwt beam="1">  1       21 0.35719462E-01 0.37139698E+02</pdfrwt>
<pdfrwt beam="2">  1       21 0.11068104E-02 0.37139698E+02</pdfrwt>
<totfact> 0.20330034E+07</totfact>
</mgrwt>
</event>
<event>
 4    1  0.4594485E+006  0.3576342E+02  0.7546771E-02  0.1541924E+00
         21   -1    0    0  504  501  0.00000000000E+00  0.00000000000E+00  0.49787137091E+02  0.49787137091E+02  0.00000000000E+00 0.  1.
         21   -1    0    0  503  502 -0.00000000000E+00 -0.00000000000E+00 -0.44429976521E+02  0.44429976521E+02  0.00000000000E+00 0.  1.
         21    1    1    2  503  501 -0.34249023905E+02  0.10296910791E+02  0.33273442356E+02  0.48848172704E+02  0.00000000000E+00 0.  1.
         21    1    1    2  504  502  0.34249023905E+02 -0.10296910791E+02 -0.27916281786E+02  0.45368940908E+02  0.00000000000E+00 0.  1.
<mgrwt>
<rscale>  2 0.35763417E+02</rscale>
<asrwt>0</asrwt>
<pdfrwt beam="1">  1       21 0.76595596E-02 0.35763417E+02</pdfrwt>
<pdfrwt beam="2">  1       21 0.68353810E-02 0.35763417E+02</pdfrwt>
<totfact> 0.16987204E+07</totfact>
</mgrwt>
</event>
<event>
 4    1  0.4594485E+006  0.3498826E+02  0.7546771E-02  0.1548705E+00
         21   -1    0    0  504  501  0.00000000000E+00  0.00000000000E+00  0.92513890369E+02  0.92513890369E+02  0.00000000000E+00 0. -1.
         21   -1    0    0  501  502 -0.00000000000E+00 -0.00000000000E+00 -0.15435557720E+02  0.15435557720E+02  0.00000000000E+00 0. -1.
         21    1    1    2  503  502  0.33582673897E+02 -0.98174514390E+01  0.18147407455E+02  0.39414549803E+02  0.00000000000E+00 0. -1.
         21    1    1    2  504  503 -0.33582673897E+02  0.98174514390E+01  0.58930925194E+02  0.68534898286E+02  0.00000000000E+00 0. -1.
<mgrwt>
<rscale>  2 0.34988260E+02</rscale>
<asrwt>0</asrwt>
<pdfrwt beam="1">  1       21 0.14232906E-01 0.34988260E+02</pdfrwt>
<pdfrwt beam="2">  1       21 0.23747012E-02 0.34988260E+02</pdfrwt>
<totfact> 0.32372598E+07</totfact>
</mgrwt>
</event>
<event>
 4    1  0.4594485E+006  0.3278620E+02  0.7546771E-02  0.1569187E+00
         21   -1    0    0  504  501  0.00000000000E+00  0.00000000000E+00  0.97963010790E+03  0.97963010790E+03  0.00000000000E+00 0.  1.
         21   -1    0    0  503  502 -0.00000000000E+00 -0.00000000000E+00 -0.11103790679E+02  0.11103790679E+02  0.00000000000E+00 0. -1.
         21    1    1    2  503  501 -0.37341220895E+01  0.32572857648E+02  0.95451725615E+03  0.95508016785E+03  0.00000000000E+00 0.  1.
         21    1    1    2  504  502  0.37341220895E+01 -0.32572857648E+02  0.14009061069E+02  0.35653730733E+02  0.00000000000E+00 0. -1.
<mgrwt>
<rscale>  2 0.32786197E+02</rscale>
<asrwt>0</asrwt>
<pdfrwt beam="1">  1       21 0.15071226E+00 0.32786197E+02</pdfrwt>
<pdfrwt beam="2">  1       21 0.17082763E-02 0.32786197E+02</pdfrwt>
<totfact> 0.48629757E+05</totfact>
</mgrwt>
</event>
<event>
 4    1  0.4594485E+006  0.3070929E+02  0.7546771E-02  0.1590378E+00
         21   -1    0    0  502  501  0.00000000000E+00  0.00000000000E+00  0.42764137914E+02  0.42764137914E+02  0.00000000000E+00 0. -1.
         21   -1    0    0  503  502 -0.00000000000E+00 -0.00000000000E+00 -0.72594572462E+02  0.72594572462E+02  0.00000000000E+00 0.  1.
         21    1    1    2  503  504 -0.29320805188E+02 -0.91296678443E+01 -0.63042840173E+02  0.70124604447E+02  0.00000000000E+00 0.  1.
         21    1    1    2  504  501  0.29320805188E+02  0.91296678443E+01  0.33212405625E+02  0.45234105929E+02  0.00000000000E+00 0. -1.
<mgrwt>
<rscale>  2 0.30709289E+02</rscale>
<asrwt>0</asrwt>
<pdfrwt beam="1">  1       21 0.65790982E-02 0.30709289E+02</pdfrwt>
<pdfrwt beam="2">  1       21 0.11168396E-01 0.30709289E+02</pdfrwt>
<totfact> 0.93975467E+06</totfact>
</mgrwt>
</event>
<event>
 4    1  0.4594485E+006  0.2914425E+02  0.7546771E-02  0.1607745E+00
         21   -1    0    0  502  501  0.00000000000E+00  0.00000000000E+00  0.25080557624E+02  0.25080557624E+02  0.00000000000E+00 0.  1.
         21   -1    0    0  504  502 -0.00000000000E+00 -0.00000000000E+00 -0.57958778399E+02  0.57958778399E+02  0.00000000000E+00 0.  1.
         21    1    1    2  503  501  0.14977375799E+02 -0.25001307831E+02  0.10330032394E+02  0.30920814161E+02  0.00000000000E+00 0.  1.
         21    1    1    2  504  503 -0.14977375799E+02  0.25001307831E+02 -0.43208253169E+02  0.52118521861E+02  0.00000000000E+00 0.  1.
<mgrwt>
<rscale>  2 0.29144248E+02</rscale>
<asrwt>0</asrwt>
<pdfrwt beam="1">  1       21 0.38585474E-02 0.29144248E+02</pdfrwt>
<pdfrwt beam="2">  1       21 0.89167350E-02 0.29144248E+02</pdfrwt>
<totfact> 0.32006284E+07</totfact>
</mgrwt>
</event>
<event>
 4    1  0.4594485E+006  0.2952437E+02  0.7546771E-02  0.1603406E+00
         21   -1    0    0  504  501  0.00000000000E+00  0.00000000000E+00  0.68248127493E+02  0.68248127493E+02  0.00000000000E+00 0.  1.
         21   -1    0    0  503  502 -0.00000000000E+00 -0.00000000000E+00 -0.48167420008E+02  0.48167420008E+02  0.00000000000E+00 0. -1.
         21    1    1    2  503  501 -0.27567166733E+02 -0.10570688672E+02  0.59937505910E+02  0.66814614834E+02  0.00000000000E+00 0.  1.
         21    1    1    2  504  502  0.27567166733E+02  0.10570688672E+02 -0.39856798425E+02  0.49600932667E+02  0.00000000000E+00 0. -1.
<mgrwt>
<rscale>  2 0.29524365E+02</rscale>
<asrwt>0</asrwt>
<pdfrwt beam="1">  1       21 0.10499712E-01 0.29524365E+02</pdfrwt>
<pdfrwt beam="2">  1       21 0.74103723E-02 0.29524365E+02</pdfrwt>
<totfact> 0.85292698E+06</totfact>
</mgrwt>
</event>
<event>
 4    1  0.4594485E+006  0.2429547E+02  0.7546771E-02  0.1671332E+00
         21   -1    0    0  503  501  0.00000000000E+00  0.00000000000E+00  0.25242855535E+03  0.25242855535E+03  0.00000000000E+00 0. -1.
         21   -1    0    0  504  502 -0.00000000000E+00 -0.00000000000E+00 -0.32210005527E+01  0.32210005527E+01  0.00000000000E+00 0. -1.
         21    1    1    2  503  502  0.22295007241E+02 -0.96541469002E+01  0.57690770055E+02  0.62597882151E+02  0.00000000000E+00 0. -1.
         21    1    1    2  504  501 -0.22295007241E+02  0.96541469002E+01  0.19151678474E+03  0.19305167375E+03  0.00000000000E+00 0. -1.
<mgrwt>
<rscale>  2 0.24295471E+02</rscale>
<asrwt>0</asrwt>
<pdfrwt beam="1">  1       21 0.38835147E-01 0.24295471E+02</pdfrwt>
<pdfrwt beam="2">  1       21 0.49553874E-03 0.24295471E+02</pdfrwt>
<totfact> 0.53513045E+07</totfact>
</mgrwt>
</event>
<event>
 4    1  0.4594485E+006  0.3293034E+02  0.7546771E-02  0.1567787E+00
         21   -1    0    0  504  501  0.00000000000E+00  0.00000000000E+00  0.64457253162E+02  0.64457253162E+02  0.00000000000E+00 0. -1.
         21   -1    0    0  503  502 -0.00000000000E+00 -0.00000000000E+00 -0.26192224028E+02  0.26192224028E+02  0.00000000000E+00 0.  1.
         21    1    1    2  503  501  0.16688918707E+02 -0.28388154716E+02 -0.79747367243E+01  0.33882204203E+02  0.00000000000E+00 0.  1.
         21    1    1    2  504  502 -0.16688918707E+02  0.28388154716E+02  0.46239765858E+02  0.56767272987E+02  0.00000000000E+00 0. -1.
<mgrwt>
<rscale>  2 0.32930341E+02</rscale>
<asrwt>0</asrwt>
<pdfrwt beam="1">  1       21 0.99165004E-02 0.32930341E+02</pdfrwt>
<pdfrwt beam="2">  1       21 0.40295729E-02 0.32930341E+02</pdfrwt>
<totfact> 0.25626441E+07</totfact>
</mgrwt>
</event>
<event>
 4    1  0.4594485E+006  0.2620422E+02  0.7546771E-02  0.1644284E+00
         21   -1    0    0  502  501  0.00000000000E+00  0.00000000000E+00  0.36072546946E+03  0.36072546946E+03  0.00000000000E+00 0.  1.
         21   -1    0    0  504  502 -0.00000000000E+00 -0.00000000000E+00 -0.19644980318E+02  0.19644980318E+02  0.00000000000E+00 0. -1.
         21    1    1    2  503  501  0.21181818493E+01 -0.26118466856E+02  0.35127647547E+03  0.35225249924E+03  0.00000000000E+00 0.  1.
         21    1    1    2  504  503 -0.21181818493E+01  0.26118466856E+02 -0.10195986325E+02  0.28117950537E+02  0.00000000000E+00 0. -1.
<mgrwt>
<rscale>  2 0.26204217E+02</rscale>
<asrwt>0</asrwt>
<pdfrwt beam="1">  1       21 0.55496221E-01 0.26204217E+02</pdfrwt>
<pdfrwt beam="2">  1       21 0.30223049E-02 0.26204217E+02</pdfrwt>
<totfact> 0.17489970E+06</totfact>
</mgrwt>
</event>
<event>
 4    1  0.4594485E+006  0.2391042E+02  0.7546771E-02  0.1677164E+00
         21   -1    0    0  502  501  0.00000000000E+00  0.00000000000E+00  0.59117364816E+01  0.59117364816E+01  0.00000000000E+00 0. -1.
         21   -1    0    0  503  502 -0.00000000000E+00 -0.00000000000E+00 -0.22442649124E+03  0.22442649124E+03  0.00000000000E+00 0. -1.
         21    1    1    2  503  504  0.22785841160E+02 -0.72466384110E+01 -0.19613880986E+03  0.19759084254E+03  0.00000000000E+00 0. -1.
         21    1    1    2  504  501 -0.22785841160E+02  0.72466384110E+01 -0.22375944900E+02  0.32747385175E+02  0.00000000000E+00 0. -1.
<mgrwt>
<rscale>  2 0.23910423E+02</rscale>
<asrwt>0</asrwt>
<pdfrwt beam="1">  1       21 0.90949796E-03 0.23910423E+02</pdfrwt>
<pdfrwt beam="2">  1       21 0.34527151E-01 0.23910423E+02</pdfrwt>
<totfact> 0.26894049E+07</totfact>
</mgrwt>
</event>
<event>
 4    1  0.4594485E+006  0.2116699E+02  0.7546771E-02  0.1723070E+00
         21   -1    0    0  504  501  0.00000000000E+00  0.00000000000E+00  0.12164818842E+02  0.12164818842E+02  0.00000000000E+00 0. -1.
         21   -1    0    0  503  502 -0.00000000000E+00 -0.00000000000E+00 -0.36866490412E+02  0.36866490412E+02  0.00000000000E+00 0.  1.
         21    1    1    2  503  501  0.90681413865E+01  0.19126169473E+02 -0.11589400087E+02  0.24132048013E+02  0.00000000000E+00 0. -1.
         21    1    1    2  504  502 -0.90681413865E+01 -0.19126169473E+02 -0.13112271483E+02  0.24899261241E+02  0.00000000000E+00 0.  1.
<mgrwt>
<rscale>  2 0.21166992E+02</rscale>
<asrwt>0</asrwt>
<pdfrwt beam="1">  1       21 0.18715105E-02 0.21166992E+02</pdfrwt>
<pdfrwt beam="2">  1       21 0.56717679E-02 0.21166992E+02</pdfrwt>
<totfact> 0.18914772E+08</totfact>
</mgrwt>
</event>
<event>
 4    1  0.4594485E+006  0.2243983E+02  0.7546771E-02  0.1700755E+00
         21   -1    0    0  502  501  0.00000000000E+00  0.00000000000E+00  0.13101154146E+03  0.13101154146E+03  0.00000000000E+00 0. -1.
         21   -1    0    0  504  502 -0.00000000000E+00 -0.00000000000E+00 -0.45267988031E+01  0.45267988031E+01  0.00000000000E+00 0. -1.
         21    1    1    2  503  501 -0.18379011315E+02 -0.12874697761E+02  0.89571381225E+02  0.92339472783E+02  0.00000000000E+00 0. -1.
         21    1    1    2  504  503  0.18379011315E+02  0.12874697761E+02  0.36913361434E+02  0.43198867482E+02  0.00000000000E+00 0. -1.
<mgrwt>
<rscale>  2 0.22439828E+02</rscale>
<asrwt>0</asrwt>
<pdfrwt beam="1">  1       21 0.20155619E-01 0.22439828E+02</pdfrwt>
<pdfrwt beam="2">  1       21 0.69643068E-03 0.22439828E+02</pdfrwt>
<totfact> 0.10363643E+08</totfact>
</mgrwt>
</event>
<event>
 4    1  0.4594485E+006  0.2888130E+02  0.7546771E-02  0.1610794E+00
         21   -1    0    0  502  501  0.00000000000E+00  0.00000000000E+00  0.23287893365E+03  0.23287893365E+03  0.00000000000E+00 0. -1.
         21   -1    0    0  503  502 -0.00000000000E+00 -0.00000000000E+00 -0.33742023280E+03  0.33742023280E+03  0.00000000000E+00 0.  1.
         21    1    1    2  503  504  0.11732378221E+02  0.26390923048E+02 -0.33590272104E+03  0.33714205836E+03  0.00000000000E+00 0.  1.
         21    1    1    2  504  501 -0.11732378221E+02 -0.26390923048E+02  0.23136142188E+03  0.23315710809E+03  0.00000000000E+00 0. -1.
<mgrwt>
<rscale>  2 0.28881300E+02</rscale>
<asrwt>0</asrwt>
<pdfrwt beam="1">  1       21 0.35827528E-01 0.28881300E+02</pdfrwt>
<pdfrwt beam="2">  1       21 0.51910805E-01 0.28881300E+02</pdfrwt>
<totfact> 0.30899602E+04</totfact>
</mgrwt>
</event>
<event>
 4    1  0.4594485E+006  0.2003000E+02  0.7546771E-02  0.1744732E+00
         21   -1    0    0  502  501  0.00000000000E+00  0.00000000000E+00  0.22292525743E+01  0.22292525743E+01  0.00000000000E+00 0. -1.
         21   -1    0    0  503  502 -0.00000000000E+00 -0.00000000000E+00 -0.42535443163E+03  0.42535443163E+03  0.00000000000E+00 0.  1.
         21    1    1    2  503  504  0.10324279934E+02  0.17164208417E+02 -0.37394473285E+03  0.37448079261E+03  0.00000000000E+00 0.  1.
         21    1    1    2  504  501 -0.10324279934E+02 -0.17164208417E+02 -0.49180446199E+02  0.53102891589E+02  0.00000000000E+00 0. -1.
<mgrwt>
<rscale>  2 0.20029998E+02</rscale>
<asrwt>0</asrwt>
<pdfrwt beam="1">  1       21 0.34296188E-03 0.20029998E+02</pdfrwt>
<pdfrwt beam="2">  1       21 0.65439153E-01 0.20029998E+02</pdfrwt>
<totfact> 0.31806537E+07</totfact>
</mgrwt>
</event>
<event>
 4    1  0.4594485E+006  0.2686686E+02  0.7546771E-02  0.1635550E+00
         21   -1    0    0  503  501  0.00000000000E+00  0.00000000000E+00  0.82711732933E+03  0.82711732933E+03  0.00000000000E+00 0.  1.
         21   -1    0    0  504  502 -0.00000000000E+00 -0.00000000000E+00 -0.19762175636E+01  0.19762175636E+01  0.00000000000E+00 0. -1.
         21    1    1    2  503  502 -0.92167184591E+01  0.25236487085E+02  0.10279645858E+03  0.10624942388E+03  0.00000000000E+00 0. -1.
         21    1    1    2  504  501  0.92167184591E+01 -0.25236487085E+02  0.72234465319E+03  0.72284412301E+03  0.00000000000E+00 0.  1.
<mgrwt>
<rscale>  2 0.26866860E+02</rscale>
<asrwt>0</asrwt>
<pdfrwt beam="1">  1       21 0.12724854E+00 0.26866860E+02</pdfrwt>
<pdfrwt beam="2">  1       21 0.30403413E-03 0.26866860E+02</pdfrwt>
<totfact> 0.95586729E+06</totfact>
</mgrwt>
</event>
<event>
 4    1  0.4594485E+006  0.2016104E+02  0.7546771E-02  0.1742144E+00
         21   -1    0    0  504  501  0.00000000000E+00  0.00000000000E+00  0.64456227472E+02  0.64456227472E+02  0.00000000000E+00 0. -1.
         21   -1    0    0  501  502 -0.00000000000E+00 -0.00000000000E+00 -0.64035836279E+01  0.64035836279E+01  0.00000000000E+00 0. -1.
         21    1    1    2  503  502  0.11074932134E+01  0.20130600541E+02  0.24654954944E+02  0.31848617280E+02  0.00000000000E+00 0. -1.
         21    1    1    2  504  503 -0.11074932134E+01 -0.20130600541E+02  0.33397688900E+02  0.39011193820E+02  0.00000000000E+00 0. -1.
<mgrwt>
<rscale>  2 0.20161042E+02</rscale>
<asrwt>0</asrwt>
<pdfrwt beam="1">  1       21 0.99163422E-02 0.20161042E+02</pdfrwt>
<pdfrwt beam="2">  1       21 0.98516676E-03 0.20161042E+02</pdfrwt>
<totfact> 0.19857217E+08</totfact>
</mgrwt>
</event>
<event>
 4    1  0.4594485E+006  0.2285517E+02  0.7546771E-02  0.1693869E+00
         21   -1    0    0  503  501  0.00000000000E+00  0.00000000000E+00  0.91212663788E+02  0.91212663788E+02  0.00000000000E+00 0. -1.
         21   -1    0    0  504  502 -0.00000000000E+00 -0.00000000000E+00 -0.71420741393E+02  0.71420741393E+02  0.00000000000E+00 0. -1.
         21    1    1    2  503  502  0.11219750988E+02 -0.19911703534E+02  0.87884389296E+02  0.90807624304E+02  0.00000000000E+00 0. -1.
         21    1    1    2  504  501 -0.11219750988E+02  0.19911703534E+02 -0.68092466901E+02  0.71825780876E+02  0.00000000000E+00 0. -1.
<mgrwt>
<rscale>  2 0.22855169E+02</rscale>
<asrwt>0</asrwt>
<pdfrwt beam="1">  1       21 0.14032718E-01 0.22855169E+02</pdfrwt>
<pdfrwt beam="2">  1       21 0.10987806E-01 0.22855169E+02</pdfrwt>
<totfact> 0.26272616E+06</totfact>
</mgrwt>
</event>
<event>
 4    1  0.4594485E+006  0.2129570E+02  0.7546771E-02  0.1720725E+00
         21   -1    0    0  504  501  0.00000000000E+00  0.00000000000E+00  0.11282859278E+02  0.11282859278E+02  0.00000000000E+00 0.  1.
         21   -1    0    0  503  502 -0.00000000000E+00 -0.00000000000E+00 -0.43160693542E+02  0.43160693542E+02  0.00000000000E+00 0.  1.
         21    1    1    2  503  501  0.21260900712E+02 -0.12168887115E+01 -0.23075430392E+02  0.31400353581E+02  0.00000000000E+00 0.  1.
         21    1    1    2  504  502 -0.21260900712E+02  0.12168887115E+01 -0.88024038726E+01  0.23043199239E+02  0.00000000000E+00 0.  1.
<mgrwt>
<rscale>  2 0.21295697E+02</rscale>
<asrwt>0</asrwt>
<pdfrwt beam="1">  1       21 0.17358245E-02 0.21295697E+02</pdfrwt>
<pdfrwt beam="2">  1       21 0.66401066E-02 0.21295697E+02</pdfrwt>
<totfact> 0.16509107E+08</totfact>
</mgrwt>
</event>
<event>
 4    1  0.4594485E+006  0.2145305E+02  0.7546771E-02  0.1717886E+00
         21   -1    0    0  504  501  0.00000000000E+00  0.00000000000E+00  0.30631789307E+01  0.30631789307E+01  0.00000000000E+00 0.  1.
         21   -1    0    0  503  502 -0.00000000000E+00 -0.00000000000E+00 -0.24708503701E+03  0.24708503701E+03  0.00000000000E+00 0.  1.
         21    1    1    2  503  501 -0.14894760064E+02  0.15439549254E+02 -0.20031189081E+03  0.20145740780E+03  0.00000000000E+00 0.  1.
         21    1    1    2  504  502  0.14894760064E+02 -0.15439549254E+02 -0.43709967275E+02  0.48690808144E+02  0.00000000000E+00 0.  1.
<mgrwt>
<rscale>  2 0.21453055E+02</rscale>
<asrwt>0</asrwt>
<pdfrwt beam="1">  1       21 0.47125837E-03 0.21453055E+02</pdfrwt>
<pdfrwt beam="2">  1       21 0.38013077E-01 0.21453055E+02</pdfrwt>
<totfact> 0.58174965E+07</totfact>
</mgrwt>
</event>
<event>
 4    1  0.4594485E+006  0.2692317E+02  0.7546771E-02  0.1634822E+00
         21   -1    0    0  504  501  0.00000000000E+00  0.00000000000E+00  0.17725977889E+03  0.17725977889E+03  0.00000000000E+00 0. -1.
         21   -1    0    0  503  502 -0.00000000000E+00 -0.00000000000E+00 -0.84585792380E+01  0.84585792380E+01  0.00000000000E+00 0. -1.
         21    1    1    2  503  501 -0.14458054774E+02 -0.22711705197E+02  0.17660898721E+02  0.32198823650E+02  0.00000000000E+00 0. -1.
         21    1    1    2  504  502  0.14458054774E+02  0.22711705197E+02  0.15114030093E+03  0.15351953448E+03  0.00000000000E+00 0. -1.
<mgrwt>
<rscale>  2 0.26923167E+02</rscale>
<asrwt>0</asrwt>
<pdfrwt beam="1">  1       21 0.27270732E-01 0.26923167E+02</pdfrwt>
<pdfrwt beam="2">  1       21 0.13013200E-02 0.26923167E+02</pdfrwt>
<totfact> 0.24711468E+07</totfact>
</mgrwt>
</event>
<event>
 4    1  0.4594485E+006  0.2221071E+02  0.7546771E-02  0.1704633E+00
         21   -1    0    0  504  501  0.00000000000E+00  0.00000000000E+00  0.42444355030E+03  0.42444355030E+03  0.00000000000E+00 0.  1.
         21   -1    0    0  501  502 -0.00000000000E+00 -0.00000000000E+00 -0.73490148549E+01  0.73490148549E+01  0.00000000000E+00 0. -1.
         21    1    1    2  503  502  0.13861601488E+02  0.17354301714E+02  0.10457570371E+02  0.24549471722E+02  0.00000000000E+00 0. -1.
         21    1    1    2  504  503 -0.13861601488E+02 -0.17354301714E+02  0.40663696508E+03  0.40724309343E+03  0.00000000000E+00 0.  1.
<mgrwt>
<rscale>  2 0.22210713E+02</rscale>
<asrwt>0</asrwt>
<pdfrwt beam="1">  1       21 0.65298988E-01 0.22210713E+02</pdfrwt>
<pdfrwt beam="2">  1       21 0.11306180E-02 0.22210713E+02</pdfrwt>
<totfact> 0.55826948E+06</totfact>
</mgrwt>
</event>
<event>
 4    1  0.4594485E+006  0.4049023E+02  0.7546771E-02  0.1504635E+00
         21   -1    0    0  503  501  0.00000000000E+00  0.00000000000E+00  0.10218055372E+04  0.10218055372E+04  0.00000000000E+00 0.  1.
         21   -1    0    0  504  502 -0.00000000000E+00 -0.00000000000E+00 -0.27537841464E+01  0.27537841464E+01  0.00000000000E+00 0.  1.
         21    1    1    2  503  502 -0.30888900810E+02  0.26178888070E+02  0.17857680747E+03  0.18310962438E+03  0.00000000000E+00 0.  1.
         21    1    1    2  504  501  0.30888900810E+02 -0.26178888070E+02  0.84047494558E+03  0.84144969697E+03  0.00000000000E+00 0.  1.
<mgrwt>
<rscale>  2 0.40490226E+02</rscale>
<asrwt>0</asrwt>
<pdfrwt beam="1">  1       21 0.15720055E+00 0.40490226E+02</pdfrwt>
<pdfrwt beam="2">  1       21 0.42365991E-03 0.40490226E+02</pdfrwt>
<totfact> 0.36752404E+06</totfact>
</mgrwt>
</event>
<event>
 4    1  0.4594485E+006  0.3145423E+02  0.7546771E-02  0.1582549E+00
         21   -1    0    0  504  501  0.00000000000E+00  0.00000000000E+00  0.11637577318E+03  0.11637577318E+03  0.00000000000E+00 0.  1.
         21   -1    0    0  501  502 -0.00000000000E+00 -0.00000000000E+00 -0.11381481562E+02  0.11381481562E+02  0.00000000000E+00 0.  1.
         21    1    1    2  503  502  0.18432964145E+02 -0.25487143379E+02  0.20364164334E+02  0.37470893155E+02  0.00000000000E+00 0.  1.
         21    1    1    2  504  503 -0.18432964145E+02  0.25487143379E+02  0.84630127287E+02  0.90286361591E+02  0.00000000000E+00 0.  1.
<mgrwt>
<rscale>  2 0.31454231E+02</rscale>
<asrwt>0</asrwt>
<pdfrwt beam="1">  1       21 0.17903964E-01 0.31454231E+02</pdfrwt>
<pdfrwt beam="2">  1       21 0.17509972E-02 0.31454231E+02</pdfrwt>
<totfact> 0.34192592E+07</totfact>
</mgrwt>
</event>
<event>
 4    1  0.4594485E+006  0.2395406E+02  0.7546771E-02  0.1676496E+00
         21   -1    0    0  504  501  0.00000000000E+00  0.00000000000E+00  0.23629958996E+02  0.23629958996E+02  0.00000000000E+00 0.  1.
         21   -1    0    0  503  502 -0.00000000000E+00 -0.00000000000E+00 -0.13101868060E+03  0.13101868060E+03  0.00000000000E+00 0.  1.
         21    1    1    2  503  501  0.23091507182E+02  0.63701974068E+01 -0.12348627328E+03  0.12578814256E+03  0.00000000000E+00 0.  1.
         21    1    1    2  504  502 -0.23091507182E+02 -0.63701974068E+01  0.16097551682E+02  0.28860497034E+02  0.00000000000E+00 0.  1.
<mgrwt>
<rscale>  2 0.23954063E+02</rscale>
<asrwt>0</asrwt>
<pdfrwt beam="1">  1       21 0.36353784E-02 0.23954063E+02</pdfrwt>
<pdfrwt beam="2">  1       21 0.20156720E-01 0.23954063E+02</pdfrwt>
<totfact> 0.84623904E+06</totfact>
</mgrwt>
</event>
<event>
 4    1  0.4594485E+006  0.2608772E+02  0.7546771E-02  0.1645853E+00
         21   -1    0    0  504  501  0.00000000000E+00  0.00000000000E+00  0.35963827343E+02  0.35963827343E+02  0.00000000000E+00 0.  1.
         21   -1    0    0  503  502 -0.00000000000E+00 -0.00000000000E+00 -0.84395860617E+02  0.84395860617E+02  0.00000000000E+00 0.  1.
         21    1    1    2  503  501  0.52956884273E+01 -0.25544560914E+02 -0.77221255973E+02  0.81508841743E+02  0.00000000000E+00 0.  1.
         21    1    1    2  504  502 -0.52956884273E+01  0.25544560914E+02  0.28789222699E+02  0.38850846217E+02  0.00000000000E+00 0.  1.
<mgrwt>
<rscale>  2 0.26087716E+02</rscale>
<asrwt>0</asrwt>
<pdfrwt beam="1">  1       21 0.55328965E-02 0.26087716E+02</pdfrwt>
<pdfrwt beam="2">  1       21 0.12983978E-01 0.26087716E+02</pdfrwt>
<totfact> 0.93871492E+06</totfact>
</mgrwt>
</event>
<event>
 4    1  0.4594485E+006  0.2310689E+02  0.7546771E-02  0.1689783E+00
         21   -1    0    0  504  501  0.00000000000E+00  0.00000000000E+00  0.93400064589E+02  0.93400064589E+02  0.00000000000E+00 0. -1.
         21   -1    0    0  503  502 -0.00000000000E+00 -0.00000000000E+00 -0.57317365741E+02  0.57317365741E+02  0.00000000000E+00 0. -1.
         21    1    1    2  503  501  0.78863619857E+01 -0.21719427163E+02 -0.53460712188E+02  0.58240672809E+02  0.00000000000E+00 0. -1.
         21    1    1    2  504  502 -0.78863619857E+01  0.21719427163E+02  0.89543411035E+02  0.92476757520E+02  0.00000000000E+00 0. -1.
<mgrwt>
<rscale>  2 0.23106887E+02</rscale>
<asrwt>0</asrwt>
<pdfrwt beam="1">  1       21 0.14369241E-01 0.23106887E+02</pdfrwt>
<pdfrwt beam="2">  1       21 0.88180563E-02 0.23106887E+02</pdfrwt>
<totfact> 0.36360969E+06</totfact>
</mgrwt>
</event>
<event>
 4    1  0.4594485E+006  0.3788217E+02  0.7546771E-02  0.1524401E+00
         21   -1    0    0  502  501  0.00000000000E+00  0.00000000000E+00  0.82474023405E+03  0.82474023405E+03  0.00000000000E+00 0. -1.
         21   -1    0    0  504  502 -0.00000000000E+00 -0.00000000000E+00 -0.31339420249E+02  0.31339420249E+02  0.00000000000E+00 0. -1.
         21    1    1    2  503  501 -0.66677186818E+01 -0.37290749611E+02  0.81268783934E+03  0.81357026906E+03  0.00000000000E+00 0. -1.
         21    1    1    2  504  503  0.66677186818E+01  0.37290749611E+02 -0.19287025545E+02  0.42509385238E+02  0.00000000000E+00 0. -1.
<mgrwt>
<rscale>  2 0.37882166E+02</rscale>
<asrwt>0</asrwt>
<pdfrwt beam="1">  1       21 0.12688310E+00 0.37882166E+02</pdfrwt>
<pdfrwt beam="2">  1       21 0.48214499E-02 0.37882166E+02</pdfrwt>
<totfact> 0.14228779E+05</totfact>
</mgrwt>
</event>
<event>
 4    1  0.4594485E+006  0.3612066E+02  0.7546771E-02  0.1538868E+00
         21   -1    0    0  504  501  0.00000000000E+00  0.00000000000E+00  0.32835285850E+03  0.32835285850E+03  0.00000000000E+00 0. -1.
         21   -1    0    0  503  502 -0.00000000000E+00 -0.00000000000E+00 -0.72010421034E+01  0.72010421034E+01  0.00000000000E+00 0.  1.
         21    1    1    2  503  501  0.21222769107E+02 -0.29228345030E+02  0.48251996738E+02  0.60274018208E+02  0.00000000000E+00 0.  1.
         21    1    1    2  504  502 -0.21222769107E+02  0.29228345030E+02  0.27289981965E+03  0.27527988239E+03  0.00000000000E+00 0. -1.
<mgrwt>
<rscale>  2 0.36120660E+02</rscale>
<asrwt>0</asrwt>
<pdfrwt beam="1">  1       21 0.50515813E-01 0.36120660E+02</pdfrwt>
<pdfrwt beam="2">  1       21 0.11078529E-02 0.36120660E+02</pdfrwt>
<totfact> 0.10334827E+07</totfact>
</mgrwt>
</event>
<event>
 4    1  0.4594485E+006  0.3560196E+02  0.7546771E-02  0.1543319E+00
         21   -1    0    0  503  501  0.00000000000E+00  0.00000000000E+00  0.21672577748E+02  0.21672577748E+02  0.00000000000E+00 0.  1.
         21   -1    0    0  504  502 -0.00000000000E+00 -0.00000000000E+00 -0.59074192266E+02  0.59074192266E+02  0.00000000000E+00 0.  1.
         21    1    1    2  503  502 -0.34975498644E+02  0.66493798840E+01 -0.14665461246E+02  0.38504227194E+02  0.00000000000E+00 0.  1.
         21    1    1    2  504  501  0.34975498644E+02 -0.66493798840E+01 -0.22736153272E+02  0.42242542819E+02  0.00000000000E+00 0.  1.
<mgrwt>
<rscale>  2 0.35601963E+02</rscale>
<asrwt>0</asrwt>
<pdfrwt beam="1">  1       21 0.33342427E-02 0.35601963E+02</pdfrwt>
<pdfrwt beam="2">  1       21 0.90883373E-02 0.35601963E+02</pdfrwt>
<totfact> 0.40717395E+07</totfact>
</mgrwt>
</event>
<event>
 4    1  0.4594485E+006  0.2701150E+02  0.7546771E-02  0.1633685E+00
         21   -1    0    0  502  501  0.00000000000E+00  0.00000000000E+00  0.35745694328E+03  0.35745694328E+03  0.00000000000E+00 0.  1.
         21   -1    0    0  503  502 -0.00000000000E+00 -0.00000000000E+00 -0.24921906568E+01  0.24921906568E+01  0.00000000000E+00 0.  1.
         21    1    1    2  503  504 -0.18686009971E+02  0.19505235453E+02  0.10091722822E+03  0.10446965172E+03  0.00000000000E+00 0.  1.
         21    1    1    2  504  501  0.18686009971E+02 -0.19505235453E+02  0.25404752440E+03  0.25547948222E+03  0.00000000000E+00 0.  1.
<mgrwt>
<rscale>  2 0.27011501E+02</rscale>
<asrwt>0</asrwt>
<pdfrwt beam="1">  1       21 0.54993335E-01 0.27011501E+02</pdfrwt>
<pdfrwt beam="2">  1       21 0.38341423E-03 0.27011501E+02</pdfrwt>
<totfact> 0.40831877E+07</totfact>
</mgrwt>
</event>
<event>
 4    1  0.4594485E+006  0.2312119E+02  0.7546771E-02  0.1689553E+00
         21   -1    0    0  503  501  0.00000000000E+00  0.00000000000E+00  0.32372238504E+02  0.32372238504E+02  0.00000000000E+00 0. -1.
         21   -1    0    0  504  502 -0.00000000000E+00 -0.00000000000E+00 -0.34487847532E+02  0.34487847532E+02  0.00000000000E+00 0. -1.
         21    1    1    2  503  502  0.36982525951E+01 -0.22823499461E+02 -0.25191656035E+02  0.34193694356E+02  0.00000000000E+00 0. -1.
         21    1    1    2  504  501 -0.36982525951E+01  0.22823499461E+02  0.23076047007E+02  0.32666391680E+02  0.00000000000E+00 0. -1.
<mgrwt>
<rscale>  2 0.23121185E+02</rscale>
<asrwt>0</asrwt>
<pdfrwt beam="1">  1       21 0.49803444E-02 0.23121185E+02</pdfrwt>
<pdfrwt beam="2">  1       21 0.53058227E-02 0.23121185E+02</pdfrwt>
<totfact> 0.47019944E+07</totfact>
</mgrwt>
</event>
<event>
 4    1  0.4594485E+006  0.2578675E+02  0.7546771E-02  0.1649952E+00
         21   -1    0    0  503  501  0.00000000000E+00  0.00000000000E+00  0.11194610564E+02  0.11194610564E+02  0.00000000000E+00 0.  1.
         21   -1    0    0  504  502 -0.00000000000E+00 -0.00000000000E+00 -0.59409156352E+02  0.59409156352E+02  0.00000000000E+00 0.  1.
         21    1    1    2  503  502  0.20584159990E+02 -0.15532193621E+02 -0.24552293190E+02  0.35605782986E+02  0.00000000000E+00 0.  1.
         21    1    1    2  504  501 -0.20584159990E+02  0.15532193621E+02 -0.23662252597E+02  0.34997983930E+02  0.00000000000E+00 0.  1.
<mgrwt>
<rscale>  2 0.25786754E+02</rscale>
<asrwt>0</asrwt>
<pdfrwt beam="1">  1       21 0.17222477E-02 0.25786754E+02</pdfrwt>
<pdfrwt beam="2">  1       21 0.91398705E-02 0.25786754E+02</pdfrwt>
<totfact> 0.10491833E+08</totfact>
</mgrwt>
</event>
<event>
 4    1  0.4594485E+006  0.3425164E+02  0.7546771E-02  0.1555348E+00
         21   -1    0    0  504  501  0.00000000000E+00  0.00000000000E+00  0.19062059029E+02  0.19062059029E+02  0.00000000000E+00 0. -1.
         21   -1    0    0  503  502 -0.00000000000E+00 -0.00000000000E+00 -0.64233932314E+02  0.64233932314E+02  0.00000000000E+00 0. -1.
         21    1    1    2  503  501 -0.31109486150E+02 -0.14330895424E+02 -0.31107134419E+02  0.46269087996E+02  0.00000000000E+00 0. -1.
         21    1    1    2  504  502  0.31109486150E+02  0.14330895424E+02 -0.14064738865E+02  0.37026903347E+02  0.00000000000E+00 0. -1.
<mgrwt>
<rscale>  2 0.34251638E+02</rscale>
<asrwt>0</asrwt>
<pdfrwt beam="1">  1       21 0.29326245E-02 0.34251638E+02</pdfrwt>
<pdfrwt beam="2">  1       21 0.98821434E-02 0.34251638E+02</pdfrwt>
<totfact> 0.43021952E+07</totfact>
</mgrwt>
</event>
<event>
 4    1  0.4594485E+006  0.2149470E+02  0.7546771E-02  0.1717140E+00
         21   -1    0    0  504  501  0.00000000000E+00  0.00000000000E+00  0.44282043020E+02  0.44282043020E+02  0.00000000000E+00 0. -1.
         21   -1    0    0  503  502 -0.00000000000E+00 -0.00000000000E+00 -0.12129360645E+02  0.12129360645E+02  0.00000000000E+00 0. -1.
         21    1    1    2  503  501 -0.18517724102E+02  0.10914026269E+02  0.26622577081E+02  0.34216716466E+02  0.00000000000E+00 0. -1.
         21    1    1    2  504  502  0.18517724102E+02 -0.10914026269E+02  0.55301052940E+01  0.22194687199E+02  0.00000000000E+00 0. -1.
<mgrwt>
<rscale>  2 0.21494699E+02</rscale>
<asrwt>0</asrwt>
<pdfrwt beam="1">  1       21 0.68126219E-02 0.21494699E+02</pdfrwt>
<pdfrwt beam="2">  1       21 0.18660555E-02 0.21494699E+02</pdfrwt>
<totfact> 0.14227007E+08</totfact>
</mgrwt>
</event>
<event>
 4    1  0.4594485E+006  0.2316076E+02  0.7546771E-02  0.1688917E+00
         21   -1    0    0  504  501  0.00000000000E+00  0.00000000000E+00  0.62563180521E+03  0.62563180521E+03  0.00000000000E+00 0.  1.
         21   -1    0    0  503  502 -0.00000000000E+00 -0.00000000000E+00 -0.63236656078E+01  0.63236656078E+01  0.00000000000E+00 0.  1.
         21    1    1    2  503  501  0.10012505943E+01  0.23139111449E+02  0.60343062084E+03  0.60387493337E+03  0.00000000000E+00 0.  1.
         21    1    1    2  504  502 -0.10012505943E+01 -0.23139111449E+02  0.15877518759E+02  0.28080537448E+02  0.00000000000E+00 0.  1.
<mgrwt>
<rscale>  2 0.23160764E+02</rscale>
<asrwt>0</asrwt>
<pdfrwt beam="1">  1       21 0.96250998E-01 0.23160764E+02</pdfrwt>
<pdfrwt beam="2">  1       21 0.97287212E-03 0.23160764E+02</pdfrwt>
<totfact> 0.31238871E+06</totfact>
</mgrwt>
</event>
<event>
 4    1  0.4594485E+006  0.3144196E+02  0.7546771E-02  0.1582676E+00
         21   -1    0    0  502  501  0.00000000000E+00  0.00000000000E+00  0.33046130012E+03  0.33046130012E+03  0.00000000000E+00 0. -1.
         21   -1    0    0  503  502 -0.00000000000E+00 -0.00000000000E+00 -0.11573633574E+02  0.11573633574E+02  0.00000000000E+00 0. -1.
         21    1    1    2  503  504 -0.31402111149E+02 -0.15824595750E+01  0.12178144807E+02  0.33718006671E+02  0.00000000000E+00 0. -1.
         21    1    1    2  504  501  0.31402111149E+02  0.15824595750E+01  0.30670952174E+03  0.30831692703E+03  0.00000000000E+00 0. -1.
<mgrwt>
<rscale>  2 0.31441959E+02</rscale>
<asrwt>0</asrwt>
<pdfrwt beam="1">  1       21 0.50840193E-01 0.31441959E+02</pdfrwt>
<pdfrwt beam="2">  1       21 0.17805593E-02 0.31441959E+02</pdfrwt>
<totfact> 0.48336838E+06</totfact>
</mgrwt>
</event>
<event>
 4    1  0.4594485E+006  0.2225247E+02  0.7546771E-02  0.1703922E+00
         21   -1    0    0  502  501  0.00000000000E+00  0.00000000000E+00  0.24154963373E+03  0.24154963373E+03  0.00000000000E+00 0.  1.
         21   -1    0    0  504  502 -0.00000000000E+00 -0.00000000000E+00 -0.35134150682E+02  0.35134150682E+02  0.00000000000E+00 0.  1.
         21    1    1    2  503  501 -0.20512760664E+02 -0.86254987441E+01  0.23745304166E+03  0.23849343717E+03  0.00000000000E+00 0.  1.
         21    1    1    2  504  503  0.20512760664E+02  0.86254987441E+01 -0.31037558608E+02  0.38190347249E+02  0.00000000000E+00 0.  1.
<mgrwt>
<rscale>  2 0.22252474E+02</rscale>
<asrwt>0</asrwt>
<pdfrwt beam="1">  1       21 0.37161481E-01 0.22252474E+02</pdfrwt>
<pdfrwt beam="2">  1       21 0.54052541E-02 0.22252474E+02</pdfrwt>
<totfact> 0.14827418E+06</totfact>
</mgrwt>
</event>
<event>
 4    1  0.4594485E+006  0.2445367E+02  0.7546771E-02  0.1668975E+00
         21   -1    0    0  503  501  0.00000000000E+00  0.00000000000E+00  0.22312542284E+03  0.22312542284E+03  0.00000000000E+00 0. -1.
         21   -1    0    0  504  502 -0.00000000000E+00 -0.00000000000E+00 -0.12732971047E+03  0.12732971047E+03  0.00000000000E+00 0. -1.
         21    1    1    2  503  502 -0.21541349245E+02 -0.11573764016E+02  0.22127152820E+03  0.22261866708E+03  0.00000000000E+00 0. -1.
         21    1    1    2  504  501  0.21541349245E+02  0.11573764016E+02 -0.12547581583E+03  0.12783646623E+03  0.00000000000E+00 0. -1.
<mgrwt>
<rscale>  2 0.24453665E+02</rscale>
<asrwt>0</asrwt>
<pdfrwt beam="1">  1       21 0.34326988E-01 0.24453665E+02</pdfrwt>
<pdfrwt beam="2">  1       21 0.19589186E-01 0.24453665E+02</pdfrwt>
<totfact> 0.20344006E+05</totfact>
</mgrwt>
</event>
<event>
 4    1  0.4594485E+006  0.2045168E+02  0.7546771E-02  0.1736492E+00
         21   -1    0    0  502  501  0.00000000000E+00  0.00000000000E+00  0.16349349039E+03  0.16349349039E+03  0.00000000000E+00 0. -1.
         21   -1    0    0  504  502 -0.00000000000E+00 -0.00000000000E+00 -0.36316159910E+01  0.36316159910E+01  0.00000000000E+00 0.  1.
         21    1    1    2  503  501  0.20049348032E+02 -0.40366948451E+01  0.12535837924E+03  0.12701572543E+03  0.00000000000E+00 0. -1.
         21    1    1    2  504  503 -0.20049348032E+02  0.40366948451E+01  0.34503495159E+02  0.40109380947E+02  0.00000000000E+00 0.  1.
<mgrwt>
<rscale>  2 0.20451681E+02</rscale>
<asrwt>0</asrwt>
<pdfrwt beam="1">  1       21 0.25152839E-01 0.20451681E+02</pdfrwt>
<pdfrwt beam="2">  1       21 0.55871028E-03 0.20451681E+02</pdfrwt>
<totfact> 0.94756025E+07</totfact>
</mgrwt>
</event>
<event>
 4    1  0.4594485E+006  0.2220545E+02  0.7546771E-02  0.1704723E+00
         21   -1    0    0  502  501  0.00000000000E+00  0.00000000000E+00  0.82682311192E+03  0.82682311192E+03  0.00000000000E+00 0.  1.
         21   -1    0    0  504  502 -0.00000000000E+00 -0.00000000000E+00 -0.33152259752E+01  0.33152259752E+01  0.00000000000E+00 0. -1.
         21    1    1    2  503  501 -0.52379973001E+01 -0.21578816410E+02  0.78764156885E+03  0.78795451831E+03  0.00000000000E+00 0.  1.
         21    1    1    2  504  503  0.52379973001E+01  0.21578816410E+02  0.35866317089E+02  0.42183819586E+02  0.00000000000E+00 0. -1.
<mgrwt>
<rscale>  2 0.22205448E+02</rscale>
<asrwt>0</asrwt>
<pdfrwt beam="1">  1       21 0.12720339E+00 0.22205448E+02</pdfrwt>
<pdfrwt beam="2">  1       21 0.51003543E-03 0.22205448E+02</pdfrwt>
<totfact> 0.43601701E+06</totfact>
</mgrwt>
</event>
<event>
 4    1  0.4594485E+006  0.2467614E+02  0.7546771E-02  0.1665698E+00
         21   -1    0    0  504  501  0.00000000000E+00  0.00000000000E+00  0.18281223602E+04  0.18281223602E+04  0.00000000000E+00 0.  1.
         21   -1    0    0  503  502 -0.00000000000E+00 -0.00000000000E+00 -0.42801675822E+00  0.42801675822E+00  0.00000000000E+00 0.  1.
         21    1    1    2  503  501  0.26926643028E+01  0.24528790173E+02  0.13444357488E+04  0.13446621861E+04  0.00000000000E+00 0.  1.
         21    1    1    2  504  502 -0.26926643028E+01 -0.24528790173E+02  0.48325859466E+03  0.48388819091E+03  0.00000000000E+00 0.  1.
<mgrwt>
<rscale>  2 0.24676142E+02</rscale>
<asrwt>0</asrwt>
<pdfrwt beam="1">  1       21 0.28124334E+00 0.24676142E+02</pdfrwt>
<pdfrwt beam="2">  1       21 0.65850196E-04 0.24676142E+02</pdfrwt>
<totfact> 0.10863909E+07</totfact>
</mgrwt>
</event>
<event>
 4    1  0.4594485E+006  0.2053796E+02  0.7546771E-02  0.1734837E+00
         21   -1    0    0  503  501  0.00000000000E+00  0.00000000000E+00  0.74445144719E+02  0.74445144719E+02  0.00000000000E+00 0.  1.
         21   -1    0    0  504  502 -0.00000000000E+00 -0.00000000000E+00 -0.59271383902E+01  0.59271383902E+01  0.00000000000E+00 0.  1.
         21    1    1    2  503  502 -0.89105114982E+01  0.18504341918E+02  0.42693714097E+02  0.47376799263E+02  0.00000000000E+00 0.  1.
         21    1    1    2  504  501  0.89105114982E+01 -0.18504341918E+02  0.25824292231E+02  0.32995483846E+02  0.00000000000E+00 0.  1.
<mgrwt>
<rscale>  2 0.20537962E+02</rscale>
<asrwt>0</asrwt>
<pdfrwt beam="1">  1       21 0.11453098E-01 0.20537962E+02</pdfrwt>
<pdfrwt beam="2">  1       21 0.91186750E-03 0.20537962E+02</pdfrwt>
<totfact> 0.17669518E+08</totfact>
</mgrwt>
</event>
<event>
 4    1  0.4594485E+006  0.2043457E+02  0.7546771E-02  0.1736822E+00
         21   -1    0    0  503  501  0.00000000000E+00  0.00000000000E+00  0.11404763291E+03  0.11404763291E+03  0.00000000000E+00 0. -1.
         21   -1    0    0  504  502 -0.00000000000E+00 -0.00000000000E+00 -0.38541578420E+01  0.38541578420E+01  0.00000000000E+00 0. -1.
         21    1    1    2  503  502  0.38314022592E+01 -0.20072169110E+02  0.68280982477E+02  0.71273165947E+02  0.00000000000E+00 0. -1.
         21    1    1    2  504  501 -0.38314022592E+01  0.20072169110E+02  0.41912492595E+02  0.46628624809E+02  0.00000000000E+00 0. -1.
<mgrwt>
<rscale>  2 0.20434569E+02</rscale>
<asrwt>0</asrwt>
<pdfrwt beam="1">  1       21 0.17545787E-01 0.20434569E+02</pdfrwt>
<pdfrwt beam="2">  1       21 0.59294745E-03 0.20434569E+02</pdfrwt>
<totfact> 0.16265101E+08</totfact>
</mgrwt>
</event>
<event>
 4    1  0.4594485E+006  0.2302057E+02  0.7546771E-02  0.1691177E+00
         21   -1    0    0  503  501  0.00000000000E+00  0.00000000000E+00  0.23916004645E+03  0.23916004645E+03  0.00000000000E+00 0. -1.
         21   -1    0    0  501  502 -0.00000000000E+00 -0.00000000000E+00 -0.57071946991E+02  0.57071946991E+02  0.00000000000E+00 0.  1.
         21    1    1    2  503  504  0.14128895455E+02  0.18174737995E+02  0.23625621695E+03  0.23737511840E+03  0.00000000000E+00 0. -1.
         21    1    1    2  504  502 -0.14128895455E+02 -0.18174737995E+02 -0.54168117487E+02  0.58856875045E+02  0.00000000000E+00 0.  1.
<mgrwt>
<rscale>  2 0.23020573E+02</rscale>
<asrwt>0</asrwt>
<pdfrwt beam="1">  1       21 0.36793853E-01 0.23020573E+02</pdfrwt>
<pdfrwt beam="2">  1       21 0.87802997E-02 0.23020573E+02</pdfrwt>
<totfact> 0.69145911E+05</totfact>
</mgrwt>
</event>
<event>
 4    1  0.4594485E+006  0.2258491E+02  0.7546771E-02  0.1698328E+00
         21   -1    0    0  504  501  0.00000000000E+00  0.00000000000E+00  0.91573261835E+02  0.91573261835E+02  0.00000000000E+00 0.  1.
         21   -1    0    0  503  502 -0.00000000000E+00 -0.00000000000E+00 -0.18156385713E+03  0.18156385713E+03  0.00000000000E+00 0. -1.
         21    1    1    2  503  501 -0.22416865735E+02 -0.27499971700E+01  0.89462061523E+02  0.92268839842E+02  0.00000000000E+00 0.  1.
         21    1    1    2  504  502  0.22416865735E+02  0.27499971700E+01 -0.17945265682E+03  0.18086827913E+03  0.00000000000E+00 0. -1.
<mgrwt>
<rscale>  2 0.22584914E+02</rscale>
<asrwt>0</asrwt>
<pdfrwt beam="1">  1       21 0.14088194E-01 0.22584914E+02</pdfrwt>
<pdfrwt beam="2">  1       21 0.27932901E-01 0.22584914E+02</pdfrwt>
<totfact> 0.52044175E+05</totfact>
</mgrwt>
</event>
<event>
 4    1  0.4594485E+006  0.2246499E+02  0.7546771E-02  0.1700332E+00
         21   -1    0    0  503  501  0.00000000000E+00  0.00000000000E+00  0.16853080285E+03  0.16853080285E+03  0.00000000000E+00 0. -1.
         21   -1    0    0  504  502 -0.00000000000E+00 -0.00000000000E+00 -0.97243628008E+01  0.97243628008E+01  0.00000000000E+00 0. -1.
         21    1    1    2  503  502 -0.19722202207E+02 -0.10756879186E+02  0.15354836185E+03  0.15518303753E+03  0.00000000000E+00 0. -1.
         21    1    1    2  504  501  0.19722202207E+02  0.10756879186E+02  0.52580781991E+01  0.23072128122E+02  0.00000000000E+00 0. -1.
<mgrwt>
<rscale>  2 0.22464989E+02</rscale>
<asrwt>0</asrwt>
<pdfrwt beam="1">  1       21 0.25927814E-01 0.22464989E+02</pdfrwt>
<pdfrwt beam="2">  1       21 0.14960559E-02 0.22464989E+02</pdfrwt>
<totfact> 0.21079013E+07</totfact>
</mgrwt>
</event>
<event>
 4    1  0.4594485E+006  0.2182882E+02  0.7546771E-02  0.1711229E+00
         21   -1    0    0  503  501  0.00000000000E+00  0.00000000000E+00  0.11544702836E+03  0.11544702836E+03  0.00000000000E+00 0.  1.
         21   -1    0    0  504  502 -0.00000000000E+00 -0.00000000000E+00 -0.20580143839E+02  0.20580143839E+02  0.00000000000E+00 0. -1.
         21    1    1    2  503  502 -0.16618524987E+02  0.14153515984E+02 -0.13378725940E+02  0.25602493927E+02  0.00000000000E+00 0. -1.
         21    1    1    2  504  501  0.16618524987E+02 -0.14153515984E+02  0.10824561046E+03  0.11042467827E+03  0.00000000000E+00 0.  1.
<mgrwt>
<rscale>  2 0.21828820E+02</rscale>
<asrwt>0</asrwt>
<pdfrwt beam="1">  1       21 0.17761081E-01 0.21828820E+02</pdfrwt>
<pdfrwt beam="2">  1       21 0.31661760E-02 0.21828820E+02</pdfrwt>
<totfact> 0.12850339E+07</totfact>
</mgrwt>
</event>
<event>
 4    1  0.4594485E+006  0.2649156E+02  0.7546771E-02  0.1640458E+00
         21   -1    0    0  504  501  0.00000000000E+00  0.00000000000E+00  0.28994830672E+03  0.28994830672E+03  0.00000000000E+00 0.  1.
         21   -1    0    0  503  502 -0.00000000000E+00 -0.00000000000E+00 -0.40319030913E+02  0.40319030913E+02  0.00000000000E+00 0. -1.
         21    1    1    2  503  501  0.17520912812E+02  0.19870085764E+02  0.28491492642E+03  0.28614387638E+03  0.00000000000E+00 0.  1.
         21    1    1    2  504  502 -0.17520912812E+02 -0.19870085764E+02 -0.35285650610E+02  0.44123461254E+02  0.00000000000E+00 0. -1.
<mgrwt>
<rscale>  2 0.26491559E+02</rscale>
<asrwt>0</asrwt>
<pdfrwt beam="1">  1       21 0.44607431E-01 0.26491559E+02</pdfrwt>
<pdfrwt beam="2">  1       21 0.62029280E-02 0.26491559E+02</pdfrwt>
<totfact> 0.85494665E+05</totfact>
</mgrwt>
</event>
<event>
 4    1  0.4594485E+006  0.2614903E+02  0.7546771E-02  0.1645026E+00
         21   -1    0    0  502  501  0.00000000000E+00  0.00000000000E+00  0.81580949751E+01  0.81580949751E+01  0.00000000000E+00 0. -1.
         21   -1    0    0  503  502 -0.00000000000E+00 -0.00000000000E+00 -0.99916953692E+03  0.99916953692E+03  0.00000000000E+00 0.  1.
         21    1    1    2  503  504 -0.24577900479E+02  0.89274144658E+01 -0.97758203512E+03  0.97793169869E+03  0.00000000000E+00 0.  1.
         21    1    1    2  504  501  0.24577900479E+02 -0.89274144658E+01 -0.13429406821E+02  0.29395933198E+02  0.00000000000E+00 0. -1.
<mgrwt>
<rscale>  2 0.26149033E+02</rscale>
<asrwt>0</asrwt>
<pdfrwt beam="1">  1       21 0.12550912E-02 0.26149033E+02</pdfrwt>
<pdfrwt beam="2">  1       21 0.15371843E+00 0.26149033E+02</pdfrwt>
<totfact> 0.73847746E+05</totfact>
</mgrwt>
</event>
<event>
 4    1  0.4594485E+006  0.3781128E+02  0.7546771E-02  0.1524965E+00
         21   -1    0    0  503  501  0.00000000000E+00  0.00000000000E+00  0.43681209687E+02  0.43681209687E+02  0.00000000000E+00 0. -1.
         21   -1    0    0  504  502 -0.00000000000E+00 -0.00000000000E+00 -0.61950502229E+02  0.61950502229E+02  0.00000000000E+00 0. -1.
         21    1    1    2  503  502 -0.13355061994E+02 -0.35374212230E+02  0.27138449759E+02  0.46542325115E+02  0.00000000000E+00 0. -1.
         21    1    1    2  504  501  0.13355061994E+02  0.35374212230E+02 -0.45407742301E+02  0.59089386802E+02  0.00000000000E+00 0. -1.
<mgrwt>
<rscale>  2 0.37811276E+02</rscale>
<asrwt>0</asrwt>
<pdfrwt beam="1">  1       21 0.67201861E-02 0.37811276E+02</pdfrwt>
<pdfrwt beam="2">  1       21 0.95308465E-02 0.37811276E+02</pdfrwt>
<totfact> 0.12236033E+07</totfact>
</mgrwt>
</event>
<event>
 4    1  0.4594485E+006  0.2178082E+02  0.7546771E-02  0.1712070E+00
         21   -1    0    0  502  501  0.00000000000E+00  0.00000000000E+00  0.95645280318E+00  0.95645280318E+00  0.00000000000E+00 0. -1.
         21   -1    0    0  503  502 -0.00000000000E+00 -0.00000000000E+00 -0.74793706874E+03  0.74793706874E+03  0.00000000000E+00 0. -1.
         21    1    1    2  503  504 -0.52198369602E+01  0.21146093570E+02 -0.59081072934E+03  0.59121207860E+03  0.00000000000E+00 0. -1.
         21    1    1    2  504  501  0.52198369602E+01 -0.21146093570E+02 -0.15616988660E+03  0.15768144295E+03  0.00000000000E+00 0. -1.
<mgrwt>
<rscale>  2 0.21780817E+02</rscale>
<asrwt>0</asrwt>
<pdfrwt beam="1">  1       21 0.14714641E-03 0.21780817E+02</pdfrwt>
<pdfrwt beam="2">  1       21 0.11506738E+00 0.21780817E+02</pdfrwt>
<totfact> 0.33162053E+07</totfact>
</mgrwt>
</event>
<event>
 4    1  0.4594485E+006  0.2069588E+02  0.7546771E-02  0.1731833E+00
         21   -1    0    0  503  501  0.00000000000E+00  0.00000000000E+00  0.48803602751E+02  0.48803602751E+02  0.00000000000E+00 0.  1.
         21   -1    0    0  504  502 -0.00000000000E+00 -0.00000000000E+00 -0.17596971768E+02  0.17596971768E+02  0.00000000000E+00 0.  1.
         21    1    1    2  503  502  0.15792082173E+02 -0.13376462146E+02  0.39108919386E+02  0.44247340875E+02  0.00000000000E+00 0.  1.
         21    1    1    2  504  501 -0.15792082173E+02  0.13376462146E+02 -0.79022884030E+01  0.22153233644E+02  0.00000000000E+00 0.  1.
<mgrwt>
<rscale>  2 0.20695884E+02</rscale>
<asrwt>0</asrwt>
<pdfrwt beam="1">  1       21 0.75082465E-02 0.20695884E+02</pdfrwt>
<pdfrwt beam="2">  1       21 0.27072264E-02 0.20695884E+02</pdfrwt>
<totfact> 0.67911904E+07</totfact>
</mgrwt>
</event>
<event>
 4    1  0.4594485E+006  0.2250696E+02  0.7546771E-02  0.1699629E+00
         21   -1    0    0  503  501  0.00000000000E+00  0.00000000000E+00  0.27610854598E+02  0.27610854598E+02  0.00000000000E+00 0. -1.
         21   -1    0    0  504  502 -0.00000000000E+00 -0.00000000000E+00 -0.18418770008E+02  0.18418770008E+02  0.00000000000E+00 0. -1.
         21    1    1    2  503  502 -0.22444816117E+02  0.16714272239E+01  0.31547280085E+01  0.22726982825E+02  0.00000000000E+00 0. -1.
         21    1    1    2  504  501  0.22444816117E+02 -0.16714272239E+01  0.60373565811E+01  0.23302641782E+02  0.00000000000E+00 0. -1.
<mgrwt>
<rscale>  2 0.22506964E+02</rscale>
<asrwt>0</asrwt>
<pdfrwt beam="1">  1       21 0.42478238E-02 0.22506964E+02</pdfrwt>
<pdfrwt beam="2">  1       21 0.28336569E-02 0.22506964E+02</pdfrwt>
<totfact> 0.16113347E+08</totfact>
</mgrwt>
</event>
<event>
 4    1  0.4594485E+006  0.2121187E+02  0.7546771E-02  0.1722250E+00
         21   -1    0    0  504  501  0.00000000000E+00  0.00000000000E+00  0.23719420192E+02  0.23719420192E+02  0.00000000000E+00 0.  1.
         21   -1    0    0  503  502 -0.00000000000E+00 -0.00000000000E+00 -0.22674333472E+02  0.22674333472E+02  0.00000000000E+00 0.  1.
         21    1    1    2  503  501 -0.12592487798E+02  0.17069640926E+02 -0.88541974805E+01  0.22985652118E+02  0.00000000000E+00 0.  1.
         21    1    1    2  504  502  0.12592487798E+02 -0.17069640926E+02  0.98992842007E+01  0.23408101546E+02  0.00000000000E+00 0.  1.
<mgrwt>
<rscale>  2 0.21211869E+02</rscale>
<asrwt>0</asrwt>
<pdfrwt beam="1">  1       21 0.36491416E-02 0.21211869E+02</pdfrwt>
<pdfrwt beam="2">  1       21 0.34883590E-02 0.21211869E+02</pdfrwt>
<totfact> 0.14533166E+08</totfact>
</mgrwt>
</event>
<event>
 4    1  0.4594485E+006  0.2549409E+02  0.7546771E-02  0.1654005E+00
         21   -1    0    0  504  501  0.00000000000E+00  0.00000000000E+00  0.48623304875E+02  0.48623304875E+02  0.00000000000E+00 0.  1.
         21   -1    0    0  501  502 -0.00000000000E+00 -0.00000000000E+00 -0.24782894798E+02  0.24782894798E+02  0.00000000000E+00 0.  1.
         21    1    1    2  503  502  0.25425326354E+02 -0.18711511366E+01 -0.12990236723E+02  0.28612841119E+02  0.00000000000E+00 0.  1.
         21    1    1    2  504  503 -0.25425326354E+02  0.18711511366E+01  0.36830646800E+02  0.44793358553E+02  0.00000000000E+00 0.  1.
<mgrwt>
<rscale>  2 0.25494086E+02</rscale>
<asrwt>0</asrwt>
<pdfrwt beam="1">  1       21 0.74805085E-02 0.25494086E+02</pdfrwt>
<pdfrwt beam="2">  1       21 0.38127530E-02 0.25494086E+02</pdfrwt>
<totfact> 0.42254434E+07</totfact>
</mgrwt>
</event>
<event>
 4    1  0.4594485E+006  0.2186258E+02  0.7546771E-02  0.1710639E+00
         21   -1    0    0  504  501  0.00000000000E+00  0.00000000000E+00  0.13284463202E+02  0.13284463202E+02  0.00000000000E+00 0. -1.
         21   -1    0    0  503  502 -0.00000000000E+00 -0.00000000000E+00 -0.38301398357E+02  0.38301398357E+02  0.00000000000E+00 0. -1.
         21    1    1    2  503  501  0.21583793887E+02  0.34802854260E+01 -0.18858638282E+02  0.28872491805E+02  0.00000000000E+00 0. -1.
         21    1    1    2  504  502 -0.21583793887E+02 -0.34802854260E+01 -0.61582968722E+01  0.22713369754E+02  0.00000000000E+00 0. -1.
<mgrwt>
<rscale>  2 0.21862583E+02</rscale>
<asrwt>0</asrwt>
<pdfrwt beam="1">  1       21 0.20437636E-02 0.21862583E+02</pdfrwt>
<pdfrwt beam="2">  1       21 0.58925229E-02 0.21862583E+02</pdfrwt>
<totfact> 0.15711105E+08</totfact>
</mgrwt>
</event>
<event>
 4    1  0.4594485E+006  0.2033712E+02  0.7546771E-02  0.1738706E+00
         21   -1    0    0  504  501  0.00000000000E+00  0.00000000000E+00  0.10753343421E+03  0.10753343421E+03  0.00000000000E+00 0.  1.
         21   -1    0    0  503  502 -0.00000000000E+00 -0.00000000000E+00 -0.52274775022E+01  0.52274775022E+01  0.00000000000E+00 0.  1.
         21    1    1    2  503  501 -0.20303584179E+02  0.11673595573E+01  0.22171646490E+02  0.30086212239E+02  0.00000000000E+00 0.  1.
         21    1    1    2  504  502  0.20303584179E+02 -0.11673595573E+01  0.80134310214E+02  0.82674699469E+02  0.00000000000E+00 0.  1.
<mgrwt>
<rscale>  2 0.20337115E+02</rscale>
<asrwt>0</asrwt>
<pdfrwt beam="1">  1       21 0.16543604E-01 0.20337115E+02</pdfrwt>
<pdfrwt beam="2">  1       21 0.80422739E-03 0.20337115E+02</pdfrwt>
<totfact> 0.11438281E+08</totfact>
</mgrwt>
</event>
<event>
 4    1  0.4594485E+006  0.2021308E+02  0.7546771E-02  0.1741124E+00
         21   -1    0    0  504  501  0.00000000000E+00  0.00000000000E+00  0.28326045276E+03  0.28326045276E+03  0.00000000000E+00 0. -1.
         21   -1    0    0  503  502 -0.00000000000E+00 -0.00000000000E+00 -0.17901159406E+01  0.17901159406E+01  0.00000000000E+00 0.  1.
         21    1    1    2  503  501 -0.19868679338E+02 -0.37153806552E+01  0.77918086624E+02  0.80497184393E+02  0.00000000000E+00 0.  1.
         21    1    1    2  504  502  0.19868679338E+02  0.37153806552E+01  0.20355225020E+03  0.20455338431E+03  0.00000000000E+00 0. -1.
<mgrwt>
<rscale>  2 0.20213077E+02</rscale>
<asrwt>0</asrwt>
<pdfrwt beam="1">  1       21 0.43578496E-01 0.20213077E+02</pdfrwt>
<pdfrwt beam="2">  1       21 0.27540268E-03 0.20213077E+02</pdfrwt>
<totfact> 0.96956832E+07</totfact>
</mgrwt>
</event>
<event>
 4    1  0.4594485E+006  0.2435633E+02  0.7546771E-02  0.1670423E+00
         21   -1    0    0  502  501  0.00000000000E+00  0.00000000000E+00  0.51208892451E+03  0.51208892451E+03  0.00000000000E+00 0.  1.
         21   -1    0    0  503  502 -0.00000000000E+00 -0.00000000000E+00 -0.18698814044E+01  0.18698814044E+01  0.00000000000E+00 0.  1.
         21    1    1    2  503  504  0.19124152991E+02  0.15083024106E+02  0.96599418380E+02  0.99622680525E+02  0.00000000000E+00 0.  1.
         21    1    1    2  504  501 -0.19124152991E+02 -0.15083024106E+02  0.41361962473E+03  0.41433612539E+03  0.00000000000E+00 0.  1.
<mgrwt>
<rscale>  2 0.24356331E+02</rscale>
<asrwt>0</asrwt>
<pdfrwt beam="1">  1       21 0.78782800E-01 0.24356331E+02</pdfrwt>
<pdfrwt beam="2">  1       21 0.28767447E-03 0.24356331E+02</pdfrwt>
<totfact> 0.29266759E+07</totfact>
</mgrwt>
</event>
<event>
 4    1  0.4594485E+006  0.3758847E+02  0.7546771E-02  0.1526747E+00
         21   -1    0    0  503  501  0.00000000000E+00  0.00000000000E+00  0.16240634021E+02  0.16240634021E+02  0.00000000000E+00 0.  1.
         21   -1    0    0  504  502 -0.00000000000E+00 -0.00000000000E+00 -0.12737255077E+03  0.12737255077E+03  0.00000000000E+00 0. -1.
         21    1    1    2  503  502 -0.24795524519E+02 -0.28250216858E+02 -0.95994076063E+02  0.10309100556E+03  0.00000000000E+00 0. -1.
         21    1    1    2  504  501  0.24795524519E+02  0.28250216858E+02 -0.15137840684E+02  0.40522179227E+02  0.00000000000E+00 0.  1.
<mgrwt>
<rscale>  2 0.37588466E+02</rscale>
<asrwt>0</asrwt>
<pdfrwt beam="1">  1       21 0.24985591E-02 0.37588466E+02</pdfrwt>
<pdfrwt beam="2">  1       21 0.19595777E-01 0.37588466E+02</pdfrwt>
<totfact> 0.17294792E+07</totfact>
</mgrwt>
</event>
<event>
 4    1  0.4594485E+006  0.2662731E+02  0.7546771E-02  0.1638671E+00
         21   -1    0    0  502  501  0.00000000000E+00  0.00000000000E+00  0.21925559839E+01  0.21925559839E+01  0.00000000000E+00 0.  1.
         21   -1    0    0  504  502 -0.00000000000E+00 -0.00000000000E+00 -0.34306653034E+03  0.34306653034E+03  0.00000000000E+00 0.  1.
         21    1    1    2  503  501 -0.26292511332E+02 -0.42092430524E+01 -0.12907652762E+03  0.13179439996E+03  0.00000000000E+00 0.  1.
         21    1    1    2  504  503  0.26292511332E+02  0.42092430524E+01 -0.21179744673E+03  0.21346468636E+03  0.00000000000E+00 0.  1.
<mgrwt>
<rscale>  2 0.26627315E+02</rscale>
<asrwt>0</asrwt>
<pdfrwt beam="1">  1       21 0.33731654E-03 0.26627315E+02</pdfrwt>
<pdfrwt beam="2">  1       21 0.52779430E-01 0.26627315E+02</pdfrwt>
<totfact> 0.53308926E+07</totfact>
</mgrwt>
</event>
<event>
 4    1  0.4594485E+006  0.3823311E+02  0.7546771E-02  0.1521632E+00
         21   -1    0    0  503  501  0.00000000000E+00  0.00000000000E+00  0.22622108330E+04  0.22622108330E+04  0.00000000000E+00 0. -1.
         21   -1    0    0  504  502 -0.00000000000E+00 -0.00000000000E+00 -0.13464496415E+01  0.13464496415E+01  0.00000000000E+00 0.  1.
         21    1    1    2  503  502  0.23349733229E+02  0.30274754395E+02  0.31422116464E+03  0.31653864077E+03  0.00000000000E+00 0.  1.
         21    1    1    2  504  501 -0.23349733229E+02 -0.30274754395E+02  0.19466432188E+04  0.19470186419E+04  0.00000000000E+00 0. -1.
<mgrwt>
<rscale>  2 0.38233111E+02</rscale>
<asrwt>0</asrwt>
<pdfrwt beam="1">  1       21 0.34802939E+00 0.38233111E+02</pdfrwt>
<pdfrwt beam="2">  1       21 0.20714791E-03 0.38233111E+02</pdfrwt>
<totfact> 0.94732119E+05</totfact>
</mgrwt>
</event>
<event>
 4    1  0.4594485E+006  0.2368990E+02  0.7546771E-02  0.1680565E+00
         21   -1    0    0  503  501  0.00000000000E+00  0.00000000000E+00  0.10983538287E+02  0.10983538287E+02  0.00000000000E+00 0. -1.
         21   -1    0    0  504  502 -0.00000000000E+00 -0.00000000000E+00 -0.11190676836E+03  0.11190676836E+03  0.00000000000E+00 0. -1.
         21    1    1    2  503  502  0.17848016430E+02  0.15577533439E+02 -0.95756679482E+02  0.98643564939E+02  0.00000000000E+00 0. -1.
         21    1    1    2  504  501 -0.17848016430E+02 -0.15577533439E+02 -0.51665505930E+01  0.24246741710E+02  0.00000000000E+00 0. -1.
<mgrwt>
<rscale>  2 0.23689897E+02</rscale>
<asrwt>0</asrwt>
<pdfrwt beam="1">  1       21 0.16897751E-02 0.23689897E+02</pdfrwt>
<pdfrwt beam="2">  1       21 0.17216426E-01 0.23689897E+02</pdfrwt>
<totfact> 0.36359324E+07</totfact>
</mgrwt>
</event>
<event>
 4    1  0.4594485E+006  0.2033280E+02  0.7546771E-02  0.1738790E+00
         21   -1    0    0  502  501  0.00000000000E+00  0.00000000000E+00  0.26194837165E+01  0.26194837165E+01  0.00000000000E+00 0. -1.
         21   -1    0    0  504  502 -0.00000000000E+00 -0.00000000000E+00 -0.82900650781E+03  0.82900650781E+03  0.00000000000E+00 0. -1.
         21    1    1    2  503  501 -0.92128773610E+01 -0.18125824832E+02 -0.39049536520E+02  0.44026002970E+02  0.00000000000E+00 0. -1.
         21    1    1    2  504  503  0.92128773610E+01  0.18125824832E+02 -0.78733748758E+03  0.78759998856E+03  0.00000000000E+00 0. -1.
<mgrwt>
<rscale>  2 0.20332797E+02</rscale>
<asrwt>0</asrwt>
<pdfrwt beam="1">  1       21 0.40299738E-03 0.20332797E+02</pdfrwt>
<pdfrwt beam="2">  1       21 0.12753950E+00 0.20332797E+02</pdfrwt>
<totfact> 0.60478288E+06</totfact>
</mgrwt>
</event>
<event>
 4    1  0.4594485E+006  0.2581447E+02  0.7546771E-02  0.1649572E+00
         21   -1    0    0  504  501  0.00000000000E+00  0.00000000000E+00  0.16864175417E+03  0.16864175417E+03  0.00000000000E+00 0. -1.
         21   -1    0    0  503  502 -0.00000000000E+00 -0.00000000000E+00 -0.12318074925E+02  0.12318074925E+02  0.00000000000E+00 0. -1.
         21    1    1    2  503  501 -0.20637963565E+02 -0.15506811762E+02  0.35934457524E+01  0.26063376671E+02  0.00000000000E+00 0. -1.
         21    1    1    2  504  502  0.20637963565E+02  0.15506811762E+02  0.15273023349E+03  0.15489645242E+03  0.00000000000E+00 0. -1.
<mgrwt>
<rscale>  2 0.25814468E+02</rscale>
<asrwt>0</asrwt>
<pdfrwt beam="1">  1       21 0.25944884E-01 0.25814468E+02</pdfrwt>
<pdfrwt beam="2">  1       21 0.18950886E-02 0.25814468E+02</pdfrwt>
<totfact> 0.15090505E+07</totfact>
</mgrwt>
</event>
<event>
 4    1  0.4594485E+006  0.2088132E+02  0.7546771E-02  0.1728349E+00
         21   -1    0    0  503  501  0.00000000000E+00  0.00000000000E+00  0.96106247127E+01  0.96106247127E+01  0.00000000000E+00 0.  1.
         21   -1    0    0  504  502 -0.00000000000E+00 -0.00000000000E+00 -0.81439687804E+02  0.81439687804E+02  0.00000000000E+00 0.  1.
         21    1    1    2  503  502  0.20649931244E+02 -0.30999560361E+01 -0.56169821006E+01  0.21623595347E+02  0.00000000000E+00 0.  1.
         21    1    1    2  504  501 -0.20649931244E+02  0.30999560361E+01 -0.66212080991E+02  0.69426717170E+02  0.00000000000E+00 0.  1.
<mgrwt>
<rscale>  2 0.20881317E+02</rscale>
<asrwt>0</asrwt>
<pdfrwt beam="1">  1       21 0.14785577E-02 0.20881317E+02</pdfrwt>
<pdfrwt beam="2">  1       21 0.12529183E-01 0.20881317E+02</pdfrwt>
<totfact> 0.73946444E+07</totfact>
</mgrwt>
</event>
<event>
 4    1  0.4594485E+006  0.2191965E+02  0.7546771E-02  0.1709645E+00
         21   -1    0    0  504  501  0.00000000000E+00  0.00000000000E+00  0.50757479917E+03  0.50757479917E+03  0.00000000000E+00 0.  1.
         21   -1    0    0  503  502 -0.00000000000E+00 -0.00000000000E+00 -0.24075753327E+02  0.24075753327E+02  0.00000000000E+00 0.  1.
         21    1    1    2  503  501 -0.28477990973E+01  0.21733871410E+02  0.50229658698E+03  0.50277463382E+03  0.00000000000E+00 0.  1.
         21    1    1    2  504  502  0.28477990973E+01 -0.21733871410E+02 -0.18797541139E+02  0.28875918670E+02  0.00000000000E+00 0.  1.
<mgrwt>
<rscale>  2 0.21919652E+02</rscale>
<asrwt>0</asrwt>
<pdfrwt beam="1">  1       21 0.78088422E-01 0.21919652E+02</pdfrwt>
<pdfrwt beam="2">  1       21 0.37039624E-02 0.21919652E+02</pdfrwt>
<totfact> 0.62513816E+05</totfact>
</mgrwt>
</event>
<event>
 4    1  0.4594485E+006  0.3726300E+02  0.7546771E-02  0.1529376E+00
         21   -1    0    0  504  501  0.00000000000E+00  0.00000000000E+00  0.14291656122E+04  0.14291656122E+04  0.00000000000E+00 0. -1.
         21   -1    0    0  503  502 -0.00000000000E+00 -0.00000000000E+00 -0.12018573974E+02  0.12018573974E+02  0.00000000000E+00 0. -1.
         21    1    1    2  503  501 -0.35917302205E+02 -0.99236290628E+01  0.17721034037E+02  0.41262162556E+02  0.00000000000E+00 0. -1.
         21    1    1    2  504  502  0.35917302205E+02  0.99236290628E+01  0.13994260042E+04  0.13999220236E+04  0.00000000000E+00 0. -1.
<mgrwt>
<rscale>  2 0.37262998E+02</rscale>
<asrwt>0</asrwt>
<pdfrwt beam="1">  1       21 0.21987150E+00 0.37262998E+02</pdfrwt>
<pdfrwt beam="2">  1       21 0.18490125E-02 0.37262998E+02</pdfrwt>
<totfact> 0.16166325E+05</totfact>
</mgrwt>
</event>
<event>
 4    1  0.4594485E+006  0.2131998E+02  0.7546771E-02  0.1720285E+00
         21   -1    0    0  502  501  0.00000000000E+00  0.00000000000E+00  0.96928047681E+03  0.96928047681E+03  0.00000000000E+00 0.  1.
         21   -1    0    0  504  502 -0.00000000000E+00 -0.00000000000E+00 -0.27715286066E+01  0.27715286066E+01  0.00000000000E+00 0. -1.
         21    1    1    2  503  501  0.21151701270E+02  0.26734203659E+01  0.92625811122E+03  0.92650344319E+03  0.00000000000E+00 0.  1.
         21    1    1    2  504  503 -0.21151701270E+02 -0.26734203659E+01  0.40250836990E+02  0.45548562233E+02  0.00000000000E+00 0. -1.
<mgrwt>
<rscale>  2 0.21319982E+02</rscale>
<asrwt>0</asrwt>
<pdfrwt beam="1">  1       21 0.14911980E+00 0.21319982E+02</pdfrwt>
<pdfrwt beam="2">  1       21 0.42638979E-03 0.21319982E+02</pdfrwt>
<totfact> 0.39028810E+06</totfact>
</mgrwt>
</event>
<event>
 4    1  0.4594485E+006  0.2145083E+02  0.7546771E-02  0.1717926E+00
         21   -1    0    0  503  501  0.00000000000E+00  0.00000000000E+00  0.17452847700E+03  0.17452847700E+03  0.00000000000E+00 0.  1.
         21   -1    0    0  504  502 -0.00000000000E+00 -0.00000000000E+00 -0.16431891850E+03  0.16431891850E+03  0.00000000000E+00 0.  1.
         21    1    1    2  503  502  0.12430724724E+02  0.17481849237E+02  0.17316379651E+03  0.17448735883E+03  0.00000000000E+00 0.  1.
         21    1    1    2  504  501 -0.12430724724E+02 -0.17481849237E+02 -0.16295423801E+03  0.16436003667E+03  0.00000000000E+00 0.  1.
<mgrwt>
<rscale>  2 0.21450827E+02</rscale>
<asrwt>0</asrwt>
<pdfrwt beam="1">  1       21 0.26850535E-01 0.21450827E+02</pdfrwt>
<pdfrwt beam="2">  1       21 0.25279834E-01 0.21450827E+02</pdfrwt>
<totfact> 0.20225412E+05</totfact>
</mgrwt>
</event>
<event>
 4    1  0.4594485E+006  0.2839520E+02  0.7546771E-02  0.1616536E+00
         21   -1    0    0  502  501  0.00000000000E+00  0.00000000000E+00  0.94982848026E+00  0.94982848026E+00  0.00000000000E+00 0. -1.
         21   -1    0    0  503  502 -0.00000000000E+00 -0.00000000000E+00 -0.88990465827E+03  0.88990465827E+03  0.00000000000E+00 0. -1.
         21    1    1    2  503  504  0.56996805256E+01  0.27817281254E+02 -0.54011832821E+03  0.54086421213E+03  0.00000000000E+00 0. -1.
         21    1    1    2  504  501 -0.56996805256E+01 -0.27817281254E+02 -0.34883650158E+03  0.34999027462E+03  0.00000000000E+00 0. -1.
<mgrwt>
<rscale>  2 0.28395202E+02</rscale>
<asrwt>0</asrwt>
<pdfrwt beam="1">  1       21 0.14612705E-03 0.28395202E+02</pdfrwt>
<pdfrwt beam="2">  1       21 0.13690879E+00 0.28395202E+02</pdfrwt>
<totfact> 0.23586038E+07</totfact>
</mgrwt>
</event>
<event>
 4    1  0.4594485E+006  0.2246230E+02  0.7546771E-02  0.1700377E+00
         21   -1    0    0  504  501  0.00000000000E+00  0.00000000000E+00  0.60356964215E+00  0.60356964215E+00  0.00000000000E+00 0.  1.
         21   -1    0    0  503  502 -0.00000000000E+00 -0.00000000000E+00 -0.84374578086E+03  0.84374578086E+03  0.00000000000E+00 0.  1.
         21    1    1    2  503  501 -0.11839583058E+02 -0.19088722896E+02 -0.38099514529E+03  0.38165672509E+03  0.00000000000E+00 0.  1.
         21    1    1    2  504  502  0.11839583058E+02  0.19088722896E+02 -0.46214706592E+03  0.46269262541E+03  0.00000000000E+00 0.  1.
<mgrwt>
<rscale>  2 0.22462303E+02</rscale>
<asrwt>0</asrwt>
<pdfrwt beam="1">  1       21 0.92856337E-04 0.22462303E+02</pdfrwt>
<pdfrwt beam="2">  1       21 0.12980779E+00 0.22462303E+02</pdfrwt>
<totfact> 0.48954423E+07</totfact>
</mgrwt>
</event>
<event>
 4    1  0.4594485E+006  0.3434248E+02  0.7546771E-02  0.1554518E+00
         21   -1    0    0  504  501  0.00000000000E+00  0.00000000000E+00  0.63017635674E+03  0.63017635674E+03  0.00000000000E+00 0. -1.
         21   -1    0    0  501  502 -0.00000000000E+00 -0.00000000000E+00 -0.65643120902E+01  0.65643120902E+01  0.00000000000E+00 0. -1.
         21    1    1    2  503  502 -0.32312322318E+02 -0.11632697329E+02  0.42620123281E+02  0.54734639208E+02  0.00000000000E+00 0. -1.
         21    1    1    2  504  503  0.32312322318E+02  0.11632697329E+02  0.58099192137E+03  0.58200602962E+03  0.00000000000E+00 0. -1.
<mgrwt>
<rscale>  2 0.34342478E+02</rscale>
<asrwt>0</asrwt>
<pdfrwt beam="1">  1       21 0.96950161E-01 0.34342478E+02</pdfrwt>
<pdfrwt beam="2">  1       21 0.10098947E-02 0.34342478E+02</pdfrwt>
<totfact> 0.30297357E+06</totfact>
</mgrwt>
</event>
<event>
 4    1  0.4594485E+006  0.2935827E+02  0.7546771E-02  0.1605292E+00
         21   -1    0    0  502  501  0.00000000000E+00  0.00000000000E+00  0.45118849227E+01  0.45118849227E+01  0.00000000000E+00 0.  1.
         21   -1    0    0  504  502 -0.00000000000E+00 -0.00000000000E+00 -0.41300078207E+03  0.41300078207E+03  0.00000000000E+00 0.  1.
         21    1    1    2  503  501  0.27342935476E+02  0.10689810317E+02 -0.51202134076E+02  0.59021747678E+02  0.00000000000E+00 0.  1.
         21    1    1    2  504  503 -0.27342935476E+02 -0.10689810317E+02 -0.35728676307E+03  0.35849091931E+03  0.00000000000E+00 0.  1.
<mgrwt>
<rscale>  2 0.29358273E+02</rscale>
<asrwt>0</asrwt>
<pdfrwt beam="1">  1       21 0.69413629E-03 0.29358273E+02</pdfrwt>
<pdfrwt beam="2">  1       21 0.63538568E-01 0.29358273E+02</pdfrwt>
<totfact> 0.12834608E+07</totfact>
</mgrwt>
</event>
<event>
 4    1  0.4594485E+006  0.3122205E+02  0.7546771E-02  0.1584961E+00
         21   -1    0    0  504  501  0.00000000000E+00  0.00000000000E+00  0.23026175650E+02  0.23026175650E+02  0.00000000000E+00 0.  1.
         21   -1    0    0  503  502 -0.00000000000E+00 -0.00000000000E+00 -0.28175865017E+03  0.28175865017E+03  0.00000000000E+00 0. -1.
         21    1    1    2  503  501  0.27889630570E+02 -0.14035121601E+02  0.11111700379E+02  0.33140398564E+02  0.00000000000E+00 0.  1.
         21    1    1    2  504  502 -0.27889630570E+02  0.14035121601E+02 -0.26984417490E+03  0.27164442726E+03  0.00000000000E+00 0. -1.
<mgrwt>
<rscale>  2 0.31222046E+02</rscale>
<asrwt>0</asrwt>
<pdfrwt beam="1">  1       21 0.35424887E-02 0.31222046E+02</pdfrwt>
<pdfrwt beam="2">  1       21 0.43347483E-01 0.31222046E+02</pdfrwt>
<totfact> 0.22472139E+06</totfact>
</mgrwt>
</event>
<event>
 4    1  0.4594485E+006  0.2344291E+02  0.7546771E-02  0.1684430E+00
         21   -1    0    0  502  501  0.00000000000E+00  0.00000000000E+00  0.68157045007E+02  0.68157045007E+02  0.00000000000E+00 0. -1.
         21   -1    0    0  503  502 -0.00000000000E+00 -0.00000000000E+00 -0.24744163646E+02  0.24744163646E+02  0.00000000000E+00 0. -1.
         21    1    1    2  503  504  0.20607185189E+02  0.11176484634E+02 -0.16432128861E+02  0.28628390613E+02  0.00000000000E+00 0. -1.
         21    1    1    2  504  501 -0.20607185189E+02 -0.11176484634E+02  0.59845010223E+02  0.64272818039E+02  0.00000000000E+00 0. -1.
<mgrwt>
<rscale>  2 0.23442907E+02</rscale>
<asrwt>0</asrwt>
<pdfrwt beam="1">  1       21 0.10485699E-01 0.23442907E+02</pdfrwt>
<pdfrwt beam="2">  1       21 0.38067944E-02 0.23442907E+02</pdfrwt>
<totfact> 0.23830590E+07</totfact>
</mgrwt>
</event>
<event>
 4    1  0.4594485E+006  0.2555370E+02  0.7546771E-02  0.1653174E+00
         21   -1    0    0  503  501  0.00000000000E+00  0.00000000000E+00  0.42138097958E+01  0.42138097958E+01  0.00000000000E+00 0.  1.
         21   -1    0    0  504  502 -0.00000000000E+00 -0.00000000000E+00 -0.15553882243E+03  0.15553882243E+03  0.00000000000E+00 0.  1.
         21    1    1    2  503  502  0.27981077480E+01  0.25400047065E+02 -0.80515374030E+02  0.84473174754E+02  0.00000000000E+00 0.  1.
         21    1    1    2  504  501 -0.27981077480E+01 -0.25400047065E+02 -0.70809638600E+02  0.75279457467E+02  0.00000000000E+00 0.  1.
<mgrwt>
<rscale>  2 0.25553704E+02</rscale>
<asrwt>0</asrwt>
<pdfrwt beam="1">  1       21 0.64827845E-03 0.25553704E+02</pdfrwt>
<pdfrwt beam="2">  1       21 0.23929049E-01 0.25553704E+02</pdfrwt>
<totfact> 0.88183445E+07</totfact>
</mgrwt>
</event>
<event>
 4    1  0.4594485E+006  0.2206216E+02  0.7546771E-02  0.1707179E+00
         21   -1    0    0  503  501  0.00000000000E+00  0.00000000000E+00  0.72373518260E+02  0.72373518260E+02  0.00000000000E+00 0.  1.
         21   -1    0    0  504  502 -0.00000000000E+00 -0.00000000000E+00 -0.41478881501E+02  0.41478881501E+02  0.00000000000E+00 0. -1.
         21    1    1    2  503  502  0.22061760012E+02  0.13285024732E+00 -0.36659913495E+02  0.42786541826E+02  0.00000000000E+00 0. -1.
         21    1    1    2  504  501 -0.22061760012E+02 -0.13285024732E+00  0.67554550254E+02  0.71065857935E+02  0.00000000000E+00 0.  1.
<mgrwt>
<rscale>  2 0.22062160E+02</rscale>
<asrwt>0</asrwt>
<pdfrwt beam="1">  1       21 0.11134387E-01 0.22062160E+02</pdfrwt>
<pdfrwt beam="2">  1       21 0.63813663E-02 0.22062160E+02</pdfrwt>
<totfact> 0.93626007E+06</totfact>
</mgrwt>
</event>
<event>
 4    1  0.4594485E+006  0.2510356E+02  0.7546771E-02  0.1659519E+00
         21   -1    0    0  504  501  0.00000000000E+00  0.00000000000E+00  0.42123535828E+02  0.42123535828E+02  0.00000000000E+00 0.  1.
         21   -1    0    0  503  502 -0.00000000000E+00 -0.00000000000E+00 -0.21417877553E+02  0.21417877553E+02  0.00000000000E+00 0.  1.
         21    1    1    2  503  501  0.23798983778E+02  0.79873184911E+01  0.27797668176E+02  0.37455296575E+02  0.00000000000E+00 0.  1.
         21    1    1    2  504  502 -0.23798983778E+02 -0.79873184911E+01 -0.70920099003E+01  0.26086116805E+02  0.00000000000E+00 0.  1.
<mgrwt>
<rscale>  2 0.25103563E+02</rscale>
<asrwt>0</asrwt>
<pdfrwt beam="1">  1       21 0.64805439E-02 0.25103563E+02</pdfrwt>
<pdfrwt beam="2">  1       21 0.32950581E-02 0.25103563E+02</pdfrwt>
<totfact> 0.66875453E+07</totfact>
</mgrwt>
</event>
<event>
 4    1  0.4594485E+006  0.3205106E+02  0.7546771E-02  0.1576464E+00
         21   -1    0    0  502  501  0.00000000000E+00  0.00000000000E+00  0.86138796109E+01  0.86138796109E+01  0.00000000000E+00 0.  1.
         21   -1    0    0  504  502 -0.00000000000E+00 -0.00000000000E+00 -0.20085604661E+03  0.20085604661E+03  0.00000000000E+00 0.  1.
         21    1    1    2  503  501 -0.22498652238E+02 -0.22827200204E+02 -0.29365094813E+02  0.43469290482E+02  0.00000000000E+00 0.  1.
         21    1    1    2  504  503  0.22498652238E+02  0.22827200204E+02 -0.16287707219E+03  0.16600063574E+03  0.00000000000E+00 0.  1.
<mgrwt>
<rscale>  2 0.32051060E+02</rscale>
<asrwt>0</asrwt>
<pdfrwt beam="1">  1       21 0.13252123E-02 0.32051060E+02</pdfrwt>
<pdfrwt beam="2">  1       21 0.30900929E-01 0.32051060E+02</pdfrwt>
<totfact> 0.19750406E+07</totfact>
</mgrwt>
</event>
<event>
 4    1  0.4594485E+006  0.2020895E+02  0.7546771E-02  0.1741205E+00
         21   -1    0    0  504  501  0.00000000000E+00  0.00000000000E+00  0.53154106959E+02  0.53154106959E+02  0.00000000000E+00 0. -1.
         21   -1    0    0  503  502 -0.00000000000E+00 -0.00000000000E+00 -0.76840426817E+01  0.76840426817E+01  0.00000000000E+00 0.  1.
         21    1    1    2  503  501  0.11763026782E+02 -0.16432673199E+02  0.22445982365E+02  0.30203040771E+02  0.00000000000E+00 0.  1.
         21    1    1    2  504  502 -0.11763026782E+02  0.16432673199E+02  0.23024081913E+02  0.30635108870E+02  0.00000000000E+00 0. -1.
<mgrwt>
<rscale>  2 0.20208947E+02</rscale>
<asrwt>0</asrwt>
<pdfrwt beam="1">  1       21 0.81775547E-02 0.20208947E+02</pdfrwt>
<pdfrwt beam="2">  1       21 0.11821604E-02 0.20208947E+02</pdfrwt>
<totfact> 0.20725744E+08</totfact>
</mgrwt>
</event>
<event>
 4    1  0.4594485E+006  0.2011699E+02  0.7546771E-02  0.1743012E+00
         21   -1    0    0  504  501  0.00000000000E+00  0.00000000000E+00  0.36938675862E+01  0.36938675862E+01  0.00000000000E+00 0. -1.
         21   -1    0    0  503  502 -0.00000000000E+00 -0.00000000000E+00 -0.23030934173E+03  0.23030934173E+03  0.00000000000E+00 0.  1.
         21    1    1    2  503  501 -0.16618807437E+02 -0.11336161323E+02 -0.19802691765E+03  0.19904610880E+03  0.00000000000E+00 0.  1.
         21    1    1    2  504  502  0.16618807437E+02  0.11336161323E+02 -0.28588556493E+02  0.34957100516E+02  0.00000000000E+00 0. -1.
<mgrwt>
<rscale>  2 0.20116991E+02</rscale>
<asrwt>0</asrwt>
<pdfrwt beam="1">  1       21 0.56828744E-03 0.20116991E+02</pdfrwt>
<pdfrwt beam="2">  1       21 0.35432199E-01 0.20116991E+02</pdfrwt>
<totfact> 0.49509337E+07</totfact>
</mgrwt>
</event>
<event>
 4    1  0.4594485E+006  0.2788314E+02  0.7546771E-02  0.1622740E+00
         21   -1    0    0  504  501  0.00000000000E+00  0.00000000000E+00  0.11153882529E+02  0.11153882529E+02  0.00000000000E+00 0. -1.
         21   -1    0    0  503  502 -0.00000000000E+00 -0.00000000000E+00 -0.75757194275E+02  0.75757194275E+02  0.00000000000E+00 0. -1.
         21    1    1    2  503  501  0.43332057029E+01  0.27544377808E+02 -0.44585324640E+02  0.52586315651E+02  0.00000000000E+00 0. -1.
         21    1    1    2  504  502 -0.43332057029E+01 -0.27544377808E+02 -0.20017987105E+02  0.34324761153E+02  0.00000000000E+00 0. -1.
<mgrwt>
<rscale>  2 0.27883139E+02</rscale>
<asrwt>0</asrwt>
<pdfrwt beam="1">  1       21 0.17159820E-02 0.27883139E+02</pdfrwt>
<pdfrwt beam="2">  1       21 0.11654953E-01 0.27883139E+02</pdfrwt>
<totfact> 0.71749321E+07</totfact>
</mgrwt>
</event>
<event>
 4    1  0.4594485E+006  0.2983295E+02  0.7546771E-02  0.1599943E+00
         21   -1    0    0  503  501  0.00000000000E+00  0.00000000000E+00  0.23008712224E+02  0.23008712224E+02  0.00000000000E+00 0. -1.
         21   -1    0    0  504  502 -0.00000000000E+00 -0.00000000000E+00 -0.62182150507E+02  0.62182150507E+02  0.00000000000E+00 0. -1.
         21    1    1    2  503  502 -0.24243908413E+02  0.17384988428E+02 -0.45772934663E+02  0.54636676926E+02  0.00000000000E+00 0. -1.
         21    1    1    2  504  501  0.24243908413E+02 -0.17384988428E+02  0.65994963797E+01  0.30554185806E+02  0.00000000000E+00 0. -1.
<mgrwt>
<rscale>  2 0.29832950E+02</rscale>
<asrwt>0</asrwt>
<pdfrwt beam="1">  1       21 0.35398019E-02 0.29832950E+02</pdfrwt>
<pdfrwt beam="2">  1       21 0.95664848E-02 0.29832950E+02</pdfrwt>
<totfact> 0.32803499E+07</totfact>
</mgrwt>
</event>
<event>
 4    1  0.4594485E+006  0.2085004E+02  0.7546771E-02  0.1728934E+00
         21   -1    0    0  504  501  0.00000000000E+00  0.00000000000E+00  0.22634337048E+02  0.22634337048E+02  0.00000000000E+00 0. -1.
         21   -1    0    0  503  502 -0.00000000000E+00 -0.00000000000E+00 -0.61099575609E+02  0.61099575609E+02  0.00000000000E+00 0. -1.
         21    1    1    2  503  501  0.22590062659E+01 -0.20727303649E+02 -0.53900230058E+02  0.57792378616E+02  0.00000000000E+00 0. -1.
         21    1    1    2  504  502 -0.22590062659E+01  0.20727303649E+02  0.15434991497E+02  0.25941534041E+02  0.00000000000E+00 0. -1.
<mgrwt>
<rscale>  2 0.20850041E+02</rscale>
<asrwt>0</asrwt>
<pdfrwt beam="1">  1       21 0.34822058E-02 0.20850041E+02</pdfrwt>
<pdfrwt beam="2">  1       21 0.93999345E-02 0.20850041E+02</pdfrwt>
<totfact> 0.31918175E+07</totfact>
</mgrwt>
</event>
<event>
 4    1  0.4594485E+006  0.2249808E+02  0.7546771E-02  0.1699778E+00
         21   -1    0    0  504  501  0.00000000000E+00  0.00000000000E+00  0.45737491713E+01  0.45737491713E+01  0.00000000000E+00 0. -1.
         21   -1    0    0  503  502 -0.00000000000E+00 -0.00000000000E+00 -0.11417172660E+03  0.11417172660E+03  0.00000000000E+00 0. -1.
         21    1    1    2  503  501  0.14614157558E+02 -0.17105260302E+02 -0.65201280160E+02  0.68973694012E+02  0.00000000000E+00 0. -1.
         21    1    1    2  504  502 -0.14614157558E+02  0.17105260302E+02 -0.44396697268E+02  0.49771781759E+02  0.00000000000E+00 0. -1.
<mgrwt>
<rscale>  2 0.22498078E+02</rscale>
<asrwt>0</asrwt>
<pdfrwt beam="1">  1       21 0.70365374E-03 0.22498078E+02</pdfrwt>
<pdfrwt beam="2">  1       21 0.17564880E-01 0.22498078E+02</pdfrwt>
<totfact> 0.12964265E+08</totfact>
</mgrwt>
</event>
<event>
 4    1  0.4594485E+006  0.3031276E+02  0.7546771E-02  0.1594657E+00
         21   -1    0    0  504  501  0.00000000000E+00  0.00000000000E+00  0.90284352099E+02  0.90284352099E+02  0.00000000000E+00 0.  1.
         21   -1    0    0  503  502 -0.00000000000E+00 -0.00000000000E+00 -0.86735948767E+02  0.86735948767E+02  0.00000000000E+00 0.  1.
         21    1    1    2  503  501  0.29300881306E+02  0.77667268957E+01  0.84929560372E+02  0.90177014349E+02  0.00000000000E+00 0.  1.
         21    1    1    2  504  502 -0.29300881306E+02 -0.77667268957E+01 -0.81381157039E+02  0.86843286517E+02  0.00000000000E+00 0.  1.
<mgrwt>
<rscale>  2 0.30312765E+02</rscale>
<asrwt>0</asrwt>
<pdfrwt beam="1">  1       21 0.13889900E-01 0.30312765E+02</pdfrwt>
<pdfrwt beam="2">  1       21 0.13343992E-01 0.30312765E+02</pdfrwt>
<totfact> 0.19930061E+06</totfact>
</mgrwt>
</event>
<event>
 4    1  0.4594485E+006  0.2175076E+02  0.7546771E-02  0.1712599E+00
         21   -1    0    0  503  501  0.00000000000E+00  0.00000000000E+00  0.65847542169E+01  0.65847542169E+01  0.00000000000E+00 0. -1.
         21   -1    0    0  501  502 -0.00000000000E+00 -0.00000000000E+00 -0.23367771812E+03  0.23367771812E+03  0.00000000000E+00 0. -1.
         21    1    1    2  503  504  0.67236236802E+01 -0.20685459662E+02 -0.13574645719E+02  0.25639156835E+02  0.00000000000E+00 0. -1.
         21    1    1    2  504  502 -0.67236236802E+01  0.20685459662E+02 -0.21351831819E+03  0.21462331551E+03  0.00000000000E+00 0. -1.
<mgrwt>
<rscale>  2 0.21750755E+02</rscale>
<asrwt>0</asrwt>
<pdfrwt beam="1">  1       21 0.10130390E-02 0.21750755E+02</pdfrwt>
<pdfrwt beam="2">  1       21 0.35950422E-01 0.21750755E+02</pdfrwt>
<totfact> 0.20795936E+07</totfact>
</mgrwt>
</event>
<event>
 4    1  0.4594485E+006  0.2036751E+02  0.7546771E-02  0.1738117E+00
         21   -1    0    0  504  501  0.00000000000E+00  0.00000000000E+00  0.20234850694E+03  0.20234850694E+03  0.00000000000E+00 0.  1.
         21   -1    0    0  501  502 -0.00000000000E+00 -0.00000000000E+00 -0.30099576285E+01  0.30099576285E+01  0.00000000000E+00 0.  1.
         21    1    1    2  503  502  0.16624243999E+02  0.11767319684E+02  0.41685680587E+02  0.46395379803E+02  0.00000000000E+00 0.  1.
         21    1    1    2  504  503 -0.16624243999E+02 -0.11767319684E+02  0.15765286872E+03  0.15896308476E+03  0.00000000000E+00 0.  1.
<mgrwt>
<rscale>  2 0.20367506E+02</rscale>
<asrwt>0</asrwt>
<pdfrwt beam="1">  1       21 0.31130529E-01 0.20367506E+02</pdfrwt>
<pdfrwt beam="2">  1       21 0.46307056E-03 0.20367506E+02</pdfrwt>
<totfact> 0.85048192E+07</totfact>
</mgrwt>
</event>
<event>
 4    1  0.4594485E+006  0.2421753E+02  0.7546771E-02  0.1672502E+00
         21   -1    0    0  504  501  0.00000000000E+00  0.00000000000E+00  0.65979460125E+02  0.65979460125E+02  0.00000000000E+00 0.  1.
         21   -1    0    0  503  502 -0.00000000000E+00 -0.00000000000E+00 -0.23796940661E+02  0.23796940661E+02  0.00000000000E+00 0.  1.
         21    1    1    2  503  501  0.92801682274E+00  0.24199740882E+02 -0.14437583265E+02  0.28194547071E+02  0.00000000000E+00 0.  1.
         21    1    1    2  504  502 -0.92801682274E+00 -0.24199740882E+02  0.56620102729E+02  0.61581853715E+02  0.00000000000E+00 0.  1.
<mgrwt>
<rscale>  2 0.24217528E+02</rscale>
<asrwt>0</asrwt>
<pdfrwt beam="1">  1       21 0.10150686E-01 0.24217528E+02</pdfrwt>
<pdfrwt beam="2">  1       21 0.36610678E-02 0.24217528E+02</pdfrwt>
<totfact> 0.26945210E+07</totfact>
</mgrwt>
</event>
<event>
 4    1  0.4594485E+006  0.2294145E+02  0.7546771E-02  0.1692461E+00
         21   -1    0    0  503  501  0.00000000000E+00  0.00000000000E+00  0.58242942016E+02  0.58242942016E+02  0.00000000000E+00 0. -1.
         21   -1    0    0  504  502 -0.00000000000E+00 -0.00000000000E+00 -0.90599393901E+01  0.90599393901E+01  0.00000000000E+00 0. -1.
         21    1    1    2  503  502 -0.22513966018E+02 -0.44080968994E+01  0.26304627889E+02  0.34903344145E+02  0.00000000000E+00 0. -1.
         21    1    1    2  504  501  0.22513966018E+02  0.44080968994E+01  0.22878374737E+02  0.32399537261E+02  0.00000000000E+00 0. -1.
<mgrwt>
<rscale>  2 0.22941447E+02</rscale>
<asrwt>0</asrwt>
<pdfrwt beam="1">  1       21 0.89604524E-02 0.22941447E+02</pdfrwt>
<pdfrwt beam="2">  1       21 0.13938369E-02 0.22941447E+02</pdfrwt>
<totfact> 0.14481390E+08</totfact>
</mgrwt>
</event>
<event>
 4    1  0.4594485E+006  0.6239673E+02  0.7546771E-02  0.1388040E+00
         21   -1    0    0  504  501  0.00000000000E+00  0.00000000000E+00  0.16626775939E+04  0.16626775939E+04  0.00000000000E+00 0. -1.
         21   -1    0    0  501  502 -0.00000000000E+00 -0.00000000000E+00 -0.57804787727E+01  0.57804787727E+01  0.00000000000E+00 0. -1.
         21    1    1    2  503  502 -0.45889470916E+02  0.42278941894E+02  0.18500446356E+03  0.19524344805E+03  0.00000000000E+00 0. -1.
         21    1    1    2  504  503  0.45889470916E+02 -0.42278941894E+02  0.14718926516E+04  0.14732146246E+04  0.00000000000E+00 0. -1.
<mgrwt>
<rscale>  2 0.62396734E+02</rscale>
<asrwt>0</asrwt>
<pdfrwt beam="1">  1       21 0.25579617E+00 0.62396734E+02</pdfrwt>
<pdfrwt beam="2">  1       21 0.88930575E-03 0.62396734E+02</pdfrwt>
<totfact> 0.30871472E+05</totfact>
</mgrwt>
</event>
<event>
 4    1  0.4594485E+006  0.2198580E+02  0.7546771E-02  0.1708498E+00
         21   -1    0    0  504  501  0.00000000000E+00  0.00000000000E+00  0.19409860385E+02  0.19409860385E+02  0.00000000000E+00 0.  1.
         21   -1    0    0  503  502 -0.00000000000E+00 -0.00000000000E+00 -0.28971643598E+02  0.28971643598E+02  0.00000000000E+00 0. -1.
         21    1    1    2  503  501  0.11788159797E+02  0.18558408376E+02  0.42838631411E+01  0.22399257047E+02  0.00000000000E+00 0.  1.
         21    1    1    2  504  502 -0.11788159797E+02 -0.18558408376E+02 -0.13845646354E+02  0.25982246936E+02  0.00000000000E+00 0. -1.
<mgrwt>
<rscale>  2 0.21985796E+02</rscale>
<asrwt>0</asrwt>
<pdfrwt beam="1">  1       21 0.29861324E-02 0.21985796E+02</pdfrwt>
<pdfrwt beam="2">  1       21 0.44571759E-02 0.21985796E+02</pdfrwt>
<totfact> 0.13668073E+08</totfact>
</mgrwt>
</event>
<event>
 4    1  0.4594485E+006  0.3005382E+02  0.7546771E-02  0.1597494E+00
         21   -1    0    0  502  501  0.00000000000E+00  0.00000000000E+00  0.10994718063E+02  0.10994718063E+02  0.00000000000E+00 0. -1.
         21   -1    0    0  504  502 -0.00000000000E+00 -0.00000000000E+00 -0.44953985038E+03  0.44953985038E+03  0.00000000000E+00 0.  1.
         21    1    1    2  503  501 -0.29361357165E+02  0.64142759434E+01 -0.11106061538E+02  0.32040237723E+02  0.00000000000E+00 0. -1.
         21    1    1    2  504  503  0.29361357165E+02 -0.64142759434E+01 -0.42743907078E+03  0.42849433072E+03  0.00000000000E+00 0.  1.
<mgrwt>
<rscale>  2 0.30053822E+02</rscale>
<asrwt>0</asrwt>
<pdfrwt beam="1">  1       21 0.16914947E-02 0.30053822E+02</pdfrwt>
<pdfrwt beam="2">  1       21 0.69159995E-01 0.30053822E+02</pdfrwt>
<totfact> 0.27956327E+06</totfact>
</mgrwt>
</event>
<event>
 4    1  0.4594485E+006  0.2009069E+02  0.7546771E-02  0.1743530E+00
         21   -1    0    0  503  501  0.00000000000E+00  0.00000000000E+00  0.31503271887E+02  0.31503271887E+02  0.00000000000E+00 0. -1.
         21   -1    0    0  504  502 -0.00000000000E+00 -0.00000000000E+00 -0.15988799133E+02  0.15988799133E+02  0.00000000000E+00 0. -1.
         21    1    1    2  503  502  0.14872095525E+02  0.13507656027E+02  0.18341074311E+02  0.27203510868E+02  0.00000000000E+00 0. -1.
         21    1    1    2  504  501 -0.14872095525E+02 -0.13507656027E+02 -0.28266015568E+01  0.20288560152E+02  0.00000000000E+00 0. -1.
<mgrwt>
<rscale>  2 0.20090694E+02</rscale>
<asrwt>0</asrwt>
<pdfrwt beam="1">  1       21 0.48466572E-02 0.20090694E+02</pdfrwt>
<pdfrwt beam="2">  1       21 0.24598153E-02 0.20090694E+02</pdfrwt>
<totfact> 0.15710697E+08</totfact>
</mgrwt>
</event>
<event>
 4    1  0.4594485E+006  0.2161076E+02  0.7546771E-02  0.1715072E+00
         21   -1    0    0  504  501  0.00000000000E+00  0.00000000000E+00  0.44035984270E+01  0.44035984270E+01  0.00000000000E+00 0. -1.
         21   -1    0    0  501  502 -0.00000000000E+00 -0.00000000000E+00 -0.48758895080E+03  0.48758895080E+03  0.00000000000E+00 0. -1.
         21    1    1    2  503  502  0.20937857543E+02  0.53507963660E+01 -0.45919725686E+03  0.45970549878E+03  0.00000000000E+00 0. -1.
         21    1    1    2  504  503 -0.20937857543E+02 -0.53507963660E+01 -0.23988095512E+02  0.32287050447E+02  0.00000000000E+00 0. -1.
<mgrwt>
<rscale>  2 0.21610759E+02</rscale>
<asrwt>0</asrwt>
<pdfrwt beam="1">  1       21 0.67747658E-03 0.21610759E+02</pdfrwt>
<pdfrwt beam="2">  1       21 0.75013696E-01 0.21610759E+02</pdfrwt>
<totfact> 0.89935512E+06</totfact>
</mgrwt>
</event>
<event>
 4    1  0.4594485E+006  0.2209462E+02  0.7546771E-02  0.1706621E+00
         21   -1    0    0  502  501  0.00000000000E+00  0.00000000000E+00  0.90875856473E+01  0.90875856473E+01  0.00000000000E+00 0.  1.
         21   -1    0    0  503  502 -0.00000000000E+00 -0.00000000000E+00 -0.97098325924E+02  0.97098325924E+02  0.00000000000E+00 0.  1.
         21    1    1    2  503  504 -0.99369671302E+01  0.19733958027E+02 -0.79492789158E+02  0.82506217603E+02  0.00000000000E+00 0.  1.
         21    1    1    2  504  501  0.99369671302E+01 -0.19733958027E+02 -0.85179511189E+01  0.23679693968E+02  0.00000000000E+00 0.  1.
<mgrwt>
<rscale>  2 0.22094624E+02</rscale>
<asrwt>0</asrwt>
<pdfrwt beam="1">  1       21 0.13980901E-02 0.22094624E+02</pdfrwt>
<pdfrwt beam="2">  1       21 0.14938205E-01 0.22094624E+02</pdfrwt>
<totfact> 0.60760161E+07</totfact>
</mgrwt>
</event>
<event>
 4    1  0.4594485E+006  0.2560614E+02  0.7546771E-02  0.1652445E+00
         21   -1    0    0  504  501  0.00000000000E+00  0.00000000000E+00  0.30368968818E+03  0.30368968818E+03  0.00000000000E+00 0.  1.
         21   -1    0    0  503  502 -0.00000000000E+00 -0.00000000000E+00 -0.21726916707E+03  0.21726916707E+03  0.00000000000E+00 0. -1.
         21    1    1    2  503  501  0.15010624795E+02  0.20745014671E+02  0.30239225044E+03  0.30347445958E+03  0.00000000000E+00 0.  1.
         21    1    1    2  504  502 -0.15010624795E+02 -0.20745014671E+02 -0.21597172933E+03  0.21748439567E+03  0.00000000000E+00 0. -1.
<mgrwt>
<rscale>  2 0.25606142E+02</rscale>
<asrwt>0</asrwt>
<pdfrwt beam="1">  1       21 0.46721490E-01 0.25606142E+02</pdfrwt>
<pdfrwt beam="2">  1       21 0.33426026E-01 0.25606142E+02</pdfrwt>
<totfact> 0.43471135E+04</totfact>
</mgrwt>
</event>
<event>
 4    1  0.4594485E+006  0.2358740E+02  0.7546771E-02  0.1682162E+00
         21   -1    0    0  504  501  0.00000000000E+00  0.00000000000E+00  0.21578971584E+02  0.21578971584E+02  0.00000000000E+00 0. -1.
         21   -1    0    0  503  502 -0.00000000000E+00 -0.00000000000E+00 -0.32905594843E+02  0.32905594843E+02  0.00000000000E+00 0. -1.
         21    1    1    2  503  501  0.22280415296E+02  0.77426343480E+01  0.70113181885E+01  0.24607394725E+02  0.00000000000E+00 0. -1.
         21    1    1    2  504  502 -0.22280415296E+02 -0.77426343480E+01 -0.18337941448E+02  0.29877171702E+02  0.00000000000E+00 0. -1.
<mgrwt>
<rscale>  2 0.23587397E+02</rscale>
<asrwt>0</asrwt>
<pdfrwt beam="1">  1       21 0.33198418E-02 0.23587397E+02</pdfrwt>
<pdfrwt beam="2">  1       21 0.50623992E-02 0.23587397E+02</pdfrwt>
<totfact> 0.96641249E+07</totfact>
</mgrwt>
</event>
<event>
 4    1  0.4594485E+006  0.2040314E+02  0.7546771E-02  0.1737428E+00
         21   -1    0    0  504  501  0.00000000000E+00  0.00000000000E+00  0.90194245073E+01  0.90194245073E+01  0.00000000000E+00 0.  1.
         21   -1    0    0  501  502 -0.00000000000E+00 -0.00000000000E+00 -0.11742054232E+03  0.11742054232E+03  0.00000000000E+00 0.  1.
         21    1    1    2  503  502  0.11065136191E+02  0.17142074608E+02 -0.10345249898E+03  0.10544528205E+03  0.00000000000E+00 0.  1.
         21    1    1    2  504  503 -0.11065136191E+02 -0.17142074608E+02 -0.49486188369E+01  0.20994684784E+02  0.00000000000E+00 0.  1.
<mgrwt>
<rscale>  2 0.20403136E+02</rscale>
<asrwt>0</asrwt>
<pdfrwt beam="1">  1       21 0.13876037E-02 0.20403136E+02</pdfrwt>
<pdfrwt beam="2">  1       21 0.18064699E-01 0.20403136E+02</pdfrwt>
<totfact> 0.43501738E+07</totfact>
</mgrwt>
</event>
<event>
 4    1  0.4594485E+006  0.2332860E+02  0.7546771E-02  0.1686238E+00
         21   -1    0    0  503  501  0.00000000000E+00  0.00000000000E+00  0.10988821280E+02  0.10988821280E+02  0.00000000000E+00 0. -1.
         21   -1    0    0  504  502 -0.00000000000E+00 -0.00000000000E+00 -0.50090017198E+02  0.50090017198E+02  0.00000000000E+00 0. -1.
         21    1    1    2  503  502 -0.16848155442E+02 -0.16135770304E+02 -0.22793577942E+02  0.32615496631E+02  0.00000000000E+00 0. -1.
         21    1    1    2  504  501  0.16848155442E+02  0.16135770304E+02 -0.16307617976E+02  0.28463341848E+02  0.00000000000E+00 0. -1.
<mgrwt>
<rscale>  2 0.23328597E+02</rscale>
<asrwt>0</asrwt>
<pdfrwt beam="1">  1       21 0.16905879E-02 0.23328597E+02</pdfrwt>
<pdfrwt beam="2">  1       21 0.77061566E-02 0.23328597E+02</pdfrwt>
<totfact> 0.13885474E+08</totfact>
</mgrwt>
</event>
<event>
 4    1  0.4594485E+006  0.2207350E+02  0.7546771E-02  0.1706984E+00
         21   -1    0    0  502  501  0.00000000000E+00  0.00000000000E+00  0.13016555814E+02  0.13016555814E+02  0.00000000000E+00 0.  1.
         21   -1    0    0  504  502 -0.00000000000E+00 -0.00000000000E+00 -0.37718138584E+02  0.37718138584E+02  0.00000000000E+00 0.  1.
         21    1    1    2  503  501 -0.21648285438E+02  0.43117335299E+01 -0.10142386680E+02  0.24292124567E+02  0.00000000000E+00 0.  1.
         21    1    1    2  504  503  0.21648285438E+02 -0.43117335299E+01 -0.14559196090E+02  0.26442569830E+02  0.00000000000E+00 0.  1.
<mgrwt>
<rscale>  2 0.22073498E+02</rscale>
<asrwt>0</asrwt>
<pdfrwt beam="1">  1       21 0.20025470E-02 0.22073498E+02</pdfrwt>
<pdfrwt beam="2">  1       21 0.58027906E-02 0.22073498E+02</pdfrwt>
<totfact> 0.16661912E+08</totfact>
</mgrwt>
</event>
<event>
 4    1  0.4594485E+006  0.2779099E+02  0.7546771E-02  0.1623874E+00
         21   -1    0    0  504  501  0.00000000000E+00  0.00000000000E+00  0.21625293523E+03  0.21625293523E+03  0.00000000000E+00 0. -1.
         21   -1    0    0  501  502 -0.00000000000E+00 -0.00000000000E+00 -0.57748756017E+01  0.57748756017E+01  0.00000000000E+00 0.  1.
         21    1    1    2  503  502 -0.27512452101E+02 -0.39247924867E+01  0.36665874426E+02  0.46007883717E+02  0.00000000000E+00 0.  1.
         21    1    1    2  504  503  0.27512452101E+02  0.39247924867E+01  0.17381218520E+03  0.17601992711E+03  0.00000000000E+00 0. -1.
<mgrwt>
<rscale>  2 0.27790988E+02</rscale>
<asrwt>0</asrwt>
<pdfrwt beam="1">  1       21 0.33269676E-01 0.27790988E+02</pdfrwt>
<pdfrwt beam="2">  1       21 0.88844257E-03 0.27790988E+02</pdfrwt>
<totfact> 0.30785421E+07</totfact>
</mgrwt>
</event>
<event>
 4    1  0.4594485E+006  0.2478300E+02  0.7546771E-02  0.1664138E+00
         21   -1    0    0  503  501  0.00000000000E+00  0.00000000000E+00  0.15930934324E+02  0.15930934324E+02  0.00000000000E+00 0.  1.
         21   -1    0    0  501  502 -0.00000000000E+00 -0.00000000000E+00 -0.14376631234E+03  0.14376631234E+03  0.00000000000E+00 0.  1.
         21    1    1    2  503  504  0.24401441257E+02  0.43320775830E+01  0.43904838369E+01  0.25168901048E+02  0.00000000000E+00 0.  1.
         21    1    1    2  504  502 -0.24401441257E+02 -0.43320775830E+01 -0.13222586186E+03  0.13452834562E+03  0.00000000000E+00 0.  1.
<mgrwt>
<rscale>  2 0.24783003E+02</rscale>
<asrwt>0</asrwt>
<pdfrwt beam="1">  1       21 0.24509130E-02 0.24783003E+02</pdfrwt>
<pdfrwt beam="2">  1       21 0.22117894E-01 0.24783003E+02</pdfrwt>
<totfact> 0.13382278E+07</totfact>
</mgrwt>
</event>
<event>
 4    1  0.4594485E+006  0.4136373E+02  0.7546771E-02  0.1498409E+00
         21   -1    0    0  504  501  0.00000000000E+00  0.00000000000E+00  0.28251403998E+02  0.28251403998E+02  0.00000000000E+00 0.  1.
         21   -1    0    0  503  502 -0.00000000000E+00 -0.00000000000E+00 -0.78347059726E+02  0.78347059726E+02  0.00000000000E+00 0. -1.
         21    1    1    2  503  501 -0.27090669233E+02  0.31257857139E+02 -0.50442276695E+02  0.65233283457E+02  0.00000000000E+00 0. -1.
         21    1    1    2  504  502  0.27090669233E+02 -0.31257857139E+02  0.34662096791E+00  0.41365180267E+02  0.00000000000E+00 0.  1.
<mgrwt>
<rscale>  2 0.41363728E+02</rscale>
<asrwt>0</asrwt>
<pdfrwt beam="1">  1       21 0.43463699E-02 0.41363728E+02</pdfrwt>
<pdfrwt beam="2">  1       21 0.12053394E-01 0.41363728E+02</pdfrwt>
<totfact> 0.16945240E+07</totfact>
</mgrwt>
</event>
<event>
 4    1  0.4594485E+006  0.2260260E+02  0.7546771E-02  0.1698034E+00
         21   -1    0    0  504  501  0.00000000000E+00  0.00000000000E+00  0.14810686105E+03  0.14810686105E+03  0.00000000000E+00 0. -1.
         21   -1    0    0  503  502 -0.00000000000E+00 -0.00000000000E+00 -0.58888013334E+02  0.58888013334E+02  0.00000000000E+00 0.  1.
         21    1    1    2  503  501 -0.19397246076E+02 -0.11602765883E+02 -0.55811078420E+02  0.60214232586E+02  0.00000000000E+00 0.  1.
         21    1    1    2  504  502  0.19397246076E+02  0.11602765883E+02  0.14502992613E+03  0.14678064179E+03  0.00000000000E+00 0. -1.
<mgrwt>
<rscale>  2 0.22602596E+02</rscale>
<asrwt>0</asrwt>
<pdfrwt beam="1">  1       21 0.22785671E-01 0.22602596E+02</pdfrwt>
<pdfrwt beam="2">  1       21 0.90596944E-02 0.22602596E+02</pdfrwt>
<totfact> 0.15622644E+06</totfact>
</mgrwt>
</event>
<event>
 4    1  0.4594485E+006  0.2339830E+02  0.7546771E-02  0.1685134E+00
         21   -1    0    0  503  501  0.00000000000E+00  0.00000000000E+00  0.58098418374E+02  0.58098418374E+02  0.00000000000E+00 0.  1.
         21   -1    0    0  501  502 -0.00000000000E+00 -0.00000000000E+00 -0.25455299759E+02  0.25455299759E+02  0.00000000000E+00 0. -1.
         21    1    1    2  503  504  0.30901161914E+01 -0.23193351682E+02  0.49475882269E+02  0.54729729642E+02  0.00000000000E+00 0.  1.
         21    1    1    2  504  502 -0.30901161914E+01  0.23193351682E+02 -0.16832763654E+02  0.28823988491E+02  0.00000000000E+00 0. -1.
<mgrwt>
<rscale>  2 0.23398299E+02</rscale>
<asrwt>0</asrwt>
<pdfrwt beam="1">  1       21 0.89382182E-02 0.23398299E+02</pdfrwt>
<pdfrwt beam="2">  1       21 0.39162000E-02 0.23398299E+02</pdfrwt>
<totfact> 0.29657549E+07</totfact>
</mgrwt>
</event>
<event>
 4    1  0.4594485E+006  0.2139650E+02  0.7546771E-02  0.1718903E+00
         21   -1    0    0  503  501  0.00000000000E+00  0.00000000000E+00  0.25071477455E+02  0.25071477455E+02  0.00000000000E+00 0. -1.
         21   -1    0    0  501  502 -0.00000000000E+00 -0.00000000000E+00 -0.18548803265E+02  0.18548803265E+02  0.00000000000E+00 0. -1.
         21    1    1    2  503  504 -0.20644719495E+02 -0.56219102071E+01  0.54084549627E+00  0.21403336918E+02  0.00000000000E+00 0. -1.
         21    1    1    2  504  502  0.20644719495E+02  0.56219102071E+01  0.59818286938E+01  0.22216943802E+02  0.00000000000E+00 0. -1.
<mgrwt>
<rscale>  2 0.21396502E+02</rscale>
<asrwt>0</asrwt>
<pdfrwt beam="1">  1       21 0.38571504E-02 0.21396502E+02</pdfrwt>
<pdfrwt beam="2">  1       21 0.28536620E-02 0.21396502E+02</pdfrwt>
<totfact> 0.18260357E+08</totfact>
</mgrwt>
</event>
<event>
 4    1  0.4594485E+006  0.6557885E+02  0.7546771E-02  0.1375807E+00
         21   -1    0    0  503  501  0.00000000000E+00  0.00000000000E+00  0.41487864254E+02  0.41487864254E+02  0.00000000000E+00 0. -1.
         21   -1    0    0  504  502 -0.00000000000E+00 -0.00000000000E+00 -0.10487608862E+03  0.10487608862E+03  0.00000000000E+00 0. -1.
         21    1    1    2  503  502  0.57182622121E+02  0.32105027226E+02 -0.23810040993E+02  0.69767493132E+02  0.00000000000E+00 0. -1.
         21    1    1    2  504  501 -0.57182622121E+02 -0.32105027226E+02 -0.39578183372E+02  0.76596459741E+02  0.00000000000E+00 0. -1.
<mgrwt>
<rscale>  2 0.65578846E+02</rscale>
<asrwt>0</asrwt>
<pdfrwt beam="1">  1       21 0.63827483E-02 0.65578846E+02</pdfrwt>
<pdfrwt beam="2">  1       21 0.16134783E-01 0.65578846E+02</pdfrwt>
<totfact> 0.57166131E+06</totfact>
</mgrwt>
</event>
<event>
 4    1  0.4594485E+006  0.3596941E+02  0.7546771E-02  0.1540157E+00
         21   -1    0    0  504  501  0.00000000000E+00  0.00000000000E+00  0.55364738771E+02  0.55364738771E+02  0.00000000000E+00 0. -1.
         21   -1    0    0  503  502 -0.00000000000E+00 -0.00000000000E+00 -0.26624918086E+02  0.26624918086E+02  0.00000000000E+00 0. -1.
         21    1    1    2  503  501  0.35504609925E+02  0.57637516731E+01  0.28706513572E+02  0.46020235557E+02  0.00000000000E+00 0. -1.
         21    1    1    2  504  502 -0.35504609925E+02 -0.57637516731E+01  0.33307112943E-01  0.35969421300E+02  0.00000000000E+00 0. -1.
<mgrwt>
<rscale>  2 0.35969406E+02</rscale>
<asrwt>0</asrwt>
<pdfrwt beam="1">  1       21 0.85176521E-02 0.35969406E+02</pdfrwt>
<pdfrwt beam="2">  1       21 0.40961412E-02 0.35969406E+02</pdfrwt>
<totfact> 0.32731951E+07</totfact>
</mgrwt>
</event>
<event>
 4    1  0.4594485E+006  0.2097438E+02  0.7546771E-02  0.1726618E+00
         21   -1    0    0  502  501  0.00000000000E+00  0.00000000000E+00  0.35835905846E+02  0.35835905846E+02  0.00000000000E+00 0. -1.
         21   -1    0    0  504  502 -0.00000000000E+00 -0.00000000000E+00 -0.79885913965E+02  0.79885913965E+02  0.00000000000E+00 0.  1.
         21    1    1    2  503  501  0.90920314839E+01 -0.18901313152E+02  0.31204824703E+02  0.37598746789E+02  0.00000000000E+00 0. -1.
         21    1    1    2  504  503 -0.90920314839E+01  0.18901313152E+02 -0.75254832821E+02  0.78123073022E+02  0.00000000000E+00 0.  1.
<mgrwt>
<rscale>  2 0.20974381E+02</rscale>
<asrwt>0</asrwt>
<pdfrwt beam="1">  1       21 0.55132163E-02 0.20974381E+02</pdfrwt>
<pdfrwt beam="2">  1       21 0.12290141E-01 0.20974381E+02</pdfrwt>
<totfact> 0.99377258E+06</totfact>
</mgrwt>
</event>
<event>
 4    1  0.4594485E+006  0.2995410E+02  0.7546771E-02  0.1598597E+00
         21   -1    0    0  503  501  0.00000000000E+00  0.00000000000E+00  0.35741474679E+02  0.35741474679E+02  0.00000000000E+00 0.  1.
         21   -1    0    0  501  502 -0.00000000000E+00 -0.00000000000E+00 -0.65786836643E+02  0.65786836643E+02  0.00000000000E+00 0. -1.
         21    1    1    2  503  504 -0.24002974459E+02  0.17919408384E+02  0.24897653801E+02  0.38950496075E+02  0.00000000000E+00 0.  1.
         21    1    1    2  504  502  0.24002974459E+02 -0.17919408384E+02 -0.54943015765E+02  0.62577815247E+02  0.00000000000E+00 0. -1.
<mgrwt>
<rscale>  2 0.29954098E+02</rscale>
<asrwt>0</asrwt>
<pdfrwt beam="1">  1       21 0.54986885E-02 0.29954098E+02</pdfrwt>
<pdfrwt beam="2">  1       21 0.10121052E-01 0.29954098E+02</pdfrwt>
<totfact> 0.14776486E+07</totfact>
</mgrwt>
</event>
<event>
 4    1  0.4594485E+006  0.4076468E+02  0.7546771E-02  0.1502658E+00
         21   -1    0    0  504  501  0.00000000000E+00  0.00000000000E+00  0.16772465006E+02  0.16772465006E+02  0.00000000000E+00 0.  1.
         21   -1    0    0  503  502 -0.00000000000E+00 -0.00000000000E+00 -0.70633994674E+03  0.70633994674E+03  0.00000000000E+00 0. -1.
         21    1    1    2  503  501  0.37796374652E+02  0.15270677117E+02 -0.95424877189E+01  0.41866676346E+02  0.00000000000E+00 0.  1.
         21    1    1    2  504  502 -0.37796374652E+02 -0.15270677117E+02 -0.68002499402E+03  0.68124573540E+03  0.00000000000E+00 0. -1.
<mgrwt>
<rscale>  2 0.40764685E+02</rscale>
<asrwt>0</asrwt>
<pdfrwt beam="1">  1       21 0.25803785E-02 0.40764685E+02</pdfrwt>
<pdfrwt beam="2">  1       21 0.10866771E+00 0.40764685E+02</pdfrwt>
<totfact> 0.55298102E+05</totfact>
</mgrwt>
</event>
<event>
 4    1  0.4594485E+006  0.5434109E+02  0.7546771E-02  0.1423241E+00
         21   -1    0    0  502  501  0.00000000000E+00  0.00000000000E+00  0.25507873144E+01  0.25507873144E+01  0.00000000000E+00 0.  1.
         21   -1    0    0  504  502 -0.00000000000E+00 -0.00000000000E+00 -0.13416019906E+04  0.13416019906E+04  0.00000000000E+00 0.  1.
         21    1    1    2  503  501 -0.43188730975E+02 -0.32980113376E+02 -0.42067273865E+03  0.42416801790E+03  0.00000000000E+00 0.  1.
         21    1    1    2  504  503  0.43188730975E+02  0.32980113376E+02 -0.91837846459E+03  0.91998475997E+03  0.00000000000E+00 0.  1.
<mgrwt>
<rscale>  2 0.54341093E+02</rscale>
<asrwt>0</asrwt>
<pdfrwt beam="1">  1       21 0.39242857E-03 0.54341093E+02</pdfrwt>
<pdfrwt beam="2">  1       21 0.20640043E+00 0.54341093E+02</pdfrwt>
<totfact> 0.20391379E+06</totfact>
</mgrwt>
</event>
<event>
 4    1  0.4594485E+006  0.2346013E+02  0.7546771E-02  0.1684158E+00
         21   -1    0    0  504  501  0.00000000000E+00  0.00000000000E+00  0.20817266442E+02  0.20817266442E+02  0.00000000000E+00 0.  1.
         21   -1    0    0  503  502 -0.00000000000E+00 -0.00000000000E+00 -0.43542496963E+02  0.43542496963E+02  0.00000000000E+00 0.  1.
         21    1    1    2  503  501 -0.52824446834E+01  0.22857682227E+02  0.88060074634E+01  0.25058404300E+02  0.00000000000E+00 0.  1.
         21    1    1    2  504  502  0.52824446834E+01 -0.22857682227E+02 -0.31531237984E+02  0.39301359104E+02  0.00000000000E+00 0.  1.
<mgrwt>
<rscale>  2 0.23460133E+02</rscale>
<asrwt>0</asrwt>
<pdfrwt beam="1">  1       21 0.32026564E-02 0.23460133E+02</pdfrwt>
<pdfrwt beam="2">  1       21 0.66988457E-02 0.23460133E+02</pdfrwt>
<totfact> 0.65106584E+07</totfact>
</mgrwt>
</event>
<event>
 4    1  0.4594485E+006  0.2564914E+02  0.7546771E-02  0.1651849E+00
         21   -1    0    0  502  501  0.00000000000E+00  0.00000000000E+00  0.12133352516E+03  0.12133352516E+03  0.00000000000E+00 0.  1.
         21   -1    0    0  503  502 -0.00000000000E+00 -0.00000000000E+00 -0.19985357513E+02  0.19985357513E+02  0.00000000000E+00 0. -1.
         21    1    1    2  503  504  0.25047427269E+02 -0.55230961567E+01 -0.96435132476E+01  0.27402108527E+02  0.00000000000E+00 0. -1.
         21    1    1    2  504  501 -0.25047427269E+02  0.55230961567E+01  0.11099168090E+03  0.11391677415E+03  0.00000000000E+00 0.  1.
<mgrwt>
<rscale>  2 0.25649137E+02</rscale>
<asrwt>0</asrwt>
<pdfrwt beam="1">  1       21 0.18666696E-01 0.25649137E+02</pdfrwt>
<pdfrwt beam="2">  1       21 0.30746705E-02 0.25649137E+02</pdfrwt>
<totfact> 0.12740233E+07</totfact>
</mgrwt>
</event>
<event>
 4    1  0.4594485E+006  0.2178724E+02  0.7546771E-02  0.1711958E+00
         21   -1    0    0  503  501  0.00000000000E+00  0.00000000000E+00  0.15829807802E+03  0.15829807802E+03  0.00000000000E+00 0. -1.
         21   -1    0    0  504  502 -0.00000000000E+00 -0.00000000000E+00 -0.40198601838E+02  0.40198601838E+02  0.00000000000E+00 0. -1.
         21    1    1    2  503  502  0.12449503228E+02 -0.17879981520E+02  0.15452455693E+03  0.15605294795E+03  0.00000000000E+00 0. -1.
         21    1    1    2  504  501 -0.12449503228E+02  0.17879981520E+02 -0.36425080754E+02  0.42443731902E+02  0.00000000000E+00 0. -1.
<mgrwt>
<rscale>  2 0.21787241E+02</rscale>
<asrwt>0</asrwt>
<pdfrwt beam="1">  1       21 0.24353550E-01 0.21787241E+02</pdfrwt>
<pdfrwt beam="2">  1       21 0.61844004E-02 0.21787241E+02</pdfrwt>
<totfact> 0.25689946E+06</totfact>
</mgrwt>
</event>
<event>
 4    1  0.4594485E+006  0.2031060E+02  0.7546771E-02  0.1739221E+00
         21   -1    0    0  502  501  0.00000000000E+00  0.00000000000E+00  0.29586405584E+01  0.29586405584E+01  0.00000000000E+00 0.  1.
         21   -1    0    0  503  502 -0.00000000000E+00 -0.00000000000E+00 -0.18829565038E+03  0.18829565038E+03  0.00000000000E+00 0. -1.
         21    1    1    2  503  504 -0.20009452607E+02 -0.34845540769E+01 -0.14138402112E+03  0.14283543587E+03  0.00000000000E+00 0. -1.
         21    1    1    2  504  501  0.20009452607E+02  0.34845540769E+01 -0.43952988698E+02  0.48418855069E+02  0.00000000000E+00 0.  1.
<mgrwt>
<rscale>  2 0.20310596E+02</rscale>
<asrwt>0</asrwt>
<pdfrwt beam="1">  1       21 0.45517546E-03 0.20310596E+02</pdfrwt>
<pdfrwt beam="2">  1       21 0.28968562E-01 0.20310596E+02</pdfrwt>
<totfact> 0.99273994E+07</totfact>
</mgrwt>
</event>
<event>
 4    1  0.4594485E+006  0.2153234E+02  0.7546771E-02  0.1716468E+00
         21   -1    0    0  503  501  0.00000000000E+00  0.00000000000E+00  0.72918007337E+01  0.72918007337E+01  0.00000000000E+00 0. -1.
         21   -1    0    0  504  502 -0.00000000000E+00 -0.00000000000E+00 -0.78281774891E+02  0.78281774891E+02  0.00000000000E+00 0.  1.
         21    1    1    2  503  502 -0.20949828896E+02 -0.49745571581E+01 -0.16955156055E+02  0.27406547877E+02  0.00000000000E+00 0. -1.
         21    1    1    2  504  501  0.20949828896E+02  0.49745571581E+01 -0.54034818102E+02  0.58167027748E+02  0.00000000000E+00 0.  1.
<mgrwt>
<rscale>  2 0.21532337E+02</rscale>
<asrwt>0</asrwt>
<pdfrwt beam="1">  1       21 0.11218155E-02 0.21532337E+02</pdfrwt>
<pdfrwt beam="2">  1       21 0.12043350E-01 0.21532337E+02</pdfrwt>
<totfact> 0.12087283E+08</totfact>
</mgrwt>
</event>
<event>
 4    1  0.4594485E+006  0.2872585E+02  0.7546771E-02  0.1612615E+00
         21   -1    0    0  503  501  0.00000000000E+00  0.00000000000E+00  0.66972550639E+01  0.66972550639E+01  0.00000000000E+00 0. -1.
         21   -1    0    0  501  502 -0.00000000000E+00 -0.00000000000E+00 -0.29407641893E+03  0.29407641893E+03  0.00000000000E+00 0.  1.
         21    1    1    2  503  504 -0.15352960907E+02 -0.24278820894E+02 -0.29057285957E+02  0.40859520553E+02  0.00000000000E+00 0. -1.
         21    1    1    2  504  502  0.15352960907E+02  0.24278820894E+02 -0.25832187790E+03  0.25991415344E+03  0.00000000000E+00 0.  1.
<mgrwt>
<rscale>  2 0.28725852E+02</rscale>
<asrwt>0</asrwt>
<pdfrwt beam="1">  1       21 0.10303471E-02 0.28725852E+02</pdfrwt>
<pdfrwt beam="2">  1       21 0.45242520E-01 0.28725852E+02</pdfrwt>
<totfact> 0.13836455E+07</totfact>
</mgrwt>
</event>
<event>
 4    1  0.4594485E+006  0.2038508E+02  0.7546771E-02  0.1737777E+00
         21   -1    0    0  504  501  0.00000000000E+00  0.00000000000E+00  0.22713139704E+03  0.22713139704E+03  0.00000000000E+00 0. -1.
         21   -1    0    0  503  502 -0.00000000000E+00 -0.00000000000E+00 -0.12889627896E+02  0.12889627896E+02  0.00000000000E+00 0.  1.
         21    1    1    2  503  501 -0.13753164786E+01 -0.20338630869E+02  0.21828840540E+03  0.21923817946E+03  0.00000000000E+00 0. -1.
         21    1    1    2  504  502  0.13753164786E+01  0.20338630869E+02 -0.40466362562E+01  0.20782845474E+02  0.00000000000E+00 0.  1.
<mgrwt>
<rscale>  2 0.20385078E+02</rscale>
<asrwt>0</asrwt>
<pdfrwt beam="1">  1       21 0.34943289E-01 0.20385078E+02</pdfrwt>
<pdfrwt beam="2">  1       21 0.19830198E-02 0.20385078E+02</pdfrwt>
<totfact> 0.78328112E+06</totfact>
</mgrwt>
</event>
<event>
 4    1  0.4594485E+006  0.3453521E+02  0.7546771E-02  0.1552767E+00
         21   -1    0    0  503  501  0.00000000000E+00  0.00000000000E+00  0.18072625963E+04  0.18072625963E+04  0.00000000000E+00 0. -1.
         21   -1    0    0  504  502 -0.00000000000E+00 -0.00000000000E+00 -0.41548176529E+01  0.41548176529E+01  0.00000000000E+00 0. -1.
         21    1    1    2  503  502 -0.28454749084E+02  0.19570596008E+02  0.70883592226E+02  0.78848998855E+02  0.00000000000E+00 0. -1.
         21    1    1    2  504  501  0.28454749084E+02 -0.19570596008E+02  0.17322241864E+04  0.17325684151E+04  0.00000000000E+00 0. -1.
<mgrwt>
<rscale>  2 0.34535214E+02</rscale>
<asrwt>0</asrwt>
<pdfrwt beam="1">  1       21 0.27803977E+00 0.34535214E+02</pdfrwt>
<pdfrwt beam="2">  1       21 0.63920416E-03 0.34535214E+02</pdfrwt>
<totfact> 0.40886785E+05</totfact>
</mgrwt>
</event>
<event>
 4    1  0.4594485E+006  0.2782495E+02  0.7546771E-02  0.1623455E+00
         21   -1    0    0  503  501  0.00000000000E+00  0.00000000000E+00  0.28105284529E+03  0.28105284529E+03  0.00000000000E+00 0.  1.
         21   -1    0    0  501  502 -0.00000000000E+00 -0.00000000000E+00 -0.35532420469E+01  0.35532420469E+01  0.00000000000E+00 0.  1.
         21    1    1    2  503  504  0.25520492609E+02 -0.11087483007E+02  0.20620874155E+03  0.20807756466E+03  0.00000000000E+00 0.  1.
         21    1    1    2  504  502 -0.25520492609E+02  0.11087483007E+02  0.71290861690E+02  0.76528522676E+02  0.00000000000E+00 0.  1.
<mgrwt>
<rscale>  2 0.27824950E+02</rscale>
<asrwt>0</asrwt>
<pdfrwt beam="1">  1       21 0.43238882E-01 0.27824950E+02</pdfrwt>
<pdfrwt beam="2">  1       21 0.54665284E-03 0.27824950E+02</pdfrwt>
<totfact> 0.38853938E+07</totfact>
</mgrwt>
</event>
<event>
 4    1  0.4594485E+006  0.2609644E+02  0.7546771E-02  0.1645735E+00
         21   -1    0    0  503  501  0.00000000000E+00  0.00000000000E+00  0.22864890472E+03  0.22864890472E+03  0.00000000000E+00 0. -1.
         21   -1    0    0  504  502 -0.00000000000E+00 -0.00000000000E+00 -0.60949257823E+01  0.60949257823E+01  0.00000000000E+00 0.  1.
         21    1    1    2  503  502  0.27381691860E+01 -0.25952395757E+02  0.27348325660E+02  0.37801525531E+02  0.00000000000E+00 0.  1.
         21    1    1    2  504  501 -0.27381691860E+01  0.25952395757E+02  0.19520565328E+03  0.19694230497E+03  0.00000000000E+00 0. -1.
<mgrwt>
<rscale>  2 0.26096445E+02</rscale>
<asrwt>0</asrwt>
<pdfrwt beam="1">  1       21 0.35176748E-01 0.26096445E+02</pdfrwt>
<pdfrwt beam="2">  1       21 0.93768107E-03 0.26096445E+02</pdfrwt>
<totfact> 0.25266062E+07</totfact>
</mgrwt>
</event>
<event>
 4    1  0.4594485E+006  0.2172256E+02  0.7546771E-02  0.1713095E+00
         21   -1    0    0  504  501  0.00000000000E+00  0.00000000000E+00  0.17846387598E+01  0.17846387598E+01  0.00000000000E+00 0. -1.
         21   -1    0    0  503  502 -0.00000000000E+00 -0.00000000000E+00 -0.10773785117E+04  0.10773785117E+04  0.00000000000E+00 0.  1.
         21    1    1    2  503  501  0.34177961071E+01 -0.21451999065E+02 -0.10065140691E+04  0.10067484496E+04  0.00000000000E+00 0.  1.
         21    1    1    2  504  502 -0.34177961071E+01  0.21451999065E+02 -0.69079803931E+02  0.72414700892E+02  0.00000000000E+00 0. -1.
<mgrwt>
<rscale>  2 0.21722560E+02</rscale>
<asrwt>0</asrwt>
<pdfrwt beam="1">  1       21 0.27456051E-03 0.21722560E+02</pdfrwt>
<pdfrwt beam="2">  1       21 0.16575012E+00 0.21722560E+02</pdfrwt>
<totfact> 0.57748932E+06</totfact>
</mgrwt>
</event>
<event>
 4    1  0.4594485E+006  0.3833376E+02  0.7546771E-02  0.1520844E+00
         21   -1    0    0  503  501  0.00000000000E+00  0.00000000000E+00  0.15046695852E+03  0.15046695852E+03  0.00000000000E+00 0.  1.
         21   -1    0    0  501  502 -0.00000000000E+00 -0.00000000000E+00 -0.19587735806E+02  0.19587735806E+02  0.00000000000E+00 0. -1.
         21    1    1    2  503  504  0.16948819082E+01 -0.38296268525E+02  0.12564816734E+03  0.13136566813E+03  0.00000000000E+00 0.  1.
         21    1    1    2  504  502 -0.16948819082E+01  0.38296268525E+02  0.52310553744E+01  0.38689026195E+02  0.00000000000E+00 0. -1.
<mgrwt>
<rscale>  2 0.38333755E+02</rscale>
<asrwt>0</asrwt>
<pdfrwt beam="1">  1       21 0.23148762E-01 0.38333755E+02</pdfrwt>
<pdfrwt beam="2">  1       21 0.30134979E-02 0.38333755E+02</pdfrwt>
<totfact> 0.95726272E+06</totfact>
</mgrwt>
</event>
<event>
 4    1  0.4594485E+006  0.2911689E+02  0.7546771E-02  0.1608060E+00
         21   -1    0    0  502  501  0.00000000000E+00  0.00000000000E+00  0.28920412110E+02  0.28920412110E+02  0.00000000000E+00 0. -1.
         21   -1    0    0  504  502 -0.00000000000E+00 -0.00000000000E+00 -0.13424326461E+04  0.13424326461E+04  0.00000000000E+00 0.  1.
         21    1    1    2  503  501 -0.27375131586E+02 -0.99194530105E+01  0.21392528390E+02  0.36130785326E+02  0.00000000000E+00 0. -1.
         21    1    1    2  504  503  0.27375131586E+02  0.99194530105E+01 -0.13349047624E+04  0.13352222729E+04  0.00000000000E+00 0.  1.
<mgrwt>
<rscale>  2 0.29116892E+02</rscale>
<asrwt>0</asrwt>
<pdfrwt beam="1">  1       21 0.44492944E-02 0.29116892E+02</pdfrwt>
<pdfrwt beam="2">  1       21 0.20652809E+00 0.29116892E+02</pdfrwt>
<totfact> 0.48922684E+04</totfact>
</mgrwt>
</event>
<event>
 4    1  0.4594485E+006  0.2367230E+02  0.7546771E-02  0.1680839E+00
         21   -1    0    0  504  501  0.00000000000E+00  0.00000000000E+00  0.45490059636E+02  0.45490059636E+02  0.00000000000E+00 0.  1.
         21   -1    0    0  503  502 -0.00000000000E+00 -0.00000000000E+00 -0.17401647066E+02  0.17401647066E+02  0.00000000000E+00 0.  1.
         21    1    1    2  503  501 -0.12902932860E+02 -0.19846716145E+02 -0.29510040698E+01  0.23855528565E+02  0.00000000000E+00 0.  1.
         21    1    1    2  504  502  0.12902932860E+02  0.19846716145E+02  0.31039416640E+02  0.39036178136E+02  0.00000000000E+00 0.  1.
<mgrwt>
<rscale>  2 0.23672301E+02</rscale>
<asrwt>0</asrwt>
<pdfrwt beam="1">  1       21 0.69984707E-02 0.23672301E+02</pdfrwt>
<pdfrwt beam="2">  1       21 0.26771765E-02 0.23672301E+02</pdfrwt>
<totfact> 0.80376949E+07</totfact>
</mgrwt>
</event>
<event>
 4    1  0.4594485E+006  0.6336117E+02  0.7546771E-02  0.1384244E+00
         21   -1    0    0  502  501  0.00000000000E+00  0.00000000000E+00  0.22724691255E+03  0.22724691255E+03  0.00000000000E+00 0.  1.
         21   -1    0    0  504  502 -0.00000000000E+00 -0.00000000000E+00 -0.98770263010E+02  0.98770263010E+02  0.00000000000E+00 0.  1.
         21    1    1    2  503  501  0.56231824596E+02 -0.29199650185E+02  0.21195112010E+03  0.22121915600E+03  0.00000000000E+00 0.  1.
         21    1    1    2  504  503 -0.56231824596E+02  0.29199650185E+02 -0.83474470562E+02  0.10479801956E+03  0.00000000000E+00 0.  1.
<mgrwt>
<rscale>  2 0.63361168E+02</rscale>
<asrwt>0</asrwt>
<pdfrwt beam="1">  1       21 0.34961063E-01 0.63361168E+02</pdfrwt>
<pdfrwt beam="2">  1       21 0.15195425E-01 0.63361168E+02</pdfrwt>
<totfact> 0.30933569E+05</totfact>
</mgrwt>
</event>
<event>
 4    1  0.4594485E+006  0.2469622E+02  0.7546771E-02  0.1665404E+00
         21   -1    0    0  503  501  0.00000000000E+00  0.00000000000E+00  0.38552797766E+01  0.38552797766E+01  0.00000000000E+00 0.  1.
         21   -1    0    0  504  502 -0.00000000000E+00 -0.00000000000E+00 -0.20187844432E+03  0.20187844432E+03  0.00000000000E+00 0. -1.
         21    1    1    2  503  502  0.47339080150E+01  0.24238258553E+02 -0.14685992854E+03  0.14892193147E+03  0.00000000000E+00 0. -1.
         21    1    1    2  504  501 -0.47339080150E+01 -0.24238258553E+02 -0.51163236002E+02  0.56811792622E+02  0.00000000000E+00 0.  1.
<mgrwt>
<rscale>  2 0.24696216E+02</rscale>
<asrwt>0</asrwt>
<pdfrwt beam="1">  1       21 0.59311981E-03 0.24696216E+02</pdfrwt>
<pdfrwt beam="2">  1       21 0.31058230E-01 0.24696216E+02</pdfrwt>
<totfact> 0.62319771E+07</totfact>
</mgrwt>
</event>
<event>
 4    1  0.4594485E+006  0.2346455E+02  0.7546771E-02  0.1684089E+00
         21   -1    0    0  504  501  0.00000000000E+00  0.00000000000E+00  0.33503503567E+01  0.33503503567E+01  0.00000000000E+00 0. -1.
         21   -1    0    0  503  502 -0.00000000000E+00 -0.00000000000E+00 -0.18617454666E+03  0.18617454666E+03  0.00000000000E+00 0. -1.
         21    1    1    2  503  501 -0.13827459779E+02 -0.18957494531E+02 -0.12386711615E+03  0.12607001113E+03  0.00000000000E+00 0. -1.
         21    1    1    2  504  502  0.13827459779E+02  0.18957494531E+02 -0.58957080159E+02  0.63454885893E+02  0.00000000000E+00 0. -1.
<mgrwt>
<rscale>  2 0.23464553E+02</rscale>
<asrwt>0</asrwt>
<pdfrwt beam="1">  1       21 0.51543845E-03 0.23464553E+02</pdfrwt>
<pdfrwt beam="2">  1       21 0.28642242E-01 0.23464553E+02</pdfrwt>
<totfact> 0.87768625E+07</totfact>
</mgrwt>
</event>
<event>
 4    1  0.4594485E+006  0.2804311E+02  0.7546771E-02  0.1620784E+00
         21   -1    0    0  504  501  0.00000000000E+00  0.00000000000E+00  0.23944605111E+02  0.23944605111E+02  0.00000000000E+00 0. -1.
         21   -1    0    0  503  502 -0.00000000000E+00 -0.00000000000E+00 -0.13594385756E+03  0.13594385756E+03  0.00000000000E+00 0. -1.
         21    1    1    2  503  501  0.83509366530E+01  0.26770841652E+02  0.13621039645E+02  0.31176093834E+02  0.00000000000E+00 0. -1.
         21    1    1    2  504  502 -0.83509366530E+01 -0.26770841652E+02 -0.12562029209E+03  0.12871236884E+03  0.00000000000E+00 0. -1.
<mgrwt>
<rscale>  2 0.28043112E+02</rscale>
<asrwt>0</asrwt>
<pdfrwt beam="1">  1       21 0.36837854E-02 0.28043112E+02</pdfrwt>
<pdfrwt beam="2">  1       21 0.20914439E-01 0.28043112E+02</pdfrwt>
<totfact> 0.79745122E+06</totfact>
</mgrwt>
</event>
<event>
 4    1  0.4594485E+006  0.2242257E+02  0.7546771E-02  0.1701045E+00
         21   -1    0    0  503  501  0.00000000000E+00  0.00000000000E+00  0.17621627176E+03  0.17621627176E+03  0.00000000000E+00 0.  1.
         21   -1    0    0  504  502 -0.00000000000E+00 -0.00000000000E+00 -0.34566970619E+01  0.34566970619E+01  0.00000000000E+00 0.  1.
         21    1    1    2  503  502 -0.11645860601E+02 -0.19161037942E+02  0.12391835365E+03  0.12593065479E+03  0.00000000000E+00 0.  1.
         21    1    1    2  504  501  0.11645860601E+02  0.19161037942E+02  0.48841221047E+02  0.53742314032E+02  0.00000000000E+00 0.  1.
<mgrwt>
<rscale>  2 0.22422566E+02</rscale>
<asrwt>0</asrwt>
<pdfrwt beam="1">  1       21 0.27110189E-01 0.22422566E+02</pdfrwt>
<pdfrwt beam="2">  1       21 0.53179969E-03 0.22422566E+02</pdfrwt>
<totfact> 0.91431862E+07</totfact>
</mgrwt>
</event>
<event>
 4    1  0.4594485E+006  0.3643681E+02  0.7546771E-02  0.1536199E+00
         21   -1    0    0  503  501  0.00000000000E+00  0.00000000000E+00  0.10683310629E+04  0.10683310629E+04  0.00000000000E+00 0.  1.
         21   -1    0    0  504  502 -0.00000000000E+00 -0.00000000000E+00 -0.16844523450E+01  0.16844523450E+01  0.00000000000E+00 0.  1.
         21    1    1    2  503  502  0.24431819332E+02  0.27031970446E+02  0.25935010257E+03  0.26189714952E+03  0.00000000000E+00 0.  1.
         21    1    1    2  504  501 -0.24431819332E+02 -0.27031970446E+02  0.80729650795E+03  0.80811836569E+03  0.00000000000E+00 0.  1.
<mgrwt>
<rscale>  2 0.36436811E+02</rscale>
<asrwt>0</asrwt>
<pdfrwt beam="1">  1       21 0.16435808E+00 0.36436811E+02</pdfrwt>
<pdfrwt beam="2">  1       21 0.25914737E-03 0.36436811E+02</pdfrwt>
<totfact> 0.67685685E+06</totfact>
</mgrwt>
</event>
<event>
 4    1  0.4594485E+006  0.2055156E+02  0.7546771E-02  0.1734577E+00
         21   -1    0    0  502  501  0.00000000000E+00  0.00000000000E+00  0.14993114988E+02  0.14993114988E+02  0.00000000000E+00 0. -1.
         21   -1    0    0  503  502 -0.00000000000E+00 -0.00000000000E+00 -0.39153171188E+02  0.39153171188E+02  0.00000000000E+00 0. -1.
         21    1    1    2  503  504 -0.25479876929E+01 -0.20393003151E+02 -0.26418566423E+02  0.33470994468E+02  0.00000000000E+00 0. -1.
         21    1    1    2  504  501  0.25479876929E+01  0.20393003151E+02  0.22585102230E+01  0.20675291709E+02  0.00000000000E+00 0. -1.
<mgrwt>
<rscale>  2 0.20551565E+02</rscale>
<asrwt>0</asrwt>
<pdfrwt beam="1">  1       21 0.23066331E-02 0.20551565E+02</pdfrwt>
<pdfrwt beam="2">  1       21 0.60235648E-02 0.20551565E+02</pdfrwt>
<totfact> 0.12362424E+08</totfact>
</mgrwt>
</event>
<event>
 4    1  0.4594485E+006  0.2751829E+02  0.7546771E-02  0.1627261E+00
         21   -1    0    0  503  501  0.00000000000E+00  0.00000000000E+00  0.53112482233E+03  0.53112482233E+03  0.00000000000E+00 0.  1.
         21   -1    0    0  501  502 -0.00000000000E+00 -0.00000000000E+00 -0.44283442784E+02  0.44283442784E+02  0.00000000000E+00 0. -1.
         21    1    1    2  503  504  0.27262428158E+02  0.37438612618E+01  0.52645543642E+03  0.52717414867E+03  0.00000000000E+00 0.  1.
         21    1    1    2  504  502 -0.27262428158E+02 -0.37438612618E+01 -0.39614056881E+02  0.48234116441E+02  0.00000000000E+00 0. -1.
<mgrwt>
<rscale>  2 0.27518294E+02</rscale>
<asrwt>0</asrwt>
<pdfrwt beam="1">  1       21 0.81711506E-01 0.27518294E+02</pdfrwt>
<pdfrwt beam="2">  1       21 0.68128377E-02 0.27518294E+02</pdfrwt>
<totfact> 0.21688480E+05</totfact>
</mgrwt>
</event>
<event>
 4    1  0.4594485E+006  0.7720735E+02  0.7546771E-02  0.1337169E+00
         21   -1    0    0  504  501  0.00000000000E+00  0.00000000000E+00  0.12662525001E+03  0.12662525001E+03  0.00000000000E+00 0. -1.
         21   -1    0    0  503  502 -0.00000000000E+00 -0.00000000000E+00 -0.47523477068E+02  0.47523477068E+02  0.00000000000E+00 0. -1.
         21    1    1    2  503  501  0.40656893169E+02 -0.65635291513E+02  0.31098899689E+02  0.83235305106E+02  0.00000000000E+00 0. -1.
         21    1    1    2  504  502 -0.40656893169E+02  0.65635291513E+02  0.48002873253E+02  0.90913421973E+02  0.00000000000E+00 0. -1.
<mgrwt>
<rscale>  2 0.77207347E+02</rscale>
<asrwt>0</asrwt>
<pdfrwt beam="1">  1       21 0.19480808E-01 0.77207347E+02</pdfrwt>
<pdfrwt beam="2">  1       21 0.73113042E-02 0.77207347E+02</pdfrwt>
<totfact> 0.32805063E+06</totfact>
</mgrwt>
</event>
<event>
 4    1  0.4594485E+006  0.2235577E+02  0.7546771E-02  0.1702171E+00
         21   -1    0    0  502  501  0.00000000000E+00  0.00000000000E+00  0.10130480558E+04  0.10130480558E+04  0.00000000000E+00 0.  1.
         21   -1    0    0  503  502 -0.00000000000E+00 -0.00000000000E+00 -0.61721515018E+02  0.61721515018E+02  0.00000000000E+00 0. -1.
         21    1    1    2  503  504  0.11395655015E+02 -0.19233295659E+02 -0.59569533185E+02  0.63626330234E+02  0.00000000000E+00 0. -1.
         21    1    1    2  504  501 -0.11395655015E+02  0.19233295659E+02  0.10108960740E+04  0.10111432406E+04  0.00000000000E+00 0.  1.
<mgrwt>
<rscale>  2 0.22355774E+02</rscale>
<asrwt>0</asrwt>
<pdfrwt beam="1">  1       21 0.15585353E+00 0.22355774E+02</pdfrwt>
<pdfrwt beam="2">  1       21 0.94956184E-02 0.22355774E+02</pdfrwt>
<totfact> 0.29629730E+04</totfact>
</mgrwt>
</event>
<event>
 4    1  0.4594485E+006  0.2203436E+02  0.7546771E-02  0.1707658E+00
         21   -1    0    0  503  501  0.00000000000E+00  0.00000000000E+00  0.21603132473E+02  0.21603132473E+02  0.00000000000E+00 0.  1.
         21   -1    0    0  504  502 -0.00000000000E+00 -0.00000000000E+00 -0.46439601172E+02  0.46439601172E+02  0.00000000000E+00 0.  1.
         21    1    1    2  503  502 -0.16914830452E+02 -0.14120959739E+02 -0.36858162325E+02  0.42942253354E+02  0.00000000000E+00 0.  1.
         21    1    1    2  504  501  0.16914830452E+02  0.14120959739E+02  0.12021693627E+02  0.25100480290E+02  0.00000000000E+00 0.  1.
<mgrwt>
<rscale>  2 0.22034359E+02</rscale>
<asrwt>0</asrwt>
<pdfrwt beam="1">  1       21 0.33235589E-02 0.22034359E+02</pdfrwt>
<pdfrwt beam="2">  1       21 0.71445540E-02 0.22034359E+02</pdfrwt>
<totfact> 0.54441321E+07</totfact>
</mgrwt>
</event>
<event>
 4    1  0.4594485E+006  0.2297569E+02  0.7546771E-02  0.1691904E+00
         21   -1    0    0  503  501  0.00000000000E+00  0.00000000000E+00  0.12572727989E+02  0.12572727989E+02  0.00000000000E+00 0.  1.
         21   -1    0    0  501  502 -0.00000000000E+00 -0.00000000000E+00 -0.20156625424E+03  0.20156625424E+03  0.00000000000E+00 0.  1.
         21    1    1    2  503  504  0.22926875036E+02 -0.14969072470E+01  0.77100564469E+00  0.22988622837E+02  0.00000000000E+00 0.  1.
         21    1    1    2  504  502 -0.22926875036E+02  0.14969072470E+01 -0.18976453189E+03  0.19115035939E+03  0.00000000000E+00 0.  1.
<mgrwt>
<rscale>  2 0.22975690E+02</rscale>
<asrwt>0</asrwt>
<pdfrwt beam="1">  1       21 0.19342660E-02 0.22975690E+02</pdfrwt>
<pdfrwt beam="2">  1       21 0.31010190E-01 0.22975690E+02</pdfrwt>
<totfact> 0.10356288E+07</totfact>
</mgrwt>
</event>
<event>
 4    1  0.4594485E+006  0.3050424E+02  0.7546771E-02  0.1592581E+00
         21   -1    0    0  504  501  0.00000000000E+00  0.00000000000E+00  0.22490081294E+03  0.22490081294E+03  0.00000000000E+00 0. -1.
         21   -1    0    0  503  502 -0.00000000000E+00 -0.00000000000E+00 -0.42296162830E+01  0.42296162830E+01  0.00000000000E+00 0.  1.
         21    1    1    2  503  501  0.96536602730E+01  0.28936406003E+02  0.93420953057E+02  0.98275038637E+02  0.00000000000E+00 0.  1.
         21    1    1    2  504  502 -0.96536602730E+01 -0.28936406003E+02  0.12725024360E+03  0.13085539058E+03  0.00000000000E+00 0. -1.
<mgrwt>
<rscale>  2 0.30504241E+02</rscale>
<asrwt>0</asrwt>
<pdfrwt beam="1">  1       21 0.34600116E-01 0.30504241E+02</pdfrwt>
<pdfrwt beam="2">  1       21 0.65071037E-03 0.30504241E+02</pdfrwt>
<totfact> 0.46564821E+07</totfact>
</mgrwt>
</event>
<event>
 4    1  0.4594485E+006  0.2820948E+02  0.7546771E-02  0.1618768E+00
         21   -1    0    0  502  501  0.00000000000E+00  0.00000000000E+00  0.67472184861E+01  0.67472184861E+01  0.00000000000E+00 0.  1.
         21   -1    0    0  504  502 -0.00000000000E+00 -0.00000000000E+00 -0.35657910599E+03  0.35657910599E+03  0.00000000000E+00 0.  1.
         21    1    1    2  503  501 -0.23205649701E+02 -0.16039725198E+02 -0.26302311203E+02  0.38569243408E+02  0.00000000000E+00 0.  1.
         21    1    1    2  504  503  0.23205649701E+02  0.16039725198E+02 -0.32352957630E+03  0.32475708107E+03  0.00000000000E+00 0.  1.
<mgrwt>
<rscale>  2 0.28209484E+02</rscale>
<asrwt>0</asrwt>
<pdfrwt beam="1">  1       21 0.10380335E-02 0.28209484E+02</pdfrwt>
<pdfrwt beam="2">  1       21 0.54858328E-01 0.28209484E+02</pdfrwt>
<totfact> 0.93490578E+06</totfact>
</mgrwt>
</event>
<event>
 4    1  0.4594485E+006  0.3206747E+02  0.7546771E-02  0.1576299E+00
         21   -1    0    0  503  501  0.00000000000E+00  0.00000000000E+00  0.10161927645E+03  0.10161927645E+03  0.00000000000E+00 0. -1.
         21   -1    0    0  501  502 -0.00000000000E+00 -0.00000000000E+00 -0.24665002014E+02  0.24665002014E+02  0.00000000000E+00 0. -1.
         21    1    1    2  503  504 -0.92944217046E+01 -0.30690978011E+02  0.86966347128E+02  0.92690171749E+02  0.00000000000E+00 0. -1.
         21    1    1    2  504  502  0.92944217046E+01  0.30690978011E+02 -0.10012072695E+02  0.33594106712E+02  0.00000000000E+00 0. -1.
<mgrwt>
<rscale>  2 0.32067466E+02</rscale>
<asrwt>0</asrwt>
<pdfrwt beam="1">  1       21 0.15633735E-01 0.32067466E+02</pdfrwt>
<pdfrwt beam="2">  1       21 0.37946157E-02 0.32067466E+02</pdfrwt>
<totfact> 0.12930346E+07</totfact>
</mgrwt>
</event>
<event>
 4    1  0.4594485E+006  0.2081370E+02  0.7546771E-02  0.1729615E+00
         21   -1    0    0  504  501  0.00000000000E+00  0.00000000000E+00  0.11685119974E+02  0.11685119974E+02  0.00000000000E+00 0.  1.
         21   -1    0    0  503  502 -0.00000000000E+00 -0.00000000000E+00 -0.80702578522E+02  0.80702578522E+02  0.00000000000E+00 0.  1.
         21    1    1    2  503  501  0.12466179304E+02  0.16667470120E+02 -0.68473419803E+02  0.71566887638E+02  0.00000000000E+00 0.  1.
         21    1    1    2  504  502 -0.12466179304E+02 -0.16667470120E+02 -0.54403874463E+00  0.20820810858E+02  0.00000000000E+00 0.  1.
<mgrwt>
<rscale>  2 0.20813702E+02</rscale>
<asrwt>0</asrwt>
<pdfrwt beam="1">  1       21 0.17977108E-02 0.20813702E+02</pdfrwt>
<pdfrwt beam="2">  1       21 0.12415781E-01 0.20813702E+02</pdfrwt>
<totfact> 0.55749732E+07</totfact>
</mgrwt>
</event>
<event>
 4    1  0.4594485E+006  0.4959385E+02  0.7546771E-02  0.1447545E+00
         21   -1    0    0  503  501  0.00000000000E+00  0.00000000000E+00  0.10362465436E+03  0.10362465436E+03  0.00000000000E+00 0. -1.
         21   -1    0    0  501  502 -0.00000000000E+00 -0.00000000000E+00 -0.63654462030E+02  0.63654462030E+02  0.00000000000E+00 0. -1.
         21    1    1    2  503  504  0.34043134062E+02  0.36064035738E+02  0.86220269006E+02  0.99465996390E+02  0.00000000000E+00 0. -1.
         21    1    1    2  504  502 -0.34043134062E+02 -0.36064035738E+02 -0.46250076681E+02  0.67813119995E+02  0.00000000000E+00 0. -1.
<mgrwt>
<rscale>  2 0.49593847E+02</rscale>
<asrwt>0</asrwt>
<pdfrwt beam="1">  1       21 0.15942254E-01 0.49593847E+02</pdfrwt>
<pdfrwt beam="2">  1       21 0.97929942E-02 0.49593847E+02</pdfrwt>
<totfact> 0.27754507E+06</totfact>
</mgrwt>
</event>
<event>
 4    1  0.4594485E+006  0.2617588E+02  0.7546771E-02  0.1644665E+00
         21   -1    0    0  504  501  0.00000000000E+00  0.00000000000E+00  0.65657164121E+03  0.65657164121E+03  0.00000000000E+00 0.  1.
         21   -1    0    0  501  502 -0.00000000000E+00 -0.00000000000E+00 -0.47542279093E+01  0.47542279093E+01  0.00000000000E+00 0. -1.
         21    1    1    2  503  502  0.95328488226E+01  0.24378303307E+02  0.33782097489E+02  0.42736483121E+02  0.00000000000E+00 0. -1.
         21    1    1    2  504  503 -0.95328488226E+01 -0.24378303307E+02  0.61803531582E+03  0.61858938600E+03  0.00000000000E+00 0.  1.
<mgrwt>
<rscale>  2 0.26175884E+02</rscale>
<asrwt>0</asrwt>
<pdfrwt beam="1">  1       21 0.10101095E+00 0.26175884E+02</pdfrwt>
<pdfrwt beam="2">  1       21 0.73142020E-03 0.26175884E+02</pdfrwt>
<totfact> 0.43755998E+06</totfact>
</mgrwt>
</event>
<event>
 4    1  0.4594485E+006  0.5631384E+02  0.7546771E-02  0.1413986E+00
         21   -1    0    0  504  501  0.00000000000E+00  0.00000000000E+00  0.12711163441E+02  0.12711163441E+02  0.00000000000E+00 0. -1.
         21   -1    0    0  503  502 -0.00000000000E+00 -0.00000000000E+00 -0.11401348927E+04  0.11401348927E+04  0.00000000000E+00 0.  1.
         21    1    1    2  503  501  0.44220361330E+02 -0.34868448400E+02 -0.10731795337E+04  0.10746560197E+04  0.00000000000E+00 0.  1.
         21    1    1    2  504  502 -0.44220361330E+02  0.34868448400E+02 -0.54244195513E+02  0.78190036430E+02  0.00000000000E+00 0. -1.
<mgrwt>
<rscale>  2 0.56313844E+02</rscale>
<asrwt>0</asrwt>
<pdfrwt beam="1">  1       21 0.19555630E-02 0.56313844E+02</pdfrwt>
<pdfrwt beam="2">  1       21 0.17540542E+00 0.56313844E+02</pdfrwt>
<totfact> 0.26711094E+05</totfact>
</mgrwt>
</event>
<event>
 4    1  0.4594485E+006  0.3395679E+02  0.7546771E-02  0.1558065E+00
         21   -1    0    0  502  501  0.00000000000E+00  0.00000000000E+00  0.68684525929E+02  0.68684525929E+02  0.00000000000E+00 0.  1.
         21   -1    0    0  504  502 -0.00000000000E+00 -0.00000000000E+00 -0.52093148766E+02  0.52093148766E+02  0.00000000000E+00 0.  1.
         21    1    1    2  503  501 -0.17757806993E+02  0.28943460794E+02  0.58010578053E+02  0.67218232630E+02  0.00000000000E+00 0.  1.
         21    1    1    2  504  503  0.17757806993E+02 -0.28943460794E+02 -0.41419200890E+02  0.53559442065E+02  0.00000000000E+00 0.  1.
<mgrwt>
<rscale>  2 0.33956791E+02</rscale>
<asrwt>0</asrwt>
<pdfrwt beam="1">  1       21 0.10566850E-01 0.33956791E+02</pdfrwt>
<pdfrwt beam="2">  1       21 0.80143305E-02 0.33956791E+02</pdfrwt>
<totfact> 0.75709328E+06</totfact>
</mgrwt>
</event>
<event>
 4    1  0.4594485E+006  0.2286818E+02  0.7546771E-02  0.1693656E+00
         21   -1    0    0  504  501  0.00000000000E+00  0.00000000000E+00  0.53502704438E+02  0.53502704438E+02  0.00000000000E+00 0. -1.
         21   -1    0    0  503  502 -0.00000000000E+00 -0.00000000000E+00 -0.15024694386E+02  0.15024694386E+02  0.00000000000E+00 0. -1.
         21    1    1    2  503  501  0.10716042507E+02 -0.20201979511E+02  0.39493704308E+02  0.45636676293E+02  0.00000000000E+00 0. -1.
         21    1    1    2  504  502 -0.10716042507E+02  0.20201979511E+02 -0.10156942556E+01  0.22890722531E+02  0.00000000000E+00 0. -1.
<mgrwt>
<rscale>  2 0.22868178E+02</rscale>
<asrwt>0</asrwt>
<pdfrwt beam="1">  1       21 0.82311852E-02 0.22868178E+02</pdfrwt>
<pdfrwt beam="2">  1       21 0.23114915E-02 0.22868178E+02</pdfrwt>
<totfact> 0.76729062E+07</totfact>
</mgrwt>
</event>
<event>
 4    1  0.4594485E+006  0.2973509E+02  0.7546771E-02  0.1601035E+00
         21   -1    0    0  504  501  0.00000000000E+00  0.00000000000E+00  0.21635279317E+03  0.21635279317E+03  0.00000000000E+00 0.  1.
         21   -1    0    0  503  502 -0.00000000000E+00 -0.00000000000E+00 -0.72649821820E+02  0.72649821820E+02  0.00000000000E+00 0.  1.
         21    1    1    2  503  501  0.29544381625E+02 -0.33623056249E+01 -0.68526722567E+02  0.74699981864E+02  0.00000000000E+00 0.  1.
         21    1    1    2  504  502 -0.29544381625E+02  0.33623056249E+01  0.21222969392E+03  0.21430263312E+03  0.00000000000E+00 0.  1.
<mgrwt>
<rscale>  2 0.29735090E+02</rscale>
<asrwt>0</asrwt>
<pdfrwt beam="1">  1       21 0.33285045E-01 0.29735090E+02</pdfrwt>
<pdfrwt beam="2">  1       21 0.11176896E-01 0.29735090E+02</pdfrwt>
<totfact> 0.56747109E+05</totfact>
</mgrwt>
</event>
<event>
 4    1  0.4594485E+006  0.2128832E+02  0.7546771E-02  0.1720859E+00
         21   -1    0    0  504  501  0.00000000000E+00  0.00000000000E+00  0.12699639543E+04  0.12699639543E+04  0.00000000000E+00 0.  1.
         21   -1    0    0  501  502 -0.00000000000E+00 -0.00000000000E+00 -0.56533430517E+00  0.56533430517E+00  0.00000000000E+00 0.  1.
         21    1    1    2  503  502  0.39510405701E+01  0.20918458486E+02  0.24892457103E+03  0.24983321375E+03  0.00000000000E+00 0.  1.
         21    1    1    2  504  503 -0.39510405701E+01 -0.20918458486E+02  0.10204740490E+04  0.10206960749E+04  0.00000000000E+00 0.  1.
<mgrwt>
<rscale>  2 0.21288321E+02</rscale>
<asrwt>0</asrwt>
<pdfrwt beam="1">  1       21 0.19537679E+00 0.21288321E+02</pdfrwt>
<pdfrwt beam="2">  1       21 0.86975525E-04 0.21288321E+02</pdfrwt>
<totfact> 0.19899715E+07</totfact>
</mgrwt>
</event>
<event>
 4    1  0.4594485E+006  0.2610058E+02  0.7546771E-02  0.1645679E+00
         21   -1    0    0  504  501  0.00000000000E+00  0.00000000000E+00  0.34064854180E+02  0.34064854180E+02  0.00000000000E+00 0. -1.
         21   -1    0    0  501  502 -0.00000000000E+00 -0.00000000000E+00 -0.86276113224E+02  0.86276113224E+02  0.00000000000E+00 0.  1.
         21    1    1    2  503  502 -0.19877107593E+02  0.16915699123E+02 -0.78843452191E+02  0.83051371069E+02  0.00000000000E+00 0.  1.
         21    1    1    2  504  503  0.19877107593E+02 -0.16915699123E+02  0.26632193146E+02  0.37289596335E+02  0.00000000000E+00 0. -1.
<mgrwt>
<rscale>  2 0.26100580E+02</rscale>
<asrwt>0</asrwt>
<pdfrwt beam="1">  1       21 0.52407468E-02 0.26100580E+02</pdfrwt>
<pdfrwt beam="2">  1       21 0.13273248E-01 0.26100580E+02</pdfrwt>
<totfact> 0.98669039E+06</totfact>
</mgrwt>
</event>
<event>
 4    1  0.4594485E+006  0.3813417E+02  0.7546771E-02  0.1522409E+00
         21   -1    0    0  502  501  0.00000000000E+00  0.00000000000E+00  0.80127735384E+02  0.80127735384E+02  0.00000000000E+00 0.  1.
         21   -1    0    0  504  502 -0.00000000000E+00 -0.00000000000E+00 -0.25207740724E+02  0.25207740724E+02  0.00000000000E+00 0.  1.
         21    1    1    2  503  501  0.18169729182E+02  0.33527241083E+02  0.55330851041E+02  0.67199092480E+02  0.00000000000E+00 0.  1.
         21    1    1    2  504  503 -0.18169729182E+02 -0.33527241083E+02 -0.41085638066E+00  0.38136383628E+02  0.00000000000E+00 0.  1.
<mgrwt>
<rscale>  2 0.38134170E+02</rscale>
<asrwt>0</asrwt>
<pdfrwt beam="1">  1       21 0.12327344E-01 0.38134170E+02</pdfrwt>
<pdfrwt beam="2">  1       21 0.38781140E-02 0.38134170E+02</pdfrwt>
<totfact> 0.19338049E+07</totfact>
</mgrwt>
</event>
<event>
 4    1  0.4594485E+006  0.2311487E+02  0.7546771E-02  0.1689655E+00
         21   -1    0    0  502  501  0.00000000000E+00  0.00000000000E+00  0.15083159988E+03  0.15083159988E+03  0.00000000000E+00 0. -1.
         21   -1    0    0  503  502 -0.00000000000E+00 -0.00000000000E+00 -0.11159694057E+02  0.11159694057E+02  0.00000000000E+00 0. -1.
         21    1    1    2  503  504  0.13125263237E+02  0.19026941406E+02  0.29187833412E+01  0.23298419055E+02  0.00000000000E+00 0. -1.
         21    1    1    2  504  501 -0.13125263237E+02 -0.19026941406E+02  0.13675312249E+03  0.13869287489E+03  0.00000000000E+00 0. -1.
<mgrwt>
<rscale>  2 0.23114866E+02</rscale>
<asrwt>0</asrwt>
<pdfrwt beam="1">  1       21 0.23204860E-01 0.23114866E+02</pdfrwt>
<pdfrwt beam="2">  1       21 0.17168761E-02 0.23114866E+02</pdfrwt>
<totfact> 0.20951868E+07</totfact>
</mgrwt>
</event>
<event>
 4    1  0.4594485E+006  0.2031876E+02  0.7546771E-02  0.1739062E+00
         21   -1    0    0  504  501  0.00000000000E+00  0.00000000000E+00  0.77703101607E+02  0.77703101607E+02  0.00000000000E+00 0. -1.
         21   -1    0    0  503  502 -0.00000000000E+00 -0.00000000000E+00 -0.13128235459E+02  0.13128235459E+02  0.00000000000E+00 0.  1.
         21    1    1    2  503  501 -0.17189223127E+02  0.10834330790E+02 -0.27528826609E+01  0.20504401437E+02  0.00000000000E+00 0.  1.
         21    1    1    2  504  502  0.17189223127E+02 -0.10834330790E+02  0.67327748809E+02  0.70326935629E+02  0.00000000000E+00 0. -1.
<mgrwt>
<rscale>  2 0.20318763E+02</rscale>
<asrwt>0</asrwt>
<pdfrwt beam="1">  1       21 0.11954323E-01 0.20318763E+02</pdfrwt>
<pdfrwt beam="2">  1       21 0.20197286E-02 0.20318763E+02</pdfrwt>
<totfact> 0.49404937E+07</totfact>
</mgrwt>
</event>
<event>
 4    1  0.4594485E+006  0.2010106E+02  0.7546771E-02  0.1743326E+00
         21   -1    0    0  503  501  0.00000000000E+00  0.00000000000E+00  0.75001214804E+02  0.75001214804E+02  0.00000000000E+00 0. -1.
         21   -1    0    0  504  502 -0.00000000000E+00 -0.00000000000E+00 -0.90605850550E+01  0.90605850550E+01  0.00000000000E+00 0. -1.
         21    1    1    2  503  502 -0.11463198947E+02  0.16512045315E+02  0.59732344412E+02  0.63023848974E+02  0.00000000000E+00 0. -1.
         21    1    1    2  504  501  0.11463198947E+02 -0.16512045315E+02  0.62082853369E+01  0.21037950885E+02  0.00000000000E+00 0. -1.
<mgrwt>
<rscale>  2 0.20101059E+02</rscale>
<asrwt>0</asrwt>
<pdfrwt beam="1">  1       21 0.11538648E-01 0.20101059E+02</pdfrwt>
<pdfrwt beam="2">  1       21 0.13939362E-02 0.20101059E+02</pdfrwt>
<totfact> 0.91721952E+07</totfact>
</mgrwt>
</event>
<event>
 4    1  0.4594485E+006  0.3195520E+02  0.7546771E-02  0.1577430E+00
         21   -1    0    0  504  501  0.00000000000E+00  0.00000000000E+00  0.27828444458E+03  0.27828444458E+03  0.00000000000E+00 0.  1.
         21   -1    0    0  503  502 -0.00000000000E+00 -0.00000000000E+00 -0.12808579575E+03  0.12808579575E+03  0.00000000000E+00 0. -1.
         21    1    1    2  503  501  0.29287389995E+01 -0.31820702417E+02  0.27535288067E+03  0.27720090820E+03  0.00000000000E+00 0.  1.
         21    1    1    2  504  502 -0.29287389995E+01  0.31820702417E+02 -0.12515423184E+03  0.12916933213E+03  0.00000000000E+00 0. -1.
<mgrwt>
<rscale>  2 0.31955197E+02</rscale>
<asrwt>0</asrwt>
<pdfrwt beam="1">  1       21 0.42812991E-01 0.31955197E+02</pdfrwt>
<pdfrwt beam="2">  1       21 0.19705507E-01 0.31955197E+02</pdfrwt>
<totfact> 0.13285203E+05</totfact>
</mgrwt>
</event>
<event>
 4    1  0.4594485E+006  0.2421548E+02  0.7546771E-02  0.1672533E+00
         21   -1    0    0  504  501  0.00000000000E+00  0.00000000000E+00  0.10896138303E+02  0.10896138303E+02  0.00000000000E+00 0.  1.
         21   -1    0    0  501  502 -0.00000000000E+00 -0.00000000000E+00 -0.53944882835E+02  0.53944882835E+02  0.00000000000E+00 0.  1.
         21    1    1    2  503  502 -0.20498526213E+02  0.12891855975E+02 -0.23107390325E+02  0.33471495560E+02  0.00000000000E+00 0.  1.
         21    1    1    2  504  503  0.20498526213E+02 -0.12891855975E+02 -0.19941354207E+02  0.31369525578E+02  0.00000000000E+00 0.  1.
<mgrwt>
<rscale>  2 0.24215481E+02</rscale>
<asrwt>0</asrwt>
<pdfrwt beam="1">  1       21 0.16763289E-02 0.24215481E+02</pdfrwt>
<pdfrwt beam="2">  1       21 0.82992129E-02 0.24215481E+02</pdfrwt>
<totfact> 0.12599532E+08</totfact>
</mgrwt>
</event>
<event>
 4    1  0.4594485E+006  0.2038852E+02  0.7546771E-02  0.1737710E+00
         21   -1    0    0  504  501  0.00000000000E+00  0.00000000000E+00  0.13048248061E+01  0.13048248061E+01  0.00000000000E+00 0. -1.
         21   -1    0    0  503  502 -0.00000000000E+00 -0.00000000000E+00 -0.34303304740E+03  0.34303304740E+03  0.00000000000E+00 0. -1.
         21    1    1    2  503  501  0.20235686601E+02  0.24917235485E+01 -0.12489679526E+03  0.12654999472E+03  0.00000000000E+00 0. -1.
         21    1    1    2  504  502 -0.20235686601E+02 -0.24917235485E+01 -0.21683142734E+03  0.21778787749E+03  0.00000000000E+00 0. -1.
<mgrwt>
<rscale>  2 0.20388519E+02</rscale>
<asrwt>0</asrwt>
<pdfrwt beam="1">  1       21 0.20074207E-03 0.20388519E+02</pdfrwt>
<pdfrwt beam="2">  1       21 0.52774371E-01 0.20388519E+02</pdfrwt>
<totfact> 0.10616387E+08</totfact>
</mgrwt>
</event>
<event>
 4    1  0.4594485E+006  0.2180976E+02  0.7546771E-02  0.1711563E+00
         21   -1    0    0  503  501  0.00000000000E+00  0.00000000000E+00  0.17710781712E+03  0.17710781712E+03  0.00000000000E+00 0. -1.
         21   -1    0    0  501  502 -0.00000000000E+00 -0.00000000000E+00 -0.13214217864E+02  0.13214217864E+02  0.00000000000E+00 0. -1.
         21    1    1    2  503  504 -0.21181832090E+02 -0.51957291556E+01  0.16688853558E+03  0.16830760209E+03  0.00000000000E+00 0. -1.
         21    1    1    2  504  502  0.21181832090E+02  0.51957291556E+01 -0.29949363255E+01  0.22014432896E+02  0.00000000000E+00 0. -1.
<mgrwt>
<rscale>  2 0.21809760E+02</rscale>
<asrwt>0</asrwt>
<pdfrwt beam="1">  1       21 0.27247355E-01 0.21809760E+02</pdfrwt>
<pdfrwt beam="2">  1       21 0.20329567E-02 0.21809760E+02</pdfrwt>
<totfact> 0.12006562E+07</totfact>
</mgrwt>
</event>
<event>
 4    1  0.4594485E+006  0.3109113E+02  0.7546771E-02  0.1586332E+00
         21   -1    0    0  503  501  0.00000000000E+00  0.00000000000E+00  0.17119505611E+03  0.17119505611E+03  0.00000000000E+00 0.  1.
         21   -1    0    0  504  502 -0.00000000000E+00 -0.00000000000E+00 -0.88481536059E+01  0.88481536059E+01  0.00000000000E+00 0.  1.
         21    1    1    2  503  502  0.43395931309E+01  0.30786790234E+02  0.13532431177E+03  0.13885001936E+03  0.00000000000E+00 0.  1.
         21    1    1    2  504  501 -0.43395931309E+01 -0.30786790234E+02  0.27022590737E+02  0.41193190355E+02  0.00000000000E+00 0.  1.
<mgrwt>
<rscale>  2 0.31091133E+02</rscale>
<asrwt>0</asrwt>
<pdfrwt beam="1">  1       21 0.26337698E-01 0.31091133E+02</pdfrwt>
<pdfrwt beam="2">  1       21 0.13612545E-02 0.31091133E+02</pdfrwt>
<totfact> 0.25267021E+07</totfact>
</mgrwt>
</event>
<event>
 4    1  0.4594485E+006  0.2318603E+02  0.7546771E-02  0.1688512E+00
         21   -1    0    0  504  501  0.00000000000E+00  0.00000000000E+00  0.75732996539E+02  0.75732996539E+02  0.00000000000E+00 0. -1.
         21   -1    0    0  501  502 -0.00000000000E+00 -0.00000000000E+00 -0.68956088431E+03  0.68956088431E+03  0.00000000000E+00 0.  1.
         21    1    1    2  503  502 -0.14775854467E+02 -0.17868021118E+02 -0.68758625602E+03  0.68797707194E+03  0.00000000000E+00 0.  1.
         21    1    1    2  504  503  0.14775854467E+02  0.17868021118E+02  0.73758368244E+02  0.77316808909E+02  0.00000000000E+00 0. -1.
<mgrwt>
<rscale>  2 0.23186031E+02</rscale>
<asrwt>0</asrwt>
<pdfrwt beam="1">  1       21 0.11651230E-01 0.23186031E+02</pdfrwt>
<pdfrwt beam="2">  1       21 0.10608629E+00 0.23186031E+02</pdfrwt>
<totfact> 0.50935760E+04</totfact>
</mgrwt>
</event>
<event>
 4    1  0.4594485E+006  0.3192571E+02  0.7546771E-02  0.1577728E+00
         21   -1    0    0  504  501  0.00000000000E+00  0.00000000000E+00  0.17599507201E+03  0.17599507201E+03  0.00000000000E+00 0. -1.
         21   -1    0    0  501  502 -0.00000000000E+00 -0.00000000000E+00 -0.21674224008E+03  0.21674224008E+03  0.00000000000E+00 0.  1.
         21    1    1    2  503  502 -0.31299946282E+02 -0.62900398791E+01 -0.21410098737E+03  0.21646820559E+03  0.00000000000E+00 0.  1.
         21    1    1    2  504  503  0.31299946282E+02  0.62900398791E+01  0.17335381930E+03  0.17626910650E+03  0.00000000000E+00 0. -1.
<mgrwt>
<rscale>  2 0.31925714E+02</rscale>
<asrwt>0</asrwt>
<pdfrwt beam="1">  1       21 0.27076165E-01 0.31925714E+02</pdfrwt>
<pdfrwt beam="2">  1       21 0.33344960E-01 0.31925714E+02</pdfrwt>
<totfact> 0.12070497E+05</totfact>
</mgrwt>
</event>
<event>
 4    1  0.4594485E+006  0.2558555E+02  0.7546771E-02  0.1652731E+00
         21   -1    0    0  503  501  0.00000000000E+00  0.00000000000E+00  0.11407715134E+02  0.11407715134E+02  0.00000000000E+00 0. -1.
         21   -1    0    0  504  502 -0.00000000000E+00 -0.00000000000E+00 -0.57615191067E+02  0.57615191067E+02  0.00000000000E+00 0. -1.
         21    1    1    2  503  502  0.14151842933E+02  0.21315380793E+02 -0.25289975925E+02  0.35975032996E+02  0.00000000000E+00 0. -1.
         21    1    1    2  504  501 -0.14151842933E+02 -0.21315380793E+02 -0.20917500008E+02  0.33047873204E+02  0.00000000000E+00 0. -1.
<mgrwt>
<rscale>  2 0.25585545E+02</rscale>
<asrwt>0</asrwt>
<pdfrwt beam="1">  1       21 0.17550331E-02 0.25585545E+02</pdfrwt>
<pdfrwt beam="2">  1       21 0.88638754E-02 0.25585545E+02</pdfrwt>
<totfact> 0.10699812E+08</totfact>
</mgrwt>
</event>
<event>
 4    1  0.4594485E+006  0.2558341E+02  0.7546771E-02  0.1652761E+00
         21   -1    0    0  502  501  0.00000000000E+00  0.00000000000E+00  0.14435108132E+03  0.14435108132E+03  0.00000000000E+00 0. -1.
         21   -1    0    0  504  502 -0.00000000000E+00 -0.00000000000E+00 -0.15847145593E+03  0.15847145593E+03  0.00000000000E+00 0. -1.
         21    1    1    2  503  501 -0.22488116029E+02  0.12198178102E+02  0.14216928419E+03  0.14445281679E+03  0.00000000000E+00 0. -1.
         21    1    1    2  504  503  0.22488116029E+02 -0.12198178102E+02 -0.15628965880E+03  0.15836972046E+03  0.00000000000E+00 0. -1.
<mgrwt>
<rscale>  2 0.25583411E+02</rscale>
<asrwt>0</asrwt>
<pdfrwt beam="1">  1       21 0.22207859E-01 0.25583411E+02</pdfrwt>
<pdfrwt beam="2">  1       21 0.24380224E-01 0.25583411E+02</pdfrwt>
<totfact> 0.30435661E+05</totfact>
</mgrwt>
</event>
<event>
 4    1  0.4594485E+006  0.2597973E+02  0.7546771E-02  0.1647316E+00
         21   -1    0    0  503  501  0.00000000000E+00  0.00000000000E+00  0.19176447721E+04  0.19176447721E+04  0.00000000000E+00 0. -1.
         21   -1    0    0  504  502 -0.00000000000E+00 -0.00000000000E+00 -0.42578652623E+00  0.42578652623E+00  0.00000000000E+00 0. -1.
         21    1    1    2  503  502 -0.23723193493E+02  0.10590400193E+02  0.13579341074E+04  0.13581826043E+04  0.00000000000E+00 0. -1.
         21    1    1    2  504  501  0.23723193493E+02 -0.10590400193E+02  0.55928487809E+03  0.55988795428E+03  0.00000000000E+00 0. -1.
<mgrwt>
<rscale>  2 0.25979732E+02</rscale>
<asrwt>0</asrwt>
<pdfrwt beam="1">  1       21 0.29501536E+00 0.25979732E+02</pdfrwt>
<pdfrwt beam="2">  1       21 0.65507155E-04 0.25979732E+02</pdfrwt>
<totfact> 0.93951921E+06</totfact>
</mgrwt>
</event>
<event>
 4    1  0.4594485E+006  0.2447457E+02  0.7546771E-02  0.1668666E+00
         21   -1    0    0  504  501  0.00000000000E+00  0.00000000000E+00  0.23174333370E+01  0.23174333370E+01  0.00000000000E+00 0.  1.
         21   -1    0    0  501  502 -0.00000000000E+00 -0.00000000000E+00 -0.26468133444E+03  0.26468133444E+03  0.00000000000E+00 0.  1.
         21    1    1    2  503  502  0.12963933274E+02  0.20759114989E+02 -0.15162035615E+03  0.15358299652E+03  0.00000000000E+00 0.  1.
         21    1    1    2  504  503 -0.12963933274E+02 -0.20759114989E+02 -0.11074354495E+03  0.11341577125E+03  0.00000000000E+00 0.  1.
<mgrwt>
<rscale>  2 0.24474567E+02</rscale>
<asrwt>0</asrwt>
<pdfrwt beam="1">  1       21 0.35652844E-03 0.24474567E+02</pdfrwt>
<pdfrwt beam="2">  1       21 0.40720179E-01 0.24474567E+02</pdfrwt>
<totfact> 0.79575218E+07</totfact>
</mgrwt>
</event>
<event>
 4    1  0.4594485E+006  0.2027725E+02  0.7546771E-02  0.1739870E+00
         21   -1    0    0  504  501  0.00000000000E+00  0.00000000000E+00  0.20349897834E+03  0.20349897834E+03  0.00000000000E+00 0.  1.
         21   -1    0    0  503  502 -0.00000000000E+00 -0.00000000000E+00 -0.57061959181E+01  0.57061959181E+01  0.00000000000E+00 0.  1.
         21    1    1    2  503  501 -0.20236833462E+02 -0.12796756793E+01  0.14828604151E+02  0.25120798146E+02  0.00000000000E+00 0.  1.
         21    1    1    2  504  502  0.20236833462E+02  0.12796756793E+01  0.18296417827E+03  0.18408437611E+03  0.00000000000E+00 0.  1.
<mgrwt>
<rscale>  2 0.20277253E+02</rscale>
<asrwt>0</asrwt>
<pdfrwt beam="1">  1       21 0.31307530E-01 0.20277253E+02</pdfrwt>
<pdfrwt beam="2">  1       21 0.87787645E-03 0.20277253E+02</pdfrwt>
<totfact> 0.32677577E+07</totfact>
</mgrwt>
</event>
<event>
 4    1  0.4594485E+006  0.3334329E+02  0.7546771E-02  0.1563825E+00
         21   -1    0    0  503  501  0.00000000000E+00  0.00000000000E+00  0.10465266870E+04  0.10465266870E+04  0.00000000000E+00 0.  1.
         21   -1    0    0  504  502 -0.00000000000E+00 -0.00000000000E+00 -0.12838658776E+01  0.12838658776E+01  0.00000000000E+00 0.  1.
         21    1    1    2  503  502  0.22345664596E+02  0.24747648408E+02  0.30500181674E+03  0.30681897438E+03  0.00000000000E+00 0.  1.
         21    1    1    2  504  501 -0.22345664596E+02 -0.24747648408E+02  0.74024100435E+03  0.74099157846E+03  0.00000000000E+00 0.  1.
<mgrwt>
<rscale>  2 0.33343288E+02</rscale>
<asrwt>0</asrwt>
<pdfrwt beam="1">  1       21 0.16100342E+00 0.33343288E+02</pdfrwt>
<pdfrwt beam="2">  1       21 0.19751866E-03 0.33343288E+02</pdfrwt>
<totfact> 0.10522243E+07</totfact>
</mgrwt>
</event>
<event>
 4    1  0.4594485E+006  0.2304695E+02  0.7546771E-02  0.1690750E+00
         21   -1    0    0  502  501  0.00000000000E+00  0.00000000000E+00  0.92248607795E+02  0.92248607795E+02  0.00000000000E+00 0.  1.
         21   -1    0    0  503  502 -0.00000000000E+00 -0.00000000000E+00 -0.15125413724E+02  0.15125413724E+02  0.00000000000E+00 0. -1.
         21    1    1    2  503  504  0.21726901704E+02  0.76878893401E+01 -0.36884158933E+01  0.23340229476E+02  0.00000000000E+00 0. -1.
         21    1    1    2  504  501 -0.21726901704E+02 -0.76878893401E+01  0.80811609965E+02  0.84033792044E+02  0.00000000000E+00 0.  1.
<mgrwt>
<rscale>  2 0.23046950E+02</rscale>
<asrwt>0</asrwt>
<pdfrwt beam="1">  1       21 0.14192093E-01 0.23046950E+02</pdfrwt>
<pdfrwt beam="2">  1       21 0.23269868E-02 0.23046950E+02</pdfrwt>
<totfact> 0.30751881E+07</totfact>
</mgrwt>
</event>
<event>
 4    1  0.4594485E+006  0.2189931E+02  0.7546771E-02  0.1709999E+00
         21   -1    0    0  503  501  0.00000000000E+00  0.00000000000E+00  0.35741007219E+03  0.35741007219E+03  0.00000000000E+00 0. -1.
         21   -1    0    0  504  502 -0.00000000000E+00 -0.00000000000E+00 -0.13783729360E+01  0.13783729360E+01  0.00000000000E+00 0. -1.
         21    1    1    2  503  502 -0.19017743382E+02  0.10858424865E+02  0.14880214042E+03  0.15040497647E+03  0.00000000000E+00 0. -1.
         21    1    1    2  504  501  0.19017743382E+02 -0.10858424865E+02  0.20722955883E+03  0.20838346866E+03  0.00000000000E+00 0. -1.
<mgrwt>
<rscale>  2 0.21899314E+02</rscale>
<asrwt>0</asrwt>
<pdfrwt beam="1">  1       21 0.54986091E-01 0.21899314E+02</pdfrwt>
<pdfrwt beam="2">  1       21 0.21205766E-03 0.21899314E+02</pdfrwt>
<totfact> 0.92260123E+07</totfact>
</mgrwt>
</event>
<event>
 4    1  0.4594485E+006  0.2511776E+02  0.7546771E-02  0.1659316E+00
         21   -1    0    0  503  501  0.00000000000E+00  0.00000000000E+00  0.46274934559E+02  0.46274934559E+02  0.00000000000E+00 0. -1.
         21   -1    0    0  504  502 -0.00000000000E+00 -0.00000000000E+00 -0.13838559785E+02  0.13838559785E+02  0.00000000000E+00 0. -1.
         21    1    1    2  503  502  0.22320914393E+02  0.11518625163E+02  0.12561838008E+02  0.28083833768E+02  0.00000000000E+00 0. -1.
         21    1    1    2  504  501 -0.22320914393E+02 -0.11518625163E+02  0.19874536766E+02  0.32029660576E+02  0.00000000000E+00 0. -1.
<mgrwt>
<rscale>  2 0.25117762E+02</rscale>
<asrwt>0</asrwt>
<pdfrwt beam="1">  1       21 0.71192206E-02 0.25117762E+02</pdfrwt>
<pdfrwt beam="2">  1       21 0.21290092E-02 0.25117762E+02</pdfrwt>
<totfact> 0.11326033E+08</totfact>
</mgrwt>
</event>
<event>
 4    1  0.4594485E+006  0.2464789E+02  0.7546771E-02  0.1666111E+00
         21   -1    0    0  503  501  0.00000000000E+00  0.00000000000E+00  0.15039136509E+03  0.15039136509E+03  0.00000000000E+00 0.  1.
         21   -1    0    0  504  502 -0.00000000000E+00 -0.00000000000E+00 -0.46482888590E+01  0.46482888590E+01  0.00000000000E+00 0.  1.
         21    1    1    2  503  502 -0.17517115236E+02  0.17339813630E+02  0.10092392606E+03  0.10389012135E+03  0.00000000000E+00 0.  1.
         21    1    1    2  504  501  0.17517115236E+02 -0.17339813630E+02  0.44819150165E+02  0.51149532592E+02  0.00000000000E+00 0.  1.
<mgrwt>
<rscale>  2 0.24647890E+02</rscale>
<asrwt>0</asrwt>
<pdfrwt beam="1">  1       21 0.23137129E-01 0.24647890E+02</pdfrwt>
<pdfrwt beam="2">  1       21 0.71512148E-03 0.24647890E+02</pdfrwt>
<totfact> 0.80159638E+07</totfact>
</mgrwt>
</event>
<event>
 4    1  0.4594485E+006  0.2565532E+02  0.7546771E-02  0.1651764E+00
         21   -1    0    0  504  501  0.00000000000E+00  0.00000000000E+00  0.44698619130E+03  0.44698619130E+03  0.00000000000E+00 0. -1.
         21   -1    0    0  501  502 -0.00000000000E+00 -0.00000000000E+00 -0.30958471928E+02  0.30958471928E+02  0.00000000000E+00 0. -1.
         21    1    1    2  503  502 -0.21587931384E+02 -0.13862062674E+02 -0.25205956282E+02  0.35965758648E+02  0.00000000000E+00 0. -1.
         21    1    1    2  504  503  0.21587931384E+02  0.13862062674E+02  0.44123367565E+03  0.44197890458E+03  0.00000000000E+00 0. -1.
<mgrwt>
<rscale>  2 0.25655322E+02</rscale>
<asrwt>0</asrwt>
<pdfrwt beam="1">  1       21 0.68767101E-01 0.25655322E+02</pdfrwt>
<pdfrwt beam="2">  1       21 0.47628422E-02 0.25655322E+02</pdfrwt>
<totfact> 0.55208979E+05</totfact>
</mgrwt>
</event>
<event>
 4    1  0.4594485E+006  0.2014004E+02  0.7546771E-02  0.1742558E+00
         21   -1    0    0  503  501  0.00000000000E+00  0.00000000000E+00  0.13700297806E+03  0.13700297806E+03  0.00000000000E+00 0.  1.
         21   -1    0    0  504  502 -0.00000000000E+00 -0.00000000000E+00 -0.34950958208E+03  0.34950958208E+03  0.00000000000E+00 0.  1.
         21    1    1    2  503  502  0.19383588544E+02 -0.54678701780E+01  0.13597048255E+03  0.13745396769E+03  0.00000000000E+00 0.  1.
         21    1    1    2  504  501 -0.19383588544E+02  0.54678701780E+01 -0.34847708656E+03  0.34905859246E+03  0.00000000000E+00 0.  1.
<mgrwt>
<rscale>  2 0.20140037E+02</rscale>
<asrwt>0</asrwt>
<pdfrwt beam="1">  1       21 0.21077381E-01 0.20140037E+02</pdfrwt>
<pdfrwt beam="2">  1       21 0.53770705E-01 0.20140037E+02</pdfrwt>
<totfact> 0.76178104E+04</totfact>
</mgrwt>
</event>
<event>
 4    1  0.4594485E+006  0.3357891E+02  0.7546771E-02  0.1561595E+00
         21   -1    0    0  503  501  0.00000000000E+00  0.00000000000E+00  0.17018057691E+02  0.17018057691E+02  0.00000000000E+00 0. -1.
         21   -1    0    0  504  502 -0.00000000000E+00 -0.00000000000E+00 -0.73781128633E+02  0.73781128633E+02  0.00000000000E+00 0. -1.
         21    1    1    2  503  502 -0.20418404247E+02 -0.26657683146E+02 -0.13882304363E+02  0.36335405284E+02  0.00000000000E+00 0. -1.
         21    1    1    2  504  501  0.20418404247E+02  0.26657683146E+02 -0.42880766579E+02  0.54463781040E+02  0.00000000000E+00 0. -1.
<mgrwt>
<rscale>  2 0.33578912E+02</rscale>
<asrwt>0</asrwt>
<pdfrwt beam="1">  1       21 0.26181628E-02 0.33578912E+02</pdfrwt>
<pdfrwt beam="2">  1       21 0.11350943E-01 0.33578912E+02</pdfrwt>
<totfact> 0.40552189E+07</totfact>
</mgrwt>
</event>
<event>
 4    1  0.4594485E+006  0.2002262E+02  0.7546771E-02  0.1744879E+00
         21   -1    0    0  502  501  0.00000000000E+00  0.00000000000E+00  0.11719132190E+02  0.11719132190E+02  0.00000000000E+00 0. -1.
         21   -1    0    0  504  502 -0.00000000000E+00 -0.00000000000E+00 -0.16625985380E+03  0.16625985380E+03  0.00000000000E+00 0.  1.
         21    1    1    2  503  501 -0.16902773530E+02 -0.10733203675E+02  0.20372475686E+01  0.20125997908E+02  0.00000000000E+00 0. -1.
         21    1    1    2  504  503  0.16902773530E+02  0.10733203675E+02 -0.15657796918E+03  0.15785298808E+03  0.00000000000E+00 0.  1.
<mgrwt>
<rscale>  2 0.20022623E+02</rscale>
<asrwt>0</asrwt>
<pdfrwt beam="1">  1       21 0.18029435E-02 0.20022623E+02</pdfrwt>
<pdfrwt beam="2">  1       21 0.25578438E-01 0.20022623E+02</pdfrwt>
<totfact> 0.15860069E+07</totfact>
</mgrwt>
</event>
<event>
 4    1  0.4594485E+006  0.2317159E+02  0.7546771E-02  0.1688744E+00
         21   -1    0    0  504  501  0.00000000000E+00  0.00000000000E+00  0.23584462681E+03  0.23584462681E+03  0.00000000000E+00 0.  1.
         21   -1    0    0  503  502 -0.00000000000E+00 -0.00000000000E+00 -0.26791822923E+01  0.26791822923E+01  0.00000000000E+00 0.  1.
         21    1    1    2  503  501  0.21474522644E+01  0.23071866530E+02  0.16281347002E+03  0.16445409268E+03  0.00000000000E+00 0.  1.
         21    1    1    2  504  502 -0.21474522644E+01 -0.23071866530E+02  0.70351974490E+02  0.74069716423E+02  0.00000000000E+00 0.  1.
<mgrwt>
<rscale>  2 0.23171590E+02</rscale>
<asrwt>0</asrwt>
<pdfrwt beam="1">  1       21 0.36283772E-01 0.23171590E+02</pdfrwt>
<pdfrwt beam="2">  1       21 0.41218208E-03 0.23171590E+02</pdfrwt>
<totfact> 0.78772701E+07</totfact>
</mgrwt>
</event>
<event>
 4    1  0.4594485E+006  0.2524113E+02  0.7546771E-02  0.1657562E+00
         21   -1    0    0  502  501  0.00000000000E+00  0.00000000000E+00  0.19011818386E+03  0.19011818386E+03  0.00000000000E+00 0. -1.
         21   -1    0    0  504  502 -0.00000000000E+00 -0.00000000000E+00 -0.46543445435E+03  0.46543445435E+03  0.00000000000E+00 0.  1.
         21    1    1    2  503  501 -0.15842953797E+02 -0.19649817232E+02  0.18893604979E+03  0.19061465162E+03  0.00000000000E+00 0. -1.
         21    1    1    2  504  503  0.15842953797E+02  0.19649817232E+02 -0.46425232028E+03  0.46493798660E+03  0.00000000000E+00 0.  1.
<mgrwt>
<rscale>  2 0.25241127E+02</rscale>
<asrwt>0</asrwt>
<pdfrwt beam="1">  1       21 0.29248952E-01 0.25241127E+02</pdfrwt>
<pdfrwt beam="2">  1       21 0.71605300E-01 0.25241127E+02</pdfrwt>
<totfact> 0.23692847E+04</totfact>
</mgrwt>
</event>
<event>
 4    1  0.4594485E+006  0.2325028E+02  0.7546771E-02  0.1687485E+00
         21   -1    0    0  502  501  0.00000000000E+00  0.00000000000E+00  0.15862197494E+02  0.15862197494E+02  0.00000000000E+00 0. -1.
         21   -1    0    0  504  502 -0.00000000000E+00 -0.00000000000E+00 -0.16065366439E+03  0.16065366439E+03  0.00000000000E+00 0. -1.
         21    1    1    2  503  501 -0.15038919657E+02  0.17731510058E+02  0.59437999945E+01  0.23998006412E+02  0.00000000000E+00 0. -1.
         21    1    1    2  504  503  0.15038919657E+02 -0.17731510058E+02 -0.15073526689E+03  0.15251785547E+03  0.00000000000E+00 0. -1.
<mgrwt>
<rscale>  2 0.23250281E+02</rscale>
<asrwt>0</asrwt>
<pdfrwt beam="1">  1       21 0.24403381E-02 0.23250281E+02</pdfrwt>
<pdfrwt beam="2">  1       21 0.24715948E-01 0.23250281E+02</pdfrwt>
<totfact> 0.10927173E+07</totfact>
</mgrwt>
</event>
<event>
 4    1  0.4594485E+006  0.2058039E+02  0.7546771E-02  0.1734027E+00
         21   -1    0    0  502  501  0.00000000000E+00  0.00000000000E+00  0.57616717156E+03  0.57616717156E+03  0.00000000000E+00 0.  1.
         21   -1    0    0  504  502 -0.00000000000E+00 -0.00000000000E+00 -0.96466289276E+01  0.96466289276E+01  0.00000000000E+00 0.  1.
         21    1    1    2  503  501 -0.64017909593E+01  0.19559383568E+02  0.56478556653E+03  0.56516040960E+03  0.00000000000E+00 0.  1.
         21    1    1    2  504  503  0.64017909593E+01 -0.19559383568E+02  0.17349760960E+01  0.20653390886E+02  0.00000000000E+00 0.  1.
<mgrwt>
<rscale>  2 0.20580389E+02</rscale>
<asrwt>0</asrwt>
<pdfrwt beam="1">  1       21 0.88641076E-01 0.20580389E+02</pdfrwt>
<pdfrwt beam="2">  1       21 0.14840972E-02 0.20580389E+02</pdfrwt>
<totfact> 0.19445399E+06</totfact>
</mgrwt>
</event>
<event>
 4    1  0.4594485E+006  0.2165678E+02  0.7546771E-02  0.1714256E+00
         21   -1    0    0  503  501  0.00000000000E+00  0.00000000000E+00  0.88194129721E+03  0.88194129721E+03  0.00000000000E+00 0.  1.
         21   -1    0    0  504  502 -0.00000000000E+00 -0.00000000000E+00 -0.57255499132E+00  0.57255499132E+00  0.00000000000E+00 0. -1.
         21    1    1    2  503  502 -0.19233654586E+02  0.99540339751E+01  0.32295791666E+03  0.32368322816E+03  0.00000000000E+00 0.  1.
         21    1    1    2  504  501  0.19233654586E+02 -0.99540339751E+01  0.55841082556E+03  0.55883062404E+03  0.00000000000E+00 0. -1.
<mgrwt>
<rscale>  2 0.21656783E+02</rscale>
<asrwt>0</asrwt>
<pdfrwt beam="1">  1       21 0.13568219E+00 0.21656783E+02</pdfrwt>
<pdfrwt beam="2">  1       21 0.88086088E-04 0.21656783E+02</pdfrwt>
<totfact> 0.47284032E+07</totfact>
</mgrwt>
</event>
<event>
 4    1  0.4594485E+006  0.2240360E+02  0.7546771E-02  0.1701364E+00
         21   -1    0    0  504  501  0.00000000000E+00  0.00000000000E+00  0.26041100639E+03  0.26041100639E+03  0.00000000000E+00 0.  1.
         21   -1    0    0  503  502 -0.00000000000E+00 -0.00000000000E+00 -0.36788209484E+01  0.36788209484E+01  0.00000000000E+00 0. -1.
         21    1    1    2  503  501 -0.92427231496E+01  0.20408174060E+02  0.37257343234E+02  0.43474488203E+02  0.00000000000E+00 0. -1.
         21    1    1    2  504  502  0.92427231496E+01 -0.20408174060E+02  0.21947484220E+03  0.22061533913E+03  0.00000000000E+00 0.  1.
<mgrwt>
<rscale>  2 0.22403605E+02</rscale>
<asrwt>0</asrwt>
<pdfrwt beam="1">  1       21 0.40063217E-01 0.22403605E+02</pdfrwt>
<pdfrwt beam="2">  1       21 0.56597266E-03 0.22403605E+02</pdfrwt>
<totfact> 0.40678612E+07</totfact>
</mgrwt>
</event>
<event>
 4    1  0.4594485E+006  0.2025519E+02  0.7546771E-02  0.1740300E+00
         21   -1    0    0  502  501  0.00000000000E+00  0.00000000000E+00  0.24154186168E+01  0.24154186168E+01  0.00000000000E+00 0.  1.
         21   -1    0    0  504  502 -0.00000000000E+00 -0.00000000000E+00 -0.17078929421E+03  0.17078929421E+03  0.00000000000E+00 0. -1.
         21    1    1    2  503  501 -0.19212740957E+02 -0.64143041031E+01 -0.77784143085E+02  0.80378141479E+02  0.00000000000E+00 0.  1.
         21    1    1    2  504  503  0.19212740957E+02  0.64143041031E+01 -0.90589732512E+02  0.92826571352E+02  0.00000000000E+00 0. -1.
<mgrwt>
<rscale>  2 0.20255190E+02</rscale>
<asrwt>0</asrwt>
<pdfrwt beam="1">  1       21 0.37160289E-03 0.20255190E+02</pdfrwt>
<pdfrwt beam="2">  1       21 0.26275274E-01 0.20255190E+02</pdfrwt>
<totfact> 0.15892629E+08</totfact>
</mgrwt>
</event>
<event>
 4    1  0.4594485E+006  0.5118486E+02  0.7546771E-02  0.1439054E+00
         21   -1    0    0  503  501  0.00000000000E+00  0.00000000000E+00  0.21392609124E+01  0.21392609124E+01  0.00000000000E+00 0.  1.
         21   -1    0    0  504  502 -0.00000000000E+00 -0.00000000000E+00 -0.16895502906E+04  0.16895502906E+04  0.00000000000E+00 0.  1.
         21    1    1    2  503  502  0.47764449081E+02  0.18396923774E+02 -0.40001972939E+03  0.40328113432E+03  0.00000000000E+00 0.  1.
         21    1    1    2  504  501 -0.47764449081E+02 -0.18396923774E+02 -0.12873913003E+04  0.12884084172E+04  0.00000000000E+00 0.  1.
<mgrwt>
<rscale>  2 0.51184855E+02</rscale>
<asrwt>0</asrwt>
<pdfrwt beam="1">  1       21 0.32911773E-03 0.51184855E+02</pdfrwt>
<pdfrwt beam="2">  1       21 0.25993029E+00 0.51184855E+02</pdfrwt>
<totfact> 0.13431179E+06</totfact>
</mgrwt>
</event>
<event>
 4    1  0.4594485E+006  0.2174993E+02  0.7546771E-02  0.1712613E+00
         21   -1    0    0  502  501  0.00000000000E+00  0.00000000000E+00  0.31644160576E+02  0.31644160576E+02  0.00000000000E+00 0. -1.
         21   -1    0    0  503  502 -0.00000000000E+00 -0.00000000000E+00 -0.15879603025E+02  0.15879603025E+02  0.00000000000E+00 0. -1.
         21    1    1    2  503  504  0.14826819488E+02  0.15913042320E+02  0.21310242500E+01  0.21854078712E+02  0.00000000000E+00 0. -1.
         21    1    1    2  504  501 -0.14826819488E+02 -0.15913042320E+02  0.13633533301E+02  0.25669684888E+02  0.00000000000E+00 0. -1.
<mgrwt>
<rscale>  2 0.21749931E+02</rscale>
<asrwt>0</asrwt>
<pdfrwt beam="1">  1       21 0.48683324E-02 0.21749931E+02</pdfrwt>
<pdfrwt beam="2">  1       21 0.24430158E-02 0.21749931E+02</pdfrwt>
<totfact> 0.16163685E+08</totfact>
</mgrwt>
</event>
<event>
 4    1  0.4594485E+006  0.2072418E+02  0.7546771E-02  0.1731299E+00
         21   -1    0    0  503  501  0.00000000000E+00  0.00000000000E+00  0.16275250269E+01  0.16275250269E+01  0.00000000000E+00 0.  1.
         21   -1    0    0  504  502 -0.00000000000E+00 -0.00000000000E+00 -0.30475616975E+03  0.30475616975E+03  0.00000000000E+00 0. -1.
         21    1    1    2  503  502  0.11579737597E+02  0.17187237971E+02 -0.20765990441E+03  0.20869146454E+03  0.00000000000E+00 0. -1.
         21    1    1    2  504  501 -0.11579737597E+02 -0.17187237971E+02 -0.95468740313E+02  0.97692230238E+02  0.00000000000E+00 0.  1.
<mgrwt>
<rscale>  2 0.20724176E+02</rscale>
<asrwt>0</asrwt>
<pdfrwt beam="1">  1       21 0.25038870E-03 0.20724176E+02</pdfrwt>
<pdfrwt beam="2">  1       21 0.46885521E-01 0.20724176E+02</pdfrwt>
<totfact> 0.97456610E+07</totfact>
</mgrwt>
</event>
<event>
 4    1  0.4594485E+006  0.2541335E+02  0.7546771E-02  0.1655135E+00
         21   -1    0    0  503  501  0.00000000000E+00  0.00000000000E+00  0.13780324872E+04  0.13780324872E+04  0.00000000000E+00 0. -1.
         21   -1    0    0  501  502 -0.00000000000E+00 -0.00000000000E+00 -0.27539228068E+01  0.27539228068E+01  0.00000000000E+00 0.  1.
         21    1    1    2  503  504 -0.99617373416E+01  0.23379521561E+02  0.13165486232E+04  0.13167938774E+04  0.00000000000E+00 0. -1.
         21    1    1    2  504  502  0.99617373416E+01 -0.23379521561E+02  0.58729941104E+02  0.63992532544E+02  0.00000000000E+00 0.  1.
<mgrwt>
<rscale>  2 0.25413348E+02</rscale>
<asrwt>0</asrwt>
<pdfrwt beam="1">  1       21 0.21200445E+00 0.25413348E+02</pdfrwt>
<pdfrwt beam="2">  1       21 0.42368153E-03 0.25413348E+02</pdfrwt>
<totfact> 0.16650460E+06</totfact>
</mgrwt>
</event>
<event>
 4    1  0.4594485E+006  0.2319664E+02  0.7546771E-02  0.1688342E+00
         21   -1    0    0  503  501  0.00000000000E+00  0.00000000000E+00  0.16574121017E+02  0.16574121017E+02  0.00000000000E+00 0.  1.
         21   -1    0    0  504  502 -0.00000000000E+00 -0.00000000000E+00 -0.40013474988E+02  0.40013474988E+02  0.00000000000E+00 0.  1.
         21    1    1    2  503  502 -0.21193035597E+02  0.94307608884E+01  0.56910248442E+00  0.23203617959E+02  0.00000000000E+00 0.  1.
         21    1    1    2  504  501  0.21193035597E+02 -0.94307608884E+01 -0.24008456456E+02  0.33383978045E+02  0.00000000000E+00 0.  1.
<mgrwt>
<rscale>  2 0.23196638E+02</rscale>
<asrwt>0</asrwt>
<pdfrwt beam="1">  1       21 0.25498648E-02 0.23196638E+02</pdfrwt>
<pdfrwt beam="2">  1       21 0.61559192E-02 0.23196638E+02</pdfrwt>
<totfact> 0.10602649E+08</totfact>
</mgrwt>
</event>
<event>
 4    1  0.4594485E+006  0.2284084E+02  0.7546771E-02  0.1694103E+00
         21   -1    0    0  503  501  0.00000000000E+00  0.00000000000E+00  0.29928959797E+02  0.29928959797E+02  0.00000000000E+00 0.  1.
         21   -1    0    0  504  502 -0.00000000000E+00 -0.00000000000E+00 -0.18090797799E+02  0.18090797799E+02  0.00000000000E+00 0.  1.
         21    1    1    2  503  502  0.91907937897E+01  0.20910124430E+02  0.13352216225E+01  0.22879834154E+02  0.00000000000E+00 0.  1.
         21    1    1    2  504  501 -0.91907937897E+01 -0.20910124430E+02  0.10502940375E+02  0.25139923442E+02  0.00000000000E+00 0.  1.
<mgrwt>
<rscale>  2 0.22840840E+02</rscale>
<asrwt>0</asrwt>
<pdfrwt beam="1">  1       21 0.46044554E-02 0.22840840E+02</pdfrwt>
<pdfrwt beam="2">  1       21 0.27831997E-02 0.22840840E+02</pdfrwt>
<totfact> 0.14650898E+08</totfact>
</mgrwt>
</event>
<event>
 4    1  0.4594485E+006  0.2414753E+02  0.7546771E-02  0.1673557E+00
         21   -1    0    0  503  501  0.00000000000E+00  0.00000000000E+00  0.36605458462E+02  0.36605458462E+02  0.00000000000E+00 0. -1.
         21   -1    0    0  504  502 -0.00000000000E+00 -0.00000000000E+00 -0.43910124197E+02  0.43910124197E+02  0.00000000000E+00 0. -1.
         21    1    1    2  503  502  0.11532996675E+02 -0.21215404251E+02  0.28484050697E+02  0.37342262036E+02  0.00000000000E+00 0. -1.
         21    1    1    2  504  501 -0.11532996675E+02  0.21215404251E+02 -0.35788716432E+02  0.43173320624E+02  0.00000000000E+00 0. -1.
<mgrwt>
<rscale>  2 0.24147534E+02</rscale>
<asrwt>0</asrwt>
<pdfrwt beam="1">  1       21 0.56316090E-02 0.24147534E+02</pdfrwt>
<pdfrwt beam="2">  1       21 0.67554037E-02 0.24147534E+02</pdfrwt>
<totfact> 0.26482755E+07</totfact>
</mgrwt>
</event>
<event>
 4    1  0.4594485E+006  0.2038624E+02  0.7546771E-02  0.1737755E+00
         21   -1    0    0  503  501  0.00000000000E+00  0.00000000000E+00  0.13829129520E+03  0.13829129520E+03  0.00000000000E+00 0.  1.
         21   -1    0    0  501  502 -0.00000000000E+00 -0.00000000000E+00 -0.54894961118E+03  0.54894961118E+03  0.00000000000E+00 0.  1.
         21    1    1    2  503  504  0.98403156465E+01  0.17854041267E+02  0.13734942430E+03  0.13885410674E+03  0.00000000000E+00 0.  1.
         21    1    1    2  504  502 -0.98403156465E+01 -0.17854041267E+02 -0.54800774029E+03  0.54838679964E+03  0.00000000000E+00 0.  1.
<mgrwt>
<rscale>  2 0.20386236E+02</rscale>
<asrwt>0</asrwt>
<pdfrwt beam="1">  1       21 0.21275584E-01 0.20386236E+02</pdfrwt>
<pdfrwt beam="2">  1       21 0.84453785E-01 0.20386236E+02</pdfrwt>
<totfact> 0.30000334E+04</totfact>
</mgrwt>
</event>
<event>
 4    1  0.4594485E+006  0.4279293E+02  0.7546771E-02  0.1488610E+00
         21   -1    0    0  503  501  0.00000000000E+00  0.00000000000E+00  0.26048092272E+02  0.26048092272E+02  0.00000000000E+00 0. -1.
         21   -1    0    0  504  502 -0.00000000000E+00 -0.00000000000E+00 -0.36404413624E+03  0.36404413624E+03  0.00000000000E+00 0.  1.
         21    1    1    2  503  502  0.42787608207E+02 -0.67511822970E+00  0.62057065089E+01  0.43240559593E+02  0.00000000000E+00 0. -1.
         21    1    1    2  504  501 -0.42787608207E+02  0.67511822970E+00 -0.34420175048E+03  0.34685166892E+03  0.00000000000E+00 0.  1.
<mgrwt>
<rscale>  2 0.42792934E+02</rscale>
<asrwt>0</asrwt>
<pdfrwt beam="1">  1       21 0.40073991E-02 0.42792934E+02</pdfrwt>
<pdfrwt beam="2">  1       21 0.56006787E-01 0.42792934E+02</pdfrwt>
<totfact> 0.11384106E+06</totfact>
</mgrwt>
</event>
<event>
 4    1  0.4594485E+006  0.2393170E+02  0.7546771E-02  0.1676838E+00
         21   -1    0    0  503  501  0.00000000000E+00  0.00000000000E+00  0.40564648023E+03  0.40564648023E+03  0.00000000000E+00 0. -1.
         21   -1    0    0  501  502 -0.00000000000E+00 -0.00000000000E+00 -0.59109082356E+01  0.59109082356E+01  0.00000000000E+00 0. -1.
         21    1    1    2  503  504 -0.46757652941E+01 -0.23470481438E+02  0.37939587364E+03  0.38014991150E+03  0.00000000000E+00 0. -1.
         21    1    1    2  504  502  0.46757652941E+01  0.23470481438E+02  0.20339698352E+02  0.31407476961E+02  0.00000000000E+00 0. -1.
<mgrwt>
<rscale>  2 0.23931700E+02</rscale>
<asrwt>0</asrwt>
<pdfrwt beam="1">  1       21 0.62407129E-01 0.23931700E+02</pdfrwt>
<pdfrwt beam="2">  1       21 0.90937082E-03 0.23931700E+02</pdfrwt>
<totfact> 0.85897738E+06</totfact>
</mgrwt>
</event>
<event>
 4    1  0.4594485E+006  0.2034964E+02  0.7546771E-02  0.1738463E+00
         21   -1    0    0  504  501  0.00000000000E+00  0.00000000000E+00  0.41174031108E+03  0.41174031108E+03  0.00000000000E+00 0.  1.
         21   -1    0    0  503  502 -0.00000000000E+00 -0.00000000000E+00 -0.32267105200E+02  0.32267105200E+02  0.00000000000E+00 0. -1.
         21    1    1    2  503  501  0.14612113090E+02 -0.14163117541E+02 -0.28779842719E+02  0.35247511889E+02  0.00000000000E+00 0. -1.
         21    1    1    2  504  502 -0.14612113090E+02  0.14163117541E+02  0.40825304860E+03  0.40875990439E+03  0.00000000000E+00 0.  1.
<mgrwt>
<rscale>  2 0.20349638E+02</rscale>
<asrwt>0</asrwt>
<pdfrwt beam="1">  1       21 0.63344660E-01 0.20349638E+02</pdfrwt>
<pdfrwt beam="2">  1       21 0.49641703E-02 0.20349638E+02</pdfrwt>
<totfact> 0.60119940E+05</totfact>
</mgrwt>
</event>
<event>
 4    1  0.4594485E+006  0.3864164E+02  0.7546771E-02  0.1518452E+00
         21   -1    0    0  504  501  0.00000000000E+00  0.00000000000E+00  0.13565249545E+02  0.13565249545E+02  0.00000000000E+00 0.  1.
         21   -1    0    0  501  502 -0.00000000000E+00 -0.00000000000E+00 -0.19158131887E+04  0.19158131887E+04  0.00000000000E+00 0. -1.
         21    1    1    2  503  502 -0.35044307924E+01 -0.38482405365E+02 -0.18876899948E+04  0.18880854570E+04  0.00000000000E+00 0. -1.
         21    1    1    2  504  503  0.35044307924E+01  0.38482405365E+02 -0.14557944423E+02  0.41292981289E+02  0.00000000000E+00 0.  1.
<mgrwt>
<rscale>  2 0.38641643E+02</rscale>
<asrwt>0</asrwt>
<pdfrwt beam="1">  1       21 0.20869600E-02 0.38641643E+02</pdfrwt>
<pdfrwt beam="2">  1       21 0.29474070E+00 0.38641643E+02</pdfrwt>
<totfact> 0.54195820E+04</totfact>
</mgrwt>
</event>
<event>
 4    1  0.4594485E+006  0.4589799E+02  0.7546771E-02  0.1468812E+00
         21   -1    0    0  504  501  0.00000000000E+00  0.00000000000E+00  0.23880112404E+01  0.23880112404E+01  0.00000000000E+00 0.  1.
         21   -1    0    0  503  502 -0.00000000000E+00 -0.00000000000E+00 -0.13757263780E+04  0.13757263780E+04  0.00000000000E+00 0.  1.
         21    1    1    2  503  501 -0.26710426195E+02 -0.37325303579E+02 -0.10993923642E+04  0.11003500332E+04  0.00000000000E+00 0.  1.
         21    1    1    2  504  502  0.26710426195E+02  0.37325303579E+02 -0.27394600255E+03  0.27776435600E+03  0.00000000000E+00 0.  1.
<mgrwt>
<rscale>  2 0.45897986E+02</rscale>
<asrwt>0</asrwt>
<pdfrwt beam="1">  1       21 0.36738616E-03 0.45897986E+02</pdfrwt>
<pdfrwt beam="2">  1       21 0.21165032E+00 0.45897986E+02</pdfrwt>
<totfact> 0.20968095E+06</totfact>
</mgrwt>
</event>
<event>
 4    1  0.4594485E+006  0.2006051E+02  0.7546771E-02  0.1744127E+00
         21   -1    0    0  503  501  0.00000000000E+00  0.00000000000E+00  0.53149158282E+02  0.53149158282E+02  0.00000000000E+00 0. -1.
         21   -1    0    0  504  502 -0.00000000000E+00 -0.00000000000E+00 -0.77409106346E+01  0.77409106346E+01  0.00000000000E+00 0. -1.
         21    1    1    2  503  502  0.29457196413E+01 -0.19843054418E+02  0.27206738994E+02  0.33802821177E+02  0.00000000000E+00 0. -1.
         21    1    1    2  504  501 -0.29457196413E+01  0.19843054418E+02  0.18201508653E+02  0.27087247739E+02  0.00000000000E+00 0. -1.
<mgrwt>
<rscale>  2 0.20060510E+02</rscale>
<asrwt>0</asrwt>
<pdfrwt beam="1">  1       21 0.81767934E-02 0.20060510E+02</pdfrwt>
<pdfrwt beam="2">  1       21 0.11909094E-02 0.20060510E+02</pdfrwt>
<totfact> 0.20449073E+08</totfact>
</mgrwt>
</event>
<event>
 4    1  0.4594485E+006  0.3034710E+02  0.7546771E-02  0.1594283E+00
         21   -1    0    0  504  501  0.00000000000E+00  0.00000000000E+00  0.52266419807E+03  0.52266419807E+03  0.00000000000E+00 0.  1.
         21   -1    0    0  501  502 -0.00000000000E+00 -0.00000000000E+00 -0.62049710927E+01  0.62049710927E+01  0.00000000000E+00 0. -1.
         21    1    1    2  503  502  0.20221174463E+02 -0.22628535977E+02  0.34468829827E+02  0.45924359188E+02  0.00000000000E+00 0. -1.
         21    1    1    2  504  503 -0.20221174463E+02  0.22628535977E+02  0.48199039715E+03  0.48294480997E+03  0.00000000000E+00 0.  1.
<mgrwt>
<rscale>  2 0.30347101E+02</rscale>
<asrwt>0</asrwt>
<pdfrwt beam="1">  1       21 0.80409842E-01 0.30347101E+02</pdfrwt>
<pdfrwt beam="2">  1       21 0.95461135E-03 0.30347101E+02</pdfrwt>
<totfact> 0.48867170E+06</totfact>
</mgrwt>
</event>
<event>
 4    1  0.4594485E+006  0.4345239E+02  0.7546771E-02  0.1484241E+00
         21   -1    0    0  502  501  0.00000000000E+00  0.00000000000E+00  0.15385363455E+04  0.15385363455E+04  0.00000000000E+00 0. -1.
         21   -1    0    0  504  502 -0.00000000000E+00 -0.00000000000E+00 -0.50257806332E+02  0.50257806332E+02  0.00000000000E+00 0.  1.
         21    1    1    2  503  501 -0.40641851244E+02 -0.15373688009E+02  0.15287774757E+04  0.15293948739E+04  0.00000000000E+00 0. -1.
         21    1    1    2  504  503  0.40641851244E+02  0.15373688009E+02 -0.40498936498E+02  0.59399277883E+02  0.00000000000E+00 0.  1.
<mgrwt>
<rscale>  2 0.43452392E+02</rscale>
<asrwt>0</asrwt>
<pdfrwt beam="1">  1       21 0.23669786E+00 0.43452392E+02</pdfrwt>
<pdfrwt beam="2">  1       21 0.77319714E-02 0.43452392E+02</pdfrwt>
<totfact> 0.12930262E+04</totfact>
</mgrwt>
</event>
<event>
 4    1  0.4594485E+006  0.3204297E+02  0.7546771E-02  0.1576545E+00
         21   -1    0    0  504  501  0.00000000000E+00  0.00000000000E+00  0.14309386318E+02  0.14309386318E+02  0.00000000000E+00 0.  1.
         21   -1    0    0  503  502 -0.00000000000E+00 -0.00000000000E+00 -0.87767203438E+02  0.87767203438E+02  0.00000000000E+00 0.  1.
         21    1    1    2  503  501 -0.32041344893E+02 -0.32293468103E+00 -0.14928100904E+02  0.35349685514E+02  0.00000000000E+00 0.  1.
         21    1    1    2  504  502  0.32041344893E+02  0.32293468103E+00 -0.58529716216E+02  0.66726904242E+02  0.00000000000E+00 0.  1.
<mgrwt>
<rscale>  2 0.32042972E+02</rscale>
<asrwt>0</asrwt>
<pdfrwt beam="1">  1       21 0.22014441E-02 0.32042972E+02</pdfrwt>
<pdfrwt beam="2">  1       21 0.13502646E-01 0.32042972E+02</pdfrwt>
<totfact> 0.39203243E+07</totfact>
</mgrwt>
</event>
<event>
 4    1  0.4594485E+006  0.3551057E+02  0.7546771E-02  0.1544113E+00
         21   -1    0    0  502  501  0.00000000000E+00  0.00000000000E+00  0.44273320223E+01  0.44273320223E+01  0.00000000000E+00 0. -1.
         21   -1    0    0  504  502 -0.00000000000E+00 -0.00000000000E+00 -0.52838950130E+03  0.52838950130E+03  0.00000000000E+00 0.  1.
         21    1    1    2  503  501 -0.72304617059E+01  0.34766667388E+02 -0.81105191883E+02  0.88538426054E+02  0.00000000000E+00 0. -1.
         21    1    1    2  504  503  0.72304617059E+01 -0.34766667388E+02 -0.44285697740E+03  0.44427840727E+03  0.00000000000E+00 0.  1.
<mgrwt>
<rscale>  2 0.35510572E+02</rscale>
<asrwt>0</asrwt>
<pdfrwt beam="1">  1       21 0.68112784E-03 0.35510572E+02</pdfrwt>
<pdfrwt beam="2">  1       21 0.81290711E-01 0.35510572E+02</pdfrwt>
<totfact> 0.81014431E+06</totfact>
</mgrwt>
</event>
<event>
 4    1  0.4594485E+006  0.3527746E+02  0.7546771E-02  0.1546150E+00
         21   -1    0    0  503  501  0.00000000000E+00  0.00000000000E+00  0.15070579068E+04  0.15070579068E+04  0.00000000000E+00 0.  1.
         21   -1    0    0  501  502 -0.00000000000E+00 -0.00000000000E+00 -0.33455326292E+01  0.33455326292E+01  0.00000000000E+00 0.  1.
         21    1    1    2  503  504 -0.12645950999E+02  0.32932948837E+02  0.14072604115E+04  0.14077025130E+04  0.00000000000E+00 0.  1.
         21    1    1    2  504  502  0.12645950999E+02 -0.32932948837E+02  0.96451962630E+02  0.10270092644E+03  0.00000000000E+00 0.  1.
<mgrwt>
<rscale>  2 0.35277460E+02</rscale>
<asrwt>0</asrwt>
<pdfrwt beam="1">  1       21 0.23185452E+00 0.35277460E+02</pdfrwt>
<pdfrwt beam="2">  1       21 0.51469853E-03 0.35277460E+02</pdfrwt>
<totfact> 0.97969422E+05</totfact>
</mgrwt>
</event>
<event>
 4    1  0.4594485E+006  0.3763169E+02  0.7546771E-02  0.1526400E+00
         21   -1    0    0  503  501  0.00000000000E+00  0.00000000000E+00  0.90259003046E+02  0.90259003046E+02  0.00000000000E+00 0.  1.
         21   -1    0    0  504  502 -0.00000000000E+00 -0.00000000000E+00 -0.63673455612E+02  0.63673455612E+02  0.00000000000E+00 0.  1.
         21    1    1    2  503  502  0.23822239871E+02 -0.29131517138E+02  0.80106813520E+02  0.88505626802E+02  0.00000000000E+00 0.  1.
         21    1    1    2  504  501 -0.23822239871E+02  0.29131517138E+02 -0.53521266086E+02  0.65426831856E+02  0.00000000000E+00 0.  1.
<mgrwt>
<rscale>  2 0.37631694E+02</rscale>
<asrwt>0</asrwt>
<pdfrwt beam="1">  1       21 0.13886001E-01 0.37631694E+02</pdfrwt>
<pdfrwt beam="2">  1       21 0.97959162E-02 0.37631694E+02</pdfrwt>
<totfact> 0.34416696E+06</totfact>
</mgrwt>
</event>
<event>
 4    1  0.4594485E+006  0.2012487E+02  0.7546771E-02  0.1742856E+00
         21   -1    0    0  504  501  0.00000000000E+00  0.00000000000E+00  0.11799037848E+03  0.11799037848E+03  0.00000000000E+00 0. -1.
         21   -1    0    0  501  502 -0.00000000000E+00 -0.00000000000E+00 -0.15631866078E+02  0.15631866078E+02  0.00000000000E+00 0.  1.
         21    1    1    2  503  502 -0.42746599599E+01 -0.19665651869E+02 -0.78423042659E+01  0.21598896208E+02  0.00000000000E+00 0.  1.
         21    1    1    2  504  503  0.42746599599E+01  0.19665651869E+02  0.11020081667E+03  0.11202334835E+03  0.00000000000E+00 0. -1.
<mgrwt>
<rscale>  2 0.20124875E+02</rscale>
<asrwt>0</asrwt>
<pdfrwt beam="1">  1       21 0.18152365E-01 0.20124875E+02</pdfrwt>
<pdfrwt beam="2">  1       21 0.24049026E-02 0.20124875E+02</pdfrwt>
<totfact> 0.18611328E+07</totfact>
</mgrwt>
</event>
<event>
 4    1  0.4594485E+006  0.2170571E+02  0.7546771E-02  0.1713392E+00
         21   -1    0    0  504  501  0.00000000000E+00  0.00000000000E+00  0.27266419336E+02  0.27266419336E+02  0.00000000000E+00 0. -1.
         21   -1    0    0  503  502 -0.00000000000E+00 -0.00000000000E+00 -0.28064944734E+02  0.28064944734E+02  0.00000000000E+00 0.  1.
         21    1    1    2  503  501 -0.16024911603E+02  0.14640359641E+02 -0.17550177951E+02  0.27913198821E+02  0.00000000000E+00 0.  1.
         21    1    1    2  504  502  0.16024911603E+02 -0.14640359641E+02  0.16751652553E+02  0.27418165248E+02  0.00000000000E+00 0. -1.
<mgrwt>
<rscale>  2 0.21705712E+02</rscale>
<asrwt>0</asrwt>
<pdfrwt beam="1">  1       21 0.41948337E-02 0.21705712E+02</pdfrwt>
<pdfrwt beam="2">  1       21 0.43176838E-02 0.21705712E+02</pdfrwt>
<totfact> 0.84126062E+07</totfact>
</mgrwt>
</event>
<event>
 4    1  0.4594485E+006  0.2106970E+02  0.7546771E-02  0.1724856E+00
         21   -1    0    0  503  501  0.00000000000E+00  0.00000000000E+00  0.28185866570E+03  0.28185866570E+03  0.00000000000E+00 0.  1.
         21   -1    0    0  501  502 -0.00000000000E+00 -0.00000000000E+00 -0.12125781817E+02  0.12125781817E+02  0.00000000000E+00 0.  1.
         21    1    1    2  503  504  0.19452142254E+02 -0.80960767528E+01  0.27198033086E+03  0.27279522113E+03  0.00000000000E+00 0.  1.
         21    1    1    2  504  502 -0.19452142254E+02  0.80960767528E+01 -0.22474469745E+01  0.21189226389E+02  0.00000000000E+00 0.  1.
<mgrwt>
<rscale>  2 0.21069701E+02</rscale>
<asrwt>0</asrwt>
<pdfrwt beam="1">  1       21 0.43362867E-01 0.21069701E+02</pdfrwt>
<pdfrwt beam="2">  1       21 0.18655051E-02 0.21069701E+02</pdfrwt>
<totfact> 0.57766377E+06</totfact>
</mgrwt>
</event>
<event>
 4    1  0.4594485E+006  0.2428231E+02  0.7546771E-02  0.1671530E+00
         21   -1    0    0  503  501  0.00000000000E+00  0.00000000000E+00  0.93142038345E+02  0.93142038345E+02  0.00000000000E+00 0.  1.
         21   -1    0    0  501  502 -0.00000000000E+00 -0.00000000000E+00 -0.11568365349E+02  0.11568365349E+02  0.00000000000E+00 0.  1.
         21    1    1    2  503  504 -0.41528497309E+01 -0.23924555955E+02  0.76016077842E+02  0.79800216973E+02  0.00000000000E+00 0.  1.
         21    1    1    2  504  502  0.41528497309E+01  0.23924555955E+02  0.55575951541E+01  0.24910186720E+02  0.00000000000E+00 0.  1.
<mgrwt>
<rscale>  2 0.24282309E+02</rscale>
<asrwt>0</asrwt>
<pdfrwt beam="1">  1       21 0.14329544E-01 0.24282309E+02</pdfrwt>
<pdfrwt beam="2">  1       21 0.17797486E-02 0.24282309E+02</pdfrwt>
<totfact> 0.46265638E+07</totfact>
</mgrwt>
</event>
<event>
 4    1  0.4594485E+006  0.2631725E+02  0.7546771E-02  0.1642772E+00
         21   -1    0    0  504  501  0.00000000000E+00  0.00000000000E+00  0.13720506196E+01  0.13720506196E+01  0.00000000000E+00 0. -1.
         21   -1    0    0  503  502 -0.00000000000E+00 -0.00000000000E+00 -0.60436958207E+03  0.60436958207E+03  0.00000000000E+00 0. -1.
         21    1    1    2  503  501  0.24344249855E+02 -0.99977690863E+01 -0.42443801444E+03  0.42525313166E+03  0.00000000000E+00 0. -1.
         21    1    1    2  504  502 -0.24344249855E+02  0.99977690863E+01 -0.17855951701E+03  0.18048850103E+03  0.00000000000E+00 0. -1.
<mgrwt>
<rscale>  2 0.26317255E+02</rscale>
<asrwt>0</asrwt>
<pdfrwt beam="1">  1       21 0.21108421E-03 0.26317255E+02</pdfrwt>
<pdfrwt beam="2">  1       21 0.92980157E-01 0.26317255E+02</pdfrwt>
<totfact> 0.32741586E+07</totfact>
</mgrwt>
</event>
<event>
 4    1  0.4594485E+006  0.3650936E+02  0.7546771E-02  0.1535592E+00
         21   -1    0    0  503  501  0.00000000000E+00  0.00000000000E+00  0.39707098037E+02  0.39707098037E+02  0.00000000000E+00 0. -1.
         21   -1    0    0  504  502 -0.00000000000E+00 -0.00000000000E+00 -0.51703116158E+02  0.51703116158E+02  0.00000000000E+00 0. -1.
         21    1    1    2  503  502  0.93265350578E+01 -0.35297999545E+02 -0.33065806844E+02  0.49257289920E+02  0.00000000000E+00 0. -1.
         21    1    1    2  504  501 -0.93265350578E+01  0.35297999545E+02  0.21069788723E+02  0.42152924275E+02  0.00000000000E+00 0. -1.
<mgrwt>
<rscale>  2 0.36509355E+02</rscale>
<asrwt>0</asrwt>
<pdfrwt beam="1">  1       21 0.61087844E-02 0.36509355E+02</pdfrwt>
<pdfrwt beam="2">  1       21 0.79543255E-02 0.36509355E+02</pdfrwt>
<totfact> 0.19250472E+07</totfact>
</mgrwt>
</event>
<event>
 4    1  0.4594485E+006  0.2966548E+02  0.7546771E-02  0.1601816E+00
         21   -1    0    0  503  501  0.00000000000E+00  0.00000000000E+00  0.27481445431E+02  0.27481445431E+02  0.00000000000E+00 0.  1.
         21   -1    0    0  501  502 -0.00000000000E+00 -0.00000000000E+00 -0.75037427475E+02  0.75037427475E+02  0.00000000000E+00 0.  1.
         21    1    1    2  503  504 -0.18101920283E+02  0.23502361722E+02  0.15031820058E+02  0.33256520243E+02  0.00000000000E+00 0.  1.
         21    1    1    2  504  502  0.18101920283E+02 -0.23502361722E+02 -0.62587802101E+02  0.69262352662E+02  0.00000000000E+00 0.  1.
<mgrwt>
<rscale>  2 0.29665477E+02</rscale>
<asrwt>0</asrwt>
<pdfrwt beam="1">  1       21 0.42279147E-02 0.29665477E+02</pdfrwt>
<pdfrwt beam="2">  1       21 0.11544219E-01 0.29665477E+02</pdfrwt>
<totfact> 0.18031889E+07</totfact>
</mgrwt>
</event>
<event>
 4    1  0.4594485E+006  0.4063932E+02  0.7546771E-02  0.1503559E+00
         21   -1    0    0  502  501  0.00000000000E+00  0.00000000000E+00  0.13793128047E+03  0.13793128047E+03  0.00000000000E+00 0.  1.
         21   -1    0    0  503  502 -0.00000000000E+00 -0.00000000000E+00 -0.87259055572E+02  0.87259055572E+02  0.00000000000E+00 0.  1.
         21    1    1    2  503  504 -0.24872455473E+02  0.32138997918E+02 -0.79248939678E+02  0.89061488133E+02  0.00000000000E+00 0.  1.
         21    1    1    2  504  501  0.24872455473E+02 -0.32138997918E+02  0.12992116457E+03  0.13612884791E+03  0.00000000000E+00 0.  1.
<mgrwt>
<rscale>  2 0.40639319E+02</rscale>
<asrwt>0</asrwt>
<pdfrwt beam="1">  1       21 0.21220197E-01 0.40639319E+02</pdfrwt>
<pdfrwt beam="2">  1       21 0.13424470E-01 0.40639319E+02</pdfrwt>
<totfact> 0.96021126E+05</totfact>
</mgrwt>
</event>
<event>
 4    1  0.4594485E+006  0.2080266E+02  0.7546771E-02  0.1729822E+00
         21   -1    0    0  503  501  0.00000000000E+00  0.00000000000E+00  0.17240029102E+02  0.17240029102E+02  0.00000000000E+00 0.  1.
         21   -1    0    0  504  502 -0.00000000000E+00 -0.00000000000E+00 -0.28937693198E+02  0.28937693198E+02  0.00000000000E+00 0.  1.
         21    1    1    2  503  502  0.20784045236E+02  0.87976984071E+00  0.25577796524E+01  0.20959312204E+02  0.00000000000E+00 0.  1.
         21    1    1    2  504  501 -0.20784045236E+02 -0.87976984071E+00 -0.14255443748E+02  0.25218410096E+02  0.00000000000E+00 0.  1.
<mgrwt>
<rscale>  2 0.20802657E+02</rscale>
<asrwt>0</asrwt>
<pdfrwt beam="1">  1       21 0.26523122E-02 0.20802657E+02</pdfrwt>
<pdfrwt beam="2">  1       21 0.44519527E-02 0.20802657E+02</pdfrwt>
<totfact> 0.16175084E+08</totfact>
</mgrwt>
</event>
<event>
 4    1  0.4594485E+006  0.3733562E+02  0.7546771E-02  0.1528787E+00
         21   -1    0    0  504  501  0.00000000000E+00  0.00000000000E+00  0.64993697718E+01  0.64993697718E+01  0.00000000000E+00 0.  1.
         21   -1    0    0  503  502 -0.00000000000E+00 -0.00000000000E+00 -0.28263967182E+03  0.28263967182E+03  0.00000000000E+00 0.  1.
         21    1    1    2  503  501  0.52177570020E+01 -0.36969227134E+02 -0.67072886743E+02  0.76764059814E+02  0.00000000000E+00 0.  1.
         21    1    1    2  504  502 -0.52177570020E+01  0.36969227134E+02 -0.20906741531E+03  0.21237498178E+03  0.00000000000E+00 0.  1.
<mgrwt>
<rscale>  2 0.37335623E+02</rscale>
<asrwt>0</asrwt>
<pdfrwt beam="1">  1       21 0.99990294E-03 0.37335623E+02</pdfrwt>
<pdfrwt beam="2">  1       21 0.43483031E-01 0.37335623E+02</pdfrwt>
<totfact> 0.16296660E+07</totfact>
</mgrwt>
</event>
<event>
 4    1  0.4594485E+006  0.2187400E+02  0.7546771E-02  0.1710440E+00
         21   -1    0    0  504  501  0.00000000000E+00  0.00000000000E+00  0.84322816472E+02  0.84322816472E+02  0.00000000000E+00 0.  1.
         21   -1    0    0  501  502 -0.00000000000E+00 -0.00000000000E+00 -0.20101876671E+02  0.20101876671E+02  0.00000000000E+00 0. -1.
         21    1    1    2  503  502 -0.20156882205E+02  0.84954170793E+01 -0.12123077946E+02  0.25008819054E+02  0.00000000000E+00 0. -1.
         21    1    1    2  504  503  0.20156882205E+02 -0.84954170793E+01  0.76344017747E+02  0.79415874089E+02  0.00000000000E+00 0.  1.
<mgrwt>
<rscale>  2 0.21874003E+02</rscale>
<asrwt>0</asrwt>
<pdfrwt beam="1">  1       21 0.12972741E-01 0.21874003E+02</pdfrwt>
<pdfrwt beam="2">  1       21 0.30925965E-02 0.21874003E+02</pdfrwt>
<totfact> 0.22753828E+07</totfact>
</mgrwt>
</event>
<event>
 4    1  0.4594485E+006  0.2372810E+02  0.7546771E-02  0.1679973E+00
         21   -1    0    0  503  501  0.00000000000E+00  0.00000000000E+00  0.57547311720E+01  0.57547311720E+01  0.00000000000E+00 0. -1.
         21   -1    0    0  504  502 -0.00000000000E+00 -0.00000000000E+00 -0.18566944873E+03  0.18566944873E+03  0.00000000000E+00 0. -1.
         21    1    1    2  503  502  0.51594624193E+01 -0.23160364456E+02 -0.24127124220E+02  0.33839926970E+02  0.00000000000E+00 0. -1.
         21    1    1    2  504  501 -0.51594624193E+01  0.23160364456E+02 -0.15578759334E+03  0.15758425294E+03  0.00000000000E+00 0. -1.
<mgrwt>
<rscale>  2 0.23728096E+02</rscale>
<asrwt>0</asrwt>
<pdfrwt beam="1">  1       21 0.88534315E-03 0.23728096E+02</pdfrwt>
<pdfrwt beam="2">  1       21 0.28564534E-01 0.23728096E+02</pdfrwt>
<totfact> 0.39556684E+07</totfact>
</mgrwt>
</event>
<event>
 4    1  0.4594485E+006  0.2039199E+02  0.7546771E-02  0.1737643E+00
         21   -1    0    0  503  501  0.00000000000E+00  0.00000000000E+00  0.79969494730E+03  0.79969494730E+03  0.00000000000E+00 0. -1.
         21   -1    0    0  504  502 -0.00000000000E+00 -0.00000000000E+00 -0.62383320392E+00  0.62383320392E+00  0.00000000000E+00 0.  1.
         21    1    1    2  503  502 -0.65051808012E+01 -0.19326555863E+02  0.56279880357E+03  0.56316811561E+03  0.00000000000E+00 0. -1.
         21    1    1    2  504  501  0.65051808012E+01  0.19326555863E+02  0.23627231053E+03  0.23715066490E+03  0.00000000000E+00 0.  1.
<mgrwt>
<rscale>  2 0.20391987E+02</rscale>
<asrwt>0</asrwt>
<pdfrwt beam="1">  1       21 0.12302917E+00 0.20391987E+02</pdfrwt>
<pdfrwt beam="2">  1       21 0.95974979E-04 0.20391987E+02</pdfrwt>
<totfact> 0.51684630E+07</totfact>
</mgrwt>
</event>
<event>
 4    1  0.4594485E+006  0.3428155E+02  0.7546771E-02  0.1555075E+00
         21   -1    0    0  503  501  0.00000000000E+00  0.00000000000E+00  0.22261136838E+03  0.22261136838E+03  0.00000000000E+00 0. -1.
         21   -1    0    0  504  502 -0.00000000000E+00 -0.00000000000E+00 -0.91228989068E+01  0.91228989068E+01  0.00000000000E+00 0. -1.
         21    1    1    2  503  502  0.17173050995E+02  0.29670037653E+02  0.31536114095E+02  0.46580589380E+02  0.00000000000E+00 0. -1.
         21    1    1    2  504  501 -0.17173050995E+02 -0.29670037653E+02  0.18195235538E+03  0.18515367791E+03  0.00000000000E+00 0. -1.
<mgrwt>
<rscale>  2 0.34281552E+02</rscale>
<asrwt>0</asrwt>
<pdfrwt beam="1">  1       21 0.34247899E-01 0.34281552E+02</pdfrwt>
<pdfrwt beam="2">  1       21 0.14035231E-02 0.34281552E+02</pdfrwt>
<totfact> 0.15097796E+07</totfact>
</mgrwt>
</event>
<event>
 4    1  0.4594485E+006  0.2086324E+02  0.7546771E-02  0.1728687E+00
         21   -1    0    0  503  501  0.00000000000E+00  0.00000000000E+00  0.12158988971E+03  0.12158988971E+03  0.00000000000E+00 0.  1.
         21   -1    0    0  504  502 -0.00000000000E+00 -0.00000000000E+00 -0.45945088395E+01  0.45945088395E+01  0.00000000000E+00 0.  1.
         21    1    1    2  503  502 -0.59930884298E+01  0.19983935321E+02  0.88146960567E+02  0.90582346167E+02  0.00000000000E+00 0.  1.
         21    1    1    2  504  501  0.59930884298E+01 -0.19983935321E+02  0.28848420301E+02  0.35602052380E+02  0.00000000000E+00 0.  1.
<mgrwt>
<rscale>  2 0.20863240E+02</rscale>
<asrwt>0</asrwt>
<pdfrwt beam="1">  1       21 0.18706134E-01 0.20863240E+02</pdfrwt>
<pdfrwt beam="2">  1       21 0.70684761E-03 0.20863240E+02</pdfrwt>
<totfact> 0.11303542E+08</totfact>
</mgrwt>
</event>
<event>
 4    1  0.4594485E+006  0.2021978E+02  0.7546771E-02  0.1740992E+00
         21   -1    0    0  502  501  0.00000000000E+00  0.00000000000E+00  0.99236738344E+02  0.99236738344E+02  0.00000000000E+00 0.  1.
         21   -1    0    0  504  502 -0.00000000000E+00 -0.00000000000E+00 -0.76075895469E+01  0.76075895469E+01  0.00000000000E+00 0. -1.
         21    1    1    2  503  501  0.19549529262E+02 -0.51628923245E+01  0.81986409512E+02  0.84442944620E+02  0.00000000000E+00 0.  1.
         21    1    1    2  504  503 -0.19549529262E+02  0.51628923245E+01  0.96427392852E+01  0.22401383271E+02  0.00000000000E+00 0. -1.
<mgrwt>
<rscale>  2 0.20219781E+02</rscale>
<asrwt>0</asrwt>
<pdfrwt beam="1">  1       21 0.15267190E-01 0.20219781E+02</pdfrwt>
<pdfrwt beam="2">  1       21 0.11703985E-02 0.20219781E+02</pdfrwt>
<totfact> 0.74734838E+07</totfact>
</mgrwt>
</event>
<event>
 4    1  0.4594485E+006  0.2075892E+02  0.7546771E-02  0.1730644E+00
         21   -1    0    0  503  501  0.00000000000E+00  0.00000000000E+00  0.68944792978E+01  0.68944792978E+01  0.00000000000E+00 0. -1.
         21   -1    0    0  504  502 -0.00000000000E+00 -0.00000000000E+00 -0.93079690080E+02  0.93079690080E+02  0.00000000000E+00 0.  1.
         21    1    1    2  503  502  0.19315483313E+02 -0.76055912741E+01 -0.71742173987E+02  0.74685155437E+02  0.00000000000E+00 0.  1.
         21    1    1    2  504  501 -0.19315483313E+02  0.76055912741E+01 -0.14443036794E+02  0.25289013940E+02  0.00000000000E+00 0. -1.
<mgrwt>
<rscale>  2 0.20758924E+02</rscale>
<asrwt>0</asrwt>
<pdfrwt beam="1">  1       21 0.10606892E-02 0.20758924E+02</pdfrwt>
<pdfrwt beam="2">  1       21 0.14319951E-01 0.20758924E+02</pdfrwt>
<totfact> 0.97265085E+07</totfact>
</mgrwt>
</event>
<event>
 4    1  0.4594485E+006  0.2893192E+02  0.7546771E-02  0.1610204E+00
         21   -1    0    0  503  501  0.00000000000E+00  0.00000000000E+00  0.43303048489E+01  0.43303048489E+01  0.00000000000E+00 0. -1.
         21   -1    0    0  504  502 -0.00000000000E+00 -0.00000000000E+00 -0.21475465931E+03  0.21475465931E+03  0.00000000000E+00 0.  1.
         21    1    1    2  503  502 -0.23506218777E+02 -0.16867534107E+02 -0.70590097175E+02  0.76289041462E+02  0.00000000000E+00 0. -1.
         21    1    1    2  504  501  0.23506218777E+02  0.16867534107E+02 -0.13983425728E+03  0.14279592269E+03  0.00000000000E+00 0.  1.
<mgrwt>
<rscale>  2 0.28931921E+02</rscale>
<asrwt>0</asrwt>
<pdfrwt beam="1">  1       21 0.66620053E-03 0.28931921E+02</pdfrwt>
<pdfrwt beam="2">  1       21 0.33039189E-01 0.28931921E+02</pdfrwt>
<totfact> 0.48459867E+07</totfact>
</mgrwt>
</event>
<event>
 4    1  0.4594485E+006  0.2251854E+02  0.7546771E-02  0.1699435E+00
         21   -1    0    0  503  501  0.00000000000E+00  0.00000000000E+00  0.32022203746E+02  0.32022203746E+02  0.00000000000E+00 0.  1.
         21   -1    0    0  504  502 -0.00000000000E+00 -0.00000000000E+00 -0.30128372670E+02  0.30128372670E+02  0.00000000000E+00 0.  1.
         21    1    1    2  503  502 -0.19440575849E+02 -0.11364354216E+02 -0.20456769295E+02  0.30423082455E+02  0.00000000000E+00 0.  1.
         21    1    1    2  504  501  0.19440575849E+02  0.11364354216E+02  0.22350600371E+02  0.31727493961E+02  0.00000000000E+00 0.  1.
<mgrwt>
<rscale>  2 0.22518538E+02</rscale>
<asrwt>0</asrwt>
<pdfrwt beam="1">  1       21 0.49264929E-02 0.22518538E+02</pdfrwt>
<pdfrwt beam="2">  1       21 0.46351343E-02 0.22518538E+02</pdfrwt>
<totfact> 0.58902672E+07</totfact>
</mgrwt>
</event>
<event>
 4    1  0.4594485E+006  0.2191846E+02  0.7546771E-02  0.1709666E+00
         21   -1    0    0  504  501  0.00000000000E+00  0.00000000000E+00  0.54644497397E+03  0.54644497397E+03  0.00000000000E+00 0. -1.
         21   -1    0    0  501  502 -0.00000000000E+00 -0.00000000000E+00 -0.18565185577E+03  0.18565185577E+03  0.00000000000E+00 0.  1.
         21    1    1    2  503  502  0.69759559406E+01 -0.20778716632E+02 -0.18478409886E+03  0.18607950510E+03  0.00000000000E+00 0.  1.
         21    1    1    2  504  503 -0.69759559406E+01  0.20778716632E+02  0.54557721706E+03  0.54601732464E+03  0.00000000000E+00 0. -1.
<mgrwt>
<rscale>  2 0.21918463E+02</rscale>
<asrwt>0</asrwt>
<pdfrwt beam="1">  1       21 0.84068457E-01 0.21918463E+02</pdfrwt>
<pdfrwt beam="2">  1       21 0.28561824E-01 0.21918463E+02</pdfrwt>
<totfact> 0.17876168E+04</totfact>
</mgrwt>
</event>
<event>
 4    1  0.4594485E+006  0.2201152E+02  0.7546771E-02  0.1708053E+00
         21   -1    0    0  504  501  0.00000000000E+00  0.00000000000E+00  0.13501609999E+01  0.13501609999E+01  0.00000000000E+00 0.  1.
         21   -1    0    0  501  502 -0.00000000000E+00 -0.00000000000E+00 -0.50737200123E+03  0.50737200123E+03  0.00000000000E+00 0.  1.
         21    1    1    2  503  502 -0.11923386288E+01 -0.21979205458E+02 -0.39063067678E+03  0.39125034541E+03  0.00000000000E+00 0.  1.
         21    1    1    2  504  503  0.11923386288E+01  0.21979205458E+02 -0.11539116345E+03  0.11747181682E+03  0.00000000000E+00 0.  1.
<mgrwt>
<rscale>  2 0.22011523E+02</rscale>
<asrwt>0</asrwt>
<pdfrwt beam="1">  1       21 0.20771709E-03 0.22011523E+02</pdfrwt>
<pdfrwt beam="2">  1       21 0.78057226E-01 0.22011523E+02</pdfrwt>
<totfact> 0.46825972E+07</totfact>
</mgrwt>
</event>
<event>
 4    1  0.4594485E+006  0.2146933E+02  0.7546771E-02  0.1717595E+00
         21   -1    0    0  503  501  0.00000000000E+00  0.00000000000E+00  0.65607527985E+02  0.65607527985E+02  0.00000000000E+00 0.  1.
         21   -1    0    0  504  502 -0.00000000000E+00 -0.00000000000E+00 -0.10513234819E+03  0.10513234819E+03  0.00000000000E+00 0.  1.
         21    1    1    2  503  502 -0.42490396083E+01 -0.21044659914E+02  0.62705735938E+02  0.66279268011E+02  0.00000000000E+00 0.  1.
         21    1    1    2  504  501  0.42490396083E+01  0.21044659914E+02 -0.10223055614E+03  0.10446060816E+03  0.00000000000E+00 0.  1.
<mgrwt>
<rscale>  2 0.21469328E+02</rscale>
<asrwt>0</asrwt>
<pdfrwt beam="1">  1       21 0.10093466E-01 0.21469328E+02</pdfrwt>
<pdfrwt beam="2">  1       21 0.16174207E-01 0.21469328E+02</pdfrwt>
<totfact> 0.23548527E+06</totfact>
</mgrwt>
</event>
<event>
 4    1  0.4594485E+006  0.3396351E+02  0.7546771E-02  0.1558002E+00
         21   -1    0    0  504  501  0.00000000000E+00  0.00000000000E+00  0.27210709714E+03  0.27210709714E+03  0.00000000000E+00 0. -1.
         21   -1    0    0  501  502 -0.00000000000E+00 -0.00000000000E+00 -0.15340099833E+02  0.15340099833E+02  0.00000000000E+00 0. -1.
         21    1    1    2  503  502  0.17389838036E+02 -0.29173849879E+02  0.61211247211E+01  0.34510696190E+02  0.00000000000E+00 0. -1.
         21    1    1    2  504  503 -0.17389838036E+02  0.29173849879E+02  0.25064587258E+03  0.25293650078E+03  0.00000000000E+00 0. -1.
<mgrwt>
<rscale>  2 0.33963510E+02</rscale>
<asrwt>0</asrwt>
<pdfrwt beam="1">  1       21 0.41862627E-01 0.33963510E+02</pdfrwt>
<pdfrwt beam="2">  1       21 0.23600155E-02 0.33963510E+02</pdfrwt>
<totfact> 0.45977945E+06</totfact>
</mgrwt>
</event>
<event>
 4    1  0.4594485E+006  0.2035658E+02  0.7546771E-02  0.1738329E+00
         21   -1    0    0  502  501  0.00000000000E+00  0.00000000000E+00  0.43098776221E+01  0.43098776221E+01  0.00000000000E+00 0. -1.
         21   -1    0    0  503  502 -0.00000000000E+00 -0.00000000000E+00 -0.22606763737E+03  0.22606763737E+03  0.00000000000E+00 0. -1.
         21    1    1    2  503  504 -0.19190423004E+02  0.67910190418E+01 -0.19820148468E+03  0.19924411862E+03  0.00000000000E+00 0. -1.
         21    1    1    2  504  501  0.19190423004E+02 -0.67910190418E+01 -0.23556275068E+02  0.31133396374E+02  0.00000000000E+00 0. -1.
<mgrwt>
<rscale>  2 0.20356578E+02</rscale>
<asrwt>0</asrwt>
<pdfrwt beam="1">  1       21 0.66305800E-03 0.20356578E+02</pdfrwt>
<pdfrwt beam="2">  1       21 0.34779642E-01 0.20356578E+02</pdfrwt>
<totfact> 0.40928204E+07</totfact>
</mgrwt>
</event>
<event>
 4    1  0.4594485E+006  0.2034026E+02  0.7546771E-02  0.1738645E+00
         21   -1    0    0  502  501  0.00000000000E+00  0.00000000000E+00  0.30755309134E+02  0.30755309134E+02  0.00000000000E+00 0.  1.
         21   -1    0    0  504  502 -0.00000000000E+00 -0.00000000000E+00 -0.39844127759E+02  0.39844127759E+02  0.00000000000E+00 0.  1.
         21    1    1    2  503  501  0.78091372362E+00 -0.20325266912E+02  0.24184868441E+02  0.31601173440E+02  0.00000000000E+00 0.  1.
         21    1    1    2  504  503 -0.78091372362E+00  0.20325266912E+02 -0.33273687066E+02  0.38998263452E+02  0.00000000000E+00 0.  1.
<mgrwt>
<rscale>  2 0.20340263E+02</rscale>
<asrwt>0</asrwt>
<pdfrwt beam="1">  1       21 0.47315860E-02 0.20340263E+02</pdfrwt>
<pdfrwt beam="2">  1       21 0.61298658E-02 0.20340263E+02</pdfrwt>
<totfact> 0.39175845E+07</totfact>
</mgrwt>
</event>
<event>
 4    1  0.4594485E+006  0.2865698E+02  0.7546771E-02  0.1613427E+00
         21   -1    0    0  503  501  0.00000000000E+00  0.00000000000E+00  0.51948381551E+02  0.51948381551E+02  0.00000000000E+00 0. -1.
         21   -1    0    0  501  502 -0.00000000000E+00 -0.00000000000E+00 -0.95161158913E+02  0.95161158913E+02  0.00000000000E+00 0. -1.
         21    1    1    2  503  504  0.27051032068E+02  0.94585543563E+01  0.45561531837E+02  0.53824490428E+02  0.00000000000E+00 0. -1.
         21    1    1    2  504  502 -0.27051032068E+02 -0.94585543563E+01 -0.88774309199E+02  0.93285050036E+02  0.00000000000E+00 0. -1.
<mgrwt>
<rscale>  2 0.28656981E+02</rscale>
<asrwt>0</asrwt>
<pdfrwt beam="1">  1       21 0.79920588E-02 0.28656981E+02</pdfrwt>
<pdfrwt beam="2">  1       21 0.14640178E-01 0.28656981E+02</pdfrwt>
<totfact> 0.42691037E+06</totfact>
</mgrwt>
</event>
<event>
 4    1  0.4594485E+006  0.2212578E+02  0.7546771E-02  0.1706086E+00
         21   -1    0    0  504  501  0.00000000000E+00  0.00000000000E+00  0.77415526925E+03  0.77415526925E+03  0.00000000000E+00 0.  1.
         21   -1    0    0  501  502 -0.00000000000E+00 -0.00000000000E+00 -0.13933163117E+01  0.13933163117E+01  0.00000000000E+00 0.  1.
         21    1    1    2  503  502 -0.15639694093E+02 -0.15650879657E+02  0.99810078687E+02  0.10223307622E+03  0.00000000000E+00 0.  1.
         21    1    1    2  504  503  0.15639694093E+02  0.15650879657E+02  0.67295187425E+03  0.67331550934E+03  0.00000000000E+00 0.  1.
<mgrwt>
<rscale>  2 0.22125778E+02</rscale>
<asrwt>0</asrwt>
<pdfrwt beam="1">  1       21 0.11910047E+00 0.22125778E+02</pdfrwt>
<pdfrwt beam="2">  1       21 0.21435697E-03 0.22125778E+02</pdfrwt>
<totfact> 0.17924878E+07</totfact>
</mgrwt>
</event>
<event>
 4    1  0.4594485E+006  0.2470578E+02  0.7546771E-02  0.1665264E+00
         21   -1    0    0  503  501  0.00000000000E+00  0.00000000000E+00  0.23499417778E+02  0.23499417778E+02  0.00000000000E+00 0.  1.
         21   -1    0    0  504  502 -0.00000000000E+00 -0.00000000000E+00 -0.43973179173E+03  0.43973179173E+03  0.00000000000E+00 0. -1.
         21    1    1    2  503  502 -0.50996979042E+01 -0.24173721692E+02 -0.43278714354E+03  0.43349173851E+03  0.00000000000E+00 0. -1.
         21    1    1    2  504  501  0.50996979042E+01  0.24173721692E+02  0.16554769591E+02  0.29739471000E+02  0.00000000000E+00 0.  1.
<mgrwt>
<rscale>  2 0.24705784E+02</rscale>
<asrwt>0</asrwt>
<pdfrwt beam="1">  1       21 0.36152951E-02 0.24705784E+02</pdfrwt>
<pdfrwt beam="2">  1       21 0.67651044E-01 0.24705784E+02</pdfrwt>
<totfact> 0.88137150E+05</totfact>
</mgrwt>
</event>
<event>
 4    1  0.4594485E+006  0.2209617E+02  0.7546771E-02  0.1706594E+00
         21   -1    0    0  504  501  0.00000000000E+00  0.00000000000E+00  0.20373334654E+03  0.20373334654E+03  0.00000000000E+00 0.  1.
         21   -1    0    0  503  502 -0.00000000000E+00 -0.00000000000E+00 -0.63879816744E+02  0.63879816744E+02  0.00000000000E+00 0. -1.
         21    1    1    2  503  501 -0.19313826669E+02 -0.10733903273E+02 -0.61345929599E+02  0.65204015662E+02  0.00000000000E+00 0. -1.
         21    1    1    2  504  502  0.19313826669E+02  0.10733903273E+02  0.20119945939E+03  0.20240914762E+03  0.00000000000E+00 0.  1.
<mgrwt>
<rscale>  2 0.22096167E+02</rscale>
<asrwt>0</asrwt>
<pdfrwt beam="1">  1       21 0.31343592E-01 0.22096167E+02</pdfrwt>
<pdfrwt beam="2">  1       21 0.98276642E-02 0.22096167E+02</pdfrwt>
<totfact> 0.76939051E+05</totfact>
</mgrwt>
</event>
<event>
 4    1  0.4594485E+006  0.2046091E+02  0.7546771E-02  0.1736315E+00
         21   -1    0    0  504  501  0.00000000000E+00  0.00000000000E+00  0.31763956503E+03  0.31763956503E+03  0.00000000000E+00 0.  1.
         21   -1    0    0  503  502 -0.00000000000E+00 -0.00000000000E+00 -0.20437399913E+03  0.20437399913E+03  0.00000000000E+00 0. -1.
         21    1    1    2  503  501  0.91366100296E+01  0.18307683456E+02 -0.20353102660E+03  0.20455690579E+03  0.00000000000E+00 0. -1.
         21    1    1    2  504  502 -0.91366100296E+01 -0.18307683456E+02  0.31679659250E+03  0.31745665836E+03  0.00000000000E+00 0.  1.
<mgrwt>
<rscale>  2 0.20460912E+02</rscale>
<asrwt>0</asrwt>
<pdfrwt beam="1">  1       21 0.48867625E-01 0.20460912E+02</pdfrwt>
<pdfrwt beam="2">  1       21 0.31442154E-01 0.20460912E+02</pdfrwt>
<totfact> 0.44992117E+04</totfact>
</mgrwt>
</event>
<event>
 4    1  0.4594485E+006  0.2487612E+02  0.7546771E-02  0.1662788E+00
         21   -1    0    0  503  501  0.00000000000E+00  0.00000000000E+00  0.61741240396E+02  0.61741240396E+02  0.00000000000E+00 0.  1.
         21   -1    0    0  504  502 -0.00000000000E+00 -0.00000000000E+00 -0.18030998928E+02  0.18030998928E+02  0.00000000000E+00 0. -1.
         21    1    1    2  503  502 -0.63862448716E+00  0.24867921765E+02  0.48436576548E+02  0.54451109464E+02  0.00000000000E+00 0.  1.
         21    1    1    2  504  501  0.63862448716E+00 -0.24867921765E+02 -0.47263350802E+01  0.25321129861E+02  0.00000000000E+00 0. -1.
<mgrwt>
<rscale>  2 0.24876121E+02</rscale>
<asrwt>0</asrwt>
<pdfrwt beam="1">  1       21 0.94986523E-02 0.24876121E+02</pdfrwt>
<pdfrwt beam="2">  1       21 0.27739999E-02 0.24876121E+02</pdfrwt>
<totfact> 0.46722329E+07</totfact>
</mgrwt>
</event>
<event>
 4    1  0.4594485E+006  0.2351970E+02  0.7546771E-02  0.1683222E+00
         21   -1    0    0  503  501  0.00000000000E+00  0.00000000000E+00  0.23128889899E+03  0.23128889899E+03  0.00000000000E+00 0.  1.
         21   -1    0    0  504  502 -0.00000000000E+00 -0.00000000000E+00 -0.46149668848E+01  0.46149668848E+01  0.00000000000E+00 0. -1.
         21    1    1    2  503  502 -0.21363150517E+02  0.98382943328E+01  0.31468721212E+02  0.39286850855E+02  0.00000000000E+00 0. -1.
         21    1    1    2  504  501  0.21363150517E+02 -0.98382943328E+01  0.19520521089E+03  0.19661701501E+03  0.00000000000E+00 0.  1.
<mgrwt>
<rscale>  2 0.23519699E+02</rscale>
<asrwt>0</asrwt>
<pdfrwt beam="1">  1       21 0.35582898E-01 0.23519699E+02</pdfrwt>
<pdfrwt beam="2">  1       21 0.70999509E-03 0.23519699E+02</pdfrwt>
<totfact> 0.36687032E+07</totfact>
</mgrwt>
</event>
<event>
 4    1  0.4594485E+006  0.2141474E+02  0.7546771E-02  0.1718575E+00
         21   -1    0    0  504  501  0.00000000000E+00  0.00000000000E+00  0.14687515065E+03  0.14687515065E+03  0.00000000000E+00 0. -1.
         21   -1    0    0  503  502 -0.00000000000E+00 -0.00000000000E+00 -0.36968310177E+01  0.36968310177E+01  0.00000000000E+00 0.  1.
         21    1    1    2  503  501 -0.10743813946E+02  0.18524614855E+02  0.10126816861E+03  0.10350764642E+03  0.00000000000E+00 0. -1.
         21    1    1    2  504  502  0.10743813946E+02 -0.18524614855E+02  0.41910151019E+02  0.47064335245E+02  0.00000000000E+00 0.  1.
<mgrwt>
<rscale>  2 0.21414735E+02</rscale>
<asrwt>0</asrwt>
<pdfrwt beam="1">  1       21 0.22596173E-01 0.21414735E+02</pdfrwt>
<pdfrwt beam="2">  1       21 0.56874335E-03 0.21414735E+02</pdfrwt>
<totfact> 0.11300637E+08</totfact>
</mgrwt>
</event>
<event>
 4    1  0.4594485E+006  0.2414318E+02  0.7546771E-02  0.1673623E+00
         21   -1    0    0  502  501  0.00000000000E+00  0.00000000000E+00  0.18472808754E+02  0.18472808754E+02  0.00000000000E+00 0.  1.
         21   -1    0    0  503  502 -0.00000000000E+00 -0.00000000000E+00 -0.19701572605E+03  0.19701572605E+03  0.00000000000E+00 0.  1.
         21    1    1    2  503  504 -0.12491378714E+02 -0.20660560059E+02 -0.18801128049E+03  0.18955509720E+03  0.00000000000E+00 0.  1.
         21    1    1    2  504  501  0.12491378714E+02  0.20660560059E+02  0.94683631962E+01  0.25933437599E+02  0.00000000000E+00 0.  1.
<mgrwt>
<rscale>  2 0.24143183E+02</rscale>
<asrwt>0</asrwt>
<pdfrwt beam="1">  1       21 0.28419705E-02 0.24143183E+02</pdfrwt>
<pdfrwt beam="2">  1       21 0.30310113E-01 0.24143183E+02</pdfrwt>
<totfact> 0.60126391E+06</totfact>
</mgrwt>
</event>
<event>
 4    1  0.4594485E+006  0.2063636E+02  0.7546771E-02  0.1732962E+00
         21   -1    0    0  503  501  0.00000000000E+00  0.00000000000E+00  0.14936927927E+02  0.14936927927E+02  0.00000000000E+00 0.  1.
         21   -1    0    0  504  502 -0.00000000000E+00 -0.00000000000E+00 -0.12926699749E+03  0.12926699749E+03  0.00000000000E+00 0.  1.
         21    1    1    2  503  502  0.72163087990E+01 -0.19333501089E+02 -0.12082109762E+03  0.12257078366E+03  0.00000000000E+00 0.  1.
         21    1    1    2  504  501 -0.72163087990E+01  0.19333501089E+02  0.64910280560E+01  0.21633141757E+02  0.00000000000E+00 0.  1.
<mgrwt>
<rscale>  2 0.20636361E+02</rscale>
<asrwt>0</asrwt>
<pdfrwt beam="1">  1       21 0.22979890E-02 0.20636361E+02</pdfrwt>
<pdfrwt beam="2">  1       21 0.19887230E-01 0.20636361E+02</pdfrwt>
<totfact> 0.17142279E+07</totfact>
</mgrwt>
</event>
<event>
 4    1  0.4594485E+006  0.2056046E+02  0.7546771E-02  0.1734407E+00
         21   -1    0    0  504  501  0.00000000000E+00  0.00000000000E+00  0.32314470731E+02  0.32314470731E+02  0.00000000000E+00 0.  1.
         21   -1    0    0  503  502 -0.00000000000E+00 -0.00000000000E+00 -0.17272561153E+02  0.17272561153E+02  0.00000000000E+00 0.  1.
         21    1    1    2  503  501 -0.20388278141E+02  0.26552933674E+01 -0.46915447221E+01  0.21088932175E+02  0.00000000000E+00 0.  1.
         21    1    1    2  504  502  0.20388278141E+02 -0.26552933674E+01  0.19733454300E+02  0.28498099709E+02  0.00000000000E+00 0.  1.
<mgrwt>
<rscale>  2 0.20560459E+02</rscale>
<asrwt>0</asrwt>
<pdfrwt beam="1">  1       21 0.49714570E-02 0.20560459E+02</pdfrwt>
<pdfrwt beam="2">  1       21 0.26573171E-02 0.20560459E+02</pdfrwt>
<totfact> 0.13497052E+08</totfact>
</mgrwt>
</event>
<event>
 4    1  0.4594485E+006  0.2202599E+02  0.7546771E-02  0.1707803E+00
         21   -1    0    0  503  501  0.00000000000E+00  0.00000000000E+00  0.33095878920E+03  0.33095878920E+03  0.00000000000E+00 0. -1.
         21   -1    0    0  504  502 -0.00000000000E+00 -0.00000000000E+00 -0.63914517660E+01  0.63914517660E+01  0.00000000000E+00 0. -1.
         21    1    1    2  503  502  0.29600561794E+01 -0.21826180344E+02  0.14209318680E+02  0.26211616096E+02  0.00000000000E+00 0. -1.
         21    1    1    2  504  501 -0.29600561794E+01  0.21826180344E+02  0.31035801875E+03  0.31113862487E+03  0.00000000000E+00 0. -1.
<mgrwt>
<rscale>  2 0.22025986E+02</rscale>
<asrwt>0</asrwt>
<pdfrwt beam="1">  1       21 0.50916724E-01 0.22025986E+02</pdfrwt>
<pdfrwt beam="2">  1       21 0.98330053E-03 0.22025986E+02</pdfrwt>
<totfact> 0.11261289E+07</totfact>
</mgrwt>
</event>
<event>
 4    1  0.4594485E+006  0.2231030E+02  0.7546771E-02  0.1702940E+00
         21   -1    0    0  504  501  0.00000000000E+00  0.00000000000E+00  0.12233930872E+01  0.12233930872E+01  0.00000000000E+00 0. -1.
         21   -1    0    0  503  502 -0.00000000000E+00 -0.00000000000E+00 -0.44270016670E+03  0.44270016670E+03  0.00000000000E+00 0. -1.
         21    1    1    2  503  501 -0.17944689290E+02 -0.13256608429E+02 -0.15758317270E+03  0.15915466019E+03  0.00000000000E+00 0. -1.
         21    1    1    2  504  502  0.17944689290E+02  0.13256608429E+02 -0.28389360091E+03  0.28476889960E+03  0.00000000000E+00 0. -1.
<mgrwt>
<rscale>  2 0.22310301E+02</rscale>
<asrwt>0</asrwt>
<pdfrwt beam="1">  1       21 0.18821378E-03 0.22310301E+02</pdfrwt>
<pdfrwt beam="2">  1       21 0.68107915E-01 0.22310301E+02</pdfrwt>
<totfact> 0.71721456E+07</totfact>
</mgrwt>
</event>
<event>
 4    1  0.4594485E+006  0.2131145E+02  0.7546771E-02  0.1720439E+00
         21   -1    0    0  502  501  0.00000000000E+00  0.00000000000E+00  0.56517054328E+01  0.56517054328E+01  0.00000000000E+00 0. -1.
         21   -1    0    0  504  502 -0.00000000000E+00 -0.00000000000E+00 -0.94982207468E+02  0.94982207468E+02  0.00000000000E+00 0. -1.
         21    1    1    2  503  501  0.20372430628E+02  0.62563617357E+01 -0.24923691376E+02  0.32792809938E+02  0.00000000000E+00 0. -1.
         21    1    1    2  504  503 -0.20372430628E+02 -0.62563617357E+01 -0.64406810659E+02  0.67841102962E+02  0.00000000000E+00 0. -1.
<mgrwt>
<rscale>  2 0.21311452E+02</rscale>
<asrwt>0</asrwt>
<pdfrwt beam="1">  1       21 0.86949320E-03 0.21311452E+02</pdfrwt>
<pdfrwt beam="2">  1       21 0.14612646E-01 0.21311452E+02</pdfrwt>
<totfact> 0.12749687E+08</totfact>
</mgrwt>
</event>
<event>
 4    1  0.4594485E+006  0.3247028E+02  0.7546771E-02  0.1572285E+00
         21   -1    0    0  503  501  0.00000000000E+00  0.00000000000E+00  0.73196567820E+02  0.73196567820E+02  0.00000000000E+00 0.  1.
         21   -1    0    0  501  502 -0.00000000000E+00 -0.00000000000E+00 -0.48731319856E+02  0.48731319856E+02  0.00000000000E+00 0. -1.
         21    1    1    2  503  504 -0.11074934956E+02  0.30523189314E+02  0.63399543273E+02  0.71230761314E+02  0.00000000000E+00 0.  1.
         21    1    1    2  504  502  0.11074934956E+02 -0.30523189314E+02 -0.38934295308E+02  0.50697126362E+02  0.00000000000E+00 0. -1.
<mgrwt>
<rscale>  2 0.32470283E+02</rscale>
<asrwt>0</asrwt>
<pdfrwt beam="1">  1       21 0.11261010E-01 0.32470283E+02</pdfrwt>
<pdfrwt beam="2">  1       21 0.74971262E-02 0.32470283E+02</pdfrwt>
<totfact> 0.75432279E+06</totfact>
</mgrwt>
</event>
<event>
 4    1  0.4594485E+006  0.2435944E+02  0.7546771E-02  0.1670377E+00
         21   -1    0    0  504  501  0.00000000000E+00  0.00000000000E+00  0.37193125164E+01  0.37193125164E+01  0.00000000000E+00 0. -1.
         21   -1    0    0  503  502 -0.00000000000E+00 -0.00000000000E+00 -0.18738557940E+03  0.18738557940E+03  0.00000000000E+00 0. -1.
         21    1    1    2  503  501  0.21732003421E+02  0.11004648099E+02 -0.54999438683E+02  0.60152477156E+02  0.00000000000E+00 0. -1.
         21    1    1    2  504  502 -0.21732003421E+02 -0.11004648099E+02 -0.12866682820E+03  0.13095241476E+03  0.00000000000E+00 0. -1.
<mgrwt>
<rscale>  2 0.24359439E+02</rscale>
<asrwt>0</asrwt>
<pdfrwt beam="1">  1       21 0.57220198E-03 0.24359439E+02</pdfrwt>
<pdfrwt beam="2">  1       21 0.28828548E-01 0.24359439E+02</pdfrwt>
<totfact> 0.75044817E+07</totfact>
</mgrwt>
</event>
<event>
 4    1  0.4594485E+006  0.2579087E+02  0.7546771E-02  0.1649896E+00
         21   -1    0    0  503  501  0.00000000000E+00  0.00000000000E+00  0.16388685130E+03  0.16388685130E+03  0.00000000000E+00 0.  1.
         21   -1    0    0  504  502 -0.00000000000E+00 -0.00000000000E+00 -0.85293795563E+01  0.85293795563E+01  0.00000000000E+00 0. -1.
         21    1    1    2  503  502  0.24322356481E+02  0.85785662936E+01  0.14009184650E+03  0.14244611009E+03  0.00000000000E+00 0.  1.
         21    1    1    2  504  501 -0.24322356481E+02 -0.85785662936E+01  0.15265625238E+02  0.29970120760E+02  0.00000000000E+00 0. -1.
<mgrwt>
<rscale>  2 0.25790867E+02</rscale>
<asrwt>0</asrwt>
<pdfrwt beam="1">  1       21 0.25213359E-01 0.25790867E+02</pdfrwt>
<pdfrwt beam="2">  1       21 0.13122124E-02 0.25790867E+02</pdfrwt>
<totfact> 0.27859338E+07</totfact>
</mgrwt>
</event>
<event>
 4    1  0.4594485E+006  0.6837094E+02  0.7546771E-02  0.1365722E+00
         21   -1    0    0  503  501  0.00000000000E+00  0.00000000000E+00  0.23031840693E+03  0.23031840693E+03  0.00000000000E+00 0. -1.
         21   -1    0    0  504  502 -0.00000000000E+00 -0.00000000000E+00 -0.15397193840E+03  0.15397193840E+03  0.00000000000E+00 0.  1.
         21    1    1    2  503  502  0.67747650096E+02  0.92109666953E+01 -0.14086055453E+03  0.15657676016E+03  0.00000000000E+00 0.  1.
         21    1    1    2  504  501 -0.67747650096E+02 -0.92109666953E+01  0.21720702306E+03  0.22771358516E+03  0.00000000000E+00 0. -1.
<mgrwt>
<rscale>  2 0.68370944E+02</rscale>
<asrwt>0</asrwt>
<pdfrwt beam="1">  1       21 0.35433601E-01 0.68370944E+02</pdfrwt>
<pdfrwt beam="2">  1       21 0.23687991E-01 0.68370944E+02</pdfrwt>
<totfact> 0.13503936E+05</totfact>
</mgrwt>
</event>
<event>
 4    1  0.4594485E+006  0.3109286E+02  0.7546771E-02  0.1586313E+00
         21   -1    0    0  504  501  0.00000000000E+00  0.00000000000E+00  0.11971884335E+03  0.11971884335E+03  0.00000000000E+00 0.  1.
         21   -1    0    0  503  502 -0.00000000000E+00 -0.00000000000E+00 -0.23844773777E+02  0.23844773777E+02  0.00000000000E+00 0.  1.
         21    1    1    2  503  501 -0.25969667407E+02 -0.17098029809E+02 -0.10437887621E+02  0.32798105838E+02  0.00000000000E+00 0.  1.
         21    1    1    2  504  502  0.25969667407E+02  0.17098029809E+02  0.10631195719E+03  0.11076551129E+03  0.00000000000E+00 0.  1.
<mgrwt>
<rscale>  2 0.31092865E+02</rscale>
<asrwt>0</asrwt>
<pdfrwt beam="1">  1       21 0.18418283E-01 0.31092865E+02</pdfrwt>
<pdfrwt beam="2">  1       21 0.36684268E-02 0.31092865E+02</pdfrwt>
<totfact> 0.10205250E+07</totfact>
</mgrwt>
</event>
<event>
 4    1  0.4594485E+006  0.2478508E+02  0.7546771E-02  0.1664108E+00
         21   -1    0    0  503  501  0.00000000000E+00  0.00000000000E+00  0.83303775006E+01  0.83303775006E+01  0.00000000000E+00 0.  1.
         21   -1    0    0  504  502 -0.00000000000E+00 -0.00000000000E+00 -0.76872199406E+02  0.76872199406E+02  0.00000000000E+00 0.  1.
         21    1    1    2  503  502  0.23881551296E+02 -0.66311160306E+01 -0.25674609484E+02  0.35685932302E+02  0.00000000000E+00 0.  1.
         21    1    1    2  504  501 -0.23881551296E+02  0.66311160306E+01 -0.42867212422E+02  0.49516644605E+02  0.00000000000E+00 0.  1.
<mgrwt>
<rscale>  2 0.24785080E+02</rscale>
<asrwt>0</asrwt>
<pdfrwt beam="1">  1       21 0.12815965E-02 0.24785080E+02</pdfrwt>
<pdfrwt beam="2">  1       21 0.11826492E-01 0.24785080E+02</pdfrwt>
<totfact> 0.10608968E+08</totfact>
</mgrwt>
</event>
<event>
 4    1  0.4594485E+006  0.3221253E+02  0.7546771E-02  0.1574845E+00
         21   -1    0    0  504  501  0.00000000000E+00  0.00000000000E+00  0.10915470304E+03  0.10915470304E+03  0.00000000000E+00 0. -1.
         21   -1    0    0  503  502 -0.00000000000E+00 -0.00000000000E+00 -0.96951724489E+01  0.96951724489E+01  0.00000000000E+00 0.  1.
         21    1    1    2  503  501 -0.16151178830E+02 -0.27870894089E+02  0.41433531535E+02  0.52482233664E+02  0.00000000000E+00 0.  1.
         21    1    1    2  504  502  0.16151178830E+02  0.27870894089E+02  0.58025999054E+02  0.66367641823E+02  0.00000000000E+00 0. -1.
<mgrwt>
<rscale>  2 0.32212534E+02</rscale>
<asrwt>0</asrwt>
<pdfrwt beam="1">  1       21 0.16793030E-01 0.32212534E+02</pdfrwt>
<pdfrwt beam="2">  1       21 0.14915651E-02 0.32212534E+02</pdfrwt>
<totfact> 0.49193243E+07</totfact>
</mgrwt>
</event>
<event>
 4    1  0.4594485E+006  0.3800579E+02  0.7546771E-02  0.1523421E+00
         21   -1    0    0  504  501  0.00000000000E+00  0.00000000000E+00  0.16956175829E+02  0.16956175829E+02  0.00000000000E+00 0. -1.
         21   -1    0    0  503  502 -0.00000000000E+00 -0.00000000000E+00 -0.25839405355E+03  0.25839405355E+03  0.00000000000E+00 0. -1.
         21    1    1    2  503  501  0.35369055161E+02  0.13909348760E+02 -0.79998685355E+01  0.38838614065E+02  0.00000000000E+00 0. -1.
         21    1    1    2  504  502 -0.35369055161E+02 -0.13909348760E+02 -0.23343800919E+03  0.23651161532E+03  0.00000000000E+00 0. -1.
<mgrwt>
<rscale>  2 0.38005790E+02</rscale>
<asrwt>0</asrwt>
<pdfrwt beam="1">  1       21 0.26086426E-02 0.38005790E+02</pdfrwt>
<pdfrwt beam="2">  1       21 0.39752929E-01 0.38005790E+02</pdfrwt>
<totfact> 0.43939073E+06</totfact>
</mgrwt>
</event>
<event>
 4    1  0.4594485E+006  0.2053181E+02  0.7546771E-02  0.1734955E+00
         21   -1    0    0  502  501  0.00000000000E+00  0.00000000000E+00  0.23657548036E+03  0.23657548036E+03  0.00000000000E+00 0. -1.
         21   -1    0    0  504  502 -0.00000000000E+00 -0.00000000000E+00 -0.31382255550E+02  0.31382255550E+02  0.00000000000E+00 0.  1.
         21    1    1    2  503  501 -0.17923671258E+01  0.20453422895E+02  0.23271619218E+03  0.23362016435E+03  0.00000000000E+00 0. -1.
         21    1    1    2  504  503  0.17923671258E+01 -0.20453422895E+02 -0.27522967368E+02  0.34337571562E+02  0.00000000000E+00 0.  1.
<mgrwt>
<rscale>  2 0.20531807E+02</rscale>
<asrwt>0</asrwt>
<pdfrwt beam="1">  1       21 0.36396227E-01 0.20531807E+02</pdfrwt>
<pdfrwt beam="2">  1       21 0.48280395E-02 0.20531807E+02</pdfrwt>
<totfact> 0.18266325E+06</totfact>
</mgrwt>
</event>
<event>
 4    1  0.4594485E+006  0.3466708E+02  0.7546771E-02  0.1551577E+00
         21   -1    0    0  504  501  0.00000000000E+00  0.00000000000E+00  0.14162672701E+03  0.14162672701E+03  0.00000000000E+00 0.  1.
         21   -1    0    0  503  502 -0.00000000000E+00 -0.00000000000E+00 -0.85263194676E+01  0.85263194676E+01  0.00000000000E+00 0.  1.
         21    1    1    2  503  501  0.27161786788E+02  0.21541669354E+02  0.71730200756E+02  0.79668236334E+02  0.00000000000E+00 0.  1.
         21    1    1    2  504  502 -0.27161786788E+02 -0.21541669354E+02  0.61370206791E+02  0.70484810148E+02  0.00000000000E+00 0.  1.
<mgrwt>
<rscale>  2 0.34667076E+02</rscale>
<asrwt>0</asrwt>
<pdfrwt beam="1">  1       21 0.21788725E-01 0.34667076E+02</pdfrwt>
<pdfrwt beam="2">  1       21 0.13117416E-02 0.34667076E+02</pdfrwt>
<totfact> 0.38413146E+07</totfact>
</mgrwt>
</event>
<event>
 4    1  0.4594485E+006  0.2016709E+02  0.7546771E-02  0.1742026E+00
         21   -1    0    0  504  501  0.00000000000E+00  0.00000000000E+00  0.37699818386E+02  0.37699818386E+02  0.00000000000E+00 0. -1.
         21   -1    0    0  503  502 -0.00000000000E+00 -0.00000000000E+00 -0.26726837521E+02  0.26726837521E+02  0.00000000000E+00 0.  1.
         21    1    1    2  503  501 -0.11354978816E+02  0.16666609606E+02  0.30362919602E+02  0.36450216823E+02  0.00000000000E+00 0. -1.
         21    1    1    2  504  502  0.11354978816E+02 -0.16666609606E+02 -0.19389938736E+02  0.27976439085E+02  0.00000000000E+00 0.  1.
<mgrwt>
<rscale>  2 0.20167088E+02</rscale>
<asrwt>0</asrwt>
<pdfrwt beam="1">  1       21 0.57999721E-02 0.20167088E+02</pdfrwt>
<pdfrwt beam="2">  1       21 0.41118211E-02 0.20167088E+02</pdfrwt>
<totfact> 0.53259376E+07</totfact>
</mgrwt>
</event>
<event>
 4    1  0.4594485E+006  0.2006815E+02  0.7546771E-02  0.1743976E+00
         21   -1    0    0  504  501  0.00000000000E+00  0.00000000000E+00  0.10598395286E+03  0.10598395286E+03  0.00000000000E+00 0.  1.
         21   -1    0    0  501  502 -0.00000000000E+00 -0.00000000000E+00 -0.83986106001E+02  0.83986106001E+02  0.00000000000E+00 0.  1.
         21    1    1    2  503  502  0.13932582323E+02  0.14443464274E+02 -0.81812453986E+02  0.84237807056E+02  0.00000000000E+00 0.  1.
         21    1    1    2  504  503 -0.13932582323E+02 -0.14443464274E+02  0.10381030084E+03  0.10573225180E+03  0.00000000000E+00 0.  1.
<mgrwt>
<rscale>  2 0.20068147E+02</rscale>
<asrwt>0</asrwt>
<pdfrwt beam="1">  1       21 0.16305224E-01 0.20068147E+02</pdfrwt>
<pdfrwt beam="2">  1       21 0.12920939E-01 0.20068147E+02</pdfrwt>
<totfact> 0.15275211E+06</totfact>
</mgrwt>
</event>
<event>
 4    1  0.4594485E+006  0.2010341E+02  0.7546771E-02  0.1743279E+00
         21   -1    0    0  504  501  0.00000000000E+00  0.00000000000E+00  0.46980270855E+01  0.46980270855E+01  0.00000000000E+00 0. -1.
         21   -1    0    0  501  502 -0.00000000000E+00 -0.00000000000E+00 -0.97501466614E+02  0.97501466614E+02  0.00000000000E+00 0. -1.
         21    1    1    2  503  502 -0.85039185275E+01  0.18216216749E+02 -0.63933244057E+02  0.67019451495E+02  0.00000000000E+00 0. -1.
         21    1    1    2  504  503  0.85039185275E+01 -0.18216216749E+02 -0.28870195471E+02  0.35180042205E+02  0.00000000000E+00 0. -1.
<mgrwt>
<rscale>  2 0.20103412E+02</rscale>
<asrwt>0</asrwt>
<pdfrwt beam="1">  1       21 0.72277347E-03 0.20103412E+02</pdfrwt>
<pdfrwt beam="2">  1       21 0.15000224E-01 0.20103412E+02</pdfrwt>
<totfact> 0.15773402E+08</totfact>
</mgrwt>
</event>
<event>
 4    1  0.4594485E+006  0.2509365E+02  0.7546771E-02  0.1659660E+00
         21   -1    0    0  504  501  0.00000000000E+00  0.00000000000E+00  0.14652125320E+02  0.14652125320E+02  0.00000000000E+00 0. -1.
         21   -1    0    0  501  502 -0.00000000000E+00 -0.00000000000E+00 -0.22219571528E+03  0.22219571528E+03  0.00000000000E+00 0.  1.
         21    1    1    2  503  502  0.21095375751E+02  0.13589567747E+02 -0.21012837456E+03  0.21162141911E+03  0.00000000000E+00 0.  1.
         21    1    1    2  504  503 -0.21095375751E+02 -0.13589567747E+02  0.25847846056E+01  0.25226421488E+02  0.00000000000E+00 0. -1.
<mgrwt>
<rscale>  2 0.25093649E+02</rscale>
<asrwt>0</asrwt>
<pdfrwt beam="1">  1       21 0.22541733E-02 0.25093649E+02</pdfrwt>
<pdfrwt beam="2">  1       21 0.34183954E-01 0.25093649E+02</pdfrwt>
<totfact> 0.69462418E+06</totfact>
</mgrwt>
</event>
<event>
 4    1  0.4594485E+006  0.2113490E+02  0.7546771E-02  0.1723658E+00
         21   -1    0    0  503  501  0.00000000000E+00  0.00000000000E+00  0.12153793811E+01  0.12153793811E+01  0.00000000000E+00 0.  1.
         21   -1    0    0  504  502 -0.00000000000E+00 -0.00000000000E+00 -0.37422466079E+03  0.37422466079E+03  0.00000000000E+00 0.  1.
         21    1    1    2  503  502  0.16426238297E+02  0.13298977977E+02 -0.21161902003E+03  0.21267179822E+03  0.00000000000E+00 0.  1.
         21    1    1    2  504  501 -0.16426238297E+02 -0.13298977977E+02 -0.16139026138E+03  0.16276824195E+03  0.00000000000E+00 0.  1.
<mgrwt>
<rscale>  2 0.21134903E+02</rscale>
<asrwt>0</asrwt>
<pdfrwt beam="1">  1       21 0.18698124E-03 0.21134903E+02</pdfrwt>
<pdfrwt beam="2">  1       21 0.57573088E-01 0.21134903E+02</pdfrwt>
<totfact> 0.10007184E+08</totfact>
</mgrwt>
</event>
<event>
 4    1  0.4594485E+006  0.2447601E+02  0.7546771E-02  0.1668644E+00
         21   -1    0    0  503  501  0.00000000000E+00  0.00000000000E+00  0.78496415054E+02  0.78496415054E+02  0.00000000000E+00 0.  1.
         21   -1    0    0  504  502 -0.00000000000E+00 -0.00000000000E+00 -0.85536964118E+01  0.85536964118E+01  0.00000000000E+00 0.  1.
         21    1    1    2  503  502 -0.19305690948E+02 -0.15045442929E+02  0.20682908954E+02  0.32044621681E+02  0.00000000000E+00 0.  1.
         21    1    1    2  504  501  0.19305690948E+02  0.15045442929E+02  0.49259809689E+02  0.55005489785E+02  0.00000000000E+00 0.  1.
<mgrwt>
<rscale>  2 0.24476010E+02</rscale>
<asrwt>0</asrwt>
<pdfrwt beam="1">  1       21 0.12076371E-01 0.24476010E+02</pdfrwt>
<pdfrwt beam="2">  1       21 0.13159533E-02 0.24476010E+02</pdfrwt>
<totfact> 0.98076932E+07</totfact>
</mgrwt>
</event>
<event>
 4    1  0.4594485E+006  0.2334745E+02  0.7546771E-02  0.1685939E+00
         21   -1    0    0  503  501  0.00000000000E+00  0.00000000000E+00  0.10117248390E+02  0.10117248390E+02  0.00000000000E+00 0.  1.
         21   -1    0    0  504  502 -0.00000000000E+00 -0.00000000000E+00 -0.25602583542E+03  0.25602583542E+03  0.00000000000E+00 0.  1.
         21    1    1    2  503  502  0.11866972989E+02 -0.20106674018E+02 -0.47108213532E+01  0.23817960152E+02  0.00000000000E+00 0.  1.
         21    1    1    2  504  501 -0.11866972989E+02  0.20106674018E+02 -0.24119776568E+03  0.24232512366E+03  0.00000000000E+00 0.  1.
<mgrwt>
<rscale>  2 0.23347449E+02</rscale>
<asrwt>0</asrwt>
<pdfrwt beam="1">  1       21 0.15564998E-02 0.23347449E+02</pdfrwt>
<pdfrwt beam="2">  1       21 0.39388589E-01 0.23347449E+02</pdfrwt>
<totfact> 0.92940205E+06</totfact>
</mgrwt>
</event>
<event>
 4    1  0.4594485E+006  0.2165725E+02  0.7546771E-02  0.1714248E+00
         21   -1    0    0  503  501  0.00000000000E+00  0.00000000000E+00  0.74748184103E+03  0.74748184103E+03  0.00000000000E+00 0.  1.
         21   -1    0    0  501  502 -0.00000000000E+00 -0.00000000000E+00 -0.86044330946E+01  0.86044330946E+01  0.00000000000E+00 0. -1.
         21    1    1    2  503  504 -0.21239340451E+02 -0.42339977024E+01  0.73343629794E+03  0.73375598086E+03  0.00000000000E+00 0.  1.
         21    1    1    2  504  502  0.21239340451E+02  0.42339977024E+01  0.54411100029E+01  0.22330293267E+02  0.00000000000E+00 0. -1.
<mgrwt>
<rscale>  2 0.21657246E+02</rscale>
<asrwt>0</asrwt>
<pdfrwt beam="1">  1       21 0.11499715E+00 0.21657246E+02</pdfrwt>
<pdfrwt beam="2">  1       21 0.13237595E-02 0.21657246E+02</pdfrwt>
<totfact> 0.13169585E+06</totfact>
</mgrwt>
</event>
<event>
 4    1  0.4594485E+006  0.2030958E+02  0.7546771E-02  0.1739241E+00
         21   -1    0    0  503  501  0.00000000000E+00  0.00000000000E+00  0.38050150545E+03  0.38050150545E+03  0.00000000000E+00 0.  1.
         21   -1    0    0  504  502 -0.00000000000E+00 -0.00000000000E+00 -0.50605731346E+01  0.50605731346E+01  0.00000000000E+00 0. -1.
         21    1    1    2  503  502  0.10490146823E+02 -0.17390683941E+02  0.16830432155E+02  0.26376931490E+02  0.00000000000E+00 0. -1.
         21    1    1    2  504  501 -0.10490146823E+02  0.17390683941E+02  0.35861050016E+03  0.35918514710E+03  0.00000000000E+00 0.  1.
<mgrwt>
<rscale>  2 0.20309581E+02</rscale>
<asrwt>0</asrwt>
<pdfrwt beam="1">  1       21 0.58538671E-01 0.20309581E+02</pdfrwt>
<pdfrwt beam="2">  1       21 0.77855001E-03 0.20309581E+02</pdfrwt>
<totfact> 0.11948138E+07</totfact>
</mgrwt>
</event>
<event>
 4    1  0.4594485E+006  0.2511008E+02  0.7546771E-02  0.1659426E+00
         21   -1    0    0  503  501  0.00000000000E+00  0.00000000000E+00  0.71498261301E+02  0.71498261301E+02  0.00000000000E+00 0.  1.
         21   -1    0    0  504  502 -0.00000000000E+00 -0.00000000000E+00 -0.88683956433E+01  0.88683956433E+01  0.00000000000E+00 0. -1.
         21    1    1    2  503  502  0.25069262507E+02 -0.14310788906E+01  0.28304443000E+02  0.37837248883E+02  0.00000000000E+00 0. -1.
         21    1    1    2  504  501 -0.25069262507E+02  0.14310788906E+01  0.34325422657E+02  0.42529408061E+02  0.00000000000E+00 0.  1.
<mgrwt>
<rscale>  2 0.25110076E+02</rscale>
<asrwt>0</asrwt>
<pdfrwt beam="1">  1       21 0.10999732E-01 0.25110076E+02</pdfrwt>
<pdfrwt beam="2">  1       21 0.13643686E-02 0.25110076E+02</pdfrwt>
<totfact> 0.10929283E+08</totfact>
</mgrwt>
</event>
<event>
 4    1  0.4594485E+006  0.2306578E+02  0.7546771E-02  0.1690446E+00
         21   -1    0    0  504  501  0.00000000000E+00  0.00000000000E+00  0.20230176927E+02  0.20230176927E+02  0.00000000000E+00 0. -1.
         21   -1    0    0  503  502 -0.00000000000E+00 -0.00000000000E+00 -0.36726459488E+02  0.36726459488E+02  0.00000000000E+00 0.  1.
         21    1    1    2  503  501  0.19255639917E+02 -0.12698437974E+02  0.69264705442E+01  0.24083313513E+02  0.00000000000E+00 0. -1.
         21    1    1    2  504  502 -0.19255639917E+02  0.12698437974E+02 -0.23422753105E+02  0.32873322902E+02  0.00000000000E+00 0.  1.
<mgrwt>
<rscale>  2 0.23065775E+02</rscale>
<asrwt>0</asrwt>
<pdfrwt beam="1">  1       21 0.31123349E-02 0.23065775E+02</pdfrwt>
<pdfrwt beam="2">  1       21 0.56502245E-02 0.23065775E+02</pdfrwt>
<totfact> 0.89115630E+07</totfact>
</mgrwt>
</event>
<event>
 4    1  0.4594485E+006  0.2347237E+02  0.7546771E-02  0.1683966E+00
         21   -1    0    0  504  501  0.00000000000E+00  0.00000000000E+00  0.20918845972E+03  0.20918845972E+03  0.00000000000E+00 0. -1.
         21   -1    0    0  501  502 -0.00000000000E+00 -0.00000000000E+00 -0.88542668942E+02  0.88542668942E+02  0.00000000000E+00 0.  1.
         21    1    1    2  503  502 -0.13406935529E+02 -0.19266709201E+02 -0.86311903474E+02  0.89446613603E+02  0.00000000000E+00 0.  1.
         21    1    1    2  504  503  0.13406935529E+02  0.19266709201E+02  0.20695769426E+03  0.20828451506E+03  0.00000000000E+00 0. -1.
<mgrwt>
<rscale>  2 0.23472367E+02</rscale>
<asrwt>0</asrwt>
<pdfrwt beam="1">  1       21 0.32182840E-01 0.23472367E+02</pdfrwt>
<pdfrwt beam="2">  1       21 0.13621949E-01 0.23472367E+02</pdfrwt>
<totfact> 0.42689218E+05</totfact>
</mgrwt>
</event>
<event>
 4    1  0.4594485E+006  0.3165406E+02  0.7546771E-02  0.1580493E+00
         21   -1    0    0  502  501  0.00000000000E+00  0.00000000000E+00  0.11266402438E+01  0.11266402438E+01  0.00000000000E+00 0. -1.
         21   -1    0    0  503  502 -0.00000000000E+00 -0.00000000000E+00 -0.95101597771E+03  0.95101597771E+03  0.00000000000E+00 0. -1.
         21    1    1    2  503  504 -0.10264276426E+02  0.29943686204E+02 -0.59617017192E+03  0.59700992756E+03  0.00000000000E+00 0. -1.
         21    1    1    2  504  501  0.10264276426E+02 -0.29943686204E+02 -0.35371916555E+03  0.35513269040E+03  0.00000000000E+00 0. -1.
<mgrwt>
<rscale>  2 0.31654063E+02</rscale>
<asrwt>0</asrwt>
<pdfrwt beam="1">  1       21 0.17332889E-03 0.31654063E+02</pdfrwt>
<pdfrwt beam="2">  1       21 0.14631047E+00 0.31654063E+02</pdfrwt>
<totfact> 0.15970542E+07</totfact>
</mgrwt>
</event>
<event>
 4    1  0.4594485E+006  0.4294833E+02  0.7546771E-02  0.1487572E+00
         21   -1    0    0  502  501  0.00000000000E+00  0.00000000000E+00  0.12594061417E+02  0.12594061417E+02  0.00000000000E+00 0. -1.
         21   -1    0    0  504  502 -0.00000000000E+00 -0.00000000000E+00 -0.16535204797E+03  0.16535204797E+03  0.00000000000E+00 0.  1.
         21    1    1    2  503  501 -0.36709308358E+02 -0.22293183789E+02 -0.46306946036E+02  0.63157680568E+02  0.00000000000E+00 0. -1.
         21    1    1    2  504  503  0.36709308358E+02  0.22293183789E+02 -0.10645104051E+03  0.11478842881E+03  0.00000000000E+00 0.  1.
<mgrwt>
<rscale>  2 0.42948334E+02</rscale>
<asrwt>0</asrwt>
<pdfrwt beam="1">  1       21 0.19375481E-02 0.42948334E+02</pdfrwt>
<pdfrwt beam="2">  1       21 0.25438774E-01 0.42948334E+02</pdfrwt>
<totfact> 0.16432418E+07</totfact>
</mgrwt>
</event>
<event>
 4    1  0.4594485E+006  0.2414685E+02  0.7546771E-02  0.1673567E+00
         21   -1    0    0  502  501  0.00000000000E+00  0.00000000000E+00  0.15015289053E+03  0.15015289053E+03  0.00000000000E+00 0. -1.
         21   -1    0    0  504  502 -0.00000000000E+00 -0.00000000000E+00 -0.70004809943E+01  0.70004809943E+01  0.00000000000E+00 0. -1.
         21    1    1    2  503  501 -0.14683915534E+02  0.19169062756E+02  0.12401096690E+03  0.12633997885E+03  0.00000000000E+00 0. -1.
         21    1    1    2  504  503  0.14683915534E+02 -0.19169062756E+02  0.19141442633E+02  0.30813392679E+02  0.00000000000E+00 0. -1.
<mgrwt>
<rscale>  2 0.24146850E+02</rscale>
<asrwt>0</asrwt>
<pdfrwt beam="1">  1       21 0.23100442E-01 0.24146850E+02</pdfrwt>
<pdfrwt beam="2">  1       21 0.10769972E-02 0.24146850E+02</pdfrwt>
<totfact> 0.43281479E+07</totfact>
</mgrwt>
</event>
<event>
 4    1  0.4594485E+006  0.2800575E+02  0.7546771E-02  0.1621240E+00
         21   -1    0    0  503  501  0.00000000000E+00  0.00000000000E+00  0.71981070245E+01  0.71981070245E+01  0.00000000000E+00 0.  1.
         21   -1    0    0  504  502 -0.00000000000E+00 -0.00000000000E+00 -0.12862939108E+04  0.12862939108E+04  0.00000000000E+00 0. -1.
         21    1    1    2  503  502  0.27102632694E+02  0.70547481766E+01 -0.12582948304E+04  0.12586064526E+04  0.00000000000E+00 0. -1.
         21    1    1    2  504  501 -0.27102632694E+02 -0.70547481766E+01 -0.20800973343E+02  0.34885565250E+02  0.00000000000E+00 0.  1.
<mgrwt>
<rscale>  2 0.28005752E+02</rscale>
<asrwt>0</asrwt>
<pdfrwt beam="1">  1       21 0.11074000E-02 0.28005752E+02</pdfrwt>
<pdfrwt beam="2">  1       21 0.19789157E+00 0.28005752E+02</pdfrwt>
<totfact> 0.47584618E+05</totfact>
</mgrwt>
</event>
<event>
 4    1  0.4594485E+006  0.2856342E+02  0.7546771E-02  0.1614533E+00
         21   -1    0    0  503  501  0.00000000000E+00  0.00000000000E+00  0.14911059398E+04  0.14911059398E+04  0.00000000000E+00 0.  1.
         21   -1    0    0  504  502 -0.00000000000E+00 -0.00000000000E+00 -0.55024466820E+00  0.55024466820E+00  0.00000000000E+00 0.  1.
         21    1    1    2  503  502 -0.21166194010E+02  0.19179703440E+02  0.80114909697E+03  0.80165812187E+03  0.00000000000E+00 0.  1.
         21    1    1    2  504  501  0.21166194010E+02 -0.19179703440E+02  0.68940659821E+03  0.68999806264E+03  0.00000000000E+00 0.  1.
<mgrwt>
<rscale>  2 0.28563417E+02</rscale>
<asrwt>0</asrwt>
<pdfrwt beam="1">  1       21 0.22939768E+00 0.28563417E+02</pdfrwt>
<pdfrwt beam="2">  1       21 0.84654219E-04 0.28563417E+02</pdfrwt>
<totfact> 0.13993664E+07</totfact>
</mgrwt>
</event>
<event>
 4    1  0.4594485E+006  0.2283828E+02  0.7546771E-02  0.1694145E+00
         21   -1    0    0  502  501  0.00000000000E+00  0.00000000000E+00  0.92686790139E+03  0.92686790139E+03  0.00000000000E+00 0. -1.
         21   -1    0    0  504  502 -0.00000000000E+00 -0.00000000000E+00 -0.46438567755E+01  0.46438567755E+01  0.00000000000E+00 0. -1.
         21    1    1    2  503  501  0.10002645054E+02 -0.20531293988E+02  0.89773679589E+03  0.89802724994E+03  0.00000000000E+00 0. -1.
         21    1    1    2  504  503 -0.10002645054E+02  0.20531293988E+02  0.24487248720E+02  0.33484508220E+02  0.00000000000E+00 0. -1.
<mgrwt>
<rscale>  2 0.22838278E+02</rscale>
<asrwt>0</asrwt>
<pdfrwt beam="1">  1       21 0.14259491E+00 0.22838278E+02</pdfrwt>
<pdfrwt beam="2">  1       21 0.71444024E-03 0.22838278E+02</pdfrwt>
<totfact> 0.20387483E+06</totfact>
</mgrwt>
</event>
<event>
 4    1  0.4594485E+006  0.2950077E+02  0.7546771E-02  0.1603673E+00
         21   -1    0    0  504  501  0.00000000000E+00  0.00000000000E+00  0.26312618034E+02  0.26312618034E+02  0.00000000000E+00 0. -1.
         21   -1    0    0  503  502 -0.00000000000E+00 -0.00000000000E+00 -0.40352173458E+02  0.40352173458E+02  0.00000000000E+00 0. -1.
         21    1    1    2  503  501  0.28306409002E+02 -0.83091875375E+01  0.71351656759E+01  0.30351375214E+02  0.00000000000E+00 0. -1.
         21    1    1    2  504  502 -0.28306409002E+02  0.83091875375E+01 -0.21174721101E+02  0.36313416279E+02  0.00000000000E+00 0. -1.
<mgrwt>
<rscale>  2 0.29500769E+02</rscale>
<asrwt>0</asrwt>
<pdfrwt beam="1">  1       21 0.40480951E-02 0.29500769E+02</pdfrwt>
<pdfrwt beam="2">  1       21 0.62080266E-02 0.29500769E+02</pdfrwt>
<totfact> 0.53869211E+07</totfact>
</mgrwt>
</event>
<event>
 4    1  0.4594485E+006  0.2188776E+02  0.7546771E-02  0.1710200E+00
         21   -1    0    0  504  501  0.00000000000E+00  0.00000000000E+00  0.10184167743E+01  0.10184167743E+01  0.00000000000E+00 0.  1.
         21   -1    0    0  503  502 -0.00000000000E+00 -0.00000000000E+00 -0.50208454944E+03  0.50208454944E+03  0.00000000000E+00 0.  1.
         21    1    1    2  503  501 -0.57782014240E+01  0.21111283763E+02 -0.31371464193E+03  0.31447726543E+03  0.00000000000E+00 0.  1.
         21    1    1    2  504  502  0.57782014240E+01 -0.21111283763E+02 -0.18735149073E+03  0.18862570078E+03  0.00000000000E+00 0.  1.
<mgrwt>
<rscale>  2 0.21887757E+02</rscale>
<asrwt>0</asrwt>
<pdfrwt beam="1">  1       21 0.15667942E-03 0.21887757E+02</pdfrwt>
<pdfrwt beam="2">  1       21 0.77243819E-01 0.21887757E+02</pdfrwt>
<totfact> 0.71702089E+07</totfact>
</mgrwt>
</event>
<event>
 4    1  0.4594485E+006  0.3189670E+02  0.7546771E-02  0.1578022E+00
         21   -1    0    0  503  501  0.00000000000E+00  0.00000000000E+00  0.94894106459E+02  0.94894106459E+02  0.00000000000E+00 0. -1.
         21   -1    0    0  501  502 -0.00000000000E+00 -0.00000000000E+00 -0.28801340707E+02  0.28801340707E+02  0.00000000000E+00 0.  1.
         21    1    1    2  503  504  0.21566447233E+02  0.23500800593E+02  0.82048592646E+02  0.88030510790E+02  0.00000000000E+00 0. -1.
         21    1    1    2  504  502 -0.21566447233E+02 -0.23500800593E+02 -0.15955826895E+02  0.35664936375E+02  0.00000000000E+00 0.  1.
<mgrwt>
<rscale>  2 0.31896697E+02</rscale>
<asrwt>0</asrwt>
<pdfrwt beam="1">  1       21 0.14599093E-01 0.31896697E+02</pdfrwt>
<pdfrwt beam="2">  1       21 0.44309755E-02 0.31896697E+02</pdfrwt>
<totfact> 0.11351244E+07</totfact>
</mgrwt>
</event>
<event>
 4    1  0.4594485E+006  0.2531552E+02  0.7546771E-02  0.1656511E+00
         21   -1    0    0  504  501  0.00000000000E+00  0.00000000000E+00  0.38043413470E+02  0.38043413470E+02  0.00000000000E+00 0.  1.
         21   -1    0    0  503  502 -0.00000000000E+00 -0.00000000000E+00 -0.55703183336E+03  0.55703183336E+03  0.00000000000E+00 0. -1.
         21    1    1    2  503  501 -0.25577309048E+01  0.25185975118E+02 -0.55249819012E+03  0.55307786559E+03  0.00000000000E+00 0. -1.
         21    1    1    2  504  502  0.25577309048E+01 -0.25185975118E+02  0.33509770226E+02  0.41997381235E+02  0.00000000000E+00 0.  1.
<mgrwt>
<rscale>  2 0.25315516E+02</rscale>
<asrwt>0</asrwt>
<pdfrwt beam="1">  1       21 0.58528330E-02 0.25315516E+02</pdfrwt>
<pdfrwt beam="2">  1       21 0.85697203E-01 0.25315516E+02</pdfrwt>
<totfact> 0.25023517E+05</totfact>
</mgrwt>
</event>
<event>
 4    1  0.4594485E+006  0.2535345E+02  0.7546771E-02  0.1655976E+00
         21   -1    0    0  503  501  0.00000000000E+00  0.00000000000E+00  0.13733319384E+02  0.13733319384E+02  0.00000000000E+00 0. -1.
         21   -1    0    0  504  502 -0.00000000000E+00 -0.00000000000E+00 -0.10963738212E+03  0.10963738212E+03  0.00000000000E+00 0. -1.
         21    1    1    2  503  502  0.11338488342E+02  0.22676777867E+02 -0.12546994962E+01  0.25384480360E+02  0.00000000000E+00 0. -1.
         21    1    1    2  504  501 -0.11338488342E+02 -0.22676777867E+02 -0.94649363240E+02  0.97986221144E+02  0.00000000000E+00 0. -1.
<mgrwt>
<rscale>  2 0.25353453E+02</rscale>
<asrwt>0</asrwt>
<pdfrwt beam="1">  1       21 0.21128184E-02 0.25353453E+02</pdfrwt>
<pdfrwt beam="2">  1       21 0.16867290E-01 0.25353453E+02</pdfrwt>
<totfact> 0.27143039E+07</totfact>
</mgrwt>
</event>
<event>
 4    1  0.4594485E+006  0.2025135E+02  0.7546771E-02  0.1740375E+00
         21   -1    0    0  502  501  0.00000000000E+00  0.00000000000E+00  0.39617627753E+01  0.39617627753E+01  0.00000000000E+00 0.  1.
         21   -1    0    0  503  502 -0.00000000000E+00 -0.00000000000E+00 -0.11251331350E+03  0.11251331350E+03  0.00000000000E+00 0.  1.
         21    1    1    2  503  504  0.12041916830E+02  0.16282180322E+02 -0.70741789970E+02  0.73583408491E+02  0.00000000000E+00 0.  1.
         21    1    1    2  504  501 -0.12041916830E+02 -0.16282180322E+02 -0.37809760750E+02  0.42891667779E+02  0.00000000000E+00 0.  1.
<mgrwt>
<rscale>  2 0.20251350E+02</rscale>
<asrwt>0</asrwt>
<pdfrwt beam="1">  1       21 0.60950207E-03 0.20251350E+02</pdfrwt>
<pdfrwt beam="2">  1       21 0.17309737E-01 0.20251350E+02</pdfrwt>
<totfact> 0.15940697E+08</totfact>
</mgrwt>
</event>
<event>
 4    1  0.4594485E+006  0.8027792E+02  0.7546771E-02  0.1328265E+00
         21   -1    0    0  504  501  0.00000000000E+00  0.00000000000E+00  0.30569062449E+03  0.30569062449E+03  0.00000000000E+00 0. -1.
         21   -1    0    0  503  502 -0.00000000000E+00 -0.00000000000E+00 -0.10424889249E+03  0.10424889249E+03  0.00000000000E+00 0. -1.
         21    1    1    2  503  501 -0.80197029123E+02  0.36029260089E+01 -0.82354333839E+02  0.11500774260E+03  0.00000000000E+00 0. -1.
         21    1    1    2  504  502  0.80197029123E+02 -0.36029260089E+01  0.28379606584E+03  0.29493177439E+03  0.00000000000E+00 0. -1.
<mgrwt>
<rscale>  2 0.80277921E+02</rscale>
<asrwt>0</asrwt>
<pdfrwt beam="1">  1       21 0.47029326E-01 0.80277921E+02</pdfrwt>
<pdfrwt beam="2">  1       21 0.16038291E-01 0.80277921E+02</pdfrwt>
<totfact> 0.15604045E+05</totfact>
</mgrwt>
</event>
<event>
 4    1  0.4594485E+006  0.3608503E+02  0.7546771E-02  0.1539171E+00
         21   -1    0    0  504  501  0.00000000000E+00  0.00000000000E+00  0.29960248769E+02  0.29960248769E+02  0.00000000000E+00 0. -1.
         21   -1    0    0  501  502 -0.00000000000E+00 -0.00000000000E+00 -0.10217673268E+03  0.10217673268E+03  0.00000000000E+00 0.  1.
         21    1    1    2  503  502  0.10491443136E+02  0.34526208192E+02 -0.86191466474E+02  0.93440346340E+02  0.00000000000E+00 0.  1.
         21    1    1    2  504  503 -0.10491443136E+02 -0.34526208192E+02  0.13974982562E+02  0.38696635109E+02  0.00000000000E+00 0. -1.
<mgrwt>
<rscale>  2 0.36085031E+02</rscale>
<asrwt>0</asrwt>
<pdfrwt beam="1">  1       21 0.46092690E-02 0.36085031E+02</pdfrwt>
<pdfrwt beam="2">  1       21 0.15719497E-01 0.36085031E+02</pdfrwt>
<totfact> 0.95530417E+06</totfact>
</mgrwt>
</event>
<event>
 4    1  0.4594485E+006  0.2021055E+02  0.7546771E-02  0.1741173E+00
         21   -1    0    0  503  501  0.00000000000E+00  0.00000000000E+00  0.33248354453E+02  0.33248354453E+02  0.00000000000E+00 0.  1.
         21   -1    0    0  504  502 -0.00000000000E+00 -0.00000000000E+00 -0.58340341654E+02  0.58340341654E+02  0.00000000000E+00 0.  1.
         21    1    1    2  503  502 -0.19955502578E+02 -0.32006478385E+01 -0.53233957262E+02  0.56941377183E+02  0.00000000000E+00 0.  1.
         21    1    1    2  504  501  0.19955502578E+02  0.32006478385E+01  0.28141970061E+02  0.34647318924E+02  0.00000000000E+00 0.  1.
<mgrwt>
<rscale>  2 0.20210547E+02</rscale>
<asrwt>0</asrwt>
<pdfrwt beam="1">  1       21 0.51151315E-02 0.20210547E+02</pdfrwt>
<pdfrwt beam="2">  1       21 0.89754370E-02 0.20210547E+02</pdfrwt>
<totfact> 0.18667145E+07</totfact>
</mgrwt>
</event>
<event>
 4    1  0.4594485E+006  0.2671405E+02  0.7546771E-02  0.1637537E+00
         21   -1    0    0  504  501  0.00000000000E+00  0.00000000000E+00  0.77050687160E+00  0.77050687160E+00  0.00000000000E+00 0.  1.
         21   -1    0    0  503  502 -0.00000000000E+00 -0.00000000000E+00 -0.92783891178E+03  0.92783891178E+03  0.00000000000E+00 0.  1.
         21    1    1    2  503  501  0.10497334867E+02  0.24565149235E+02 -0.48307027402E+03  0.48380836107E+03  0.00000000000E+00 0.  1.
         21    1    1    2  504  502 -0.10497334867E+02 -0.24565149235E+02 -0.44399813089E+03  0.44480105758E+03  0.00000000000E+00 0.  1.
<mgrwt>
<rscale>  2 0.26714052E+02</rscale>
<asrwt>0</asrwt>
<pdfrwt beam="1">  1       21 0.11853965E-03 0.26714052E+02</pdfrwt>
<pdfrwt beam="2">  1       21 0.14274429E+00 0.26714052E+02</pdfrwt>
<totfact> 0.28599470E+07</totfact>
</mgrwt>
</event>
<event>
 4    1  0.4594485E+006  0.3659423E+02  0.7546771E-02  0.1534883E+00
         21   -1    0    0  502  501  0.00000000000E+00  0.00000000000E+00  0.60120125973E+02  0.60120125973E+02  0.00000000000E+00 0.  1.
         21   -1    0    0  503  502 -0.00000000000E+00 -0.00000000000E+00 -0.22655921662E+02  0.22655921662E+02  0.00000000000E+00 0.  1.
         21    1    1    2  503  504  0.12502413115E+02 -0.34392257309E+02  0.13361008663E+02  0.38957082142E+02  0.00000000000E+00 0.  1.
         21    1    1    2  504  501 -0.12502413115E+02  0.34392257309E+02  0.24103195647E+02  0.43818965493E+02  0.00000000000E+00 0.  1.
<mgrwt>
<rscale>  2 0.36594230E+02</rscale>
<asrwt>0</asrwt>
<pdfrwt beam="1">  1       21 0.92492501E-02 0.36594230E+02</pdfrwt>
<pdfrwt beam="2">  1       21 0.34855264E-02 0.36594230E+02</pdfrwt>
<totfact> 0.37032902E+07</totfact>
</mgrwt>
</event>
<event>
 4    1  0.4594485E+006  0.2378518E+02  0.7546771E-02  0.1679090E+00
         21   -1    0    0  503  501  0.00000000000E+00  0.00000000000E+00  0.44762498526E+02  0.44762498526E+02  0.00000000000E+00 0. -1.
         21   -1    0    0  504  502 -0.00000000000E+00 -0.00000000000E+00 -0.29385473075E+02  0.29385473075E+02  0.00000000000E+00 0. -1.
         21    1    1    2  503  502  0.57388443921E+01 -0.23082465626E+02 -0.20299368377E+02  0.31269776316E+02  0.00000000000E+00 0. -1.
         21    1    1    2  504  501 -0.57388443921E+01  0.23082465626E+02  0.35676393828E+02  0.42878195285E+02  0.00000000000E+00 0. -1.
<mgrwt>
<rscale>  2 0.23785175E+02</rscale>
<asrwt>0</asrwt>
<pdfrwt beam="1">  1       21 0.68865382E-02 0.23785175E+02</pdfrwt>
<pdfrwt beam="2">  1       21 0.45208420E-02 0.23785175E+02</pdfrwt>
<totfact> 0.36313714E+07</totfact>
</mgrwt>
</event>
<event>
 4    1  0.4594485E+006  0.2004603E+02  0.7546771E-02  0.1744414E+00
         21   -1    0    0  504  501  0.00000000000E+00  0.00000000000E+00  0.14692004702E+03  0.14692004702E+03  0.00000000000E+00 0. -1.
         21   -1    0    0  503  502 -0.00000000000E+00 -0.00000000000E+00 -0.33523340877E+01  0.33523340877E+01  0.00000000000E+00 0. -1.
         21    1    1    2  503  501 -0.44061457461E+01  0.19555797006E+02  0.39543860526E+02  0.44334639078E+02  0.00000000000E+00 0. -1.
         21    1    1    2  504  502  0.44061457461E+01 -0.19555797006E+02  0.10402385241E+03  0.10593774203E+03  0.00000000000E+00 0. -1.
<mgrwt>
<rscale>  2 0.20046030E+02</rscale>
<asrwt>0</asrwt>
<pdfrwt beam="1">  1       21 0.22603079E-01 0.20046030E+02</pdfrwt>
<pdfrwt beam="2">  1       21 0.51574382E-03 0.20046030E+02</pdfrwt>
<totfact> 0.12796032E+08</totfact>
</mgrwt>
</event>
<event>
 4    1  0.4594485E+006  0.2733911E+02  0.7546771E-02  0.1629512E+00
         21   -1    0    0  504  501  0.00000000000E+00  0.00000000000E+00  0.62741927990E+02  0.62741927990E+02  0.00000000000E+00 0. -1.
         21   -1    0    0  503  502 -0.00000000000E+00 -0.00000000000E+00 -0.17469129691E+02  0.17469129691E+02  0.00000000000E+00 0. -1.
         21    1    1    2  503  501 -0.20679386680E+02 -0.17882664893E+02  0.17788781925E-01  0.27339112157E+02  0.00000000000E+00 0. -1.
         21    1    1    2  504  502  0.20679386680E+02  0.17882664893E+02  0.45255009517E+02  0.52871945524E+02  0.00000000000E+00 0. -1.
<mgrwt>
<rscale>  2 0.27339106E+02</rscale>
<asrwt>0</asrwt>
<pdfrwt beam="1">  1       21 0.96526042E-02 0.27339106E+02</pdfrwt>
<pdfrwt beam="2">  1       21 0.26875584E-02 0.27339106E+02</pdfrwt>
<totfact> 0.48865227E+07</totfact>
</mgrwt>
</event>
<event>
 4    1  0.4594485E+006  0.2032136E+02  0.7546771E-02  0.1739012E+00
         21   -1    0    0  503  501  0.00000000000E+00  0.00000000000E+00  0.33699029756E+02  0.33699029756E+02  0.00000000000E+00 0.  1.
         21   -1    0    0  501  502 -0.00000000000E+00 -0.00000000000E+00 -0.12522292969E+02  0.12522292969E+02  0.00000000000E+00 0.  1.
         21    1    1    2  503  504  0.18728732316E+02 -0.78862122061E+01  0.13969316248E+02  0.24659674645E+02  0.00000000000E+00 0.  1.
         21    1    1    2  504  502 -0.18728732316E+02  0.78862122061E+01  0.72074205389E+01  0.21561648081E+02  0.00000000000E+00 0.  1.
<mgrwt>
<rscale>  2 0.20321362E+02</rscale>
<asrwt>0</asrwt>
<pdfrwt beam="1">  1       21 0.51844661E-02 0.20321362E+02</pdfrwt>
<pdfrwt beam="2">  1       21 0.19265066E-02 0.20321362E+02</pdfrwt>
<totfact> 0.20607130E+08</totfact>
</mgrwt>
</event>
<event>
 4    1  0.4594485E+006  0.2000419E+02  0.7546771E-02  0.1745245E+00
         21   -1    0    0  504  501  0.00000000000E+00  0.00000000000E+00  0.52403086112E+03  0.52403086112E+03  0.00000000000E+00 0.  1.
         21   -1    0    0  501  502 -0.00000000000E+00 -0.00000000000E+00 -0.48261569020E+01  0.48261569020E+01  0.00000000000E+00 0. -1.
         21    1    1    2  503  502 -0.13778928184E+02 -0.14502028210E+02  0.16994150300E+02  0.26248215721E+02  0.00000000000E+00 0. -1.
         21    1    1    2  504  503  0.13778928184E+02  0.14502028210E+02  0.50221055391E+03  0.50260880230E+03  0.00000000000E+00 0.  1.
<mgrwt>
<rscale>  2 0.20004192E+02</rscale>
<asrwt>0</asrwt>
<pdfrwt beam="1">  1       21 0.80620088E-01 0.20004192E+02</pdfrwt>
<pdfrwt beam="2">  1       21 0.74248609E-03 0.20004192E+02</pdfrwt>
<totfact> 0.66698493E+06</totfact>
</mgrwt>
</event>
<event>
 4    1  0.4594485E+006  0.2073333E+02  0.7546771E-02  0.1731126E+00
         21   -1    0    0  504  501  0.00000000000E+00  0.00000000000E+00  0.22247436332E+03  0.22247436332E+03  0.00000000000E+00 0. -1.
         21   -1    0    0  503  502 -0.00000000000E+00 -0.00000000000E+00 -0.23307951209E+02  0.23307951209E+02  0.00000000000E+00 0. -1.
         21    1    1    2  503  501  0.57806700880E+01  0.19911177997E+02  0.21727034208E+03  0.21825735429E+03  0.00000000000E+00 0. -1.
         21    1    1    2  504  502 -0.57806700880E+01 -0.19911177997E+02 -0.18103929966E+02  0.27524960238E+02  0.00000000000E+00 0. -1.
<mgrwt>
<rscale>  2 0.20733334E+02</rscale>
<asrwt>0</asrwt>
<pdfrwt beam="1">  1       21 0.34226824E-01 0.20733334E+02</pdfrwt>
<pdfrwt beam="2">  1       21 0.35858388E-02 0.20733334E+02</pdfrwt>
<totfact> 0.32697976E+06</totfact>
</mgrwt>
</event>
<event>
 4    1  0.4594485E+006  0.8996545E+02  0.7546771E-02  0.1302935E+00
         21   -1    0    0  503  501  0.00000000000E+00  0.00000000000E+00  0.70574649274E+03  0.70574649274E+03  0.00000000000E+00 0. -1.
         21   -1    0    0  504  502 -0.00000000000E+00 -0.00000000000E+00 -0.17657548903E+02  0.17657548903E+02  0.00000000000E+00 0. -1.
         21    1    1    2  503  502  0.82022011890E+02 -0.36961766127E+02  0.12990278663E+03  0.15801429228E+03  0.00000000000E+00 0. -1.
         21    1    1    2  504  501 -0.82022011890E+02  0.36961766127E+02  0.55818615721E+03  0.56538974936E+03  0.00000000000E+00 0. -1.
<mgrwt>
<rscale>  2 0.89965452E+02</rscale>
<asrwt>0</asrwt>
<pdfrwt beam="1">  1       21 0.10857636E+00 0.89965452E+02</pdfrwt>
<pdfrwt beam="2">  1       21 0.27165465E-02 0.89965452E+02</pdfrwt>
<totfact> 0.51174927E+05</totfact>
</mgrwt>
</event>
<event>
 4    1  0.4594485E+006  0.2211743E+02  0.7546771E-02  0.1706229E+00
         21   -1    0    0  503  501  0.00000000000E+00  0.00000000000E+00  0.75447897516E+00  0.75447897516E+00  0.00000000000E+00 0.  1.
         21   -1    0    0  504  502 -0.00000000000E+00 -0.00000000000E+00 -0.77450756871E+03  0.77450756871E+03  0.00000000000E+00 0.  1.
         21    1    1    2  503  502  0.16702815135E+02  0.14498155275E+02 -0.23044289095E+03  0.23150184994E+03  0.00000000000E+00 0.  1.
         21    1    1    2  504  501 -0.16702815135E+02 -0.14498155275E+02 -0.54331019879E+03  0.54376019774E+03  0.00000000000E+00 0.  1.
<mgrwt>
<rscale>  2 0.22117426E+02</rscale>
<asrwt>0</asrwt>
<pdfrwt beam="1">  1       21 0.11607349E-03 0.22117426E+02</pdfrwt>
<pdfrwt beam="2">  1       21 0.11915522E+00 0.22117426E+02</pdfrwt>
<totfact> 0.43172310E+07</totfact>
</mgrwt>
</event>
<event>
 4    1  0.4594485E+006  0.2154946E+02  0.7546771E-02  0.1716162E+00
         21   -1    0    0  504  501  0.00000000000E+00  0.00000000000E+00  0.70556497276E+02  0.70556497276E+02  0.00000000000E+00 0.  1.
         21   -1    0    0  501  502 -0.00000000000E+00 -0.00000000000E+00 -0.46762664962E+02  0.46762664962E+02  0.00000000000E+00 0.  1.
         21    1    1    2  503  502 -0.15495947856E+02 -0.14975139912E+02 -0.42478137948E+02  0.47631622047E+02  0.00000000000E+00 0.  1.
         21    1    1    2  504  503  0.15495947856E+02  0.14975139912E+02  0.66271970263E+02  0.69687540191E+02  0.00000000000E+00 0.  1.
<mgrwt>
<rscale>  2 0.21549460E+02</rscale>
<asrwt>0</asrwt>
<pdfrwt beam="1">  1       21 0.10854846E-01 0.21549460E+02</pdfrwt>
<pdfrwt beam="2">  1       21 0.71942561E-02 0.21549460E+02</pdfrwt>
<totfact> 0.80127345E+06</totfact>
</mgrwt>
</event>
<event>
 4    1  0.4594485E+006  0.2392580E+02  0.7546771E-02  0.1676928E+00
         21   -1    0    0  503  501  0.00000000000E+00  0.00000000000E+00  0.59353836468E+02  0.59353836468E+02  0.00000000000E+00 0.  1.
         21   -1    0    0  504  502 -0.00000000000E+00 -0.00000000000E+00 -0.96521896859E+01  0.96521896859E+01  0.00000000000E+00 0.  1.
         21    1    1    2  503  502  0.23158549875E+02  0.60104508975E+01  0.25818397852E+02  0.35199909374E+02  0.00000000000E+00 0.  1.
         21    1    1    2  504  501 -0.23158549875E+02 -0.60104508975E+01  0.23883248929E+02  0.33806116779E+02  0.00000000000E+00 0.  1.
<mgrwt>
<rscale>  2 0.23925801E+02</rscale>
<asrwt>0</asrwt>
<pdfrwt beam="1">  1       21 0.91313593E-02 0.23925801E+02</pdfrwt>
<pdfrwt beam="2">  1       21 0.14849523E-02 0.23925801E+02</pdfrwt>
<totfact> 0.12910280E+08</totfact>
</mgrwt>
</event>
<event>
 4    1  0.4594485E+006  0.2123005E+02  0.7546771E-02  0.1721918E+00
         21   -1    0    0  503  501  0.00000000000E+00  0.00000000000E+00  0.52013623647E+00  0.52013623647E+00  0.00000000000E+00 0. -1.
         21   -1    0    0  504  502 -0.00000000000E+00 -0.00000000000E+00 -0.10630736301E+04  0.10630736301E+04  0.00000000000E+00 0. -1.
         21    1    1    2  503  502 -0.24587548103E+01 -0.21087191782E+02 -0.30261661020E+03  0.30336039277E+03  0.00000000000E+00 0. -1.
         21    1    1    2  504  501  0.24587548103E+01  0.21087191782E+02 -0.75993688367E+03  0.76023337357E+03  0.00000000000E+00 0. -1.
<mgrwt>
<rscale>  2 0.21230053E+02</rscale>
<asrwt>0</asrwt>
<pdfrwt beam="1">  1       21 0.80021570E-04 0.21230053E+02</pdfrwt>
<pdfrwt beam="2">  1       21 0.16354854E+00 0.21230053E+02</pdfrwt>
<totfact> 0.34727719E+07</totfact>
</mgrwt>
</event>
<event>
 4    1  0.4594485E+006  0.2728338E+02  0.7546771E-02  0.1630217E+00
         21   -1    0    0  503  501  0.00000000000E+00  0.00000000000E+00  0.48629227952E+03  0.48629227952E+03  0.00000000000E+00 0. -1.
         21   -1    0    0  501  502 -0.00000000000E+00 -0.00000000000E+00 -0.63870197835E+01  0.63870197835E+01  0.00000000000E+00 0.  1.
         21    1    1    2  503  504  0.21734441166E+02  0.16492327816E+02  0.45475418830E+03  0.45557189837E+03  0.00000000000E+00 0. -1.
         21    1    1    2  504  502 -0.21734441166E+02 -0.16492327816E+02  0.25151071439E+02  0.37107400934E+02  0.00000000000E+00 0.  1.
<mgrwt>
<rscale>  2 0.27283380E+02</rscale>
<asrwt>0</asrwt>
<pdfrwt beam="1">  1       21 0.74814168E-01 0.27283380E+02</pdfrwt>
<pdfrwt beam="2">  1       21 0.98261881E-03 0.27283380E+02</pdfrwt>
<totfact> 0.53727595E+06</totfact>
</mgrwt>
</event>
<event>
 4    1  0.4594485E+006  0.2453327E+02  0.7546771E-02  0.1667798E+00
         21   -1    0    0  502  501  0.00000000000E+00  0.00000000000E+00  0.18630419759E+03  0.18630419759E+03  0.00000000000E+00 0.  1.
         21   -1    0    0  503  502 -0.00000000000E+00 -0.00000000000E+00 -0.49578056454E+02  0.49578056454E+02  0.00000000000E+00 0. -1.
         21    1    1    2  503  504 -0.23938757330E+02 -0.53681523099E+01 -0.45670652999E+02  0.51842933049E+02  0.00000000000E+00 0. -1.
         21    1    1    2  504  501  0.23938757330E+02  0.53681523099E+01  0.18239679414E+03  0.18403932100E+03  0.00000000000E+00 0.  1.
<mgrwt>
<rscale>  2 0.24533266E+02</rscale>
<asrwt>0</asrwt>
<pdfrwt beam="1">  1       21 0.28662184E-01 0.24533266E+02</pdfrwt>
<pdfrwt beam="2">  1       21 0.76273934E-02 0.24533266E+02</pdfrwt>
<totfact> 0.13861941E+06</totfact>
</mgrwt>
</event>
<event>
 4    1  0.4594485E+006  0.2101762E+02  0.7546771E-02  0.1725817E+00
         21   -1    0    0  504  501  0.00000000000E+00  0.00000000000E+00  0.30476524299E+02  0.30476524299E+02  0.00000000000E+00 0. -1.
         21   -1    0    0  503  502 -0.00000000000E+00 -0.00000000000E+00 -0.15540362621E+02  0.15540362621E+02  0.00000000000E+00 0. -1.
         21    1    1    2  503  501  0.11563078726E+02  0.17550944941E+02  0.14990425497E+01  0.21071012944E+02  0.00000000000E+00 0. -1.
         21    1    1    2  504  502 -0.11563078726E+02 -0.17550944941E+02  0.13437119128E+02  0.24945873975E+02  0.00000000000E+00 0. -1.
<mgrwt>
<rscale>  2 0.21017623E+02</rscale>
<asrwt>0</asrwt>
<pdfrwt beam="1">  1       21 0.46886960E-02 0.21017623E+02</pdfrwt>
<pdfrwt beam="2">  1       21 0.23908250E-02 0.21017623E+02</pdfrwt>
<totfact> 0.17546453E+08</totfact>
</mgrwt>
</event>
<event>
 4    1  0.4594485E+006  0.2296917E+02  0.7546771E-02  0.1692010E+00
         21   -1    0    0  504  501  0.00000000000E+00  0.00000000000E+00  0.26476006883E+02  0.26476006883E+02  0.00000000000E+00 0. -1.
         21   -1    0    0  503  502 -0.00000000000E+00 -0.00000000000E+00 -0.99415965248E+02  0.99415965248E+02  0.00000000000E+00 0.  1.
         21    1    1    2  503  501  0.75183972633E+01  0.21703833814E+02  0.19815177601E+02  0.30335193472E+02  0.00000000000E+00 0. -1.
         21    1    1    2  504  502 -0.75183972633E+01 -0.21703833814E+02 -0.92755135966E+02  0.95556778659E+02  0.00000000000E+00 0.  1.
<mgrwt>
<rscale>  2 0.22969168E+02</rscale>
<asrwt>0</asrwt>
<pdfrwt beam="1">  1       21 0.40732318E-02 0.22969168E+02</pdfrwt>
<pdfrwt beam="2">  1       21 0.15294764E-01 0.22969168E+02</pdfrwt>
<totfact> 0.11303105E+07</totfact>
</mgrwt>
</event>
<event>
 4    1  0.4594485E+006  0.2566739E+02  0.7546771E-02  0.1651597E+00
         21   -1    0    0  502  501  0.00000000000E+00  0.00000000000E+00  0.25923879646E+03  0.25923879646E+03  0.00000000000E+00 0. -1.
         21   -1    0    0  503  502 -0.00000000000E+00 -0.00000000000E+00 -0.30439683915E+01  0.30439683915E+01  0.00000000000E+00 0. -1.
         21    1    1    2  503  504  0.24437536829E+02 -0.78499529376E+01  0.74807937271E+02  0.79088826304E+02  0.00000000000E+00 0. -1.
         21    1    1    2  504  501 -0.24437536829E+02  0.78499529376E+01  0.18138689080E+03  0.18319393855E+03  0.00000000000E+00 0. -1.
<mgrwt>
<rscale>  2 0.25667391E+02</rscale>
<asrwt>0</asrwt>
<pdfrwt beam="1">  1       21 0.39882874E-01 0.25667391E+02</pdfrwt>
<pdfrwt beam="2">  1       21 0.46830303E-03 0.25667391E+02</pdfrwt>
<totfact> 0.56022003E+07</totfact>
</mgrwt>
</event>
<event>
 4    1  0.4594485E+006  0.3452400E+02  0.7546771E-02  0.1552869E+00
         21   -1    0    0  503  501  0.00000000000E+00  0.00000000000E+00  0.13304576070E+03  0.13304576070E+03  0.00000000000E+00 0. -1.
         21   -1    0    0  501  502 -0.00000000000E+00 -0.00000000000E+00 -0.77693140293E+02  0.77693140293E+02  0.00000000000E+00 0. -1.
         21    1    1    2  503  504  0.31700365304E+02  0.13674545498E+02  0.12678479391E+03  0.13140125693E+03  0.00000000000E+00 0. -1.
         21    1    1    2  504  502 -0.31700365304E+02 -0.13674545498E+02 -0.71432173502E+02  0.79337644068E+02  0.00000000000E+00 0. -1.
<mgrwt>
<rscale>  2 0.34523997E+02</rscale>
<asrwt>0</asrwt>
<pdfrwt beam="1">  1       21 0.20468578E-01 0.34523997E+02</pdfrwt>
<pdfrwt beam="2">  1       21 0.11952791E-01 0.34523997E+02</pdfrwt>
<totfact> 0.12368164E+06</totfact>
</mgrwt>
</event>
<event>
 4    1  0.4594485E+006  0.2170967E+02  0.7546771E-02  0.1713322E+00
         21   -1    0    0  502  501  0.00000000000E+00  0.00000000000E+00  0.13825481223E+03  0.13825481223E+03  0.00000000000E+00 0. -1.
         21   -1    0    0  503  502 -0.00000000000E+00 -0.00000000000E+00 -0.83479030955E+02  0.83479030955E+02  0.00000000000E+00 0. -1.
         21    1    1    2  503  504 -0.18043024301E+02 -0.12073073925E+02 -0.81191725873E+02  0.84044072904E+02  0.00000000000E+00 0. -1.
         21    1    1    2  504  501  0.18043024301E+02  0.12073073925E+02  0.13596750715E+03  0.13768977028E+03  0.00000000000E+00 0. -1.
<mgrwt>
<rscale>  2 0.21709672E+02</rscale>
<asrwt>0</asrwt>
<pdfrwt beam="1">  1       21 0.21269971E-01 0.21709672E+02</pdfrwt>
<pdfrwt beam="2">  1       21 0.12842928E-01 0.21709672E+02</pdfrwt>
<totfact> 0.98365807E+05</totfact>
</mgrwt>
</event>
<event>
 4    1  0.4594485E+006  0.2013623E+02  0.7546771E-02  0.1742632E+00
         21   -1    0    0  503  501  0.00000000000E+00  0.00000000000E+00  0.44288272350E+03  0.44288272350E+03  0.00000000000E+00 0.  1.
         21   -1    0    0  504  502 -0.00000000000E+00 -0.00000000000E+00 -0.12853648680E+01  0.12853648680E+01  0.00000000000E+00 0.  1.
         21    1    1    2  503  502 -0.15318671107E+02  0.13069278060E+02  0.33992680559E+03  0.34052268775E+03  0.00000000000E+00 0.  1.
         21    1    1    2  504  501  0.15318671107E+02 -0.13069278060E+02  0.10167055304E+03  0.10364540062E+03  0.00000000000E+00 0.  1.
<mgrwt>
<rscale>  2 0.20136229E+02</rscale>
<asrwt>0</asrwt>
<pdfrwt beam="1">  1       21 0.68135682E-01 0.20136229E+02</pdfrwt>
<pdfrwt beam="2">  1       21 0.19774880E-03 0.20136229E+02</pdfrwt>
<totfact> 0.65064384E+07</totfact>
</mgrwt>
</event>
<event>
 4    1  0.4594485E+006  0.3194508E+02  0.7546771E-02  0.1577533E+00
         21   -1    0    0  503  501  0.00000000000E+00  0.00000000000E+00  0.11309353749E+02  0.11309353749E+02  0.00000000000E+00 0. -1.
         21   -1    0    0  504  502 -0.00000000000E+00 -0.00000000000E+00 -0.30185325410E+03  0.30185325410E+03  0.00000000000E+00 0.  1.
         21    1    1    2  503  502  0.20567266673E+02 -0.24443310283E+02 -0.14166847286E+02  0.34945492385E+02  0.00000000000E+00 0. -1.
         21    1    1    2  504  501 -0.20567266673E+02  0.24443310283E+02 -0.27637705306E+03  0.27821711546E+03  0.00000000000E+00 0.  1.
<mgrwt>
<rscale>  2 0.31945076E+02</rscale>
<asrwt>0</asrwt>
<pdfrwt beam="1">  1       21 0.17399005E-02 0.31945076E+02</pdfrwt>
<pdfrwt beam="2">  1       21 0.46438965E-01 0.31945076E+02</pdfrwt>
<totfact> 0.59947900E+06</totfact>
</mgrwt>
</event>
<event>
 4    1  0.4594485E+006  0.2935713E+02  0.7546771E-02  0.1605305E+00
         21   -1    0    0  504  501  0.00000000000E+00  0.00000000000E+00  0.58237783762E+02  0.58237783762E+02  0.00000000000E+00 0.  1.
         21   -1    0    0  503  502 -0.00000000000E+00 -0.00000000000E+00 -0.16454286673E+03  0.16454286673E+03  0.00000000000E+00 0. -1.
         21    1    1    2  503  501  0.72945324702E+01 -0.28436435089E+02  0.53110675612E+02  0.60684305290E+02  0.00000000000E+00 0.  1.
         21    1    1    2  504  502 -0.72945324702E+01  0.28436435089E+02 -0.15941575858E+03  0.16209634520E+03  0.00000000000E+00 0. -1.
<mgrwt>
<rscale>  2 0.29357129E+02</rscale>
<asrwt>0</asrwt>
<pdfrwt beam="1">  1       21 0.89596591E-02 0.29357129E+02</pdfrwt>
<pdfrwt beam="2">  1       21 0.25314287E-01 0.29357129E+02</pdfrwt>
<totfact> 0.13545093E+06</totfact>
</mgrwt>
</event>
<event>
 4    1  0.4594485E+006  0.2933349E+02  0.7546771E-02  0.1605575E+00
         21   -1    0    0  504  501  0.00000000000E+00  0.00000000000E+00  0.63090059681E+01  0.63090059681E+01  0.00000000000E+00 0. -1.
         21   -1    0    0  503  502 -0.00000000000E+00 -0.00000000000E+00 -0.51320846353E+03  0.51320846353E+03  0.00000000000E+00 0. -1.
         21    1    1    2  503  501  0.12468558750E+02  0.26551620500E+02 -0.30866597108E+02  0.42581690027E+02  0.00000000000E+00 0. -1.
         21    1    1    2  504  502 -0.12468558750E+02 -0.26551620500E+02 -0.47603286046E+03  0.47693577947E+03  0.00000000000E+00 0. -1.
<mgrwt>
<rscale>  2 0.29333488E+02</rscale>
<asrwt>0</asrwt>
<pdfrwt beam="1">  1       21 0.97061662E-03 0.29333488E+02</pdfrwt>
<pdfrwt beam="2">  1       21 0.78955122E-01 0.29333488E+02</pdfrwt>
<totfact> 0.49334976E+06</totfact>
</mgrwt>
</event>
<event>
 4    1  0.4594485E+006  0.2043634E+02  0.7546771E-02  0.1736788E+00
         21   -1    0    0  504  501  0.00000000000E+00  0.00000000000E+00  0.40563567514E+03  0.40563567514E+03  0.00000000000E+00 0. -1.
         21   -1    0    0  503  502 -0.00000000000E+00 -0.00000000000E+00 -0.10967216444E+01  0.10967216444E+01  0.00000000000E+00 0. -1.
         21    1    1    2  503  501 -0.17624715421E+02 -0.10344723414E+02  0.15195990154E+03  0.15332793474E+03  0.00000000000E+00 0. -1.
         21    1    1    2  504  502  0.17624715421E+02  0.10344723414E+02  0.25257905196E+03  0.25340446205E+03  0.00000000000E+00 0. -1.
<mgrwt>
<rscale>  2 0.20436338E+02</rscale>
<asrwt>0</asrwt>
<pdfrwt beam="1">  1       21 0.62405369E-01 0.20436338E+02</pdfrwt>
<pdfrwt beam="2">  1       21 0.16872673E-03 0.20436338E+02</pdfrwt>
<totfact> 0.97905698E+07</totfact>
</mgrwt>
</event>
<event>
 4    1  0.4594485E+006  0.2086462E+02  0.7546771E-02  0.1728661E+00
         21   -1    0    0  503  501  0.00000000000E+00  0.00000000000E+00  0.52762889539E+03  0.52762889539E+03  0.00000000000E+00 0. -1.
         21   -1    0    0  504  502 -0.00000000000E+00 -0.00000000000E+00 -0.18900682146E+01  0.18900682146E+01  0.00000000000E+00 0.  1.
         21    1    1    2  503  502  0.86833353171E+01 -0.18971872647E+02  0.46161003650E+03  0.46208133273E+03  0.00000000000E+00 0. -1.
         21    1    1    2  504  501 -0.86833353171E+01  0.18971872647E+02  0.64128790681E+02  0.67437630876E+02  0.00000000000E+00 0.  1.
<mgrwt>
<rscale>  2 0.20864618E+02</rscale>
<asrwt>0</asrwt>
<pdfrwt beam="1">  1       21 0.81173558E-01 0.20864618E+02</pdfrwt>
<pdfrwt beam="2">  1       21 0.29078015E-03 0.20864618E+02</pdfrwt>
<totfact> 0.26207974E+07</totfact>
</mgrwt>
</event>
<event>
 4    1  0.4594485E+006  0.2372737E+02  0.7546771E-02  0.1679984E+00
         21   -1    0    0  503  501  0.00000000000E+00  0.00000000000E+00  0.34096848273E+03  0.34096848273E+03  0.00000000000E+00 0. -1.
         21   -1    0    0  504  502 -0.00000000000E+00 -0.00000000000E+00 -0.16961174171E+01  0.16961174171E+01  0.00000000000E+00 0.  1.
         21    1    1    2  503  502  0.17985695022E+02 -0.15475883262E+02  0.19753510833E+03  0.19895503816E+03  0.00000000000E+00 0. -1.
         21    1    1    2  504  501 -0.17985695022E+02  0.15475883262E+02  0.14173725698E+03  0.14370956198E+03  0.00000000000E+00 0.  1.
<mgrwt>
<rscale>  2 0.23727372E+02</rscale>
<asrwt>0</asrwt>
<pdfrwt beam="1">  1       21 0.52456635E-01 0.23727372E+02</pdfrwt>
<pdfrwt beam="2">  1       21 0.26094141E-03 0.23727372E+02</pdfrwt>
<totfact> 0.76464359E+07</totfact>
</mgrwt>
</event>
<event>
 4    1  0.4594485E+006  0.2269746E+02  0.7546771E-02  0.1696462E+00
         21   -1    0    0  504  501  0.00000000000E+00  0.00000000000E+00  0.39392937901E+02  0.39392937901E+02  0.00000000000E+00 0.  1.
         21   -1    0    0  503  502 -0.00000000000E+00 -0.00000000000E+00 -0.15803551323E+02  0.15803551323E+02  0.00000000000E+00 0.  1.
         21    1    1    2  503  501  0.14729382279E+02  0.17269048286E+02  0.33313533059E+00  0.22699905510E+02  0.00000000000E+00 0.  1.
         21    1    1    2  504  502 -0.14729382279E+02 -0.17269048286E+02  0.23256251248E+02  0.32496583715E+02  0.00000000000E+00 0.  1.
<mgrwt>
<rscale>  2 0.22697461E+02</rscale>
<asrwt>0</asrwt>
<pdfrwt beam="1">  1       21 0.60604520E-02 0.22697461E+02</pdfrwt>
<pdfrwt beam="2">  1       21 0.24313156E-02 0.22697461E+02</pdfrwt>
<totfact> 0.11628737E+08</totfact>
</mgrwt>
</event>
<event>
 4    1  0.4594485E+006  0.2015815E+02  0.7546771E-02  0.1742201E+00
         21   -1    0    0  502  501  0.00000000000E+00  0.00000000000E+00  0.73951522758E+02  0.73951522758E+02  0.00000000000E+00 0.  1.
         21   -1    0    0  503  502 -0.00000000000E+00 -0.00000000000E+00 -0.24694028632E+03  0.24694028632E+03  0.00000000000E+00 0.  1.
         21    1    1    2  503  504  0.18767698589E+02 -0.73569413637E+01 -0.24514515030E+03  0.24597255093E+03  0.00000000000E+00 0.  1.
         21    1    1    2  504  501 -0.18767698589E+02  0.73569413637E+01  0.72156386730E+02  0.74919258155E+02  0.00000000000E+00 0.  1.
<mgrwt>
<rscale>  2 0.20158152E+02</rscale>
<asrwt>0</asrwt>
<pdfrwt beam="1">  1       21 0.11377157E-01 0.20158152E+02</pdfrwt>
<pdfrwt beam="2">  1       21 0.37990814E-01 0.20158152E+02</pdfrwt>
<totfact> 0.42083890E+05</totfact>
</mgrwt>
</event>
<event>
 4    1  0.4594485E+006  0.3179267E+02  0.7546771E-02  0.1579078E+00
         21   -1    0    0  502  501  0.00000000000E+00  0.00000000000E+00  0.23496945629E+03  0.23496945629E+03  0.00000000000E+00 0. -1.
         21   -1    0    0  503  502 -0.00000000000E+00 -0.00000000000E+00 -0.46298287905E+02  0.46298287905E+02  0.00000000000E+00 0.  1.
         21    1    1    2  503  504  0.10633474103E+02  0.29961693192E+02 -0.39605665389E+02  0.50787622128E+02  0.00000000000E+00 0.  1.
         21    1    1    2  504  501 -0.10633474103E+02 -0.29961693192E+02  0.22827683377E+03  0.23048012207E+03  0.00000000000E+00 0. -1.
<mgrwt>
<rscale>  2 0.31792669E+02</rscale>
<asrwt>0</asrwt>
<pdfrwt beam="1">  1       21 0.36149146E-01 0.31792669E+02</pdfrwt>
<pdfrwt beam="2">  1       21 0.71228137E-02 0.31792669E+02</pdfrwt>
<totfact> 0.10319112E+06</totfact>
</mgrwt>
</event>
<event>
 4    1  0.4594485E+006  0.2387554E+02  0.7546771E-02  0.1677699E+00
         21   -1    0    0  502  501  0.00000000000E+00  0.00000000000E+00  0.11046176949E+02  0.11046176949E+02  0.00000000000E+00 0. -1.
         21   -1    0    0  504  502 -0.00000000000E+00 -0.00000000000E+00 -0.26800054882E+03  0.26800054882E+03  0.00000000000E+00 0. -1.
         21    1    1    2  503  501  0.10885489468E+02 -0.21249645696E+02 -0.31044942881E+01  0.24076528154E+02  0.00000000000E+00 0. -1.
         21    1    1    2  504  503 -0.10885489468E+02  0.21249645696E+02 -0.25384987759E+03  0.25497019762E+03  0.00000000000E+00 0. -1.
<mgrwt>
<rscale>  2 0.23875538E+02</rscale>
<asrwt>0</asrwt>
<pdfrwt beam="1">  1       21 0.16994120E-02 0.23875538E+02</pdfrwt>
<pdfrwt beam="2">  1       21 0.41230851E-01 0.23875538E+02</pdfrwt>
<totfact> 0.74857007E+06</totfact>
</mgrwt>
</event>
<event>
 4    1  0.4594485E+006  0.2779714E+02  0.7546771E-02  0.1623798E+00
         21   -1    0    0  503  501  0.00000000000E+00  0.00000000000E+00  0.21598164945E+02  0.21598164945E+02  0.00000000000E+00 0. -1.
         21   -1    0    0  504  502 -0.00000000000E+00 -0.00000000000E+00 -0.20327598133E+03  0.20327598133E+03  0.00000000000E+00 0. -1.
         21    1    1    2  503  502 -0.27788467393E+02 -0.69424533693E+00  0.11225608580E+02  0.29978245189E+02  0.00000000000E+00 0. -1.
         21    1    1    2  504  501  0.27788467393E+02  0.69424533693E+00 -0.19290342497E+03  0.19489590109E+03  0.00000000000E+00 0. -1.
<mgrwt>
<rscale>  2 0.27797138E+02</rscale>
<asrwt>0</asrwt>
<pdfrwt beam="1">  1       21 0.33227945E-02 0.27797138E+02</pdfrwt>
<pdfrwt beam="2">  1       21 0.31273229E-01 0.27797138E+02</pdfrwt>
<totfact> 0.45377518E+06</totfact>
</mgrwt>
</event>
<event>
 4    1  0.4594485E+006  0.2016322E+02  0.7546771E-02  0.1742102E+00
         21   -1    0    0  503  501  0.00000000000E+00  0.00000000000E+00  0.35516071958E+03  0.35516071958E+03  0.00000000000E+00 0.  1.
         21   -1    0    0  504  502 -0.00000000000E+00 -0.00000000000E+00 -0.11731974929E+01  0.11731974929E+01  0.00000000000E+00 0. -1.
         21    1    1    2  503  502 -0.10336827090E+02 -0.17312000126E+02  0.14922967306E+03  0.15058569210E+03  0.00000000000E+00 0. -1.
         21    1    1    2  504  501  0.10336827090E+02  0.17312000126E+02  0.20475784902E+03  0.20574822497E+03  0.00000000000E+00 0.  1.
<mgrwt>
<rscale>  2 0.20163218E+02</rscale>
<asrwt>0</asrwt>
<pdfrwt beam="1">  1       21 0.54640025E-01 0.20163218E+02</pdfrwt>
<pdfrwt beam="2">  1       21 0.18049221E-03 0.20163218E+02</pdfrwt>
<totfact> 0.11520886E+08</totfact>
</mgrwt>
</event>
<event>
 4    1  0.4594485E+006  0.2021506E+02  0.7546771E-02  0.1741085E+00
         21   -1    0    0  503  501  0.00000000000E+00  0.00000000000E+00  0.20465000280E+03  0.20465000280E+03  0.00000000000E+00 0. -1.
         21   -1    0    0  504  502 -0.00000000000E+00 -0.00000000000E+00 -0.20341856352E+01  0.20341856352E+01  0.00000000000E+00 0. -1.
         21    1    1    2  503  502  0.11859851469E+02  0.16370476430E+02  0.11531462753E+03  0.11707310493E+03  0.00000000000E+00 0. -1.
         21    1    1    2  504  501 -0.11859851469E+02 -0.16370476430E+02  0.87301189634E+02  0.89611083505E+02  0.00000000000E+00 0. -1.
<mgrwt>
<rscale>  2 0.20215058E+02</rscale>
<asrwt>0</asrwt>
<pdfrwt beam="1">  1       21 0.31484600E-01 0.20215058E+02</pdfrwt>
<pdfrwt beam="2">  1       21 0.31295180E-03 0.20215058E+02</pdfrwt>
<totfact> 0.14725411E+08</totfact>
</mgrwt>
</event>
<event>
 4    1  0.4594485E+006  0.3042636E+02  0.7546771E-02  0.1593423E+00
         21   -1    0    0  504  501  0.00000000000E+00  0.00000000000E+00  0.60509476824E+00  0.60509476824E+00  0.00000000000E+00 0. -1.
         21   -1    0    0  501  502 -0.00000000000E+00 -0.00000000000E+00 -0.22306753522E+04  0.22306753522E+04  0.00000000000E+00 0. -1.
         21    1    1    2  503  502  0.11544195484E+02  0.28151289278E+02 -0.17403237292E+04  0.17405896834E+04  0.00000000000E+00 0. -1.
         21    1    1    2  504  503 -0.11544195484E+02 -0.28151289278E+02 -0.48974652824E+03  0.49069076358E+03  0.00000000000E+00 0. -1.
<mgrwt>
<rscale>  2 0.30426363E+02</rscale>
<asrwt>0</asrwt>
<pdfrwt beam="1">  1       21 0.93091161E-04 0.30426363E+02</pdfrwt>
<pdfrwt beam="2">  1       21 0.34318208E+00 0.30426363E+02</pdfrwt>
<totfact> 0.32647101E+06</totfact>
</mgrwt>
</event>
<event>
 4    1  0.4594485E+006  0.2460172E+02  0.7546771E-02  0.1666789E+00
         21   -1    0    0  502  501  0.00000000000E+00  0.00000000000E+00  0.18163294074E+01  0.18163294074E+01  0.00000000000E+00 0.  1.
         21   -1    0    0  503  502 -0.00000000000E+00 -0.00000000000E+00 -0.96180332010E+03  0.96180332010E+03  0.00000000000E+00 0.  1.
         21    1    1    2  503  504 -0.14750448895E+02  0.19689308589E+02 -0.86949805656E+03  0.86984602946E+03  0.00000000000E+00 0.  1.
         21    1    1    2  504  501  0.14750448895E+02 -0.19689308589E+02 -0.90488934134E+02  0.93773620044E+02  0.00000000000E+00 0.  1.
<mgrwt>
<rscale>  2 0.24601720E+02</rscale>
<asrwt>0</asrwt>
<pdfrwt beam="1">  1       21 0.27943574E-03 0.24601720E+02</pdfrwt>
<pdfrwt beam="2">  1       21 0.14796951E+00 0.24601720E+02</pdfrwt>
<totfact> 0.75069512E+06</totfact>
</mgrwt>
</event>
<event>
 4    1  0.4594485E+006  0.3873517E+02  0.7546771E-02  0.1517731E+00
         21   -1    0    0  504  501  0.00000000000E+00  0.00000000000E+00  0.21529428828E+02  0.21529428828E+02  0.00000000000E+00 0.  1.
         21   -1    0    0  503  502 -0.00000000000E+00 -0.00000000000E+00 -0.83983668091E+02  0.83983668091E+02  0.00000000000E+00 0.  1.
         21    1    1    2  503  501  0.26036935041E+02 -0.28679105289E+02 -0.52990764356E+02  0.65638663709E+02  0.00000000000E+00 0.  1.
         21    1    1    2  504  502 -0.26036935041E+02  0.28679105289E+02 -0.94634749074E+01  0.39874433210E+02  0.00000000000E+00 0.  1.
<mgrwt>
<rscale>  2 0.38735166E+02</rscale>
<asrwt>0</asrwt>
<pdfrwt beam="1">  1       21 0.33122198E-02 0.38735166E+02</pdfrwt>
<pdfrwt beam="2">  1       21 0.12920564E-01 0.38735166E+02</pdfrwt>
<totfact> 0.23013047E+07</totfact>
</mgrwt>
</event>
<event>
 4    1  0.4594485E+006  0.5404907E+02  0.7546771E-02  0.1424650E+00
         21   -1    0    0  504  501  0.00000000000E+00  0.00000000000E+00  0.41999103074E+03  0.41999103074E+03  0.00000000000E+00 0.  1.
         21   -1    0    0  503  502 -0.00000000000E+00 -0.00000000000E+00 -0.12581085108E+02  0.12581085108E+02  0.00000000000E+00 0. -1.
         21    1    1    2  503  501  0.14047644437E+02 -0.52191626643E+02  0.59078329263E+02  0.80072162419E+02  0.00000000000E+00 0. -1.
         21    1    1    2  504  502 -0.14047644437E+02  0.52191626643E+02  0.34833161636E+03  0.35249995343E+03  0.00000000000E+00 0.  1.
<mgrwt>
<rscale>  2 0.54049072E+02</rscale>
<asrwt>0</asrwt>
<pdfrwt beam="1">  1       21 0.64613994E-01 0.54049072E+02</pdfrwt>
<pdfrwt beam="2">  1       21 0.19355519E-02 0.54049072E+02</pdfrwt>
<totfact> 0.27395951E+06</totfact>
</mgrwt>
</event>
<event>
 4    1  0.4594485E+006  0.2457138E+02  0.7546771E-02  0.1667236E+00
         21   -1    0    0  504  501  0.00000000000E+00  0.00000000000E+00  0.76621295319E+03  0.76621295319E+03  0.00000000000E+00 0.  1.
         21   -1    0    0  503  502 -0.00000000000E+00 -0.00000000000E+00 -0.19100473565E+01  0.19100473565E+01  0.00000000000E+00 0. -1.
         21    1    1    2  503  501  0.21051227238E+02  0.12672743408E+02  0.67651915872E+03  0.67696523153E+03  0.00000000000E+00 0.  1.
         21    1    1    2  504  502 -0.21051227238E+02 -0.12672743408E+02  0.87783747118E+02  0.91157769015E+02  0.00000000000E+00 0. -1.
<mgrwt>
<rscale>  2 0.24571378E+02</rscale>
<asrwt>0</asrwt>
<pdfrwt beam="1">  1       21 0.11787867E+00 0.24571378E+02</pdfrwt>
<pdfrwt beam="2">  1       21 0.29385405E-03 0.24571378E+02</pdfrwt>
<totfact> 0.11814702E+07</totfact>
</mgrwt>
</event>
<event>
 4    1  0.4594485E+006  0.2020576E+02  0.7546771E-02  0.1741267E+00
         21   -1    0    0  504  501  0.00000000000E+00  0.00000000000E+00  0.13226394671E+04  0.13226394671E+04  0.00000000000E+00 0.  1.
         21   -1    0    0  501  502 -0.00000000000E+00 -0.00000000000E+00 -0.28605632428E+01  0.28605632428E+01  0.00000000000E+00 0. -1.
         21    1    1    2  503  502  0.16778081618E+02 -0.11259169191E+02  0.33918279557E+02  0.39480661111E+02  0.00000000000E+00 0. -1.
         21    1    1    2  504  503 -0.16778081618E+02  0.11259169191E+02  0.12858606243E+04  0.12860193693E+04  0.00000000000E+00 0.  1.
<mgrwt>
<rscale>  2 0.20205764E+02</rscale>
<asrwt>0</asrwt>
<pdfrwt beam="1">  1       21 0.20348251E+00 0.20205764E+02</pdfrwt>
<pdfrwt beam="2">  1       21 0.44008771E-03 0.20205764E+02</pdfrwt>
<totfact> 0.17302709E+06</totfact>
</mgrwt>
</event>
<event>
 4    1  0.4594485E+006  0.4773529E+02  0.7546771E-02  0.1457954E+00
         21   -1    0    0  502  501  0.00000000000E+00  0.00000000000E+00  0.30885840080E+02  0.30885840080E+02  0.00000000000E+00 0.  1.
         21   -1    0    0  504  502 -0.00000000000E+00 -0.00000000000E+00 -0.14360259930E+03  0.14360259930E+03  0.00000000000E+00 0. -1.
         21    1    1    2  503  501 -0.20910560075E+02 -0.42911606716E+02  0.44780284148E+01  0.47944866796E+02  0.00000000000E+00 0.  1.
         21    1    1    2  504  503  0.20910560075E+02  0.42911606716E+02 -0.11719478763E+03  0.12654357258E+03  0.00000000000E+00 0. -1.
<mgrwt>
<rscale>  2 0.47735286E+02</rscale>
<asrwt>0</asrwt>
<pdfrwt beam="1">  1       21 0.47516676E-02 0.47735286E+02</pdfrwt>
<pdfrwt beam="2">  1       21 0.22092708E-01 0.47735286E+02</pdfrwt>
<totfact> 0.51401951E+06</totfact>
</mgrwt>
</event>
<event>
 4    1  0.4594485E+006  0.2368914E+02  0.7546771E-02  0.1680577E+00
         21   -1    0    0  504  501  0.00000000000E+00  0.00000000000E+00  0.85141019722E+01  0.85141019722E+01  0.00000000000E+00 0.  1.
         21   -1    0    0  503  502 -0.00000000000E+00 -0.00000000000E+00 -0.70417800674E+02  0.70417800674E+02  0.00000000000E+00 0.  1.
         21    1    1    2  503  501  0.17226450027E+02 -0.16261137923E+02 -0.20967885393E+02  0.31635856318E+02  0.00000000000E+00 0.  1.
         21    1    1    2  504  502 -0.17226450027E+02  0.16261137923E+02 -0.40935813309E+02  0.47296046329E+02  0.00000000000E+00 0.  1.
<mgrwt>
<rscale>  2 0.23689136E+02</rscale>
<asrwt>0</asrwt>
<pdfrwt beam="1">  1       21 0.13098619E-02 0.23689136E+02</pdfrwt>
<pdfrwt beam="2">  1       21 0.10833508E-01 0.23689136E+02</pdfrwt>
<totfact> 0.11735043E+08</totfact>
</mgrwt>
</event>
<event>
 4    1  0.4594485E+006  0.2334194E+02  0.7546771E-02  0.1686027E+00
         21   -1    0    0  504  501  0.00000000000E+00  0.00000000000E+00  0.12551710151E+03  0.12551710151E+03  0.00000000000E+00 0. -1.
         21   -1    0    0  501  502 -0.00000000000E+00 -0.00000000000E+00 -0.11727263609E+02  0.11727263609E+02  0.00000000000E+00 0. -1.
         21    1    1    2  503  502 -0.20044864985E+02  0.11960334485E+02  0.24341091726E+01  0.23468512963E+02  0.00000000000E+00 0. -1.
         21    1    1    2  504  503  0.20044864985E+02 -0.11960334485E+02  0.11135572872E+03  0.11377585215E+03  0.00000000000E+00 0. -1.
<mgrwt>
<rscale>  2 0.23341941E+02</rscale>
<asrwt>0</asrwt>
<pdfrwt beam="1">  1       21 0.19310322E-01 0.23341941E+02</pdfrwt>
<pdfrwt beam="2">  1       21 0.18041945E-02 0.23341941E+02</pdfrwt>
<totfact> 0.26870574E+07</totfact>
</mgrwt>
</event>
<event>
 4    1  0.4594485E+006  0.3611619E+02  0.7546771E-02  0.1538906E+00
         21   -1    0    0  504  501  0.00000000000E+00  0.00000000000E+00  0.13297144977E+02  0.13297144977E+02  0.00000000000E+00 0.  1.
         21   -1    0    0  503  502 -0.00000000000E+00 -0.00000000000E+00 -0.13185697119E+03  0.13185697119E+03  0.00000000000E+00 0. -1.
         21    1    1    2  503  501 -0.34544753105E+02  0.10537508752E+02 -0.96005084198E+02  0.10257365768E+03  0.00000000000E+00 0. -1.
         21    1    1    2  504  502  0.34544753105E+02 -0.10537508752E+02 -0.22554742017E+02  0.42580458490E+02  0.00000000000E+00 0.  1.
<mgrwt>
<rscale>  2 0.36116188E+02</rscale>
<asrwt>0</asrwt>
<pdfrwt beam="1">  1       21 0.20457146E-02 0.36116188E+02</pdfrwt>
<pdfrwt beam="2">  1       21 0.20285688E-01 0.36116188E+02</pdfrwt>
<totfact> 0.22104641E+07</totfact>
</mgrwt>
</event>
<event>
 4    1  0.4594485E+006  0.2041627E+02  0.7546771E-02  0.1737175E+00
         21   -1    0    0  504  501  0.00000000000E+00  0.00000000000E+00  0.12850324898E+02  0.12850324898E+02  0.00000000000E+00 0. -1.
         21   -1    0    0  503  502 -0.00000000000E+00 -0.00000000000E+00 -0.10885449675E+03  0.10885449675E+03  0.00000000000E+00 0. -1.
         21    1    1    2  503  501 -0.65074129675E+01  0.19351424506E+02  0.29839717411E+01  0.20633180590E+02  0.00000000000E+00 0. -1.
         21    1    1    2  504  502  0.65074129675E+01 -0.19351424506E+02 -0.98988143590E+02  0.10107164105E+03  0.00000000000E+00 0. -1.
<mgrwt>
<rscale>  2 0.20416269E+02</rscale>
<asrwt>0</asrwt>
<pdfrwt beam="1">  1       21 0.19769732E-02 0.20416269E+02</pdfrwt>
<pdfrwt beam="2">  1       21 0.16746845E-01 0.20416269E+02</pdfrwt>
<totfact> 0.28945962E+07</totfact>
</mgrwt>
</event>
<event>
 4    1  0.4594485E+006  0.2290232E+02  0.7546771E-02  0.1693098E+00
         21   -1    0    0  503  501  0.00000000000E+00  0.00000000000E+00  0.52760189011E+00  0.52760189011E+00  0.00000000000E+00 0. -1.
         21   -1    0    0  504  502 -0.00000000000E+00 -0.00000000000E+00 -0.11430094553E+04  0.11430094553E+04  0.00000000000E+00 0.  1.
         21    1    1    2  503  502 -0.26771616898E+01  0.22745312978E+02 -0.77757962107E+03  0.77791682303E+03  0.00000000000E+00 0.  1.
         21    1    1    2  504  501  0.26771616898E+01 -0.22745312978E+02 -0.36490223235E+03  0.36562023416E+03  0.00000000000E+00 0. -1.
<mgrwt>
<rscale>  2 0.22902324E+02</rscale>
<asrwt>0</asrwt>
<pdfrwt beam="1">  1       21 0.81169024E-04 0.22902324E+02</pdfrwt>
<pdfrwt beam="2">  1       21 0.17584869E+00 0.22902324E+02</pdfrwt>
<totfact> 0.28909732E+07</totfact>
</mgrwt>
</event>
<event>
 4    1  0.4594485E+006  0.2086718E+02  0.7546771E-02  0.1728613E+00
         21   -1    0    0  504  501  0.00000000000E+00  0.00000000000E+00  0.25538854897E+02  0.25538854897E+02  0.00000000000E+00 0. -1.
         21   -1    0    0  503  502 -0.00000000000E+00 -0.00000000000E+00 -0.22109867384E+02  0.22109867384E+02  0.00000000000E+00 0. -1.
         21    1    1    2  503  501 -0.20762409217E+02  0.20883981834E+01  0.13111613941E+02  0.24644542269E+02  0.00000000000E+00 0. -1.
         21    1    1    2  504  502  0.20762409217E+02 -0.20883981834E+01 -0.96826264281E+01  0.23004180012E+02  0.00000000000E+00 0. -1.
<mgrwt>
<rscale>  2 0.20867176E+02</rscale>
<asrwt>0</asrwt>
<pdfrwt beam="1">  1       21 0.39290546E-02 0.20867176E+02</pdfrwt>
<pdfrwt beam="2">  1       21 0.34015181E-02 0.20867176E+02</pdfrwt>
<totfact> 0.13396099E+08</totfact>
</mgrwt>
</event>
<event>
 4    1  0.4594485E+006  0.2047365E+02  0.7546771E-02  0.1736070E+00
         21   -1    0    0  502  501  0.00000000000E+00  0.00000000000E+00  0.67602469519E+03  0.67602469519E+03  0.00000000000E+00 0.  1.
         21   -1    0    0  503  502 -0.00000000000E+00 -0.00000000000E+00 -0.22176992721E+01  0.22176992721E+01  0.00000000000E+00 0. -1.
         21    1    1    2  503  504  0.57414796097E+01  0.19652121805E+02  0.49068195769E+02  0.53168207752E+02  0.00000000000E+00 0. -1.
         21    1    1    2  504  501 -0.57414796097E+01 -0.19652121805E+02  0.62473880015E+03  0.62507418671E+03  0.00000000000E+00 0.  1.
<mgrwt>
<rscale>  2 0.20473653E+02</rscale>
<asrwt>0</asrwt>
<pdfrwt beam="1">  1       21 0.10400364E+00 0.20473653E+02</pdfrwt>
<pdfrwt beam="2">  1       21 0.34118504E-03 0.20473653E+02</pdfrwt>
<totfact> 0.12174433E+07</totfact>
</mgrwt>
</event>
<event>
 4    1  0.4594485E+006  0.2329157E+02  0.7546771E-02  0.1686827E+00
         21   -1    0    0  503  501  0.00000000000E+00  0.00000000000E+00  0.11394945979E+03  0.11394945979E+03  0.00000000000E+00 0. -1.
         21   -1    0    0  501  502 -0.00000000000E+00 -0.00000000000E+00 -0.19152916875E+02  0.19152916875E+02  0.00000000000E+00 0.  1.
         21    1    1    2  503  504 -0.45076088380E+01 -0.22851228127E+02  0.10508817602E+03  0.10763838490E+03  0.00000000000E+00 0. -1.
         21    1    1    2  504  502  0.45076088380E+01  0.22851228127E+02 -0.10291633109E+02  0.25463991761E+02  0.00000000000E+00 0.  1.
<mgrwt>
<rscale>  2 0.23291569E+02</rscale>
<asrwt>0</asrwt>
<pdfrwt beam="1">  1       21 0.17530686E-01 0.23291569E+02</pdfrwt>
<pdfrwt beam="2">  1       21 0.29466027E-02 0.23291569E+02</pdfrwt>
<totfact> 0.14897592E+07</totfact>
</mgrwt>
</event>
<event>
 4    1  0.4594485E+006  0.2375616E+02  0.7546771E-02  0.1679538E+00
         21   -1    0    0  504  501  0.00000000000E+00  0.00000000000E+00  0.34453413256E+02  0.34453413256E+02  0.00000000000E+00 0.  1.
         21   -1    0    0  501  502 -0.00000000000E+00 -0.00000000000E+00 -0.15241697918E+03  0.15241697918E+03  0.00000000000E+00 0.  1.
         21    1    1    2  503  502 -0.23666803635E+02 -0.20584994313E+01 -0.14725357456E+03  0.14915753495E+03  0.00000000000E+00 0.  1.
         21    1    1    2  504  503  0.23666803635E+02  0.20584994313E+01  0.29290008628E+02  0.37712857485E+02  0.00000000000E+00 0.  1.
<mgrwt>
<rscale>  2 0.23756157E+02</rscale>
<asrwt>0</asrwt>
<pdfrwt beam="1">  1       21 0.53005251E-02 0.23756157E+02</pdfrwt>
<pdfrwt beam="2">  1       21 0.23448766E-01 0.23756157E+02</pdfrwt>
<totfact> 0.35614103E+06</totfact>
</mgrwt>
</event>
<event>
 4    1  0.4594485E+006  0.2995790E+02  0.7546771E-02  0.1598555E+00
         21   -1    0    0  504  501  0.00000000000E+00  0.00000000000E+00  0.90605285980E+02  0.90605285980E+02  0.00000000000E+00 0. -1.
         21   -1    0    0  503  502 -0.00000000000E+00 -0.00000000000E+00 -0.14023091836E+03  0.14023091836E+03  0.00000000000E+00 0. -1.
         21    1    1    2  503  501  0.29475349234E+02  0.53553083630E+01  0.86454312687E+02  0.91497670584E+02  0.00000000000E+00 0. -1.
         21    1    1    2  504  502 -0.29475349234E+02 -0.53553083630E+01 -0.13607994507E+03  0.13933853376E+03  0.00000000000E+00 0. -1.
<mgrwt>
<rscale>  2 0.29957896E+02</rscale>
<asrwt>0</asrwt>
<pdfrwt beam="1">  1       21 0.13939275E-01 0.29957896E+02</pdfrwt>
<pdfrwt beam="2">  1       21 0.21573987E-01 0.29957896E+02</pdfrwt>
<totfact> 0.85797188E+05</totfact>
</mgrwt>
</event>
<event>
 4    1  0.4594485E+006  0.3824200E+02  0.7546771E-02  0.1521562E+00
         21   -1    0    0  503  501  0.00000000000E+00  0.00000000000E+00  0.32861455659E+03  0.32861455659E+03  0.00000000000E+00 0.  1.
         21   -1    0    0  504  502 -0.00000000000E+00 -0.00000000000E+00 -0.23836861307E+03  0.23836861307E+03  0.00000000000E+00 0. -1.
         21    1    1    2  503  502 -0.29027107832E+02 -0.24897340411E+02 -0.23570974423E+03  0.23879182162E+03  0.00000000000E+00 0. -1.
         21    1    1    2  504  501  0.29027107832E+02  0.24897340411E+02  0.32595568776E+03  0.32819134804E+03  0.00000000000E+00 0.  1.
<mgrwt>
<rscale>  2 0.38242000E+02</rscale>
<asrwt>0</asrwt>
<pdfrwt beam="1">  1       21 0.50556086E-01 0.38242000E+02</pdfrwt>
<pdfrwt beam="2">  1       21 0.36672094E-01 0.38242000E+02</pdfrwt>
<totfact> 0.30583029E+04</totfact>
</mgrwt>
</event>
<event>
 4    1  0.4594485E+006  0.2136924E+02  0.7546771E-02  0.1719395E+00
         21   -1    0    0  503  501  0.00000000000E+00  0.00000000000E+00  0.22773363518E+02  0.22773363518E+02  0.00000000000E+00 0.  1.
         21   -1    0    0  504  502 -0.00000000000E+00 -0.00000000000E+00 -0.20241112011E+02  0.20241112011E+02  0.00000000000E+00 0. -1.
         21    1    1    2  503  502 -0.21130039411E+02  0.31883850211E+01 -0.81446058612E+00  0.21384754162E+02  0.00000000000E+00 0. -1.
         21    1    1    2  504  501  0.21130039411E+02 -0.31883850211E+01  0.33467120936E+01  0.21629721366E+02  0.00000000000E+00 0.  1.
<mgrwt>
<rscale>  2 0.21369239E+02</rscale>
<asrwt>0</asrwt>
<pdfrwt beam="1">  1       21 0.35035944E-02 0.21369239E+02</pdfrwt>
<pdfrwt beam="2">  1       21 0.31140173E-02 0.21369239E+02</pdfrwt>
<totfact> 0.18528205E+08</totfact>
</mgrwt>
</event>
<event>
 4    1  0.4594485E+006  0.2087090E+02  0.7546771E-02  0.1728544E+00
         21   -1    0    0  503  501  0.00000000000E+00  0.00000000000E+00  0.67582230497E+03  0.67582230497E+03  0.00000000000E+00 0.  1.
         21   -1    0    0  501  502 -0.00000000000E+00 -0.00000000000E+00 -0.40972456139E+03  0.40972456139E+03  0.00000000000E+00 0. -1.
         21    1    1    2  503  504  0.17898792528E+02 -0.10734423696E+02  0.67539521686E+03  0.67571761379E+03  0.00000000000E+00 0.  1.
         21    1    1    2  504  502 -0.17898792528E+02  0.10734423696E+02 -0.40929747328E+03  0.40982925257E+03  0.00000000000E+00 0. -1.
<mgrwt>
<rscale>  2 0.20870904E+02</rscale>
<asrwt>0</asrwt>
<pdfrwt beam="1">  1       21 0.10397266E+00 0.20870904E+02</pdfrwt>
<pdfrwt beam="2">  1       21 0.63034548E-01 0.20870904E+02</pdfrwt>
<totfact> 0.25353694E+03</totfact>
</mgrwt>
</event>
<event>
 4    1  0.4594485E+006  0.6501975E+02  0.7546771E-02  0.1377897E+00
         21   -1    0    0  503  501  0.00000000000E+00  0.00000000000E+00  0.53093051639E+02  0.53093051639E+02  0.00000000000E+00 0. -1.
         21   -1    0    0  501  502 -0.00000000000E+00 -0.00000000000E+00 -0.33682796220E+03  0.33682796220E+03  0.00000000000E+00 0.  1.
         21    1    1    2  503  504 -0.65962553664E+01  0.64684286449E+02  0.28497408597E+02  0.70990631741E+02  0.00000000000E+00 0. -1.
         21    1    1    2  504  502  0.65962553664E+01 -0.64684286449E+02 -0.31223231916E+03  0.31893038210E+03  0.00000000000E+00 0.  1.
<mgrwt>
<rscale>  2 0.65019747E+02</rscale>
<asrwt>0</asrwt>
<pdfrwt beam="1">  1       21 0.81681617E-02 0.65019747E+02</pdfrwt>
<pdfrwt beam="2">  1       21 0.51819687E-01 0.65019747E+02</pdfrwt>
<totfact> 0.41585511E+05</totfact>
</mgrwt>
</event>
<event>
 4    1  0.4594485E+006  0.2104230E+02  0.7546771E-02  0.1725361E+00
         21   -1    0    0  503  501  0.00000000000E+00  0.00000000000E+00  0.58823874212E+01  0.58823874212E+01  0.00000000000E+00 0. -1.
         21   -1    0    0  504  502 -0.00000000000E+00 -0.00000000000E+00 -0.82801012242E+02  0.82801012242E+02  0.00000000000E+00 0. -1.
         21    1    1    2  503  502 -0.16907398785E+02  0.12526696568E+02 -0.25088202303E+02  0.32744406475E+02  0.00000000000E+00 0. -1.
         21    1    1    2  504  501  0.16907398785E+02 -0.12526696568E+02 -0.51830422518E+02  0.55938993188E+02  0.00000000000E+00 0. -1.
<mgrwt>
<rscale>  2 0.21042297E+02</rscale>
<asrwt>0</asrwt>
<pdfrwt beam="1">  1       21 0.90498265E-03 0.21042297E+02</pdfrwt>
<pdfrwt beam="2">  1       21 0.12738618E-01 0.21042297E+02</pdfrwt>
<totfact> 0.15077176E+08</totfact>
</mgrwt>
</event>
<event>
 4    1  0.4594485E+006  0.2120040E+02  0.7546771E-02  0.1722459E+00
         21   -1    0    0  502  501  0.00000000000E+00  0.00000000000E+00  0.12242200935E+02  0.12242200935E+02  0.00000000000E+00 0.  1.
         21   -1    0    0  504  502 -0.00000000000E+00 -0.00000000000E+00 -0.37825121614E+03  0.37825121614E+03  0.00000000000E+00 0.  1.
         21    1    1    2  503  501  0.58778252428E+01  0.20369295096E+02  0.25248904875E+01  0.21350224455E+02  0.00000000000E+00 0.  1.
         21    1    1    2  504  503 -0.58778252428E+01 -0.20369295096E+02 -0.36853390569E+03  0.36914319262E+03  0.00000000000E+00 0.  1.
<mgrwt>
<rscale>  2 0.21200401E+02</rscale>
<asrwt>0</asrwt>
<pdfrwt beam="1">  1       21 0.18834157E-02 0.21200401E+02</pdfrwt>
<pdfrwt beam="2">  1       21 0.58192488E-01 0.21200401E+02</pdfrwt>
<totfact> 0.32220234E+06</totfact>
</mgrwt>
</event>
<event>
 4    1  0.4594485E+006  0.2097367E+02  0.7546771E-02  0.1726631E+00
         21   -1    0    0  504  501  0.00000000000E+00  0.00000000000E+00  0.47408876947E+02  0.47408876947E+02  0.00000000000E+00 0.  1.
         21   -1    0    0  503  502 -0.00000000000E+00 -0.00000000000E+00 -0.22103732946E+02  0.22103732946E+02  0.00000000000E+00 0.  1.
         21    1    1    2  503  501  0.20808204733E+02 -0.26293380962E+01 -0.13822021274E+02  0.25118580277E+02  0.00000000000E+00 0.  1.
         21    1    1    2  504  502 -0.20808204733E+02  0.26293380962E+01  0.39127165275E+02  0.44394029616E+02  0.00000000000E+00 0.  1.
<mgrwt>
<rscale>  2 0.20973669E+02</rscale>
<asrwt>0</asrwt>
<pdfrwt beam="1">  1       21 0.72936734E-02 0.20973669E+02</pdfrwt>
<pdfrwt beam="2">  1       21 0.34005743E-02 0.20973669E+02</pdfrwt>
<totfact> 0.50141931E+07</totfact>
</mgrwt>
</event>
<event>
 4    1  0.4594485E+006  0.2508075E+02  0.7546771E-02  0.1659845E+00
         21   -1    0    0  504  501  0.00000000000E+00  0.00000000000E+00  0.14834447253E+03  0.14834447253E+03  0.00000000000E+00 0.  1.
         21   -1    0    0  503  502 -0.00000000000E+00 -0.00000000000E+00 -0.60588530910E+01  0.60588530910E+01  0.00000000000E+00 0.  1.
         21    1    1    2  503  501  0.21355412138E+02  0.13152574927E+02  0.11343686340E+03  0.11617644268E+03  0.00000000000E+00 0.  1.
         21    1    1    2  504  502 -0.21355412138E+02 -0.13152574927E+02  0.28848756044E+02  0.38226882951E+02  0.00000000000E+00 0.  1.
<mgrwt>
<rscale>  2 0.25080747E+02</rscale>
<asrwt>0</asrwt>
<pdfrwt beam="1">  1       21 0.22822224E-01 0.25080747E+02</pdfrwt>
<pdfrwt beam="2">  1       21 0.93213136E-03 0.25080747E+02</pdfrwt>
<totfact> 0.55458261E+07</totfact>
</mgrwt>
</event>
<event>
 4    1  0.4594485E+006  0.5006810E+02  0.7546771E-02  0.1444975E+00
         21   -1    0    0  502  501  0.00000000000E+00  0.00000000000E+00  0.38137088577E+03  0.38137088577E+03  0.00000000000E+00 0.  1.
         21   -1    0    0  504  502 -0.00000000000E+00 -0.00000000000E+00 -0.33072919552E+03  0.33072919552E+03  0.00000000000E+00 0.  1.
         21    1    1    2  503  501  0.33567774064E+02  0.37148603393E+02  0.37781492258E+03  0.38111799999E+03  0.00000000000E+00 0.  1.
         21    1    1    2  504  503 -0.33567774064E+02 -0.37148603393E+02 -0.32717323233E+03  0.33098208130E+03  0.00000000000E+00 0.  1.
<mgrwt>
<rscale>  2 0.50068096E+02</rscale>
<asrwt>0</asrwt>
<pdfrwt beam="1">  1       21 0.58672444E-01 0.50068096E+02</pdfrwt>
<pdfrwt beam="2">  1       21 0.50881415E-01 0.50068096E+02</pdfrwt>
<totfact> 0.11656307E+04</totfact>
</mgrwt>
</event>
<event>
 4    1  0.4594485E+006  0.3114577E+02  0.7546771E-02  0.1585758E+00
         21   -1    0    0  504  501  0.00000000000E+00  0.00000000000E+00  0.44532386776E+03  0.44532386776E+03  0.00000000000E+00 0.  1.
         21   -1    0    0  503  502 -0.00000000000E+00 -0.00000000000E+00 -0.29271462958E+01  0.29271462958E+01  0.00000000000E+00 0.  1.
         21    1    1    2  503  501  0.65234125835E+01  0.30454954150E+02  0.10783863252E+03  0.11224629084E+03  0.00000000000E+00 0.  1.
         21    1    1    2  504  502 -0.65234125835E+01 -0.30454954150E+02  0.33455808895E+03  0.33600472322E+03  0.00000000000E+00 0.  1.
<mgrwt>
<rscale>  2 0.31145772E+02</rscale>
<asrwt>0</asrwt>
<pdfrwt beam="1">  1       21 0.68511310E-01 0.31145772E+02</pdfrwt>
<pdfrwt beam="2">  1       21 0.45033055E-03 0.31145772E+02</pdfrwt>
<totfact> 0.21167861E+07</totfact>
</mgrwt>
</event>
<event>
 4    1  0.4594485E+006  0.2512907E+02  0.7546771E-02  0.1659155E+00
         21   -1    0    0  504  501  0.00000000000E+00  0.00000000000E+00  0.51694510501E+03  0.51694510501E+03  0.00000000000E+00 0. -1.
         21   -1    0    0  503  502 -0.00000000000E+00 -0.00000000000E+00 -0.17793906976E+02  0.17793906976E+02  0.00000000000E+00 0.  1.
         21    1    1    2  503  501 -0.24367970206E+02 -0.61377595011E+01  0.50760456543E+03  0.50822619464E+03  0.00000000000E+00 0. -1.
         21    1    1    2  504  502  0.24367970206E+02  0.61377595011E+01 -0.84533673973E+01  0.26512817354E+02  0.00000000000E+00 0.  1.
<mgrwt>
<rscale>  2 0.25129068E+02</rscale>
<asrwt>0</asrwt>
<pdfrwt beam="1">  1       21 0.79530005E-01 0.25129068E+02</pdfrwt>
<pdfrwt beam="2">  1       21 0.27375245E-02 0.25129068E+02</pdfrwt>
<totfact> 0.97505533E+05</totfact>
</mgrwt>
</event>
<event>
 4    1  0.4594485E+006  0.2456655E+02  0.7546771E-02  0.1667307E+00
         21   -1    0    0  504  501  0.00000000000E+00  0.00000000000E+00  0.10068942545E+03  0.10068942545E+03  0.00000000000E+00 0.  1.
         21   -1    0    0  501  502 -0.00000000000E+00 -0.00000000000E+00 -0.85827574531E+01  0.85827574531E+01  0.00000000000E+00 0.  1.
         21    1    1    2  503  502  0.19090254499E+02 -0.15462130665E+02  0.16046087787E+02  0.29342669183E+02  0.00000000000E+00 0.  1.
         21    1    1    2  504  503 -0.19090254499E+02  0.15462130665E+02  0.76060580209E+02  0.79929513718E+02  0.00000000000E+00 0.  1.
<mgrwt>
<rscale>  2 0.24566548E+02</rscale>
<asrwt>0</asrwt>
<pdfrwt beam="1">  1       21 0.15490680E-01 0.24566548E+02</pdfrwt>
<pdfrwt beam="2">  1       21 0.13204243E-02 0.24566548E+02</pdfrwt>
<totfact> 0.64034455E+07</totfact>
</mgrwt>
</event>
<event>
 4    1  0.4594485E+006  0.2451563E+02  0.7546771E-02  0.1668058E+00
         21   -1    0    0  503  501  0.00000000000E+00  0.00000000000E+00  0.58136312969E+03  0.58136312969E+03  0.00000000000E+00 0.  1.
         21   -1    0    0  504  502 -0.00000000000E+00 -0.00000000000E+00 -0.11279808224E+03  0.11279808224E+03  0.00000000000E+00 0.  1.
         21    1    1    2  503  502  0.94156765774E+01  0.22635397758E+02  0.57976895522E+03  0.58028704761E+03  0.00000000000E+00 0.  1.
         21    1    1    2  504  501 -0.94156765774E+01 -0.22635397758E+02 -0.11120390777E+03  0.11387416432E+03  0.00000000000E+00 0.  1.
<mgrwt>
<rscale>  2 0.24515632E+02</rscale>
<asrwt>0</asrwt>
<pdfrwt beam="1">  1       21 0.89440480E-01 0.24515632E+02</pdfrwt>
<pdfrwt beam="2">  1       21 0.17353551E-01 0.24515632E+02</pdfrwt>
<totfact> 0.37474519E+04</totfact>
</mgrwt>
</event>
<event>
 4    1  0.4594485E+006  0.2249133E+02  0.7546771E-02  0.1699891E+00
         21   -1    0    0  503  501  0.00000000000E+00  0.00000000000E+00  0.21524543304E+01  0.21524543304E+01  0.00000000000E+00 0. -1.
         21   -1    0    0  504  502 -0.00000000000E+00 -0.00000000000E+00 -0.45185407439E+03  0.45185407439E+03  0.00000000000E+00 0. -1.
         21    1    1    2  503  502 -0.19614094970E+02 -0.11006689567E+02 -0.38210468759E+03  0.38276605415E+03  0.00000000000E+00 0. -1.
         21    1    1    2  504  501  0.19614094970E+02  0.11006689567E+02 -0.67596932473E+02  0.71240474567E+02  0.00000000000E+00 0. -1.
<mgrwt>
<rscale>  2 0.22491330E+02</rscale>
<asrwt>0</asrwt>
<pdfrwt beam="1">  1       21 0.33114636E-03 0.22491330E+02</pdfrwt>
<pdfrwt beam="2">  1       21 0.69516107E-01 0.22491330E+02</pdfrwt>
<totfact> 0.30378825E+07</totfact>
</mgrwt>
</event>
<event>
 4    1  0.4594485E+006  0.2251743E+02  0.7546771E-02  0.1699454E+00
         21   -1    0    0  503  501  0.00000000000E+00  0.00000000000E+00  0.13884632314E+03  0.13884632314E+03  0.00000000000E+00 0.  1.
         21   -1    0    0  504  502 -0.00000000000E+00 -0.00000000000E+00 -0.48608252148E+01  0.48608252148E+01  0.00000000000E+00 0.  1.
         21    1    1    2  503  502 -0.22286912423E+02  0.32137551390E+01  0.10282851023E+03  0.10526508065E+03  0.00000000000E+00 0.  1.
         21    1    1    2  504  501  0.22286912423E+02 -0.32137551390E+01  0.31156987695E+02  0.38442067708E+02  0.00000000000E+00 0.  1.
<mgrwt>
<rscale>  2 0.22517431E+02</rscale>
<asrwt>0</asrwt>
<pdfrwt beam="1">  1       21 0.21360970E-01 0.22517431E+02</pdfrwt>
<pdfrwt beam="2">  1       21 0.74781937E-03 0.22517431E+02</pdfrwt>
<totfact> 0.84296624E+07</totfact>
</mgrwt>
</event>
<event>
 4    1  0.4594485E+006  0.2141554E+02  0.7546771E-02  0.1718560E+00
         21   -1    0    0  504  501  0.00000000000E+00  0.00000000000E+00  0.18774990740E+03  0.18774990740E+03  0.00000000000E+00 0. -1.
         21   -1    0    0  503  502 -0.00000000000E+00 -0.00000000000E+00 -0.14930544422E+02  0.14930544422E+02  0.00000000000E+00 0.  1.
         21    1    1    2  503  501 -0.46644489485E+01 -0.20901395709E+02  0.17908988474E+03  0.18036577348E+03  0.00000000000E+00 0. -1.
         21    1    1    2  504  502  0.46644489485E+01  0.20901395709E+02 -0.62705217586E+01  0.22314678347E+02  0.00000000000E+00 0.  1.
<mgrwt>
<rscale>  2 0.21415542E+02</rscale>
<asrwt>0</asrwt>
<pdfrwt beam="1">  1       21 0.28884600E-01 0.21415542E+02</pdfrwt>
<pdfrwt beam="2">  1       21 0.22970070E-02 0.21415542E+02</pdfrwt>
<totfact> 0.89301182E+06</totfact>
</mgrwt>
</event>
<event>
 4    1  0.4594485E+006  0.2288896E+02  0.7546771E-02  0.1693316E+00
         21   -1    0    0  503  501  0.00000000000E+00  0.00000000000E+00  0.64767500240E+03  0.64767500240E+03  0.00000000000E+00 0. -1.
         21   -1    0    0  504  502 -0.00000000000E+00 -0.00000000000E+00 -0.76104344133E+02  0.76104344133E+02  0.00000000000E+00 0.  1.
         21    1    1    2  503  502 -0.14645028579E+02 -0.17590558641E+02 -0.74175973654E+02  0.77627183917E+02  0.00000000000E+00 0.  1.
         21    1    1    2  504  501  0.14645028579E+02  0.17590558641E+02  0.64574663193E+03  0.64615216262E+03  0.00000000000E+00 0. -1.
<mgrwt>
<rscale>  2 0.22888963E+02</rscale>
<asrwt>0</asrwt>
<pdfrwt beam="1">  1       21 0.99642304E-01 0.22888963E+02</pdfrwt>
<pdfrwt beam="2">  1       21 0.11708361E-01 0.22888963E+02</pdfrwt>
<totfact> 0.58024670E+04</totfact>
</mgrwt>
</event>
<event>
 4    1  0.4594485E+006  0.2358637E+02  0.7546771E-02  0.1682178E+00
         21   -1    0    0  504  501  0.00000000000E+00  0.00000000000E+00  0.33151741364E+03  0.33151741364E+03  0.00000000000E+00 0.  1.
         21   -1    0    0  501  502 -0.00000000000E+00 -0.00000000000E+00 -0.63144145254E+02  0.63144145254E+02  0.00000000000E+00 0.  1.
         21    1    1    2  503  502 -0.10958905083E+01 -0.23560901194E+02 -0.60504397917E+02  0.64939196240E+02  0.00000000000E+00 0.  1.
         21    1    1    2  504  503  0.10958905083E+01  0.23560901194E+02  0.32887766630E+03  0.32972236265E+03  0.00000000000E+00 0.  1.
<mgrwt>
<rscale>  2 0.23586374E+02</rscale>
<asrwt>0</asrwt>
<pdfrwt beam="1">  1       21 0.51002678E-01 0.23586374E+02</pdfrwt>
<pdfrwt beam="2">  1       21 0.97144841E-02 0.23586374E+02</pdfrwt>
<totfact> 0.31460557E+05</totfact>
</mgrwt>
</event>
<event>
 4    1  0.4594485E+006  0.2235057E+02  0.7546771E-02  0.1702259E+00
         21   -1    0    0  503  501  0.00000000000E+00  0.00000000000E+00  0.10804791466E+03  0.10804791466E+03  0.00000000000E+00 0. -1.
         21   -1    0    0  501  502 -0.00000000000E+00 -0.00000000000E+00 -0.46392387535E+02  0.46392387535E+02  0.00000000000E+00 0.  1.
         21    1    1    2  503  504 -0.16137364523E+02 -0.15463933390E+02  0.10409913250E+03  0.10647148518E+03  0.00000000000E+00 0. -1.
         21    1    1    2  504  502  0.16137364523E+02  0.15463933390E+02 -0.42443605368E+02  0.47968817019E+02  0.00000000000E+00 0.  1.
<mgrwt>
<rscale>  2 0.22350565E+02</rscale>
<asrwt>0</asrwt>
<pdfrwt beam="1">  1       21 0.16622756E-01 0.22350565E+02</pdfrwt>
<pdfrwt beam="2">  1       21 0.71372904E-02 0.22350565E+02</pdfrwt>
<totfact> 0.39826778E+06</totfact>
</mgrwt>
</event>
<event>
 4    1  0.4594485E+006  0.2250045E+02  0.7546771E-02  0.1699738E+00
         21   -1    0    0  502  501  0.00000000000E+00  0.00000000000E+00  0.48912771079E+02  0.48912771079E+02  0.00000000000E+00 0.  1.
         21   -1    0    0  503  502 -0.00000000000E+00 -0.00000000000E+00 -0.14825391206E+03  0.14825391206E+03  0.00000000000E+00 0.  1.
         21    1    1    2  503  504 -0.19958140744E+02 -0.10389554795E+02 -0.14475031476E+03  0.14648864753E+03  0.00000000000E+00 0.  1.
         21    1    1    2  504  501  0.19958140744E+02  0.10389554795E+02  0.45409173776E+02  0.50678035616E+02  0.00000000000E+00 0.  1.
<mgrwt>
<rscale>  2 0.22500450E+02</rscale>
<asrwt>0</asrwt>
<pdfrwt beam="1">  1       21 0.75250418E-02 0.22500450E+02</pdfrwt>
<pdfrwt beam="2">  1       21 0.22808294E-01 0.22500450E+02</pdfrwt>
<totfact> 0.21106107E+06</totfact>
</mgrwt>
</event>
<event>
 4    1  0.4594485E+006  0.4061782E+02  0.7546771E-02  0.1503714E+00
         21   -1    0    0  504  501  0.00000000000E+00  0.00000000000E+00  0.40050165192E+02  0.40050165192E+02  0.00000000000E+00 0.  1.
         21   -1    0    0  503  502 -0.00000000000E+00 -0.00000000000E+00 -0.47030462210E+02  0.47030462210E+02  0.00000000000E+00 0.  1.
         21    1    1    2  503  501  0.32893986781E+02  0.23828401004E+02 -0.18829070242E+02  0.44769866506E+02  0.00000000000E+00 0.  1.
         21    1    1    2  504  502 -0.32893986781E+02 -0.23828401004E+02  0.11848773224E+02  0.42310760897E+02  0.00000000000E+00 0.  1.
<mgrwt>
<rscale>  2 0.40617817E+02</rscale>
<asrwt>0</asrwt>
<pdfrwt beam="1">  1       21 0.61615639E-02 0.40617817E+02</pdfrwt>
<pdfrwt beam="2">  1       21 0.72354557E-02 0.40617817E+02</pdfrwt>
<totfact> 0.22602875E+07</totfact>
</mgrwt>
</event>
<event>
 4    1  0.4594485E+006  0.4432668E+02  0.7546771E-02  0.1478589E+00
         21   -1    0    0  504  501  0.00000000000E+00  0.00000000000E+00  0.95445699825E+02  0.95445699825E+02  0.00000000000E+00 0. -1.
         21   -1    0    0  503  502 -0.00000000000E+00 -0.00000000000E+00 -0.10622546274E+03  0.10622546274E+03  0.00000000000E+00 0. -1.
         21    1    1    2  503  501 -0.24748701722E+02  0.36774396167E+02  0.85149226455E+02  0.95996068754E+02  0.00000000000E+00 0. -1.
         21    1    1    2  504  502  0.24748701722E+02 -0.36774396167E+02 -0.95928989372E+02  0.10567509381E+03  0.00000000000E+00 0. -1.
<mgrwt>
<rscale>  2 0.44326679E+02</rscale>
<asrwt>0</asrwt>
<pdfrwt beam="1">  1       21 0.14683954E-01 0.44326679E+02</pdfrwt>
<pdfrwt beam="2">  1       21 0.16342379E-01 0.44326679E+02</pdfrwt>
<totfact> 0.13134019E+06</totfact>
</mgrwt>
</event>
<event>
 4    1  0.4594485E+006  0.2088510E+02  0.7546771E-02  0.1728279E+00
         21   -1    0    0  503  501  0.00000000000E+00  0.00000000000E+00  0.41149867503E+03  0.41149867503E+03  0.00000000000E+00 0.  1.
         21   -1    0    0  504  502 -0.00000000000E+00 -0.00000000000E+00 -0.22142259758E+01  0.22142259758E+01  0.00000000000E+00 0.  1.
         21    1    1    2  503  502  0.53344577807E+01  0.20192348188E+02  0.35399183081E+03  0.35460739367E+03  0.00000000000E+00 0.  1.
         21    1    1    2  504  501 -0.53344577807E+01 -0.20192348188E+02  0.55292618248E+02  0.59105507339E+02  0.00000000000E+00 0.  1.
<mgrwt>
<rscale>  2 0.20885099E+02</rscale>
<asrwt>0</asrwt>
<pdfrwt beam="1">  1       21 0.63307428E-01 0.20885099E+02</pdfrwt>
<pdfrwt beam="2">  1       21 0.34065048E-03 0.20885099E+02</pdfrwt>
<totfact> 0.34665094E+07</totfact>
</mgrwt>
</event>
<event>
 4    1  0.4594485E+006  0.3557042E+02  0.7546771E-02  0.1543593E+00
         21   -1    0    0  504  501  0.00000000000E+00  0.00000000000E+00  0.88025604483E+02  0.88025604483E+02  0.00000000000E+00 0. -1.
         21   -1    0    0  501  502 -0.00000000000E+00 -0.00000000000E+00 -0.15248174093E+02  0.15248174093E+02  0.00000000000E+00 0. -1.
         21    1    1    2  503  502 -0.33945668434E+02 -0.10627622845E+02  0.24022938375E+02  0.42922678632E+02  0.00000000000E+00 0. -1.
         21    1    1    2  504  503  0.33945668434E+02  0.10627622845E+02  0.48754492014E+02  0.60351099943E+02  0.00000000000E+00 0. -1.
<mgrwt>
<rscale>  2 0.35570420E+02</rscale>
<asrwt>0</asrwt>
<pdfrwt beam="1">  1       21 0.13542400E-01 0.35570420E+02</pdfrwt>
<pdfrwt beam="2">  1       21 0.23458730E-02 0.35570420E+02</pdfrwt>
<totfact> 0.36063210E+07</totfact>
</mgrwt>
</event>
<event>
 4    1  0.4594485E+006  0.2394173E+02  0.7546771E-02  0.1676685E+00
         21   -1    0    0  503  501  0.00000000000E+00  0.00000000000E+00  0.64126987648E+03  0.64126987648E+03  0.00000000000E+00 0.  1.
         21   -1    0    0  501  502 -0.00000000000E+00 -0.00000000000E+00 -0.12355908101E+01  0.12355908101E+01  0.00000000000E+00 0.  1.
         21    1    1    2  503  504  0.58075127084E+01  0.23226689207E+02  0.48896425353E+03  0.48955004598E+03  0.00000000000E+00 0.  1.
         21    1    1    2  504  502 -0.58075127084E+01 -0.23226689207E+02  0.15107003214E+03  0.15295542130E+03  0.00000000000E+00 0.  1.
<mgrwt>
<rscale>  2 0.23941727E+02</rscale>
<asrwt>0</asrwt>
<pdfrwt beam="1">  1       21 0.98656638E-01 0.23941727E+02</pdfrwt>
<pdfrwt beam="2">  1       21 0.19009141E-03 0.23941727E+02</pdfrwt>
<totfact> 0.32885798E+07</totfact>
</mgrwt>
</event>
<event>
 4    1  0.4594485E+006  0.2184992E+02  0.7546771E-02  0.1710861E+00
         21   -1    0    0  503  501  0.00000000000E+00  0.00000000000E+00  0.97832270332E+00  0.97832270332E+00  0.00000000000E+00 0.  1.
         21   -1    0    0  504  502 -0.00000000000E+00 -0.00000000000E+00 -0.13033105094E+04  0.13033105094E+04  0.00000000000E+00 0. -1.
         21    1    1    2  503  502 -0.19228549375E+02  0.10376981081E+02 -0.13536522602E+03  0.13711733392E+03  0.00000000000E+00 0.  1.
         21    1    1    2  504  501  0.19228549375E+02 -0.10376981081E+02 -0.11669669607E+04  0.11671714982E+04  0.00000000000E+00 0. -1.
<mgrwt>
<rscale>  2 0.21849916E+02</rscale>
<asrwt>0</asrwt>
<pdfrwt beam="1">  1       21 0.15051170E-03 0.21849916E+02</pdfrwt>
<pdfrwt beam="2">  1       21 0.20050863E+00 0.21849916E+02</pdfrwt>
<totfact> 0.85582222E+06</totfact>
</mgrwt>
</event>
<event>
 4    1  0.4594485E+006  0.4081027E+02  0.7546771E-02  0.1502332E+00
         21   -1    0    0  503  501  0.00000000000E+00  0.00000000000E+00  0.12724840356E+03  0.12724840356E+03  0.00000000000E+00 0. -1.
         21   -1    0    0  504  502 -0.00000000000E+00 -0.00000000000E+00 -0.21549212050E+02  0.21549212050E+02  0.00000000000E+00 0.  1.
         21    1    1    2  503  502  0.94901226233E+01 -0.39691503700E+02  0.99467884269E+02  0.10751436134E+03  0.00000000000E+00 0. -1.
         21    1    1    2  504  501 -0.94901226233E+01  0.39691503700E+02  0.62313072438E+01  0.41283254272E+02  0.00000000000E+00 0.  1.
<mgrwt>
<rscale>  2 0.40810267E+02</rscale>
<asrwt>0</asrwt>
<pdfrwt beam="1">  1       21 0.19576677E-01 0.40810267E+02</pdfrwt>
<pdfrwt beam="2">  1       21 0.33152635E-02 0.40810267E+02</pdfrwt>
<totfact> 0.11203088E+07</totfact>
</mgrwt>
</event>
<event>
 4    1  0.4594485E+006  0.2549971E+02  0.7546771E-02  0.1653926E+00
         21   -1    0    0  502  501  0.00000000000E+00  0.00000000000E+00  0.41649849113E+02  0.41649849113E+02  0.00000000000E+00 0.  1.
         21   -1    0    0  504  502 -0.00000000000E+00 -0.00000000000E+00 -0.36729043505E+02  0.36729043505E+02  0.00000000000E+00 0.  1.
         21    1    1    2  503  501 -0.25499588578E+02 -0.77123395626E-01  0.32175796430E+02  0.41055046482E+02  0.00000000000E+00 0.  1.
         21    1    1    2  504  503  0.25499588578E+02  0.77123395626E-01 -0.27254990822E+02  0.37323846136E+02  0.00000000000E+00 0.  1.
<mgrwt>
<rscale>  2 0.25499705E+02</rscale>
<asrwt>0</asrwt>
<pdfrwt beam="1">  1       21 0.64076691E-02 0.25499705E+02</pdfrwt>
<pdfrwt beam="2">  1       21 0.56506221E-02 0.25499705E+02</pdfrwt>
<totfact> 0.29039749E+07</totfact>
</mgrwt>
</event>
<event>
 4    1  0.4594485E+006  0.2762358E+02  0.7546771E-02  0.1625947E+00
         21   -1    0    0  503  501  0.00000000000E+00  0.00000000000E+00  0.68608733675E+00  0.68608733675E+00  0.00000000000E+00 0.  1.
         21   -1    0    0  504  502 -0.00000000000E+00 -0.00000000000E+00 -0.11457919125E+04  0.11457919125E+04  0.00000000000E+00 0.  1.
         21    1    1    2  503  502 -0.27579147506E+02  0.15661352763E+01 -0.47439177339E+03  0.47519534596E+03  0.00000000000E+00 0.  1.
         21    1    1    2  504  501  0.27579147506E+02 -0.15661352763E+01 -0.67071405175E+03  0.67128265386E+03  0.00000000000E+00 0.  1.
<mgrwt>
<rscale>  2 0.27623580E+02</rscale>
<asrwt>0</asrwt>
<pdfrwt beam="1">  1       21 0.10555312E-03 0.27623580E+02</pdfrwt>
<pdfrwt beam="2">  1       21 0.17627363E+00 0.27623580E+02</pdfrwt>
<totfact> 0.20326844E+07</totfact>
</mgrwt>
</event>
<event>
 4    1  0.4594485E+006  0.2667769E+02  0.7546771E-02  0.1638012E+00
         21   -1    0    0  504  501  0.00000000000E+00  0.00000000000E+00  0.46217678411E+01  0.46217678411E+01  0.00000000000E+00 0. -1.
         21   -1    0    0  503  502 -0.00000000000E+00 -0.00000000000E+00 -0.19168368351E+03  0.19168368351E+03  0.00000000000E+00 0. -1.
         21    1    1    2  503  501  0.23908915514E+02 -0.11834813917E+02 -0.13705735961E+03  0.13962957740E+03  0.00000000000E+00 0. -1.
         21    1    1    2  504  502 -0.23908915514E+02  0.11834813917E+02 -0.50004556056E+02  0.56675873948E+02  0.00000000000E+00 0. -1.
<mgrwt>
<rscale>  2 0.26677688E+02</rscale>
<asrwt>0</asrwt>
<pdfrwt beam="1">  1       21 0.71104137E-03 0.26677688E+02</pdfrwt>
<pdfrwt beam="2">  1       21 0.29489791E-01 0.26677688E+02</pdfrwt>
<totfact> 0.53231912E+07</totfact>
</mgrwt>
</event>
<event>
 4    1  0.4594485E+006  0.2315951E+02  0.7546771E-02  0.1688937E+00
         21   -1    0    0  504  501  0.00000000000E+00  0.00000000000E+00  0.23987291629E+02  0.23987291629E+02  0.00000000000E+00 0.  1.
         21   -1    0    0  503  502 -0.00000000000E+00 -0.00000000000E+00 -0.31727752350E+02  0.31727752350E+02  0.00000000000E+00 0.  1.
         21    1    1    2  503  501  0.21467892664E+02 -0.86886510929E+01  0.11266551065E+02  0.25754577189E+02  0.00000000000E+00 0.  1.
         21    1    1    2  504  502 -0.21467892664E+02  0.86886510929E+01 -0.19007011786E+02  0.29960466790E+02  0.00000000000E+00 0.  1.
<mgrwt>
<rscale>  2 0.23159514E+02</rscale>
<asrwt>0</asrwt>
<pdfrwt beam="1">  1       21 0.36903526E-02 0.23159514E+02</pdfrwt>
<pdfrwt beam="2">  1       21 0.48811927E-02 0.23159514E+02</pdfrwt>
<totfact> 0.86310845E+07</totfact>
</mgrwt>
</event>
<event>
 4    1  0.4594485E+006  0.2046114E+02  0.7546771E-02  0.1736310E+00
         21   -1    0    0  503  501  0.00000000000E+00  0.00000000000E+00  0.10636391900E+02  0.10636391900E+02  0.00000000000E+00 0.  1.
         21   -1    0    0  501  502 -0.00000000000E+00 -0.00000000000E+00 -0.56749359972E+02  0.56749359972E+02  0.00000000000E+00 0.  1.
         21    1    1    2  503  504 -0.53324755774E+01 -0.19754060348E+02 -0.44060956904E+01  0.20930166632E+02  0.00000000000E+00 0.  1.
         21    1    1    2  504  502  0.53324755774E+01  0.19754060348E+02 -0.41706872382E+02  0.46455585240E+02  0.00000000000E+00 0.  1.
<mgrwt>
<rscale>  2 0.20461139E+02</rscale>
<asrwt>0</asrwt>
<pdfrwt beam="1">  1       21 0.16363680E-02 0.20461139E+02</pdfrwt>
<pdfrwt beam="2">  1       21 0.87306705E-02 0.20461139E+02</pdfrwt>
<totfact> 0.11448223E+08</totfact>
</mgrwt>
</event>
<event>
 4    1  0.4594485E+006  0.2180597E+02  0.7546771E-02  0.1711629E+00
         21   -1    0    0  504  501  0.00000000000E+00  0.00000000000E+00  0.41726174986E+03  0.41726174986E+03  0.00000000000E+00 0.  1.
         21   -1    0    0  503  502 -0.00000000000E+00 -0.00000000000E+00 -0.16253418679E+02  0.16253418679E+02  0.00000000000E+00 0. -1.
         21    1    1    2  503  501 -0.12084127841E+02  0.18151419012E+02 -0.85166003835E+01  0.23410096965E+02  0.00000000000E+00 0. -1.
         21    1    1    2  504  502  0.12084127841E+02 -0.18151419012E+02  0.40952493157E+03  0.41010507158E+03  0.00000000000E+00 0.  1.
<mgrwt>
<rscale>  2 0.21805966E+02</rscale>
<asrwt>0</asrwt>
<pdfrwt beam="1">  1       21 0.64194107E-01 0.21805966E+02</pdfrwt>
<pdfrwt beam="2">  1       21 0.25005263E-02 0.21805966E+02</pdfrwt>
<totfact> 0.17200922E+06</totfact>
</mgrwt>
</event>
<event>
 4    1  0.4594485E+006  0.2319837E+02  0.7546771E-02  0.1688315E+00
         21   -1    0    0  502  501  0.00000000000E+00  0.00000000000E+00  0.18124377481E+02  0.18124377481E+02  0.00000000000E+00 0.  1.
         21   -1    0    0  504  502 -0.00000000000E+00 -0.00000000000E+00 -0.56225717527E+02  0.56225717527E+02  0.00000000000E+00 0.  1.
         21    1    1    2  503  501  0.51820921143E+01  0.22612175173E+02  0.64866940373E+01  0.24088207577E+02  0.00000000000E+00 0.  1.
         21    1    1    2  504  503 -0.51820921143E+01 -0.22612175173E+02 -0.44588034083E+02  0.50261887431E+02  0.00000000000E+00 0.  1.
<mgrwt>
<rscale>  2 0.23198374E+02</rscale>
<asrwt>0</asrwt>
<pdfrwt beam="1">  1       21 0.27883657E-02 0.23198374E+02</pdfrwt>
<pdfrwt beam="2">  1       21 0.86501104E-02 0.23198374E+02</pdfrwt>
<totfact> 0.53124791E+07</totfact>
</mgrwt>
</event>
<event>
 4    1  0.4594485E+006  0.2648441E+02  0.7546771E-02  0.1640553E+00
         21   -1    0    0  504  501  0.00000000000E+00  0.00000000000E+00  0.17120272943E+02  0.17120272943E+02  0.00000000000E+00 0. -1.
         21   -1    0    0  503  502 -0.00000000000E+00 -0.00000000000E+00 -0.81887593159E+02  0.81887593159E+02  0.00000000000E+00 0. -1.
         21    1    1    2  503  501  0.17686583146E+02 -0.19713158565E+02 -0.67376867478E+02  0.72395207819E+02  0.00000000000E+00 0. -1.
         21    1    1    2  504  502 -0.17686583146E+02  0.19713158565E+02  0.26095472616E+01  0.26612658283E+02  0.00000000000E+00 0. -1.
<mgrwt>
<rscale>  2 0.26484408E+02</rscale>
<asrwt>0</asrwt>
<pdfrwt beam="1">  1       21 0.26338881E-02 0.26484408E+02</pdfrwt>
<pdfrwt beam="2">  1       21 0.12598091E-01 0.26484408E+02</pdfrwt>
<totfact> 0.32043465E+07</totfact>
</mgrwt>
</event>
<event>
 4    1  0.4594485E+006  0.2457160E+02  0.7546771E-02  0.1667233E+00
         21   -1    0    0  504  501  0.00000000000E+00  0.00000000000E+00  0.40899120003E+02  0.40899120003E+02  0.00000000000E+00 0. -1.
         21   -1    0    0  503  502 -0.00000000000E+00 -0.00000000000E+00 -0.15388943203E+02  0.15388943203E+02  0.00000000000E+00 0. -1.
         21    1    1    2  503  501 -0.19753654903E+02 -0.14613575359E+02  0.70756454811E+01  0.25570065033E+02  0.00000000000E+00 0. -1.
         21    1    1    2  504  502  0.19753654903E+02  0.14613575359E+02  0.18434531319E+02  0.30717998173E+02  0.00000000000E+00 0. -1.
<mgrwt>
<rscale>  2 0.24571599E+02</rscale>
<asrwt>0</asrwt>
<pdfrwt beam="1">  1       21 0.62921723E-02 0.24571599E+02</pdfrwt>
<pdfrwt beam="2">  1       21 0.23675297E-02 0.24571599E+02</pdfrwt>
<totfact> 0.11672455E+08</totfact>
</mgrwt>
</event>
<event>
 4    1  0.4594485E+006  0.2867194E+02  0.7546771E-02  0.1613250E+00
         21   -1    0    0  503  501  0.00000000000E+00  0.00000000000E+00  0.44430420592E+02  0.44430420592E+02  0.00000000000E+00 0.  1.
         21   -1    0    0  504  502 -0.00000000000E+00 -0.00000000000E+00 -0.18543394408E+02  0.18543394408E+02  0.00000000000E+00 0.  1.
         21    1    1    2  503  502  0.11384490404E+02  0.26314894222E+02  0.14419554048E+02  0.32093672564E+02  0.00000000000E+00 0.  1.
         21    1    1    2  504  501 -0.11384490404E+02 -0.26314894222E+02  0.11467472135E+02  0.30880142436E+02  0.00000000000E+00 0.  1.
<mgrwt>
<rscale>  2 0.28671942E+02</rscale>
<asrwt>0</asrwt>
<pdfrwt beam="1">  1       21 0.68354493E-02 0.28671942E+02</pdfrwt>
<pdfrwt beam="2">  1       21 0.28528299E-02 0.28671942E+02</pdfrwt>
<totfact> 0.79471739E+07</totfact>
</mgrwt>
</event>
<event>
 4    1  0.4594485E+006  0.2615498E+02  0.7546771E-02  0.1644946E+00
         21   -1    0    0  504  501  0.00000000000E+00  0.00000000000E+00  0.21833242482E+02  0.21833242482E+02  0.00000000000E+00 0.  1.
         21   -1    0    0  503  502 -0.00000000000E+00 -0.00000000000E+00 -0.60303162208E+02  0.60303162208E+02  0.00000000000E+00 0.  1.
         21    1    1    2  503  501 -0.14628833915E+02 -0.21681336154E+02 -0.47700357004E+02  0.54400433614E+02  0.00000000000E+00 0.  1.
         21    1    1    2  504  502  0.14628833915E+02  0.21681336154E+02  0.92304372780E+01  0.27735971075E+02  0.00000000000E+00 0.  1.
<mgrwt>
<rscale>  2 0.26154983E+02</rscale>
<asrwt>0</asrwt>
<pdfrwt beam="1">  1       21 0.33589604E-02 0.26154983E+02</pdfrwt>
<pdfrwt beam="2">  1       21 0.92774094E-02 0.26154983E+02</pdfrwt>
<totfact> 0.36430579E+07</totfact>
</mgrwt>
</event>
<event>
 4    1  0.4594485E+006  0.2006666E+02  0.7546771E-02  0.1744006E+00
         21   -1    0    0  503  501  0.00000000000E+00  0.00000000000E+00  0.85456343615E+01  0.85456343615E+01  0.00000000000E+00 0.  1.
         21   -1    0    0  501  502 -0.00000000000E+00 -0.00000000000E+00 -0.77850734756E+02  0.77850734756E+02  0.00000000000E+00 0.  1.
         21    1    1    2  503  504 -0.30699397963E+01 -0.19830438639E+02 -0.75119050611E+01  0.21426608332E+02  0.00000000000E+00 0.  1.
         21    1    1    2  504  502  0.30699397963E+01  0.19830438639E+02 -0.61793195334E+02  0.64969760785E+02  0.00000000000E+00 0.  1.
<mgrwt>
<rscale>  2 0.20066660E+02</rscale>
<asrwt>0</asrwt>
<pdfrwt beam="1">  1       21 0.13147130E-02 0.20066660E+02</pdfrwt>
<pdfrwt beam="2">  1       21 0.11977036E-01 0.20066660E+02</pdfrwt>
<totfact> 0.94109904E+07</totfact>
</mgrwt>
</event>
<event>
 4    1  0.4594485E+006  0.2087470E+02  0.7546771E-02  0.1728473E+00
         21   -1    0    0  503  501  0.00000000000E+00  0.00000000000E+00  0.24374613022E+03  0.24374613022E+03  0.00000000000E+00 0.  1.
         21   -1    0    0  501  502 -0.00000000000E+00 -0.00000000000E+00 -0.96024301284E+01  0.96024301284E+01  0.00000000000E+00 0. -1.
         21    1    1    2  503  504 -0.17046086876E+02  0.12049239473E+02  0.23134755637E+03  0.23228741913E+03  0.00000000000E+00 0.  1.
         21    1    1    2  504  502  0.17046086876E+02 -0.12049239473E+02  0.27961437249E+01  0.21061141217E+02  0.00000000000E+00 0. -1.
<mgrwt>
<rscale>  2 0.20874704E+02</rscale>
<asrwt>0</asrwt>
<pdfrwt beam="1">  1       21 0.37499400E-01 0.20874704E+02</pdfrwt>
<pdfrwt beam="2">  1       21 0.14772971E-02 0.20874704E+02</pdfrwt>
<totfact> 0.10801330E+07</totfact>
</mgrwt>
</event>
<event>
 4    1  0.4594485E+006  0.2821005E+02  0.7546771E-02  0.1618761E+00
         21   -1    0    0  503  501  0.00000000000E+00  0.00000000000E+00  0.17100289454E+02  0.17100289454E+02  0.00000000000E+00 0.  1.
         21   -1    0    0  504  502 -0.00000000000E+00 -0.00000000000E+00 -0.55953989054E+02  0.55953989054E+02  0.00000000000E+00 0.  1.
         21    1    1    2  503  502  0.12978652891E+02  0.25047184307E+02 -0.44423678037E+01  0.28557687306E+02  0.00000000000E+00 0.  1.
         21    1    1    2  504  501 -0.12978652891E+02 -0.25047184307E+02 -0.34411331797E+02  0.44496591202E+02  0.00000000000E+00 0.  1.
<mgrwt>
<rscale>  2 0.28210049E+02</rscale>
<asrwt>0</asrwt>
<pdfrwt beam="1">  1       21 0.26308138E-02 0.28210049E+02</pdfrwt>
<pdfrwt beam="2">  1       21 0.86083060E-02 0.28210049E+02</pdfrwt>
<totfact> 0.61531854E+07</totfact>
</mgrwt>
</event>
<event>
 4    1  0.4594485E+006  0.2025200E+02  0.7546771E-02  0.1740363E+00
         21   -1    0    0  502  501  0.00000000000E+00  0.00000000000E+00  0.32700540109E+03  0.32700540109E+03  0.00000000000E+00 0. -1.
         21   -1    0    0  503  502 -0.00000000000E+00 -0.00000000000E+00 -0.11325537706E+02  0.11325537706E+02  0.00000000000E+00 0. -1.
         21    1    1    2  503  504 -0.17171734261E+02 -0.10736616549E+02 -0.16836936261E+01  0.20321865482E+02  0.00000000000E+00 0. -1.
         21    1    1    2  504  501  0.17171734261E+02  0.10736616549E+02  0.31736355701E+03  0.31800907331E+03  0.00000000000E+00 0. -1.
<mgrwt>
<rscale>  2 0.20251997E+02</rscale>
<asrwt>0</asrwt>
<pdfrwt beam="1">  1       21 0.50308516E-01 0.20251997E+02</pdfrwt>
<pdfrwt beam="2">  1       21 0.17423907E-02 0.20251997E+02</pdfrwt>
<totfact> 0.47907346E+06</totfact>
</mgrwt>
</event>
<event>
 4    1  0.4594485E+006  0.2014987E+02  0.7546771E-02  0.1742364E+00
         21   -1    0    0  504  501  0.00000000000E+00  0.00000000000E+00  0.40408185632E+01  0.40408185632E+01  0.00000000000E+00 0.  1.
         21   -1    0    0  503  502 -0.00000000000E+00 -0.00000000000E+00 -0.14157719421E+03  0.14157719421E+03  0.00000000000E+00 0.  1.
         21    1    1    2  503  501 -0.81279353298E+01 -0.18437839740E+02 -0.29539840783E+02  0.35757788809E+02  0.00000000000E+00 0.  1.
         21    1    1    2  504  502  0.81279353298E+01  0.18437839740E+02 -0.10799653486E+03  0.10986022396E+03  0.00000000000E+00 0.  1.
<mgrwt>
<rscale>  2 0.20149870E+02</rscale>
<asrwt>0</asrwt>
<pdfrwt beam="1">  1       21 0.62166424E-03 0.20149870E+02</pdfrwt>
<pdfrwt beam="2">  1       21 0.21781112E-01 0.20149870E+02</pdfrwt>
<totfact> 0.10387014E+08</totfact>
</mgrwt>
</event>
<event>
 4    1  0.4594485E+006  0.2144759E+02  0.7546771E-02  0.1717984E+00
         21   -1    0    0  504  501  0.00000000000E+00  0.00000000000E+00  0.16173835333E+02  0.16173835333E+02  0.00000000000E+00 0. -1.
         21   -1    0    0  503  502 -0.00000000000E+00 -0.00000000000E+00 -0.68229551769E+02  0.68229551769E+02  0.00000000000E+00 0. -1.
         21    1    1    2  503  501 -0.19930223746E+02  0.79237262821E+01 -0.58255086414E+02  0.62077808836E+02  0.00000000000E+00 0. -1.
         21    1    1    2  504  502  0.19930223746E+02 -0.79237262821E+01  0.61993699780E+01  0.22325578265E+02  0.00000000000E+00 0. -1.
<mgrwt>
<rscale>  2 0.21447593E+02</rscale>
<asrwt>0</asrwt>
<pdfrwt beam="1">  1       21 0.24882823E-02 0.21447593E+02</pdfrwt>
<pdfrwt beam="2">  1       21 0.10496854E-01 0.21447593E+02</pdfrwt>
<totfact> 0.45138472E+07</totfact>
</mgrwt>
</event>
<event>
 4    1  0.4594485E+006  0.2248192E+02  0.7546771E-02  0.1700048E+00
         21   -1    0    0  503  501  0.00000000000E+00  0.00000000000E+00  0.39287859440E+02  0.39287859440E+02  0.00000000000E+00 0.  1.
         21   -1    0    0  504  502 -0.00000000000E+00 -0.00000000000E+00 -0.37060856568E+02  0.37060856568E+02  0.00000000000E+00 0.  1.
         21    1    1    2  503  502  0.21632071138E+02  0.61229188275E+01 -0.29731507401E+02  0.37274645123E+02  0.00000000000E+00 0.  1.
         21    1    1    2  504  501 -0.21632071138E+02 -0.61229188275E+01  0.31958510273E+02  0.39074070885E+02  0.00000000000E+00 0.  1.
<mgrwt>
<rscale>  2 0.22481918E+02</rscale>
<asrwt>0</asrwt>
<pdfrwt beam="1">  1       21 0.60442861E-02 0.22481918E+02</pdfrwt>
<pdfrwt beam="2">  1       21 0.57016702E-02 0.22481918E+02</pdfrwt>
<totfact> 0.30539370E+07</totfact>
</mgrwt>
</event>
<event>
 4    1  0.4594485E+006  0.2098702E+02  0.7546771E-02  0.1726384E+00
         21   -1    0    0  503  501  0.00000000000E+00  0.00000000000E+00  0.15763369737E+02  0.15763369737E+02  0.00000000000E+00 0.  1.
         21   -1    0    0  501  502 -0.00000000000E+00 -0.00000000000E+00 -0.23051335591E+03  0.23051335591E+03  0.00000000000E+00 0.  1.
         21    1    1    2  503  504 -0.20848886697E+02 -0.24039631027E+01  0.80592563378E+01  0.22481252808E+02  0.00000000000E+00 0.  1.
         21    1    1    2  504  502  0.20848886697E+02  0.24039631027E+01 -0.22280924251E+03  0.22379547284E+03  0.00000000000E+00 0.  1.
<mgrwt>
<rscale>  2 0.20987023E+02</rscale>
<asrwt>0</asrwt>
<pdfrwt beam="1">  1       21 0.24251339E-02 0.20987023E+02</pdfrwt>
<pdfrwt beam="2">  1       21 0.35463592E-01 0.20987023E+02</pdfrwt>
<totfact> 0.56270968E+06</totfact>
</mgrwt>
</event>
<event>
 4    1  0.4594485E+006  0.2830978E+02  0.7546771E-02  0.1617560E+00
         21   -1    0    0  504  501  0.00000000000E+00  0.00000000000E+00  0.16454597458E+03  0.16454597458E+03  0.00000000000E+00 0.  1.
         21   -1    0    0  503  502 -0.00000000000E+00 -0.00000000000E+00 -0.82600668499E+01  0.82600668499E+01  0.00000000000E+00 0.  1.
         21    1    1    2  503  501 -0.28307636527E+02 -0.34840132269E+00  0.13349076961E+03  0.13645962495E+03  0.00000000000E+00 0.  1.
         21    1    1    2  504  502  0.28307636527E+02  0.34840132269E+00  0.22795138116E+02  0.36346416480E+02  0.00000000000E+00 0.  1.
<mgrwt>
<rscale>  2 0.28309780E+02</rscale>
<asrwt>0</asrwt>
<pdfrwt beam="1">  1       21 0.25314763E-01 0.28309780E+02</pdfrwt>
<pdfrwt beam="2">  1       21 0.12707796E-02 0.28309780E+02</pdfrwt>
<totfact> 0.29607768E+07</totfact>
</mgrwt>
</event>
<event>
 4    1  0.4594485E+006  0.2609353E+02  0.7546771E-02  0.1645774E+00
         21   -1    0    0  504  501  0.00000000000E+00  0.00000000000E+00  0.21885640018E+02  0.21885640018E+02  0.00000000000E+00 0.  1.
         21   -1    0    0  503  502 -0.00000000000E+00 -0.00000000000E+00 -0.60564349042E+02  0.60564349042E+02  0.00000000000E+00 0.  1.
         21    1    1    2  503  501  0.16902003875E+02  0.19879504491E+02 -0.48088395863E+02  0.54711664665E+02  0.00000000000E+00 0.  1.
         21    1    1    2  504  502 -0.16902003875E+02 -0.19879504491E+02  0.94096868392E+01  0.27738324395E+02  0.00000000000E+00 0.  1.
<mgrwt>
<rscale>  2 0.26093532E+02</rscale>
<asrwt>0</asrwt>
<pdfrwt beam="1">  1       21 0.33670215E-02 0.26093532E+02</pdfrwt>
<pdfrwt beam="2">  1       21 0.93175923E-02 0.26093532E+02</pdfrwt>
<totfact> 0.36015833E+07</totfact>
</mgrwt>
</event>
<event>
 4    1  0.4594485E+006  0.3732865E+02  0.7546771E-02  0.1528843E+00
         21   -1    0    0  504  501  0.00000000000E+00  0.00000000000E+00  0.14224857962E+04  0.14224857962E+04  0.00000000000E+00 0. -1.
         21   -1    0    0  501  502 -0.00000000000E+00 -0.00000000000E+00 -0.99922881708E+00  0.99922881708E+00  0.00000000000E+00 0. -1.
         21    1    1    2  503  502 -0.23513898027E+02 -0.28991803208E+02  0.61091793457E+03  0.61205731009E+03  0.00000000000E+00 0. -1.
         21    1    1    2  504  503  0.23513898027E+02  0.28991803208E+02  0.81056863278E+03  0.81142771490E+03  0.00000000000E+00 0. -1.
<mgrwt>
<rscale>  2 0.37328649E+02</rscale>
<asrwt>0</asrwt>
<pdfrwt beam="1">  1       21 0.21884235E+00 0.37328649E+02</pdfrwt>
<pdfrwt beam="2">  1       21 0.15372865E-03 0.37328649E+02</pdfrwt>
<totfact> 0.68677152E+06</totfact>
</mgrwt>
</event>
<event>
 4    1  0.4594485E+006  0.3827076E+02  0.7546771E-02  0.1521337E+00
         21   -1    0    0  504  501  0.00000000000E+00  0.00000000000E+00  0.56051517481E+02  0.56051517481E+02  0.00000000000E+00 0.  1.
         21   -1    0    0  503  502 -0.00000000000E+00 -0.00000000000E+00 -0.16188053339E+03  0.16188053339E+03  0.00000000000E+00 0. -1.
         21    1    1    2  503  501  0.37945009555E+02 -0.49826771138E+01  0.46870171179E+02  0.60510030306E+02  0.00000000000E+00 0.  1.
         21    1    1    2  504  502 -0.37945009555E+02  0.49826771138E+01 -0.15269918709E+03  0.15742202056E+03  0.00000000000E+00 0. -1.
<mgrwt>
<rscale>  2 0.38270757E+02</rscale>
<asrwt>0</asrwt>
<pdfrwt beam="1">  1       21 0.86233104E-02 0.38270757E+02</pdfrwt>
<pdfrwt beam="2">  1       21 0.24904698E-01 0.38270757E+02</pdfrwt>
<totfact> 0.15183301E+06</totfact>
</mgrwt>
</event>
<event>
 4    1  0.4594485E+006  0.2060386E+02  0.7546771E-02  0.1733580E+00
         21   -1    0    0  504  501  0.00000000000E+00  0.00000000000E+00  0.24638197511E+02  0.24638197511E+02  0.00000000000E+00 0. -1.
         21   -1    0    0  503  502 -0.00000000000E+00 -0.00000000000E+00 -0.58288769921E+02  0.58288769921E+02  0.00000000000E+00 0.  1.
         21    1    1    2  503  501 -0.20561225567E+02  0.13247582531E+01  0.17974429893E+02  0.27342258707E+02  0.00000000000E+00 0. -1.
         21    1    1    2  504  502  0.20561225567E+02 -0.13247582531E+01 -0.51625002303E+02  0.55584708725E+02  0.00000000000E+00 0.  1.
<mgrwt>
<rscale>  2 0.20603858E+02</rscale>
<asrwt>0</asrwt>
<pdfrwt beam="1">  1       21 0.37904920E-02 0.20603858E+02</pdfrwt>
<pdfrwt beam="2">  1       21 0.89675030E-02 0.20603858E+02</pdfrwt>
<totfact> 0.30109232E+07</totfact>
</mgrwt>
</event>
<event>
 4    1  0.4594485E+006  0.4284778E+02  0.7546771E-02  0.1488243E+00
         21   -1    0    0  503  501  0.00000000000E+00  0.00000000000E+00  0.44356291103E+02  0.44356291103E+02  0.00000000000E+00 0.  1.
         21   -1    0    0  504  502 -0.00000000000E+00 -0.00000000000E+00 -0.41410992938E+02  0.41410992938E+02  0.00000000000E+00 0.  1.
         21    1    1    2  503  502  0.42774971943E+02  0.24967992563E+01  0.52033828975E+00  0.42850939117E+02  0.00000000000E+00 0.  1.
         21    1    1    2  504  501 -0.42774971943E+02 -0.24967992563E+01  0.24249598745E+01  0.42916344924E+02  0.00000000000E+00 0.  1.
<mgrwt>
<rscale>  2 0.42847780E+02</rscale>
<asrwt>0</asrwt>
<pdfrwt beam="1">  1       21 0.68240448E-02 0.42847780E+02</pdfrwt>
<pdfrwt beam="2">  1       21 0.63709220E-02 0.42847780E+02</pdfrwt>
<totfact> 0.23782086E+07</totfact>
</mgrwt>
</event>
<event>
 4    1  0.4594485E+006  0.2939328E+02  0.7546771E-02  0.1604894E+00
         21   -1    0    0  502  501  0.00000000000E+00  0.00000000000E+00  0.17876328779E+03  0.17876328779E+03  0.00000000000E+00 0. -1.
         21   -1    0    0  503  502 -0.00000000000E+00 -0.00000000000E+00 -0.82481670122E+01  0.82481670122E+01  0.00000000000E+00 0.  1.
         21    1    1    2  503  504  0.27296514559E+02 -0.10902530037E+02  0.25089669489E+02  0.38645263402E+02  0.00000000000E+00 0.  1.
         21    1    1    2  504  501 -0.27296514559E+02  0.10902530037E+02  0.14542545129E+03  0.14836619141E+03  0.00000000000E+00 0. -1.
<mgrwt>
<rscale>  2 0.29393279E+02</rscale>
<asrwt>0</asrwt>
<pdfrwt beam="1">  1       21 0.27502041E-01 0.29393279E+02</pdfrwt>
<pdfrwt beam="2">  1       21 0.12689489E-02 0.29393279E+02</pdfrwt>
<totfact> 0.25733950E+07</totfact>
</mgrwt>
</event>
<event>
 4    1  0.4594485E+006  0.2054663E+02  0.7546771E-02  0.1734671E+00
         21   -1    0    0  504  501  0.00000000000E+00  0.00000000000E+00  0.11534913518E+02  0.11534913518E+02  0.00000000000E+00 0. -1.
         21   -1    0    0  503  502 -0.00000000000E+00 -0.00000000000E+00 -0.41042600693E+02  0.41042600693E+02  0.00000000000E+00 0. -1.
         21    1    1    2  503  501  0.20437137816E+02  0.21183304870E+01 -0.23404124006E+02  0.31143489635E+02  0.00000000000E+00 0. -1.
         21    1    1    2  504  502 -0.20437137816E+02 -0.21183304870E+01 -0.61035631684E+01  0.21434024576E+02  0.00000000000E+00 0. -1.
<mgrwt>
<rscale>  2 0.20546628E+02</rscale>
<asrwt>0</asrwt>
<pdfrwt beam="1">  1       21 0.17746021E-02 0.20546628E+02</pdfrwt>
<pdfrwt beam="2">  1       21 0.63142463E-02 0.20546628E+02</pdfrwt>
<totfact> 0.17114114E+08</totfact>
</mgrwt>
</event>
<event>
 4    1  0.4594485E+006  0.3910570E+02  0.7546771E-02  0.1514898E+00
         21   -1    0    0  504  501  0.00000000000E+00  0.00000000000E+00  0.14508340484E+02  0.14508340484E+02  0.00000000000E+00 0.  1.
         21   -1    0    0  503  502 -0.00000000000E+00 -0.00000000000E+00 -0.12969163110E+03  0.12969163110E+03  0.00000000000E+00 0.  1.
         21    1    1    2  503  501  0.14829131740E+02 -0.36184981098E+02 -0.88792044019E+02  0.97022075252E+02  0.00000000000E+00 0.  1.
         21    1    1    2  504  502 -0.14829131740E+02  0.36184981098E+02 -0.26391246594E+02  0.47177896329E+02  0.00000000000E+00 0.  1.
<mgrwt>
<rscale>  2 0.39105703E+02</rscale>
<asrwt>0</asrwt>
<pdfrwt beam="1">  1       21 0.22320523E-02 0.39105703E+02</pdfrwt>
<pdfrwt beam="2">  1       21 0.19952559E-01 0.39105703E+02</pdfrwt>
<totfact> 0.20120103E+07</totfact>
</mgrwt>
</event>
<event>
 4    1  0.4594485E+006  0.2009984E+02  0.7546771E-02  0.1743350E+00
         21   -1    0    0  504  501  0.00000000000E+00  0.00000000000E+00  0.48328713962E+02  0.48328713962E+02  0.00000000000E+00 0.  1.
         21   -1    0    0  503  502 -0.00000000000E+00 -0.00000000000E+00 -0.61769168637E+02  0.61769168637E+02  0.00000000000E+00 0. -1.
         21    1    1    2  503  501 -0.48380491656E+01  0.19508887557E+02  0.44468351746E+02  0.48799976644E+02  0.00000000000E+00 0.  1.
         21    1    1    2  504  502  0.48380491656E+01 -0.19508887557E+02 -0.57908806421E+02  0.61297905956E+02  0.00000000000E+00 0. -1.
<mgrwt>
<rscale>  2 0.20099836E+02</rscale>
<asrwt>0</asrwt>
<pdfrwt beam="1">  1       21 0.74351868E-02 0.20099836E+02</pdfrwt>
<pdfrwt beam="2">  1       21 0.95029490E-02 0.20099836E+02</pdfrwt>
<totfact> 0.93330365E+06</totfact>
</mgrwt>
</event>
<event>
 4    1  0.4594485E+006  0.2071680E+02  0.7546771E-02  0.1731438E+00
         21   -1    0    0  504  501  0.00000000000E+00  0.00000000000E+00  0.43425391183E+01  0.43425391183E+01  0.00000000000E+00 0. -1.
         21   -1    0    0  501  502 -0.00000000000E+00 -0.00000000000E+00 -0.24172811637E+03  0.24172811637E+03  0.00000000000E+00 0. -1.
         21    1    1    2  503  502 -0.20712722006E+02 -0.41080156774E+00 -0.21328930319E+03  0.21429305277E+03  0.00000000000E+00 0. -1.
         21    1    1    2  504  503  0.20712722006E+02  0.41080156774E+00 -0.24096274065E+02  0.31777602721E+02  0.00000000000E+00 0. -1.
<mgrwt>
<rscale>  2 0.20716795E+02</rscale>
<asrwt>0</asrwt>
<pdfrwt beam="1">  1       21 0.66808295E-03 0.20716795E+02</pdfrwt>
<pdfrwt beam="2">  1       21 0.37188941E-01 0.20716795E+02</pdfrwt>
<totfact> 0.35910501E+07</totfact>
</mgrwt>
</event>
<event>
 4    1  0.4594485E+006  0.2067383E+02  0.7546771E-02  0.1732251E+00
         21   -1    0    0  502  501  0.00000000000E+00  0.00000000000E+00  0.46364502559E+00  0.46364502559E+00  0.00000000000E+00 0. -1.
         21   -1    0    0  504  502 -0.00000000000E+00 -0.00000000000E+00 -0.10184500331E+04  0.10184500331E+04  0.00000000000E+00 0. -1.
         21    1    1    2  503  501  0.33036517367E+01 -0.20408162195E+02 -0.35208507811E+03  0.35269152162E+03  0.00000000000E+00 0. -1.
         21    1    1    2  504  503 -0.33036517367E+01  0.20408162195E+02 -0.66590130996E+03  0.66622215650E+03  0.00000000000E+00 0. -1.
<mgrwt>
<rscale>  2 0.20673829E+02</rscale>
<asrwt>0</asrwt>
<pdfrwt beam="1">  1       21 0.71329779E-04 0.20673829E+02</pdfrwt>
<pdfrwt beam="2">  1       21 0.15668511E+00 0.20673829E+02</pdfrwt>
<totfact> 0.45032232E+07</totfact>
</mgrwt>
</event>
<event>
 4    1  0.4594485E+006  0.2129713E+02  0.7546771E-02  0.1720699E+00
         21   -1    0    0  503  501  0.00000000000E+00  0.00000000000E+00  0.50078702169E+03  0.50078702169E+03  0.00000000000E+00 0.  1.
         21   -1    0    0  504  502 -0.00000000000E+00 -0.00000000000E+00 -0.10468649564E+02  0.10468649564E+02  0.00000000000E+00 0.  1.
         21    1    1    2  503  502 -0.39361359021E+01 -0.20930233425E+02  0.83946923967E+00  0.21313670394E+02  0.00000000000E+00 0.  1.
         21    1    1    2  504  501  0.39361359021E+01  0.20930233425E+02  0.48947890289E+03  0.48994200086E+03  0.00000000000E+00 0.  1.
<mgrwt>
<rscale>  2 0.21297132E+02</rscale>
<asrwt>0</asrwt>
<pdfrwt beam="1">  1       21 0.77044138E-01 0.21297132E+02</pdfrwt>
<pdfrwt beam="2">  1       21 0.16105619E-02 0.21297132E+02</pdfrwt>
<totfact> 0.23156696E+06</totfact>
</mgrwt>
</event>
<event>
 4    1  0.4594485E+006  0.3041624E+02  0.7546771E-02  0.1593533E+00
         21   -1    0    0  502  501  0.00000000000E+00  0.00000000000E+00  0.27401722984E+02  0.27401722984E+02  0.00000000000E+00 0. -1.
         21   -1    0    0  503  502 -0.00000000000E+00 -0.00000000000E+00 -0.97968818796E+02  0.97968818796E+02  0.00000000000E+00 0.  1.
         21    1    1    2  503  504 -0.30169840844E+02  0.38637486371E+01 -0.86030598332E+02  0.91249173692E+02  0.00000000000E+00 0.  1.
         21    1    1    2  504  501  0.30169840844E+02 -0.38637486371E+01  0.15463502519E+02  0.34121368088E+02  0.00000000000E+00 0. -1.
<mgrwt>
<rscale>  2 0.30416243E+02</rscale>
<asrwt>0</asrwt>
<pdfrwt beam="1">  1       21 0.42156496E-02 0.30416243E+02</pdfrwt>
<pdfrwt beam="2">  1       21 0.15072126E-01 0.30416243E+02</pdfrwt>
<totfact> 0.11547662E+07</totfact>
</mgrwt>
</event>
<event>
 4    1  0.4594485E+006  0.2430581E+02  0.7546771E-02  0.1671178E+00
         21   -1    0    0  504  501  0.00000000000E+00  0.00000000000E+00  0.68999988522E+02  0.68999988522E+02  0.00000000000E+00 0.  1.
         21   -1    0    0  501  502 -0.00000000000E+00 -0.00000000000E+00 -0.62317578519E+02  0.62317578519E+02  0.00000000000E+00 0.  1.
         21    1    1    2  503  502  0.22810548223E+02 -0.83935189864E+01 -0.57640511841E+02  0.62555582297E+02  0.00000000000E+00 0.  1.
         21    1    1    2  504  503 -0.22810548223E+02  0.83935189864E+01  0.64322921845E+02  0.68761984744E+02  0.00000000000E+00 0.  1.
<mgrwt>
<rscale>  2 0.24305807E+02</rscale>
<asrwt>0</asrwt>
<pdfrwt beam="1">  1       21 0.10615383E-01 0.24305807E+02</pdfrwt>
<pdfrwt beam="2">  1       21 0.95873198E-02 0.24305807E+02</pdfrwt>
<totfact> 0.53122717E+06</totfact>
</mgrwt>
</event>
<event>
 4    1  0.4594485E+006  0.2323044E+02  0.7546771E-02  0.1687802E+00
         21   -1    0    0  504  501  0.00000000000E+00  0.00000000000E+00  0.58613175641E+03  0.58613175641E+03  0.00000000000E+00 0. -1.
         21   -1    0    0  501  502 -0.00000000000E+00 -0.00000000000E+00 -0.63089291183E+01  0.63089291183E+01  0.00000000000E+00 0.  1.
         21    1    1    2  503  502 -0.10121041383E+02  0.20909760678E+02  0.16157749041E+02  0.28297109823E+02  0.00000000000E+00 0.  1.
         21    1    1    2  504  503  0.10121041383E+02 -0.20909760678E+02  0.56366507825E+03  0.56414357570E+03  0.00000000000E+00 0. -1.
<mgrwt>
<rscale>  2 0.23230445E+02</rscale>
<asrwt>0</asrwt>
<pdfrwt beam="1">  1       21 0.90174074E-01 0.23230445E+02</pdfrwt>
<pdfrwt beam="2">  1       21 0.97060494E-03 0.23230445E+02</pdfrwt>
<totfact> 0.36096472E+06</totfact>
</mgrwt>
</event>
<event>
 4    1  0.4594485E+006  0.2293500E+02  0.7546771E-02  0.1692566E+00
         21   -1    0    0  504  501  0.00000000000E+00  0.00000000000E+00  0.18581926361E+01  0.18581926361E+01  0.00000000000E+00 0.  1.
         21   -1    0    0  501  502 -0.00000000000E+00 -0.00000000000E+00 -0.28379831413E+03  0.28379831413E+03  0.00000000000E+00 0.  1.
         21    1    1    2  503  502 -0.13112852913E+02  0.18816677592E+02 -0.14816353014E+03  0.14992813589E+03  0.00000000000E+00 0.  1.
         21    1    1    2  504  503  0.13112852913E+02 -0.18816677592E+02 -0.13377659135E+03  0.13572837087E+03  0.00000000000E+00 0.  1.
<mgrwt>
<rscale>  2 0.22935001E+02</rscale>
<asrwt>0</asrwt>
<pdfrwt beam="1">  1       21 0.28587571E-03 0.22935001E+02</pdfrwt>
<pdfrwt beam="2">  1       21 0.43661291E-01 0.22935001E+02</pdfrwt>
<totfact> 0.94650933E+07</totfact>
</mgrwt>
</event>
<event>
 4    1  0.4594485E+006  0.3622127E+02  0.7546771E-02  0.1538015E+00
         21   -1    0    0  502  501  0.00000000000E+00  0.00000000000E+00  0.14320325852E+02  0.14320325852E+02  0.00000000000E+00 0.  1.
         21   -1    0    0  504  502 -0.00000000000E+00 -0.00000000000E+00 -0.23795993302E+03  0.23795993302E+03  0.00000000000E+00 0.  1.
         21    1    1    2  503  501 -0.13048046441E+02  0.33789481478E+02 -0.12898980856E+02  0.38449503009E+02  0.00000000000E+00 0.  1.
         21    1    1    2  504  503  0.13048046441E+02 -0.33789481478E+02 -0.21074062632E+03  0.21383075587E+03  0.00000000000E+00 0.  1.
<mgrwt>
<rscale>  2 0.36221272E+02</rscale>
<asrwt>0</asrwt>
<pdfrwt beam="1">  1       21 0.22031270E-02 0.36221272E+02</pdfrwt>
<pdfrwt beam="2">  1       21 0.36609221E-01 0.36221272E+02</pdfrwt>
<totfact> 0.66682605E+06</totfact>
</mgrwt>
</event>
<event>
 4    1  0.4594485E+006  0.2196152E+02  0.7546771E-02  0.1708918E+00
         21   -1    0    0  503  501  0.00000000000E+00  0.00000000000E+00  0.84906182572E+02  0.84906182572E+02  0.00000000000E+00 0. -1.
         21   -1    0    0  504  502 -0.00000000000E+00 -0.00000000000E+00 -0.31967104297E+02  0.31967104297E+02  0.00000000000E+00 0.  1.
         21    1    1    2  503  502  0.11127620788E+02 -0.18933683919E+02  0.79460400342E+02  0.82439453866E+02  0.00000000000E+00 0. -1.
         21    1    1    2  504  501 -0.11127620788E+02  0.18933683919E+02 -0.26521322067E+02  0.34433833004E+02  0.00000000000E+00 0.  1.
<mgrwt>
<rscale>  2 0.21961519E+02</rscale>
<asrwt>0</asrwt>
<pdfrwt beam="1">  1       21 0.13062490E-01 0.21961519E+02</pdfrwt>
<pdfrwt beam="2">  1       21 0.49180161E-02 0.21961519E+02</pdfrwt>
<totfact> 0.10859523E+07</totfact>
</mgrwt>
</event>
<event>
 4    1  0.4594485E+006  0.4560813E+02  0.7546771E-02  0.1470581E+00
         21   -1    0    0  503  501  0.00000000000E+00  0.00000000000E+00  0.36128622861E+02  0.36128622861E+02  0.00000000000E+00 0.  1.
         21   -1    0    0  504  502 -0.00000000000E+00 -0.00000000000E+00 -0.17206466961E+03  0.17206466961E+03  0.00000000000E+00 0. -1.
         21    1    1    2  503  502 -0.26635852444E+02  0.37022060222E+02  0.16944987428E+02  0.48654230828E+02  0.00000000000E+00 0.  1.
         21    1    1    2  504  501  0.26635852444E+02 -0.37022060222E+02 -0.15288103417E+03  0.15953906164E+03  0.00000000000E+00 0. -1.
<mgrwt>
<rscale>  2 0.45608131E+02</rscale>
<asrwt>0</asrwt>
<pdfrwt beam="1">  1       21 0.55582497E-02 0.45608131E+02</pdfrwt>
<pdfrwt beam="2">  1       21 0.26471488E-01 0.45608131E+02</pdfrwt>
<totfact> 0.28474594E+06</totfact>
</mgrwt>
</event>
<event>
 4    1  0.4594485E+006  0.3802668E+02  0.7546771E-02  0.1523256E+00
         21   -1    0    0  503  501  0.00000000000E+00  0.00000000000E+00  0.54996769019E+02  0.54996769019E+02  0.00000000000E+00 0. -1.
         21   -1    0    0  501  502 -0.00000000000E+00 -0.00000000000E+00 -0.34520867310E+02  0.34520867310E+02  0.00000000000E+00 0.  1.
         21    1    1    2  503  504 -0.20476230661E+02  0.32042977594E+02  0.32089497162E+02  0.49757052398E+02  0.00000000000E+00 0. -1.
         21    1    1    2  504  502  0.20476230661E+02 -0.32042977594E+02 -0.11613595453E+02  0.39760583931E+02  0.00000000000E+00 0.  1.
<mgrwt>
<rscale>  2 0.38026681E+02</rscale>
<asrwt>0</asrwt>
<pdfrwt beam="1">  1       21 0.84610414E-02 0.38026681E+02</pdfrwt>
<pdfrwt beam="2">  1       21 0.53109027E-02 0.38026681E+02</pdfrwt>
<totfact> 0.21971300E+07</totfact>
</mgrwt>
</event>
<event>
 4    1  0.4594485E+006  0.2714489E+02  0.7546771E-02  0.1631977E+00
         21   -1    0    0  504  501  0.00000000000E+00  0.00000000000E+00  0.12525820557E+02  0.12525820557E+02  0.00000000000E+00 0. -1.
         21   -1    0    0  501  502 -0.00000000000E+00 -0.00000000000E+00 -0.12641823588E+03  0.12641823588E+03  0.00000000000E+00 0. -1.
         21    1    1    2  503  502 -0.24649588494E+02  0.11368498291E+02 -0.10774498429E+03  0.11111177528E+03  0.00000000000E+00 0. -1.
         21    1    1    2  504  503  0.24649588494E+02 -0.11368498291E+02 -0.61474310383E+01  0.27832281162E+02  0.00000000000E+00 0. -1.
<mgrwt>
<rscale>  2 0.27144888E+02</rscale>
<asrwt>0</asrwt>
<pdfrwt beam="1">  1       21 0.19270492E-02 0.27144888E+02</pdfrwt>
<pdfrwt beam="2">  1       21 0.19448961E-01 0.27144888E+02</pdfrwt>
<totfact> 0.24769256E+07</totfact>
</mgrwt>
</event>
<event>
 4    1  0.4594485E+006  0.2003287E+02  0.7546771E-02  0.1744675E+00
         21   -1    0    0  503  501  0.00000000000E+00  0.00000000000E+00  0.30542813178E+01  0.30542813178E+01  0.00000000000E+00 0. -1.
         21   -1    0    0  504  502 -0.00000000000E+00 -0.00000000000E+00 -0.14032501903E+03  0.14032501903E+03  0.00000000000E+00 0. -1.
         21    1    1    2  503  502  0.17933974812E+02  0.89268457144E+01 -0.86720646637E+02  0.89004418880E+02  0.00000000000E+00 0. -1.
         21    1    1    2  504  501 -0.17933974812E+02 -0.89268457144E+01 -0.50550091073E+02  0.54374881466E+02  0.00000000000E+00 0. -1.
<mgrwt>
<rscale>  2 0.20032874E+02</rscale>
<asrwt>0</asrwt>
<pdfrwt beam="1">  1       21 0.46988957E-03 0.20032874E+02</pdfrwt>
<pdfrwt beam="2">  1       21 0.21588458E-01 0.20032874E+02</pdfrwt>
<totfact> 0.15894103E+08</totfact>
</mgrwt>
</event>
<event>
 4    1  0.4594485E+006  0.2042152E+02  0.7546771E-02  0.1737073E+00
         21   -1    0    0  503  501  0.00000000000E+00  0.00000000000E+00  0.52295085695E+01  0.52295085695E+01  0.00000000000E+00 0. -1.
         21   -1    0    0  501  502 -0.00000000000E+00 -0.00000000000E+00 -0.51381818506E+03  0.51381818506E+03  0.00000000000E+00 0. -1.
         21    1    1    2  503  504 -0.19207925766E+02 -0.69349935394E+01 -0.15758891875E+02  0.25794984411E+02  0.00000000000E+00 0. -1.
         21    1    1    2  504  502  0.19207925766E+02  0.69349935394E+01 -0.49282978462E+03  0.49325270922E+03  0.00000000000E+00 0. -1.
<mgrwt>
<rscale>  2 0.20421522E+02</rscale>
<asrwt>0</asrwt>
<pdfrwt beam="1">  1       21 0.80453979E-03 0.20421522E+02</pdfrwt>
<pdfrwt beam="2">  1       21 0.79048951E-01 0.20421522E+02</pdfrwt>
<totfact> 0.61902927E+06</totfact>
</mgrwt>
</event>
<event>
 4    1  0.4594485E+006  0.2562730E+02  0.7546771E-02  0.1652152E+00
         21   -1    0    0  502  501  0.00000000000E+00  0.00000000000E+00  0.29124372486E+02  0.29124372486E+02  0.00000000000E+00 0.  1.
         21   -1    0    0  503  502 -0.00000000000E+00 -0.00000000000E+00 -0.36368371890E+02  0.36368371890E+02  0.00000000000E+00 0. -1.
         21    1    1    2  503  504  0.14848179463E+02  0.20887562375E+02 -0.23806941071E+02  0.34978981382E+02  0.00000000000E+00 0. -1.
         21    1    1    2  504  501 -0.14848179463E+02 -0.20887562375E+02  0.16562941667E+02  0.30513762993E+02  0.00000000000E+00 0.  1.
<mgrwt>
<rscale>  2 0.25627304E+02</rscale>
<asrwt>0</asrwt>
<pdfrwt beam="1">  1       21 0.44806727E-02 0.25627304E+02</pdfrwt>
<pdfrwt beam="2">  1       21 0.55951341E-02 0.25627304E+02</pdfrwt>
<totfact> 0.52430683E+07</totfact>
</mgrwt>
</event>
<event>
 4    1  0.4594485E+006  0.2275803E+02  0.7546771E-02  0.1695463E+00
         21   -1    0    0  504  501  0.00000000000E+00  0.00000000000E+00  0.65101944587E+02  0.65101944587E+02  0.00000000000E+00 0. -1.
         21   -1    0    0  501  502 -0.00000000000E+00 -0.00000000000E+00 -0.92122577126E+02  0.92122577126E+02  0.00000000000E+00 0. -1.
         21    1    1    2  503  502  0.22607557208E+02 -0.26127422353E+01 -0.88651492966E+02  0.91526036023E+02  0.00000000000E+00 0. -1.
         21    1    1    2  504  503 -0.22607557208E+02  0.26127422353E+01  0.61630860428E+02  0.65698485690E+02  0.00000000000E+00 0. -1.
<mgrwt>
<rscale>  2 0.22758033E+02</rscale>
<asrwt>0</asrwt>
<pdfrwt beam="1">  1       21 0.10015684E-01 0.22758033E+02</pdfrwt>
<pdfrwt beam="2">  1       21 0.14172704E-01 0.22758033E+02</pdfrwt>
<totfact> 0.30107048E+06</totfact>
</mgrwt>
</event>
<event>
 4    1  0.4594485E+006  0.2145491E+02  0.7546771E-02  0.1717853E+00
         21   -1    0    0  503  501  0.00000000000E+00  0.00000000000E+00  0.48569103329E+02  0.48569103329E+02  0.00000000000E+00 0. -1.
         21   -1    0    0  504  502 -0.00000000000E+00 -0.00000000000E+00 -0.22746230030E+02  0.22746230030E+02  0.00000000000E+00 0. -1.
         21    1    1    2  503  502 -0.92706834478E+01 -0.19348575921E+02 -0.14322669599E+02  0.25796352963E+02  0.00000000000E+00 0. -1.
         21    1    1    2  504  501  0.92706834478E+01  0.19348575921E+02  0.40145542898E+02  0.45518980396E+02  0.00000000000E+00 0. -1.
<mgrwt>
<rscale>  2 0.21454905E+02</rscale>
<asrwt>0</asrwt>
<pdfrwt beam="1">  1       21 0.74721697E-02 0.21454905E+02</pdfrwt>
<pdfrwt beam="2">  1       21 0.34994200E-02 0.21454905E+02</pdfrwt>
<totfact> 0.46384092E+07</totfact>
</mgrwt>
</event>
<event>
 4    1  0.4594485E+006  0.2231193E+02  0.7546771E-02  0.1702912E+00
         21   -1    0    0  502  501  0.00000000000E+00  0.00000000000E+00  0.41596483302E+03  0.41596483302E+03  0.00000000000E+00 0.  1.
         21   -1    0    0  504  502 -0.00000000000E+00 -0.00000000000E+00 -0.22466688288E+01  0.22466688288E+01  0.00000000000E+00 0.  1.
         21    1    1    2  503  501  0.21407469969E+02  0.62882929426E+01  0.34980314202E+03  0.35051399482E+03  0.00000000000E+00 0.  1.
         21    1    1    2  504  503 -0.21407469969E+02 -0.62882929426E+01  0.63915022171E+02  0.67697507028E+02  0.00000000000E+00 0.  1.
<mgrwt>
<rscale>  2 0.22311934E+02</rscale>
<asrwt>0</asrwt>
<pdfrwt beam="1">  1       21 0.63994529E-01 0.22311934E+02</pdfrwt>
<pdfrwt beam="2">  1       21 0.34564169E-03 0.22311934E+02</pdfrwt>
<totfact> 0.33702958E+07</totfact>
</mgrwt>
</event>
<event>
 4    1  0.4594485E+006  0.2541334E+02  0.7546771E-02  0.1655135E+00
         21   -1    0    0  503  501  0.00000000000E+00  0.00000000000E+00  0.25785124234E+03  0.25785124234E+03  0.00000000000E+00 0. -1.
         21   -1    0    0  501  502 -0.00000000000E+00 -0.00000000000E+00 -0.25053528239E+01  0.25053528239E+01  0.00000000000E+00 0. -1.
         21    1    1    2  503  504  0.16960887231E+02 -0.18925280037E+02  0.12978729666E+03  0.13225195762E+03  0.00000000000E+00 0. -1.
         21    1    1    2  504  502 -0.16960887231E+02  0.18925280037E+02  0.12555859286E+03  0.12810463755E+03  0.00000000000E+00 0. -1.
<mgrwt>
<rscale>  2 0.25413341E+02</rscale>
<asrwt>0</asrwt>
<pdfrwt beam="1">  1       21 0.39669401E-01 0.25413341E+02</pdfrwt>
<pdfrwt beam="2">  1       21 0.38543910E-03 0.25413341E+02</pdfrwt>
<totfact> 0.75238740E+07</totfact>
</mgrwt>
</event>
<event>
 4    1  0.4594485E+006  0.2265738E+02  0.7546771E-02  0.1697125E+00
         21   -1    0    0  503  501  0.00000000000E+00  0.00000000000E+00  0.17887713492E+02  0.17887713492E+02  0.00000000000E+00 0. -1.
         21   -1    0    0  504  502 -0.00000000000E+00 -0.00000000000E+00 -0.58625808979E+02  0.58625808979E+02  0.00000000000E+00 0. -1.
         21    1    1    2  503  502  0.22640772402E+02 -0.86727201790E+00 -0.47702538506E+02  0.52809931979E+02  0.00000000000E+00 0. -1.
         21    1    1    2  504  501 -0.22640772402E+02  0.86727201790E+00  0.69644430187E+01  0.23703590493E+02  0.00000000000E+00 0. -1.
<mgrwt>
<rscale>  2 0.22657377E+02</rscale>
<asrwt>0</asrwt>
<pdfrwt beam="1">  1       21 0.27519559E-02 0.22657377E+02</pdfrwt>
<pdfrwt beam="2">  1       21 0.90193552E-02 0.22657377E+02</pdfrwt>
<totfact> 0.50313879E+07</totfact>
</mgrwt>
</event>
<event>
 4    1  0.4594485E+006  0.2096079E+02  0.7546771E-02  0.1726870E+00
         21   -1    0    0  502  501  0.00000000000E+00  0.00000000000E+00  0.47865169258E+01  0.47865169258E+01  0.00000000000E+00 0. -1.
         21   -1    0    0  504  502 -0.00000000000E+00 -0.00000000000E+00 -0.12161898015E+04  0.12161898015E+04  0.00000000000E+00 0. -1.
         21    1    1    2  503  501 -0.17860756696E+02 -0.10970327296E+02 -0.18703220685E+02  0.28092083845E+02  0.00000000000E+00 0. -1.
         21    1    1    2  504  503  0.17860756696E+02  0.10970327296E+02 -0.11927000639E+04  0.11928842346E+04  0.00000000000E+00 0. -1.
<mgrwt>
<rscale>  2 0.20960790E+02</rscale>
<asrwt>0</asrwt>
<pdfrwt beam="1">  1       21 0.73638766E-03 0.20960790E+02</pdfrwt>
<pdfrwt beam="2">  1       21 0.18710601E+00 0.20960790E+02</pdfrwt>
<totfact> 0.10042888E+06</totfact>
</mgrwt>
</event>
<event>
 4    1  0.4594485E+006  0.2956743E+02  0.7546771E-02  0.1602920E+00
         21   -1    0    0  504  501  0.00000000000E+00  0.00000000000E+00  0.24106448649E+01  0.24106448649E+01  0.00000000000E+00 0.  1.
         21   -1    0    0  503  502 -0.00000000000E+00 -0.00000000000E+00 -0.38726291415E+03  0.38726291415E+03  0.00000000000E+00 0.  1.
         21    1    1    2  503  501 -0.21625505581E+01 -0.29488236374E+02 -0.14331224768E+03  0.14633056087E+03  0.00000000000E+00 0.  1.
         21    1    1    2  504  502  0.21625505581E+01  0.29488236374E+02 -0.24154002161E+03  0.24334299815E+03  0.00000000000E+00 0.  1.
<mgrwt>
<rscale>  2 0.29567426E+02</rscale>
<asrwt>0</asrwt>
<pdfrwt beam="1">  1       21 0.37086857E-03 0.29567426E+02</pdfrwt>
<pdfrwt beam="2">  1       21 0.59578889E-01 0.29567426E+02</pdfrwt>
<totfact> 0.37199929E+07</totfact>
</mgrwt>
</event>
<event>
 4    1  0.4594485E+006  0.2435113E+02  0.7546771E-02  0.1670501E+00
         21   -1    0    0  503  501  0.00000000000E+00  0.00000000000E+00  0.30301327109E+03  0.30301327109E+03  0.00000000000E+00 0. -1.
         21   -1    0    0  504  502 -0.00000000000E+00 -0.00000000000E+00 -0.20456028396E+01  0.20456028396E+01  0.00000000000E+00 0. -1.
         21    1    1    2  503  502 -0.23008176334E+02  0.79750430580E+01  0.18223972781E+03  0.18385944599E+03  0.00000000000E+00 0. -1.
         21    1    1    2  504  501  0.23008176334E+02 -0.79750430580E+01  0.11872794044E+03  0.12119942793E+03  0.00000000000E+00 0. -1.
<mgrwt>
<rscale>  2 0.24351129E+02</rscale>
<asrwt>0</asrwt>
<pdfrwt beam="1">  1       21 0.46617391E-01 0.24351129E+02</pdfrwt>
<pdfrwt beam="2">  1       21 0.31470837E-03 0.24351129E+02</pdfrwt>
<totfact> 0.73668588E+07</totfact>
</mgrwt>
</event>
<event>
 4    1  0.4594485E+006  0.3304624E+02  0.7546771E-02  0.1566668E+00
         21   -1    0    0  502  501  0.00000000000E+00  0.00000000000E+00  0.11970232799E+03  0.11970232799E+03  0.00000000000E+00 0.  1.
         21   -1    0    0  504  502 -0.00000000000E+00 -0.00000000000E+00 -0.24863277792E+02  0.24863277792E+02  0.00000000000E+00 0. -1.
         21    1    1    2  503  501 -0.21281480336E+02  0.25281460756E+02  0.10493184883E+03  0.11001248367E+03  0.00000000000E+00 0.  1.
         21    1    1    2  504  503  0.21281480336E+02 -0.25281460756E+02 -0.10092798638E+02  0.34553122111E+02  0.00000000000E+00 0. -1.
<mgrwt>
<rscale>  2 0.33046235E+02</rscale>
<asrwt>0</asrwt>
<pdfrwt beam="1">  1       21 0.18415743E-01 0.33046235E+02</pdfrwt>
<pdfrwt beam="2">  1       21 0.38251197E-02 0.33046235E+02</pdfrwt>
<totfact> 0.96402745E+06</totfact>
</mgrwt>
</event>
<event>
 4    1  0.4594485E+006  0.2706232E+02  0.7546771E-02  0.1633033E+00
         21   -1    0    0  504  501  0.00000000000E+00  0.00000000000E+00  0.98413725883E+03  0.98413725883E+03  0.00000000000E+00 0. -1.
         21   -1    0    0  503  502 -0.00000000000E+00 -0.00000000000E+00 -0.74828187471E+00  0.74828187471E+00  0.00000000000E+00 0. -1.
         21    1    1    2  503  501  0.25537664978E+02  0.89552653387E+01  0.45520689597E+03  0.45601062186E+03  0.00000000000E+00 0. -1.
         21    1    1    2  504  502 -0.25537664978E+02 -0.89552653387E+01  0.52818208098E+03  0.52887491885E+03  0.00000000000E+00 0. -1.
<mgrwt>
<rscale>  2 0.27062319E+02</rscale>
<asrwt>0</asrwt>
<pdfrwt beam="1">  1       21 0.15140470E+00 0.27062319E+02</pdfrwt>
<pdfrwt beam="2">  1       21 0.11512108E-03 0.27062319E+02</pdfrwt>
<totfact> 0.25976050E+07</totfact>
</mgrwt>
</event>
<event>
 4    1  0.4594485E+006  0.2160022E+02  0.7546771E-02  0.1715259E+00
         21   -1    0    0  502  501  0.00000000000E+00  0.00000000000E+00  0.74535966083E+01  0.74535966083E+01  0.00000000000E+00 0.  1.
         21   -1    0    0  503  502 -0.00000000000E+00 -0.00000000000E+00 -0.11747360287E+03  0.11747360287E+03  0.00000000000E+00 0. -1.
         21    1    1    2  503  504 -0.65670919205E+01  0.20577725790E+02 -0.97702565486E+02  0.10006178490E+03  0.00000000000E+00 0. -1.
         21    1    1    2  504  501  0.65670919205E+01 -0.20577725790E+02 -0.12317440780E+02  0.24865414582E+02  0.00000000000E+00 0.  1.
<mgrwt>
<rscale>  2 0.21600220E+02</rscale>
<asrwt>0</asrwt>
<pdfrwt beam="1">  1       21 0.11467072E-02 0.21600220E+02</pdfrwt>
<pdfrwt beam="2">  1       21 0.18072861E-01 0.21600220E+02</pdfrwt>
<totfact> 0.58800195E+07</totfact>
</mgrwt>
</event>
<event>
 4    1  0.4594485E+006  0.3759991E+02  0.7546771E-02  0.1526655E+00
         21   -1    0    0  504  501  0.00000000000E+00  0.00000000000E+00  0.54714919534E+02  0.54714919534E+02  0.00000000000E+00 0.  1.
         21   -1    0    0  503  502 -0.00000000000E+00 -0.00000000000E+00 -0.30716905079E+02  0.30716905079E+02  0.00000000000E+00 0.  1.
         21    1    1    2  503  501  0.26998240985E+02 -0.26169610772E+02 -0.50240744514E+01  0.37934085838E+02  0.00000000000E+00 0.  1.
         21    1    1    2  504  502 -0.26998240985E+02  0.26169610772E+02  0.29022088907E+02  0.47497738775E+02  0.00000000000E+00 0.  1.
<mgrwt>
<rscale>  2 0.37599914E+02</rscale>
<asrwt>0</asrwt>
<pdfrwt beam="1">  1       21 0.84176799E-02 0.37599914E+02</pdfrwt>
<pdfrwt beam="2">  1       21 0.47256777E-02 0.37599914E+02</pdfrwt>
<totfact> 0.26727708E+07</totfact>
</mgrwt>
</event>
<event>
 4    1  0.4594485E+006  0.2014276E+02  0.7546771E-02  0.1742504E+00
         21   -1    0    0  502  501  0.00000000000E+00  0.00000000000E+00  0.22710752451E+02  0.22710752451E+02  0.00000000000E+00 0. -1.
         21   -1    0    0  504  502 -0.00000000000E+00 -0.00000000000E+00 -0.48363914079E+03  0.48363914079E+03  0.00000000000E+00 0.  1.
         21    1    1    2  503  501 -0.73045038060E+01  0.18771656881E+02  0.17990739914E+02  0.27007361970E+02  0.00000000000E+00 0. -1.
         21    1    1    2  504  503  0.73045038060E+01 -0.18771656881E+02 -0.47891912826E+03  0.47934253127E+03  0.00000000000E+00 0.  1.
<mgrwt>
<rscale>  2 0.20142762E+02</rscale>
<asrwt>0</asrwt>
<pdfrwt beam="1">  1       21 0.34939617E-02 0.20142762E+02</pdfrwt>
<pdfrwt beam="2">  1       21 0.74406025E-01 0.20142762E+02</pdfrwt>
<totfact> 0.75193478E+05</totfact>
</mgrwt>
</event>
<event>
 4    1  0.4594485E+006  0.2033205E+02  0.7546771E-02  0.1738804E+00
         21   -1    0    0  503  501  0.00000000000E+00  0.00000000000E+00  0.46144583516E+03  0.46144583516E+03  0.00000000000E+00 0. -1.
         21   -1    0    0  504  502 -0.00000000000E+00 -0.00000000000E+00 -0.26536106967E+02  0.26536106967E+02  0.00000000000E+00 0. -1.
         21    1    1    2  503  502 -0.11350861084E+02  0.16868615990E+02  0.45729188855E+03  0.45774366581E+03  0.00000000000E+00 0. -1.
         21    1    1    2  504  501  0.11350861084E+02 -0.16868615990E+02 -0.22382160356E+02  0.30238276322E+02  0.00000000000E+00 0. -1.
<mgrwt>
<rscale>  2 0.20332050E+02</rscale>
<asrwt>0</asrwt>
<pdfrwt beam="1">  1       21 0.70991661E-01 0.20332050E+02</pdfrwt>
<pdfrwt beam="2">  1       21 0.40824783E-02 0.20332050E+02</pdfrwt>
<totfact> 0.64960829E+05</totfact>
</mgrwt>
</event>
<event>
 4    1  0.4594485E+006  0.3295808E+02  0.7546771E-02  0.1567519E+00
         21   -1    0    0  503  501  0.00000000000E+00  0.00000000000E+00  0.13937501252E+03  0.13937501252E+03  0.00000000000E+00 0.  1.
         21   -1    0    0  501  502 -0.00000000000E+00 -0.00000000000E+00 -0.17120281231E+02  0.17120281231E+02  0.00000000000E+00 0. -1.
         21    1    1    2  503  504 -0.29196481411E+02 -0.15290543470E+02  0.11888096378E+03  0.12336498205E+03  0.00000000000E+00 0.  1.
         21    1    1    2  504  502  0.29196481411E+02  0.15290543470E+02  0.33737675093E+01  0.33130311704E+02  0.00000000000E+00 0. -1.
<mgrwt>
<rscale>  2 0.32958083E+02</rscale>
<asrwt>0</asrwt>
<pdfrwt beam="1">  1       21 0.21442309E-01 0.32958083E+02</pdfrwt>
<pdfrwt beam="2">  1       21 0.26338895E-02 0.32958083E+02</pdfrwt>
<totfact> 0.13281286E+07</totfact>
</mgrwt>
</event>
<event>
 4    1  0.4594485E+006  0.2215658E+02  0.7546771E-02  0.1705558E+00
         21   -1    0    0  503  501  0.00000000000E+00  0.00000000000E+00  0.71589376256E+01  0.71589376256E+01  0.00000000000E+00 0. -1.
         21   -1    0    0  504  502 -0.00000000000E+00 -0.00000000000E+00 -0.82824209373E+02  0.82824209373E+02  0.00000000000E+00 0. -1.
         21    1    1    2  503  502 -0.22152183114E+02 -0.44163126843E+00 -0.56495099503E+02  0.60684516335E+02  0.00000000000E+00 0. -1.
         21    1    1    2  504  501  0.22152183114E+02  0.44163126843E+00 -0.19170172245E+02  0.29298630664E+02  0.00000000000E+00 0. -1.
<mgrwt>
<rscale>  2 0.22156585E+02</rscale>
<asrwt>0</asrwt>
<pdfrwt beam="1">  1       21 0.11013750E-02 0.22156585E+02</pdfrwt>
<pdfrwt beam="2">  1       21 0.12742186E-01 0.22156585E+02</pdfrwt>
<totfact> 0.11400975E+08</totfact>
</mgrwt>
</event>
<event>
 4    1  0.4594485E+006  0.2562043E+02  0.7546771E-02  0.1652247E+00
         21   -1    0    0  503  501  0.00000000000E+00  0.00000000000E+00  0.34280773712E+03  0.34280773712E+03  0.00000000000E+00 0.  1.
         21   -1    0    0  504  502 -0.00000000000E+00 -0.00000000000E+00 -0.67762499579E+01  0.67762499579E+01  0.00000000000E+00 0.  1.
         21    1    1    2  503  502  0.25608314673E+02 -0.78787999590E+00  0.31606627163E+03  0.31710297160E+03  0.00000000000E+00 0.  1.
         21    1    1    2  504  501 -0.25608314673E+02  0.78787999590E+00  0.19965215533E+02  0.32481015479E+02  0.00000000000E+00 0.  1.
<mgrwt>
<rscale>  2 0.25620432E+02</rscale>
<asrwt>0</asrwt>
<pdfrwt beam="1">  1       21 0.52739638E-01 0.25620432E+02</pdfrwt>
<pdfrwt beam="2">  1       21 0.10425003E-02 0.25620432E+02</pdfrwt>
<totfact> 0.98883462E+06</totfact>
</mgrwt>
</event>
<event>
 4    1  0.4594485E+006  0.3247457E+02  0.7546771E-02  0.1572243E+00
         21   -1    0    0  504  501  0.00000000000E+00  0.00000000000E+00  0.49723761605E+01  0.49723761605E+01  0.00000000000E+00 0.  1.
         21   -1    0    0  501  502 -0.00000000000E+00 -0.00000000000E+00 -0.22871759948E+03  0.22871759948E+03  0.00000000000E+00 0.  1.
         21    1    1    2  503  502  0.32294786824E+02  0.34124123208E+01 -0.14337604296E+03  0.14700778044E+03  0.00000000000E+00 0.  1.
         21    1    1    2  504  503 -0.32294786824E+02 -0.34124123208E+01 -0.80369180360E+02  0.86682195205E+02  0.00000000000E+00 0.  1.
<mgrwt>
<rscale>  2 0.32474572E+02</rscale>
<asrwt>0</asrwt>
<pdfrwt beam="1">  1       21 0.76498112E-03 0.32474572E+02</pdfrwt>
<pdfrwt beam="2">  1       21 0.35187315E-01 0.32474572E+02</pdfrwt>
<totfact> 0.35810312E+07</totfact>
</mgrwt>
</event>
<event>
 4    1  0.4594485E+006  0.5172163E+02  0.7546771E-02  0.1436271E+00
         21   -1    0    0  502  501  0.00000000000E+00  0.00000000000E+00  0.16915171059E+03  0.16915171059E+03  0.00000000000E+00 0. -1.
         21   -1    0    0  504  502 -0.00000000000E+00 -0.00000000000E+00 -0.38307731791E+02  0.38307731791E+02  0.00000000000E+00 0.  1.
         21    1    1    2  503  501 -0.23676456834E+02 -0.45984262817E+02  0.14490631773E+03  0.15386022213E+03  0.00000000000E+00 0. -1.
         21    1    1    2  504  503  0.23676456834E+02  0.45984262817E+02 -0.14062338934E+02  0.53599220250E+02  0.00000000000E+00 0.  1.
<mgrwt>
<rscale>  2 0.51721630E+02</rscale>
<asrwt>0</asrwt>
<pdfrwt beam="1">  1       21 0.26023340E-01 0.51721630E+02</pdfrwt>
<pdfrwt beam="2">  1       21 0.58934973E-02 0.51721630E+02</pdfrwt>
<totfact> 0.26952995E+06</totfact>
</mgrwt>
</event>
<event>
 4    1  0.4594485E+006  0.4275959E+02  0.7546771E-02  0.1488833E+00
         21   -1    0    0  504  501  0.00000000000E+00  0.00000000000E+00  0.87713242503E+00  0.87713242503E+00  0.00000000000E+00 0. -1.
         21   -1    0    0  503  502 -0.00000000000E+00 -0.00000000000E+00 -0.20906514709E+04  0.20906514709E+04  0.00000000000E+00 0. -1.
         21    1    1    2  503  501  0.23819784643E+02 -0.35510565743E+02 -0.11016138425E+04  0.11024433956E+04  0.00000000000E+00 0. -1.
         21    1    1    2  504  502 -0.23819784643E+02  0.35510565743E+02 -0.98816049595E+03  0.98908520774E+03  0.00000000000E+00 0. -1.
<mgrwt>
<rscale>  2 0.42759589E+02</rscale>
<asrwt>0</asrwt>
<pdfrwt beam="1">  1       21 0.13494485E-03 0.42759589E+02</pdfrwt>
<pdfrwt beam="2">  1       21 0.32163536E+00 0.42759589E+02</pdfrwt>
<totfact> 0.24105356E+06</totfact>
</mgrwt>
</event>
<event>
 4    1  0.4594485E+006  0.4157496E+02  0.7546771E-02  0.1496931E+00
         21   -1    0    0  504  501  0.00000000000E+00  0.00000000000E+00  0.38203416268E+03  0.38203416268E+03  0.00000000000E+00 0.  1.
         21   -1    0    0  501  502 -0.00000000000E+00 -0.00000000000E+00 -0.12370278026E+03  0.12370278026E+03  0.00000000000E+00 0. -1.
         21    1    1    2  503  502 -0.27818831470E+02  0.30896434719E+02 -0.11903539871E+03  0.12608688754E+03  0.00000000000E+00 0. -1.
         21    1    1    2  504  503  0.27818831470E+02 -0.30896434719E+02  0.37736678113E+03  0.37965005540E+03  0.00000000000E+00 0.  1.
<mgrwt>
<rscale>  2 0.41574957E+02</rscale>
<asrwt>0</asrwt>
<pdfrwt beam="1">  1       21 0.58774486E-01 0.41574957E+02</pdfrwt>
<pdfrwt beam="2">  1       21 0.19031197E-01 0.41574957E+02</pdfrwt>
<totfact> 0.74927965E+04</totfact>
</mgrwt>
</event>
<event>
 4    1  0.4594485E+006  0.2117047E+02  0.7546771E-02  0.1723006E+00
         21   -1    0    0  502  501  0.00000000000E+00  0.00000000000E+00  0.20796904980E+02  0.20796904980E+02  0.00000000000E+00 0.  1.
         21   -1    0    0  503  502 -0.00000000000E+00 -0.00000000000E+00 -0.42921392207E+03  0.42921392207E+03  0.00000000000E+00 0. -1.
         21    1    1    2  503  504  0.13873231237E+02 -0.15991323568E+02 -0.42349243792E+03  0.42402126592E+03  0.00000000000E+00 0. -1.
         21    1    1    2  504  501 -0.13873231237E+02  0.15991323568E+02  0.15075420833E+02  0.25989561130E+02  0.00000000000E+00 0.  1.
<mgrwt>
<rscale>  2 0.21170474E+02</rscale>
<asrwt>0</asrwt>
<pdfrwt beam="1">  1       21 0.31995240E-02 0.21170474E+02</pdfrwt>
<pdfrwt beam="2">  1       21 0.66032907E-01 0.21170474E+02</pdfrwt>
<totfact> 0.11054013E+06</totfact>
</mgrwt>
</event>
<event>
 4    1  0.4594485E+006  0.2206226E+02  0.7546771E-02  0.1707177E+00
         21   -1    0    0  504  501  0.00000000000E+00  0.00000000000E+00  0.12288686411E+04  0.12288686411E+04  0.00000000000E+00 0. -1.
         21   -1    0    0  503  502 -0.00000000000E+00 -0.00000000000E+00 -0.41350721861E+01  0.41350721861E+01  0.00000000000E+00 0.  1.
         21    1    1    2  503  501  0.14587663555E+02  0.16551234013E+02  0.11985987645E+04  0.11988017941E+04  0.00000000000E+00 0. -1.
         21    1    1    2  504  502 -0.14587663555E+02 -0.16551234013E+02  0.26134804479E+02  0.34201919252E+02  0.00000000000E+00 0.  1.
<mgrwt>
<rscale>  2 0.22062259E+02</rscale>
<asrwt>0</asrwt>
<pdfrwt beam="1">  1       21 0.18905642E+00 0.22062259E+02</pdfrwt>
<pdfrwt beam="2">  1       21 0.63616593E-03 0.22062259E+02</pdfrwt>
<totfact> 0.12192221E+06</totfact>
</mgrwt>
</event>
<event>
 4    1  0.4594485E+006  0.3319609E+02  0.7546771E-02  0.1565229E+00
         21   -1    0    0  504  501  0.00000000000E+00  0.00000000000E+00  0.13432844976E+03  0.13432844976E+03  0.00000000000E+00 0.  1.
         21   -1    0    0  503  502 -0.00000000000E+00 -0.00000000000E+00 -0.68131000062E+02  0.68131000062E+02  0.00000000000E+00 0. -1.
         21    1    1    2  503  501 -0.12613422837E+02 -0.30706382272E+02  0.12803852193E+03  0.13227185432E+03  0.00000000000E+00 0.  1.
         21    1    1    2  504  502  0.12613422837E+02  0.30706382272E+02 -0.61841072229E+02  0.70187595502E+02  0.00000000000E+00 0. -1.
<mgrwt>
<rscale>  2 0.33196089E+02</rscale>
<asrwt>0</asrwt>
<pdfrwt beam="1">  1       21 0.20665915E-01 0.33196089E+02</pdfrwt>
<pdfrwt beam="2">  1       21 0.10481692E-01 0.33196089E+02</pdfrwt>
<totfact> 0.15136849E+06</totfact>
</mgrwt>
</event>
<event>
 4    1  0.4594485E+006  0.1010998E+03  0.7546771E-02  0.1278000E+00
         21   -1    0    0  504  501  0.00000000000E+00  0.00000000000E+00  0.19885845283E+02  0.19885845283E+02  0.00000000000E+00 0.  1.
         21   -1    0    0  503  502 -0.00000000000E+00 -0.00000000000E+00 -0.51464922923E+03  0.51464922923E+03  0.00000000000E+00 0.  1.
         21    1    1    2  503  501  0.52697308769E+02 -0.86279526891E+02 -0.25693352677E+03  0.27610867478E+03  0.00000000000E+00 0.  1.
         21    1    1    2  504  502 -0.52697308769E+02  0.86279526891E+02 -0.23782985718E+03  0.25842639973E+03  0.00000000000E+00 0.  1.
<mgrwt>
<rscale>  2 0.10109977E+03</rscale>
<asrwt>0</asrwt>
<pdfrwt beam="1">  1       21 0.30593612E-02 0.10109977E+03</pdfrwt>
<pdfrwt beam="2">  1       21 0.79176794E-01 0.10109977E+03</pdfrwt>
<totfact> 0.86665757E+05</totfact>
</mgrwt>
</event>
<event>
 4    1  0.4594485E+006  0.2015274E+02  0.7546771E-02  0.1742308E+00
         21   -1    0    0  503  501  0.00000000000E+00  0.00000000000E+00  0.33928518803E+01  0.33928518803E+01  0.00000000000E+00 0. -1.
         21   -1    0    0  504  502 -0.00000000000E+00 -0.00000000000E+00 -0.15135878501E+03  0.15135878501E+03  0.00000000000E+00 0.  1.
         21    1    1    2  503  502 -0.17426999668E+02  0.10120902550E+02 -0.10936893965E+03  0.11121015217E+03  0.00000000000E+00 0.  1.
         21    1    1    2  504  501  0.17426999668E+02 -0.10120902550E+02 -0.38596993480E+02  0.43541484720E+02  0.00000000000E+00 0. -1.
<mgrwt>
<rscale>  2 0.20152741E+02</rscale>
<asrwt>0</asrwt>
<pdfrwt beam="1">  1       21 0.52197715E-03 0.20152741E+02</pdfrwt>
<pdfrwt beam="2">  1       21 0.23285970E-01 0.20152741E+02</pdfrwt>
<totfact> 0.11950958E+08</totfact>
</mgrwt>
</event>
<event>
 4    1  0.4594485E+006  0.2240045E+02  0.7546771E-02  0.1701417E+00
         21   -1    0    0  502  501  0.00000000000E+00  0.00000000000E+00  0.12613334030E+02  0.12613334030E+02  0.00000000000E+00 0.  1.
         21   -1    0    0  503  502 -0.00000000000E+00 -0.00000000000E+00 -0.78908058776E+02  0.78908058776E+02  0.00000000000E+00 0.  1.
         21    1    1    2  503  504  0.99024250485E+01  0.20092836974E+02 -0.65370405477E+02  0.69101881535E+02  0.00000000000E+00 0.  1.
         21    1    1    2  504  501 -0.99024250485E+01 -0.20092836974E+02 -0.92431927004E+00  0.22419511271E+02  0.00000000000E+00 0.  1.
<mgrwt>
<rscale>  2 0.22400449E+02</rscale>
<asrwt>0</asrwt>
<pdfrwt beam="1">  1       21 0.19405129E-02 0.22400449E+02</pdfrwt>
<pdfrwt beam="2">  1       21 0.12139702E-01 0.22400449E+02</pdfrwt>
<totfact> 0.52516741E+07</totfact>
</mgrwt>
</event>
<event>
 4    1  0.4594485E+006  0.3290415E+02  0.7546771E-02  0.1568041E+00
         21   -1    0    0  504  501  0.00000000000E+00  0.00000000000E+00  0.31133522326E+02  0.31133522326E+02  0.00000000000E+00 0.  1.
         21   -1    0    0  503  502 -0.00000000000E+00 -0.00000000000E+00 -0.49051653895E+02  0.49051653895E+02  0.00000000000E+00 0.  1.
         21    1    1    2  503  501 -0.31699919963E+02  0.88203267728E+01  0.12670272085E+02  0.35259309193E+02  0.00000000000E+00 0.  1.
         21    1    1    2  504  502  0.31699919963E+02 -0.88203267728E+01 -0.30588403655E+02  0.44925867028E+02  0.00000000000E+00 0.  1.
<mgrwt>
<rscale>  2 0.32904150E+02</rscale>
<asrwt>0</asrwt>
<pdfrwt beam="1">  1       21 0.47897727E-02 0.32904150E+02</pdfrwt>
<pdfrwt beam="2">  1       21 0.75464082E-02 0.32904150E+02</pdfrwt>
<totfact> 0.30580526E+07</totfact>
</mgrwt>
</event>
<event>
 4    1  0.4594485E+006  0.4408567E+02  0.7546771E-02  0.1480132E+00
         21   -1    0    0  503  501  0.00000000000E+00  0.00000000000E+00  0.75562987419E+03  0.75562987419E+03  0.00000000000E+00 0.  1.
         21   -1    0    0  504  502 -0.00000000000E+00 -0.00000000000E+00 -0.25916127216E+01  0.25916127216E+01  0.00000000000E+00 0.  1.
         21    1    1    2  503  502 -0.23869077938E+02 -0.37064986424E+02  0.40942548881E+03  0.41179215265E+03  0.00000000000E+00 0.  1.
         21    1    1    2  504  501  0.23869077938E+02  0.37064986424E+02  0.34361277266E+03  0.34642933426E+03  0.00000000000E+00 0.  1.
<mgrwt>
<rscale>  2 0.44085668E+02</rscale>
<asrwt>0</asrwt>
<pdfrwt beam="1">  1       21 0.11625057E+00 0.44085668E+02</pdfrwt>
<pdfrwt beam="2">  1       21 0.39871025E-03 0.44085668E+02</pdfrwt>
<totfact> 0.83509890E+06</totfact>
</mgrwt>
</event>
<event>
 4    1  0.4594485E+006  0.2034212E+02  0.7546771E-02  0.1738609E+00
         21   -1    0    0  503  501  0.00000000000E+00  0.00000000000E+00  0.14483969766E+02  0.14483969766E+02  0.00000000000E+00 0.  1.
         21   -1    0    0  504  502 -0.00000000000E+00 -0.00000000000E+00 -0.12836789442E+03  0.12836789442E+03  0.00000000000E+00 0.  1.
         21    1    1    2  503  502  0.15304380838E+02 -0.13400665493E+02 -0.11992000578E+03  0.12163309457E+03  0.00000000000E+00 0.  1.
         21    1    1    2  504  501 -0.15304380838E+02  0.13400665493E+02  0.60360811280E+01  0.21218769613E+02  0.00000000000E+00 0.  1.
<mgrwt>
<rscale>  2 0.20342122E+02</rscale>
<asrwt>0</asrwt>
<pdfrwt beam="1">  1       21 0.22283031E-02 0.20342122E+02</pdfrwt>
<pdfrwt beam="2">  1       21 0.19748907E-01 0.20342122E+02</pdfrwt>
<totfact> 0.18133383E+07</totfact>
</mgrwt>
</event>
<event>
 4    1  0.4594485E+006  0.2358380E+02  0.7546771E-02  0.1682218E+00
         21   -1    0    0  503  501  0.00000000000E+00  0.00000000000E+00  0.64505013199E+03  0.64505013199E+03  0.00000000000E+00 0. -1.
         21   -1    0    0  504  502 -0.00000000000E+00 -0.00000000000E+00 -0.15136275083E+01  0.15136275083E+01  0.00000000000E+00 0. -1.
         21    1    1    2  503  502  0.23370608341E+02 -0.31639182372E+01  0.10969416965E+03  0.11220074228E+03  0.00000000000E+00 0. -1.
         21    1    1    2  504  501 -0.23370608341E+02  0.31639182372E+01  0.53384233483E+03  0.53436301722E+03  0.00000000000E+00 0. -1.
<mgrwt>
<rscale>  2 0.23583802E+02</rscale>
<asrwt>0</asrwt>
<pdfrwt beam="1">  1       21 0.99238263E-01 0.23583802E+02</pdfrwt>
<pdfrwt beam="2">  1       21 0.23286628E-03 0.23583802E+02</pdfrwt>
<totfact> 0.24132601E+07</totfact>
</mgrwt>
</event>
<event>
 4    1  0.4594485E+006  0.3077855E+02  0.7546771E-02  0.1589639E+00
         21   -1    0    0  504  501  0.00000000000E+00  0.00000000000E+00  0.18551441301E+02  0.18551441301E+02  0.00000000000E+00 0.  1.
         21   -1    0    0  503  502 -0.00000000000E+00 -0.00000000000E+00 -0.13042555944E+03  0.13042555944E+03  0.00000000000E+00 0.  1.
         21    1    1    2  503  501  0.30007739660E+02 -0.68450351478E+01  0.21677089682E+01  0.30854787438E+02  0.00000000000E+00 0.  1.
         21    1    1    2  504  502 -0.30007739660E+02  0.68450351478E+01 -0.11404182711E+03  0.11812221330E+03  0.00000000000E+00 0.  1.
<mgrwt>
<rscale>  2 0.30778547E+02</rscale>
<asrwt>0</asrwt>
<pdfrwt beam="1">  1       21 0.28540680E-02 0.30778547E+02</pdfrwt>
<pdfrwt beam="2">  1       21 0.20065470E-01 0.30778547E+02</pdfrwt>
<totfact> 0.13025875E+07</totfact>
</mgrwt>
</event>
<event>
 4    1  0.4594485E+006  0.2581510E+02  0.7546771E-02  0.1649563E+00
         21   -1    0    0  502  501  0.00000000000E+00  0.00000000000E+00  0.58985501516E+01  0.58985501516E+01  0.00000000000E+00 0.  1.
         21   -1    0    0  503  502 -0.00000000000E+00 -0.00000000000E+00 -0.39624731600E+03  0.39624731600E+03  0.00000000000E+00 0.  1.
         21    1    1    2  503  504  0.68886243106E+01  0.24879031703E+02 -0.36518205806E+03  0.36609336909E+03  0.00000000000E+00 0.  1.
         21    1    1    2  504  501 -0.68886243106E+01 -0.24879031703E+02 -0.25166707787E+02  0.36052497059E+02  0.00000000000E+00 0.  1.
<mgrwt>
<rscale>  2 0.25815100E+02</rscale>
<asrwt>0</asrwt>
<pdfrwt beam="1">  1       21 0.90746902E-03 0.25815100E+02</pdfrwt>
<pdfrwt beam="2">  1       21 0.60961141E-01 0.25815100E+02</pdfrwt>
<totfact> 0.91445741E+06</totfact>
</mgrwt>
</event>
<event>
 4    1  0.4594485E+006  0.2807721E+02  0.7546771E-02  0.1620370E+00
         21   -1    0    0  504  501  0.00000000000E+00  0.00000000000E+00  0.14886682001E+02  0.14886682001E+02  0.00000000000E+00 0. -1.
         21   -1    0    0  503  502 -0.00000000000E+00 -0.00000000000E+00 -0.56120127760E+02  0.56120127760E+02  0.00000000000E+00 0.  1.
         21    1    1    2  503  501 -0.23917210885E+01 -0.27975151825E+02 -0.12185660204E+02  0.30607511562E+02  0.00000000000E+00 0. -1.
         21    1    1    2  504  502  0.23917210885E+01  0.27975151825E+02 -0.29047785554E+02  0.40399298199E+02  0.00000000000E+00 0.  1.
<mgrwt>
<rscale>  2 0.28077205E+02</rscale>
<asrwt>0</asrwt>
<pdfrwt beam="1">  1       21 0.22902588E-02 0.28077205E+02</pdfrwt>
<pdfrwt beam="2">  1       21 0.86338656E-02 0.28077205E+02</pdfrwt>
<totfact> 0.75894006E+07</totfact>
</mgrwt>
</event>
<event>
 4    1  0.4594485E+006  0.2041641E+02  0.7546771E-02  0.1737172E+00
         21   -1    0    0  503  501  0.00000000000E+00  0.00000000000E+00  0.85541979422E+02  0.85541979422E+02  0.00000000000E+00 0.  1.
         21   -1    0    0  504  502 -0.00000000000E+00 -0.00000000000E+00 -0.10884963253E+03  0.10884963253E+03  0.00000000000E+00 0.  1.
         21    1    1    2  503  502 -0.19713226318E+01  0.20321014838E+02  0.83341516167E+02  0.85805816085E+02  0.00000000000E+00 0.  1.
         21    1    1    2  504  501  0.19713226318E+01 -0.20321014838E+02 -0.10664916927E+03  0.10858579587E+03  0.00000000000E+00 0.  1.
<mgrwt>
<rscale>  2 0.20416409E+02</rscale>
<asrwt>0</asrwt>
<pdfrwt beam="1">  1       21 0.13160304E-01 0.20416409E+02</pdfrwt>
<pdfrwt beam="2">  1       21 0.16746097E-01 0.20416409E+02</pdfrwt>
<totfact> 0.14183817E+06</totfact>
</mgrwt>
</event>
<event>
 4    1  0.4594485E+006  0.2243915E+02  0.7546771E-02  0.1700766E+00
         21   -1    0    0  503  501  0.00000000000E+00  0.00000000000E+00  0.32947225373E+02  0.32947225373E+02  0.00000000000E+00 0. -1.
         21   -1    0    0  501  502 -0.00000000000E+00 -0.00000000000E+00 -0.54278016964E+03  0.54278016964E+03  0.00000000000E+00 0. -1.
         21    1    1    2  503  504  0.11321067618E+02  0.19373927428E+02  0.28865753283E+02  0.36561555610E+02  0.00000000000E+00 0. -1.
         21    1    1    2  504  502 -0.11321067618E+02 -0.19373927428E+02 -0.53869869755E+03  0.53916583940E+03  0.00000000000E+00 0. -1.
<mgrwt>
<rscale>  2 0.22439154E+02</rscale>
<asrwt>0</asrwt>
<pdfrwt beam="1">  1       21 0.50688041E-02 0.22439154E+02</pdfrwt>
<pdfrwt beam="2">  1       21 0.83504638E-01 0.22439154E+02</pdfrwt>
<totfact> 0.33138227E+05</totfact>
</mgrwt>
</event>
<event>
 4    1  0.4594485E+006  0.3494222E+02  0.7546771E-02  0.1549114E+00
         21   -1    0    0  504  501  0.00000000000E+00  0.00000000000E+00  0.16436837898E+03  0.16436837898E+03  0.00000000000E+00 0. -1.
         21   -1    0    0  503  502 -0.00000000000E+00 -0.00000000000E+00 -0.24919734862E+02  0.24919734862E+02  0.00000000000E+00 0. -1.
         21    1    1    2  503  501  0.17186911183E+01  0.34899923732E+02  0.14901749508E+03  0.15305937546E+03  0.00000000000E+00 0. -1.
         21    1    1    2  504  502 -0.17186911183E+01 -0.34899923732E+02 -0.95688509681E+01  0.36228738379E+02  0.00000000000E+00 0. -1.
<mgrwt>
<rscale>  2 0.34942218E+02</rscale>
<asrwt>0</asrwt>
<pdfrwt beam="1">  1       21 0.25287442E-01 0.34942218E+02</pdfrwt>
<pdfrwt beam="2">  1       21 0.38338055E-02 0.34942218E+02</pdfrwt>
<totfact> 0.54954109E+06</totfact>
</mgrwt>
</event>
<event>
 4    1  0.4594485E+006  0.4192381E+02  0.7546771E-02  0.1494513E+00
         21   -1    0    0  503  501  0.00000000000E+00  0.00000000000E+00  0.21630781390E+03  0.21630781390E+03  0.00000000000E+00 0.  1.
         21   -1    0    0  504  502 -0.00000000000E+00 -0.00000000000E+00 -0.13720217009E+02  0.13720217009E+02  0.00000000000E+00 0.  1.
         21    1    1    2  503  502 -0.22565505875E+01  0.41863032736E+02  0.17473841805E+03  0.17969730180E+03  0.00000000000E+00 0.  1.
         21    1    1    2  504  501  0.22565505875E+01 -0.41863032736E+02  0.27849178832E+02  0.50330729103E+02  0.00000000000E+00 0.  1.
<mgrwt>
<rscale>  2 0.41923806E+02</rscale>
<asrwt>0</asrwt>
<pdfrwt beam="1">  1       21 0.33278123E-01 0.41923806E+02</pdfrwt>
<pdfrwt beam="2">  1       21 0.21108028E-02 0.41923806E+02</pdfrwt>
<totfact> 0.86956722E+06</totfact>
</mgrwt>
</event>
<event>
 4    1  0.4594485E+006  0.2456108E+02  0.7546771E-02  0.1667388E+00
         21   -1    0    0  504  501  0.00000000000E+00  0.00000000000E+00  0.99450340965E+02  0.99450340965E+02  0.00000000000E+00 0. -1.
         21   -1    0    0  501  502 -0.00000000000E+00 -0.00000000000E+00 -0.36482571569E+02  0.36482571569E+02  0.00000000000E+00 0.  1.
         21    1    1    2  503  502 -0.24132623852E+02 -0.45675982848E+01 -0.30575636332E+02  0.39218822333E+02  0.00000000000E+00 0.  1.
         21    1    1    2  504  503  0.24132623852E+02  0.45675982848E+01  0.93543405728E+02  0.96714090200E+02  0.00000000000E+00 0. -1.
<mgrwt>
<rscale>  2 0.24561077E+02</rscale>
<asrwt>0</asrwt>
<pdfrwt beam="1">  1       21 0.15300052E-01 0.24561077E+02</pdfrwt>
<pdfrwt beam="2">  1       21 0.56127034E-02 0.24561077E+02</pdfrwt>
<totfact> 0.68689822E+06</totfact>
</mgrwt>
</event>
<event>
 4    1  0.4594485E+006  0.2392055E+02  0.7546771E-02  0.1677009E+00
         21   -1    0    0  502  501  0.00000000000E+00  0.00000000000E+00  0.49237044012E+02  0.49237044012E+02  0.00000000000E+00 0.  1.
         21   -1    0    0  504  502 -0.00000000000E+00 -0.00000000000E+00 -0.29229972455E+02  0.29229972455E+02  0.00000000000E+00 0.  1.
         21    1    1    2  503  501 -0.22170680610E+02 -0.89807299834E+01  0.40454967664E+02  0.46997840359E+02  0.00000000000E+00 0.  1.
         21    1    1    2  504  503  0.22170680610E+02  0.89807299834E+01 -0.20447896107E+02  0.31469176108E+02  0.00000000000E+00 0.  1.
<mgrwt>
<rscale>  2 0.23920547E+02</rscale>
<asrwt>0</asrwt>
<pdfrwt beam="1">  1       21 0.75749298E-02 0.23920547E+02</pdfrwt>
<pdfrwt beam="2">  1       21 0.44969189E-02 0.23920547E+02</pdfrwt>
<totfact> 0.31412353E+07</totfact>
</mgrwt>
</event>
<event>
 4    1  0.4594485E+006  0.2272333E+02  0.7546771E-02  0.1696034E+00
         21   -1    0    0  504  501  0.00000000000E+00  0.00000000000E+00  0.38170814146E+03  0.38170814146E+03  0.00000000000E+00 0. -1.
         21   -1    0    0  503  502 -0.00000000000E+00 -0.00000000000E+00 -0.42078264449E+02  0.42078264449E+02  0.00000000000E+00 0. -1.
         21    1    1    2  503  501  0.55301014452E+01 -0.22040142149E+02  0.37827434022E+03  0.37895623277E+03  0.00000000000E+00 0. -1.
         21    1    1    2  504  502 -0.55301014452E+01  0.22040142149E+02 -0.38644463202E+02  0.44830173144E+02  0.00000000000E+00 0. -1.
<mgrwt>
<rscale>  2 0.22723334E+02</rscale>
<asrwt>0</asrwt>
<pdfrwt beam="1">  1       21 0.58724327E-01 0.22723334E+02</pdfrwt>
<pdfrwt beam="2">  1       21 0.64735794E-02 0.22723334E+02</pdfrwt>
<totfact> 0.46115526E+05</totfact>
</mgrwt>
</event>
<event>
 4    1  0.4594485E+006  0.2879727E+02  0.7546771E-02  0.1611777E+00
         21   -1    0    0  503  501  0.00000000000E+00  0.00000000000E+00  0.17870560614E+03  0.17870560614E+03  0.00000000000E+00 0. -1.
         21   -1    0    0  504  502 -0.00000000000E+00 -0.00000000000E+00 -0.46432032194E+01  0.46432032194E+01  0.00000000000E+00 0. -1.
         21    1    1    2  503  502  0.11795955835E+00 -0.28797026967E+02  0.89244751022E+02  0.93775840501E+02  0.00000000000E+00 0. -1.
         21    1    1    2  504  501 -0.11795955835E+00  0.28797026967E+02  0.84817651900E+02  0.89572968860E+02  0.00000000000E+00 0. -1.
<mgrwt>
<rscale>  2 0.28797269E+02</rscale>
<asrwt>0</asrwt>
<pdfrwt beam="1">  1       21 0.27493165E-01 0.28797269E+02</pdfrwt>
<pdfrwt beam="2">  1       21 0.71433909E-03 0.28797269E+02</pdfrwt>
<totfact> 0.61119787E+07</totfact>
</mgrwt>
</event>
<event>
 4    1  0.4594485E+006  0.2506948E+02  0.7546771E-02  0.1660006E+00
         21   -1    0    0  504  501  0.00000000000E+00  0.00000000000E+00  0.25708208642E+03  0.25708208642E+03  0.00000000000E+00 0. -1.
         21   -1    0    0  503  502 -0.00000000000E+00 -0.00000000000E+00 -0.37545529378E+01  0.37545529378E+01  0.00000000000E+00 0.  1.
         21    1    1    2  503  501  0.22920018517E+02  0.10156365400E+02  0.49630746685E+02  0.55602967758E+02  0.00000000000E+00 0.  1.
         21    1    1    2  504  502 -0.22920018517E+02 -0.10156365400E+02  0.20369678679E+03  0.20523367160E+03  0.00000000000E+00 0. -1.
<mgrwt>
<rscale>  2 0.25069484E+02</rscale>
<asrwt>0</asrwt>
<pdfrwt beam="1">  1       21 0.39551076E-01 0.25069484E+02</pdfrwt>
<pdfrwt beam="2">  1       21 0.57762373E-03 0.25069484E+02</pdfrwt>
<totfact> 0.41494338E+07</totfact>
</mgrwt>
</event>
<event>
 4    1  0.4594485E+006  0.2624405E+02  0.7546771E-02  0.1643750E+00
         21   -1    0    0  504  501  0.00000000000E+00  0.00000000000E+00  0.23866665436E+03  0.23866665436E+03  0.00000000000E+00 0. -1.
         21   -1    0    0  503  502 -0.00000000000E+00 -0.00000000000E+00 -0.70042193024E+01  0.70042193024E+01  0.00000000000E+00 0. -1.
         21    1    1    2  503  501  0.73439417064E+01  0.25195566286E+02  0.21002186970E+03  0.21165522859E+03  0.00000000000E+00 0. -1.
         21    1    1    2  504  502 -0.73439417064E+01 -0.25195566286E+02  0.21640565360E+02  0.34015645068E+02  0.00000000000E+00 0. -1.
<mgrwt>
<rscale>  2 0.26244048E+02</rscale>
<asrwt>0</asrwt>
<pdfrwt beam="1">  1       21 0.36717941E-01 0.26244048E+02</pdfrwt>
<pdfrwt beam="2">  1       21 0.10775724E-02 0.26244048E+02</pdfrwt>
<totfact> 0.18927392E+07</totfact>
</mgrwt>
</event>
<event>
 4    1  0.4594485E+006  0.2013119E+02  0.7546771E-02  0.1742732E+00
         21   -1    0    0  503  501  0.00000000000E+00  0.00000000000E+00  0.84279655493E+01  0.84279655493E+01  0.00000000000E+00 0.  1.
         21   -1    0    0  504  502 -0.00000000000E+00 -0.00000000000E+00 -0.63108348217E+02  0.63108348217E+02  0.00000000000E+00 0. -1.
         21    1    1    2  503  502  0.11015434503E+02 -0.16850080442E+02 -0.44791409316E+02  0.49107385969E+02  0.00000000000E+00 0. -1.
         21    1    1    2  504  501 -0.11015434503E+02  0.16850080442E+02 -0.98889733509E+01  0.22428927797E+02  0.00000000000E+00 0.  1.
<mgrwt>
<rscale>  2 0.20131195E+02</rscale>
<asrwt>0</asrwt>
<pdfrwt beam="1">  1       21 0.12966101E-02 0.20131195E+02</pdfrwt>
<pdfrwt beam="2">  1       21 0.97089762E-02 0.20131195E+02</pdfrwt>
<totfact> 0.13609594E+08</totfact>
</mgrwt>
</event>
<event>
 4    1  0.4594485E+006  0.2462301E+02  0.7546771E-02  0.1666477E+00
         21   -1    0    0  504  501  0.00000000000E+00  0.00000000000E+00  0.11469459351E+03  0.11469459351E+03  0.00000000000E+00 0.  1.
         21   -1    0    0  503  502 -0.00000000000E+00 -0.00000000000E+00 -0.62363440984E+01  0.62363440984E+01  0.00000000000E+00 0.  1.
         21    1    1    2  503  501  0.23856181377E+02  0.60971517432E+01  0.77831130076E+02  0.81633188460E+02  0.00000000000E+00 0.  1.
         21    1    1    2  504  502 -0.23856181377E+02 -0.60971517432E+01  0.30627119332E+02  0.39297749145E+02  0.00000000000E+00 0.  1.
<mgrwt>
<rscale>  2 0.24623011E+02</rscale>
<asrwt>0</asrwt>
<pdfrwt beam="1">  1       21 0.17645320E-01 0.24623011E+02</pdfrwt>
<pdfrwt beam="2">  1       21 0.95943764E-03 0.24623011E+02</pdfrwt>
<totfact> 0.82955943E+07</totfact>
</mgrwt>
</event>
<event>
 4    1  0.4594485E+006  0.2083572E+02  0.7546771E-02  0.1729202E+00
         21   -1    0    0  503  501  0.00000000000E+00  0.00000000000E+00  0.65218646033E+02  0.65218646033E+02  0.00000000000E+00 0. -1.
         21   -1    0    0  504  502 -0.00000000000E+00 -0.00000000000E+00 -0.12178994332E+02  0.12178994332E+02  0.00000000000E+00 0. -1.
         21    1    1    2  503  502  0.17469280108E+02 -0.11355686536E+02  0.46069158387E+00  0.20840815745E+02  0.00000000000E+00 0. -1.
         21    1    1    2  504  501 -0.17469280108E+02  0.11355686536E+02  0.52578960117E+02  0.56556824620E+02  0.00000000000E+00 0. -1.
<mgrwt>
<rscale>  2 0.20835723E+02</rscale>
<asrwt>0</asrwt>
<pdfrwt beam="1">  1       21 0.10033638E-01 0.20835723E+02</pdfrwt>
<pdfrwt beam="2">  1       21 0.18736915E-02 0.20835723E+02</pdfrwt>
<totfact> 0.74553391E+07</totfact>
</mgrwt>
</event>
<event>
 4    1  0.4594485E+006  0.4104137E+02  0.7546771E-02  0.1500685E+00
         21   -1    0    0  504  501  0.00000000000E+00  0.00000000000E+00  0.28953224192E+03  0.28953224192E+03  0.00000000000E+00 0.  1.
         21   -1    0    0  501  502 -0.00000000000E+00 -0.00000000000E+00 -0.86251799281E+01  0.86251799281E+01  0.00000000000E+00 0.  1.
         21    1    1    2  503  502  0.20399632352E+01 -0.40990642121E+02  0.55399566698E+02  0.68945675584E+02  0.00000000000E+00 0.  1.
         21    1    1    2  504  503 -0.20399632352E+01  0.40990642121E+02  0.22550749529E+03  0.22921174626E+03  0.00000000000E+00 0.  1.
<mgrwt>
<rscale>  2 0.41041372E+02</rscale>
<asrwt>0</asrwt>
<pdfrwt beam="1">  1       21 0.44543414E-01 0.41041372E+02</pdfrwt>
<pdfrwt beam="2">  1       21 0.13269510E-02 0.41041372E+02</pdfrwt>
<totfact> 0.10202410E+07</totfact>
</mgrwt>
</event>
<event>
 4    1  0.4594485E+006  0.2030377E+02  0.7546771E-02  0.1739354E+00
         21   -1    0    0  503  501  0.00000000000E+00  0.00000000000E+00  0.62521754227E+02  0.62521754227E+02  0.00000000000E+00 0.  1.
         21   -1    0    0  501  502 -0.00000000000E+00 -0.00000000000E+00 -0.12450452809E+03  0.12450452809E+03  0.00000000000E+00 0.  1.
         21    1    1    2  503  504  0.16346100074E+02  0.12043588423E+02  0.60011907309E+02  0.63353547877E+02  0.00000000000E+00 0.  1.
         21    1    1    2  504  502 -0.16346100074E+02 -0.12043588423E+02 -0.12199468117E+03  0.12367273444E+03  0.00000000000E+00 0.  1.
<mgrwt>
<rscale>  2 0.20303768E+02</rscale>
<asrwt>0</asrwt>
<pdfrwt beam="1">  1       21 0.96187315E-02 0.20303768E+02</pdfrwt>
<pdfrwt beam="2">  1       21 0.19154543E-01 0.20303768E+02</pdfrwt>
<totfact> 0.18925069E+06</totfact>
</mgrwt>
</event>
<event>
 4    1  0.4594485E+006  0.3000050E+02  0.7546771E-02  0.1598083E+00
         21   -1    0    0  504  501  0.00000000000E+00  0.00000000000E+00  0.19005142175E+03  0.19005142175E+03  0.00000000000E+00 0. -1.
         21   -1    0    0  501  502 -0.00000000000E+00 -0.00000000000E+00 -0.85922198297E+02  0.85922198297E+02  0.00000000000E+00 0. -1.
         21    1    1    2  503  502 -0.25471614769E+02  0.15850127647E+02 -0.82065641650E+02  0.87377338280E+02  0.00000000000E+00 0. -1.
         21    1    1    2  504  503  0.25471614769E+02 -0.15850127647E+02  0.18619486510E+03  0.18859628176E+03  0.00000000000E+00 0. -1.
<mgrwt>
<rscale>  2 0.30000495E+02</rscale>
<asrwt>0</asrwt>
<pdfrwt beam="1">  1       21 0.29238680E-01 0.30000495E+02</pdfrwt>
<pdfrwt beam="2">  1       21 0.13218800E-01 0.30000495E+02</pdfrwt>
<totfact> 0.54285335E+05</totfact>
</mgrwt>
</event>
<event>
 4    1  0.4594485E+006  0.2043306E+02  0.7546771E-02  0.1736851E+00
         21   -1    0    0  504  501  0.00000000000E+00  0.00000000000E+00  0.29369072267E+02  0.29369072267E+02  0.00000000000E+00 0. -1.
         21   -1    0    0  503  502 -0.00000000000E+00 -0.00000000000E+00 -0.17382195310E+02  0.17382195310E+02  0.00000000000E+00 0. -1.
         21    1    1    2  503  501  0.13785691442E+02  0.15081930136E+02 -0.39831454888E+01  0.20817669253E+02  0.00000000000E+00 0. -1.
         21    1    1    2  504  502 -0.13785691442E+02 -0.15081930136E+02  0.15970022445E+02  0.25933598324E+02  0.00000000000E+00 0. -1.
<mgrwt>
<rscale>  2 0.20433059E+02</rscale>
<asrwt>0</asrwt>
<pdfrwt beam="1">  1       21 0.45183188E-02 0.20433059E+02</pdfrwt>
<pdfrwt beam="2">  1       21 0.26741839E-02 0.20433059E+02</pdfrwt>
<totfact> 0.15515584E+08</totfact>
</mgrwt>
</event>
<event>
 4    1  0.4594485E+006  0.2708854E+02  0.7546771E-02  0.1632697E+00
         21   -1    0    0  504  501  0.00000000000E+00  0.00000000000E+00  0.33318853308E+02  0.33318853308E+02  0.00000000000E+00 0. -1.
         21   -1    0    0  503  502 -0.00000000000E+00 -0.00000000000E+00 -0.37171498211E+02  0.37171498211E+02  0.00000000000E+00 0. -1.
         21    1    1    2  503  501  0.21652287343E+02  0.16277822808E+02 -0.24425985526E+02  0.36474893166E+02  0.00000000000E+00 0. -1.
         21    1    1    2  504  502 -0.21652287343E+02 -0.16277822808E+02  0.20573340623E+02  0.34015458352E+02  0.00000000000E+00 0. -1.
<mgrwt>
<rscale>  2 0.27088541E+02</rscale>
<asrwt>0</asrwt>
<pdfrwt beam="1">  1       21 0.51259774E-02 0.27088541E+02</pdfrwt>
<pdfrwt beam="2">  1       21 0.57186920E-02 0.27088541E+02</pdfrwt>
<totfact> 0.41365230E+07</totfact>
</mgrwt>
</event>
<event>
 4    1  0.4594485E+006  0.2596719E+02  0.7546771E-02  0.1647486E+00
         21   -1    0    0  504  501  0.00000000000E+00  0.00000000000E+00  0.19847860197E+02  0.19847860197E+02  0.00000000000E+00 0. -1.
         21   -1    0    0  503  502 -0.00000000000E+00 -0.00000000000E+00 -0.41910199143E+02  0.41910199143E+02  0.00000000000E+00 0.  1.
         21    1    1    2  503  501 -0.24343157202E+02 -0.90391232372E+01  0.24067589956E+01  0.26078488076E+02  0.00000000000E+00 0. -1.
         21    1    1    2  504  502  0.24343157202E+02  0.90391232372E+01 -0.24469097942E+02  0.35679571264E+02  0.00000000000E+00 0.  1.
<mgrwt>
<rscale>  2 0.25967192E+02</rscale>
<asrwt>0</asrwt>
<pdfrwt beam="1">  1       21 0.30535170E-02 0.25967192E+02</pdfrwt>
<pdfrwt beam="2">  1       21 0.64477229E-02 0.25967192E+02</pdfrwt>
<totfact> 0.76620946E+07</totfact>
</mgrwt>
</event>
<event>
 4    1  0.4594485E+006  0.3765270E+02  0.7546771E-02  0.1526232E+00
         21   -1    0    0  504  501  0.00000000000E+00  0.00000000000E+00  0.39921806449E+03  0.39921806449E+03  0.00000000000E+00 0. -1.
         21   -1    0    0  501  502 -0.00000000000E+00 -0.00000000000E+00 -0.22470991211E+02  0.22470991211E+02  0.00000000000E+00 0.  1.
         21    1    1    2  503  502  0.25433009720E+02  0.27764860187E+02 -0.50942882589E+01  0.37995752625E+02  0.00000000000E+00 0.  1.
         21    1    1    2  504  503 -0.25433009720E+02 -0.27764860187E+02  0.38184136154E+03  0.38369330308E+03  0.00000000000E+00 0. -1.
<mgrwt>
<rscale>  2 0.37652695E+02</rscale>
<asrwt>0</asrwt>
<pdfrwt beam="1">  1       21 0.61418159E-01 0.37652695E+02</pdfrwt>
<pdfrwt beam="2">  1       21 0.34570759E-02 0.37652695E+02</pdfrwt>
<totfact> 0.11866947E+06</totfact>
</mgrwt>
</event>
<event>
 4    1  0.4594485E+006  0.2011330E+02  0.7546771E-02  0.1743084E+00
         21   -1    0    0  504  501  0.00000000000E+00  0.00000000000E+00  0.11659873342E+01  0.11659873342E+01  0.00000000000E+00 0.  1.
         21   -1    0    0  503  502 -0.00000000000E+00 -0.00000000000E+00 -0.65770134461E+03  0.65770134461E+03  0.00000000000E+00 0. -1.
         21    1    1    2  503  501 -0.18139805733E+02  0.86886345748E+01 -0.10182579644E+03  0.10379324517E+03  0.00000000000E+00 0.  1.
         21    1    1    2  504  502  0.18139805733E+02 -0.86886345748E+01 -0.55470956084E+03  0.55507408677E+03  0.00000000000E+00 0. -1.
<mgrwt>
<rscale>  2 0.20113302E+02</rscale>
<asrwt>0</asrwt>
<pdfrwt beam="1">  1       21 0.17938276E-03 0.20113302E+02</pdfrwt>
<pdfrwt beam="2">  1       21 0.10118477E+00 0.20113302E+02</pdfrwt>
<totfact> 0.32610589E+07</totfact>
</mgrwt>
</event>
<event>
 4    1  0.4594485E+006  0.2491195E+02  0.7546771E-02  0.1662270E+00
         21   -1    0    0  504  501  0.00000000000E+00  0.00000000000E+00  0.44134600964E+03  0.44134600964E+03  0.00000000000E+00 0.  1.
         21   -1    0    0  503  502 -0.00000000000E+00 -0.00000000000E+00 -0.16701243835E+01  0.16701243835E+01  0.00000000000E+00 0. -1.
         21    1    1    2  503  501 -0.13934117594E+02  0.20650557672E+02  0.30789901389E+03  0.30890517626E+03  0.00000000000E+00 0.  1.
         21    1    1    2  504  502  0.13934117594E+02 -0.20650557672E+02  0.13177687136E+03  0.13411095776E+03  0.00000000000E+00 0. -1.
<mgrwt>
<rscale>  2 0.24911948E+02</rscale>
<asrwt>0</asrwt>
<pdfrwt beam="1">  1       21 0.67899293E-01 0.24911948E+02</pdfrwt>
<pdfrwt beam="2">  1       21 0.25694256E-03 0.24911948E+02</pdfrwt>
<totfact> 0.47169238E+07</totfact>
</mgrwt>
</event>
<event>
 4    1  0.4594485E+006  0.2385781E+02  0.7546771E-02  0.1677971E+00
         21   -1    0    0  502  501  0.00000000000E+00  0.00000000000E+00  0.42774810948E+03  0.42774810948E+03  0.00000000000E+00 0.  1.
         21   -1    0    0  504  502 -0.00000000000E+00 -0.00000000000E+00 -0.27528346110E+02  0.27528346110E+02  0.00000000000E+00 0.  1.
         21    1    1    2  503  501  0.22615442385E+02 -0.75984723472E+01  0.42217812318E+03  0.42285170298E+03  0.00000000000E+00 0.  1.
         21    1    1    2  504  503 -0.22615442385E+02  0.75984723472E+01 -0.21958359813E+02  0.32424752612E+02  0.00000000000E+00 0.  1.
<mgrwt>
<rscale>  2 0.23857808E+02</rscale>
<asrwt>0</asrwt>
<pdfrwt beam="1">  1       21 0.65807397E-01 0.23857808E+02</pdfrwt>
<pdfrwt beam="2">  1       21 0.42351305E-02 0.23857808E+02</pdfrwt>
<totfact> 0.72448973E+05</totfact>
</mgrwt>
</event>
<event>
 4    1  0.4594485E+006  0.3832368E+02  0.7546771E-02  0.1520923E+00
         21   -1    0    0  502  501  0.00000000000E+00  0.00000000000E+00  0.13574274213E+03  0.13574274213E+03  0.00000000000E+00 0.  1.
         21   -1    0    0  504  502 -0.00000000000E+00 -0.00000000000E+00 -0.39295625536E+02  0.39295625536E+02  0.00000000000E+00 0.  1.
         21    1    1    2  503  501 -0.63642370452E+01  0.37791544340E+02  0.12272584408E+03  0.12857035872E+03  0.00000000000E+00 0.  1.
         21    1    1    2  504  503  0.63642370452E+01 -0.37791544340E+02 -0.26278727487E+02  0.46468008943E+02  0.00000000000E+00 0.  1.
<mgrwt>
<rscale>  2 0.38323679E+02</rscale>
<asrwt>0</asrwt>
<pdfrwt beam="1">  1       21 0.20883499E-01 0.38323679E+02</pdfrwt>
<pdfrwt beam="2">  1       21 0.60454809E-02 0.38323679E+02</pdfrwt>
<totfact> 0.37532119E+06</totfact>
</mgrwt>
</event>
<event>
 4    1  0.4594485E+006  0.2179277E+02  0.7546771E-02  0.1711861E+00
         21   -1    0    0  504  501  0.00000000000E+00  0.00000000000E+00  0.44679762385E+00  0.44679762385E+00  0.00000000000E+00 0.  1.
         21   -1    0    0  503  502 -0.00000000000E+00 -0.00000000000E+00 -0.15717352885E+04  0.15717352885E+04  0.00000000000E+00 0.  1.
         21    1    1    2  503  501 -0.77172684134E+01 -0.20380597579E+02 -0.12328928852E+04  0.12330854761E+04  0.00000000000E+00 0.  1.
         21    1    1    2  504  502  0.77172684134E+01  0.20380597579E+02 -0.33839560568E+03  0.33909661003E+03  0.00000000000E+00 0.  1.
<mgrwt>
<rscale>  2 0.21792774E+02</rscale>
<asrwt>0</asrwt>
<pdfrwt beam="1">  1       21 0.68738302E-04 0.21792774E+02</pdfrwt>
<pdfrwt beam="2">  1       21 0.24180471E+00 0.21792774E+02</pdfrwt>
<totfact> 0.15834440E+07</totfact>
</mgrwt>
</event>
<event>
 4    1  0.4594485E+006  0.2170194E+02  0.7546771E-02  0.1713458E+00
         21   -1    0    0  504  501  0.00000000000E+00  0.00000000000E+00  0.43250600242E+01  0.43250600242E+01  0.00000000000E+00 0. -1.
         21   -1    0    0  503  502 -0.00000000000E+00 -0.00000000000E+00 -0.22214747003E+03  0.22214747003E+03  0.00000000000E+00 0. -1.
         21    1    1    2  503  501 -0.18870538252E+02 -0.10718067322E+02 -0.28059324801E+02  0.35472523019E+02  0.00000000000E+00 0. -1.
         21    1    1    2  504  502  0.18870538252E+02  0.10718067322E+02 -0.18976308520E+03  0.19100000703E+03  0.00000000000E+00 0. -1.
<mgrwt>
<rscale>  2 0.21701940E+02</rscale>
<asrwt>0</asrwt>
<pdfrwt beam="1">  1       21 0.66539376E-03 0.21701940E+02</pdfrwt>
<pdfrwt beam="2">  1       21 0.34176538E-01 0.21701940E+02</pdfrwt>
<totfact> 0.42709127E+07</totfact>
</mgrwt>
</event>
<event>
 4    1  0.4594485E+006  0.2668729E+02  0.7546771E-02  0.1637886E+00
         21   -1    0    0  504  501  0.00000000000E+00  0.00000000000E+00  0.24074602354E+03  0.24074602354E+03  0.00000000000E+00 0.  1.
         21   -1    0    0  501  502 -0.00000000000E+00 -0.00000000000E+00 -0.71170328174E+01  0.71170328174E+01  0.00000000000E+00 0. -1.
         21    1    1    2  503  502 -0.95503441467E+01  0.24919916888E+02  0.22079563373E+02  0.34636952086E+02  0.00000000000E+00 0. -1.
         21    1    1    2  504  503  0.95503441467E+01 -0.24919916888E+02  0.21154942735E+03  0.21322610427E+03  0.00000000000E+00 0.  1.
<mgrwt>
<rscale>  2 0.26687288E+02</rscale>
<asrwt>0</asrwt>
<pdfrwt beam="1">  1       21 0.37037844E-01 0.26687288E+02</pdfrwt>
<pdfrwt beam="2">  1       21 0.10949283E-02 0.26687288E+02</pdfrwt>
<totfact> 0.18234502E+07</totfact>
</mgrwt>
</event>
<event>
 4    1  0.4594485E+006  0.2188464E+02  0.7546771E-02  0.1710255E+00
         21   -1    0    0  503  501  0.00000000000E+00  0.00000000000E+00  0.10910781687E+02  0.10910781687E+02  0.00000000000E+00 0.  1.
         21   -1    0    0  504  502 -0.00000000000E+00 -0.00000000000E+00 -0.14072098992E+03  0.14072098992E+03  0.00000000000E+00 0.  1.
         21    1    1    2  503  502  0.14953122655E+02  0.15979404669E+02 -0.12779414926E+03  0.12965447094E+03  0.00000000000E+00 0.  1.
         21    1    1    2  504  501 -0.14953122655E+02 -0.15979404669E+02 -0.20160589743E+01  0.21977300665E+02  0.00000000000E+00 0.  1.
<mgrwt>
<rscale>  2 0.21884635E+02</rscale>
<asrwt>0</asrwt>
<pdfrwt beam="1">  1       21 0.16785819E-02 0.21884635E+02</pdfrwt>
<pdfrwt beam="2">  1       21 0.21649382E-01 0.21884635E+02</pdfrwt>
<totfact> 0.24208075E+07</totfact>
</mgrwt>
</event>
<event>
 4    1  0.4594485E+006  0.3071928E+02  0.7546771E-02  0.1590271E+00
         21   -1    0    0  502  501  0.00000000000E+00  0.00000000000E+00  0.24267455891E+02  0.24267455891E+02  0.00000000000E+00 0.  1.
         21   -1    0    0  504  502 -0.00000000000E+00 -0.00000000000E+00 -0.72978457133E+02  0.72978457133E+02  0.00000000000E+00 0. -1.
         21    1    1    2  503  501  0.30026652915E+02 -0.64864503277E+01  0.88775835015E+01  0.31976325804E+02  0.00000000000E+00 0.  1.
         21    1    1    2  504  503 -0.30026652915E+02  0.64864503277E+01 -0.57588584743E+02  0.65269587220E+02  0.00000000000E+00 0. -1.
<mgrwt>
<rscale>  2 0.30719276E+02</rscale>
<asrwt>0</asrwt>
<pdfrwt beam="1">  1       21 0.37334547E-02 0.30719276E+02</pdfrwt>
<pdfrwt beam="2">  1       21 0.11227455E-01 0.30719276E+02</pdfrwt>
<totfact> 0.23181921E+07</totfact>
</mgrwt>
</event>
<event>
 4    1  0.4594485E+006  0.2343610E+02  0.7546771E-02  0.1684537E+00
         21   -1    0    0  502  501  0.00000000000E+00  0.00000000000E+00  0.11041411020E+01  0.11041411020E+01  0.00000000000E+00 0.  1.
         21   -1    0    0  504  502 -0.00000000000E+00 -0.00000000000E+00 -0.92673501172E+03  0.92673501172E+03  0.00000000000E+00 0.  1.
         21    1    1    2  503  501 -0.62333663851E+01 -0.22591944401E+02 -0.14706810091E+03  0.14892372918E+03  0.00000000000E+00 0.  1.
         21    1    1    2  504  503  0.62333663851E+01  0.22591944401E+02 -0.77856276971E+03  0.77891542364E+03  0.00000000000E+00 0.  1.
<mgrwt>
<rscale>  2 0.23436101E+02</rscale>
<asrwt>0</asrwt>
<pdfrwt beam="1">  1       21 0.16986741E-03 0.23436101E+02</pdfrwt>
<pdfrwt beam="2">  1       21 0.14257500E+00 0.23436101E+02</pdfrwt>
<totfact> 0.16734113E+07</totfact>
</mgrwt>
</event>
<event>
 4    1  0.4594485E+006  0.2097252E+02  0.7546771E-02  0.1726652E+00
         21   -1    0    0  504  501  0.00000000000E+00  0.00000000000E+00  0.83991171825E+02  0.83991171825E+02  0.00000000000E+00 0. -1.
         21   -1    0    0  503  502 -0.00000000000E+00 -0.00000000000E+00 -0.19850431400E+02  0.19850431400E+02  0.00000000000E+00 0. -1.
         21    1    1    2  503  501  0.19724903471E+02  0.71256471187E+01  0.76619085969E+02  0.79437591848E+02  0.00000000000E+00 0. -1.
         21    1    1    2  504  502 -0.19724903471E+02 -0.71256471187E+01 -0.12478345543E+02  0.24404011378E+02  0.00000000000E+00 0. -1.
<mgrwt>
<rscale>  2 0.20972522E+02</rscale>
<asrwt>0</asrwt>
<pdfrwt beam="1">  1       21 0.12921719E-01 0.20972522E+02</pdfrwt>
<pdfrwt beam="2">  1       21 0.30539126E-02 0.20972522E+02</pdfrwt>
<totfact> 0.23131937E+07</totfact>
</mgrwt>
</event>
<event>
 4    1  0.4594485E+006  0.2066399E+02  0.7546771E-02  0.1732437E+00
         21   -1    0    0  504  501  0.00000000000E+00  0.00000000000E+00  0.57127115423E+01  0.57127115423E+01  0.00000000000E+00 0.  1.
         21   -1    0    0  503  502 -0.00000000000E+00 -0.00000000000E+00 -0.93247077353E+02  0.93247077353E+02  0.00000000000E+00 0.  1.
         21    1    1    2  503  501 -0.10287434123E+02  0.17921196930E+02 -0.21727099797E+02  0.29984453735E+02  0.00000000000E+00 0.  1.
         21    1    1    2  504  502  0.10287434123E+02 -0.17921196930E+02 -0.65807266014E+02  0.68975335160E+02  0.00000000000E+00 0.  1.
<mgrwt>
<rscale>  2 0.20663993E+02</rscale>
<asrwt>0</asrwt>
<pdfrwt beam="1">  1       21 0.87887876E-03 0.20663993E+02</pdfrwt>
<pdfrwt beam="2">  1       21 0.14345703E-01 0.20663993E+02</pdfrwt>
<totfact> 0.12826933E+08</totfact>
</mgrwt>
</event>
<event>
 4    1  0.4594485E+006  0.2366469E+02  0.7546771E-02  0.1680957E+00
         21   -1    0    0  502  501  0.00000000000E+00  0.00000000000E+00  0.42085391414E+02  0.42085391414E+02  0.00000000000E+00 0.  1.
         21   -1    0    0  503  502 -0.00000000000E+00 -0.00000000000E+00 -0.23348821331E+02  0.23348821331E+02  0.00000000000E+00 0.  1.
         21    1    1    2  503  504 -0.18703365763E+02  0.14498331627E+02 -0.12088034240E+02  0.26573258788E+02  0.00000000000E+00 0.  1.
         21    1    1    2  504  501  0.18703365763E+02 -0.14498331627E+02  0.30824604323E+02  0.38860953958E+02  0.00000000000E+00 0.  1.
<mgrwt>
<rscale>  2 0.23664689E+02</rscale>
<asrwt>0</asrwt>
<pdfrwt beam="1">  1       21 0.64746756E-02 0.23664689E+02</pdfrwt>
<pdfrwt beam="2">  1       21 0.35921264E-02 0.23664689E+02</pdfrwt>
<totfact> 0.57603427E+07</totfact>
</mgrwt>
</event>
<event>
 4    1  0.4594485E+006  0.2121376E+02  0.7546771E-02  0.1722215E+00
         21   -1    0    0  503  501  0.00000000000E+00  0.00000000000E+00  0.46669184315E+02  0.46669184315E+02  0.00000000000E+00 0. -1.
         21   -1    0    0  504  502 -0.00000000000E+00 -0.00000000000E+00 -0.13236430167E+02  0.13236430167E+02  0.00000000000E+00 0. -1.
         21    1    1    2  503  502 -0.10118920465E+02 -0.18644861462E+02  0.11094839943E+01  0.21242748529E+02  0.00000000000E+00 0. -1.
         21    1    1    2  504  501  0.10118920465E+02  0.18644861462E+02  0.32323270154E+02  0.38662865954E+02  0.00000000000E+00 0. -1.
<mgrwt>
<rscale>  2 0.21213755E+02</rscale>
<asrwt>0</asrwt>
<pdfrwt beam="1">  1       21 0.71798744E-02 0.21213755E+02</pdfrwt>
<pdfrwt beam="2">  1       21 0.20363739E-02 0.21213755E+02</pdfrwt>
<totfact> 0.11391786E+08</totfact>
</mgrwt>
</event>
<event>
 4    1  0.4594485E+006  0.2359936E+02  0.7546771E-02  0.1681975E+00
         21   -1    0    0  503  501  0.00000000000E+00  0.00000000000E+00  0.36400760709E+03  0.36400760709E+03  0.00000000000E+00 0.  1.
         21   -1    0    0  504  502 -0.00000000000E+00 -0.00000000000E+00 -0.36978534447E+01  0.36978534447E+01  0.00000000000E+00 0.  1.
         21    1    1    2  503  502  0.92241223236E+01  0.21721996700E+02  0.39384665035E+02  0.45913847728E+02  0.00000000000E+00 0.  1.
         21    1    1    2  504  501 -0.92241223236E+01 -0.21721996700E+02  0.32092508861E+03  0.32179161281E+03  0.00000000000E+00 0.  1.
<mgrwt>
<rscale>  2 0.23599355E+02</rscale>
<asrwt>0</asrwt>
<pdfrwt beam="1">  1       21 0.56001142E-01 0.23599355E+02</pdfrwt>
<pdfrwt beam="2">  1       21 0.56890082E-03 0.23599355E+02</pdfrwt>
<totfact> 0.21398445E+07</totfact>
</mgrwt>
</event>
<event>
 4    1  0.4594485E+006  0.2062531E+02  0.7546771E-02  0.1733171E+00
         21   -1    0    0  504  501  0.00000000000E+00  0.00000000000E+00  0.59658767643E+02  0.59658767643E+02  0.00000000000E+00 0.  1.
         21   -1    0    0  503  502 -0.00000000000E+00 -0.00000000000E+00 -0.18753673368E+02  0.18753673368E+02  0.00000000000E+00 0. -1.
         21    1    1    2  503  501 -0.11056777065E+02  0.17411239538E+02 -0.10412862980E+02  0.23104789477E+02  0.00000000000E+00 0. -1.
         21    1    1    2  504  502  0.11056777065E+02 -0.17411239538E+02  0.51317957256E+02  0.55307651534E+02  0.00000000000E+00 0.  1.
<mgrwt>
<rscale>  2 0.20625314E+02</rscale>
<asrwt>0</asrwt>
<pdfrwt beam="1">  1       21 0.91782719E-02 0.20625314E+02</pdfrwt>
<pdfrwt beam="2">  1       21 0.28851805E-02 0.20625314E+02</pdfrwt>
<totfact> 0.44340528E+07</totfact>
</mgrwt>
</event>
<event>
 4    1  0.4594485E+006  0.8747656E+02  0.7546771E-02  0.1309080E+00
         21   -1    0    0  503  501  0.00000000000E+00  0.00000000000E+00  0.57492550145E+03  0.57492550145E+03  0.00000000000E+00 0.  1.
         21   -1    0    0  504  502 -0.00000000000E+00 -0.00000000000E+00 -0.69488934170E+02  0.69488934170E+02  0.00000000000E+00 0.  1.
         21    1    1    2  503  502 -0.75024955127E+02  0.44982269819E+02  0.54242924448E+03  0.54943756129E+03  0.00000000000E+00 0.  1.
         21    1    1    2  504  501  0.75024955127E+02 -0.44982269819E+02 -0.36992677205E+02  0.94976874325E+02  0.00000000000E+00 0.  1.
<mgrwt>
<rscale>  2 0.87476560E+02</rscale>
<asrwt>0</asrwt>
<pdfrwt beam="1">  1       21 0.88450074E-01 0.87476560E+02</pdfrwt>
<pdfrwt beam="2">  1       21 0.10690606E-01 0.87476560E+02</pdfrwt>
<totfact> 0.83004750E+04</totfact>
</mgrwt>
</event>
<event>
 4    1  0.4594485E+006  0.2733641E+02  0.7546771E-02  0.1629546E+00
         21   -1    0    0  504  501  0.00000000000E+00  0.00000000000E+00  0.10499503134E+03  0.10499503134E+03  0.00000000000E+00 0.  1.
         21   -1    0    0  501  502 -0.00000000000E+00 -0.00000000000E+00 -0.18307071210E+03  0.18307071210E+03  0.00000000000E+00 0.  1.
         21    1    1    2  503  502  0.13922068489E+02  0.23525632072E+02 -0.18024315792E+03  0.18230434809E+03  0.00000000000E+00 0.  1.
         21    1    1    2  504  503 -0.13922068489E+02 -0.23525632072E+02  0.10216747716E+03  0.10576139534E+03  0.00000000000E+00 0.  1.
<mgrwt>
<rscale>  2 0.27336411E+02</rscale>
<asrwt>0</asrwt>
<pdfrwt beam="1">  1       21 0.16153082E-01 0.27336411E+02</pdfrwt>
<pdfrwt beam="2">  1       21 0.28164724E-01 0.27336411E+02</pdfrwt>
<totfact> 0.41028316E+05</totfact>
</mgrwt>
</event>
<event>
 4    1  0.4594485E+006  0.2503000E+02  0.7546771E-02  0.1660571E+00
         21   -1    0    0  504  501  0.00000000000E+00  0.00000000000E+00  0.17566122719E+03  0.17566122719E+03  0.00000000000E+00 0.  1.
         21   -1    0    0  503  502 -0.00000000000E+00 -0.00000000000E+00 -0.24907456817E+02  0.24907456817E+02  0.00000000000E+00 0. -1.
         21    1    1    2  503  501 -0.21973467367E+02  0.11986142147E+02 -0.17450279187E+02  0.30512507524E+02  0.00000000000E+00 0. -1.
         21    1    1    2  504  502  0.21973467367E+02 -0.11986142147E+02  0.16820404956E+03  0.17005617648E+03  0.00000000000E+00 0.  1.
<mgrwt>
<rscale>  2 0.25029999E+02</rscale>
<asrwt>0</asrwt>
<pdfrwt beam="1">  1       21 0.27024803E-01 0.25029999E+02</pdfrwt>
<pdfrwt beam="2">  1       21 0.38319165E-02 0.25029999E+02</pdfrwt>
<totfact> 0.46606647E+06</totfact>
</mgrwt>
</event>
<event>
 4    1  0.4594485E+006  0.2746071E+02  0.7546771E-02  0.1627982E+00
         21   -1    0    0  503  501  0.00000000000E+00  0.00000000000E+00  0.16844313920E+04  0.16844313920E+04  0.00000000000E+00 0. -1.
         21   -1    0    0  504  502 -0.00000000000E+00 -0.00000000000E+00 -0.68393022104E+00  0.68393022104E+00  0.00000000000E+00 0.  1.
         21    1    1    2  503  502 -0.34753433500E+01  0.27239904940E+02  0.13370702254E+04  0.13373521893E+04  0.00000000000E+00 0. -1.
         21    1    1    2  504  501  0.34753433500E+01 -0.27239904940E+02  0.34667723637E+03  0.34776313297E+03  0.00000000000E+00 0.  1.
<mgrwt>
<rscale>  2 0.27460707E+02</rscale>
<asrwt>0</asrwt>
<pdfrwt beam="1">  1       21 0.25913997E+00 0.27460707E+02</pdfrwt>
<pdfrwt beam="2">  1       21 0.10522138E-03 0.27460707E+02</pdfrwt>
<totfact> 0.72002695E+06</totfact>
</mgrwt>
</event>
<event>
 4    1  0.4594485E+006  0.2834106E+02  0.7546771E-02  0.1617185E+00
         21   -1    0    0  503  501  0.00000000000E+00  0.00000000000E+00  0.53219576068E+02  0.53219576068E+02  0.00000000000E+00 0.  1.
         21   -1    0    0  504  502 -0.00000000000E+00 -0.00000000000E+00 -0.15498629764E+02  0.15498629764E+02  0.00000000000E+00 0.  1.
         21    1    1    2  503  502 -0.23681429860E+02  0.15569370559E+02  0.13298384055E+02  0.31305948928E+02  0.00000000000E+00 0.  1.
         21    1    1    2  504  501  0.23681429860E+02 -0.15569370559E+02  0.24422562249E+02  0.37412256904E+02  0.00000000000E+00 0.  1.
<mgrwt>
<rscale>  2 0.28341055E+02</rscale>
<asrwt>0</asrwt>
<pdfrwt beam="1">  1       21 0.81876270E-02 0.28341055E+02</pdfrwt>
<pdfrwt beam="2">  1       21 0.23844046E-02 0.28341055E+02</pdfrwt>
<totfact> 0.77991582E+07</totfact>
</mgrwt>
</event>
<event>
 4    1  0.4594485E+006  0.2321820E+02  0.7546771E-02  0.1687997E+00
         21   -1    0    0  504  501  0.00000000000E+00  0.00000000000E+00  0.24724026573E+02  0.24724026573E+02  0.00000000000E+00 0. -1.
         21   -1    0    0  503  502 -0.00000000000E+00 -0.00000000000E+00 -0.36136599481E+02  0.36136599481E+02  0.00000000000E+00 0. -1.
         21    1    1    2  503  501  0.22066761004E+02 -0.72209966242E+01 -0.24870632313E+02  0.34024007482E+02  0.00000000000E+00 0. -1.
         21    1    1    2  504  502 -0.22066761004E+02  0.72209966242E+01  0.13458059405E+02  0.26836618573E+02  0.00000000000E+00 0. -1.
<mgrwt>
<rscale>  2 0.23218198E+02</rscale>
<asrwt>0</asrwt>
<pdfrwt beam="1">  1       21 0.38036964E-02 0.23218198E+02</pdfrwt>
<pdfrwt beam="2">  1       21 0.55594768E-02 0.23218198E+02</pdfrwt>
<totfact> 0.66920013E+07</totfact>
</mgrwt>
</event>
<event>
 4    1  0.4594485E+006  0.2211052E+02  0.7546771E-02  0.1706348E+00
         21   -1    0    0  504  501  0.00000000000E+00  0.00000000000E+00  0.12961237613E+02  0.12961237613E+02  0.00000000000E+00 0.  1.
         21   -1    0    0  503  502 -0.00000000000E+00 -0.00000000000E+00 -0.23943564288E+03  0.23943564288E+03  0.00000000000E+00 0.  1.
         21    1    1    2  503  501  0.21674314417E+02  0.43702413768E+01  0.25955251398E+01  0.22262337386E+02  0.00000000000E+00 0.  1.
         21    1    1    2  504  502 -0.21674314417E+02 -0.43702413768E+01 -0.22906993041E+03  0.23013454311E+03  0.00000000000E+00 0.  1.
<mgrwt>
<rscale>  2 0.22110516E+02</rscale>
<asrwt>0</asrwt>
<pdfrwt beam="1">  1       21 0.19940365E-02 0.22110516E+02</pdfrwt>
<pdfrwt beam="2">  1       21 0.36836253E-01 0.22110516E+02</pdfrwt>
<totfact> 0.71470024E+06</totfact>
</mgrwt>
</event>
<event>
 4    1  0.4594485E+006  0.3133829E+02  0.7546771E-02  0.1583750E+00
         21   -1    0    0  502  501  0.00000000000E+00  0.00000000000E+00  0.36797477938E+03  0.36797477938E+03  0.00000000000E+00 0. -1.
         21   -1    0    0  504  502 -0.00000000000E+00 -0.00000000000E+00 -0.55380242066E+02  0.55380242066E+02  0.00000000000E+00 0. -1.
         21    1    1    2  503  501 -0.30485084108E+02  0.72627931270E+01  0.36281118591E+03  0.36416211382E+03  0.00000000000E+00 0. -1.
         21    1    1    2  504  503  0.30485084108E+02 -0.72627931270E+01 -0.50216648598E+02  0.59192907628E+02  0.00000000000E+00 0. -1.
<mgrwt>
<rscale>  2 0.31338292E+02</rscale>
<asrwt>0</asrwt>
<pdfrwt beam="1">  1       21 0.56611503E-01 0.31338292E+02</pdfrwt>
<pdfrwt beam="2">  1       21 0.85200375E-02 0.31338292E+02</pdfrwt>
<totfact> 0.32106802E+05</totfact>
</mgrwt>
</event>
<event>
 4    1  0.4594485E+006  0.2484368E+02  0.7546771E-02  0.1663257E+00
         21   -1    0    0  504  501  0.00000000000E+00  0.00000000000E+00  0.32414211074E+02  0.32414211074E+02  0.00000000000E+00 0.  1.
         21   -1    0    0  501  502 -0.00000000000E+00 -0.00000000000E+00 -0.76550680513E+02  0.76550680513E+02  0.00000000000E+00 0.  1.
         21    1    1    2  503  502 -0.24443218560E+02  0.44426939930E+01 -0.69291002917E+02  0.73610132106E+02  0.00000000000E+00 0.  1.
         21    1    1    2  504  503  0.24443218560E+02 -0.44426939930E+01  0.25154533478E+02  0.35354759481E+02  0.00000000000E+00 0.  1.
<mgrwt>
<rscale>  2 0.24843681E+02</rscale>
<asrwt>0</asrwt>
<pdfrwt beam="1">  1       21 0.49868017E-02 0.24843681E+02</pdfrwt>
<pdfrwt beam="2">  1       21 0.11777028E-01 0.24843681E+02</pdfrwt>
<totfact> 0.12954758E+07</totfact>
</mgrwt>
</event>
<event>
 4    1  0.4594485E+006  0.2162839E+02  0.7546771E-02  0.1714759E+00
         21   -1    0    0  502  501  0.00000000000E+00  0.00000000000E+00  0.23988235003E+03  0.23988235003E+03  0.00000000000E+00 0.  1.
         21   -1    0    0  504  502 -0.00000000000E+00 -0.00000000000E+00 -0.48510195328E+01  0.48510195328E+01  0.00000000000E+00 0. -1.
         21    1    1    2  503  501  0.20146110497E+02 -0.78690071227E+01  0.21214305776E+03  0.21324273492E+03  0.00000000000E+00 0.  1.
         21    1    1    2  504  503 -0.20146110497E+02  0.78690071227E+01  0.22888272741E+02  0.31490634644E+02  0.00000000000E+00 0. -1.
<mgrwt>
<rscale>  2 0.21628385E+02</rscale>
<asrwt>0</asrwt>
<pdfrwt beam="1">  1       21 0.36904968E-01 0.21628385E+02</pdfrwt>
<pdfrwt beam="2">  1       21 0.74631089E-03 0.21628385E+02</pdfrwt>
<totfact> 0.31220616E+07</totfact>
</mgrwt>
</event>
<event>
 4    1  0.4594485E+006  0.2065560E+02  0.7546771E-02  0.1732596E+00
         21   -1    0    0  503  501  0.00000000000E+00  0.00000000000E+00  0.37008459201E+03  0.37008459201E+03  0.00000000000E+00 0.  1.
         21   -1    0    0  504  502 -0.00000000000E+00 -0.00000000000E+00 -0.94995247515E+02  0.94995247515E+02  0.00000000000E+00 0. -1.
         21    1    1    2  503  502 -0.19552562174E+02 -0.66596630410E+01  0.36866924173E+03  0.36924742870E+03  0.00000000000E+00 0.  1.
         21    1    1    2  504  501  0.19552562174E+02  0.66596630410E+01 -0.93579897235E+02  0.95832410832E+02  0.00000000000E+00 0. -1.
<mgrwt>
<rscale>  2 0.20655600E+02</rscale>
<asrwt>0</asrwt>
<pdfrwt beam="1">  1       21 0.56936090E-01 0.20655600E+02</pdfrwt>
<pdfrwt beam="2">  1       21 0.14614654E-01 0.20655600E+02</pdfrwt>
<totfact> 0.12763847E+05</totfact>
</mgrwt>
</event>
<event>
 4    1  0.4594485E+006  0.2493908E+02  0.7546771E-02  0.1661879E+00
         21   -1    0    0  504  501  0.00000000000E+00  0.00000000000E+00  0.87029923063E+02  0.87029923063E+02  0.00000000000E+00 0. -1.
         21   -1    0    0  501  502 -0.00000000000E+00 -0.00000000000E+00 -0.30873737449E+02  0.30873737449E+02  0.00000000000E+00 0. -1.
         21    1    1    2  503  502  0.23475846731E+02 -0.84167739056E+01 -0.23602379725E+02  0.34337003239E+02  0.00000000000E+00 0. -1.
         21    1    1    2  504  503 -0.23475846731E+02  0.84167739056E+01  0.79758565340E+02  0.83566657273E+02  0.00000000000E+00 0. -1.
<mgrwt>
<rscale>  2 0.24939075E+02</rscale>
<asrwt>0</asrwt>
<pdfrwt beam="1">  1       21 0.13389219E-01 0.24939075E+02</pdfrwt>
<pdfrwt beam="2">  1       21 0.47498058E-02 0.24939075E+02</pdfrwt>
<totfact> 0.11286199E+07</totfact>
</mgrwt>
</event>
<event>
 4    1  0.4594485E+006  0.2091381E+02  0.7546771E-02  0.1727743E+00
         21   -1    0    0  502  501  0.00000000000E+00  0.00000000000E+00  0.33043300990E+01  0.33043300990E+01  0.00000000000E+00 0. -1.
         21   -1    0    0  503  502 -0.00000000000E+00 -0.00000000000E+00 -0.13613835956E+03  0.13613835956E+03  0.00000000000E+00 0. -1.
         21    1    1    2  503  504 -0.19081542552E+02  0.85605124909E+01 -0.78019889315E+02  0.80774319985E+02  0.00000000000E+00 0. -1.
         21    1    1    2  504  501  0.19081542552E+02 -0.85605124909E+01 -0.54814140144E+02  0.58668369672E+02  0.00000000000E+00 0. -1.
<mgrwt>
<rscale>  2 0.20913815E+02</rscale>
<asrwt>0</asrwt>
<pdfrwt beam="1">  1       21 0.50835847E-03 0.20913815E+02</pdfrwt>
<pdfrwt beam="2">  1       21 0.20944363E-01 0.20913815E+02</pdfrwt>
<totfact> 0.15125176E+08</totfact>
</mgrwt>
</event>
<event>
 4    1  0.4594485E+006  0.2243002E+02  0.7546771E-02  0.1700919E+00
         21   -1    0    0  504  501  0.00000000000E+00  0.00000000000E+00  0.20778813945E+02  0.20778813945E+02  0.00000000000E+00 0.  1.
         21   -1    0    0  503  502 -0.00000000000E+00 -0.00000000000E+00 -0.76506152371E+02  0.76506152371E+02  0.00000000000E+00 0.  1.
         21    1    1    2  503  501 -0.18657183837E+02 -0.12450504584E+02 -0.68079063968E+02  0.71678898735E+02  0.00000000000E+00 0.  1.
         21    1    1    2  504  502  0.18657183837E+02  0.12450504584E+02  0.12351725541E+02  0.25606067581E+02  0.00000000000E+00 0.  1.
<mgrwt>
<rscale>  2 0.22430015E+02</rscale>
<asrwt>0</asrwt>
<pdfrwt beam="1">  1       21 0.31967406E-02 0.22430015E+02</pdfrwt>
<pdfrwt beam="2">  1       21 0.11770177E-01 0.22430015E+02</pdfrwt>
<totfact> 0.25582388E+07</totfact>
</mgrwt>
</event>
<event>
 4    1  0.4594485E+006  0.2949477E+02  0.7546771E-02  0.1603741E+00
         21   -1    0    0  503  501  0.00000000000E+00  0.00000000000E+00  0.30164607515E+02  0.30164607515E+02  0.00000000000E+00 0.  1.
         21   -1    0    0  504  502 -0.00000000000E+00 -0.00000000000E+00 -0.30283006448E+02  0.30283006448E+02  0.00000000000E+00 0.  1.
         21    1    1    2  503  502 -0.13433479741E+02  0.26258006628E+02 -0.66572204494E+01  0.30236730546E+02  0.00000000000E+00 0.  1.
         21    1    1    2  504  501  0.13433479741E+02 -0.26258006628E+02  0.65388215166E+01  0.30210883417E+02  0.00000000000E+00 0.  1.
<mgrwt>
<rscale>  2 0.29494767E+02</rscale>
<asrwt>0</asrwt>
<pdfrwt beam="1">  1       21 0.46407088E-02 0.29494767E+02</pdfrwt>
<pdfrwt beam="2">  1       21 0.46589241E-02 0.29494767E+02</pdfrwt>
<totfact> 0.68814813E+07</totfact>
</mgrwt>
</event>
<event>
 4    1  0.4594485E+006  0.6586811E+02  0.7546771E-02  0.1374735E+00
         21   -1    0    0  503  501  0.00000000000E+00  0.00000000000E+00  0.66415388948E+01  0.66415388948E+01  0.00000000000E+00 0.  1.
         21   -1    0    0  501  502 -0.00000000000E+00 -0.00000000000E+00 -0.20711084319E+04  0.20711084319E+04  0.00000000000E+00 0.  1.
         21    1    1    2  503  504  0.27121471540E+02 -0.60025277748E+02 -0.17267031818E+03  0.18480705335E+03  0.00000000000E+00 0.  1.
         21    1    1    2  504  502 -0.27121471540E+02  0.60025277748E+02 -0.18917965748E+04  0.18929429174E+04  0.00000000000E+00 0.  1.
<mgrwt>
<rscale>  2 0.65868112E+02</rscale>
<asrwt>0</asrwt>
<pdfrwt beam="1">  1       21 0.10217753E-02 0.65868112E+02</pdfrwt>
<pdfrwt beam="2">  1       21 0.31863204E+00 0.65868112E+02</pdfrwt>
<totfact> 0.11399087E+05</totfact>
</mgrwt>
</event>
<event>
 4    1  0.4594485E+006  0.3394346E+02  0.7546771E-02  0.1558188E+00
         21   -1    0    0  502  501  0.00000000000E+00  0.00000000000E+00  0.10533779073E+03  0.10533779073E+03  0.00000000000E+00 0. -1.
         21   -1    0    0  503  502 -0.00000000000E+00 -0.00000000000E+00 -0.66959536443E+03  0.66959536443E+03  0.00000000000E+00 0. -1.
         21    1    1    2  503  504 -0.14724939319E+02  0.30583239037E+02 -0.66641772748E+03  0.66728160910E+03  0.00000000000E+00 0. -1.
         21    1    1    2  504  501  0.14724939319E+02 -0.30583239037E+02  0.10216015379E+03  0.10765154606E+03  0.00000000000E+00 0. -1.
<mgrwt>
<rscale>  2 0.33943458E+02</rscale>
<asrwt>0</asrwt>
<pdfrwt beam="1">  1       21 0.16205814E-01 0.33943458E+02</pdfrwt>
<pdfrwt beam="2">  1       21 0.10301467E+00 0.33943458E+02</pdfrwt>
<totfact> 0.30345539E+04</totfact>
</mgrwt>
</event>
<event>
 4    1  0.4594485E+006  0.2055536E+02  0.7546771E-02  0.1734504E+00
         21   -1    0    0  503  501  0.00000000000E+00  0.00000000000E+00  0.39285597640E+02  0.39285597640E+02  0.00000000000E+00 0. -1.
         21   -1    0    0  501  502 -0.00000000000E+00 -0.00000000000E+00 -0.28742704969E+02  0.28742704969E+02  0.00000000000E+00 0. -1.
         21    1    1    2  503  504  0.16481559442E+02 -0.12283363940E+02  0.32179468985E+02  0.38184303784E+02  0.00000000000E+00 0. -1.
         21    1    1    2  504  502 -0.16481559442E+02  0.12283363940E+02 -0.21636576314E+02  0.29843998825E+02  0.00000000000E+00 0. -1.
<mgrwt>
<rscale>  2 0.20555360E+02</rscale>
<asrwt>0</asrwt>
<pdfrwt beam="1">  1       21 0.60439381E-02 0.20555360E+02</pdfrwt>
<pdfrwt beam="2">  1       21 0.44219546E-02 0.20555360E+02</pdfrwt>
<totfact> 0.44708337E+07</totfact>
</mgrwt>
</event>
<event>
 4    1  0.4594485E+006  0.2425988E+02  0.7546771E-02  0.1671866E+00
         21   -1    0    0  503  501  0.00000000000E+00  0.00000000000E+00  0.76058325855E+01  0.76058325855E+01  0.00000000000E+00 0. -1.
         21   -1    0    0  504  502 -0.00000000000E+00 -0.00000000000E+00 -0.80987039702E+02  0.80987039702E+02  0.00000000000E+00 0. -1.
         21    1    1    2  503  502 -0.16288833263E+02  0.17978200581E+02 -0.46038567223E+02  0.52039326064E+02  0.00000000000E+00 0. -1.
         21    1    1    2  504  501  0.16288833263E+02 -0.17978200581E+02 -0.27342639894E+02  0.36553546224E+02  0.00000000000E+00 0. -1.
<mgrwt>
<rscale>  2 0.24259880E+02</rscale>
<asrwt>0</asrwt>
<pdfrwt beam="1">  1       21 0.11701281E-02 0.24259880E+02</pdfrwt>
<pdfrwt beam="2">  1       21 0.12459545E-01 0.24259880E+02</pdfrwt>
<totfact> 0.11090215E+08</totfact>
</mgrwt>
</event>
<event>
 4    1  0.4594485E+006  0.2948068E+02  0.7546771E-02  0.1603901E+00
         21   -1    0    0  503  501  0.00000000000E+00  0.00000000000E+00  0.92998441904E+02  0.92998441904E+02  0.00000000000E+00 0.  1.
         21   -1    0    0  504  502 -0.00000000000E+00 -0.00000000000E+00 -0.13265196935E+02  0.13265196935E+02  0.00000000000E+00 0.  1.
         21    1    1    2  503  502  0.79935034643E+01 -0.28376303666E+02  0.68748657732E+02  0.74802998919E+02  0.00000000000E+00 0.  1.
         21    1    1    2  504  501 -0.79935034643E+01  0.28376303666E+02  0.10984587238E+02  0.31460639919E+02  0.00000000000E+00 0.  1.
<mgrwt>
<rscale>  2 0.29480684E+02</rscale>
<asrwt>0</asrwt>
<pdfrwt beam="1">  1       21 0.14307452E-01 0.29480684E+02</pdfrwt>
<pdfrwt beam="2">  1       21 0.20407996E-02 0.29480684E+02</pdfrwt>
<totfact> 0.39264875E+07</totfact>
</mgrwt>
</event>
<event>
 4    1  0.4594485E+006  0.2049520E+02  0.7546771E-02  0.1735656E+00
         21   -1    0    0  503  501  0.00000000000E+00  0.00000000000E+00  0.65549441656E+01  0.65549441656E+01  0.00000000000E+00 0. -1.
         21   -1    0    0  504  502 -0.00000000000E+00 -0.00000000000E+00 -0.14661416485E+03  0.14661416485E+03  0.00000000000E+00 0.  1.
         21    1    1    2  503  502 -0.20434570437E+02 -0.15752431859E+01 -0.12569666996E+02  0.24042661842E+02  0.00000000000E+00 0. -1.
         21    1    1    2  504  501  0.20434570437E+02  0.15752431859E+01 -0.12748955368E+03  0.12912644717E+03  0.00000000000E+00 0.  1.
<mgrwt>
<rscale>  2 0.20495196E+02</rscale>
<asrwt>0</asrwt>
<pdfrwt beam="1">  1       21 0.10084530E-02 0.20495196E+02</pdfrwt>
<pdfrwt beam="2">  1       21 0.22556024E-01 0.20495196E+02</pdfrwt>
<totfact> 0.47834611E+07</totfact>
</mgrwt>
</event>
<event>
 4    1  0.4594485E+006  0.2821482E+02  0.7546771E-02  0.1618703E+00
         21   -1    0    0  503  501  0.00000000000E+00  0.00000000000E+00  0.67796063488E+01  0.67796063488E+01  0.00000000000E+00 0.  1.
         21   -1    0    0  504  502 -0.00000000000E+00 -0.00000000000E+00 -0.11749194207E+03  0.11749194207E+03  0.00000000000E+00 0.  1.
         21    1    1    2  503  502 -0.61302103258E+01  0.27540817077E+02 -0.53841975996E+02  0.60786795137E+02  0.00000000000E+00 0.  1.
         21    1    1    2  504  501  0.61302103258E+01 -0.27540817077E+02 -0.56870359726E+02  0.63484753282E+02  0.00000000000E+00 0.  1.
<mgrwt>
<rscale>  2 0.28214820E+02</rscale>
<asrwt>0</asrwt>
<pdfrwt beam="1">  1       21 0.10430165E-02 0.28214820E+02</pdfrwt>
<pdfrwt beam="2">  1       21 0.18075681E-01 0.28214820E+02</pdfrwt>
<totfact> 0.72523740E+07</totfact>
</mgrwt>
</event>
<event>
 4    1  0.4594485E+006  0.2247633E+02  0.7546771E-02  0.1700142E+00
         21   -1    0    0  503  501  0.00000000000E+00  0.00000000000E+00  0.83905411516E+03  0.83905411516E+03  0.00000000000E+00 0. -1.
         21   -1    0    0  501  502 -0.00000000000E+00 -0.00000000000E+00 -0.95397439795E+01  0.95397439795E+01  0.00000000000E+00 0.  1.
         21    1    1    2  503  504 -0.89262665349E+01  0.20627819907E+02  0.82544642495E+03  0.82575237550E+03  0.00000000000E+00 0. -1.
         21    1    1    2  504  502  0.89262665349E+01 -0.20627819907E+02  0.40679462374E+01  0.22841483642E+02  0.00000000000E+00 0.  1.
<mgrwt>
<rscale>  2 0.22476325E+02</rscale>
<asrwt>0</asrwt>
<pdfrwt beam="1">  1       21 0.12908519E+00 0.22476325E+02</pdfrwt>
<pdfrwt beam="2">  1       21 0.14676536E-02 0.22476325E+02</pdfrwt>
<totfact> 0.86947901E+05</totfact>
</mgrwt>
</event>
<event>
 4    1  0.4594485E+006  0.2443360E+02  0.7546771E-02  0.1669273E+00
         21   -1    0    0  503  501  0.00000000000E+00  0.00000000000E+00  0.75148678406E+02  0.75148678406E+02  0.00000000000E+00 0.  1.
         21   -1    0    0  504  502 -0.00000000000E+00 -0.00000000000E+00 -0.80611512575E+02  0.80611512575E+02  0.00000000000E+00 0.  1.
         21    1    1    2  503  502 -0.15896261751E+02  0.18555584338E+02 -0.76674457189E+02  0.80473431846E+02  0.00000000000E+00 0.  1.
         21    1    1    2  504  501  0.15896261751E+02 -0.18555584338E+02  0.71211623020E+02  0.75286759135E+02  0.00000000000E+00 0.  1.
<mgrwt>
<rscale>  2 0.24433601E+02</rscale>
<asrwt>0</asrwt>
<pdfrwt beam="1">  1       21 0.11561335E-01 0.24433601E+02</pdfrwt>
<pdfrwt beam="2">  1       21 0.12401771E-01 0.24433601E+02</pdfrwt>
<totfact> 0.30013600E+06</totfact>
</mgrwt>
</event>
<event>
 4    1  0.4594485E+006  0.2837949E+02  0.7546771E-02  0.1616724E+00
         21   -1    0    0  503  501  0.00000000000E+00  0.00000000000E+00  0.59703393186E+02  0.59703393186E+02  0.00000000000E+00 0. -1.
         21   -1    0    0  504  502 -0.00000000000E+00 -0.00000000000E+00 -0.30592804871E+02  0.30592804871E+02  0.00000000000E+00 0. -1.
         21    1    1    2  503  502  0.26744898070E+02  0.94924182946E+01  0.48312319576E+02  0.56031025340E+02  0.00000000000E+00 0. -1.
         21    1    1    2  504  501 -0.26744898070E+02 -0.94924182946E+01 -0.19201731261E+02  0.34265172716E+02  0.00000000000E+00 0. -1.
<mgrwt>
<rscale>  2 0.28379492E+02</rscale>
<asrwt>0</asrwt>
<pdfrwt beam="1">  1       21 0.91851374E-02 0.28379492E+02</pdfrwt>
<pdfrwt beam="2">  1       21 0.47065854E-02 0.28379492E+02</pdfrwt>
<totfact> 0.22076584E+07</totfact>
</mgrwt>
</event>
<event>
 4    1  0.4594485E+006  0.2630173E+02  0.7546771E-02  0.1642979E+00
         21   -1    0    0  503  501  0.00000000000E+00  0.00000000000E+00  0.21500019641E+03  0.21500019641E+03  0.00000000000E+00 0.  1.
         21   -1    0    0  501  502 -0.00000000000E+00 -0.00000000000E+00 -0.34893420704E+02  0.34893420704E+02  0.00000000000E+00 0. -1.
         21    1    1    2  503  504  0.69554125917E+00 -0.26292530890E+02  0.20910011206E+03  0.21074780621E+03  0.00000000000E+00 0.  1.
         21    1    1    2  504  502 -0.69554125917E+00  0.26292530890E+02 -0.28993336356E+02  0.39145810903E+02  0.00000000000E+00 0. -1.
<mgrwt>
<rscale>  2 0.26301729E+02</rscale>
<asrwt>0</asrwt>
<pdfrwt beam="1">  1       21 0.33076953E-01 0.26301729E+02</pdfrwt>
<pdfrwt beam="2">  1       21 0.53682187E-02 0.26301729E+02</pdfrwt>
<totfact> 0.18956304E+06</totfact>
</mgrwt>
</event>
<event>
 4    1  0.4594485E+006  0.2395207E+02  0.7546771E-02  0.1676526E+00
         21   -1    0    0  504  501  0.00000000000E+00  0.00000000000E+00  0.69057830835E+03  0.69057830835E+03  0.00000000000E+00 0.  1.
         21   -1    0    0  501  502 -0.00000000000E+00 -0.00000000000E+00 -0.38607465269E+01  0.38607465269E+01  0.00000000000E+00 0.  1.
         21    1    1    2  503  502 -0.89717781900E+01  0.22208309434E+02  0.35756777686E+02  0.43037762050E+02  0.00000000000E+00 0.  1.
         21    1    1    2  504  503  0.89717781900E+01 -0.22208309434E+02  0.65096078414E+03  0.65140129283E+03  0.00000000000E+00 0.  1.
<mgrwt>
<rscale>  2 0.23952073E+02</rscale>
<asrwt>0</asrwt>
<pdfrwt beam="1">  1       21 0.10624272E+00 0.23952073E+02</pdfrwt>
<pdfrwt beam="2">  1       21 0.59396155E-03 0.23952073E+02</pdfrwt>
<totfact> 0.52741980E+06</totfact>
</mgrwt>
</event>
<event>
 4    1  0.4594485E+006  0.3448771E+02  0.7546771E-02  0.1553197E+00
         21   -1    0    0  503  501  0.00000000000E+00  0.00000000000E+00  0.17032587555E+02  0.17032587555E+02  0.00000000000E+00 0.  1.
         21   -1    0    0  501  502 -0.00000000000E+00 -0.00000000000E+00 -0.28099599379E+03  0.28099599379E+03  0.00000000000E+00 0. -1.
         21    1    1    2  503  504 -0.10955068509E+02  0.32701511779E+02 -0.28036213433E+01  0.34601483947E+02  0.00000000000E+00 0.  1.
         21    1    1    2  504  502  0.10955068509E+02 -0.32701511779E+02 -0.26115978490E+03  0.26342709740E+03  0.00000000000E+00 0. -1.
<mgrwt>
<rscale>  2 0.34487714E+02</rscale>
<asrwt>0</asrwt>
<pdfrwt beam="1">  1       21 0.26203982E-02 0.34487714E+02</pdfrwt>
<pdfrwt beam="2">  1       21 0.43230152E-01 0.34487714E+02</pdfrwt>
<totfact> 0.36734306E+06</totfact>
</mgrwt>
</event>
<event>
 4    1  0.4594485E+006  0.2485487E+02  0.7546771E-02  0.1663095E+00
         21   -1    0    0  503  501  0.00000000000E+00  0.00000000000E+00  0.10363460326E+03  0.10363460326E+03  0.00000000000E+00 0. -1.
         21   -1    0    0  504  502 -0.00000000000E+00 -0.00000000000E+00 -0.24265755953E+02  0.24265755953E+02  0.00000000000E+00 0.  1.
         21    1    1    2  503  502  0.49096564241E+01  0.24365136477E+02 -0.15858274427E+02  0.29483036980E+02  0.00000000000E+00 0.  1.
         21    1    1    2  504  501 -0.49096564241E+01 -0.24365136477E+02  0.95227121736E+02  0.98417322235E+02  0.00000000000E+00 0. -1.
<mgrwt>
<rscale>  2 0.24854871E+02</rscale>
<asrwt>0</asrwt>
<pdfrwt beam="1">  1       21 0.15943785E-01 0.24854871E+02</pdfrwt>
<pdfrwt beam="2">  1       21 0.37331933E-02 0.24854871E+02</pdfrwt>
<totfact> 0.12265923E+07</totfact>
</mgrwt>
</event>
<event>
 4    1  0.4594485E+006  0.2645101E+02  0.7546771E-02  0.1640995E+00
         21   -1    0    0  503  501  0.00000000000E+00  0.00000000000E+00  0.24159048464E+02  0.24159048464E+02  0.00000000000E+00 0. -1.
         21   -1    0    0  504  502 -0.00000000000E+00 -0.00000000000E+00 -0.40493072451E+02  0.40493072451E+02  0.00000000000E+00 0.  1.
         21    1    1    2  503  502  0.22301072258E+02 -0.14223850240E+02  0.90845081288E+01  0.27967553118E+02  0.00000000000E+00 0.  1.
         21    1    1    2  504  501 -0.22301072258E+02  0.14223850240E+02 -0.25418532117E+02  0.36684567797E+02  0.00000000000E+00 0. -1.
<mgrwt>
<rscale>  2 0.26451006E+02</rscale>
<asrwt>0</asrwt>
<pdfrwt beam="1">  1       21 0.37167767E-02 0.26451006E+02</pdfrwt>
<pdfrwt beam="2">  1       21 0.62297034E-02 0.26451006E+02</pdfrwt>
<totfact> 0.59746424E+07</totfact>
</mgrwt>
</event>
<event>
 4    1  0.4594485E+006  0.2112606E+02  0.7546771E-02  0.1723820E+00
         21   -1    0    0  503  501  0.00000000000E+00  0.00000000000E+00  0.28804852355E+02  0.28804852355E+02  0.00000000000E+00 0.  1.
         21   -1    0    0  504  502 -0.00000000000E+00 -0.00000000000E+00 -0.50471651534E+02  0.50471651534E+02  0.00000000000E+00 0.  1.
         21    1    1    2  503  502  0.21061203282E+02  0.16541437913E+01  0.22164349425E+02  0.30619746257E+02  0.00000000000E+00 0.  1.
         21    1    1    2  504  501 -0.21061203282E+02 -0.16541437913E+01 -0.43831148604E+02  0.48656757633E+02  0.00000000000E+00 0.  1.
<mgrwt>
<rscale>  2 0.21126062E+02</rscale>
<asrwt>0</asrwt>
<pdfrwt beam="1">  1       21 0.44315158E-02 0.21126062E+02</pdfrwt>
<pdfrwt beam="2">  1       21 0.77648693E-02 0.21126062E+02</pdfrwt>
<totfact> 0.29964082E+07</totfact>
</mgrwt>
</event>
<event>
 4    1  0.4594485E+006  0.4150810E+02  0.7546771E-02  0.1497398E+00
         21   -1    0    0  504  501  0.00000000000E+00  0.00000000000E+00  0.31474203311E+02  0.31474203311E+02  0.00000000000E+00 0. -1.
         21   -1    0    0  503  502 -0.00000000000E+00 -0.00000000000E+00 -0.56251946473E+02  0.56251946473E+02  0.00000000000E+00 0. -1.
         21    1    1    2  503  501  0.32173056942E+02 -0.26226267557E+02 -0.19578149061E+02  0.45893644697E+02  0.00000000000E+00 0. -1.
         21    1    1    2  504  502 -0.32173056942E+02  0.26226267557E+02 -0.51995941009E+01  0.41832505086E+02  0.00000000000E+00 0. -1.
<mgrwt>
<rscale>  2 0.41508104E+02</rscale>
<asrwt>0</asrwt>
<pdfrwt beam="1">  1       21 0.48421852E-02 0.41508104E+02</pdfrwt>
<pdfrwt beam="2">  1       21 0.86541455E-02 0.41508104E+02</pdfrwt>
<totfact> 0.24949131E+07</totfact>
</mgrwt>
</event>
<event>
 4    1  0.4594485E+006  0.2844518E+02  0.7546771E-02  0.1615940E+00
         21   -1    0    0  502  501  0.00000000000E+00  0.00000000000E+00  0.75418009957E+02  0.75418009957E+02  0.00000000000E+00 0. -1.
         21   -1    0    0  503  502 -0.00000000000E+00 -0.00000000000E+00 -0.41320666313E+02  0.41320666313E+02  0.00000000000E+00 0. -1.
         21    1    1    2  503  504 -0.25577525413E+02  0.12446623862E+02 -0.33174674909E+02  0.43699969189E+02  0.00000000000E+00 0. -1.
         21    1    1    2  504  501  0.25577525413E+02 -0.12446623862E+02  0.67272018553E+02  0.73038707081E+02  0.00000000000E+00 0. -1.
<mgrwt>
<rscale>  2 0.28445180E+02</rscale>
<asrwt>0</asrwt>
<pdfrwt beam="1">  1       21 0.11602771E-01 0.28445180E+02</pdfrwt>
<pdfrwt beam="2">  1       21 0.63570256E-02 0.28445180E+02</pdfrwt>
<totfact> 0.92045822E+06</totfact>
</mgrwt>
</event>
<event>
 4    1  0.4594485E+006  0.2870916E+02  0.7546771E-02  0.1612812E+00
         21   -1    0    0  503  501  0.00000000000E+00  0.00000000000E+00  0.49716025089E+03  0.49716025089E+03  0.00000000000E+00 0. -1.
         21   -1    0    0  501  502 -0.00000000000E+00 -0.00000000000E+00 -0.78669214438E+02  0.78669214438E+02  0.00000000000E+00 0. -1.
         21    1    1    2  503  504  0.28433407855E+02 -0.39695400539E+01  0.49411039005E+03  0.49494372759E+03  0.00000000000E+00 0. -1.
         21    1    1    2  504  502 -0.28433407855E+02  0.39695400539E+01 -0.75619353597E+02  0.80885737734E+02  0.00000000000E+00 0. -1.
<mgrwt>
<rscale>  2 0.28709161E+02</rscale>
<asrwt>0</asrwt>
<pdfrwt beam="1">  1       21 0.76486191E-01 0.28709161E+02</pdfrwt>
<pdfrwt beam="2">  1       21 0.12102956E-01 0.28709161E+02</pdfrwt>
<totfact> 0.96171506E+04</totfact>
</mgrwt>
</event>
<event>
 4    1  0.4594485E+006  0.2082612E+02  0.7546771E-02  0.1729382E+00
         21   -1    0    0  502  501  0.00000000000E+00  0.00000000000E+00  0.17072462420E+03  0.17072462420E+03  0.00000000000E+00 0. -1.
         21   -1    0    0  504  502 -0.00000000000E+00 -0.00000000000E+00 -0.12242132378E+02  0.12242132378E+02  0.00000000000E+00 0. -1.
         21    1    1    2  503  501 -0.17197719222E+02 -0.11745885379E+02  0.16068089120E+03  0.16202492452E+03  0.00000000000E+00 0. -1.
         21    1    1    2  504  503  0.17197719222E+02  0.11745885379E+02 -0.21983993824E+01  0.20941832050E+02  0.00000000000E+00 0. -1.
<mgrwt>
<rscale>  2 0.20826122E+02</rscale>
<asrwt>0</asrwt>
<pdfrwt beam="1">  1       21 0.26265325E-01 0.20826122E+02</pdfrwt>
<pdfrwt beam="2">  1       21 0.18834051E-02 0.20826122E+02</pdfrwt>
<totfact> 0.14276104E+07</totfact>
</mgrwt>
</event>
<event>
 4    1  0.4594485E+006  0.2032707E+02  0.7546771E-02  0.1738901E+00
         21   -1    0    0  502  501  0.00000000000E+00  0.00000000000E+00  0.12466070727E+02  0.12466070727E+02  0.00000000000E+00 0. -1.
         21   -1    0    0  503  502 -0.00000000000E+00 -0.00000000000E+00 -0.10326547536E+03  0.10326547536E+03  0.00000000000E+00 0. -1.
         21    1    1    2  503  504  0.34319869777E+01  0.20035250667E+02 -0.93082984488E+02  0.95276606809E+02  0.00000000000E+00 0. -1.
         21    1    1    2  504  501 -0.34319869777E+01 -0.20035250667E+02  0.22835798547E+01  0.20454939278E+02  0.00000000000E+00 0. -1.
<mgrwt>
<rscale>  2 0.20327071E+02</rscale>
<asrwt>0</asrwt>
<pdfrwt beam="1">  1       21 0.19178570E-02 0.20327071E+02</pdfrwt>
<pdfrwt beam="2">  1       21 0.15886996E-01 0.20327071E+02</pdfrwt>
<totfact> 0.33133907E+07</totfact>
</mgrwt>
</event>
<event>
 4    1  0.4594485E+006  0.2125552E+02  0.7546771E-02  0.1721455E+00
         21   -1    0    0  502  501  0.00000000000E+00  0.00000000000E+00  0.33947305740E+02  0.33947305740E+02  0.00000000000E+00 0.  1.
         21   -1    0    0  503  502 -0.00000000000E+00 -0.00000000000E+00 -0.82549074934E+02  0.82549074934E+02  0.00000000000E+00 0. -1.
         21    1    1    2  503  504  0.29107710995E+01 -0.21055270011E+02 -0.77647369533E+02  0.80504105355E+02  0.00000000000E+00 0. -1.
         21    1    1    2  504  501 -0.29107710995E+01  0.21055270011E+02  0.29045600338E+02  0.35992275319E+02  0.00000000000E+00 0.  1.
<mgrwt>
<rscale>  2 0.21255517E+02</rscale>
<asrwt>0</asrwt>
<pdfrwt beam="1">  1       21 0.52226625E-02 0.21255517E+02</pdfrwt>
<pdfrwt beam="2">  1       21 0.12699858E-01 0.21255517E+02</pdfrwt>
<totfact> 0.10280949E+07</totfact>
</mgrwt>
</event>
<event>
 4    1  0.4594485E+006  0.3001594E+02  0.7546771E-02  0.1597913E+00
         21   -1    0    0  503  501  0.00000000000E+00  0.00000000000E+00  0.64444206790E+01  0.64444206790E+01  0.00000000000E+00 0. -1.
         21   -1    0    0  504  502 -0.00000000000E+00 -0.00000000000E+00 -0.18769191822E+03  0.18769191822E+03  0.00000000000E+00 0. -1.
         21    1    1    2  503  502 -0.20045570509E+02 -0.22341258704E+02 -0.13965425355E+03  0.14284350623E+03  0.00000000000E+00 0. -1.
         21    1    1    2  504  501  0.20045570509E+02  0.22341258704E+02 -0.41593243991E+02  0.51292832669E+02  0.00000000000E+00 0. -1.
<mgrwt>
<rscale>  2 0.30015941E+02</rscale>
<asrwt>0</asrwt>
<pdfrwt beam="1">  1       21 0.99144936E-03 0.30015941E+02</pdfrwt>
<pdfrwt beam="2">  1       21 0.28875679E-01 0.30015941E+02</pdfrwt>
<totfact> 0.34396731E+07</totfact>
</mgrwt>
</event>
<event>
 4    1  0.4594485E+006  0.2977213E+02  0.7546771E-02  0.1600621E+00
         21   -1    0    0  503  501  0.00000000000E+00  0.00000000000E+00  0.17212823347E+02  0.17212823347E+02  0.00000000000E+00 0.  1.
         21   -1    0    0  504  502 -0.00000000000E+00 -0.00000000000E+00 -0.79351150018E+02  0.79351150018E+02  0.00000000000E+00 0.  1.
         21    1    1    2  503  502 -0.10066071096E+02  0.28018815843E+02 -0.24625412164E+01  0.29873800190E+02  0.00000000000E+00 0.  1.
         21    1    1    2  504  501  0.10066071096E+02 -0.28018815843E+02 -0.59675785455E+02  0.66690173175E+02  0.00000000000E+00 0.  1.
<mgrwt>
<rscale>  2 0.29772132E+02</rscale>
<asrwt>0</asrwt>
<pdfrwt beam="1">  1       21 0.26481267E-02 0.29772132E+02</pdfrwt>
<pdfrwt beam="2">  1       21 0.12207869E-01 0.29772132E+02</pdfrwt>
<totfact> 0.34369603E+07</totfact>
</mgrwt>
</event>
<event>
 4    1  0.4594485E+006  0.2362241E+02  0.7546771E-02  0.1681615E+00
         21   -1    0    0  504  501  0.00000000000E+00  0.00000000000E+00  0.73983163670E+02  0.73983163670E+02  0.00000000000E+00 0. -1.
         21   -1    0    0  503  502 -0.00000000000E+00 -0.00000000000E+00 -0.23000331398E+02  0.23000331398E+02  0.00000000000E+00 0.  1.
         21    1    1    2  503  501  0.21919726678E+02  0.88058917617E+01  0.65244886374E+02  0.69389576633E+02  0.00000000000E+00 0. -1.
         21    1    1    2  504  502 -0.21919726678E+02 -0.88058917617E+01 -0.14262054102E+02  0.27593918435E+02  0.00000000000E+00 0.  1.
<mgrwt>
<rscale>  2 0.23622408E+02</rscale>
<asrwt>0</asrwt>
<pdfrwt beam="1">  1       21 0.11382025E-01 0.23622408E+02</pdfrwt>
<pdfrwt beam="2">  1       21 0.35385126E-02 0.23622408E+02</pdfrwt>
<totfact> 0.23358457E+07</totfact>
</mgrwt>
</event>
<event>
 4    1  0.4594485E+006  0.2317345E+02  0.7546771E-02  0.1688714E+00
         21   -1    0    0  504  501  0.00000000000E+00  0.00000000000E+00  0.26807535856E+02  0.26807535856E+02  0.00000000000E+00 0.  1.
         21   -1    0    0  503  502 -0.00000000000E+00 -0.00000000000E+00 -0.71406577171E+03  0.71406577171E+03  0.00000000000E+00 0. -1.
         21    1    1    2  503  501 -0.36661451302E+01  0.22881615923E+02 -0.70883279502E+03  0.70921149191E+03  0.00000000000E+00 0. -1.
         21    1    1    2  504  502  0.36661451302E+01 -0.22881615923E+02  0.21574559164E+02  0.31661815654E+02  0.00000000000E+00 0.  1.
<mgrwt>
<rscale>  2 0.23173454E+02</rscale>
<asrwt>0</asrwt>
<pdfrwt beam="1">  1       21 0.41242368E-02 0.23173454E+02</pdfrwt>
<pdfrwt beam="2">  1       21 0.10985626E+00 0.23173454E+02</pdfrwt>
<totfact> 0.25380271E+05</totfact>
</mgrwt>
</event>
<event>
 4    1  0.4594485E+006  0.3011610E+02  0.7546771E-02  0.1596809E+00
         21   -1    0    0  504  501  0.00000000000E+00  0.00000000000E+00  0.89365455391E+02  0.89365455391E+02  0.00000000000E+00 0.  1.
         21   -1    0    0  503  502 -0.00000000000E+00 -0.00000000000E+00 -0.10852108648E+02  0.10852108648E+02  0.00000000000E+00 0.  1.
         21    1    1    2  503  501 -0.16097748040E+01  0.30073044492E+02  0.26502990772E+02  0.40117177117E+02  0.00000000000E+00 0.  1.
         21    1    1    2  504  502  0.16097748040E+01 -0.30073044492E+02  0.52010355971E+02  0.60100386922E+02  0.00000000000E+00 0.  1.
<mgrwt>
<rscale>  2 0.30116098E+02</rscale>
<asrwt>0</asrwt>
<pdfrwt beam="1">  1       21 0.13748531E-01 0.30116098E+02</pdfrwt>
<pdfrwt beam="2">  1       21 0.16695552E-02 0.30116098E+02</pdfrwt>
<totfact> 0.57577418E+07</totfact>
</mgrwt>
</event>
<event>
 4    1  0.4594485E+006  0.2264237E+02  0.7546771E-02  0.1697374E+00
         21   -1    0    0  503  501  0.00000000000E+00  0.00000000000E+00  0.16971978452E+02  0.16971978452E+02  0.00000000000E+00 0.  1.
         21   -1    0    0  504  502 -0.00000000000E+00 -0.00000000000E+00 -0.31715940701E+02  0.31715940701E+02  0.00000000000E+00 0.  1.
         21    1    1    2  503  502 -0.12882553898E+01  0.22605690092E+02 -0.20624977050E+01  0.22736110557E+02  0.00000000000E+00 0.  1.
         21    1    1    2  504  501  0.12882553898E+01 -0.22605690092E+02 -0.12681464544E+02  0.25951808597E+02  0.00000000000E+00 0.  1.
<mgrwt>
<rscale>  2 0.22642368E+02</rscale>
<asrwt>0</asrwt>
<pdfrwt beam="1">  1       21 0.26110736E-02 0.22642368E+02</pdfrwt>
<pdfrwt beam="2">  1       21 0.48793755E-02 0.22642368E+02</pdfrwt>
<totfact> 0.14713306E+08</totfact>
</mgrwt>
</event>
<event>
 4    1  0.4594485E+006  0.2435782E+02  0.7546771E-02  0.1670401E+00
         21   -1    0    0  502  501  0.00000000000E+00  0.00000000000E+00  0.22054199708E+02  0.22054199708E+02  0.00000000000E+00 0.  1.
         21   -1    0    0  504  502 -0.00000000000E+00 -0.00000000000E+00 -0.30501055140E+02  0.30501055140E+02  0.00000000000E+00 0.  1.
         21    1    1    2  503  501  0.16149485252E+02  0.18234518814E+02  0.48030631780E+01  0.24826859773E+02  0.00000000000E+00 0.  1.
         21    1    1    2  504  503 -0.16149485252E+02 -0.18234518814E+02 -0.13249918610E+02  0.27728395075E+02  0.00000000000E+00 0.  1.
<mgrwt>
<rscale>  2 0.24357823E+02</rscale>
<asrwt>0</asrwt>
<pdfrwt beam="1">  1       21 0.33929538E-02 0.24357823E+02</pdfrwt>
<pdfrwt beam="2">  1       21 0.46924700E-02 0.24357823E+02</pdfrwt>
<totfact> 0.10637358E+08</totfact>
</mgrwt>
</event>
<event>
 4    1  0.4594485E+006  0.3045847E+02  0.7546771E-02  0.1593076E+00
         21   -1    0    0  504  501  0.00000000000E+00  0.00000000000E+00  0.12810066995E+03  0.12810066995E+03  0.00000000000E+00 0. -1.
         21   -1    0    0  503  502 -0.00000000000E+00 -0.00000000000E+00 -0.77934612087E+01  0.77934612087E+01  0.00000000000E+00 0. -1.
         21    1    1    2  503  501  0.44778082162E+01 -0.30127518286E+02  0.78226294942E+02  0.83946836420E+02  0.00000000000E+00 0. -1.
         21    1    1    2  504  502 -0.44778082162E+01  0.30127518286E+02  0.42080913794E+02  0.51947294734E+02  0.00000000000E+00 0. -1.
<mgrwt>
<rscale>  2 0.30458466E+02</rscale>
<asrwt>0</asrwt>
<pdfrwt beam="1">  1       21 0.19707794E-01 0.30458466E+02</pdfrwt>
<pdfrwt beam="2">  1       21 0.11989941E-02 0.30458466E+02</pdfrwt>
<totfact> 0.51311092E+07</totfact>
</mgrwt>
</event>
<event>
 4    1  0.4594485E+006  0.3318466E+02  0.7546771E-02  0.1565338E+00
         21   -1    0    0  504  501  0.00000000000E+00  0.00000000000E+00  0.16954970324E+03  0.16954970324E+03  0.00000000000E+00 0.  1.
         21   -1    0    0  503  502 -0.00000000000E+00 -0.00000000000E+00 -0.30899062293E+02  0.30899062293E+02  0.00000000000E+00 0.  1.
         21    1    1    2  503  501  0.23914440100E+02  0.23006987769E+02  0.15839542885E+03  0.16183427886E+03  0.00000000000E+00 0.  1.
         21    1    1    2  504  502 -0.23914440100E+02 -0.23006987769E+02 -0.19744787909E+02  0.38614486673E+02  0.00000000000E+00 0.  1.
<mgrwt>
<rscale>  2 0.33184664E+02</rscale>
<asrwt>0</asrwt>
<pdfrwt beam="1">  1       21 0.26084569E-01 0.33184664E+02</pdfrwt>
<pdfrwt beam="2">  1       21 0.47537020E-02 0.33184664E+02</pdfrwt>
<totfact> 0.36559819E+06</totfact>
</mgrwt>
</event>
<event>
 4    1  0.4594485E+006  0.2146387E+02  0.7546771E-02  0.1717692E+00
         21   -1    0    0  503  501  0.00000000000E+00  0.00000000000E+00  0.25614232893E+02  0.25614232893E+02  0.00000000000E+00 0. -1.
         21   -1    0    0  504  502 -0.00000000000E+00 -0.00000000000E+00 -0.26822040144E+02  0.26822040144E+02  0.00000000000E+00 0.  1.
         21    1    1    2  503  502  0.19750312995E+01 -0.21372813982E+02 -0.15652099542E+02  0.26564753833E+02  0.00000000000E+00 0.  1.
         21    1    1    2  504  501 -0.19750312995E+01  0.21372813982E+02  0.14444292291E+02  0.25871519204E+02  0.00000000000E+00 0. -1.
<mgrwt>
<rscale>  2 0.21463875E+02</rscale>
<asrwt>0</asrwt>
<pdfrwt beam="1">  1       21 0.39406512E-02 0.21463875E+02</pdfrwt>
<pdfrwt beam="2">  1       21 0.41264677E-02 0.21463875E+02</pdfrwt>
<totfact> 0.99361610E+07</totfact>
</mgrwt>
</event>
<event>
 4    1  0.4594485E+006  0.2785114E+02  0.7546771E-02  0.1623133E+00
         21   -1    0    0  502  501  0.00000000000E+00  0.00000000000E+00  0.47614591154E+03  0.47614591154E+03  0.00000000000E+00 0. -1.
         21   -1    0    0  503  502 -0.00000000000E+00 -0.00000000000E+00 -0.22495028135E+01  0.22495028135E+01  0.00000000000E+00 0. -1.
         21    1    1    2  503  504 -0.10831644664E+01  0.27830069778E+02  0.11132987043E+03  0.11476073405E+03  0.00000000000E+00 0. -1.
         21    1    1    2  504  501  0.10831644664E+01 -0.27830069778E+02  0.36256653829E+03  0.36363468030E+03  0.00000000000E+00 0. -1.
<mgrwt>
<rscale>  2 0.27851141E+02</rscale>
<asrwt>0</asrwt>
<pdfrwt beam="1">  1       21 0.73253137E-01 0.27851141E+02</pdfrwt>
<pdfrwt beam="2">  1       21 0.34607773E-03 0.27851141E+02</pdfrwt>
<totfact> 0.26664783E+07</totfact>
</mgrwt>
</event>
<event>
 4    1  0.4594485E+006  0.2075212E+02  0.7546771E-02  0.1730772E+00
         21   -1    0    0  503  501  0.00000000000E+00  0.00000000000E+00  0.21327768520E+03  0.21327768520E+03  0.00000000000E+00 0. -1.
         21   -1    0    0  504  502 -0.00000000000E+00 -0.00000000000E+00 -0.15595670849E+02  0.15595670849E+02  0.00000000000E+00 0. -1.
         21    1    1    2  503  502  0.12006863108E+02 -0.16925884510E+02 -0.79308152768E+01  0.22215943804E+02  0.00000000000E+00 0. -1.
         21    1    1    2  504  501 -0.12006863108E+02  0.16925884510E+02  0.20561282963E+03  0.20665741225E+03  0.00000000000E+00 0. -1.
<mgrwt>
<rscale>  2 0.20752116E+02</rscale>
<asrwt>0</asrwt>
<pdfrwt beam="1">  1       21 0.32811950E-01 0.20752116E+02</pdfrwt>
<pdfrwt beam="2">  1       21 0.23993341E-02 0.20752116E+02</pdfrwt>
<totfact> 0.65863563E+06</totfact>
</mgrwt>
</event>
<event>
 4    1  0.4594485E+006  0.2601398E+02  0.7546771E-02  0.1646851E+00
         21   -1    0    0  502  501  0.00000000000E+00  0.00000000000E+00  0.14017181502E+02  0.14017181502E+02  0.00000000000E+00 0.  1.
         21   -1    0    0  504  502 -0.00000000000E+00 -0.00000000000E+00 -0.16311544584E+03  0.16311544584E+03  0.00000000000E+00 0.  1.
         21    1    1    2  503  501  0.94096724861E+01  0.24252533964E+02 -0.23661061697E+00  0.26015059572E+02  0.00000000000E+00 0.  1.
         21    1    1    2  504  503 -0.94096724861E+01 -0.24252533964E+02 -0.14886165372E+03  0.15111756777E+03  0.00000000000E+00 0.  1.
<mgrwt>
<rscale>  2 0.26013984E+02</rscale>
<asrwt>0</asrwt>
<pdfrwt beam="1">  1       21 0.21564895E-02 0.26013984E+02</pdfrwt>
<pdfrwt beam="2">  1       21 0.25094684E-01 0.26013984E+02</pdfrwt>
<totfact> 0.13145752E+07</totfact>
</mgrwt>
</event>
<event>
 4    1  0.4594485E+006  0.3578942E+02  0.7546771E-02  0.1541700E+00
         21   -1    0    0  504  501  0.00000000000E+00  0.00000000000E+00  0.17464200349E+01  0.17464200349E+01  0.00000000000E+00 0.  1.
         21   -1    0    0  501  502 -0.00000000000E+00 -0.00000000000E+00 -0.20223149133E+04  0.20223149133E+04  0.00000000000E+00 0. -1.
         21    1    1    2  503  502  0.27109371011E+02  0.23365891852E+02 -0.18182180270E+04  0.18185702287E+04  0.00000000000E+00 0. -1.
         21    1    1    2  504  503 -0.27109371011E+02 -0.23365891852E+02 -0.20235046628E+03  0.20549110468E+03  0.00000000000E+00 0.  1.
<mgrwt>
<rscale>  2 0.35789424E+02</rscale>
<asrwt>0</asrwt>
<pdfrwt beam="1">  1       21 0.26868125E-03 0.35789424E+02</pdfrwt>
<pdfrwt beam="2">  1       21 0.31112393E+00 0.35789424E+02</pdfrwt>
<totfact> 0.10071957E+06</totfact>
</mgrwt>
</event>
<event>
 4    1  0.4594485E+006  0.2122130E+02  0.7546771E-02  0.1722078E+00
         21   -1    0    0  502  501  0.00000000000E+00  0.00000000000E+00  0.25282895651E+03  0.25282895651E+03  0.00000000000E+00 0.  1.
         21   -1    0    0  503  502 -0.00000000000E+00 -0.00000000000E+00 -0.18950091178E+01  0.18950091178E+01  0.00000000000E+00 0.  1.
         21    1    1    2  503  504 -0.15797058008E+02  0.14170263529E+02  0.94257321368E+02  0.96616696495E+02  0.00000000000E+00 0.  1.
         21    1    1    2  504  501  0.15797058008E+02 -0.14170263529E+02  0.15667662602E+03  0.15810726913E+03  0.00000000000E+00 0.  1.
<mgrwt>
<rscale>  2 0.21221296E+02</rscale>
<asrwt>0</asrwt>
<pdfrwt beam="1">  1       21 0.38896736E-01 0.21221296E+02</pdfrwt>
<pdfrwt beam="2">  1       21 0.29154007E-03 0.21221296E+02</pdfrwt>
<totfact> 0.11206546E+08</totfact>
</mgrwt>
</event>
<event>
 4    1  0.4594485E+006  0.2429195E+02  0.7546771E-02  0.1671385E+00
         21   -1    0    0  502  501  0.00000000000E+00  0.00000000000E+00  0.69674698024E+01  0.69674698024E+01  0.00000000000E+00 0. -1.
         21   -1    0    0  503  502 -0.00000000000E+00 -0.00000000000E+00 -0.12220790480E+03  0.12220790480E+03  0.00000000000E+00 0. -1.
         21    1    1    2  503  504 -0.12846202977E+02  0.20617315850E+02 -0.93405112428E+02  0.96512246225E+02  0.00000000000E+00 0. -1.
         21    1    1    2  504  501  0.12846202977E+02 -0.20617315850E+02 -0.21835322575E+02  0.32663128382E+02  0.00000000000E+00 0. -1.
<mgrwt>
<rscale>  2 0.24291946E+02</rscale>
<asrwt>0</asrwt>
<pdfrwt beam="1">  1       21 0.10719186E-02 0.24291946E+02</pdfrwt>
<pdfrwt beam="2">  1       21 0.18801213E-01 0.24291946E+02</pdfrwt>
<totfact> 0.62670687E+07</totfact>
</mgrwt>
</event>
<event>
 4    1  0.4594485E+006  0.2076282E+02  0.7546771E-02  0.1730570E+00
         21   -1    0    0  504  501  0.00000000000E+00  0.00000000000E+00  0.37720381647E+02  0.37720381647E+02  0.00000000000E+00 0. -1.
         21   -1    0    0  503  502 -0.00000000000E+00 -0.00000000000E+00 -0.12414439488E+03  0.12414439488E+03  0.00000000000E+00 0.  1.
         21    1    1    2  503  501 -0.20369222193E+02 -0.40236274960E+01  0.33905148809E+02  0.39757438382E+02  0.00000000000E+00 0. -1.
         21    1    1    2  504  502  0.20369222193E+02  0.40236274960E+01 -0.12032916204E+03  0.12210733814E+03  0.00000000000E+00 0.  1.
<mgrwt>
<rscale>  2 0.20762822E+02</rscale>
<asrwt>0</asrwt>
<pdfrwt beam="1">  1       21 0.58031357E-02 0.20762822E+02</pdfrwt>
<pdfrwt beam="2">  1       21 0.19099137E-01 0.20762822E+02</pdfrwt>
<totfact> 0.43224429E+06</totfact>
</mgrwt>
</event>
<event>
 4    1  0.4594485E+006  0.2498524E+02  0.7546771E-02  0.1661214E+00
         21   -1    0    0  504  501  0.00000000000E+00  0.00000000000E+00  0.52518272429E+02  0.52518272429E+02  0.00000000000E+00 0. -1.
         21   -1    0    0  503  502 -0.00000000000E+00 -0.00000000000E+00 -0.89969889904E+02  0.89969889904E+02  0.00000000000E+00 0.  1.
         21    1    1    2  503  501 -0.21732675241E+02 -0.12326926807E+02  0.47645337953E+02  0.53799075515E+02  0.00000000000E+00 0. -1.
         21    1    1    2  504  502  0.21732675241E+02  0.12326926807E+02 -0.85096955428E+02  0.88689086818E+02  0.00000000000E+00 0.  1.
<mgrwt>
<rscale>  2 0.24985242E+02</rscale>
<asrwt>0</asrwt>
<pdfrwt beam="1">  1       21 0.80797343E-02 0.24985242E+02</pdfrwt>
<pdfrwt beam="2">  1       21 0.13841521E-01 0.24985242E+02</pdfrwt>
<totfact> 0.45254474E+06</totfact>
</mgrwt>
</event>
<event>
 4    1  0.4594485E+006  0.2841189E+02  0.7546771E-02  0.1616337E+00
         21   -1    0    0  503  501  0.00000000000E+00  0.00000000000E+00  0.73452073268E+01  0.73452073268E+01  0.00000000000E+00 0. -1.
         21   -1    0    0  504  502 -0.00000000000E+00 -0.00000000000E+00 -0.22394362257E+03  0.22394362257E+03  0.00000000000E+00 0.  1.
         21    1    1    2  503  502  0.93179276314E+01 -0.26840488887E+02 -0.19082534281E+03  0.19292886533E+03  0.00000000000E+00 0.  1.
         21    1    1    2  504  501 -0.93179276314E+01  0.26840488887E+02 -0.25773072440E+02  0.38359964573E+02  0.00000000000E+00 0. -1.
<mgrwt>
<rscale>  2 0.28411892E+02</rscale>
<asrwt>0</asrwt>
<pdfrwt beam="1">  1       21 0.11300321E-02 0.28411892E+02</pdfrwt>
<pdfrwt beam="2">  1       21 0.34452859E-01 0.28411892E+02</pdfrwt>
<totfact> 0.20137396E+07</totfact>
</mgrwt>
</event>
<event>
 4    1  0.4594485E+006  0.2045029E+02  0.7546771E-02  0.1736519E+00
         21   -1    0    0  502  501  0.00000000000E+00  0.00000000000E+00  0.67097166702E+02  0.67097166702E+02  0.00000000000E+00 0. -1.
         21   -1    0    0  504  502 -0.00000000000E+00 -0.00000000000E+00 -0.19177705870E+02  0.19177705870E+02  0.00000000000E+00 0.  1.
         21    1    1    2  503  501  0.23296763275E+00  0.20448966700E+02  0.59400458006E+02  0.62822200887E+02  0.00000000000E+00 0. -1.
         21    1    1    2  504  503 -0.23296763275E+00 -0.20448966700E+02 -0.11480997174E+02  0.23452671684E+02  0.00000000000E+00 0.  1.
<mgrwt>
<rscale>  2 0.20450294E+02</rscale>
<asrwt>0</asrwt>
<pdfrwt beam="1">  1       21 0.10322641E-01 0.20450294E+02</pdfrwt>
<pdfrwt beam="2">  1       21 0.29504163E-02 0.20450294E+02</pdfrwt>
<totfact> 0.35232993E+07</totfact>
</mgrwt>
</event>
<event>
 4    1  0.4594485E+006  0.2288255E+02  0.7546771E-02  0.1693421E+00
         21   -1    0    0  502  501  0.00000000000E+00  0.00000000000E+00  0.71978475158E+03  0.71978475158E+03  0.00000000000E+00 0. -1.
         21   -1    0    0  503  502 -0.00000000000E+00 -0.00000000000E+00 -0.39531476359E+01  0.39531476359E+01  0.00000000000E+00 0. -1.
         21    1    1    2  503  504 -0.22853695806E+02  0.11488694145E+01  0.31033606310E+02  0.38557697462E+02  0.00000000000E+00 0. -1.
         21    1    1    2  504  501  0.22853695806E+02 -0.11488694145E+01  0.68479799763E+03  0.68518020175E+03  0.00000000000E+00 0. -1.
<mgrwt>
<rscale>  2 0.22882555E+02</rscale>
<asrwt>0</asrwt>
<pdfrwt beam="1">  1       21 0.11073601E+00 0.22882555E+02</pdfrwt>
<pdfrwt beam="2">  1       21 0.60817713E-03 0.22882555E+02</pdfrwt>
<totfact> 0.46153151E+06</totfact>
</mgrwt>
</event>
<event>
 4    1  0.4594485E+006  0.5403296E+02  0.7546771E-02  0.1424728E+00
         21   -1    0    0  504  501  0.00000000000E+00  0.00000000000E+00  0.15815333991E+03  0.15815333991E+03  0.00000000000E+00 0. -1.
         21   -1    0    0  501  502 -0.00000000000E+00 -0.00000000000E+00 -0.77508697544E+02  0.77508697544E+02  0.00000000000E+00 0.  1.
         21    1    1    2  503  502 -0.38635851541E+01 -0.53894656561E+02 -0.62523913602E+02  0.82636560119E+02  0.00000000000E+00 0.  1.
         21    1    1    2  504  503  0.38635851541E+01  0.53894656561E+02  0.14316855597E+03  0.15302547734E+03  0.00000000000E+00 0. -1.
<mgrwt>
<rscale>  2 0.54032965E+02</rscale>
<asrwt>0</asrwt>
<pdfrwt beam="1">  1       21 0.24331283E-01 0.54032965E+02</pdfrwt>
<pdfrwt beam="2">  1       21 0.11924415E-01 0.54032965E+02</pdfrwt>
<totfact> 0.93102561E+05</totfact>
</mgrwt>
</event>
<event>
 4    1  0.4594485E+006  0.3107510E+02  0.7546771E-02  0.1586500E+00
         21   -1    0    0  503  501  0.00000000000E+00  0.00000000000E+00  0.31677889416E+03  0.31677889416E+03  0.00000000000E+00 0. -1.
         21   -1    0    0  501  502 -0.00000000000E+00 -0.00000000000E+00 -0.40677397592E+01  0.40677397592E+01  0.00000000000E+00 0. -1.
         21    1    1    2  503  504  0.25584486130E+02 -0.17637905266E+02  0.23666290970E+03  0.23869435365E+03  0.00000000000E+00 0. -1.
         21    1    1    2  504  502 -0.25584486130E+02  0.17637905266E+02  0.76048244696E+02  0.82152280273E+02  0.00000000000E+00 0. -1.
<mgrwt>
<rscale>  2 0.31075097E+02</rscale>
<asrwt>0</asrwt>
<pdfrwt beam="1">  1       21 0.48735195E-01 0.31075097E+02</pdfrwt>
<pdfrwt beam="2">  1       21 0.62580636E-03 0.31075097E+02</pdfrwt>
<totfact> 0.25711537E+07</totfact>
</mgrwt>
</event>
<event>
 4    1  0.4594485E+006  0.2346656E+02  0.7546771E-02  0.1684057E+00
         21   -1    0    0  502  501  0.00000000000E+00  0.00000000000E+00  0.83304642914E+03  0.83304642914E+03  0.00000000000E+00 0.  1.
         21   -1    0    0  504  502 -0.00000000000E+00 -0.00000000000E+00 -0.81710663368E+00  0.81710663368E+00  0.00000000000E+00 0.  1.
         21    1    1    2  503  501 -0.18786181154E+02 -0.14062682134E+02  0.59832636754E+03  0.59878637404E+03  0.00000000000E+00 0.  1.
         21    1    1    2  504  503  0.18786181154E+02  0.14062682134E+02  0.23390295496E+03  0.23507716174E+03  0.00000000000E+00 0.  1.
<mgrwt>
<rscale>  2 0.23466564E+02</rscale>
<asrwt>0</asrwt>
<pdfrwt beam="1">  1       21 0.12816031E+00 0.23466564E+02</pdfrwt>
<pdfrwt beam="2">  1       21 0.12570938E-03 0.23466564E+02</pdfrwt>
<totfact> 0.33020481E+07</totfact>
</mgrwt>
</event>
<event>
 4    1  0.4594485E+006  0.3598058E+02  0.7546771E-02  0.1540061E+00
         21   -1    0    0  504  501  0.00000000000E+00  0.00000000000E+00  0.69851566602E+01  0.69851566602E+01  0.00000000000E+00 0. -1.
         21   -1    0    0  501  502 -0.00000000000E+00 -0.00000000000E+00 -0.22193364556E+03  0.22193364556E+03  0.00000000000E+00 0. -1.
         21    1    1    2  503  502  0.56342097099E+01  0.35536713277E+02 -0.15395416235E+03  0.15810277168E+03  0.00000000000E+00 0. -1.
         21    1    1    2  504  503 -0.56342097099E+01 -0.35536713277E+02 -0.60994326553E+02  0.70816030539E+02  0.00000000000E+00 0. -1.
<mgrwt>
<rscale>  2 0.35980582E+02</rscale>
<asrwt>0</asrwt>
<pdfrwt beam="1">  1       21 0.10746397E-02 0.35980582E+02</pdfrwt>
<pdfrwt beam="2">  1       21 0.34143632E-01 0.35980582E+02</pdfrwt>
<totfact> 0.23042138E+07</totfact>
</mgrwt>
</event>
<event>
 4    1  0.4594485E+006  0.2488904E+02  0.7546771E-02  0.1662601E+00
         21   -1    0    0  503  501  0.00000000000E+00  0.00000000000E+00  0.31720451738E+02  0.31720451738E+02  0.00000000000E+00 0.  1.
         21   -1    0    0  504  502 -0.00000000000E+00 -0.00000000000E+00 -0.30923488639E+02  0.30923488639E+02  0.00000000000E+00 0.  1.
         21    1    1    2  503  502  0.23734448792E+02 -0.74926865957E+01 -0.18614701424E+02  0.31080082384E+02  0.00000000000E+00 0.  1.
         21    1    1    2  504  501 -0.23734448792E+02  0.74926865957E+01  0.19411664523E+02  0.31563857993E+02  0.00000000000E+00 0.  1.
<mgrwt>
<rscale>  2 0.24889042E+02</rscale>
<asrwt>0</asrwt>
<pdfrwt beam="1">  1       21 0.48800695E-02 0.24889042E+02</pdfrwt>
<pdfrwt beam="2">  1       21 0.47574598E-02 0.24889042E+02</pdfrwt>
<totfact> 0.58903825E+07</totfact>
</mgrwt>
</event>
<event>
 4    1  0.4594485E+006  0.2719775E+02  0.7546771E-02  0.1631304E+00
         21   -1    0    0  502  501  0.00000000000E+00  0.00000000000E+00  0.10519085011E+04  0.10519085011E+04  0.00000000000E+00 0. -1.
         21   -1    0    0  504  502 -0.00000000000E+00 -0.00000000000E+00 -0.70373924715E+00  0.70373924715E+00  0.00000000000E+00 0. -1.
         21    1    1    2  503  501 -0.22643105636E+02  0.15066765094E+02  0.51123502982E+03  0.51195798007E+03  0.00000000000E+00 0. -1.
         21    1    1    2  504  503  0.22643105636E+02 -0.15066765094E+02  0.53996973204E+03  0.54065426028E+03  0.00000000000E+00 0. -1.
<mgrwt>
<rscale>  2 0.27197751E+02</rscale>
<asrwt>0</asrwt>
<pdfrwt beam="1">  1       21 0.16183082E+00 0.27197751E+02</pdfrwt>
<pdfrwt beam="2">  1       21 0.10826842E-03 0.27197751E+02</pdfrwt>
<totfact> 0.24160717E+07</totfact>
</mgrwt>
</event>
<event>
 4    1  0.4594485E+006  0.2662903E+02  0.7546771E-02  0.1638649E+00
         21   -1    0    0  503  501  0.00000000000E+00  0.00000000000E+00  0.22920769427E+02  0.22920769427E+02  0.00000000000E+00 0. -1.
         21   -1    0    0  504  502 -0.00000000000E+00 -0.00000000000E+00 -0.31490088052E+02  0.31490088052E+02  0.00000000000E+00 0. -1.
         21    1    1    2  503  502  0.47786106639E+01 -0.26196759693E+02 -0.67993845485E+00  0.26637711137E+02  0.00000000000E+00 0. -1.
         21    1    1    2  504  501 -0.47786106639E+01  0.26196759693E+02 -0.78893801701E+01  0.27773146343E+02  0.00000000000E+00 0. -1.
<mgrwt>
<rscale>  2 0.26629032E+02</rscale>
<asrwt>0</asrwt>
<pdfrwt beam="1">  1       21 0.35262723E-02 0.26629032E+02</pdfrwt>
<pdfrwt beam="2">  1       21 0.48446289E-02 0.26629032E+02</pdfrwt>
<totfact> 0.97438487E+07</totfact>
</mgrwt>
</event>
<event>
 4    1  0.4594485E+006  0.4140835E+02  0.7546771E-02  0.1498096E+00
         21   -1    0    0  503  501  0.00000000000E+00  0.00000000000E+00  0.29828336380E+02  0.29828336380E+02  0.00000000000E+00 0. -1.
         21   -1    0    0  504  502 -0.00000000000E+00 -0.00000000000E+00 -0.68214242027E+02  0.68214242027E+02  0.00000000000E+00 0. -1.
         21    1    1    2  503  502  0.41272683921E+02  0.33491449413E+01 -0.38635472835E+02  0.56633479242E+02  0.00000000000E+00 0. -1.
         21    1    1    2  504  501 -0.41272683921E+02 -0.33491449413E+01  0.24956718788E+00  0.41409099165E+02  0.00000000000E+00 0. -1.
<mgrwt>
<rscale>  2 0.41408347E+02</rscale>
<asrwt>0</asrwt>
<pdfrwt beam="1">  1       21 0.45889749E-02 0.41408347E+02</pdfrwt>
<pdfrwt beam="2">  1       21 0.10494499E-01 0.41408347E+02</pdfrwt>
<totfact> 0.19656312E+07</totfact>
</mgrwt>
</event>
<event>
 4    1  0.4594485E+006  0.2985969E+02  0.7546771E-02  0.1599645E+00
         21   -1    0    0  504  501  0.00000000000E+00  0.00000000000E+00  0.87274345679E+02  0.87274345679E+02  0.00000000000E+00 0.  1.
         21   -1    0    0  503  502 -0.00000000000E+00 -0.00000000000E+00 -0.28334174543E+03  0.28334174543E+03  0.00000000000E+00 0.  1.
         21    1    1    2  503  501  0.24613576358E+02  0.16904824723E+02  0.83902975140E+02  0.89057905193E+02  0.00000000000E+00 0.  1.
         21    1    1    2  504  502 -0.24613576358E+02 -0.16904824723E+02 -0.27997037489E+03  0.28155818591E+03  0.00000000000E+00 0.  1.
<mgrwt>
<rscale>  2 0.29859693E+02</rscale>
<asrwt>0</asrwt>
<pdfrwt beam="1">  1       21 0.13426822E-01 0.29859693E+02</pdfrwt>
<pdfrwt beam="2">  1       21 0.43591038E-01 0.29859693E+02</pdfrwt>
<totfact> 0.24960501E+05</totfact>
</mgrwt>
</event>
<event>
 4    1  0.4594485E+006  0.2495653E+02  0.7546771E-02  0.1661627E+00
         21   -1    0    0  503  501  0.00000000000E+00  0.00000000000E+00  0.13109620055E+02  0.13109620055E+02  0.00000000000E+00 0. -1.
         21   -1    0    0  504  502 -0.00000000000E+00 -0.00000000000E+00 -0.12105143751E+03  0.12105143751E+03  0.00000000000E+00 0. -1.
         21    1    1    2  503  502  0.50148957922E+00  0.24951493909E+02 -0.16855970928E+01  0.25013391966E+02  0.00000000000E+00 0. -1.
         21    1    1    2  504  501 -0.50148957922E+00 -0.24951493909E+02 -0.10625622036E+03  0.10914766559E+03  0.00000000000E+00 0. -1.
<mgrwt>
<rscale>  2 0.24956533E+02</rscale>
<asrwt>0</asrwt>
<pdfrwt beam="1">  1       21 0.20168645E-02 0.24956533E+02</pdfrwt>
<pdfrwt beam="2">  1       21 0.18623299E-01 0.24956533E+02</pdfrwt>
<totfact> 0.24480356E+07</totfact>
</mgrwt>
</event>
<event>
 4    1  0.4594485E+006  0.2593182E+02  0.7546771E-02  0.1647968E+00
         21   -1    0    0  504  501  0.00000000000E+00  0.00000000000E+00  0.87946436229E+01  0.87946436229E+01  0.00000000000E+00 0.  1.
         21   -1    0    0  501  502 -0.00000000000E+00 -0.00000000000E+00 -0.91050847753E+02  0.91050847753E+02  0.00000000000E+00 0.  1.
         21    1    1    2  503  502 -0.19377825457E+02  0.17232507214E+02 -0.61111127238E+02  0.66385459979E+02  0.00000000000E+00 0.  1.
         21    1    1    2  504  503  0.19377825457E+02 -0.17232507214E+02 -0.21145076892E+02  0.33460031397E+02  0.00000000000E+00 0.  1.
<mgrwt>
<rscale>  2 0.25931823E+02</rscale>
<asrwt>0</asrwt>
<pdfrwt beam="1">  1       21 0.13530221E-02 0.25931823E+02</pdfrwt>
<pdfrwt beam="2">  1       21 0.14007822E-01 0.25931823E+02</pdfrwt>
<totfact> 0.74249569E+07</totfact>
</mgrwt>
</event>
<event>
 4    1  0.4594485E+006  0.4204466E+02  0.7546771E-02  0.1493682E+00
         21   -1    0    0  503  501  0.00000000000E+00  0.00000000000E+00  0.55811687801E+03  0.55811687801E+03  0.00000000000E+00 0. -1.
         21   -1    0    0  501  502 -0.00000000000E+00 -0.00000000000E+00 -0.48499387797E+03  0.48499387797E+03  0.00000000000E+00 0.  1.
         21    1    1    2  503  504 -0.41741875489E+02  0.50368098712E+01  0.55641102518E+03  0.55799729620E+03  0.00000000000E+00 0. -1.
         21    1    1    2  504  502  0.41741875489E+02 -0.50368098712E+01 -0.48328802514E+03  0.48511345979E+03  0.00000000000E+00 0.  1.
<mgrwt>
<rscale>  2 0.42044662E+02</rscale>
<asrwt>0</asrwt>
<pdfrwt beam="1">  1       21 0.85864135E-01 0.42044662E+02</pdfrwt>
<pdfrwt beam="2">  1       21 0.74614443E-01 0.42044662E+02</pdfrwt>
<totfact> 0.24210494E+03</totfact>
</mgrwt>
</event>
<event>
 4    1  0.4594485E+006  0.2149038E+02  0.7546771E-02  0.1717218E+00
         21   -1    0    0  502  501  0.00000000000E+00  0.00000000000E+00  0.59536607375E+01  0.59536607375E+01  0.00000000000E+00 0.  1.
         21   -1    0    0  504  502 -0.00000000000E+00 -0.00000000000E+00 -0.12067045373E+03  0.12067045373E+03  0.00000000000E+00 0. -1.
         21    1    1    2  503  501  0.14795992741E+02  0.15585733039E+02 -0.19521321595E+02  0.29033058267E+02  0.00000000000E+00 0.  1.
         21    1    1    2  504  503 -0.14795992741E+02 -0.15585733039E+02 -0.95195471396E+02  0.97591056198E+02  0.00000000000E+00 0. -1.
<mgrwt>
<rscale>  2 0.21490381E+02</rscale>
<asrwt>0</asrwt>
<pdfrwt beam="1">  1       21 0.91594774E-03 0.21490381E+02</pdfrwt>
<pdfrwt beam="2">  1       21 0.18564687E-01 0.21490381E+02</pdfrwt>
<totfact> 0.78520605E+07</totfact>
</mgrwt>
</event>
<event>
 4    1  0.4594485E+006  0.2854771E+02  0.7546771E-02  0.1614720E+00
         21   -1    0    0  504  501  0.00000000000E+00  0.00000000000E+00  0.24290343859E+02  0.24290343859E+02  0.00000000000E+00 0. -1.
         21   -1    0    0  501  502 -0.00000000000E+00 -0.00000000000E+00 -0.43473639878E+02  0.43473639878E+02  0.00000000000E+00 0.  1.
         21    1    1    2  503  502 -0.12036623887E+02  0.25886127984E+02 -0.25778544590E+02  0.38464338000E+02  0.00000000000E+00 0.  1.
         21    1    1    2  504  503  0.12036623887E+02 -0.25886127984E+02  0.65952485714E+01  0.29299645737E+02  0.00000000000E+00 0. -1.
<mgrwt>
<rscale>  2 0.28547713E+02</rscale>
<asrwt>0</asrwt>
<pdfrwt beam="1">  1       21 0.37369761E-02 0.28547713E+02</pdfrwt>
<pdfrwt beam="2">  1       21 0.66882522E-02 0.28547713E+02</pdfrwt>
<totfact> 0.53760530E+07</totfact>
</mgrwt>
</event>
<event>
 4    1  0.4594485E+006  0.3520234E+02  0.7546771E-02  0.1546811E+00
         21   -1    0    0  504  501  0.00000000000E+00  0.00000000000E+00  0.46588448561E+02  0.46588448561E+02  0.00000000000E+00 0. -1.
         21   -1    0    0  503  502 -0.00000000000E+00 -0.00000000000E+00 -0.28087458422E+02  0.28087458422E+02  0.00000000000E+00 0. -1.
         21    1    1    2  503  501  0.18010399580E+02  0.30246157077E+02  0.65506216873E+00  0.35208431055E+02  0.00000000000E+00 0. -1.
         21    1    1    2  504  502 -0.18010399580E+02 -0.30246157077E+02  0.17845927971E+02  0.39467475927E+02  0.00000000000E+00 0. -1.
<mgrwt>
<rscale>  2 0.35202337E+02</rscale>
<asrwt>0</asrwt>
<pdfrwt beam="1">  1       21 0.71674536E-02 0.35202337E+02</pdfrwt>
<pdfrwt beam="2">  1       21 0.43211475E-02 0.35202337E+02</pdfrwt>
<totfact> 0.39819728E+07</totfact>
</mgrwt>
</event>
<event>
 4    1  0.4594485E+006  0.2045553E+02  0.7546771E-02  0.1736418E+00
         21   -1    0    0  503  501  0.00000000000E+00  0.00000000000E+00  0.35935588087E+01  0.35935588087E+01  0.00000000000E+00 0.  1.
         21   -1    0    0  504  502 -0.00000000000E+00 -0.00000000000E+00 -0.11925342273E+03  0.11925342273E+03  0.00000000000E+00 0.  1.
         21    1    1    2  503  502 -0.12732814427E+02 -0.16009505582E+02 -0.67266786585E+02  0.70308245673E+02  0.00000000000E+00 0.  1.
         21    1    1    2  504  501  0.12732814427E+02  0.16009505582E+02 -0.48393077336E+02  0.52538735865E+02  0.00000000000E+00 0.  1.
<mgrwt>
<rscale>  2 0.20455533E+02</rscale>
<asrwt>0</asrwt>
<pdfrwt beam="1">  1       21 0.55285521E-03 0.20455533E+02</pdfrwt>
<pdfrwt beam="2">  1       21 0.18346680E-01 0.20455533E+02</pdfrwt>
<totfact> 0.16706374E+08</totfact>
</mgrwt>
</event>
<event>
 4    1  0.4594485E+006  0.2849256E+02  0.7546771E-02  0.1615375E+00
         21   -1    0    0  503  501  0.00000000000E+00  0.00000000000E+00  0.58732669169E+02  0.58732669169E+02  0.00000000000E+00 0. -1.
         21   -1    0    0  501  502 -0.00000000000E+00 -0.00000000000E+00 -0.68058574336E+02  0.68058574336E+02  0.00000000000E+00 0. -1.
         21    1    1    2  503  504  0.15028996902E+02 -0.24206516959E+02  0.51930003808E+02  0.59233027161E+02  0.00000000000E+00 0. -1.
         21    1    1    2  504  502 -0.15028996902E+02  0.24206516959E+02 -0.61255908975E+02  0.67558216344E+02  0.00000000000E+00 0. -1.
<mgrwt>
<rscale>  2 0.28492564E+02</rscale>
<asrwt>0</asrwt>
<pdfrwt beam="1">  1       21 0.90357953E-02 0.28492564E+02</pdfrwt>
<pdfrwt beam="2">  1       21 0.10470550E-01 0.28492564E+02</pdfrwt>
<totfact> 0.61439733E+06</totfact>
</mgrwt>
</event>
<event>
 4    1  0.4594485E+006  0.2237648E+02  0.7546771E-02  0.1701821E+00
         21   -1    0    0  503  501  0.00000000000E+00  0.00000000000E+00  0.22294163428E+03  0.22294163428E+03  0.00000000000E+00 0.  1.
         21   -1    0    0  501  502 -0.00000000000E+00 -0.00000000000E+00 -0.30626405802E+01  0.30626405802E+01  0.00000000000E+00 0. -1.
         21    1    1    2  503  504 -0.17874055688E+02 -0.13461976446E+02  0.16829452087E+03  0.16977559433E+03  0.00000000000E+00 0.  1.
         21    1    1    2  504  502  0.17874055688E+02  0.13461976446E+02  0.51584472827E+02  0.56228680523E+02  0.00000000000E+00 0. -1.
<mgrwt>
<rscale>  2 0.22376476E+02</rscale>
<asrwt>0</asrwt>
<pdfrwt beam="1">  1       21 0.34298700E-01 0.22376476E+02</pdfrwt>
<pdfrwt beam="2">  1       21 0.47117565E-03 0.22376476E+02</pdfrwt>
<totfact> 0.71181325E+07</totfact>
</mgrwt>
</event>
<event>
 4    1  0.4594485E+006  0.2090271E+02  0.7546771E-02  0.1727950E+00
         21   -1    0    0  504  501  0.00000000000E+00  0.00000000000E+00  0.53383162539E+02  0.53383162539E+02  0.00000000000E+00 0. -1.
         21   -1    0    0  503  502 -0.00000000000E+00 -0.00000000000E+00 -0.85469567496E+01  0.85469567496E+01  0.00000000000E+00 0. -1.
         21    1    1    2  503  501  0.28770848378E+01 -0.20703754923E+02  0.28793361784E+02  0.35580623490E+02  0.00000000000E+00 0. -1.
         21    1    1    2  504  502 -0.28770848378E+01  0.20703754923E+02  0.16042844005E+02  0.26349495799E+02  0.00000000000E+00 0. -1.
<mgrwt>
<rscale>  2 0.20902705E+02</rscale>
<asrwt>0</asrwt>
<pdfrwt beam="1">  1       21 0.82127941E-02 0.20902705E+02</pdfrwt>
<pdfrwt beam="2">  1       21 0.13149164E-02 0.20902705E+02</pdfrwt>
<totfact> 0.17724313E+08</totfact>
</mgrwt>
</event>
<event>
 4    1  0.4594485E+006  0.2147339E+02  0.7546771E-02  0.1717522E+00
         21   -1    0    0  504  501  0.00000000000E+00  0.00000000000E+00  0.15839980351E+01  0.15839980351E+01  0.00000000000E+00 0.  1.
         21   -1    0    0  503  502 -0.00000000000E+00 -0.00000000000E+00 -0.39246057743E+03  0.39246057743E+03  0.00000000000E+00 0. -1.
         21    1    1    2  503  501  0.50339697828E+01 -0.20874998116E+02 -0.95312559747E+02  0.97701537571E+02  0.00000000000E+00 0.  1.
         21    1    1    2  504  502 -0.50339697828E+01  0.20874998116E+02 -0.29556401965E+03  0.29634303789E+03  0.00000000000E+00 0. -1.
<mgrwt>
<rscale>  2 0.21473388E+02</rscale>
<asrwt>0</asrwt>
<pdfrwt beam="1">  1       21 0.24369212E-03 0.21473388E+02</pdfrwt>
<pdfrwt beam="2">  1       21 0.60378522E-01 0.21473388E+02</pdfrwt>
<totfact> 0.62387864E+07</totfact>
</mgrwt>
</event>
<event>
 4    1  0.4594485E+006  0.2184895E+02  0.7546771E-02  0.1710878E+00
         21   -1    0    0  503  501  0.00000000000E+00  0.00000000000E+00  0.95096184150E+00  0.95096184150E+00  0.00000000000E+00 0.  1.
         21   -1    0    0  501  502 -0.00000000000E+00 -0.00000000000E+00 -0.61938071651E+03  0.61938071651E+03  0.00000000000E+00 0.  1.
         21    1    1    2  503  504 -0.16167888813E+02 -0.14696116340E+02 -0.17418623109E+03  0.17555118788E+03  0.00000000000E+00 0.  1.
         21    1    1    2  504  502  0.16167888813E+02  0.14696116340E+02 -0.44424352358E+03  0.44478049047E+03  0.00000000000E+00 0.  1.
<mgrwt>
<rscale>  2 0.21848947E+02</rscale>
<asrwt>0</asrwt>
<pdfrwt beam="1">  1       21 0.14630182E-03 0.21848947E+02</pdfrwt>
<pdfrwt beam="2">  1       21 0.95289342E-01 0.21848947E+02</pdfrwt>
<totfact> 0.50675537E+07</totfact>
</mgrwt>
</event>
<event>
 4    1  0.4594485E+006  0.3293345E+02  0.7546771E-02  0.1567757E+00
         21   -1    0    0  504  501  0.00000000000E+00  0.00000000000E+00  0.91063109932E+03  0.91063109932E+03  0.00000000000E+00 0.  1.
         21   -1    0    0  501  502 -0.00000000000E+00 -0.00000000000E+00 -0.43841520357E+01  0.43841520357E+01  0.00000000000E+00 0.  1.
         21    1    1    2  503  502 -0.25149098043E+02  0.21263469876E+02  0.62676958885E+02  0.70802637371E+02  0.00000000000E+00 0.  1.
         21    1    1    2  504  503  0.25149098043E+02 -0.21263469876E+02  0.84356998839E+03  0.84421261398E+03  0.00000000000E+00 0.  1.
<mgrwt>
<rscale>  2 0.32933452E+02</rscale>
<asrwt>0</asrwt>
<pdfrwt beam="1">  1       21 0.14009694E+00 0.32933452E+02</pdfrwt>
<pdfrwt beam="2">  1       21 0.67448565E-03 0.32933452E+02</pdfrwt>
<totfact> 0.23885500E+06</totfact>
</mgrwt>
</event>
<event>
 4    1  0.4594485E+006  0.2415758E+02  0.7546771E-02  0.1673405E+00
         21   -1    0    0  503  501  0.00000000000E+00  0.00000000000E+00  0.39748314822E+00  0.39748314822E+00  0.00000000000E+00 0.  1.
         21   -1    0    0  504  502 -0.00000000000E+00 -0.00000000000E+00 -0.20704212797E+04  0.20704212797E+04  0.00000000000E+00 0. -1.
         21    1    1    2  503  502 -0.19680164198E+02  0.14009998039E+02 -0.47659697171E+03  0.47720882468E+03  0.00000000000E+00 0.  1.
         21    1    1    2  504  501  0.19680164198E+02 -0.14009998039E+02 -0.15934268249E+04  0.15936099382E+04  0.00000000000E+00 0. -1.
<mgrwt>
<rscale>  2 0.24157585E+02</rscale>
<asrwt>0</asrwt>
<pdfrwt beam="1">  1       21 0.61151648E-04 0.24157585E+02</pdfrwt>
<pdfrwt beam="2">  1       21 0.31852429E+00 0.24157585E+02</pdfrwt>
<totfact> 0.79400682E+06</totfact>
</mgrwt>
</event>
<event>
 4    1  0.4594485E+006  0.2028252E+02  0.7546771E-02  0.1739767E+00
         21   -1    0    0  503  501  0.00000000000E+00  0.00000000000E+00  0.16267282833E+03  0.16267282833E+03  0.00000000000E+00 0. -1.
         21   -1    0    0  504  502 -0.00000000000E+00 -0.00000000000E+00 -0.30304750200E+03  0.30304750200E+03  0.00000000000E+00 0.  1.
         21    1    1    2  503  502  0.20168357902E+02  0.21489526284E+01 -0.30207387586E+03  0.30275403736E+03  0.00000000000E+00 0.  1.
         21    1    1    2  504  501 -0.20168357902E+02 -0.21489526284E+01  0.16169920219E+03  0.16296629297E+03  0.00000000000E+00 0. -1.
<mgrwt>
<rscale>  2 0.20282521E+02</rscale>
<asrwt>0</asrwt>
<pdfrwt beam="1">  1       21 0.25026589E-01 0.20282521E+02</pdfrwt>
<pdfrwt beam="2">  1       21 0.46622692E-01 0.20282521E+02</pdfrwt>
<totfact> 0.74206946E+04</totfact>
</mgrwt>
</event>
<event>
 4    1  0.4594485E+006  0.2525502E+02  0.7546771E-02  0.1657366E+00
         21   -1    0    0  502  501  0.00000000000E+00  0.00000000000E+00  0.96658017303E+02  0.96658017303E+02  0.00000000000E+00 0.  1.
         21   -1    0    0  504  502 -0.00000000000E+00 -0.00000000000E+00 -0.75902604601E+01  0.75902604601E+01  0.00000000000E+00 0.  1.
         21    1    1    2  503  501 -0.58484655125E+01 -0.24568501485E+02  0.63373554313E+02  0.68220401643E+02  0.00000000000E+00 0.  1.
         21    1    1    2  504  503  0.58484655125E+01  0.24568501485E+02  0.25694202530E+02  0.36027876120E+02  0.00000000000E+00 0.  1.
<mgrwt>
<rscale>  2 0.25255016E+02</rscale>
<asrwt>0</asrwt>
<pdfrwt beam="1">  1       21 0.14870463E-01 0.25255016E+02</pdfrwt>
<pdfrwt beam="2">  1       21 0.11677324E-02 0.25255016E+02</pdfrwt>
<totfact> 0.83296827E+07</totfact>
</mgrwt>
</event>
<event>
 4    1  0.4594485E+006  0.2483795E+02  0.7546771E-02  0.1663340E+00
         21   -1    0    0  503  501  0.00000000000E+00  0.00000000000E+00  0.21842459022E+03  0.21842459022E+03  0.00000000000E+00 0. -1.
         21   -1    0    0  501  502 -0.00000000000E+00 -0.00000000000E+00 -0.58237043459E+01  0.58237043459E+01  0.00000000000E+00 0. -1.
         21    1    1    2  503  504  0.19868032247E+02  0.14905869878E+02  0.18676562942E+03  0.18840998911E+03  0.00000000000E+00 0. -1.
         21    1    1    2  504  502 -0.19868032247E+02 -0.14905869878E+02  0.25835256453E+02  0.35838305459E+02  0.00000000000E+00 0. -1.
<mgrwt>
<rscale>  2 0.24837948E+02</rscale>
<asrwt>0</asrwt>
<pdfrwt beam="1">  1       21 0.33603777E-01 0.24837948E+02</pdfrwt>
<pdfrwt beam="2">  1       21 0.89595468E-03 0.24837948E+02</pdfrwt>
<totfact> 0.29158568E+07</totfact>
</mgrwt>
</event>
<event>
 4    1  0.4594485E+006  0.2031483E+02  0.7546771E-02  0.1739139E+00
         21   -1    0    0  504  501  0.00000000000E+00  0.00000000000E+00  0.36888861087E+03  0.36888861087E+03  0.00000000000E+00 0. -1.
         21   -1    0    0  501  502 -0.00000000000E+00 -0.00000000000E+00 -0.11929092464E+01  0.11929092464E+01  0.00000000000E+00 0. -1.
         21    1    1    2  503  502  0.18677225122E+02 -0.79908320238E+01  0.13770948375E+03  0.13919983495E+03  0.00000000000E+00 0. -1.
         21    1    1    2  504  503 -0.18677225122E+02  0.79908320238E+01  0.22998621787E+03  0.23088168516E+03  0.00000000000E+00 0. -1.
<mgrwt>
<rscale>  2 0.20314825E+02</rscale>
<asrwt>0</asrwt>
<pdfrwt beam="1">  1       21 0.56752003E-01 0.20314825E+02</pdfrwt>
<pdfrwt beam="2">  1       21 0.18352479E-03 0.20314825E+02</pdfrwt>
<totfact> 0.10463065E+08</totfact>
</mgrwt>
</event>
<event>
 4    1  0.4594485E+006  0.9691212E+02  0.7546771E-02  0.1286927E+00
         21   -1    0    0  502  501  0.00000000000E+00  0.00000000000E+00  0.11675987160E+03  0.11675987160E+03  0.00000000000E+00 0. -1.
         21   -1    0    0  503  502 -0.00000000000E+00 -0.00000000000E+00 -0.87777405499E+02  0.87777405499E+02  0.00000000000E+00 0. -1.
         21    1    1    2  503  504 -0.82217222725E+02  0.51305817003E+02 -0.15080341265E+02  0.98078413851E+02  0.00000000000E+00 0. -1.
         21    1    1    2  504  501  0.82217222725E+02 -0.51305817003E+02  0.44062807364E+02  0.10645886325E+03  0.00000000000E+00 0. -1.
<mgrwt>
<rscale>  2 0.96912118E+02</rscale>
<asrwt>0</asrwt>
<pdfrwt beam="1">  1       21 0.17963057E-01 0.96912118E+02</pdfrwt>
<pdfrwt beam="2">  1       21 0.13504216E-01 0.96912118E+02</pdfrwt>
<totfact> 0.13269964E+06</totfact>
</mgrwt>
</event>
<event>
 4    1  0.4594485E+006  0.2010829E+02  0.7546771E-02  0.1743183E+00
         21   -1    0    0  504  501  0.00000000000E+00  0.00000000000E+00  0.41859831320E+02  0.41859831320E+02  0.00000000000E+00 0. -1.
         21   -1    0    0  503  502 -0.00000000000E+00 -0.00000000000E+00 -0.37377920470E+02  0.37377920470E+02  0.00000000000E+00 0. -1.
         21    1    1    2  503  501 -0.20524721069E+01  0.20003263763E+02  0.36358609735E+02  0.41548666703E+02  0.00000000000E+00 0. -1.
         21    1    1    2  504  502  0.20524721069E+01 -0.20003263763E+02 -0.31876698885E+02  0.37689085088E+02  0.00000000000E+00 0. -1.
<mgrwt>
<rscale>  2 0.20108287E+02</rscale>
<asrwt>0</asrwt>
<pdfrwt beam="1">  1       21 0.64399741E-02 0.20108287E+02</pdfrwt>
<pdfrwt beam="2">  1       21 0.57504493E-02 0.20108287E+02</pdfrwt>
<totfact> 0.26484709E+07</totfact>
</mgrwt>
</event>
<event>
 4    1  0.4594485E+006  0.5217688E+02  0.7546771E-02  0.1433942E+00
         21   -1    0    0  503  501  0.00000000000E+00  0.00000000000E+00  0.13541738927E+03  0.13541738927E+03  0.00000000000E+00 0. -1.
         21   -1    0    0  504  502 -0.00000000000E+00 -0.00000000000E+00 -0.55604278442E+02  0.55604278442E+02  0.00000000000E+00 0. -1.
         21    1    1    2  503  502  0.33354494073E+02  0.40123611727E+02  0.11622238403E+03  0.12739728821E+03  0.00000000000E+00 0. -1.
         21    1    1    2  504  501 -0.33354494073E+02 -0.40123611727E+02 -0.36409273199E+02  0.63624379508E+02  0.00000000000E+00 0. -1.
<mgrwt>
<rscale>  2 0.52176877E+02</rscale>
<asrwt>0</asrwt>
<pdfrwt beam="1">  1       21 0.20833444E-01 0.52176877E+02</pdfrwt>
<pdfrwt beam="2">  1       21 0.85545045E-02 0.52176877E+02</pdfrwt>
<totfact> 0.21736322E+06</totfact>
</mgrwt>
</event>
<event>
 4    1  0.4594485E+006  0.2557672E+02  0.7546771E-02  0.1652854E+00
         21   -1    0    0  502  501  0.00000000000E+00  0.00000000000E+00  0.17556646668E+03  0.17556646668E+03  0.00000000000E+00 0. -1.
         21   -1    0    0  503  502 -0.00000000000E+00 -0.00000000000E+00 -0.38271379588E+01  0.38271379588E+01  0.00000000000E+00 0. -1.
         21    1    1    2  503  504 -0.24658459931E+02  0.67918446794E+01  0.71291684085E+02  0.75740827959E+02  0.00000000000E+00 0. -1.
         21    1    1    2  504  501  0.24658459931E+02 -0.67918446794E+01  0.10044764463E+03  0.10365277667E+03  0.00000000000E+00 0. -1.
<mgrwt>
<rscale>  2 0.25576724E+02</rscale>
<asrwt>0</asrwt>
<pdfrwt beam="1">  1       21 0.27010219E-01 0.25576724E+02</pdfrwt>
<pdfrwt beam="2">  1       21 0.58879059E-03 0.25576724E+02</pdfrwt>
<totfact> 0.81904885E+07</totfact>
</mgrwt>
</event>
<event>
 4    1  0.4594485E+006  0.3587463E+02  0.7546771E-02  0.1540968E+00
         21   -1    0    0  503  501  0.00000000000E+00  0.00000000000E+00  0.27640590827E+01  0.27640590827E+01  0.00000000000E+00 0.  1.
         21   -1    0    0  504  502 -0.00000000000E+00 -0.00000000000E+00 -0.71708737037E+03  0.71708737037E+03  0.00000000000E+00 0. -1.
         21    1    1    2  503  502 -0.20160320436E+02  0.29674074812E+02 -0.57030481241E+03  0.57143203296E+03  0.00000000000E+00 0. -1.
         21    1    1    2  504  501  0.20160320436E+02 -0.29674074812E+02 -0.14401849888E+03  0.14841939649E+03  0.00000000000E+00 0.  1.
<mgrwt>
<rscale>  2 0.35874632E+02</rscale>
<asrwt>0</asrwt>
<pdfrwt beam="1">  1       21 0.42523955E-03 0.35874632E+02</pdfrwt>
<pdfrwt beam="2">  1       21 0.11032121E+00 0.35874632E+02</pdfrwt>
<totfact> 0.83727213E+06</totfact>
</mgrwt>
</event>
<event>
 4    1  0.4594485E+006  0.2080426E+02  0.7546771E-02  0.1729792E+00
         21   -1    0    0  504  501  0.00000000000E+00  0.00000000000E+00  0.40879380474E+03  0.40879380474E+03  0.00000000000E+00 0.  1.
         21   -1    0    0  501  502 -0.00000000000E+00 -0.00000000000E+00 -0.37772644281E+02  0.37772644281E+02  0.00000000000E+00 0. -1.
         21    1    1    2  503  502  0.18202844089E+02 -0.10073410352E+02 -0.34621090969E+02  0.40391051842E+02  0.00000000000E+00 0. -1.
         21    1    1    2  504  503 -0.18202844089E+02  0.10073410352E+02  0.40564225143E+03  0.40617539718E+03  0.00000000000E+00 0.  1.
<mgrwt>
<rscale>  2 0.20804257E+02</rscale>
<asrwt>0</asrwt>
<pdfrwt beam="1">  1       21 0.62891352E-01 0.20804257E+02</pdfrwt>
<pdfrwt beam="2">  1       21 0.58111763E-02 0.20804257E+02</pdfrwt>
<totfact> 0.47549573E+05</totfact>
</mgrwt>
</event>
<event>
 4    1  0.4594485E+006  0.2712329E+02  0.7546771E-02  0.1632253E+00
         21   -1    0    0  502  501  0.00000000000E+00  0.00000000000E+00  0.34038689370E+01  0.34038689370E+01  0.00000000000E+00 0. -1.
         21   -1    0    0  504  502 -0.00000000000E+00 -0.00000000000E+00 -0.38044997156E+03  0.38044997156E+03  0.00000000000E+00 0.  1.
         21    1    1    2  503  501 -0.13067611084E+02  0.23767838382E+02 -0.62388384827E+02  0.68029281653E+02  0.00000000000E+00 0. -1.
         21    1    1    2  504  503  0.13067611084E+02 -0.23767838382E+02 -0.31465771779E+03  0.31582455884E+03  0.00000000000E+00 0.  1.
<mgrwt>
<rscale>  2 0.27123285E+02</rscale>
<asrwt>0</asrwt>
<pdfrwt beam="1">  1       21 0.52367218E-03 0.27123285E+02</pdfrwt>
<pdfrwt beam="2">  1       21 0.58530761E-01 0.27123285E+02</pdfrwt>
<totfact> 0.22756697E+07</totfact>
</mgrwt>
</event>
<event>
 4    1  0.4594485E+006  0.2423834E+02  0.7546771E-02  0.1672189E+00
         21   -1    0    0  502  501  0.00000000000E+00  0.00000000000E+00  0.29487160376E+02  0.29487160376E+02  0.00000000000E+00 0.  1.
         21   -1    0    0  503  502 -0.00000000000E+00 -0.00000000000E+00 -0.78133942784E+02  0.78133942784E+02  0.00000000000E+00 0. -1.
         21    1    1    2  503  504  0.24120111930E+02  0.23911229066E+01 -0.70769226919E+02  0.74804951353E+02  0.00000000000E+00 0. -1.
         21    1    1    2  504  501 -0.24120111930E+02 -0.23911229066E+01  0.22122444511E+02  0.32816151807E+02  0.00000000000E+00 0.  1.
<mgrwt>
<rscale>  2 0.24238343E+02</rscale>
<asrwt>0</asrwt>
<pdfrwt beam="1">  1       21 0.45364864E-02 0.24238343E+02</pdfrwt>
<pdfrwt beam="2">  1       21 0.12020606E-01 0.24238343E+02</pdfrwt>
<totfact> 0.14483804E+07</totfact>
</mgrwt>
</event>
<event>
 4    1  0.4594485E+006  0.2985292E+02  0.7546771E-02  0.1599720E+00
         21   -1    0    0  503  501  0.00000000000E+00  0.00000000000E+00  0.69821084041E+03  0.69821084041E+03  0.00000000000E+00 0.  1.
         21   -1    0    0  504  502 -0.00000000000E+00 -0.00000000000E+00 -0.16135693810E+01  0.16135693810E+01  0.00000000000E+00 0.  1.
         21    1    1    2  503  502 -0.27830803283E+02  0.10800156911E+02  0.18834699371E+03  0.19069815689E+03  0.00000000000E+00 0.  1.
         21    1    1    2  504  501  0.27830803283E+02 -0.10800156911E+02  0.50825027731E+03  0.50912625290E+03  0.00000000000E+00 0.  1.
<mgrwt>
<rscale>  2 0.29852923E+02</rscale>
<asrwt>0</asrwt>
<pdfrwt beam="1">  1       21 0.10741681E+00 0.29852923E+02</pdfrwt>
<pdfrwt beam="2">  1       21 0.24824200E-03 0.29852923E+02</pdfrwt>
<totfact> 0.19208633E+07</totfact>
</mgrwt>
</event>
<event>
 4    1  0.4594485E+006  0.2133440E+02  0.7546771E-02  0.1720024E+00
         21   -1    0    0  502  501  0.00000000000E+00  0.00000000000E+00  0.36349033649E+02  0.36349033649E+02  0.00000000000E+00 0.  1.
         21   -1    0    0  504  502 -0.00000000000E+00 -0.00000000000E+00 -0.36016645528E+03  0.36016645528E+03  0.00000000000E+00 0. -1.
         21    1    1    2  503  501 -0.13471214988E+02  0.16543361130E+02  0.32872153988E+02  0.39188454148E+02  0.00000000000E+00 0.  1.
         21    1    1    2  504  503  0.13471214988E+02 -0.16543361130E+02 -0.35668957562E+03  0.35732703478E+03  0.00000000000E+00 0. -1.
<mgrwt>
<rscale>  2 0.21334395E+02</rscale>
<asrwt>0</asrwt>
<pdfrwt beam="1">  1       21 0.55921590E-02 0.21334395E+02</pdfrwt>
<pdfrwt beam="2">  1       21 0.55410224E-01 0.21334395E+02</pdfrwt>
<totfact> 0.65133313E+05</totfact>
</mgrwt>
</event>
<event>
 4    1  0.4594485E+006  0.3376258E+02  0.7546771E-02  0.1559872E+00
         21   -1    0    0  503  501  0.00000000000E+00  0.00000000000E+00  0.11130170015E+02  0.11130170015E+02  0.00000000000E+00 0.  1.
         21   -1    0    0  504  502 -0.00000000000E+00 -0.00000000000E+00 -0.11017722098E+03  0.11017722098E+03  0.00000000000E+00 0.  1.
         21    1    1    2  503  502  0.20680135498E+02  0.26687894272E+02 -0.33425752654E+02  0.47509921547E+02  0.00000000000E+00 0.  1.
         21    1    1    2  504  501 -0.20680135498E+02 -0.26687894272E+02 -0.65621298311E+02  0.73797469448E+02  0.00000000000E+00 0.  1.
<mgrwt>
<rscale>  2 0.33762578E+02</rscale>
<asrwt>0</asrwt>
<pdfrwt beam="1">  1       21 0.17123339E-02 0.33762578E+02</pdfrwt>
<pdfrwt beam="2">  1       21 0.16950341E-01 0.33762578E+02</pdfrwt>
<totfact> 0.39495615E+07</totfact>
</mgrwt>
</event>
<event>
 4    1  0.4594485E+006  0.2008020E+02  0.7546771E-02  0.1743738E+00
         21   -1    0    0  502  501  0.00000000000E+00  0.00000000000E+00  0.23456903366E+01  0.23456903366E+01  0.00000000000E+00 0.  1.
         21   -1    0    0  504  502 -0.00000000000E+00 -0.00000000000E+00 -0.23780169743E+03  0.23780169743E+03  0.00000000000E+00 0. -1.
         21    1    1    2  503  501  0.11011066984E+02  0.16791991154E+02 -0.54515616658E+02  0.58096187677E+02  0.00000000000E+00 0.  1.
         21    1    1    2  504  503 -0.11011066984E+02 -0.16791991154E+02 -0.18094039043E+03  0.18205120009E+03  0.00000000000E+00 0. -1.
<mgrwt>
<rscale>  2 0.20080203E+02</rscale>
<asrwt>0</asrwt>
<pdfrwt beam="1">  1       21 0.36087537E-03 0.20080203E+02</pdfrwt>
<pdfrwt beam="2">  1       21 0.36584883E-01 0.20080203E+02</pdfrwt>
<totfact> 0.90696048E+07</totfact>
</mgrwt>
</event>
<event>
 4    1  0.4594485E+006  0.2070777E+02  0.7546771E-02  0.1731609E+00
         21   -1    0    0  503  501  0.00000000000E+00  0.00000000000E+00  0.61885662266E+03  0.61885662266E+03  0.00000000000E+00 0.  1.
         21   -1    0    0  504  502 -0.00000000000E+00 -0.00000000000E+00 -0.87417348453E+00  0.87417348453E+00  0.00000000000E+00 0.  1.
         21    1    1    2  503  502 -0.19533746311E+02 -0.68734590696E+01  0.16789027742E+03  0.16916251634E+03  0.00000000000E+00 0.  1.
         21    1    1    2  504  501  0.19533746311E+02  0.68734590696E+01  0.45009217175E+03  0.45056827980E+03  0.00000000000E+00 0.  1.
<mgrwt>
<rscale>  2 0.20707769E+02</rscale>
<asrwt>0</asrwt>
<pdfrwt beam="1">  1       21 0.95208361E-01 0.20707769E+02</pdfrwt>
<pdfrwt beam="2">  1       21 0.13448872E-03 0.20707769E+02</pdfrwt>
<totfact> 0.56552785E+07</totfact>
</mgrwt>
</event>
<event>
 4    1  0.4594485E+006  0.2100790E+02  0.7546771E-02  0.1725997E+00
         21   -1    0    0  504  501  0.00000000000E+00  0.00000000000E+00  0.15800447419E+02  0.15800447419E+02  0.00000000000E+00 0.  1.
         21   -1    0    0  503  502 -0.00000000000E+00 -0.00000000000E+00 -0.37877209524E+02  0.37877209524E+02  0.00000000000E+00 0. -1.
         21    1    1    2  503  501  0.20755637321E+02  0.32458142180E+01 -0.24791153276E+02  0.32495123808E+02  0.00000000000E+00 0. -1.
         21    1    1    2  504  502 -0.20755637321E+02 -0.32458142180E+01  0.27143911721E+01  0.21182533134E+02  0.00000000000E+00 0.  1.
<mgrwt>
<rscale>  2 0.21007898E+02</rscale>
<asrwt>0</asrwt>
<pdfrwt beam="1">  1       21 0.24308381E-02 0.21007898E+02</pdfrwt>
<pdfrwt beam="2">  1       21 0.58272629E-02 0.21007898E+02</pdfrwt>
<totfact> 0.12104928E+08</totfact>
</mgrwt>
</event>
<event>
 4    1  0.4594485E+006  0.2506339E+02  0.7546771E-02  0.1660093E+00
         21   -1    0    0  502  501  0.00000000000E+00  0.00000000000E+00  0.41527386108E+03  0.41527386108E+03  0.00000000000E+00 0. -1.
         21   -1    0    0  504  502 -0.00000000000E+00 -0.00000000000E+00 -0.27649375441E+01  0.27649375441E+01  0.00000000000E+00 0. -1.
         21    1    1    2  503  501  0.67607032024E+01  0.24134343997E+02  0.34692136559E+03  0.34782554186E+03  0.00000000000E+00 0. -1.
         21    1    1    2  504  503 -0.67607032024E+01 -0.24134343997E+02  0.65587557943E+02  0.70213256760E+02  0.00000000000E+00 0. -1.
<mgrwt>
<rscale>  2 0.25063393E+02</rscale>
<asrwt>0</asrwt>
<pdfrwt beam="1">  1       21 0.63888237E-01 0.25063393E+02</pdfrwt>
<pdfrwt beam="2">  1       21 0.42537534E-03 0.25063393E+02</pdfrwt>
<totfact> 0.25553564E+07</totfact>
</mgrwt>
</event>
<event>
 4    1  0.4594485E+006  0.2076651E+02  0.7546771E-02  0.1730501E+00
         21   -1    0    0  502  501  0.00000000000E+00  0.00000000000E+00  0.47532253946E+03  0.47532253946E+03  0.00000000000E+00 0.  1.
         21   -1    0    0  504  502 -0.00000000000E+00 -0.00000000000E+00 -0.20566520836E+03  0.20566520836E+03  0.00000000000E+00 0.  1.
         21    1    1    2  503  501 -0.12804567613E+01 -0.20726998540E+02  0.47457067950E+03  0.47502481817E+03  0.00000000000E+00 0.  1.
         21    1    1    2  504  503  0.12804567613E+01  0.20726998540E+02 -0.20491334840E+03  0.20596292965E+03  0.00000000000E+00 0.  1.
<mgrwt>
<rscale>  2 0.20766512E+02</rscale>
<asrwt>0</asrwt>
<pdfrwt beam="1">  1       21 0.73126544E-01 0.20766512E+02</pdfrwt>
<pdfrwt beam="2">  1       21 0.31640801E-01 0.20766512E+02</pdfrwt>
<totfact> 0.19933171E+04</totfact>
</mgrwt>
</event>
<event>
 4    1  0.4594485E+006  0.2266690E+02  0.7546771E-02  0.1696967E+00
         21   -1    0    0  502  501  0.00000000000E+00  0.00000000000E+00  0.91870427556E+02  0.91870427556E+02  0.00000000000E+00 0.  1.
         21   -1    0    0  503  502 -0.00000000000E+00 -0.00000000000E+00 -0.83488358625E+01  0.83488358625E+01  0.00000000000E+00 0. -1.
         21    1    1    2  503  504 -0.22597892196E+02 -0.17673154466E+01  0.12968788643E+02  0.26114701117E+02  0.00000000000E+00 0. -1.
         21    1    1    2  504  501  0.22597892196E+02  0.17673154466E+01  0.70552803051E+02  0.74104562302E+02  0.00000000000E+00 0.  1.
<mgrwt>
<rscale>  2 0.22666895E+02</rscale>
<asrwt>0</asrwt>
<pdfrwt beam="1">  1       21 0.14133911E-01 0.22666895E+02</pdfrwt>
<pdfrwt beam="2">  1       21 0.12844364E-02 0.22666895E+02</pdfrwt>
<totfact> 0.76401328E+07</totfact>
</mgrwt>
</event>
<event>
 4    1  0.4594485E+006  0.2375572E+02  0.7546771E-02  0.1679545E+00
         21   -1    0    0  504  501  0.00000000000E+00  0.00000000000E+00  0.24381362808E+03  0.24381362808E+03  0.00000000000E+00 0. -1.
         21   -1    0    0  503  502 -0.00000000000E+00 -0.00000000000E+00 -0.70022268493E+01  0.70022268493E+01  0.00000000000E+00 0. -1.
         21    1    1    2  503  501  0.13501309033E+02  0.19546067239E+02  0.22101408189E+03  0.22228710823E+03  0.00000000000E+00 0. -1.
         21    1    1    2  504  502 -0.13501309033E+02 -0.19546067239E+02  0.15797319342E+02  0.28528746704E+02  0.00000000000E+00 0. -1.
<mgrwt>
<rscale>  2 0.23755717E+02</rscale>
<asrwt>0</asrwt>
<pdfrwt beam="1">  1       21 0.37509782E-01 0.23755717E+02</pdfrwt>
<pdfrwt beam="2">  1       21 0.10772659E-02 0.23755717E+02</pdfrwt>
<totfact> 0.17846144E+07</totfact>
</mgrwt>
</event>
<event>
 4    1  0.4594485E+006  0.2029309E+02  0.7546771E-02  0.1739562E+00
         21   -1    0    0  503  501  0.00000000000E+00  0.00000000000E+00  0.22447103785E+01  0.22447103785E+01  0.00000000000E+00 0.  1.
         21   -1    0    0  501  502 -0.00000000000E+00 -0.00000000000E+00 -0.27514632247E+03  0.27514632247E+03  0.00000000000E+00 0.  1.
         21    1    1    2  503  504 -0.42919131196E+01  0.19834034158E+02 -0.56386625641E+02  0.59927130587E+02  0.00000000000E+00 0.  1.
         21    1    1    2  504  502  0.42919131196E+01 -0.19834034158E+02 -0.21651498645E+03  0.21746390226E+03  0.00000000000E+00 0.  1.
<mgrwt>
<rscale>  2 0.20293088E+02</rscale>
<asrwt>0</asrwt>
<pdfrwt beam="1">  1       21 0.34534024E-03 0.20293088E+02</pdfrwt>
<pdfrwt beam="2">  1       21 0.42330181E-01 0.20293088E+02</pdfrwt>
<totfact> 0.73834049E+07</totfact>
</mgrwt>
</event>
<event>
 4    1  0.4594485E+006  0.2381164E+02  0.7546771E-02  0.1678682E+00
         21   -1    0    0  504  501  0.00000000000E+00  0.00000000000E+00  0.21176473649E+01  0.21176473649E+01  0.00000000000E+00 0.  1.
         21   -1    0    0  503  502 -0.00000000000E+00 -0.00000000000E+00 -0.83788049935E+03  0.83788049935E+03  0.00000000000E+00 0.  1.
         21    1    1    2  503  501  0.54360130193E+01  0.23182832801E+02 -0.76433538340E+03  0.76470619999E+03  0.00000000000E+00 0.  1.
         21    1    1    2  504  502 -0.54360130193E+01 -0.23182832801E+02 -0.71427468579E+02  0.75291946726E+02  0.00000000000E+00 0.  1.
<mgrwt>
<rscale>  2 0.23811635E+02</rscale>
<asrwt>0</asrwt>
<pdfrwt beam="1">  1       21 0.32579197E-03 0.23811635E+02</pdfrwt>
<pdfrwt beam="2">  1       21 0.12890466E+00 0.23811635E+02</pdfrwt>
<totfact> 0.82443032E+06</totfact>
</mgrwt>
</event>
<event>
 4    1  0.4594485E+006  0.2994012E+02  0.7546771E-02  0.1598751E+00
         21   -1    0    0  503  501  0.00000000000E+00  0.00000000000E+00  0.99724805790E+02  0.99724805790E+02  0.00000000000E+00 0.  1.
         21   -1    0    0  504  502 -0.00000000000E+00 -0.00000000000E+00 -0.54662445961E+02  0.54662445961E+02  0.00000000000E+00 0.  1.
         21    1    1    2  503  502 -0.21540896221E+02  0.20794249481E+02 -0.48030600005E+02  0.56598140945E+02  0.00000000000E+00 0.  1.
         21    1    1    2  504  501  0.21540896221E+02 -0.20794249481E+02  0.93092959834E+02  0.97789110806E+02  0.00000000000E+00 0.  1.
<mgrwt>
<rscale>  2 0.29940124E+02</rscale>
<asrwt>0</asrwt>
<pdfrwt beam="1">  1       21 0.15342278E-01 0.29940124E+02</pdfrwt>
<pdfrwt beam="2">  1       21 0.84096071E-02 0.29940124E+02</pdfrwt>
<totfact> 0.36422499E+06</totfact>
</mgrwt>
</event>
<event>
 4    1  0.4594485E+006  0.3731834E+02  0.7546771E-02  0.1528927E+00
         21   -1    0    0  503  501  0.00000000000E+00  0.00000000000E+00  0.67468903286E+02  0.67468903286E+02  0.00000000000E+00 0. -1.
         21   -1    0    0  504  502 -0.00000000000E+00 -0.00000000000E+00 -0.33917471237E+02  0.33917471237E+02  0.00000000000E+00 0.  1.
         21    1    1    2  503  502  0.50756674339E+01  0.36971557316E+02  0.48491192379E+02  0.61188676964E+02  0.00000000000E+00 0. -1.
         21    1    1    2  504  501 -0.50756674339E+01 -0.36971557316E+02 -0.14939760330E+02  0.40197697558E+02  0.00000000000E+00 0.  1.
<mgrwt>
<rscale>  2 0.37318339E+02</rscale>
<asrwt>0</asrwt>
<pdfrwt beam="1">  1       21 0.10379831E-01 0.37318339E+02</pdfrwt>
<pdfrwt beam="2">  1       21 0.52180725E-02 0.37318339E+02</pdfrwt>
<totfact> 0.15994048E+07</totfact>
</mgrwt>
</event>
<event>
 4    1  0.4594485E+006  0.2572394E+02  0.7546771E-02  0.1650816E+00
         21   -1    0    0  502  501  0.00000000000E+00  0.00000000000E+00  0.52657266761E+01  0.52657266761E+01  0.00000000000E+00 0.  1.
         21   -1    0    0  504  502 -0.00000000000E+00 -0.00000000000E+00 -0.14675044449E+03  0.14675044449E+03  0.00000000000E+00 0.  1.
         21    1    1    2  503  501 -0.25658964735E+02  0.18272295096E+01 -0.41931630882E+02  0.49193321777E+02  0.00000000000E+00 0.  1.
         21    1    1    2  504  503  0.25658964735E+02 -0.18272295096E+01 -0.99553086930E+02  0.10282284939E+03  0.00000000000E+00 0.  1.
<mgrwt>
<rscale>  2 0.25723943E+02</rscale>
<asrwt>0</asrwt>
<pdfrwt beam="1">  1       21 0.81011175E-03 0.25723943E+02</pdfrwt>
<pdfrwt beam="2">  1       21 0.22576993E-01 0.25723943E+02</pdfrwt>
<totfact> 0.70205516E+07</totfact>
</mgrwt>
</event>
<event>
 4    1  0.4594485E+006  0.2772624E+02  0.7546771E-02  0.1624673E+00
         21   -1    0    0  503  501  0.00000000000E+00  0.00000000000E+00  0.16547458595E+02  0.16547458595E+02  0.00000000000E+00 0.  1.
         21   -1    0    0  504  502 -0.00000000000E+00 -0.00000000000E+00 -0.46683792674E+02  0.46683792674E+02  0.00000000000E+00 0.  1.
         21    1    1    2  503  502  0.27697425323E+02 -0.12638113224E+01 -0.12864360546E+02  0.30565280316E+02  0.00000000000E+00 0.  1.
         21    1    1    2  504  501 -0.27697425323E+02  0.12638113224E+01 -0.17271973533E+02  0.32665970952E+02  0.00000000000E+00 0.  1.
<mgrwt>
<rscale>  2 0.27726244E+02</rscale>
<asrwt>0</asrwt>
<pdfrwt beam="1">  1       21 0.25457629E-02 0.27726244E+02</pdfrwt>
<pdfrwt beam="2">  1       21 0.71821219E-02 0.27726244E+02</pdfrwt>
<totfact> 0.86840793E+07</totfact>
</mgrwt>
</event>
<event>
 4    1  0.4594485E+006  0.2010876E+02  0.7546771E-02  0.1743174E+00
         21   -1    0    0  504  501  0.00000000000E+00  0.00000000000E+00  0.14025632750E+03  0.14025632750E+03  0.00000000000E+00 0. -1.
         21   -1    0    0  503  502 -0.00000000000E+00 -0.00000000000E+00 -0.31554533294E+01  0.31554533294E+01  0.00000000000E+00 0. -1.
         21    1    1    2  503  501  0.14792519414E+02 -0.13621433852E+02  0.89619848496E+02  0.91848131910E+02  0.00000000000E+00 0. -1.
         21    1    1    2  504  502 -0.14792519414E+02  0.13621433852E+02  0.47481025671E+02  0.51563648917E+02  0.00000000000E+00 0. -1.
<mgrwt>
<rscale>  2 0.20108757E+02</rscale>
<asrwt>0</asrwt>
<pdfrwt beam="1">  1       21 0.21577892E-01 0.20108757E+02</pdfrwt>
<pdfrwt beam="2">  1       21 0.48545447E-03 0.20108757E+02</pdfrwt>
<totfact> 0.15183614E+08</totfact>
</mgrwt>
</event>
<event>
 4    1  0.4594485E+006  0.2117144E+02  0.7546771E-02  0.1722988E+00
         21   -1    0    0  504  501  0.00000000000E+00  0.00000000000E+00  0.29090064428E+02  0.29090064428E+02  0.00000000000E+00 0. -1.
         21   -1    0    0  503  502 -0.00000000000E+00 -0.00000000000E+00 -0.31744022146E+02  0.31744022146E+02  0.00000000000E+00 0. -1.
         21    1    1    2  503  501 -0.11914800012E+01  0.21137886604E+02 -0.23146968111E+02  0.31368965673E+02  0.00000000000E+00 0. -1.
         21    1    1    2  504  502  0.11914800012E+01 -0.21137886604E+02  0.20493010393E+02  0.29465120900E+02  0.00000000000E+00 0. -1.
<mgrwt>
<rscale>  2 0.21171440E+02</rscale>
<asrwt>0</asrwt>
<pdfrwt beam="1">  1       21 0.44753945E-02 0.21171440E+02</pdfrwt>
<pdfrwt beam="2">  1       21 0.48836957E-02 0.21171440E+02</pdfrwt>
<totfact> 0.62082504E+07</totfact>
</mgrwt>
</event>
<event>
 4    1  0.4594485E+006  0.2064316E+02  0.7546771E-02  0.1732832E+00
         21   -1    0    0  504  501  0.00000000000E+00  0.00000000000E+00  0.11734796454E+03  0.11734796454E+03  0.00000000000E+00 0. -1.
         21   -1    0    0  503  502 -0.00000000000E+00 -0.00000000000E+00 -0.14944964723E+02  0.14944964723E+02  0.00000000000E+00 0.  1.
         21    1    1    2  503  501 -0.14474914752E+01  0.20592345216E+02  0.10875324694E+03  0.11069511567E+03  0.00000000000E+00 0. -1.
         21    1    1    2  504  502  0.14474914752E+01 -0.20592345216E+02 -0.63502471302E+01  0.21597813586E+02  0.00000000000E+00 0.  1.
<mgrwt>
<rscale>  2 0.20643157E+02</rscale>
<asrwt>0</asrwt>
<pdfrwt beam="1">  1       21 0.18053532E-01 0.20643157E+02</pdfrwt>
<pdfrwt beam="2">  1       21 0.22992254E-02 0.20643157E+02</pdfrwt>
<totfact> 0.20246205E+07</totfact>
</mgrwt>
</event>
<event>
 4    1  0.4594485E+006  0.2875917E+02  0.7546771E-02  0.1612224E+00
         21   -1    0    0  503  501  0.00000000000E+00  0.00000000000E+00  0.49235338535E+02  0.49235338535E+02  0.00000000000E+00 0. -1.
         21   -1    0    0  504  502 -0.00000000000E+00 -0.00000000000E+00 -0.17606449951E+02  0.17606449951E+02  0.00000000000E+00 0. -1.
         21    1    1    2  503  502 -0.27700018602E+02 -0.77329633964E+01  0.22972914878E+02  0.36808213370E+02  0.00000000000E+00 0. -1.
         21    1    1    2  504  501  0.27700018602E+02  0.77329633964E+01  0.86559737068E+01  0.30033575116E+02  0.00000000000E+00 0. -1.
<mgrwt>
<rscale>  2 0.28759168E+02</rscale>
<asrwt>0</asrwt>
<pdfrwt beam="1">  1       21 0.75746674E-02 0.28759168E+02</pdfrwt>
<pdfrwt beam="2">  1       21 0.27086846E-02 0.28759168E+02</pdfrwt>
<totfact> 0.72915042E+07</totfact>
</mgrwt>
</event>
<event>
 4    1  0.4594485E+006  0.2516365E+02  0.7546771E-02  0.1658662E+00
         21   -1    0    0  503  501  0.00000000000E+00  0.00000000000E+00  0.16389598518E+03  0.16389598518E+03  0.00000000000E+00 0. -1.
         21   -1    0    0  501  502 -0.00000000000E+00 -0.00000000000E+00 -0.61138829868E+01  0.61138829868E+01  0.00000000000E+00 0.  1.
         21    1    1    2  503  504 -0.65057858115E+01  0.24308106193E+02  0.13046322960E+03  0.13286784243E+03  0.00000000000E+00 0. -1.
         21    1    1    2  504  502  0.65057858115E+01 -0.24308106193E+02  0.27318872595E+02  0.37142025733E+02  0.00000000000E+00 0.  1.
<mgrwt>
<rscale>  2 0.25163650E+02</rscale>
<asrwt>0</asrwt>
<pdfrwt beam="1">  1       21 0.25214764E-01 0.25163650E+02</pdfrwt>
<pdfrwt beam="2">  1       21 0.94059751E-03 0.25163650E+02</pdfrwt>
<totfact> 0.45838243E+07</totfact>
</mgrwt>
</event>
<event>
 4    1  0.4594485E+006  0.3203527E+02  0.7546771E-02  0.1576623E+00
         21   -1    0    0  502  501  0.00000000000E+00  0.00000000000E+00  0.26455261145E+02  0.26455261145E+02  0.00000000000E+00 0. -1.
         21   -1    0    0  504  502 -0.00000000000E+00 -0.00000000000E+00 -0.69265348547E+02  0.69265348547E+02  0.00000000000E+00 0. -1.
         21    1    1    2  503  501 -0.31651368793E+02 -0.49446506123E+01  0.10339995017E+02  0.33662653091E+02  0.00000000000E+00 0. -1.
         21    1    1    2  504  503  0.31651368793E+02  0.49446506123E+01 -0.53150082420E+02  0.62057956601E+02  0.00000000000E+00 0. -1.
<mgrwt>
<rscale>  2 0.32035273E+02</rscale>
<asrwt>0</asrwt>
<pdfrwt beam="1">  1       21 0.40700402E-02 0.32035273E+02</pdfrwt>
<pdfrwt beam="2">  1       21 0.10656207E-01 0.32035273E+02</pdfrwt>
<totfact> 0.22235174E+07</totfact>
</mgrwt>
</event>
<event>
 4    1  0.4594485E+006  0.2216337E+02  0.7546771E-02  0.1705442E+00
         21   -1    0    0  504  501  0.00000000000E+00  0.00000000000E+00  0.19083534988E+03  0.19083534988E+03  0.00000000000E+00 0. -1.
         21   -1    0    0  501  502 -0.00000000000E+00 -0.00000000000E+00 -0.15261110430E+02  0.15261110430E+02  0.00000000000E+00 0.  1.
         21    1    1    2  503  502 -0.17183030167E+02  0.13998523650E+02 -0.61697158191E+01  0.23006098830E+02  0.00000000000E+00 0.  1.
         21    1    1    2  504  503  0.17183030167E+02 -0.13998523650E+02  0.18174395527E+03  0.18309036148E+03  0.00000000000E+00 0. -1.
<mgrwt>
<rscale>  2 0.22163375E+02</rscale>
<asrwt>0</asrwt>
<pdfrwt beam="1">  1       21 0.29359283E-01 0.22163375E+02</pdfrwt>
<pdfrwt beam="2">  1       21 0.23478633E-02 0.22163375E+02</pdfrwt>
<totfact> 0.84368083E+06</totfact>
</mgrwt>
</event>
<event>
 4    1  0.4594485E+006  0.2257692E+02  0.7546771E-02  0.1698461E+00
         21   -1    0    0  504  501  0.00000000000E+00  0.00000000000E+00  0.38895879626E+01  0.38895879626E+01  0.00000000000E+00 0. -1.
         21   -1    0    0  503  502 -0.00000000000E+00 -0.00000000000E+00 -0.57074933859E+03  0.57074933859E+03  0.00000000000E+00 0. -1.
         21    1    1    2  503  501 -0.13670734963E+02  0.17967422195E+02 -0.53561642871E+03  0.53609204057E+03  0.00000000000E+00 0. -1.
         21    1    1    2  504  502  0.13670734963E+02 -0.17967422195E+02 -0.31243321915E+02  0.38546885984E+02  0.00000000000E+00 0. -1.
<mgrwt>
<rscale>  2 0.22576919E+02</rscale>
<asrwt>0</asrwt>
<pdfrwt beam="1">  1       21 0.59839802E-03 0.22576919E+02</pdfrwt>
<pdfrwt beam="2">  1       21 0.87807609E-01 0.22576919E+02</pdfrwt>
<totfact> 0.78242302E+06</totfact>
</mgrwt>
</event>
<event>
 4    1  0.4594485E+006  0.3259312E+02  0.7546771E-02  0.1571076E+00
         21   -1    0    0  502  501  0.00000000000E+00  0.00000000000E+00  0.60645716149E+01  0.60645716149E+01  0.00000000000E+00 0.  1.
         21   -1    0    0  504  502 -0.00000000000E+00 -0.00000000000E+00 -0.49938658983E+03  0.49938658983E+03  0.00000000000E+00 0.  1.
         21    1    1    2  503  501  0.30059646107E+02  0.12598764537E+02 -0.43026878602E+02  0.53977990646E+02  0.00000000000E+00 0.  1.
         21    1    1    2  504  503 -0.30059646107E+02 -0.12598764537E+02 -0.45029513961E+03  0.45147317080E+03  0.00000000000E+00 0.  1.
<mgrwt>
<rscale>  2 0.32593116E+02</rscale>
<asrwt>0</asrwt>
<pdfrwt beam="1">  1       21 0.93301102E-03 0.32593116E+02</pdfrwt>
<pdfrwt beam="2">  1       21 0.76828706E-01 0.32593116E+02</pdfrwt>
<totfact> 0.56187186E+06</totfact>
</mgrwt>
</event>
<event>
 4    1  0.4594485E+006  0.3435426E+02  0.7546771E-02  0.1554411E+00
         21   -1    0    0  503  501  0.00000000000E+00  0.00000000000E+00  0.20391563225E+03  0.20391563225E+03  0.00000000000E+00 0.  1.
         21   -1    0    0  504  502 -0.00000000000E+00 -0.00000000000E+00 -0.36292634807E+02  0.36292634807E+02  0.00000000000E+00 0.  1.
         21    1    1    2  503  502  0.34341720142E+02  0.92817292117E+00  0.19392315895E+03  0.19694264857E+03  0.00000000000E+00 0.  1.
         21    1    1    2  504  501 -0.34341720142E+02 -0.92817292117E+00 -0.26300161513E+02  0.43265618485E+02  0.00000000000E+00 0.  1.
<mgrwt>
<rscale>  2 0.34354261E+02</rscale>
<asrwt>0</asrwt>
<pdfrwt beam="1">  1       21 0.31371635E-01 0.34354261E+02</pdfrwt>
<pdfrwt beam="2">  1       21 0.55834824E-02 0.34354261E+02</pdfrwt>
<totfact> 0.20148496E+06</totfact>
</mgrwt>
</event>
<event>
 4    1  0.4594485E+006  0.2531054E+02  0.7546771E-02  0.1656581E+00
         21   -1    0    0  502  501  0.00000000000E+00  0.00000000000E+00  0.45029496109E+01  0.45029496109E+01  0.00000000000E+00 0. -1.
         21   -1    0    0  503  502 -0.00000000000E+00 -0.00000000000E+00 -0.15067278714E+03  0.15067278714E+03  0.00000000000E+00 0. -1.
         21    1    1    2  503  504  0.22274554855E+02 -0.12019469952E+02 -0.91410269513E+02  0.94849674878E+02  0.00000000000E+00 0. -1.
         21    1    1    2  504  501 -0.22274554855E+02  0.12019469952E+02 -0.54759568019E+02  0.60326061877E+02  0.00000000000E+00 0. -1.
<mgrwt>
<rscale>  2 0.25310540E+02</rscale>
<asrwt>0</asrwt>
<pdfrwt beam="1">  1       21 0.69276140E-03 0.25310540E+02</pdfrwt>
<pdfrwt beam="2">  1       21 0.23180431E-01 0.25310540E+02</pdfrwt>
<totfact> 0.84324367E+07</totfact>
</mgrwt>
</event>
<event>
 4    1  0.4594485E+006  0.2497061E+02  0.7546771E-02  0.1661424E+00
         21   -1    0    0  504  501  0.00000000000E+00  0.00000000000E+00  0.21502168495E+01  0.21502168495E+01  0.00000000000E+00 0. -1.
         21   -1    0    0  503  502 -0.00000000000E+00 -0.00000000000E+00 -0.46339234101E+03  0.46339234101E+03  0.00000000000E+00 0. -1.
         21    1    1    2  503  501  0.14482273363E+02 -0.20341954402E+02 -0.88228177306E+02  0.91693743633E+02  0.00000000000E+00 0. -1.
         21    1    1    2  504  502 -0.14482273363E+02  0.20341954402E+02 -0.37301394686E+03  0.37384881423E+03  0.00000000000E+00 0. -1.
<mgrwt>
<rscale>  2 0.24970610E+02</rscale>
<asrwt>0</asrwt>
<pdfrwt beam="1">  1       21 0.33080247E-03 0.24970610E+02</pdfrwt>
<pdfrwt beam="2">  1       21 0.71291155E-01 0.24970610E+02</pdfrwt>
<totfact> 0.29521763E+07</totfact>
</mgrwt>
</event>
<event>
 4    1  0.4594485E+006  0.2455824E+02  0.7546771E-02  0.1667429E+00
         21   -1    0    0  504  501  0.00000000000E+00  0.00000000000E+00  0.42884914804E+01  0.42884914804E+01  0.00000000000E+00 0.  1.
         21   -1    0    0  503  502 -0.00000000000E+00 -0.00000000000E+00 -0.14367130769E+03  0.14367130769E+03  0.00000000000E+00 0. -1.
         21    1    1    2  503  501  0.23932355505E+02  0.55090544953E+01 -0.80448121613E+02  0.84113064339E+02  0.00000000000E+00 0. -1.
         21    1    1    2  504  502 -0.23932355505E+02 -0.55090544953E+01 -0.58934694598E+02  0.63846734833E+02  0.00000000000E+00 0.  1.
<mgrwt>
<rscale>  2 0.24558243E+02</rscale>
<asrwt>0</asrwt>
<pdfrwt beam="1">  1       21 0.65976796E-03 0.24558243E+02</pdfrwt>
<pdfrwt beam="2">  1       21 0.22103277E-01 0.24558243E+02</pdfrwt>
<totfact> 0.97914010E+07</totfact>
</mgrwt>
</event>
<event>
 4    1  0.4594485E+006  0.3272252E+02  0.7546771E-02  0.1569808E+00
         21   -1    0    0  503  501  0.00000000000E+00  0.00000000000E+00  0.65838711696E+03  0.65838711696E+03  0.00000000000E+00 0.  1.
         21   -1    0    0  504  502 -0.00000000000E+00 -0.00000000000E+00 -0.26923989488E+02  0.26923989488E+02  0.00000000000E+00 0.  1.
         21    1    1    2  503  502 -0.31155959588E+02 -0.10003482009E+02 -0.16413747168E+02  0.36608394750E+02  0.00000000000E+00 0.  1.
         21    1    1    2  504  501  0.31155959588E+02  0.10003482009E+02  0.64787687464E+03  0.64870271169E+03  0.00000000000E+00 0.  1.
<mgrwt>
<rscale>  2 0.32722522E+02</rscale>
<asrwt>0</asrwt>
<pdfrwt beam="1">  1       21 0.10129031E+00 0.32722522E+02</pdfrwt>
<pdfrwt beam="2">  1       21 0.41421527E-02 0.32722522E+02</pdfrwt>
<totfact> 0.30430881E+05</totfact>
</mgrwt>
</event>
<event>
 4    1  0.4594485E+006  0.2033957E+02  0.7546771E-02  0.1738658E+00
         21   -1    0    0  503  501  0.00000000000E+00  0.00000000000E+00  0.68545826081E+03  0.68545826081E+03  0.00000000000E+00 0. -1.
         21   -1    0    0  501  502 -0.00000000000E+00 -0.00000000000E+00 -0.13091260613E+01  0.13091260613E+01  0.00000000000E+00 0.  1.
         21    1    1    2  503  504  0.19739305702E+02 -0.49048721449E+01  0.59417030880E+03  0.59451833766E+03  0.00000000000E+00 0. -1.
         21    1    1    2  504  502 -0.19739305702E+02  0.49048721449E+01  0.89978825944E+02  0.92249049202E+02  0.00000000000E+00 0.  1.
<mgrwt>
<rscale>  2 0.20339566E+02</rscale>
<asrwt>0</asrwt>
<pdfrwt beam="1">  1       21 0.10545483E+00 0.20339566E+02</pdfrwt>
<pdfrwt beam="2">  1       21 0.20140456E-03 0.20339566E+02</pdfrwt>
<totfact> 0.25284529E+07</totfact>
</mgrwt>
</event>
<event>
 4    1  0.4594485E+006  0.2555924E+02  0.7546771E-02  0.1653097E+00
         21   -1    0    0  504  501  0.00000000000E+00  0.00000000000E+00  0.78540930933E+00  0.78540930933E+00  0.00000000000E+00 0.  1.
         21   -1    0    0  503  502 -0.00000000000E+00 -0.00000000000E+00 -0.10341539671E+04  0.10341539671E+04  0.00000000000E+00 0.  1.
         21    1    1    2  503  501  0.24122793639E+02  0.84478190002E+01 -0.28776239600E+03  0.28889526020E+03  0.00000000000E+00 0.  1.
         21    1    1    2  504  502 -0.24122793639E+02 -0.84478190002E+01 -0.74560616182E+03  0.74604411623E+03  0.00000000000E+00 0.  1.
<mgrwt>
<rscale>  2 0.25559241E+02</rscale>
<asrwt>0</asrwt>
<pdfrwt beam="1">  1       21 0.12083222E-03 0.25559241E+02</pdfrwt>
<pdfrwt beam="2">  1       21 0.15910059E+00 0.25559241E+02</pdfrwt>
<totfact> 0.21312482E+07</totfact>
</mgrwt>
</event>
<event>
 4    1  0.4594485E+006  0.3459038E+02  0.7546771E-02  0.1552268E+00
         21   -1    0    0  502  501  0.00000000000E+00  0.00000000000E+00  0.31460056420E+02  0.31460056420E+02  0.00000000000E+00 0. -1.
         21   -1    0    0  504  502 -0.00000000000E+00 -0.00000000000E+00 -0.55432521887E+02  0.55432521887E+02  0.00000000000E+00 0.  1.
         21    1    1    2  503  501 -0.40837576180E+01  0.34348468860E+02  0.12355378153E+02  0.36730773999E+02  0.00000000000E+00 0. -1.
         21    1    1    2  504  503  0.40837576180E+01 -0.34348468860E+02 -0.36327843620E+02  0.50161804307E+02  0.00000000000E+00 0.  1.
<mgrwt>
<rscale>  2 0.34590380E+02</rscale>
<asrwt>0</asrwt>
<pdfrwt beam="1">  1       21 0.48400087E-02 0.34590380E+02</pdfrwt>
<pdfrwt beam="2">  1       21 0.85280803E-02 0.34590380E+02</pdfrwt>
<totfact> 0.24793115E+07</totfact>
</mgrwt>
</event>
<event>
 4    1  0.4594485E+006  0.2503240E+02  0.7546771E-02  0.1660537E+00
         21   -1    0    0  502  501  0.00000000000E+00  0.00000000000E+00  0.28934405134E+03  0.28934405134E+03  0.00000000000E+00 0.  1.
         21   -1    0    0  504  502 -0.00000000000E+00 -0.00000000000E+00 -0.11982703416E+04  0.11982703416E+04  0.00000000000E+00 0.  1.
         21    1    1    2  503  501 -0.18749324129E+02 -0.16585653055E+02  0.28867159770E+03  0.28975491775E+03  0.00000000000E+00 0.  1.
         21    1    1    2  504  503  0.18749324129E+02  0.16585653055E+02 -0.11975978880E+04  0.11978594752E+04  0.00000000000E+00 0.  1.
<mgrwt>
<rscale>  2 0.25032400E+02</rscale>
<asrwt>0</asrwt>
<pdfrwt beam="1">  1       21 0.44514470E-01 0.25032400E+02</pdfrwt>
<pdfrwt beam="2">  1       21 0.18434928E+00 0.25032400E+02</pdfrwt>
<totfact> 0.12699261E+03</totfact>
</mgrwt>
</event>
<event>
 4    1  0.4594485E+006  0.2389406E+02  0.7546771E-02  0.1677415E+00
         21   -1    0    0  503  501  0.00000000000E+00  0.00000000000E+00  0.11910459844E+04  0.11910459844E+04  0.00000000000E+00 0.  1.
         21   -1    0    0  504  502 -0.00000000000E+00 -0.00000000000E+00 -0.44556888794E+01  0.44556888794E+01  0.00000000000E+00 0. -1.
         21    1    1    2  503  502  0.38057694293E+01 -0.23589025836E+02  0.11579779277E+04  0.11582244200E+04  0.00000000000E+00 0.  1.
         21    1    1    2  504  501 -0.38057694293E+01  0.23589025836E+02  0.28612367839E+02  0.37277253308E+02  0.00000000000E+00 0. -1.
<mgrwt>
<rscale>  2 0.23894058E+02</rscale>
<asrwt>0</asrwt>
<pdfrwt beam="1">  1       21 0.18323759E+00 0.23894058E+02</pdfrwt>
<pdfrwt beam="2">  1       21 0.68549155E-03 0.23894058E+02</pdfrwt>
<totfact> 0.11856909E+06</totfact>
</mgrwt>
</event>
<event>
 4    1  0.4594485E+006  0.2519816E+02  0.7546771E-02  0.1658172E+00
         21   -1    0    0  504  501  0.00000000000E+00  0.00000000000E+00  0.59322929880E+02  0.59322929880E+02  0.00000000000E+00 0. -1.
         21   -1    0    0  501  502 -0.00000000000E+00 -0.00000000000E+00 -0.14487195945E+02  0.14487195945E+02  0.00000000000E+00 0. -1.
         21    1    1    2  503  502 -0.17144731539E+02 -0.18466330803E+02  0.35567603526E+01  0.25447941706E+02  0.00000000000E+00 0. -1.
         21    1    1    2  504  503  0.17144731539E+02  0.18466330803E+02  0.41278973582E+02  0.48362184120E+02  0.00000000000E+00 0. -1.
<mgrwt>
<rscale>  2 0.25198159E+02</rscale>
<asrwt>0</asrwt>
<pdfrwt beam="1">  1       21 0.91266045E-02 0.25198159E+02</pdfrwt>
<pdfrwt beam="2">  1       21 0.22287994E-02 0.25198159E+02</pdfrwt>
<totfact> 0.70302651E+07</totfact>
</mgrwt>
</event>
<event>
 4    1  0.4594485E+006  0.2018887E+02  0.7546771E-02  0.1741598E+00
         21   -1    0    0  504  501  0.00000000000E+00  0.00000000000E+00  0.35868495601E+02  0.35868495601E+02  0.00000000000E+00 0.  1.
         21   -1    0    0  503  502 -0.00000000000E+00 -0.00000000000E+00 -0.12537504153E+02  0.12537504153E+02  0.00000000000E+00 0. -1.
         21    1    1    2  503  501 -0.16252600828E+02 -0.11976781231E+02  0.42591272405E+01  0.20633237438E+02  0.00000000000E+00 0.  1.
         21    1    1    2  504  502  0.16252600828E+02  0.11976781231E+02  0.19071864208E+02  0.27772762316E+02  0.00000000000E+00 0. -1.
<mgrwt>
<rscale>  2 0.20188866E+02</rscale>
<asrwt>0</asrwt>
<pdfrwt beam="1">  1       21 0.55182301E-02 0.20188866E+02</pdfrwt>
<pdfrwt beam="2">  1       21 0.19288468E-02 0.20188866E+02</pdfrwt>
<totfact> 0.18587820E+08</totfact>
</mgrwt>
</event>
<event>
 4    1  0.4594485E+006  0.8911048E+02  0.7546771E-02  0.1305020E+00
         21   -1    0    0  504  501  0.00000000000E+00  0.00000000000E+00  0.38674522243E+03  0.38674522243E+03  0.00000000000E+00 0.  1.
         21   -1    0    0  503  502 -0.00000000000E+00 -0.00000000000E+00 -0.61491348191E+02  0.61491348191E+02  0.00000000000E+00 0.  1.
         21    1    1    2  503  501 -0.61946397321E+02  0.64057178962E+02  0.34554072931E+03  0.35684600871E+03  0.00000000000E+00 0.  1.
         21    1    1    2  504  502  0.61946397321E+02 -0.64057178962E+02 -0.20286855074E+02  0.91390561911E+02  0.00000000000E+00 0.  1.
<mgrwt>
<rscale>  2 0.89110484E+02</rscale>
<asrwt>0</asrwt>
<pdfrwt beam="1">  1       21 0.59499264E-01 0.89110484E+02</pdfrwt>
<pdfrwt beam="2">  1       21 0.94602076E-02 0.89110484E+02</pdfrwt>
<totfact> 0.24240976E+05</totfact>
</mgrwt>
</event>
<event>
 4    1  0.4594485E+006  0.4091741E+02  0.7546771E-02  0.1501567E+00
         21   -1    0    0  504  501  0.00000000000E+00  0.00000000000E+00  0.95958223238E+02  0.95958223238E+02  0.00000000000E+00 0.  1.
         21   -1    0    0  503  502 -0.00000000000E+00 -0.00000000000E+00 -0.58176961570E+02  0.58176961570E+02  0.00000000000E+00 0. -1.
         21    1    1    2  503  501 -0.20884364290E+02 -0.35186331944E+02  0.83374399688E+02  0.92873705378E+02  0.00000000000E+00 0.  1.
         21    1    1    2  504  502  0.20884364290E+02  0.35186331944E+02 -0.45593138020E+02  0.61261479430E+02  0.00000000000E+00 0. -1.
<mgrwt>
<rscale>  2 0.40917412E+02</rscale>
<asrwt>0</asrwt>
<pdfrwt beam="1">  1       21 0.14762804E-01 0.40917412E+02</pdfrwt>
<pdfrwt beam="2">  1       21 0.89503018E-02 0.40917412E+02</pdfrwt>
<totfact> 0.36336183E+06</totfact>
</mgrwt>
</event>
<event>
 4    1  0.4594485E+006  0.2131799E+02  0.7546771E-02  0.1720321E+00
         21   -1    0    0  502  501  0.00000000000E+00  0.00000000000E+00  0.26954052036E+01  0.26954052036E+01  0.00000000000E+00 0.  1.
         21   -1    0    0  504  502 -0.00000000000E+00 -0.00000000000E+00 -0.27482798691E+03  0.27482798691E+03  0.00000000000E+00 0.  1.
         21    1    1    2  503  501  0.15456418698E+01  0.21261880704E+02 -0.49798226166E+02  0.54169363196E+02  0.00000000000E+00 0.  1.
         21    1    1    2  504  503 -0.15456418698E+01 -0.21261880704E+02 -0.22233435554E+03  0.22335402891E+03  0.00000000000E+00 0.  1.
<mgrwt>
<rscale>  2 0.21317987E+02</rscale>
<asrwt>0</asrwt>
<pdfrwt beam="1">  1       21 0.41467759E-03 0.21317987E+02</pdfrwt>
<pdfrwt beam="2">  1       21 0.42281242E-01 0.21317987E+02</pdfrwt>
<totfact> 0.57371101E+07</totfact>
</mgrwt>
</event>
<event>
 4    1  0.4594485E+006  0.2523491E+02  0.7546771E-02  0.1657651E+00
         21   -1    0    0  503  501  0.00000000000E+00  0.00000000000E+00  0.97715696991E+02  0.97715696991E+02  0.00000000000E+00 0.  1.
         21   -1    0    0  501  502 -0.00000000000E+00 -0.00000000000E+00 -0.27358899127E+02  0.27358899127E+02  0.00000000000E+00 0.  1.
         21    1    1    2  503  504  0.25231816040E+02 -0.39500943435E+00  0.89761699752E+02  0.93241424890E+02  0.00000000000E+00 0.  1.
         21    1    1    2  504  502 -0.25231816040E+02  0.39500943435E+00 -0.19404901888E+02  0.31833171228E+02  0.00000000000E+00 0.  1.
<mgrwt>
<rscale>  2 0.25234908E+02</rscale>
<asrwt>0</asrwt>
<pdfrwt beam="1">  1       21 0.15033184E-01 0.25234908E+02</pdfrwt>
<pdfrwt beam="2">  1       21 0.42090614E-02 0.25234908E+02</pdfrwt>
<totfact> 0.11253908E+07</totfact>
</mgrwt>
</event>
<event>
 4    1  0.4594485E+006  0.2279261E+02  0.7546771E-02  0.1694894E+00
         21   -1    0    0  503  501  0.00000000000E+00  0.00000000000E+00  0.98383029785E+03  0.98383029785E+03  0.00000000000E+00 0.  1.
         21   -1    0    0  504  502 -0.00000000000E+00 -0.00000000000E+00 -0.25038598366E+01  0.25038598366E+01  0.00000000000E+00 0. -1.
         21    1    1    2  503  502 -0.19368304653E+02  0.12015477316E+02  0.52573954527E+02  0.57302038488E+02  0.00000000000E+00 0. -1.
         21    1    1    2  504  501  0.19368304653E+02 -0.12015477316E+02  0.92875248348E+03  0.92903211919E+03  0.00000000000E+00 0.  1.
<mgrwt>
<rscale>  2 0.22792607E+02</rscale>
<asrwt>0</asrwt>
<pdfrwt beam="1">  1       21 0.15135820E+00 0.22792607E+02</pdfrwt>
<pdfrwt beam="2">  1       21 0.38520999E-03 0.22792607E+02</pdfrwt>
<totfact> 0.44079870E+06</totfact>
</mgrwt>
</event>
<event>
 4    1  0.4594485E+006  0.2124715E+02  0.7546771E-02  0.1721607E+00
         21   -1    0    0  503  501  0.00000000000E+00  0.00000000000E+00  0.36918998687E+03  0.36918998687E+03  0.00000000000E+00 0.  1.
         21   -1    0    0  504  502 -0.00000000000E+00 -0.00000000000E+00 -0.13096891923E+01  0.13096891923E+01  0.00000000000E+00 0.  1.
         21    1    1    2  503  502  0.21075478237E+02  0.26954666744E+01  0.23165844989E+03  0.23263077769E+03  0.00000000000E+00 0.  1.
         21    1    1    2  504  501 -0.21075478237E+02 -0.26954666744E+01  0.13622184779E+03  0.13786889838E+03  0.00000000000E+00 0.  1.
<mgrwt>
<rscale>  2 0.21247149E+02</rscale>
<asrwt>0</asrwt>
<pdfrwt beam="1">  1       21 0.56798377E-01 0.21247149E+02</pdfrwt>
<pdfrwt beam="2">  1       21 0.20149094E-03 0.21247149E+02</pdfrwt>
<totfact> 0.92436565E+07</totfact>
</mgrwt>
</event>
<event>
 4    1  0.4594485E+006  0.3192121E+02  0.7546771E-02  0.1577774E+00
         21   -1    0    0  502  501  0.00000000000E+00  0.00000000000E+00  0.10984635137E+02  0.10984635137E+02  0.00000000000E+00 0. -1.
         21   -1    0    0  504  502 -0.00000000000E+00 -0.00000000000E+00 -0.10541111718E+03  0.10541111718E+03  0.00000000000E+00 0. -1.
         21    1    1    2  503  501 -0.74918465106E+01  0.31029599727E+02 -0.27053593176E+02  0.41843287719E+02  0.00000000000E+00 0. -1.
         21    1    1    2  504  503  0.74918465106E+01 -0.31029599727E+02 -0.67372888870E+02  0.74552464601E+02  0.00000000000E+00 0. -1.
<mgrwt>
<rscale>  2 0.31921213E+02</rscale>
<asrwt>0</asrwt>
<pdfrwt beam="1">  1       21 0.16899440E-02 0.31921213E+02</pdfrwt>
<pdfrwt beam="2">  1       21 0.16217094E-01 0.31921213E+02</pdfrwt>
<totfact> 0.43043205E+07</totfact>
</mgrwt>
</event>
<event>
 4    1  0.4594485E+006  0.2110490E+02  0.7546771E-02  0.1724208E+00
         21   -1    0    0  504  501  0.00000000000E+00  0.00000000000E+00  0.28054203461E+03  0.28054203461E+03  0.00000000000E+00 0. -1.
         21   -1    0    0  501  502 -0.00000000000E+00 -0.00000000000E+00 -0.15185555151E+03  0.15185555151E+03  0.00000000000E+00 0.  1.
         21    1    1    2  503  502  0.21060789464E+02 -0.13638669978E+01 -0.15072236583E+03  0.15219280058E+03  0.00000000000E+00 0.  1.
         21    1    1    2  504  503 -0.21060789464E+02  0.13638669978E+01  0.27940884892E+03  0.28020478555E+03  0.00000000000E+00 0. -1.
<mgrwt>
<rscale>  2 0.21104904E+02</rscale>
<asrwt>0</asrwt>
<pdfrwt beam="1">  1       21 0.43160313E-01 0.21104904E+02</pdfrwt>
<pdfrwt beam="2">  1       21 0.23362393E-01 0.21104904E+02</pdfrwt>
<totfact> 0.97047943E+04</totfact>
</mgrwt>
</event>
<event>
 4    1  0.4594485E+006  0.2212441E+02  0.7546771E-02  0.1706109E+00
         21   -1    0    0  502  501  0.00000000000E+00  0.00000000000E+00  0.68969248047E+02  0.68969248047E+02  0.00000000000E+00 0. -1.
         21   -1    0    0  503  502 -0.00000000000E+00 -0.00000000000E+00 -0.11161860682E+03  0.11161860682E+03  0.00000000000E+00 0.  1.
         21    1    1    2  503  504 -0.11612794729E+02 -0.18831687907E+02 -0.10870081641E+03  0.11092951347E+03  0.00000000000E+00 0.  1.
         21    1    1    2  504  501  0.11612794729E+02  0.18831687907E+02  0.66051457634E+02  0.69658341399E+02  0.00000000000E+00 0. -1.
<mgrwt>
<rscale>  2 0.22124409E+02</rscale>
<asrwt>0</asrwt>
<pdfrwt beam="1">  1       21 0.10610654E-01 0.22124409E+02</pdfrwt>
<pdfrwt beam="2">  1       21 0.17172093E-01 0.22124409E+02</pdfrwt>
<totfact> 0.19644928E+06</totfact>
</mgrwt>
</event>
<event>
 4    1  0.4594485E+006  0.2568655E+02  0.7546771E-02  0.1651332E+00
         21   -1    0    0  503  501  0.00000000000E+00  0.00000000000E+00  0.32487086494E+03  0.32487086494E+03  0.00000000000E+00 0. -1.
         21   -1    0    0  504  502 -0.00000000000E+00 -0.00000000000E+00 -0.22559488690E+01  0.22559488690E+01  0.00000000000E+00 0. -1.
         21    1    1    2  503  502 -0.46854259914E+01 -0.25255609681E+02  0.21296147517E+03  0.21450498583E+03  0.00000000000E+00 0. -1.
         21    1    1    2  504  501  0.46854259914E+01  0.25255609681E+02  0.10965344090E+03  0.11262182798E+03  0.00000000000E+00 0. -1.
<mgrwt>
<rscale>  2 0.25686554E+02</rscale>
<asrwt>0</asrwt>
<pdfrwt beam="1">  1       21 0.49980096E-01 0.25686554E+02</pdfrwt>
<pdfrwt beam="2">  1       21 0.34706932E-03 0.25686554E+02</pdfrwt>
<totfact> 0.56447609E+07</totfact>
</mgrwt>
</event>
<event>
 4    1  0.4594485E+006  0.2505241E+02  0.7546771E-02  0.1660250E+00
         21   -1    0    0  504  501  0.00000000000E+00  0.00000000000E+00  0.34471795551E+02  0.34471795551E+02  0.00000000000E+00 0. -1.
         21   -1    0    0  503  502 -0.00000000000E+00 -0.00000000000E+00 -0.57314824842E+02  0.57314824842E+02  0.00000000000E+00 0. -1.
         21    1    1    2  503  501 -0.85972743766E+00 -0.25037652767E+02  0.26488024233E+02  0.36458724815E+02  0.00000000000E+00 0. -1.
         21    1    1    2  504  502  0.85972743766E+00  0.25037652767E+02 -0.49331053524E+02  0.55327895579E+02  0.00000000000E+00 0. -1.
<mgrwt>
<rscale>  2 0.25052409E+02</rscale>
<asrwt>0</asrwt>
<pdfrwt beam="1">  1       21 0.53033533E-02 0.25052409E+02</pdfrwt>
<pdfrwt beam="2">  1       21 0.88176652E-02 0.25052409E+02</pdfrwt>
<totfact> 0.19022469E+07</totfact>
</mgrwt>
</event>
<event>
 4    1  0.4594485E+006  0.2098876E+02  0.7546771E-02  0.1726351E+00
         21   -1    0    0  504  501  0.00000000000E+00  0.00000000000E+00  0.12714370211E+04  0.12714370211E+04  0.00000000000E+00 0.  1.
         21   -1    0    0  503  502 -0.00000000000E+00 -0.00000000000E+00 -0.80609543921E+00  0.80609543921E+00  0.00000000000E+00 0.  1.
         21    1    1    2  503  501 -0.13319468006E+02  0.16220963525E+02  0.15498067304E+03  0.15639545038E+03  0.00000000000E+00 0.  1.
         21    1    1    2  504  502  0.13319468006E+02 -0.16220963525E+02  0.11156502526E+04  0.11158476661E+04  0.00000000000E+00 0.  1.
<mgrwt>
<rscale>  2 0.20988756E+02</rscale>
<asrwt>0</asrwt>
<pdfrwt beam="1">  1       21 0.19560409E+00 0.20988756E+02</pdfrwt>
<pdfrwt beam="2">  1       21 0.12401570E-03 0.20988756E+02</pdfrwt>
<totfact> 0.11960262E+07</totfact>
</mgrwt>
</event>
<event>
 4    1  0.4594485E+006  0.2534221E+02  0.7546771E-02  0.1656135E+00
         21   -1    0    0  504  501  0.00000000000E+00  0.00000000000E+00  0.55638075175E+02  0.55638075175E+02  0.00000000000E+00 0. -1.
         21   -1    0    0  503  502 -0.00000000000E+00 -0.00000000000E+00 -0.11553545551E+02  0.11553545551E+02  0.00000000000E+00 0. -1.
         21    1    1    2  503  501 -0.22255861478E+02 -0.12120407153E+02  0.21024974036E+02  0.32928364261E+02  0.00000000000E+00 0. -1.
         21    1    1    2  504  502  0.22255861478E+02  0.12120407153E+02  0.23059555588E+02  0.34263256465E+02  0.00000000000E+00 0. -1.
<mgrwt>
<rscale>  2 0.25342211E+02</rscale>
<asrwt>0</asrwt>
<pdfrwt beam="1">  1       21 0.85597037E-02 0.25342211E+02</pdfrwt>
<pdfrwt beam="2">  1       21 0.17774686E-02 0.25342211E+02</pdfrwt>
<totfact> 0.11086156E+08</totfact>
</mgrwt>
</event>
<event>
 4    1  0.4594485E+006  0.2048803E+02  0.7546771E-02  0.1735794E+00
         21   -1    0    0  504  501  0.00000000000E+00  0.00000000000E+00  0.12677516262E+02  0.12677516262E+02  0.00000000000E+00 0. -1.
         21   -1    0    0  503  502 -0.00000000000E+00 -0.00000000000E+00 -0.12983661911E+03  0.12983661911E+03  0.00000000000E+00 0.  1.
         21    1    1    2  503  501  0.15475220157E+02 -0.13426730097E+02  0.29241310831E+01  0.20695653229E+02  0.00000000000E+00 0. -1.
         21    1    1    2  504  502 -0.15475220157E+02  0.13426730097E+02 -0.12008323394E+03  0.12181848215E+03  0.00000000000E+00 0.  1.
<mgrwt>
<rscale>  2 0.20488034E+02</rscale>
<asrwt>0</asrwt>
<pdfrwt beam="1">  1       21 0.19503870E-02 0.20488034E+02</pdfrwt>
<pdfrwt beam="2">  1       21 0.19974866E-01 0.20488034E+02</pdfrwt>
<totfact> 0.21832116E+07</totfact>
</mgrwt>
</event>
<event>
 4    1  0.4594485E+006  0.2882468E+02  0.7546771E-02  0.1611456E+00
         21   -1    0    0  502  501  0.00000000000E+00  0.00000000000E+00  0.49626196831E+02  0.49626196831E+02  0.00000000000E+00 0. -1.
         21   -1    0    0  503  502 -0.00000000000E+00 -0.00000000000E+00 -0.22535683668E+02  0.22535683668E+02  0.00000000000E+00 0. -1.
         21    1    1    2  503  504 -0.17420131065E+02 -0.22965213513E+02 -0.47485718869E+01  0.29213197925E+02  0.00000000000E+00 0. -1.
         21    1    1    2  504  501  0.17420131065E+02  0.22965213513E+02  0.31839085050E+02  0.42948682574E+02  0.00000000000E+00 0. -1.
<mgrwt>
<rscale>  2 0.28824677E+02</rscale>
<asrwt>0</asrwt>
<pdfrwt beam="1">  1       21 0.76347995E-02 0.28824677E+02</pdfrwt>
<pdfrwt beam="2">  1       21 0.34670283E-02 0.28824677E+02</pdfrwt>
<totfact> 0.48858127E+07</totfact>
</mgrwt>
</event>
<event>
 4    1  0.4594485E+006  0.2399164E+02  0.7546771E-02  0.1675922E+00
         21   -1    0    0  504  501  0.00000000000E+00  0.00000000000E+00  0.12609252202E+04  0.12609252202E+04  0.00000000000E+00 0. -1.
         21   -1    0    0  503  502 -0.00000000000E+00 -0.00000000000E+00 -0.58112236914E+00  0.58112236914E+00  0.00000000000E+00 0.  1.
         21    1    1    2  503  501  0.22755613851E+02  0.76013788270E+01  0.33806487631E+03  0.33891512140E+03  0.00000000000E+00 0.  1.
         21    1    1    2  504  502 -0.22755613851E+02 -0.76013788270E+01  0.92227922153E+03  0.92259122117E+03  0.00000000000E+00 0. -1.
<mgrwt>
<rscale>  2 0.23991643E+02</rscale>
<asrwt>0</asrwt>
<pdfrwt beam="1">  1       21 0.19398631E+00 0.23991643E+02</pdfrwt>
<pdfrwt beam="2">  1       21 0.89404451E-04 0.23991643E+02</pdfrwt>
<totfact> 0.19829695E+07</totfact>
</mgrwt>
</event>
<event>
 4    1  0.4594485E+006  0.2133687E+02  0.7546771E-02  0.1719979E+00
         21   -1    0    0  503  501  0.00000000000E+00  0.00000000000E+00  0.28295584726E+01  0.28295584726E+01  0.00000000000E+00 0. -1.
         21   -1    0    0  504  502 -0.00000000000E+00 -0.00000000000E+00 -0.25078453769E+03  0.25078453769E+03  0.00000000000E+00 0. -1.
         21    1    1    2  503  502 -0.20926002930E+02  0.41670551901E+01 -0.19989596379E+03  0.20103148581E+03  0.00000000000E+00 0. -1.
         21    1    1    2  504  501  0.20926002930E+02 -0.41670551901E+01 -0.48059015426E+02  0.52582610351E+02  0.00000000000E+00 0. -1.
<mgrwt>
<rscale>  2 0.21336868E+02</rscale>
<asrwt>0</asrwt>
<pdfrwt beam="1">  1       21 0.43531652E-03 0.21336868E+02</pdfrwt>
<pdfrwt beam="2">  1       21 0.38582252E-01 0.21336868E+02</pdfrwt>
<totfact> 0.63482348E+07</totfact>
</mgrwt>
</event>
<event>
 4    1  0.4594485E+006  0.2938394E+02  0.7546771E-02  0.1605000E+00
         21   -1    0    0  504  501  0.00000000000E+00  0.00000000000E+00  0.38589570667E+02  0.38589570667E+02  0.00000000000E+00 0.  1.
         21   -1    0    0  503  502 -0.00000000000E+00 -0.00000000000E+00 -0.77780004821E+02  0.77780004821E+02  0.00000000000E+00 0. -1.
         21    1    1    2  503  501  0.52693525276E+01 -0.28907609510E+02 -0.68703254500E+02  0.74723176743E+02  0.00000000000E+00 0. -1.
         21    1    1    2  504  502 -0.52693525276E+01  0.28907609510E+02  0.29512820346E+02  0.41646398745E+02  0.00000000000E+00 0.  1.
<mgrwt>
<rscale>  2 0.29383941E+02</rscale>
<asrwt>0</asrwt>
<pdfrwt beam="1">  1       21 0.59368571E-02 0.29383941E+02</pdfrwt>
<pdfrwt beam="2">  1       21 0.11966155E-01 0.29383941E+02</pdfrwt>
<totfact> 0.98174062E+06</totfact>
</mgrwt>
</event>
<event>
 4    1  0.4594485E+006  0.2491400E+02  0.7546771E-02  0.1662240E+00
         21   -1    0    0  502  501  0.00000000000E+00  0.00000000000E+00  0.14707077067E+03  0.14707077067E+03  0.00000000000E+00 0. -1.
         21   -1    0    0  504  502 -0.00000000000E+00 -0.00000000000E+00 -0.25672327114E+03  0.25672327114E+03  0.00000000000E+00 0. -1.
         21    1    1    2  503  501  0.67012537885E+01  0.23995840887E+02  0.14540432519E+03  0.14752330313E+03  0.00000000000E+00 0. -1.
         21    1    1    2  504  503 -0.67012537885E+01 -0.23995840887E+02 -0.25505682567E+03  0.25627073868E+03  0.00000000000E+00 0. -1.
<mgrwt>
<rscale>  2 0.24913996E+02</rscale>
<asrwt>0</asrwt>
<pdfrwt beam="1">  1       21 0.22626272E-01 0.24913996E+02</pdfrwt>
<pdfrwt beam="2">  1       21 0.39495888E-01 0.24913996E+02</pdfrwt>
<totfact> 0.12148275E+05</totfact>
</mgrwt>
</event>
<event>
 4    1  0.4594485E+006  0.3451907E+02  0.7546771E-02  0.1552913E+00
         21   -1    0    0  502  501  0.00000000000E+00  0.00000000000E+00  0.90893875036E+02  0.90893875036E+02  0.00000000000E+00 0. -1.
         21   -1    0    0  503  502 -0.00000000000E+00 -0.00000000000E+00 -0.28981360380E+02  0.28981360380E+02  0.00000000000E+00 0. -1.
         21    1    1    2  503  504  0.32280501196E+02  0.12228462090E+02 -0.13400020655E+02  0.37028726633E+02  0.00000000000E+00 0. -1.
         21    1    1    2  504  501 -0.32280501196E+02 -0.12228462090E+02  0.75312535311E+02  0.82846508783E+02  0.00000000000E+00 0. -1.
<mgrwt>
<rscale>  2 0.34519068E+02</rscale>
<asrwt>0</asrwt>
<pdfrwt beam="1">  1       21 0.13983673E-01 0.34519068E+02</pdfrwt>
<pdfrwt beam="2">  1       21 0.44586709E-02 0.34519068E+02</pdfrwt>
<totfact> 0.12257044E+07</totfact>
</mgrwt>
</event>
<event>
 4    1  0.4594485E+006  0.2310078E+02  0.7546771E-02  0.1689882E+00
         21   -1    0    0  502  501  0.00000000000E+00  0.00000000000E+00  0.95754095032E+01  0.95754095032E+01  0.00000000000E+00 0. -1.
         21   -1    0    0  503  502 -0.00000000000E+00 -0.00000000000E+00 -0.55822489763E+02  0.55822489763E+02  0.00000000000E+00 0. -1.
         21    1    1    2  503  504 -0.16485924671E+02  0.16182092226E+02 -0.21798759834E+02  0.31762111885E+02  0.00000000000E+00 0. -1.
         21    1    1    2  504  501  0.16485924671E+02 -0.16182092226E+02 -0.24448320425E+02  0.33635787380E+02  0.00000000000E+00 0. -1.
<mgrwt>
<rscale>  2 0.23100775E+02</rscale>
<asrwt>0</asrwt>
<pdfrwt beam="1">  1       21 0.14731399E-02 0.23100775E+02</pdfrwt>
<pdfrwt beam="2">  1       21 0.85880753E-02 0.23100775E+02</pdfrwt>
<totfact> 0.14304446E+08</totfact>
</mgrwt>
</event>
<event>
 4    1  0.4594485E+006  0.3309894E+02  0.7546771E-02  0.1566161E+00
         21   -1    0    0  504  501  0.00000000000E+00  0.00000000000E+00  0.47319822068E+01  0.47319822068E+01  0.00000000000E+00 0. -1.
         21   -1    0    0  503  502 -0.00000000000E+00 -0.00000000000E+00 -0.23545714322E+03  0.23545714322E+03  0.00000000000E+00 0. -1.
         21    1    1    2  503  501  0.43667547282E+01  0.32809617128E+02 -0.99829311545E+02  0.10517333772E+03  0.00000000000E+00 0. -1.
         21    1    1    2  504  502 -0.43667547282E+01 -0.32809617128E+02 -0.13089584947E+03  0.13501578771E+03  0.00000000000E+00 0. -1.
<mgrwt>
<rscale>  2 0.33098935E+02</rscale>
<asrwt>0</asrwt>
<pdfrwt beam="1">  1       21 0.72799725E-03 0.33098935E+02</pdfrwt>
<pdfrwt beam="2">  1       21 0.36224177E-01 0.33098935E+02</pdfrwt>
<totfact> 0.36664691E+07</totfact>
</mgrwt>
</event>
<event>
 4    1  0.4594485E+006  0.2435272E+02  0.7546771E-02  0.1670477E+00
         21   -1    0    0  504  501  0.00000000000E+00  0.00000000000E+00  0.73408274685E+01  0.73408274685E+01  0.00000000000E+00 0.  1.
         21   -1    0    0  503  502 -0.00000000000E+00 -0.00000000000E+00 -0.47010071683E+03  0.47010071683E+03  0.00000000000E+00 0.  1.
         21    1    1    2  503  501  0.22200954814E+02  0.10008629057E+02 -0.44862191028E+03  0.44928239831E+03  0.00000000000E+00 0.  1.
         21    1    1    2  504  502 -0.22200954814E+02 -0.10008629057E+02 -0.14137979086E+02  0.28159145991E+02  0.00000000000E+00 0.  1.
<mgrwt>
<rscale>  2 0.24352722E+02</rscale>
<asrwt>0</asrwt>
<pdfrwt beam="1">  1       21 0.11293579E-02 0.24352722E+02</pdfrwt>
<pdfrwt beam="2">  1       21 0.72323195E-01 0.24352722E+02</pdfrwt>
<totfact> 0.46009909E+06</totfact>
</mgrwt>
</event>
<event>
 4    1  0.4594485E+006  0.2371973E+02  0.7546771E-02  0.1680102E+00
         21   -1    0    0  504  501  0.00000000000E+00  0.00000000000E+00  0.36082450649E+03  0.36082450649E+03  0.00000000000E+00 0.  1.
         21   -1    0    0  503  502 -0.00000000000E+00 -0.00000000000E+00 -0.31209534832E+01  0.31209534832E+01  0.00000000000E+00 0.  1.
         21    1    1    2  503  501  0.17101554295E+02  0.16436621087E+02  0.30757534632E+03  0.30848860487E+03  0.00000000000E+00 0.  1.
         21    1    1    2  504  502 -0.17101554295E+02 -0.16436621087E+02  0.50128206685E+02  0.55456855100E+02  0.00000000000E+00 0.  1.
<mgrwt>
<rscale>  2 0.23719732E+02</rscale>
<asrwt>0</asrwt>
<pdfrwt beam="1">  1       21 0.55511430E-01 0.23719732E+02</pdfrwt>
<pdfrwt beam="2">  1       21 0.48014697E-03 0.23719732E+02</pdfrwt>
<totfact> 0.28006169E+07</totfact>
</mgrwt>
</event>
<event>
 4    1  0.4594485E+006  0.2430250E+02  0.7546771E-02  0.1671227E+00
         21   -1    0    0  502  501  0.00000000000E+00  0.00000000000E+00  0.74015623469E+01  0.74015623469E+01  0.00000000000E+00 0. -1.
         21   -1    0    0  503  502 -0.00000000000E+00 -0.00000000000E+00 -0.71217452273E+03  0.71217452273E+03  0.00000000000E+00 0. -1.
         21    1    1    2  503  504  0.63075206424E+01 -0.23469693599E+02 -0.69141968745E+03  0.69184665608E+03  0.00000000000E+00 0. -1.
         21    1    1    2  504  501 -0.63075206424E+01  0.23469693599E+02 -0.13353272924E+02  0.27729428989E+02  0.00000000000E+00 0. -1.
<mgrwt>
<rscale>  2 0.24302496E+02</rscale>
<asrwt>0</asrwt>
<pdfrwt beam="1">  1       21 0.11387011E-02 0.24302496E+02</pdfrwt>
<pdfrwt beam="2">  1       21 0.10956539E+00 0.24302496E+02</pdfrwt>
<totfact> 0.18627710E+06</totfact>
</mgrwt>
</event>
<event>
 4    1  0.4594485E+006  0.3694401E+02  0.7546771E-02  0.1531985E+00
         21   -1    0    0  503  501  0.00000000000E+00  0.00000000000E+00  0.75907229609E+01  0.75907229609E+01  0.00000000000E+00 0.  1.
         21   -1    0    0  504  502 -0.00000000000E+00 -0.00000000000E+00 -0.24906744573E+03  0.24906744573E+03  0.00000000000E+00 0.  1.
         21    1    1    2  503  502  0.36915491185E+02  0.14512469199E+01 -0.53065968779E+02  0.64659544148E+02  0.00000000000E+00 0.  1.
         21    1    1    2  504  501 -0.36915491185E+02 -0.14512469199E+01 -0.18841075399E+03  0.19199862454E+03  0.00000000000E+00 0.  1.
<mgrwt>
<rscale>  2 0.36944006E+02</rscale>
<asrwt>0</asrwt>
<pdfrwt beam="1">  1       21 0.11678035E-02 0.36944006E+02</pdfrwt>
<pdfrwt beam="2">  1       21 0.38318071E-01 0.36944006E+02</pdfrwt>
<totfact> 0.16373081E+07</totfact>
</mgrwt>
</event>
<event>
 4    1  0.4594485E+006  0.2012906E+02  0.7546771E-02  0.1742774E+00
         21   -1    0    0  504  501  0.00000000000E+00  0.00000000000E+00  0.15330400994E+03  0.15330400994E+03  0.00000000000E+00 0.  1.
         21   -1    0    0  503  502 -0.00000000000E+00 -0.00000000000E+00 -0.65551549717E+01  0.65551549717E+01  0.00000000000E+00 0.  1.
         21    1    1    2  503  501 -0.15896140991E+02 -0.12348754973E+02  0.11626080360E+02  0.23245317643E+02  0.00000000000E+00 0.  1.
         21    1    1    2  504  502  0.15896140991E+02  0.12348754973E+02  0.13512277461E+03  0.13661384727E+03  0.00000000000E+00 0.  1.
<mgrwt>
<rscale>  2 0.20129060E+02</rscale>
<asrwt>0</asrwt>
<pdfrwt beam="1">  1       21 0.23585230E-01 0.20129060E+02</pdfrwt>
<pdfrwt beam="2">  1       21 0.10084855E-02 0.20129060E+02</pdfrwt>
<totfact> 0.44015612E+07</totfact>
</mgrwt>
</event>
<event>
 4    1  0.4594485E+006  0.2021269E+02  0.7546771E-02  0.1741131E+00
         21   -1    0    0  504  501  0.00000000000E+00  0.00000000000E+00  0.13306352018E+03  0.13306352018E+03  0.00000000000E+00 0. -1.
         21   -1    0    0  503  502 -0.00000000000E+00 -0.00000000000E+00 -0.16871826851E+02  0.16871826851E+02  0.00000000000E+00 0.  1.
         21    1    1    2  503  501 -0.10773523823E+02 -0.17102168393E+02 -0.97081968230E+01  0.22423248312E+02  0.00000000000E+00 0.  1.
         21    1    1    2  504  502  0.10773523823E+02  0.17102168393E+02  0.12589989015E+03  0.12751209872E+03  0.00000000000E+00 0. -1.
<mgrwt>
<rscale>  2 0.20212694E+02</rscale>
<asrwt>0</asrwt>
<pdfrwt beam="1">  1       21 0.20471310E-01 0.20212694E+02</pdfrwt>
<pdfrwt beam="2">  1       21 0.25956658E-02 0.20212694E+02</pdfrwt>
<totfact> 0.13456523E+07</totfact>
</mgrwt>
</event>
<event>
 4    1  0.4594485E+006  0.2335463E+02  0.7546771E-02  0.1685825E+00
         21   -1    0    0  503  501  0.00000000000E+00  0.00000000000E+00  0.71472516360E+02  0.71472516360E+02  0.00000000000E+00 0.  1.
         21   -1    0    0  504  502 -0.00000000000E+00 -0.00000000000E+00 -0.79742107819E+01  0.79742107819E+01  0.00000000000E+00 0.  1.
         21    1    1    2  503  502 -0.17434953856E+02 -0.15539022742E+02  0.39984815100E+02  0.46305769428E+02  0.00000000000E+00 0.  1.
         21    1    1    2  504  501  0.17434953856E+02  0.15539022742E+02  0.23513490477E+02  0.33140957713E+02  0.00000000000E+00 0.  1.
<mgrwt>
<rscale>  2 0.23354632E+02</rscale>
<asrwt>0</asrwt>
<pdfrwt beam="1">  1       21 0.10995771E-01 0.23354632E+02</pdfrwt>
<pdfrwt beam="2">  1       21 0.12268017E-02 0.23354632E+02</pdfrwt>
<totfact> 0.12589310E+08</totfact>
</mgrwt>
</event>
<event>
 4    1  0.4594485E+006  0.3818023E+02  0.7546771E-02  0.1522047E+00
         21   -1    0    0  503  501  0.00000000000E+00  0.00000000000E+00  0.13467544390E+02  0.13467544390E+02  0.00000000000E+00 0. -1.
         21   -1    0    0  504  502 -0.00000000000E+00 -0.00000000000E+00 -0.11193538424E+03  0.11193538424E+03  0.00000000000E+00 0. -1.
         21    1    1    2  503  502  0.15328228569E+02 -0.34968201146E+02 -0.37841601812E+02  0.53756083472E+02  0.00000000000E+00 0. -1.
         21    1    1    2  504  501 -0.15328228569E+02  0.34968201146E+02 -0.60626238036E+02  0.71646845157E+02  0.00000000000E+00 0. -1.
<mgrwt>
<rscale>  2 0.38180226E+02</rscale>
<asrwt>0</asrwt>
<pdfrwt beam="1">  1       21 0.20719300E-02 0.38180226E+02</pdfrwt>
<pdfrwt beam="2">  1       21 0.17220828E-01 0.38180226E+02</pdfrwt>
<totfact> 0.29217235E+07</totfact>
</mgrwt>
</event>
<event>
 4    1  0.4594485E+006  0.2305080E+02  0.7546771E-02  0.1690688E+00
         21   -1    0    0  503  501  0.00000000000E+00  0.00000000000E+00  0.94417751558E+03  0.94417751558E+03  0.00000000000E+00 0. -1.
         21   -1    0    0  504  502 -0.00000000000E+00 -0.00000000000E+00 -0.48003207160E+01  0.48003207160E+01  0.00000000000E+00 0.  1.
         21    1    1    2  503  502 -0.43417809910E+01  0.22638204318E+02  0.23879180150E+02  0.33189676129E+02  0.00000000000E+00 0.  1.
         21    1    1    2  504  501  0.43417809910E+01 -0.22638204318E+02  0.91549801471E+03  0.91578816016E+03  0.00000000000E+00 0. -1.
<mgrwt>
<rscale>  2 0.23050799E+02</rscale>
<asrwt>0</asrwt>
<pdfrwt beam="1">  1       21 0.14525793E+00 0.23050799E+02</pdfrwt>
<pdfrwt beam="2">  1       21 0.73851163E-03 0.23050799E+02</pdfrwt>
<totfact> 0.18596391E+06</totfact>
</mgrwt>
</event>
<event>
 4    1  0.4594485E+006  0.2203023E+02  0.7546771E-02  0.1707730E+00
         21   -1    0    0  504  501  0.00000000000E+00  0.00000000000E+00  0.79842677089E+01  0.79842677089E+01  0.00000000000E+00 0.  1.
         21   -1    0    0  503  502 -0.00000000000E+00 -0.00000000000E+00 -0.35059320544E+03  0.35059320544E+03  0.00000000000E+00 0.  1.
         21    1    1    2  503  501 -0.15873207181E+01  0.21972968787E+02 -0.33431134302E+03  0.33503642342E+03  0.00000000000E+00 0.  1.
         21    1    1    2  504  502  0.15873207181E+01 -0.21972968787E+02 -0.82975947070E+01  0.23541049728E+02  0.00000000000E+00 0.  1.
<mgrwt>
<rscale>  2 0.22030228E+02</rscale>
<asrwt>0</asrwt>
<pdfrwt beam="1">  1       21 0.12283491E-02 0.22030228E+02</pdfrwt>
<pdfrwt beam="2">  1       21 0.53937407E-01 0.22030228E+02</pdfrwt>
<totfact> 0.72011391E+06</totfact>
</mgrwt>
</event>
<event>
 4    1  0.4594485E+006  0.2532635E+02  0.7546771E-02  0.1656358E+00
         21   -1    0    0  504  501  0.00000000000E+00  0.00000000000E+00  0.23628932124E+02  0.23628932124E+02  0.00000000000E+00 0. -1.
         21   -1    0    0  501  502 -0.00000000000E+00 -0.00000000000E+00 -0.31710480495E+02  0.31710480495E+02  0.00000000000E+00 0. -1.
         21    1    1    2  503  502  0.19319611534E+02 -0.16376094802E+02 -0.14538933325E+02  0.29202815840E+02  0.00000000000E+00 0. -1.
         21    1    1    2  504  503 -0.19319611534E+02  0.16376094802E+02  0.64573849536E+01  0.26136596779E+02  0.00000000000E+00 0. -1.
<mgrwt>
<rscale>  2 0.25326347E+02</rscale>
<asrwt>0</asrwt>
<pdfrwt beam="1">  1       21 0.36352203E-02 0.25326347E+02</pdfrwt>
<pdfrwt beam="2">  1       21 0.48785355E-02 0.25326347E+02</pdfrwt>
<totfact> 0.90648958E+07</totfact>
</mgrwt>
</event>
<event>
 4    1  0.4594485E+006  0.2161865E+02  0.7546771E-02  0.1714932E+00
         21   -1    0    0  504  501  0.00000000000E+00  0.00000000000E+00  0.20487435936E+03  0.20487435936E+03  0.00000000000E+00 0. -1.
         21   -1    0    0  503  502 -0.00000000000E+00 -0.00000000000E+00 -0.45372299323E+01  0.45372299323E+01  0.00000000000E+00 0. -1.
         21    1    1    2  503  501  0.14738526910E+02 -0.15815878571E+02  0.17400055163E+03  0.17533841039E+03  0.00000000000E+00 0. -1.
         21    1    1    2  504  502 -0.14738526910E+02  0.15815878571E+02  0.26336577799E+02  0.34073178904E+02  0.00000000000E+00 0. -1.
<mgrwt>
<rscale>  2 0.21618654E+02</rscale>
<asrwt>0</asrwt>
<pdfrwt beam="1">  1       21 0.31519125E-01 0.21618654E+02</pdfrwt>
<pdfrwt beam="2">  1       21 0.69803553E-03 0.21618654E+02</pdfrwt>
<totfact> 0.46100095E+07</totfact>
</mgrwt>
</event>
<event>
 4    1  0.4594485E+006  0.3444415E+02  0.7546771E-02  0.1553593E+00
         21   -1    0    0  504  501  0.00000000000E+00  0.00000000000E+00  0.35195894758E+02  0.35195894758E+02  0.00000000000E+00 0. -1.
         21   -1    0    0  501  502 -0.00000000000E+00 -0.00000000000E+00 -0.27698716620E+03  0.27698716620E+03  0.00000000000E+00 0. -1.
         21    1    1    2  503  502  0.30250025720E+02  0.16472262049E+02 -0.26718123072E+03  0.26939229671E+03  0.00000000000E+00 0. -1.
         21    1    1    2  504  503 -0.30250025720E+02 -0.16472262049E+02  0.25389959282E+02  0.42790764253E+02  0.00000000000E+00 0. -1.
<mgrwt>
<rscale>  2 0.34444150E+02</rscale>
<asrwt>0</asrwt>
<pdfrwt beam="1">  1       21 0.54147532E-02 0.34444150E+02</pdfrwt>
<pdfrwt beam="2">  1       21 0.42613409E-01 0.34444150E+02</pdfrwt>
<totfact> 0.11859519E+06</totfact>
</mgrwt>
</event>
<event>
 4    1  0.4594485E+006  0.2564784E+02  0.7546771E-02  0.1651867E+00
         21   -1    0    0  503  501  0.00000000000E+00  0.00000000000E+00  0.14655566333E+03  0.14655566333E+03  0.00000000000E+00 0. -1.
         21   -1    0    0  504  502 -0.00000000000E+00 -0.00000000000E+00 -0.64443375501E+01  0.64443375501E+01  0.00000000000E+00 0. -1.
         21    1    1    2  503  502 -0.35996219192E+01  0.25393979300E+02  0.11220021464E+03  0.11509430754E+03  0.00000000000E+00 0. -1.
         21    1    1    2  504  501  0.35996219192E+01 -0.25393979300E+02  0.27911111142E+02  0.37905693343E+02  0.00000000000E+00 0. -1.
<mgrwt>
<rscale>  2 0.25647835E+02</rscale>
<asrwt>0</asrwt>
<pdfrwt beam="1">  1       21 0.22547023E-01 0.25647835E+02</pdfrwt>
<pdfrwt beam="2">  1       21 0.99143666E-03 0.25647835E+02</pdfrwt>
<totfact> 0.51908777E+07</totfact>
</mgrwt>
</event>
<event>
 4    1  0.4594485E+006  0.2205464E+02  0.7546771E-02  0.1707309E+00
         21   -1    0    0  502  501  0.00000000000E+00  0.00000000000E+00  0.18438893258E+01  0.18438893258E+01  0.00000000000E+00 0. -1.
         21   -1    0    0  503  502 -0.00000000000E+00 -0.00000000000E+00 -0.53439296739E+03  0.53439296739E+03  0.00000000000E+00 0.  1.
         21    1    1    2  503  504  0.15898009741E+02  0.15285950914E+02 -0.45706617665E+03  0.45759796421E+03  0.00000000000E+00 0.  1.
         21    1    1    2  504  501 -0.15898009741E+02 -0.15285950914E+02 -0.75482901413E+02  0.78638892507E+02  0.00000000000E+00 0. -1.
<mgrwt>
<rscale>  2 0.22054637E+02</rscale>
<asrwt>0</asrwt>
<pdfrwt beam="1">  1       21 0.28367493E-03 0.22054637E+02</pdfrwt>
<pdfrwt beam="2">  1       21 0.82214405E-01 0.22054637E+02</pdfrwt>
<totfact> 0.26760265E+07</totfact>
</mgrwt>
</event>
<event>
 4    1  0.4594485E+006  0.2177800E+02  0.7546771E-02  0.1712120E+00
         21   -1    0    0  502  501  0.00000000000E+00  0.00000000000E+00  0.57025659815E+02  0.57025659815E+02  0.00000000000E+00 0.  1.
         21   -1    0    0  504  502 -0.00000000000E+00 -0.00000000000E+00 -0.43918883896E+02  0.43918883896E+02  0.00000000000E+00 0. -1.
         21    1    1    2  503  501 -0.11983362294E+02 -0.18184622755E+02  0.51996053300E+02  0.56372608911E+02  0.00000000000E+00 0.  1.
         21    1    1    2  504  503  0.11983362294E+02  0.18184622755E+02 -0.38889277381E+02  0.44571934801E+02  0.00000000000E+00 0. -1.
<mgrwt>
<rscale>  2 0.21778004E+02</rscale>
<asrwt>0</asrwt>
<pdfrwt beam="1">  1       21 0.87731785E-02 0.21778004E+02</pdfrwt>
<pdfrwt beam="2">  1       21 0.67567513E-02 0.21778004E+02</pdfrwt>
<totfact> 0.12619479E+07</totfact>
</mgrwt>
</event>
<event>
 4    1  0.4594485E+006  0.2379795E+02  0.7546771E-02  0.1678893E+00
         21   -1    0    0  503  501  0.00000000000E+00  0.00000000000E+00  0.15398537561E+01  0.15398537561E+01  0.00000000000E+00 0.  1.
         21   -1    0    0  501  502 -0.00000000000E+00 -0.00000000000E+00 -0.37466873347E+03  0.37466873347E+03  0.00000000000E+00 0.  1.
         21    1    1    2  503  504  0.18524333037E+02  0.14939588528E+02 -0.21205276992E+03  0.21338397187E+03  0.00000000000E+00 0.  1.
         21    1    1    2  504  502 -0.18524333037E+02 -0.14939588528E+02 -0.16107610979E+03  0.16282461535E+03  0.00000000000E+00 0.  1.
<mgrwt>
<rscale>  2 0.23797946E+02</rscale>
<asrwt>0</asrwt>
<pdfrwt beam="1">  1       21 0.23690052E-03 0.23797946E+02</pdfrwt>
<pdfrwt beam="2">  1       21 0.57641357E-01 0.23797946E+02</pdfrwt>
<totfact> 0.73101657E+07</totfact>
</mgrwt>
</event>
<event>
 4    1  0.4594485E+006  0.2867087E+02  0.7546771E-02  0.1613263E+00
         21   -1    0    0  504  501  0.00000000000E+00  0.00000000000E+00  0.45601023432E+03  0.45601023432E+03  0.00000000000E+00 0.  1.
         21   -1    0    0  503  502 -0.00000000000E+00 -0.00000000000E+00 -0.19010762719E+01  0.19010762719E+01  0.00000000000E+00 0.  1.
         21    1    1    2  503  501 -0.23142395715E+02 -0.16924780273E+02  0.17495350160E+03  0.17728718620E+03  0.00000000000E+00 0.  1.
         21    1    1    2  504  502  0.23142395715E+02  0.16924780273E+02  0.27915565645E+03  0.28062412440E+03  0.00000000000E+00 0.  1.
<mgrwt>
<rscale>  2 0.28670868E+02</rscale>
<asrwt>0</asrwt>
<pdfrwt beam="1">  1       21 0.70155334E-01 0.28670868E+02</pdfrwt>
<pdfrwt beam="2">  1       21 0.29247364E-03 0.28670868E+02</pdfrwt>
<totfact> 0.37552529E+07</totfact>
</mgrwt>
</event>
<event>
 4    1  0.4594485E+006  0.2736503E+02  0.7546771E-02  0.1629185E+00
         21   -1    0    0  504  501  0.00000000000E+00  0.00000000000E+00  0.29938987451E+02  0.29938987451E+02  0.00000000000E+00 0.  1.
         21   -1    0    0  501  502 -0.00000000000E+00 -0.00000000000E+00 -0.32839571201E+02  0.32839571201E+02  0.00000000000E+00 0. -1.
         21    1    1    2  503  502  0.27062772593E+02 -0.40559889464E+01 -0.16774786308E+02  0.32097323291E+02  0.00000000000E+00 0. -1.
         21    1    1    2  504  503 -0.27062772593E+02  0.40559889464E+01  0.13874202558E+02  0.30681235362E+02  0.00000000000E+00 0.  1.
<mgrwt>
<rscale>  2 0.27365027E+02</rscale>
<asrwt>0</asrwt>
<pdfrwt beam="1">  1       21 0.46059980E-02 0.27365027E+02</pdfrwt>
<pdfrwt beam="2">  1       21 0.50522417E-02 0.27365027E+02</pdfrwt>
<totfact> 0.60054230E+07</totfact>
</mgrwt>
</event>
<event>
 4    1  0.4594485E+006  0.2389929E+02  0.7546771E-02  0.1677334E+00
         21   -1    0    0  503  501  0.00000000000E+00  0.00000000000E+00  0.85813074545E+02  0.85813074545E+02  0.00000000000E+00 0. -1.
         21   -1    0    0  504  502 -0.00000000000E+00 -0.00000000000E+00 -0.11804077578E+02  0.11804077578E+02  0.00000000000E+00 0. -1.
         21    1    1    2  503  502 -0.22045770538E+02 -0.92282188166E+01  0.69237488128E+02  0.73246199788E+02  0.00000000000E+00 0. -1.
         21    1    1    2  504  501  0.22045770538E+02  0.92282188166E+01  0.47715088393E+01  0.24370952336E+02  0.00000000000E+00 0. -1.
<mgrwt>
<rscale>  2 0.23899289E+02</rscale>
<asrwt>0</asrwt>
<pdfrwt beam="1">  1       21 0.13202011E-01 0.23899289E+02</pdfrwt>
<pdfrwt beam="2">  1       21 0.18160120E-02 0.23899289E+02</pdfrwt>
<totfact> 0.51335120E+07</totfact>
</mgrwt>
</event>
<event>
 4    1  0.4594485E+006  0.2275008E+02  0.7546771E-02  0.1695594E+00
         21   -1    0    0  504  501  0.00000000000E+00  0.00000000000E+00  0.29853719724E+01  0.29853719724E+01  0.00000000000E+00 0. -1.
         21   -1    0    0  503  502 -0.00000000000E+00 -0.00000000000E+00 -0.46843747130E+03  0.46843747130E+03  0.00000000000E+00 0.  1.
         21    1    1    2  503  501 -0.70957112605E+01 -0.21615202964E+02 -0.45650336842E+02  0.51005091621E+02  0.00000000000E+00 0. -1.
         21    1    1    2  504  502  0.70957112605E+01  0.21615202964E+02 -0.41980176249E+03  0.42041775166E+03  0.00000000000E+00 0.  1.
<mgrwt>
<rscale>  2 0.22750080E+02</rscale>
<asrwt>0</asrwt>
<pdfrwt beam="1">  1       21 0.45928799E-03 0.22750080E+02</pdfrwt>
<pdfrwt beam="2">  1       21 0.72067305E-01 0.22750080E+02</pdfrwt>
<totfact> 0.17510413E+07</totfact>
</mgrwt>
</event>
<event>
 4    1  0.4594485E+006  0.2537018E+02  0.7546771E-02  0.1655741E+00
         21   -1    0    0  503  501  0.00000000000E+00  0.00000000000E+00  0.28832659182E+02  0.28832659182E+02  0.00000000000E+00 0.  1.
         21   -1    0    0  501  502 -0.00000000000E+00 -0.00000000000E+00 -0.35942118023E+02  0.35942118023E+02  0.00000000000E+00 0.  1.
         21    1    1    2  503  504  0.15060671248E+02 -0.20416229697E+02  0.16381379838E+02  0.30199269178E+02  0.00000000000E+00 0.  1.
         21    1    1    2  504  502 -0.15060671248E+02  0.20416229697E+02 -0.23490838678E+02  0.34575508027E+02  0.00000000000E+00 0.  1.
<mgrwt>
<rscale>  2 0.25370184E+02</rscale>
<asrwt>0</asrwt>
<pdfrwt beam="1">  1       21 0.44357937E-02 0.25370184E+02</pdfrwt>
<pdfrwt beam="2">  1       21 0.55295566E-02 0.25370184E+02</pdfrwt>
<totfact> 0.54163480E+07</totfact>
</mgrwt>
</event>
<event>
 4    1  0.4594485E+006  0.2214206E+02  0.7546771E-02  0.1705807E+00
         21   -1    0    0  504  501  0.00000000000E+00  0.00000000000E+00  0.64136805601E+03  0.64136805601E+03  0.00000000000E+00 0.  1.
         21   -1    0    0  503  502 -0.00000000000E+00 -0.00000000000E+00 -0.18094933398E+01  0.18094933398E+01  0.00000000000E+00 0.  1.
         21    1    1    2  503  501 -0.22086602633E+02 -0.15661492975E+01  0.56417690523E+03  0.56461123903E+03  0.00000000000E+00 0.  1.
         21    1    1    2  504  502  0.22086602633E+02  0.15661492975E+01  0.75381657440E+02  0.78566310323E+02  0.00000000000E+00 0.  1.
<mgrwt>
<rscale>  2 0.22142060E+02</rscale>
<asrwt>0</asrwt>
<pdfrwt beam="1">  1       21 0.98671827E-01 0.22142060E+02</pdfrwt>
<pdfrwt beam="2">  1       21 0.27838410E-03 0.22142060E+02</pdfrwt>
<totfact> 0.18631594E+07</totfact>
</mgrwt>
</event>
<event>
 4    1  0.4594485E+006  0.2705952E+02  0.7546771E-02  0.1633069E+00
         21   -1    0    0  504  501  0.00000000000E+00  0.00000000000E+00  0.11230405750E+02  0.11230405750E+02  0.00000000000E+00 0.  1.
         21   -1    0    0  503  502 -0.00000000000E+00 -0.00000000000E+00 -0.39500416663E+03  0.39500416663E+03  0.00000000000E+00 0. -1.
         21    1    1    2  503  501  0.47907829958E+01  0.26632047962E+02 -0.62884061282E+01  0.27780598122E+02  0.00000000000E+00 0.  1.
         21    1    1    2  504  502 -0.47907829958E+01 -0.26632047962E+02 -0.37748535475E+03  0.37845397426E+03  0.00000000000E+00 0. -1.
<mgrwt>
<rscale>  2 0.27059519E+02</rscale>
<asrwt>0</asrwt>
<pdfrwt beam="1">  1       21 0.17277548E-02 0.27059519E+02</pdfrwt>
<pdfrwt beam="2">  1       21 0.60769870E-01 0.27059519E+02</pdfrwt>
<totfact> 0.34824478E+06</totfact>
</mgrwt>
</event>
<event>
 4    1  0.4594485E+006  0.2035389E+02  0.7546771E-02  0.1738381E+00
         21   -1    0    0  504  501  0.00000000000E+00  0.00000000000E+00  0.31783134985E+01  0.31783134985E+01  0.00000000000E+00 0. -1.
         21   -1    0    0  503  502 -0.00000000000E+00 -0.00000000000E+00 -0.37901385354E+03  0.37901385354E+03  0.00000000000E+00 0. -1.
         21    1    1    2  503  501  0.32844403024E+01 -0.20087140967E+02 -0.34270458950E+03  0.34330848584E+03  0.00000000000E+00 0. -1.
         21    1    1    2  504  502 -0.32844403024E+01  0.20087140967E+02 -0.33130950541E+02  0.38883681205E+02  0.00000000000E+00 0. -1.
<mgrwt>
<rscale>  2 0.20353889E+02</rscale>
<asrwt>0</asrwt>
<pdfrwt beam="1">  1       21 0.48897169E-03 0.20353889E+02</pdfrwt>
<pdfrwt beam="2">  1       21 0.58309778E-01 0.20353889E+02</pdfrwt>
<totfact> 0.23937580E+07</totfact>
</mgrwt>
</event>
<event>
 4    1  0.4594485E+006  0.2898855E+02  0.7546771E-02  0.1609546E+00
         21   -1    0    0  504  501  0.00000000000E+00  0.00000000000E+00  0.36101180032E+02  0.36101180032E+02  0.00000000000E+00 0.  1.
         21   -1    0    0  503  502 -0.00000000000E+00 -0.00000000000E+00 -0.94480483104E+02  0.94480483104E+02  0.00000000000E+00 0. -1.
         21    1    1    2  503  501  0.98811622326E+01 -0.27252496698E+02 -0.85869806038E+02  0.90630897228E+02  0.00000000000E+00 0. -1.
         21    1    1    2  504  502 -0.98811622326E+01  0.27252496698E+02  0.27490502966E+02  0.39950765908E+02  0.00000000000E+00 0.  1.
<mgrwt>
<rscale>  2 0.28988548E+02</rscale>
<asrwt>0</asrwt>
<pdfrwt beam="1">  1       21 0.55540278E-02 0.28988548E+02</pdfrwt>
<pdfrwt beam="2">  1       21 0.14535459E-01 0.28988548E+02</pdfrwt>
<totfact> 0.78346018E+06</totfact>
</mgrwt>
</event>
<event>
 4    1  0.4594485E+006  0.2090918E+02  0.7546771E-02  0.1727830E+00
         21   -1    0    0  503  501  0.00000000000E+00  0.00000000000E+00  0.16968039877E+03  0.16968039877E+03  0.00000000000E+00 0.  1.
         21   -1    0    0  504  502 -0.00000000000E+00 -0.00000000000E+00 -0.37085885294E+02  0.37085885294E+02  0.00000000000E+00 0. -1.
         21    1    1    2  503  502  0.20275074229E+02 -0.51103106067E+01  0.16602444051E+03  0.16733591592E+03  0.00000000000E+00 0.  1.
         21    1    1    2  504  501 -0.20275074229E+02  0.51103106067E+01 -0.33429927042E+02  0.39430368138E+02  0.00000000000E+00 0. -1.
<mgrwt>
<rscale>  2 0.20909182E+02</rscale>
<asrwt>0</asrwt>
<pdfrwt beam="1">  1       21 0.26104676E-01 0.20909182E+02</pdfrwt>
<pdfrwt beam="2">  1       21 0.57055209E-02 0.20909182E+02</pdfrwt>
<totfact> 0.25684801E+06</totfact>
</mgrwt>
</event>
<event>
 4    1  0.4594485E+006  0.2256831E+02  0.7546771E-02  0.1698605E+00
         21   -1    0    0  502  501  0.00000000000E+00  0.00000000000E+00  0.45387562660E+02  0.45387562660E+02  0.00000000000E+00 0. -1.
         21   -1    0    0  504  502 -0.00000000000E+00 -0.00000000000E+00 -0.13618700710E+02  0.13618700710E+02  0.00000000000E+00 0.  1.
         21    1    1    2  503  501  0.10804000512E+02  0.19814195173E+02  0.28261792685E+02  0.36167080104E+02  0.00000000000E+00 0. -1.
         21    1    1    2  504  503 -0.10804000512E+02 -0.19814195173E+02  0.35070692649E+01  0.22839183266E+02  0.00000000000E+00 0.  1.
<mgrwt>
<rscale>  2 0.22568313E+02</rscale>
<asrwt>0</asrwt>
<pdfrwt beam="1">  1       21 0.69827019E-02 0.22568313E+02</pdfrwt>
<pdfrwt beam="2">  1       21 0.20951847E-02 0.22568313E+02</pdfrwt>
<totfact> 0.11618107E+08</totfact>
</mgrwt>
</event>
<event>
 4    1  0.4594485E+006  0.2172088E+02  0.7546771E-02  0.1713124E+00
         21   -1    0    0  504  501  0.00000000000E+00  0.00000000000E+00  0.32316329064E+02  0.32316329064E+02  0.00000000000E+00 0. -1.
         21   -1    0    0  501  502 -0.00000000000E+00 -0.00000000000E+00 -0.24328071030E+02  0.24328071030E+02  0.00000000000E+00 0.  1.
         21    1    1    2  503  502 -0.13752009590E+02 -0.16813051260E+02 -0.13916121956E+02  0.25796412749E+02  0.00000000000E+00 0.  1.
         21    1    1    2  504  503  0.13752009590E+02  0.16813051260E+02  0.21904379991E+02  0.30847987344E+02  0.00000000000E+00 0. -1.
<mgrwt>
<rscale>  2 0.21720876E+02</rscale>
<asrwt>0</asrwt>
<pdfrwt beam="1">  1       21 0.49717430E-02 0.21720876E+02</pdfrwt>
<pdfrwt beam="2">  1       21 0.37427801E-02 0.21720876E+02</pdfrwt>
<totfact> 0.80516427E+07</totfact>
</mgrwt>
</event>
<event>
 4    1  0.4594485E+006  0.2073761E+02  0.7546771E-02  0.1731045E+00
         21   -1    0    0  503  501  0.00000000000E+00  0.00000000000E+00  0.30133112981E+01  0.30133112981E+01  0.00000000000E+00 0.  1.
         21   -1    0    0  501  502 -0.00000000000E+00 -0.00000000000E+00 -0.14967758767E+03  0.14967758767E+03  0.00000000000E+00 0.  1.
         21    1    1    2  503  504 -0.13017255678E+02 -0.16143097954E+02 -0.56867567496E+02  0.60530725998E+02  0.00000000000E+00 0.  1.
         21    1    1    2  504  502  0.13017255678E+02  0.16143097954E+02 -0.89796708875E+02  0.92160172969E+02  0.00000000000E+00 0.  1.
<mgrwt>
<rscale>  2 0.20737612E+02</rscale>
<asrwt>0</asrwt>
<pdfrwt beam="1">  1       21 0.46358637E-03 0.20737612E+02</pdfrwt>
<pdfrwt beam="2">  1       21 0.23027320E-01 0.20737612E+02</pdfrwt>
<totfact> 0.14630345E+08</totfact>
</mgrwt>
</event>
<event>
 4    1  0.4594485E+006  0.4918613E+02  0.7546771E-02  0.1449781E+00
         21   -1    0    0  504  501  0.00000000000E+00  0.00000000000E+00  0.20133563136E+02  0.20133563136E+02  0.00000000000E+00 0.  1.
         21   -1    0    0  503  502 -0.00000000000E+00 -0.00000000000E+00 -0.12236014357E+03  0.12236014357E+03  0.00000000000E+00 0.  1.
         21    1    1    2  503  501 -0.28254278994E+02  0.40261284546E+02 -0.60664137714E+02  0.78098738270E+02  0.00000000000E+00 0.  1.
         21    1    1    2  504  502  0.28254278994E+02 -0.40261284546E+02 -0.41562442717E+02  0.64394968432E+02  0.00000000000E+00 0.  1.
<mgrwt>
<rscale>  2 0.49186129E+02</rscale>
<asrwt>0</asrwt>
<pdfrwt beam="1">  1       21 0.30974711E-02 0.49186129E+02</pdfrwt>
<pdfrwt beam="2">  1       21 0.18824638E-01 0.49186129E+02</pdfrwt>
<totfact> 0.13727190E+07</totfact>
</mgrwt>
</event>
<event>
 4    1  0.4594485E+006  0.3271361E+02  0.7546771E-02  0.1569895E+00
         21   -1    0    0  502  501  0.00000000000E+00  0.00000000000E+00  0.56874619547E+02  0.56874619547E+02  0.00000000000E+00 0. -1.
         21   -1    0    0  504  502 -0.00000000000E+00 -0.00000000000E+00 -0.71597038815E+02  0.71597038815E+02  0.00000000000E+00 0.  1.
         21    1    1    2  503  501 -0.14537520478E+02  0.29305982011E+02  0.47791493187E+02  0.57915515230E+02  0.00000000000E+00 0. -1.
         21    1    1    2  504  503  0.14537520478E+02 -0.29305982011E+02 -0.62513912455E+02  0.70556143132E+02  0.00000000000E+00 0.  1.
<mgrwt>
<rscale>  2 0.32713607E+02</rscale>
<asrwt>0</asrwt>
<pdfrwt beam="1">  1       21 0.87499415E-02 0.32713607E+02</pdfrwt>
<pdfrwt beam="2">  1       21 0.11014929E-01 0.32713607E+02</pdfrwt>
<totfact> 0.60694704E+06</totfact>
</mgrwt>
</event>
<event>
 4    1  0.4594485E+006  0.2790178E+02  0.7546771E-02  0.1622511E+00
         21   -1    0    0  503  501  0.00000000000E+00  0.00000000000E+00  0.96341605304E+02  0.96341605304E+02  0.00000000000E+00 0. -1.
         21   -1    0    0  504  502 -0.00000000000E+00 -0.00000000000E+00 -0.11922918222E+02  0.11922918222E+02  0.00000000000E+00 0.  1.
         21    1    1    2  503  502  0.24756448379E+02 -0.12869646202E+02  0.11479894186E+02  0.30171136873E+02  0.00000000000E+00 0.  1.
         21    1    1    2  504  501 -0.24756448379E+02  0.12869646202E+02  0.72938792897E+02  0.78093386653E+02  0.00000000000E+00 0. -1.
<mgrwt>
<rscale>  2 0.27901784E+02</rscale>
<asrwt>0</asrwt>
<pdfrwt beam="1">  1       21 0.14821785E-01 0.27901784E+02</pdfrwt>
<pdfrwt beam="2">  1       21 0.18342952E-02 0.27901784E+02</pdfrwt>
<totfact> 0.43048951E+07</totfact>
</mgrwt>
</event>
<event>
 4    1  0.4594485E+006  0.2022275E+02  0.7546771E-02  0.1740934E+00
         21   -1    0    0  504  501  0.00000000000E+00  0.00000000000E+00  0.13308198925E+02  0.13308198925E+02  0.00000000000E+00 0.  1.
         21   -1    0    0  503  502 -0.00000000000E+00 -0.00000000000E+00 -0.37185968100E+02  0.37185968100E+02  0.00000000000E+00 0.  1.
         21    1    1    2  503  501  0.19740987102E+02  0.43878446629E+01 -0.22458633939E+02  0.30221680809E+02  0.00000000000E+00 0.  1.
         21    1    1    2  504  502 -0.19740987102E+02 -0.43878446629E+01 -0.14191352356E+01  0.20272486215E+02  0.00000000000E+00 0.  1.
<mgrwt>
<rscale>  2 0.20222753E+02</rscale>
<asrwt>0</asrwt>
<pdfrwt beam="1">  1       21 0.20474152E-02 0.20222753E+02</pdfrwt>
<pdfrwt beam="2">  1       21 0.57209182E-02 0.20222753E+02</pdfrwt>
<totfact> 0.16031744E+08</totfact>
</mgrwt>
</event>
<event>
 4    1  0.4594485E+006  0.2647668E+02  0.7546771E-02  0.1640655E+00
         21   -1    0    0  503  501  0.00000000000E+00  0.00000000000E+00  0.31394603315E+02  0.31394603315E+02  0.00000000000E+00 0.  1.
         21   -1    0    0  504  502 -0.00000000000E+00 -0.00000000000E+00 -0.43284437707E+02  0.43284437707E+02  0.00000000000E+00 0.  1.
         21    1    1    2  503  502 -0.33742191054E+01 -0.26260797502E+02  0.20035711104E+02  0.33203080572E+02  0.00000000000E+00 0.  1.
         21    1    1    2  504  501  0.33742191054E+01  0.26260797502E+02 -0.31925545496E+02  0.41475960450E+02  0.00000000000E+00 0.  1.
<mgrwt>
<rscale>  2 0.26476685E+02</rscale>
<asrwt>0</asrwt>
<pdfrwt beam="1">  1       21 0.48299390E-02 0.26476685E+02</pdfrwt>
<pdfrwt beam="2">  1       21 0.66591442E-02 0.26476685E+02</pdfrwt>
<totfact> 0.35378551E+07</totfact>
</mgrwt>
</event>
<event>
 4    1  0.4594485E+006  0.2436094E+02  0.7546771E-02  0.1670354E+00
         21   -1    0    0  503  501  0.00000000000E+00  0.00000000000E+00  0.14031698817E+03  0.14031698817E+03  0.00000000000E+00 0. -1.
         21   -1    0    0  504  502 -0.00000000000E+00 -0.00000000000E+00 -0.15325829674E+02  0.15325829674E+02  0.00000000000E+00 0. -1.
         21    1    1    2  503  502  0.24316813209E+02  0.14655544035E+01  0.12871401568E+03  0.13099905758E+03  0.00000000000E+00 0. -1.
         21    1    1    2  504  501 -0.24316813209E+02 -0.14655544035E+01 -0.37228571837E+01  0.24643760264E+02  0.00000000000E+00 0. -1.
<mgrwt>
<rscale>  2 0.24360937E+02</rscale>
<asrwt>0</asrwt>
<pdfrwt beam="1">  1       21 0.21587228E-01 0.24360937E+02</pdfrwt>
<pdfrwt beam="2">  1       21 0.23578200E-02 0.24360937E+02</pdfrwt>
<totfact> 0.14783144E+07</totfact>
</mgrwt>
</event>
<event>
 4    1  0.4594485E+006  0.2025357E+02  0.7546771E-02  0.1740332E+00
         21   -1    0    0  504  501  0.00000000000E+00  0.00000000000E+00  0.42439902922E+01  0.42439902922E+01  0.00000000000E+00 0.  1.
         21   -1    0    0  503  502 -0.00000000000E+00 -0.00000000000E+00 -0.13333183282E+03  0.13333183282E+03  0.00000000000E+00 0. -1.
         21    1    1    2  503  501  0.12275245649E+02  0.16109799229E+02 -0.28466543253E+02  0.34936390365E+02  0.00000000000E+00 0.  1.
         21    1    1    2  504  502 -0.12275245649E+02 -0.16109799229E+02 -0.10062129927E+03  0.10263943275E+03  0.00000000000E+00 0. -1.
<mgrwt>
<rscale>  2 0.20253575E+02</rscale>
<asrwt>0</asrwt>
<pdfrwt beam="1">  1       21 0.65292157E-03 0.20253575E+02</pdfrwt>
<pdfrwt beam="2">  1       21 0.20512590E-01 0.20253575E+02</pdfrwt>
<totfact> 0.10743291E+08</totfact>
</mgrwt>
</event>
<event>
 4    1  0.4594485E+006  0.2196630E+02  0.7546771E-02  0.1708835E+00
         21   -1    0    0  503  501  0.00000000000E+00  0.00000000000E+00  0.78060967416E+01  0.78060967416E+01  0.00000000000E+00 0. -1.
         21   -1    0    0  504  502 -0.00000000000E+00 -0.00000000000E+00 -0.75497646390E+02  0.75497646390E+02  0.00000000000E+00 0. -1.
         21    1    1    2  503  502  0.87505982511E+01  0.20148087917E+02 -0.51578859248E+02  0.56061547764E+02  0.00000000000E+00 0. -1.
         21    1    1    2  504  501 -0.87505982511E+01 -0.20148087917E+02 -0.16112690401E+02  0.27242195367E+02  0.00000000000E+00 0. -1.
<mgrwt>
<rscale>  2 0.21966302E+02</rscale>
<asrwt>0</asrwt>
<pdfrwt beam="1">  1       21 0.12009379E-02 0.21966302E+02</pdfrwt>
<pdfrwt beam="2">  1       21 0.11615023E-01 0.21966302E+02</pdfrwt>
<totfact> 0.11656185E+08</totfact>
</mgrwt>
</event>
<event>
 4    1  0.4594485E+006  0.2068510E+02  0.7546771E-02  0.1732038E+00
         21   -1    0    0  504  501  0.00000000000E+00  0.00000000000E+00  0.27302791414E+02  0.27302791414E+02  0.00000000000E+00 0. -1.
         21   -1    0    0  503  502 -0.00000000000E+00 -0.00000000000E+00 -0.38441047297E+02  0.38441047297E+02  0.00000000000E+00 0. -1.
         21    1    1    2  503  501  0.11866547890E+02  0.16942793188E+02 -0.30868254466E+02  0.37158072253E+02  0.00000000000E+00 0. -1.
         21    1    1    2  504  502 -0.11866547890E+02 -0.16942793188E+02  0.19729998583E+02  0.28585766457E+02  0.00000000000E+00 0. -1.
<mgrwt>
<rscale>  2 0.20685096E+02</rscale>
<asrwt>0</asrwt>
<pdfrwt beam="1">  1       21 0.42004295E-02 0.20685096E+02</pdfrwt>
<pdfrwt beam="2">  1       21 0.59140072E-02 0.20685096E+02</pdfrwt>
<totfact> 0.50273140E+07</totfact>
</mgrwt>
</event>
<event>
 4    1  0.4594485E+006  0.2204664E+02  0.7546771E-02  0.1707447E+00
         21   -1    0    0  504  501  0.00000000000E+00  0.00000000000E+00  0.80621847327E+01  0.80621847327E+01  0.00000000000E+00 0. -1.
         21   -1    0    0  501  502 -0.00000000000E+00 -0.00000000000E+00 -0.15839979618E+04  0.15839979618E+04  0.00000000000E+00 0. -1.
         21    1    1    2  503  502  0.21645249861E+02 -0.41877743694E+01 -0.15687022548E+04  0.15688571696E+04  0.00000000000E+00 0. -1.
         21    1    1    2  504  503 -0.21645249861E+02  0.41877743694E+01 -0.72335222722E+01  0.23202976968E+02  0.00000000000E+00 0. -1.
<mgrwt>
<rscale>  2 0.22046639E+02</rscale>
<asrwt>0</asrwt>
<pdfrwt beam="1">  1       21 0.12403364E-02 0.22046639E+02</pdfrwt>
<pdfrwt beam="2">  1       21 0.24369195E+00 0.22046639E+02</pdfrwt>
<totfact> 0.22976677E+05</totfact>
</mgrwt>
</event>
<event>
 4    1  0.4594485E+006  0.3310999E+02  0.7546771E-02  0.1566055E+00
         21   -1    0    0  503  501  0.00000000000E+00  0.00000000000E+00  0.51077867995E+02  0.51077867995E+02  0.00000000000E+00 0.  1.
         21   -1    0    0  504  502 -0.00000000000E+00 -0.00000000000E+00 -0.70236982916E+03  0.70236982916E+03  0.00000000000E+00 0. -1.
         21    1    1    2  503  502  0.19446162111E+02  0.26797732321E+02 -0.69656927972E+03  0.69735574360E+03  0.00000000000E+00 0. -1.
         21    1    1    2  504  501 -0.19446162111E+02 -0.26797732321E+02  0.45277318555E+02  0.56091953558E+02  0.00000000000E+00 0.  1.
<mgrwt>
<rscale>  2 0.33109994E+02</rscale>
<asrwt>0</asrwt>
<pdfrwt beam="1">  1       21 0.78581339E-02 0.33109994E+02</pdfrwt>
<pdfrwt beam="2">  1       21 0.10805689E+00 0.33109994E+02</pdfrwt>
<totfact> 0.92968051E+04</totfact>
</mgrwt>
</event>
<event>
 4    1  0.4594485E+006  0.2127991E+02  0.7546771E-02  0.1721011E+00
         21   -1    0    0  503  501  0.00000000000E+00  0.00000000000E+00  0.42014447210E+01  0.42014447210E+01  0.00000000000E+00 0. -1.
         21   -1    0    0  504  502 -0.00000000000E+00 -0.00000000000E+00 -0.16058152640E+03  0.16058152640E+03  0.00000000000E+00 0. -1.
         21    1    1    2  503  502  0.24061777755E+01  0.21143439438E+02 -0.12543492998E+03  0.12722718413E+03  0.00000000000E+00 0. -1.
         21    1    1    2  504  501 -0.24061777755E+01 -0.21143439438E+02 -0.30945151697E+02  0.37555786988E+02  0.00000000000E+00 0. -1.
<mgrwt>
<rscale>  2 0.21279914E+02</rscale>
<asrwt>0</asrwt>
<pdfrwt beam="1">  1       21 0.64637623E-03 0.21279914E+02</pdfrwt>
<pdfrwt beam="2">  1       21 0.24704846E-01 0.21279914E+02</pdfrwt>
<totfact> 0.79751131E+07</totfact>
</mgrwt>
</event>
<event>
 4    1  0.4594485E+006  0.2042727E+02  0.7546771E-02  0.1736962E+00
         21   -1    0    0  503  501  0.00000000000E+00  0.00000000000E+00  0.17678403893E+02  0.17678403893E+02  0.00000000000E+00 0. -1.
         21   -1    0    0  504  502 -0.00000000000E+00 -0.00000000000E+00 -0.58937053726E+02  0.58937053726E+02  0.00000000000E+00 0. -1.
         21    1    1    2  503  502  0.17661480181E+02  0.10263799144E+02 -0.50290299661E+02  0.54280638307E+02  0.00000000000E+00 0. -1.
         21    1    1    2  504  501 -0.17661480181E+02 -0.10263799144E+02  0.90316498285E+01  0.22334819311E+02  0.00000000000E+00 0. -1.
<mgrwt>
<rscale>  2 0.20427272E+02</rscale>
<asrwt>0</asrwt>
<pdfrwt beam="1">  1       21 0.27197545E-02 0.20427272E+02</pdfrwt>
<pdfrwt beam="2">  1       21 0.90672389E-02 0.20427272E+02</pdfrwt>
<totfact> 0.49431104E+07</totfact>
</mgrwt>
</event>
<event>
 4    1  0.4594485E+006  0.2594340E+02  0.7546771E-02  0.1647810E+00
         21   -1    0    0  503  501  0.00000000000E+00  0.00000000000E+00  0.31894154448E+03  0.31894154448E+03  0.00000000000E+00 0.  1.
         21   -1    0    0  504  502 -0.00000000000E+00 -0.00000000000E+00 -0.51531321981E+01  0.51531321981E+01  0.00000000000E+00 0. -1.
         21    1    1    2  503  502 -0.24622135772E+02 -0.81737758475E+01  0.28141610792E+03  0.28260942301E+03  0.00000000000E+00 0.  1.
         21    1    1    2  504  501  0.24622135772E+02  0.81737758475E+01  0.32372304362E+02  0.41485253660E+02  0.00000000000E+00 0. -1.
<mgrwt>
<rscale>  2 0.25943403E+02</rscale>
<asrwt>0</asrwt>
<pdfrwt beam="1">  1       21 0.49067915E-01 0.25943403E+02</pdfrwt>
<pdfrwt beam="2">  1       21 0.79278982E-03 0.25943403E+02</pdfrwt>
<totfact> 0.17229391E+07</totfact>
</mgrwt>
</event>
<event>
 4    1  0.4594485E+006  0.2426914E+02  0.7546771E-02  0.1671727E+00
         21   -1    0    0  503  501  0.00000000000E+00  0.00000000000E+00  0.82649446939E+02  0.82649446939E+02  0.00000000000E+00 0. -1.
         21   -1    0    0  504  502 -0.00000000000E+00 -0.00000000000E+00 -0.13752992975E+02  0.13752992975E+02  0.00000000000E+00 0. -1.
         21    1    1    2  503  502 -0.95522201714E+01  0.22310232117E+02  0.98982287217E+00  0.24289321041E+02  0.00000000000E+00 0. -1.
         21    1    1    2  504  501  0.95522201714E+01 -0.22310232117E+02  0.67906631092E+02  0.72113118873E+02  0.00000000000E+00 0. -1.
<mgrwt>
<rscale>  2 0.24269144E+02</rscale>
<asrwt>0</asrwt>
<pdfrwt beam="1">  1       21 0.12715299E-01 0.24269144E+02</pdfrwt>
<pdfrwt beam="2">  1       21 0.21158451E-02 0.24269144E+02</pdfrwt>
<totfact> 0.43420141E+07</totfact>
</mgrwt>
</event>
<event>
 4    1  0.4594485E+006  0.2010448E+02  0.7546771E-02  0.1743258E+00
         21   -1    0    0  504  501  0.00000000000E+00  0.00000000000E+00  0.42023336702E+03  0.42023336702E+03  0.00000000000E+00 0.  1.
         21   -1    0    0  503  502 -0.00000000000E+00 -0.00000000000E+00 -0.96212211726E+00  0.96212211726E+00  0.00000000000E+00 0.  1.
         21    1    1    2  503  501 -0.19320713600E+02  0.55588065366E+01  0.21334616282E+03  0.21429133322E+03  0.00000000000E+00 0.  1.
         21    1    1    2  504  502  0.19320713600E+02 -0.55588065366E+01  0.20592508209E+03  0.20690415592E+03  0.00000000000E+00 0.  1.
<mgrwt>
<rscale>  2 0.20104485E+02</rscale>
<asrwt>0</asrwt>
<pdfrwt beam="1">  1       21 0.64651141E-01 0.20104485E+02</pdfrwt>
<pdfrwt beam="2">  1       21 0.14801912E-03 0.20104485E+02</pdfrwt>
<totfact> 0.10950071E+08</totfact>
</mgrwt>
</event>
<event>
 4    1  0.4594485E+006  0.2186101E+02  0.7546771E-02  0.1710667E+00
         21   -1    0    0  503  501  0.00000000000E+00  0.00000000000E+00  0.19434440676E+03  0.19434440676E+03  0.00000000000E+00 0. -1.
         21   -1    0    0  504  502 -0.00000000000E+00 -0.00000000000E+00 -0.24666003973E+01  0.24666003973E+01  0.00000000000E+00 0. -1.
         21    1    1    2  503  502 -0.80039645136E+01 -0.20343063084E+02  0.90496390683E+02  0.93099411332E+02  0.00000000000E+00 0. -1.
         21    1    1    2  504  501  0.80039645136E+01  0.20343063084E+02  0.10138141568E+03  0.10371159583E+03  0.00000000000E+00 0. -1.
<mgrwt>
<rscale>  2 0.21861008E+02</rscale>
<asrwt>0</asrwt>
<pdfrwt beam="1">  1       21 0.29899127E-01 0.21861008E+02</pdfrwt>
<pdfrwt beam="2">  1       21 0.37947714E-03 0.21861008E+02</pdfrwt>
<totfact> 0.12491282E+08</totfact>
</mgrwt>
</event>
<event>
 4    1  0.4594485E+006  0.4073047E+02  0.7546771E-02  0.1502904E+00
         21   -1    0    0  503  501  0.00000000000E+00  0.00000000000E+00  0.57397669806E+02  0.57397669806E+02  0.00000000000E+00 0.  1.
         21   -1    0    0  504  502 -0.00000000000E+00 -0.00000000000E+00 -0.15811914394E+03  0.15811914394E+03  0.00000000000E+00 0. -1.
         21    1    1    2  503  502 -0.39409766651E+02 -0.10287943754E+02  0.47052310101E+02  0.62232558842E+02  0.00000000000E+00 0.  1.
         21    1    1    2  504  501  0.39409766651E+02  0.10287943754E+02 -0.14777378423E+03  0.15328425490E+03  0.00000000000E+00 0. -1.
<mgrwt>
<rscale>  2 0.40730474E+02</rscale>
<asrwt>0</asrwt>
<pdfrwt beam="1">  1       21 0.88304108E-02 0.40730474E+02</pdfrwt>
<pdfrwt beam="2">  1       21 0.24326022E-01 0.40730474E+02</pdfrwt>
<totfact> 0.15297440E+06</totfact>
</mgrwt>
</event>
<event>
 4    1  0.4594485E+006  0.3422763E+02  0.7546771E-02  0.1555568E+00
         21   -1    0    0  504  501  0.00000000000E+00  0.00000000000E+00  0.67208479174E+01  0.67208479174E+01  0.00000000000E+00 0.  1.
         21   -1    0    0  501  502 -0.00000000000E+00 -0.00000000000E+00 -0.18767073762E+03  0.18767073762E+03  0.00000000000E+00 0.  1.
         21    1    1    2  503  502 -0.29454814121E+02  0.17433997298E+02 -0.11640584775E+03  0.12133363807E+03  0.00000000000E+00 0.  1.
         21    1    1    2  504  503  0.29454814121E+02 -0.17433997298E+02 -0.64544041954E+02  0.73057947469E+02  0.00000000000E+00 0.  1.
<mgrwt>
<rscale>  2 0.34227625E+02</rscale>
<asrwt>0</asrwt>
<pdfrwt beam="1">  1       21 0.10339766E-02 0.34227625E+02</pdfrwt>
<pdfrwt beam="2">  1       21 0.28872422E-01 0.34227625E+02</pdfrwt>
<totfact> 0.33092898E+07</totfact>
</mgrwt>
</event>
<event>
 4    1  0.4594485E+006  0.2326664E+02  0.7546771E-02  0.1687224E+00
         21   -1    0    0  503  501  0.00000000000E+00  0.00000000000E+00  0.16397250649E+02  0.16397250649E+02  0.00000000000E+00 0. -1.
         21   -1    0    0  501  502 -0.00000000000E+00 -0.00000000000E+00 -0.62272382634E+02  0.62272382634E+02  0.00000000000E+00 0. -1.
         21    1    1    2  503  504 -0.22685883858E+02 -0.51659586660E+01  0.40246524171E+01  0.23612163866E+02  0.00000000000E+00 0. -1.
         21    1    1    2  504  502  0.22685883858E+02  0.51659586660E+01 -0.49899784402E+02  0.55057469417E+02  0.00000000000E+00 0. -1.
<mgrwt>
<rscale>  2 0.23266638E+02</rscale>
<asrwt>0</asrwt>
<pdfrwt beam="1">  1       21 0.25226539E-02 0.23266638E+02</pdfrwt>
<pdfrwt beam="2">  1       21 0.95803668E-02 0.23266638E+02</pdfrwt>
<totfact> 0.52490814E+07</totfact>
</mgrwt>
</event>
<event>
 4    1  0.4594485E+006  0.3091431E+02  0.7546771E-02  0.1588197E+00
         21   -1    0    0  504  501  0.00000000000E+00  0.00000000000E+00  0.25905416985E+02  0.25905416985E+02  0.00000000000E+00 0. -1.
         21   -1    0    0  503  502 -0.00000000000E+00 -0.00000000000E+00 -0.80587506259E+02  0.80587506259E+02  0.00000000000E+00 0.  1.
         21    1    1    2  503  501 -0.17805577042E+02 -0.25271644994E+02 -0.66549237199E+02  0.73379122278E+02  0.00000000000E+00 0.  1.
         21    1    1    2  504  502  0.17805577042E+02  0.25271644994E+02  0.11867147926E+02  0.33113800966E+02  0.00000000000E+00 0. -1.
<mgrwt>
<rscale>  2 0.30914311E+02</rscale>
<asrwt>0</asrwt>
<pdfrwt beam="1">  1       21 0.39854488E-02 0.30914311E+02</pdfrwt>
<pdfrwt beam="2">  1       21 0.12398078E-01 0.30914311E+02</pdfrwt>
<totfact> 0.17686666E+07</totfact>
</mgrwt>
</event>
<event>
 4    1  0.4594485E+006  0.2579951E+02  0.7546771E-02  0.1649777E+00
         21   -1    0    0  504  501  0.00000000000E+00  0.00000000000E+00  0.28644503279E+01  0.28644503279E+01  0.00000000000E+00 0. -1.
         21   -1    0    0  503  502 -0.00000000000E+00 -0.00000000000E+00 -0.40414775958E+03  0.40414775958E+03  0.00000000000E+00 0. -1.
         21    1    1    2  503  501 -0.20234327240E+02  0.16005833243E+02 -0.33331686158E+03  0.33431384193E+03  0.00000000000E+00 0. -1.
         21    1    1    2  504  502  0.20234327240E+02 -0.16005833243E+02 -0.67966447678E+02  0.72698367978E+02  0.00000000000E+00 0. -1.
<mgrwt>
<rscale>  2 0.25799510E+02</rscale>
<asrwt>0</asrwt>
<pdfrwt beam="1">  1       21 0.44068472E-03 0.25799510E+02</pdfrwt>
<pdfrwt beam="2">  1       21 0.62176571E-01 0.25799510E+02</pdfrwt>
<totfact> 0.25769251E+07</totfact>
</mgrwt>
</event>
<event>
 4    1  0.4594485E+006  0.6006208E+02  0.7546771E-02  0.1397571E+00
         21   -1    0    0  502  501  0.00000000000E+00  0.00000000000E+00  0.19647477855E+02  0.19647477855E+02  0.00000000000E+00 0. -1.
         21   -1    0    0  504  502 -0.00000000000E+00 -0.00000000000E+00 -0.18401749687E+03  0.18401749687E+03  0.00000000000E+00 0. -1.
         21    1    1    2  503  501 -0.35325559741E+02  0.48575290011E+02 -0.86982846610E+02  0.10570463365E+03  0.00000000000E+00 0. -1.
         21    1    1    2  504  503  0.35325559741E+02 -0.48575290011E+02 -0.77387172406E+02  0.97960341076E+02  0.00000000000E+00 0. -1.
<mgrwt>
<rscale>  2 0.60062084E+02</rscale>
<asrwt>0</asrwt>
<pdfrwt beam="1">  1       21 0.30226890E-02 0.60062084E+02</pdfrwt>
<pdfrwt beam="2">  1       21 0.28310383E-01 0.60062084E+02</pdfrwt>
<totfact> 0.69218441E+06</totfact>
</mgrwt>
</event>
<event>
 4    1  0.4594485E+006  0.2125580E+02  0.7546771E-02  0.1721450E+00
         21   -1    0    0  504  501  0.00000000000E+00  0.00000000000E+00  0.84353521463E+01  0.84353521463E+01  0.00000000000E+00 0. -1.
         21   -1    0    0  503  502 -0.00000000000E+00 -0.00000000000E+00 -0.79250997911E+02  0.79250997911E+02  0.00000000000E+00 0. -1.
         21    1    1    2  503  501  0.51668585556E+01  0.20618256586E+02 -0.60369779273E+02  0.64002493557E+02  0.00000000000E+00 0. -1.
         21    1    1    2  504  502 -0.51668585556E+01 -0.20618256586E+02 -0.10445866491E+02  0.23683856500E+02  0.00000000000E+00 0. -1.
<mgrwt>
<rscale>  2 0.21255798E+02</rscale>
<asrwt>0</asrwt>
<pdfrwt beam="1">  1       21 0.12977465E-02 0.21255798E+02</pdfrwt>
<pdfrwt beam="2">  1       21 0.12192461E-01 0.21255798E+02</pdfrwt>
<totfact> 0.94730023E+07</totfact>
</mgrwt>
</event>
<event>
 4    1  0.4594485E+006  0.3643997E+02  0.7546771E-02  0.1536173E+00
         21   -1    0    0  503  501  0.00000000000E+00  0.00000000000E+00  0.43572188941E+02  0.43572188941E+02  0.00000000000E+00 0.  1.
         21   -1    0    0  504  502 -0.00000000000E+00 -0.00000000000E+00 -0.33264020464E+02  0.33264020464E+02  0.00000000000E+00 0.  1.
         21    1    1    2  503  502  0.31121920089E+02  0.18955152566E+02 -0.59698360480E+01  0.36925745236E+02  0.00000000000E+00 0.  1.
         21    1    1    2  504  501 -0.31121920089E+02 -0.18955152566E+02  0.16278004526E+02  0.39910464168E+02  0.00000000000E+00 0.  1.
<mgrwt>
<rscale>  2 0.36439974E+02</rscale>
<asrwt>0</asrwt>
<pdfrwt beam="1">  1       21 0.67034137E-02 0.36439974E+02</pdfrwt>
<pdfrwt beam="2">  1       21 0.51175416E-02 0.36439974E+02</pdfrwt>
<totfact> 0.34060787E+07</totfact>
</mgrwt>
</event>
<event>
 4    1  0.4594485E+006  0.2555184E+02  0.7546771E-02  0.1653200E+00
         21   -1    0    0  503  501  0.00000000000E+00  0.00000000000E+00  0.36914679703E+03  0.36914679703E+03  0.00000000000E+00 0.  1.
         21   -1    0    0  501  502 -0.00000000000E+00 -0.00000000000E+00 -0.18597477688E+01  0.18597477688E+01  0.00000000000E+00 0.  1.
         21    1    1    2  503  504  0.24849863164E+02 -0.59481996123E+01  0.22469646100E+03  0.22614463594E+03  0.00000000000E+00 0.  1.
         21    1    1    2  504  502 -0.24849863164E+02  0.59481996123E+01  0.14259058826E+03  0.14486190886E+03  0.00000000000E+00 0.  1.
<mgrwt>
<rscale>  2 0.25551845E+02</rscale>
<asrwt>0</asrwt>
<pdfrwt beam="1">  1       21 0.56791757E-01 0.25551845E+02</pdfrwt>
<pdfrwt beam="2">  1       21 0.28611533E-03 0.25551845E+02</pdfrwt>
<totfact> 0.58149921E+07</totfact>
</mgrwt>
</event>
<event>
 4    1  0.4594485E+006  0.2081631E+02  0.7546771E-02  0.1729566E+00
         21   -1    0    0  504  501  0.00000000000E+00  0.00000000000E+00  0.27256831931E+02  0.27256831931E+02  0.00000000000E+00 0. -1.
         21   -1    0    0  501  502 -0.00000000000E+00 -0.00000000000E+00 -0.29091511968E+03  0.29091511968E+03  0.00000000000E+00 0. -1.
         21    1    1    2  503  502  0.14749397365E+02  0.14689253372E+02 -0.28650727296E+03  0.28726248684E+03  0.00000000000E+00 0. -1.
         21    1    1    2  504  503 -0.14749397365E+02 -0.14689253372E+02  0.22848985210E+02  0.30909464771E+02  0.00000000000E+00 0. -1.
<mgrwt>
<rscale>  2 0.20816313E+02</rscale>
<asrwt>0</asrwt>
<pdfrwt beam="1">  1       21 0.41933584E-02 0.20816313E+02</pdfrwt>
<pdfrwt beam="2">  1       21 0.44756176E-01 0.20816313E+02</pdfrwt>
<totfact> 0.15498453E+06</totfact>
</mgrwt>
</event>
<event>
 4    1  0.4594485E+006  0.2141532E+02  0.7546771E-02  0.1718564E+00
         21   -1    0    0  503  501  0.00000000000E+00  0.00000000000E+00  0.16329230639E+01  0.16329230639E+01  0.00000000000E+00 0.  1.
         21   -1    0    0  504  502 -0.00000000000E+00 -0.00000000000E+00 -0.42584014705E+03  0.42584014705E+03  0.00000000000E+00 0.  1.
         21    1    1    2  503  502  0.12184205805E+02 -0.17611388443E+02 -0.87389368174E+02  0.89975094019E+02  0.00000000000E+00 0.  1.
         21    1    1    2  504  501 -0.12184205805E+02  0.17611388443E+02 -0.33681785582E+03  0.33749797610E+03  0.00000000000E+00 0.  1.
<mgrwt>
<rscale>  2 0.21415319E+02</rscale>
<asrwt>0</asrwt>
<pdfrwt beam="1">  1       21 0.25121892E-03 0.21415319E+02</pdfrwt>
<pdfrwt beam="2">  1       21 0.65513871E-01 0.21415319E+02</pdfrwt>
<totfact> 0.50641167E+07</totfact>
</mgrwt>
</event>
<event>
 4    1  0.4594485E+006  0.2184581E+02  0.7546771E-02  0.1710932E+00
         21   -1    0    0  503  501  0.00000000000E+00  0.00000000000E+00  0.50146382100E+02  0.50146382100E+02  0.00000000000E+00 0. -1.
         21   -1    0    0  504  502 -0.00000000000E+00 -0.00000000000E+00 -0.40914121228E+02  0.40914121228E+02  0.00000000000E+00 0.  1.
         21    1    1    2  503  502  0.16995883237E+02 -0.13725142572E+02 -0.35268800023E+02  0.41486477806E+02  0.00000000000E+00 0.  1.
         21    1    1    2  504  501 -0.16995883237E+02  0.13725142572E+02  0.44501060896E+02  0.49574025522E+02  0.00000000000E+00 0. -1.
<mgrwt>
<rscale>  2 0.21845814E+02</rscale>
<asrwt>0</asrwt>
<pdfrwt beam="1">  1       21 0.77148280E-02 0.21845814E+02</pdfrwt>
<pdfrwt beam="2">  1       21 0.62944802E-02 0.21845814E+02</pdfrwt>
<totfact> 0.17455131E+07</totfact>
</mgrwt>
</event>
<event>
 4    1  0.4594485E+006  0.2727293E+02  0.7546771E-02  0.1630349E+00
         21   -1    0    0  503  501  0.00000000000E+00  0.00000000000E+00  0.86639948648E+02  0.86639948648E+02  0.00000000000E+00 0. -1.
         21   -1    0    0  501  502 -0.00000000000E+00 -0.00000000000E+00 -0.23271350186E+02  0.23271350186E+02  0.00000000000E+00 0.  1.
         21    1    1    2  503  504 -0.22021064087E+02  0.16089910748E+02  0.75341615730E+02  0.80125973019E+02  0.00000000000E+00 0. -1.
         21    1    1    2  504  502  0.22021064087E+02 -0.16089910748E+02 -0.11973017269E+02  0.29785325815E+02  0.00000000000E+00 0.  1.
<mgrwt>
<rscale>  2 0.27272926E+02</rscale>
<asrwt>0</asrwt>
<pdfrwt beam="1">  1       21 0.13329223E-01 0.27272926E+02</pdfrwt>
<pdfrwt beam="2">  1       21 0.35802078E-02 0.27272926E+02</pdfrwt>
<totfact> 0.18106638E+07</totfact>
</mgrwt>
</event>
<event>
 4    1  0.4594485E+006  0.2297304E+02  0.7546771E-02  0.1691947E+00
         21   -1    0    0  503  501  0.00000000000E+00  0.00000000000E+00  0.45782829040E+02  0.45782829040E+02  0.00000000000E+00 0. -1.
         21   -1    0    0  504  502 -0.00000000000E+00 -0.00000000000E+00 -0.11732172019E+02  0.11732172019E+02  0.00000000000E+00 0. -1.
         21    1    1    2  503  502 -0.22003385360E+02 -0.66039217176E+01  0.13226847251E+02  0.26508682305E+02  0.00000000000E+00 0. -1.
         21    1    1    2  504  501  0.22003385360E+02  0.66039217176E+01  0.20823809769E+02  0.31006318754E+02  0.00000000000E+00 0. -1.
<mgrwt>
<rscale>  2 0.22973044E+02</rscale>
<asrwt>0</asrwt>
<pdfrwt beam="1">  1       21 0.70435121E-02 0.22973044E+02</pdfrwt>
<pdfrwt beam="2">  1       21 0.18049496E-02 0.22973044E+02</pdfrwt>
<totfact> 0.14473230E+08</totfact>
</mgrwt>
</event>
<event>
 4    1  0.4594485E+006  0.2201789E+02  0.7546771E-02  0.1707943E+00
         21   -1    0    0  502  501  0.00000000000E+00  0.00000000000E+00  0.22825642645E+02  0.22825642645E+02  0.00000000000E+00 0.  1.
         21   -1    0    0  503  502 -0.00000000000E+00 -0.00000000000E+00 -0.25679571686E+02  0.25679571686E+02  0.00000000000E+00 0.  1.
         21    1    1    2  503  504  0.13284637225E+02  0.17558639063E+02 -0.11512472255E+02  0.24846013953E+02  0.00000000000E+00 0.  1.
         21    1    1    2  504  501 -0.13284637225E+02 -0.17558639063E+02  0.86585432146E+01  0.23659200378E+02  0.00000000000E+00 0.  1.
<mgrwt>
<rscale>  2 0.22017888E+02</rscale>
<asrwt>0</asrwt>
<pdfrwt beam="1">  1       21 0.35116373E-02 0.22017888E+02</pdfrwt>
<pdfrwt beam="2">  1       21 0.39507033E-02 0.22017888E+02</pdfrwt>
<totfact> 0.12843933E+08</totfact>
</mgrwt>
</event>
<event>
 4    1  0.4594485E+006  0.2250301E+02  0.7546771E-02  0.1699695E+00
         21   -1    0    0  502  501  0.00000000000E+00  0.00000000000E+00  0.19345036743E+01  0.19345036743E+01  0.00000000000E+00 0. -1.
         21   -1    0    0  503  502 -0.00000000000E+00 -0.00000000000E+00 -0.36187132469E+03  0.36187132469E+03  0.00000000000E+00 0.  1.
         21    1    1    2  503  504  0.15325776099E+02  0.16477434002E+02 -0.27564230516E+03  0.27655933476E+03  0.00000000000E+00 0.  1.
         21    1    1    2  504  501 -0.15325776099E+02 -0.16477434002E+02 -0.84294515852E+02  0.87246493609E+02  0.00000000000E+00 0. -1.
<mgrwt>
<rscale>  2 0.22503005E+02</rscale>
<asrwt>0</asrwt>
<pdfrwt beam="1">  1       21 0.29761592E-03 0.22503005E+02</pdfrwt>
<pdfrwt beam="2">  1       21 0.55672518E-01 0.22503005E+02</pdfrwt>
<totfact> 0.55458286E+07</totfact>
</mgrwt>
</event>
<event>
 4    1  0.4594485E+006  0.2114373E+02  0.7546771E-02  0.1723496E+00
         21   -1    0    0  502  501  0.00000000000E+00  0.00000000000E+00  0.13635836453E+02  0.13635836453E+02  0.00000000000E+00 0.  1.
         21   -1    0    0  503  502 -0.00000000000E+00 -0.00000000000E+00 -0.60743818267E+02  0.60743818267E+02  0.00000000000E+00 0.  1.
         21    1    1    2  503  504  0.19822553601E+02  0.73568786360E+01 -0.48784666569E+02  0.53169549432E+02  0.00000000000E+00 0.  1.
         21    1    1    2  504  501 -0.19822553601E+02 -0.73568786360E+01  0.16766847545E+01  0.21210105288E+02  0.00000000000E+00 0.  1.
<mgrwt>
<rscale>  2 0.21143729E+02</rscale>
<asrwt>0</asrwt>
<pdfrwt beam="1">  1       21 0.20978210E-02 0.21143729E+02</pdfrwt>
<pdfrwt beam="2">  1       21 0.93452029E-02 0.21143729E+02</pdfrwt>
<totfact> 0.70794167E+07</totfact>
</mgrwt>
</event>
<event>
 4    1  0.4594485E+006  0.2165287E+02  0.7546771E-02  0.1714325E+00
         21   -1    0    0  503  501  0.00000000000E+00  0.00000000000E+00  0.34750239377E+03  0.34750239377E+03  0.00000000000E+00 0. -1.
         21   -1    0    0  501  502 -0.00000000000E+00 -0.00000000000E+00 -0.34054589937E+01  0.34054589937E+01  0.00000000000E+00 0.  1.
         21    1    1    2  503  504 -0.94808202460E+01 -0.19466921490E+02  0.30838591441E+03  0.30914514260E+03  0.00000000000E+00 0. -1.
         21    1    1    2  504  502  0.94808202460E+01  0.19466921490E+02  0.35711020363E+02  0.41762710163E+02  0.00000000000E+00 0.  1.
<mgrwt>
<rscale>  2 0.21652875E+02</rscale>
<asrwt>0</asrwt>
<pdfrwt beam="1">  1       21 0.53461879E-01 0.21652875E+02</pdfrwt>
<pdfrwt beam="2">  1       21 0.52391704E-03 0.21652875E+02</pdfrwt>
<totfact> 0.26003709E+07</totfact>
</mgrwt>
</event>
<event>
 4    1  0.4594485E+006  0.2205360E+02  0.7546771E-02  0.1707327E+00
         21   -1    0    0  504  501  0.00000000000E+00  0.00000000000E+00  0.27994140444E+02  0.27994140444E+02  0.00000000000E+00 0. -1.
         21   -1    0    0  503  502 -0.00000000000E+00 -0.00000000000E+00 -0.17539320933E+02  0.17539320933E+02  0.00000000000E+00 0. -1.
         21    1    1    2  503  501 -0.16524456355E+01  0.21991607806E+02  0.30149724418E+01  0.22258738717E+02  0.00000000000E+00 0. -1.
         21    1    1    2  504  502  0.16524456355E+01 -0.21991607806E+02  0.74398470686E+01  0.23274722659E+02  0.00000000000E+00 0. -1.
<mgrwt>
<rscale>  2 0.22053603E+02</rscale>
<asrwt>0</asrwt>
<pdfrwt beam="1">  1       21 0.43067908E-02 0.22053603E+02</pdfrwt>
<pdfrwt beam="2">  1       21 0.26983571E-02 0.22053603E+02</pdfrwt>
<totfact> 0.16901837E+08</totfact>
</mgrwt>
</event>
<event>
 4    1  0.4594485E+006  0.2925612E+02  0.7546771E-02  0.1606460E+00
         21   -1    0    0  504  501  0.00000000000E+00  0.00000000000E+00  0.39567400016E+03  0.39567400016E+03  0.00000000000E+00 0. -1.
         21   -1    0    0  503  502 -0.00000000000E+00 -0.00000000000E+00 -0.14643763354E+02  0.14643763354E+02  0.00000000000E+00 0.  1.
         21    1    1    2  503  501  0.27476460574E+02  0.10048124366E+02  0.11146170124E+01  0.29277347216E+02  0.00000000000E+00 0.  1.
         21    1    1    2  504  502 -0.27476460574E+02 -0.10048124366E+02  0.37991561979E+03  0.38104041630E+03  0.00000000000E+00 0. -1.
<mgrwt>
<rscale>  2 0.29256122E+02</rscale>
<asrwt>0</asrwt>
<pdfrwt beam="1">  1       21 0.60872915E-01 0.29256122E+02</pdfrwt>
<pdfrwt beam="2">  1       21 0.22528870E-02 0.29256122E+02</pdfrwt>
<totfact> 0.23237717E+06</totfact>
</mgrwt>
</event>
<event>
 4    1  0.4594485E+006  0.2520897E+02  0.7546771E-02  0.1658018E+00
         21   -1    0    0  502  501  0.00000000000E+00  0.00000000000E+00  0.44756652869E+02  0.44756652869E+02  0.00000000000E+00 0.  1.
         21   -1    0    0  504  502 -0.00000000000E+00 -0.00000000000E+00 -0.30197324273E+02  0.30197324273E+02  0.00000000000E+00 0.  1.
         21    1    1    2  503  501 -0.24188363375E+02  0.71003581306E+01  0.34558136284E+02  0.42775656532E+02  0.00000000000E+00 0.  1.
         21    1    1    2  504  503  0.24188363375E+02 -0.71003581306E+01 -0.19998807687E+02  0.32178320610E+02  0.00000000000E+00 0.  1.
<mgrwt>
<rscale>  2 0.25208967E+02</rscale>
<asrwt>0</asrwt>
<pdfrwt beam="1">  1       21 0.68856389E-02 0.25208967E+02</pdfrwt>
<pdfrwt beam="2">  1       21 0.46457422E-02 0.25208967E+02</pdfrwt>
<totfact> 0.35260939E+07</totfact>
</mgrwt>
</event>
<event>
 4    1  0.4594485E+006  0.2012932E+02  0.7546771E-02  0.1742769E+00
         21   -1    0    0  504  501  0.00000000000E+00  0.00000000000E+00  0.27456663331E+02  0.27456663331E+02  0.00000000000E+00 0.  1.
         21   -1    0    0  503  502 -0.00000000000E+00 -0.00000000000E+00 -0.20916968742E+02  0.20916968742E+02  0.00000000000E+00 0.  1.
         21    1    1    2  503  501 -0.18658503493E+02  0.75531358812E+01  0.16394978251E+02  0.25961219657E+02  0.00000000000E+00 0.  1.
         21    1    1    2  504  502  0.18658503493E+02 -0.75531358812E+01 -0.98552836612E+01  0.22412412416E+02  0.00000000000E+00 0.  1.
<mgrwt>
<rscale>  2 0.20129322E+02</rscale>
<asrwt>0</asrwt>
<pdfrwt beam="1">  1       21 0.42241021E-02 0.20129322E+02</pdfrwt>
<pdfrwt beam="2">  1       21 0.32179952E-02 0.20129322E+02</pdfrwt>
<totfact> 0.12890441E+08</totfact>
</mgrwt>
</event>
<event>
 4    1  0.4594485E+006  0.4226468E+02  0.7546771E-02  0.1492178E+00
         21   -1    0    0  504  501  0.00000000000E+00  0.00000000000E+00  0.23150899445E+01  0.23150899445E+01  0.00000000000E+00 0. -1.
         21   -1    0    0  503  502 -0.00000000000E+00 -0.00000000000E+00 -0.80544189321E+03  0.80544189321E+03  0.00000000000E+00 0. -1.
         21    1    1    2  503  501 -0.30145026425E+02 -0.29623984864E+02 -0.31876590421E+03  0.32155560138E+03  0.00000000000E+00 0. -1.
         21    1    1    2  504  502  0.30145026425E+02  0.29623984864E+02 -0.48436089906E+03  0.48620138177E+03  0.00000000000E+00 0. -1.
<mgrwt>
<rscale>  2 0.42264679E+02</rscale>
<asrwt>0</asrwt>
<pdfrwt beam="1">  1       21 0.35616830E-03 0.42264679E+02</pdfrwt>
<pdfrwt beam="2">  1       21 0.12391392E+00 0.42264679E+02</pdfrwt>
<totfact> 0.84803649E+06</totfact>
</mgrwt>
</event>
<event>
 4    1  0.4594485E+006  0.3514957E+02  0.7546771E-02  0.1547276E+00
         21   -1    0    0  503  501  0.00000000000E+00  0.00000000000E+00  0.47186692572E+02  0.47186692572E+02  0.00000000000E+00 0. -1.
         21   -1    0    0  504  502 -0.00000000000E+00 -0.00000000000E+00 -0.26298244165E+02  0.26298244165E+02  0.00000000000E+00 0. -1.
         21    1    1    2  503  502 -0.31080461706E+02  0.16416372518E+02  0.80126584969E+01  0.36051284065E+02  0.00000000000E+00 0. -1.
         21    1    1    2  504  501  0.31080461706E+02 -0.16416372518E+02  0.12875789910E+02  0.37433652672E+02  0.00000000000E+00 0. -1.
<mgrwt>
<rscale>  2 0.35149572E+02</rscale>
<asrwt>0</asrwt>
<pdfrwt beam="1">  1       21 0.72594912E-02 0.35149572E+02</pdfrwt>
<pdfrwt beam="2">  1       21 0.40458837E-02 0.35149572E+02</pdfrwt>
<totfact> 0.43318332E+07</totfact>
</mgrwt>
</event>
<event>
 4    1  0.4594485E+006  0.2367676E+02  0.7546771E-02  0.1680769E+00
         21   -1    0    0  504  501  0.00000000000E+00  0.00000000000E+00  0.13182299844E+02  0.13182299844E+02  0.00000000000E+00 0. -1.
         21   -1    0    0  503  502 -0.00000000000E+00 -0.00000000000E+00 -0.10469330658E+03  0.10469330658E+03  0.00000000000E+00 0. -1.
         21    1    1    2  503  501  0.20345993606E+02  0.12109062081E+02 -0.33876443015E+00  0.23679180763E+02  0.00000000000E+00 0. -1.
         21    1    1    2  504  502 -0.20345993606E+02 -0.12109062081E+02 -0.91172242302E+02  0.94196425658E+02  0.00000000000E+00 0. -1.
<mgrwt>
<rscale>  2 0.23676757E+02</rscale>
<asrwt>0</asrwt>
<pdfrwt beam="1">  1       21 0.20280461E-02 0.23676757E+02</pdfrwt>
<pdfrwt beam="2">  1       21 0.16106663E-01 0.23676757E+02</pdfrwt>
<totfact> 0.30824436E+07</totfact>
</mgrwt>
</event>
<event>
 4    1  0.4594485E+006  0.2286205E+02  0.7546771E-02  0.1693756E+00
         21   -1    0    0  504  501  0.00000000000E+00  0.00000000000E+00  0.16290468456E+02  0.16290468456E+02  0.00000000000E+00 0.  1.
         21   -1    0    0  503  502 -0.00000000000E+00 -0.00000000000E+00 -0.21909145226E+03  0.21909145226E+03  0.00000000000E+00 0.  1.
         21    1    1    2  503  501  0.17319676334E+02  0.14923209457E+02 -0.21013293221E+03  0.21137294663E+03  0.00000000000E+00 0.  1.
         21    1    1    2  504  502 -0.17319676334E+02 -0.14923209457E+02  0.73319484107E+01  0.24008974079E+02  0.00000000000E+00 0.  1.
<mgrwt>
<rscale>  2 0.22862051E+02</rscale>
<asrwt>0</asrwt>
<pdfrwt beam="1">  1       21 0.25062260E-02 0.22862051E+02</pdfrwt>
<pdfrwt beam="2">  1       21 0.33706377E-01 0.22862051E+02</pdfrwt>
<totfact> 0.59595667E+06</totfact>
</mgrwt>
</event>
<event>
 4    1  0.4594485E+006  0.2077180E+02  0.7546771E-02  0.1730402E+00
         21   -1    0    0  502  501  0.00000000000E+00  0.00000000000E+00  0.10476501523E+04  0.10476501523E+04  0.00000000000E+00 0. -1.
         21   -1    0    0  504  502 -0.00000000000E+00 -0.00000000000E+00 -0.56898863329E+01  0.56898863329E+01  0.00000000000E+00 0.  1.
         21    1    1    2  503  501 -0.20760398447E+02 -0.68819186172E+00  0.10282315429E+04  0.10284413321E+04  0.00000000000E+00 0. -1.
         21    1    1    2  504  503  0.20760398447E+02  0.68819186172E+00  0.13728723140E+02  0.24898706608E+02  0.00000000000E+00 0.  1.
<mgrwt>
<rscale>  2 0.20771802E+02</rscale>
<asrwt>0</asrwt>
<pdfrwt beam="1">  1       21 0.16117679E+00 0.20771802E+02</pdfrwt>
<pdfrwt beam="2">  1       21 0.87536796E-03 0.20771802E+02</pdfrwt>
<totfact> 0.11178621E+06</totfact>
</mgrwt>
</event>
<event>
 4    1  0.4594485E+006  0.2190980E+02  0.7546771E-02  0.1709817E+00
         21   -1    0    0  503  501  0.00000000000E+00  0.00000000000E+00  0.22000208854E+02  0.22000208854E+02  0.00000000000E+00 0.  1.
         21   -1    0    0  501  502 -0.00000000000E+00 -0.00000000000E+00 -0.22461317791E+02  0.22461317791E+02  0.00000000000E+00 0.  1.
         21    1    1    2  503  504 -0.23669552622E+01  0.21781571612E+02  0.35265536835E+01  0.22191798485E+02  0.00000000000E+00 0.  1.
         21    1    1    2  504  502  0.23669552622E+01 -0.21781571612E+02 -0.39876626206E+01  0.22269728160E+02  0.00000000000E+00 0.  1.
<mgrwt>
<rscale>  2 0.21909800E+02</rscale>
<asrwt>0</asrwt>
<pdfrwt beam="1">  1       21 0.33846475E-02 0.21909800E+02</pdfrwt>
<pdfrwt beam="2">  1       21 0.34555873E-02 0.21909800E+02</pdfrwt>
<totfact> 0.16757441E+08</totfact>
</mgrwt>
</event>
<event>
 4    1  0.4594485E+006  0.2069967E+02  0.7546771E-02  0.1731762E+00
         21   -1    0    0  503  501  0.00000000000E+00  0.00000000000E+00  0.37990405433E+01  0.37990405433E+01  0.00000000000E+00 0. -1.
         21   -1    0    0  504  502 -0.00000000000E+00 -0.00000000000E+00 -0.13043201021E+03  0.13043201021E+03  0.00000000000E+00 0. -1.
         21    1    1    2  503  502 -0.94909366101E+01 -0.18395611971E+02 -0.38629889972E+02  0.43826302796E+02  0.00000000000E+00 0. -1.
         21    1    1    2  504  501  0.94909366101E+01  0.18395611971E+02 -0.88003079699E+02  0.90404747962E+02  0.00000000000E+00 0. -1.
<mgrwt>
<rscale>  2 0.20699672E+02</rscale>
<asrwt>0</asrwt>
<pdfrwt beam="1">  1       21 0.58446783E-03 0.20699672E+02</pdfrwt>
<pdfrwt beam="2">  1       21 0.20066461E-01 0.20699672E+02</pdfrwt>
<totfact> 0.13228683E+08</totfact>
</mgrwt>
</event>
<event>
 4    1  0.4594485E+006  0.2268150E+02  0.7546771E-02  0.1696725E+00
         21   -1    0    0  503  501  0.00000000000E+00  0.00000000000E+00  0.99544952028E+02  0.99544952028E+02  0.00000000000E+00 0. -1.
         21   -1    0    0  504  502 -0.00000000000E+00 -0.00000000000E+00 -0.61062512834E+01  0.61062512834E+01  0.00000000000E+00 0. -1.
         21    1    1    2  503  502 -0.16666339885E+02  0.15384528886E+02  0.26012628647E+02  0.34512424768E+02  0.00000000000E+00 0. -1.
         21    1    1    2  504  501  0.16666339885E+02 -0.15384528886E+02  0.67426072098E+02  0.71138778544E+02  0.00000000000E+00 0. -1.
<mgrwt>
<rscale>  2 0.22681504E+02</rscale>
<asrwt>0</asrwt>
<pdfrwt beam="1">  1       21 0.15314607E-01 0.22681504E+02</pdfrwt>
<pdfrwt beam="2">  1       21 0.93942335E-03 0.22681504E+02</pdfrwt>
<totfact> 0.10677410E+08</totfact>
</mgrwt>
</event>
<event>
 4    1  0.4594485E+006  0.2274357E+02  0.7546771E-02  0.1695701E+00
         21   -1    0    0  502  501  0.00000000000E+00  0.00000000000E+00  0.23518498044E+03  0.23518498044E+03  0.00000000000E+00 0. -1.
         21   -1    0    0  503  502 -0.00000000000E+00 -0.00000000000E+00 -0.30677506944E+01  0.30677506944E+01  0.00000000000E+00 0.  1.
         21    1    1    2  503  504  0.93558366423E+01 -0.20730127007E+02  0.52680227243E+02  0.57380102713E+02  0.00000000000E+00 0.  1.
         21    1    1    2  504  501 -0.93558366423E+01  0.20730127007E+02  0.17943700251E+03  0.18087262842E+03  0.00000000000E+00 0. -1.
<mgrwt>
<rscale>  2 0.22743567E+02</rscale>
<asrwt>0</asrwt>
<pdfrwt beam="1">  1       21 0.36182291E-01 0.22743567E+02</pdfrwt>
<pdfrwt beam="2">  1       21 0.47196183E-03 0.22743567E+02</pdfrwt>
<totfact> 0.64580079E+07</totfact>
</mgrwt>
</event>
<event>
 4    1  0.4594485E+006  0.2637796E+02  0.7546771E-02  0.1641964E+00
         21   -1    0    0  504  501  0.00000000000E+00  0.00000000000E+00  0.22455133728E+03  0.22455133728E+03  0.00000000000E+00 0. -1.
         21   -1    0    0  503  502 -0.00000000000E+00 -0.00000000000E+00 -0.95893570647E+01  0.95893570647E+01  0.00000000000E+00 0. -1.
         21    1    1    2  503  501  0.13320016643E+02 -0.22767831410E+02  0.11164752756E+02  0.28643475603E+02  0.00000000000E+00 0. -1.
         21    1    1    2  504  502 -0.13320016643E+02  0.22767831410E+02  0.20379722746E+03  0.20549721874E+03  0.00000000000E+00 0. -1.
<mgrwt>
<rscale>  2 0.26377964E+02</rscale>
<asrwt>0</asrwt>
<pdfrwt beam="1">  1       21 0.34546356E-01 0.26377964E+02</pdfrwt>
<pdfrwt beam="2">  1       21 0.14752859E-02 0.26377964E+02</pdfrwt>
<totfact> 0.13171955E+07</totfact>
</mgrwt>
</event>
<event>
 4    1  0.4594485E+006  0.2009785E+02  0.7546771E-02  0.1743389E+00
         21   -1    0    0  503  501  0.00000000000E+00  0.00000000000E+00  0.21394255978E+03  0.21394255978E+03  0.00000000000E+00 0.  1.
         21   -1    0    0  504  502 -0.00000000000E+00 -0.00000000000E+00 -0.58144400235E+01  0.58144400235E+01  0.00000000000E+00 0.  1.
         21    1    1    2  503  502 -0.84998534186E+01  0.18211972894E+02  0.13770187060E+02  0.24362707495E+02  0.00000000000E+00 0.  1.
         21    1    1    2  504  501  0.84998534186E+01 -0.18211972894E+02  0.19435793270E+03  0.19539429231E+03  0.00000000000E+00 0.  1.
<mgrwt>
<rscale>  2 0.20097847E+02</rscale>
<asrwt>0</asrwt>
<pdfrwt beam="1">  1       21 0.32914234E-01 0.20097847E+02</pdfrwt>
<pdfrwt beam="2">  1       21 0.89452940E-03 0.20097847E+02</pdfrwt>
<totfact> 0.28941495E+07</totfact>
</mgrwt>
</event>
<event>
 4    1  0.4594485E+006  0.2169693E+02  0.7546771E-02  0.1713547E+00
         21   -1    0    0  502  501  0.00000000000E+00  0.00000000000E+00  0.32568702858E+02  0.32568702858E+02  0.00000000000E+00 0. -1.
         21   -1    0    0  504  502 -0.00000000000E+00 -0.00000000000E+00 -0.10549369569E+03  0.10549369569E+03  0.00000000000E+00 0.  1.
         21    1    1    2  503  501 -0.21685136024E+02  0.71539284870E+00  0.27665388080E+02  0.35158649134E+02  0.00000000000E+00 0. -1.
         21    1    1    2  504  503  0.21685136024E+02 -0.71539284870E+00 -0.10059038091E+03  0.10290374941E+03  0.00000000000E+00 0.  1.
<mgrwt>
<rscale>  2 0.21696933E+02</rscale>
<asrwt>0</asrwt>
<pdfrwt beam="1">  1       21 0.50105696E-02 0.21696933E+02</pdfrwt>
<pdfrwt beam="2">  1       21 0.16229800E-01 0.21696933E+02</pdfrwt>
<totfact> 0.72798896E+06</totfact>
</mgrwt>
</event>
<event>
 4    1  0.4594485E+006  0.2417639E+02  0.7546771E-02  0.1673121E+00
         21   -1    0    0  502  501  0.00000000000E+00  0.00000000000E+00  0.11890037323E+01  0.11890037323E+01  0.00000000000E+00 0. -1.
         21   -1    0    0  504  502 -0.00000000000E+00 -0.00000000000E+00 -0.49260027541E+03  0.49260027541E+03  0.00000000000E+00 0. -1.
         21    1    1    2  503  501  0.39129247058E+01 -0.23857635392E+02 -0.23450316243E+03  0.23574611543E+03  0.00000000000E+00 0. -1.
         21    1    1    2  504  503 -0.39129247058E+01  0.23857635392E+02 -0.25690810924E+03  0.25804316371E+03  0.00000000000E+00 0. -1.
<mgrwt>
<rscale>  2 0.24176388E+02</rscale>
<asrwt>0</asrwt>
<pdfrwt beam="1">  1       21 0.18292369E-03 0.24176388E+02</pdfrwt>
<pdfrwt beam="2">  1       21 0.75784642E-01 0.24176388E+02</pdfrwt>
<totfact> 0.61118852E+07</totfact>
</mgrwt>
</event>
<event>
 4    1  0.4594485E+006  0.2011339E+02  0.7546771E-02  0.1743083E+00
         21   -1    0    0  503  501  0.00000000000E+00  0.00000000000E+00  0.52434948007E+01  0.52434948007E+01  0.00000000000E+00 0. -1.
         21   -1    0    0  504  502 -0.00000000000E+00 -0.00000000000E+00 -0.14174757827E+03  0.14174757827E+03  0.00000000000E+00 0. -1.
         21    1    1    2  503  502  0.19433498546E+02 -0.51853260950E+01 -0.18638181142E+02  0.27421346953E+02  0.00000000000E+00 0. -1.
         21    1    1    2  504  501 -0.19433498546E+02  0.51853260950E+01 -0.11786590233E+03  0.11956972612E+03  0.00000000000E+00 0. -1.
<mgrwt>
<rscale>  2 0.20113390E+02</rscale>
<asrwt>0</asrwt>
<pdfrwt beam="1">  1       21 0.80669166E-03 0.20113390E+02</pdfrwt>
<pdfrwt beam="2">  1       21 0.21807316E-01 0.20113390E+02</pdfrwt>
<totfact> 0.70432601E+07</totfact>
</mgrwt>
</event>
<event>
 4    1  0.4594485E+006  0.3267644E+02  0.7546771E-02  0.1570259E+00
         21   -1    0    0  503  501  0.00000000000E+00  0.00000000000E+00  0.21993470072E+02  0.21993470072E+02  0.00000000000E+00 0.  1.
         21   -1    0    0  504  502 -0.00000000000E+00 -0.00000000000E+00 -0.21337326202E+03  0.21337326202E+03  0.00000000000E+00 0.  1.
         21    1    1    2  503  502 -0.24292278694E+02  0.21854865912E+02  0.77424351986E+01  0.33581174354E+02  0.00000000000E+00 0.  1.
         21    1    1    2  504  501  0.24292278694E+02 -0.21854865912E+02 -0.19912222715E+03  0.20178555774E+03  0.00000000000E+00 0.  1.
<mgrwt>
<rscale>  2 0.32676444E+02</rscale>
<asrwt>0</asrwt>
<pdfrwt beam="1">  1       21 0.33836107E-02 0.32676444E+02</pdfrwt>
<pdfrwt beam="2">  1       21 0.32826657E-01 0.32676444E+02</pdfrwt>
<totfact> 0.41138792E+06</totfact>
</mgrwt>
</event>
<event>
 4    1  0.4594485E+006  0.2489945E+02  0.7546771E-02  0.1662450E+00
         21   -1    0    0  503  501  0.00000000000E+00  0.00000000000E+00  0.11212577447E+03  0.11212577447E+03  0.00000000000E+00 0.  1.
         21   -1    0    0  504  502 -0.00000000000E+00 -0.00000000000E+00 -0.11881291169E+02  0.11881291169E+02  0.00000000000E+00 0.  1.
         21    1    1    2  503  502 -0.22394416364E+02 -0.10884527249E+02  0.95457677831E+02  0.98651665341E+02  0.00000000000E+00 0.  1.
         21    1    1    2  504  501  0.22394416364E+02  0.10884527249E+02  0.47868054733E+01  0.25355400300E+02  0.00000000000E+00 0.  1.
<mgrwt>
<rscale>  2 0.24899454E+02</rscale>
<asrwt>0</asrwt>
<pdfrwt beam="1">  1       21 0.17250118E-01 0.24899454E+02</pdfrwt>
<pdfrwt beam="2">  1       21 0.18278910E-02 0.24899454E+02</pdfrwt>
<totfact> 0.32503159E+07</totfact>
</mgrwt>
</event>
<event>
 4    1  0.4594485E+006  0.2018322E+02  0.7546771E-02  0.1741709E+00
         21   -1    0    0  503  501  0.00000000000E+00  0.00000000000E+00  0.28412158817E+01  0.28412158817E+01  0.00000000000E+00 0. -1.
         21   -1    0    0  504  502 -0.00000000000E+00 -0.00000000000E+00 -0.15454541469E+03  0.15454541469E+03  0.00000000000E+00 0. -1.
         21    1    1    2  503  502 -0.57529004809E+01  0.19345969131E+02 -0.97007609475E+02  0.99085007351E+02  0.00000000000E+00 0. -1.
         21    1    1    2  504  501  0.57529004809E+01 -0.19345969131E+02 -0.54696589337E+02  0.58301623225E+02  0.00000000000E+00 0. -1.
<mgrwt>
<rscale>  2 0.20183220E+02</rscale>
<asrwt>0</asrwt>
<pdfrwt beam="1">  1       21 0.43711025E-03 0.20183220E+02</pdfrwt>
<pdfrwt beam="2">  1       21 0.23776211E-01 0.20183220E+02</pdfrwt>
<totfact> 0.14951116E+08</totfact>
</mgrwt>
</event>
<event>
 4    1  0.4594485E+006  0.3765339E+02  0.7546771E-02  0.1526226E+00
         21   -1    0    0  504  501  0.00000000000E+00  0.00000000000E+00  0.53494142934E+02  0.53494142934E+02  0.00000000000E+00 0.  1.
         21   -1    0    0  501  502 -0.00000000000E+00 -0.00000000000E+00 -0.49925843636E+02  0.49925843636E+02  0.00000000000E+00 0.  1.
         21    1    1    2  503  502  0.33803273470E+02 -0.16586631183E+02 -0.33634150138E+02  0.50487955858E+02  0.00000000000E+00 0.  1.
         21    1    1    2  504  503 -0.33803273470E+02  0.16586631183E+02  0.37202449436E+02  0.52932030712E+02  0.00000000000E+00 0.  1.
<mgrwt>
<rscale>  2 0.37653388E+02</rscale>
<asrwt>0</asrwt>
<pdfrwt beam="1">  1       21 0.82298682E-02 0.37653388E+02</pdfrwt>
<pdfrwt beam="2">  1       21 0.76808990E-02 0.37653388E+02</pdfrwt>
<totfact> 0.12534697E+07</totfact>
</mgrwt>
</event>
<event>
 4    1  0.4594485E+006  0.2041090E+02  0.7546771E-02  0.1737278E+00
         21   -1    0    0  502  501  0.00000000000E+00  0.00000000000E+00  0.72591566656E+02  0.72591566656E+02  0.00000000000E+00 0. -1.
         21   -1    0    0  503  502 -0.00000000000E+00 -0.00000000000E+00 -0.33039038681E+02  0.33039038681E+02  0.00000000000E+00 0. -1.
         21    1    1    2  503  504  0.11506795356E+02 -0.16858188251E+02 -0.28233271088E+02  0.34838519584E+02  0.00000000000E+00 0. -1.
         21    1    1    2  504  501 -0.11506795356E+02  0.16858188251E+02  0.67785799064E+02  0.70792085753E+02  0.00000000000E+00 0. -1.
<mgrwt>
<rscale>  2 0.20410900E+02</rscale>
<asrwt>0</asrwt>
<pdfrwt beam="1">  1       21 0.11167933E-01 0.20410900E+02</pdfrwt>
<pdfrwt beam="2">  1       21 0.50829291E-02 0.20410900E+02</pdfrwt>
<totfact> 0.13187568E+07</totfact>
</mgrwt>
</event>
<event>
 4    1  0.4594485E+006  0.2105576E+02  0.7546771E-02  0.1725113E+00
         21   -1    0    0  504  501  0.00000000000E+00  0.00000000000E+00  0.71970874796E+01  0.71970874796E+01  0.00000000000E+00 0. -1.
         21   -1    0    0  501  502 -0.00000000000E+00 -0.00000000000E+00 -0.89340187484E+02  0.89340187484E+02  0.00000000000E+00 0. -1.
         21    1    1    2  503  502 -0.20994787082E+02 -0.16012193340E+01 -0.67967786892E+02  0.71154515267E+02  0.00000000000E+00 0. -1.
         21    1    1    2  504  503  0.20994787082E+02  0.16012193340E+01 -0.14175313112E+02  0.25382759696E+02  0.00000000000E+00 0. -1.
<mgrwt>
<rscale>  2 0.21055759E+02</rscale>
<asrwt>0</asrwt>
<pdfrwt beam="1">  1       21 0.11072442E-02 0.21055759E+02</pdfrwt>
<pdfrwt beam="2">  1       21 0.13744644E-01 0.21055759E+02</pdfrwt>
<totfact> 0.98124924E+07</totfact>
</mgrwt>
</event>
<event>
 4    1  0.4594485E+006  0.2468334E+02  0.7546771E-02  0.1665592E+00
         21   -1    0    0  504  501  0.00000000000E+00  0.00000000000E+00  0.11263641898E+03  0.11263641898E+03  0.00000000000E+00 0. -1.
         21   -1    0    0  503  502 -0.00000000000E+00 -0.00000000000E+00 -0.16397817566E+02  0.16397817566E+02  0.00000000000E+00 0. -1.
         21    1    1    2  503  501 -0.24645920643E+02 -0.13585458947E+01 -0.46953600367E+01  0.25125951866E+02  0.00000000000E+00 0. -1.
         21    1    1    2  504  502  0.24645920643E+02  0.13585458947E+01  0.10093396145E+03  0.10390828468E+03  0.00000000000E+00 0. -1.
<mgrwt>
<rscale>  2 0.24683335E+02</rscale>
<asrwt>0</asrwt>
<pdfrwt beam="1">  1       21 0.17328679E-01 0.24683335E+02</pdfrwt>
<pdfrwt beam="2">  1       21 0.25227412E-02 0.24683335E+02</pdfrwt>
<totfact> 0.19583685E+07</totfact>
</mgrwt>
</event>
<event>
 4    1  0.4594485E+006  0.5575334E+02  0.7546771E-02  0.1416570E+00
         21   -1    0    0  504  501  0.00000000000E+00  0.00000000000E+00  0.66979805819E+02  0.66979805819E+02  0.00000000000E+00 0.  1.
         21   -1    0    0  503  502 -0.00000000000E+00 -0.00000000000E+00 -0.19787213098E+03  0.19787213098E+03  0.00000000000E+00 0. -1.
         21    1    1    2  503  501  0.54903643345E+02  0.96966372047E+01  0.50414223211E+02  0.75166672985E+02  0.00000000000E+00 0.  1.
         21    1    1    2  504  502 -0.54903643345E+02 -0.96966372047E+01 -0.18130654837E+03  0.18968526382E+03  0.00000000000E+00 0. -1.
<mgrwt>
<rscale>  2 0.55753339E+02</rscale>
<asrwt>0</asrwt>
<pdfrwt beam="1">  1       21 0.10304585E-01 0.55753339E+02</pdfrwt>
<pdfrwt beam="2">  1       21 0.30441867E-01 0.55753339E+02</pdfrwt>
<totfact> 0.78965915E+05</totfact>
</mgrwt>
</event>
<event>
 4    1  0.4594485E+006  0.3089032E+02  0.7546771E-02  0.1588451E+00
         21   -1    0    0  504  501  0.00000000000E+00  0.00000000000E+00  0.33179068643E+02  0.33179068643E+02  0.00000000000E+00 0. -1.
         21   -1    0    0  503  502 -0.00000000000E+00 -0.00000000000E+00 -0.28909920375E+02  0.28909920375E+02  0.00000000000E+00 0. -1.
         21    1    1    2  503  501  0.29941642635E+02  0.75967042505E+01 -0.10508389674E+00  0.30890498892E+02  0.00000000000E+00 0. -1.
         21    1    1    2  504  502 -0.29941642635E+02 -0.75967042505E+01  0.43742321649E+01  0.31198490127E+02  0.00000000000E+00 0. -1.
<mgrwt>
<rscale>  2 0.30890320E+02</rscale>
<asrwt>0</asrwt>
<pdfrwt beam="1">  1       21 0.51044721E-02 0.30890320E+02</pdfrwt>
<pdfrwt beam="2">  1       21 0.44476800E-02 0.30890320E+02</pdfrwt>
<totfact> 0.64275972E+07</totfact>
</mgrwt>
</event>
<event>
 4    1  0.4594485E+006  0.2614397E+02  0.7546771E-02  0.1645094E+00
         21   -1    0    0  502  501  0.00000000000E+00  0.00000000000E+00  0.19043540336E+02  0.19043540336E+02  0.00000000000E+00 0.  1.
         21   -1    0    0  504  502 -0.00000000000E+00 -0.00000000000E+00 -0.53834416597E+02  0.53834416597E+02  0.00000000000E+00 0.  1.
         21    1    1    2  503  501  0.23542371390E+02 -0.11369419435E+02  0.36413324852E+01  0.26396330260E+02  0.00000000000E+00 0.  1.
         21    1    1    2  504  503 -0.23542371390E+02  0.11369419435E+02 -0.38432208746E+02  0.46481626672E+02  0.00000000000E+00 0.  1.
<mgrwt>
<rscale>  2 0.26143966E+02</rscale>
<asrwt>0</asrwt>
<pdfrwt beam="1">  1       21 0.29297754E-02 0.26143966E+02</pdfrwt>
<pdfrwt beam="2">  1       21 0.82822179E-02 0.26143966E+02</pdfrwt>
<totfact> 0.54420719E+07</totfact>
</mgrwt>
</event>
<event>
 4    1  0.4594485E+006  0.5839893E+02  0.7546771E-02  0.1404676E+00
         21   -1    0    0  503  501  0.00000000000E+00  0.00000000000E+00  0.58592520990E+02  0.58592520990E+02  0.00000000000E+00 0.  1.
         21   -1    0    0  504  502 -0.00000000000E+00 -0.00000000000E+00 -0.13146403089E+03  0.13146403089E+03  0.00000000000E+00 0.  1.
         21    1    1    2  503  502 -0.39338778777E+02  0.43161275362E+02  0.34501936771E+02  0.67829336186E+02  0.00000000000E+00 0.  1.
         21    1    1    2  504  501  0.39338778777E+02 -0.43161275362E+02 -0.10737344667E+03  0.12222721570E+03  0.00000000000E+00 0.  1.
<mgrwt>
<rscale>  2 0.58398932E+02</rscale>
<asrwt>0</asrwt>
<pdfrwt beam="1">  1       21 0.90142341E-02 0.58398932E+02</pdfrwt>
<pdfrwt beam="2">  1       21 0.20225235E-01 0.58398932E+02</pdfrwt>
<totfact> 0.21133850E+06</totfact>
</mgrwt>
</event>
<event>
 4    1  0.4594485E+006  0.2196136E+02  0.7546771E-02  0.1708921E+00
         21   -1    0    0  503  501  0.00000000000E+00  0.00000000000E+00  0.32943794164E+03  0.32943794164E+03  0.00000000000E+00 0. -1.
         21   -1    0    0  501  502 -0.00000000000E+00 -0.00000000000E+00 -0.20265231850E+03  0.20265231850E+03  0.00000000000E+00 0. -1.
         21    1    1    2  503  504  0.21403365117E+02 -0.49190925509E+01  0.32847521000E+03  0.32920854347E+03  0.00000000000E+00 0. -1.
         21    1    1    2  504  502 -0.21403365117E+02  0.49190925509E+01 -0.20168958687E+03  0.20288171667E+03  0.00000000000E+00 0. -1.
<mgrwt>
<rscale>  2 0.21961364E+02</rscale>
<asrwt>0</asrwt>
<pdfrwt beam="1">  1       21 0.50682760E-01 0.21961364E+02</pdfrwt>
<pdfrwt beam="2">  1       21 0.31177280E-01 0.21961364E+02</pdfrwt>
<totfact> 0.42461665E+04</totfact>
</mgrwt>
</event>
<event>
 4    1  0.4594485E+006  0.2119395E+02  0.7546771E-02  0.1722577E+00
         21   -1    0    0  503  501  0.00000000000E+00  0.00000000000E+00  0.43232974839E+02  0.43232974839E+02  0.00000000000E+00 0. -1.
         21   -1    0    0  504  502 -0.00000000000E+00 -0.00000000000E+00 -0.96431883452E+02  0.96431883452E+02  0.00000000000E+00 0.  1.
         21    1    1    2  503  502  0.34779300489E+01  0.20906641883E+02  0.39363816776E+02  0.44706752772E+02  0.00000000000E+00 0. -1.
         21    1    1    2  504  501 -0.34779300489E+01 -0.20906641883E+02 -0.92562725390E+02  0.94958105519E+02  0.00000000000E+00 0.  1.
<mgrwt>
<rscale>  2 0.21193954E+02</rscale>
<asrwt>0</asrwt>
<pdfrwt beam="1">  1       21 0.66512270E-02 0.21193954E+02</pdfrwt>
<pdfrwt beam="2">  1       21 0.14835674E-01 0.21193954E+02</pdfrwt>
<totfact> 0.53708926E+06</totfact>
</mgrwt>
</event>
<event>
 4    1  0.4594485E+006  0.2251529E+02  0.7546771E-02  0.1699490E+00
         21   -1    0    0  503  501  0.00000000000E+00  0.00000000000E+00  0.28373980986E+01  0.28373980986E+01  0.00000000000E+00 0.  1.
         21   -1    0    0  504  502 -0.00000000000E+00 -0.00000000000E+00 -0.18941408319E+03  0.18941408319E+03  0.00000000000E+00 0.  1.
         21    1    1    2  503  502 -0.28366430897E+01 -0.22335883717E+02 -0.70387137664E+02  0.73900523638E+02  0.00000000000E+00 0.  1.
         21    1    1    2  504  501  0.28366430897E+01  0.22335883717E+02 -0.11618954742E+03  0.11835095765E+03  0.00000000000E+00 0.  1.
<mgrwt>
<rscale>  2 0.22515289E+02</rscale>
<asrwt>0</asrwt>
<pdfrwt beam="1">  1       21 0.43652257E-03 0.22515289E+02</pdfrwt>
<pdfrwt beam="2">  1       21 0.29140643E-01 0.22515289E+02</pdfrwt>
<totfact> 0.10745968E+08</totfact>
</mgrwt>
</event>
<event>
 4    1  0.4594485E+006  0.2149469E+02  0.7546771E-02  0.1717140E+00
         21   -1    0    0  504  501  0.00000000000E+00  0.00000000000E+00  0.44848481396E+02  0.44848481396E+02  0.00000000000E+00 0.  1.
         21   -1    0    0  501  502 -0.00000000000E+00 -0.00000000000E+00 -0.11169449603E+02  0.11169449603E+02  0.00000000000E+00 0.  1.
         21    1    1    2  503  502 -0.17989198562E+02 -0.11764794650E+02  0.90332274668E+01  0.23315678341E+02  0.00000000000E+00 0.  1.
         21    1    1    2  504  503  0.17989198562E+02  0.11764794650E+02  0.24645804326E+02  0.32702252658E+02  0.00000000000E+00 0.  1.
<mgrwt>
<rscale>  2 0.21494689E+02</rscale>
<asrwt>0</asrwt>
<pdfrwt beam="1">  1       21 0.68997663E-02 0.21494689E+02</pdfrwt>
<pdfrwt beam="2">  1       21 0.17183769E-02 0.21494689E+02</pdfrwt>
<totfact> 0.15805389E+08</totfact>
</mgrwt>
</event>
<event>
 4    1  0.4594485E+006  0.2567425E+02  0.7546771E-02  0.1651502E+00
         21   -1    0    0  502  501  0.00000000000E+00  0.00000000000E+00  0.58483659268E+03  0.58483659268E+03  0.00000000000E+00 0.  1.
         21   -1    0    0  503  502 -0.00000000000E+00 -0.00000000000E+00 -0.19818463310E+02  0.19818463310E+02  0.00000000000E+00 0. -1.
         21    1    1    2  503  504  0.41840625658E+01 -0.25331022921E+02 -0.11095794028E+02  0.27969335832E+02  0.00000000000E+00 0. -1.
         21    1    1    2  504  501 -0.41840625658E+01  0.25331022921E+02  0.57611392340E+03  0.57668572016E+03  0.00000000000E+00 0.  1.
<mgrwt>
<rscale>  2 0.25674250E+02</rscale>
<asrwt>0</asrwt>
<pdfrwt beam="1">  1       21 0.89974847E-01 0.25674250E+02</pdfrwt>
<pdfrwt beam="2">  1       21 0.30489948E-02 0.25674250E+02</pdfrwt>
<totfact> 0.63472638E+05</totfact>
</mgrwt>
</event>
<event>
 4    1  0.4594485E+006  0.2849134E+02  0.7546771E-02  0.1615390E+00
         21   -1    0    0  504  501  0.00000000000E+00  0.00000000000E+00  0.13068499212E+04  0.13068499212E+04  0.00000000000E+00 0.  1.
         21   -1    0    0  501  502 -0.00000000000E+00 -0.00000000000E+00 -0.24339759444E+01  0.24339759444E+01  0.00000000000E+00 0.  1.
         21    1    1    2  503  502 -0.22970763147E+02  0.16855283621E+02  0.87240911278E+02  0.91775449583E+02  0.00000000000E+00 0.  1.
         21    1    1    2  504  503  0.22970763147E+02 -0.16855283621E+02  0.12171750340E+04  0.12175084476E+04  0.00000000000E+00 0.  1.
<mgrwt>
<rscale>  2 0.28491342E+02</rscale>
<asrwt>0</asrwt>
<pdfrwt beam="1">  1       21 0.20105327E+00 0.28491342E+02</pdfrwt>
<pdfrwt beam="2">  1       21 0.37445888E-03 0.28491342E+02</pdfrwt>
<totfact> 0.23098506E+06</totfact>
</mgrwt>
</event>
<event>
 4    1  0.4594485E+006  0.2109464E+02  0.7546771E-02  0.1724397E+00
         21   -1    0    0  503  501  0.00000000000E+00  0.00000000000E+00  0.10198023097E+03  0.10198023097E+03  0.00000000000E+00 0. -1.
         21   -1    0    0  504  502 -0.00000000000E+00 -0.00000000000E+00 -0.11196496028E+02  0.11196496028E+02  0.00000000000E+00 0. -1.
         21    1    1    2  503  502 -0.15852428070E+02  0.13917055848E+02  0.89599145845E+02  0.92048850375E+02  0.00000000000E+00 0. -1.
         21    1    1    2  504  501  0.15852428070E+02 -0.13917055848E+02  0.11845890955E+01  0.21127876621E+02  0.00000000000E+00 0. -1.
<mgrwt>
<rscale>  2 0.21094642E+02</rscale>
<asrwt>0</asrwt>
<pdfrwt beam="1">  1       21 0.15689266E-01 0.21094642E+02</pdfrwt>
<pdfrwt beam="2">  1       21 0.17225379E-02 0.21094642E+02</pdfrwt>
<totfact> 0.40233965E+07</totfact>
</mgrwt>
</event>
<event>
 4    1  0.4594485E+006  0.2042118E+02  0.7546771E-02  0.1737080E+00
         21   -1    0    0  503  501  0.00000000000E+00  0.00000000000E+00  0.46793948930E+01  0.46793948930E+01  0.00000000000E+00 0.  1.
         21   -1    0    0  504  502 -0.00000000000E+00 -0.00000000000E+00 -0.11773753106E+03  0.11773753106E+03  0.00000000000E+00 0. -1.
         21    1    1    2  503  502 -0.35614271967E+01  0.20108225318E+02 -0.26352124171E+02  0.33338550320E+02  0.00000000000E+00 0.  1.
         21    1    1    2  504  501  0.35614271967E+01 -0.20108225318E+02 -0.86706011998E+02  0.89078375635E+02  0.00000000000E+00 0. -1.
<mgrwt>
<rscale>  2 0.20421177E+02</rscale>
<asrwt>0</asrwt>
<pdfrwt beam="1">  1       21 0.71990691E-03 0.20421177E+02</pdfrwt>
<pdfrwt beam="2">  1       21 0.18113466E-01 0.20421177E+02</pdfrwt>
<totfact> 0.11556492E+08</totfact>
</mgrwt>
</event>
<event>
 4    1  0.4594485E+006  0.2072628E+02  0.7546771E-02  0.1731259E+00
         21   -1    0    0  504  501  0.00000000000E+00  0.00000000000E+00  0.27323853687E+01  0.27323853687E+01  0.00000000000E+00 0.  1.
         21   -1    0    0  503  502 -0.00000000000E+00 -0.00000000000E+00 -0.87308991482E+03  0.87308991482E+03  0.00000000000E+00 0. -1.
         21    1    1    2  503  501  0.52821283971E+01 -0.20041899535E+02 -0.83170721374E+03  0.83196542476E+03  0.00000000000E+00 0. -1.
         21    1    1    2  504  502 -0.52821283971E+01  0.20041899535E+02 -0.38650315713E+02  0.43856875425E+02  0.00000000000E+00 0.  1.
<mgrwt>
<rscale>  2 0.20726278E+02</rscale>
<asrwt>0</asrwt>
<pdfrwt beam="1">  1       21 0.42036655E-03 0.20726278E+02</pdfrwt>
<pdfrwt beam="2">  1       21 0.13432166E+00 0.20726278E+02</pdfrwt>
<totfact> 0.50645702E+06</totfact>
</mgrwt>
</event>
<event>
 4    1  0.4594485E+006  0.2089551E+02  0.7546771E-02  0.1728085E+00
         21   -1    0    0  503  501  0.00000000000E+00  0.00000000000E+00  0.86495354611E+01  0.86495354611E+01  0.00000000000E+00 0. -1.
         21   -1    0    0  501  502 -0.00000000000E+00 -0.00000000000E+00 -0.80965691078E+03  0.80965691078E+03  0.00000000000E+00 0.  1.
         21    1    1    2  503  504 -0.52816311760E+01  0.20216988408E+02 -0.43103509880E+01  0.21335448760E+02  0.00000000000E+00 0. -1.
         21    1    1    2  504  502  0.52816311760E+01 -0.20216988408E+02 -0.79669702433E+03  0.79697099748E+03  0.00000000000E+00 0.  1.
<mgrwt>
<rscale>  2 0.20895508E+02</rscale>
<asrwt>0</asrwt>
<pdfrwt beam="1">  1       21 0.13306970E-02 0.20895508E+02</pdfrwt>
<pdfrwt beam="2">  1       21 0.12456267E+00 0.20895508E+02</pdfrwt>
<totfact> 0.10876548E+06</totfact>
</mgrwt>
</event>
<event>
 4    1  0.4594485E+006  0.2056374E+02  0.7546771E-02  0.1734344E+00
         21   -1    0    0  503  501  0.00000000000E+00  0.00000000000E+00  0.56907131022E+01  0.56907131022E+01  0.00000000000E+00 0. -1.
         21   -1    0    0  504  502 -0.00000000000E+00 -0.00000000000E+00 -0.13184370852E+03  0.13184370852E+03  0.00000000000E+00 0. -1.
         21    1    1    2  503  502  0.18234990542E+02  0.95053997551E+01 -0.10850402668E+03  0.11043546219E+03  0.00000000000E+00 0. -1.
         21    1    1    2  504  501 -0.18234990542E+02 -0.95053997551E+01 -0.17648968742E+02  0.27098959431E+02  0.00000000000E+00 0. -1.
<mgrwt>
<rscale>  2 0.20563742E+02</rscale>
<asrwt>0</asrwt>
<pdfrwt beam="1">  1       21 0.87549431E-03 0.20563742E+02</pdfrwt>
<pdfrwt beam="2">  1       21 0.20283648E-01 0.20563742E+02</pdfrwt>
<totfact> 0.71183942E+07</totfact>
</mgrwt>
</event>
<event>
 4    1  0.4594485E+006  0.2420083E+02  0.7546771E-02  0.1672753E+00
         21   -1    0    0  504  501  0.00000000000E+00  0.00000000000E+00  0.58557411849E+01  0.58557411849E+01  0.00000000000E+00 0.  1.
         21   -1    0    0  503  502 -0.00000000000E+00 -0.00000000000E+00 -0.27317206020E+03  0.27317206020E+03  0.00000000000E+00 0.  1.
         21    1    1    2  503  501  0.16015396528E+02 -0.18143515688E+02 -0.24473296490E+03  0.24592662360E+03  0.00000000000E+00 0.  1.
         21    1    1    2  504  502 -0.16015396528E+02  0.18143515688E+02 -0.22583354112E+02  0.33101177780E+02  0.00000000000E+00 0.  1.
<mgrwt>
<rscale>  2 0.24200828E+02</rscale>
<asrwt>0</asrwt>
<pdfrwt beam="1">  1       21 0.90088326E-03 0.24200828E+02</pdfrwt>
<pdfrwt beam="2">  1       21 0.42026471E-01 0.24200828E+02</pdfrwt>
<totfact> 0.18915557E+07</totfact>
</mgrwt>
</event>
<event>
 4    1  0.4594485E+006  0.2707428E+02  0.7546771E-02  0.1632880E+00
         21   -1    0    0  503  501  0.00000000000E+00  0.00000000000E+00  0.37426209718E+00  0.37426209718E+00  0.00000000000E+00 0.  1.
         21   -1    0    0  504  502 -0.00000000000E+00 -0.00000000000E+00 -0.20932207269E+04  0.20932207269E+04  0.00000000000E+00 0.  1.
         21    1    1    2  503  502  0.27059203105E+02  0.90340384064E+00 -0.13119251846E+04  0.13122045216E+04  0.00000000000E+00 0.  1.
         21    1    1    2  504  501 -0.27059203105E+02 -0.90340384064E+00 -0.78092128024E+03  0.78139046740E+03  0.00000000000E+00 0.  1.
<mgrwt>
<rscale>  2 0.27074280E+02</rscale>
<asrwt>0</asrwt>
<pdfrwt beam="1">  1       21 0.57577994E-04 0.27074280E+02</pdfrwt>
<pdfrwt beam="2">  1       21 0.32203838E+00 0.27074280E+02</pdfrwt>
<totfact> 0.83113413E+06</totfact>
</mgrwt>
</event>
<event>
 4    1  0.4594485E+006  0.5549804E+02  0.7546771E-02  0.1417758E+00
         21   -1    0    0  502  501  0.00000000000E+00  0.00000000000E+00  0.38195945287E+02  0.38195945287E+02  0.00000000000E+00 0. -1.
         21   -1    0    0  504  502 -0.00000000000E+00 -0.00000000000E+00 -0.63171351675E+03  0.63171351675E+03  0.00000000000E+00 0.  1.
         21    1    1    2  503  501  0.53923862443E+02 -0.13124398044E+02  0.16088010790E+02  0.57782842228E+02  0.00000000000E+00 0. -1.
         21    1    1    2  504  503 -0.53923862443E+02  0.13124398044E+02 -0.60960558225E+03  0.61212661981E+03  0.00000000000E+00 0.  1.
<mgrwt>
<rscale>  2 0.55498043E+02</rscale>
<asrwt>0</asrwt>
<pdfrwt beam="1">  1       21 0.58762998E-02 0.55498043E+02</pdfrwt>
<pdfrwt beam="2">  1       21 0.97186686E-01 0.55498043E+02</pdfrwt>
<totfact> 0.18855752E+05</totfact>
</mgrwt>
</event>
<event>
 4    1  0.4594485E+006  0.2001315E+02  0.7546771E-02  0.1745067E+00
         21   -1    0    0  503  501  0.00000000000E+00  0.00000000000E+00  0.44159319746E+01  0.44159319746E+01  0.00000000000E+00 0. -1.
         21   -1    0    0  504  502 -0.00000000000E+00 -0.00000000000E+00 -0.93937519664E+02  0.93937519664E+02  0.00000000000E+00 0. -1.
         21    1    1    2  503  502 -0.20008938483E+02 -0.41066769133E+00 -0.53889883726E+02  0.57486049048E+02  0.00000000000E+00 0. -1.
         21    1    1    2  504  501  0.20008938483E+02  0.41066769133E+00 -0.35631703964E+02  0.40867402591E+02  0.00000000000E+00 0. -1.
<mgrwt>
<rscale>  2 0.20013152E+02</rscale>
<asrwt>0</asrwt>
<pdfrwt beam="1">  1       21 0.67937415E-03 0.20013152E+02</pdfrwt>
<pdfrwt beam="2">  1       21 0.14451926E-01 0.20013152E+02</pdfrwt>
<totfact> 0.18383618E+08</totfact>
</mgrwt>
</event>
<event>
 4    1  0.4594485E+006  0.3303208E+02  0.7546771E-02  0.1566804E+00
         21   -1    0    0  503  501  0.00000000000E+00  0.00000000000E+00  0.28334458330E+02  0.28334458330E+02  0.00000000000E+00 0.  1.
         21   -1    0    0  504  502 -0.00000000000E+00 -0.00000000000E+00 -0.14537492532E+03  0.14537492532E+03  0.00000000000E+00 0.  1.
         21    1    1    2  503  502 -0.33031782833E+02  0.14062870135E+00 -0.13298813290E+03  0.13702905512E+03  0.00000000000E+00 0.  1.
         21    1    1    2  504  501  0.33031782833E+02 -0.14062870135E+00  0.15947665909E+02  0.36680328536E+02  0.00000000000E+00 0.  1.
<mgrwt>
<rscale>  2 0.33032082E+02</rscale>
<asrwt>0</asrwt>
<pdfrwt beam="1">  1       21 0.43591473E-02 0.33032082E+02</pdfrwt>
<pdfrwt beam="2">  1       21 0.22365374E-01 0.33032082E+02</pdfrwt>
<totfact> 0.55423921E+06</totfact>
</mgrwt>
</event>
<event>
 4    1  0.4594485E+006  0.2059035E+02  0.7546771E-02  0.1733837E+00
         21   -1    0    0  504  501  0.00000000000E+00  0.00000000000E+00  0.23714835721E+03  0.23714835721E+03  0.00000000000E+00 0.  1.
         21   -1    0    0  503  502 -0.00000000000E+00 -0.00000000000E+00 -0.56804463926E+01  0.56804463926E+01  0.00000000000E+00 0. -1.
         21    1    1    2  503  501 -0.20514067331E+02  0.17707116976E+01  0.15225142605E+02  0.25607954736E+02  0.00000000000E+00 0. -1.
         21    1    1    2  504  502  0.20514067331E+02 -0.17707116976E+01  0.21624276821E+03  0.21722084886E+03  0.00000000000E+00 0.  1.
<mgrwt>
<rscale>  2 0.20590347E+02</rscale>
<asrwt>0</asrwt>
<pdfrwt beam="1">  1       21 0.36484355E-01 0.20590347E+02</pdfrwt>
<pdfrwt beam="2">  1       21 0.87391502E-03 0.20590347E+02</pdfrwt>
<totfact> 0.24933007E+07</totfact>
</mgrwt>
</event>
<event>
 4    1  0.4594485E+006  0.2467250E+02  0.7546771E-02  0.1665751E+00
         21   -1    0    0  502  501  0.00000000000E+00  0.00000000000E+00  0.67753757360E+02  0.67753757360E+02  0.00000000000E+00 0. -1.
         21   -1    0    0  504  502 -0.00000000000E+00 -0.00000000000E+00 -0.11334804927E+02  0.11334804927E+02  0.00000000000E+00 0. -1.
         21    1    1    2  503  501 -0.20316986852E+02 -0.13998296110E+02  0.46216446717E+02  0.52389810039E+02  0.00000000000E+00 0. -1.
         21    1    1    2  504  503  0.20316986852E+02  0.13998296110E+02  0.10202505716E+02  0.26698752248E+02  0.00000000000E+00 0. -1.
<mgrwt>
<rscale>  2 0.24672500E+02</rscale>
<asrwt>0</asrwt>
<pdfrwt beam="1">  1       21 0.10423655E-01 0.24672500E+02</pdfrwt>
<pdfrwt beam="2">  1       21 0.17438162E-02 0.24672500E+02</pdfrwt>
<totfact> 0.81835988E+07</totfact>
</mgrwt>
</event>
<event>
 4    1  0.4594485E+006  0.2024262E+02  0.7546771E-02  0.1740546E+00
         21   -1    0    0  503  501  0.00000000000E+00  0.00000000000E+00  0.14247237256E+01  0.14247237256E+01  0.00000000000E+00 0.  1.
         21   -1    0    0  504  502 -0.00000000000E+00 -0.00000000000E+00 -0.30357729745E+03  0.30357729745E+03  0.00000000000E+00 0.  1.
         21    1    1    2  503  502  0.68908460655E+01  0.19033652940E+02 -0.11610076852E+03  0.11785224714E+03  0.00000000000E+00 0.  1.
         21    1    1    2  504  501 -0.68908460655E+01 -0.19033652940E+02 -0.18605180520E+03  0.18714977404E+03  0.00000000000E+00 0.  1.
<mgrwt>
<rscale>  2 0.20242621E+02</rscale>
<asrwt>0</asrwt>
<pdfrwt beam="1">  1       21 0.21918842E-03 0.20242621E+02</pdfrwt>
<pdfrwt beam="2">  1       21 0.46704167E-01 0.20242621E+02</pdfrwt>
<totfact> 0.11820865E+08</totfact>
</mgrwt>
</event>
<event>
 4    1  0.4594485E+006  0.2295016E+02  0.7546771E-02  0.1692319E+00
         21   -1    0    0  504  501  0.00000000000E+00  0.00000000000E+00  0.36483149172E+02  0.36483149172E+02  0.00000000000E+00 0.  1.
         21   -1    0    0  503  502 -0.00000000000E+00 -0.00000000000E+00 -0.40900563020E+02  0.40900563020E+02  0.00000000000E+00 0.  1.
         21    1    1    2  503  501  0.18384616961E+02 -0.13737390382E+02 -0.33331491512E+02  0.40468486032E+02  0.00000000000E+00 0.  1.
         21    1    1    2  504  502 -0.18384616961E+02  0.13737390382E+02  0.28914077664E+02  0.36915226160E+02  0.00000000000E+00 0.  1.
<mgrwt>
<rscale>  2 0.22950164E+02</rscale>
<asrwt>0</asrwt>
<pdfrwt beam="1">  1       21 0.56127922E-02 0.22950164E+02</pdfrwt>
<pdfrwt beam="2">  1       21 0.62923943E-02 0.22950164E+02</pdfrwt>
<totfact> 0.29502070E+07</totfact>
</mgrwt>
</event>
<event>
 4    1  0.4594485E+006  0.2012306E+02  0.7546771E-02  0.1742892E+00
         21   -1    0    0  504  501  0.00000000000E+00  0.00000000000E+00  0.21152159696E+02  0.21152159696E+02  0.00000000000E+00 0.  1.
         21   -1    0    0  501  502 -0.00000000000E+00 -0.00000000000E+00 -0.36687486763E+02  0.36687486763E+02  0.00000000000E+00 0.  1.
         21    1    1    2  503  502  0.13581141313E+02 -0.14848906286E+02 -0.27766021303E+02  0.34291243143E+02  0.00000000000E+00 0.  1.
         21    1    1    2  504  503 -0.13581141313E+02  0.14848906286E+02  0.12230694237E+02  0.23548403317E+02  0.00000000000E+00 0.  1.
<mgrwt>
<rscale>  2 0.20123057E+02</rscale>
<asrwt>0</asrwt>
<pdfrwt beam="1">  1       21 0.32541785E-02 0.20123057E+02</pdfrwt>
<pdfrwt beam="2">  1       21 0.56442287E-02 0.20123057E+02</pdfrwt>
<totfact> 0.80092952E+07</totfact>
</mgrwt>
</event>
<event>
 4    1  0.4594485E+006  0.2251318E+02  0.7546771E-02  0.1699525E+00
         21   -1    0    0  502  501  0.00000000000E+00  0.00000000000E+00  0.21622675767E+03  0.21622675767E+03  0.00000000000E+00 0.  1.
         21   -1    0    0  503  502 -0.00000000000E+00 -0.00000000000E+00 -0.10472948756E+02  0.10472948756E+02  0.00000000000E+00 0.  1.
         21    1    1    2  503  504 -0.19605793421E+02  0.11065984378E+02  0.30143379104E+01  0.22714078871E+02  0.00000000000E+00 0.  1.
         21    1    1    2  504  501  0.19605793421E+02 -0.11065984378E+02  0.20273947100E+03  0.20398562755E+03  0.00000000000E+00 0.  1.
<mgrwt>
<rscale>  2 0.22513177E+02</rscale>
<asrwt>0</asrwt>
<pdfrwt beam="1">  1       21 0.33265652E-01 0.22513177E+02</pdfrwt>
<pdfrwt beam="2">  1       21 0.16112231E-02 0.22513177E+02</pdfrwt>
<totfact> 0.11990748E+07</totfact>
</mgrwt>
</event>
<event>
 4    1  0.4594485E+006  0.2044868E+02  0.7546771E-02  0.1736550E+00
         21   -1    0    0  502  501  0.00000000000E+00  0.00000000000E+00  0.62130181524E+01  0.62130181524E+01  0.00000000000E+00 0.  1.
         21   -1    0    0  504  502 -0.00000000000E+00 -0.00000000000E+00 -0.13663273567E+04  0.13663273567E+04  0.00000000000E+00 0. -1.
         21    1    1    2  503  501  0.26389837845E+01  0.20277674686E+02 -0.10902409987E+02  0.23173494980E+02  0.00000000000E+00 0.  1.
         21    1    1    2  504  503 -0.26389837845E+01 -0.20277674686E+02 -0.13492119286E+04  0.13493668799E+04  0.00000000000E+00 0. -1.
<mgrwt>
<rscale>  2 0.20448675E+02</rscale>
<asrwt>0</asrwt>
<pdfrwt beam="1">  1       21 0.95584922E-03 0.20448675E+02</pdfrwt>
<pdfrwt beam="2">  1       21 0.21020415E+00 0.20448675E+02</pdfrwt>
<totfact> 0.50584138E+05</totfact>
</mgrwt>
</event>
<event>
 4    1  0.4594485E+006  0.2499960E+02  0.7546771E-02  0.1661008E+00
         21   -1    0    0  503  501  0.00000000000E+00  0.00000000000E+00  0.26534574858E+03  0.26534574858E+03  0.00000000000E+00 0. -1.
         21   -1    0    0  504  502 -0.00000000000E+00 -0.00000000000E+00 -0.27329721308E+01  0.27329721308E+01  0.00000000000E+00 0. -1.
         21    1    1    2  503  502  0.23597541501E+02  0.82544703574E+01  0.18113141056E+03  0.18284848410E+03  0.00000000000E+00 0. -1.
         21    1    1    2  504  501 -0.23597541501E+02 -0.82544703574E+01  0.81481365888E+02  0.85230236610E+02  0.00000000000E+00 0. -1.
<mgrwt>
<rscale>  2 0.24999605E+02</rscale>
<asrwt>0</asrwt>
<pdfrwt beam="1">  1       21 0.40822402E-01 0.24999605E+02</pdfrwt>
<pdfrwt beam="2">  1       21 0.42045746E-03 0.24999605E+02</pdfrwt>
<totfact> 0.62465618E+07</totfact>
</mgrwt>
</event>
<event>
 4    1  0.4594485E+006  0.2337771E+02  0.7546771E-02  0.1685460E+00
         21   -1    0    0  503  501  0.00000000000E+00  0.00000000000E+00  0.57206538849E+02  0.57206538849E+02  0.00000000000E+00 0.  1.
         21   -1    0    0  501  502 -0.00000000000E+00 -0.00000000000E+00 -0.28519133525E+03  0.28519133525E+03  0.00000000000E+00 0. -1.
         21    1    1    2  503  504 -0.22585812507E+02 -0.60331038541E+01  0.54314683673E+02  0.59132073625E+02  0.00000000000E+00 0.  1.
         21    1    1    2  504  502  0.22585812507E+02  0.60331038541E+01 -0.28229948007E+03  0.28326580047E+03  0.00000000000E+00 0. -1.
<mgrwt>
<rscale>  2 0.23377709E+02</rscale>
<asrwt>0</asrwt>
<pdfrwt beam="1">  1       21 0.88010061E-02 0.23377709E+02</pdfrwt>
<pdfrwt beam="2">  1       21 0.43875590E-01 0.23377709E+02</pdfrwt>
<totfact> 0.49474327E+05</totfact>
</mgrwt>
</event>
<event>
 4    1  0.4594485E+006  0.2344529E+02  0.7546771E-02  0.1684392E+00
         21   -1    0    0  502  501  0.00000000000E+00  0.00000000000E+00  0.41613919145E+03  0.41613919145E+03  0.00000000000E+00 0. -1.
         21   -1    0    0  504  502 -0.00000000000E+00 -0.00000000000E+00 -0.25627268922E+01  0.25627268922E+01  0.00000000000E+00 0.  1.
         21    1    1    2  503  501  0.11643722306E+01 -0.23416355752E+02  0.35251957571E+03  0.35329836220E+03  0.00000000000E+00 0. -1.
         21    1    1    2  504  503 -0.11643722306E+01  0.23416355752E+02  0.61056888852E+02  0.65403556139E+02  0.00000000000E+00 0.  1.
<mgrwt>
<rscale>  2 0.23445287E+02</rscale>
<asrwt>0</asrwt>
<pdfrwt beam="1">  1       21 0.64021360E-01 0.23445287E+02</pdfrwt>
<pdfrwt beam="2">  1       21 0.39426601E-03 0.23445287E+02</pdfrwt>
<totfact> 0.28070275E+07</totfact>
</mgrwt>
</event>
<event>
 4    1  0.4594485E+006  0.2016131E+02  0.7546771E-02  0.1742139E+00
         21   -1    0    0  502  501  0.00000000000E+00  0.00000000000E+00  0.43348399363E+02  0.43348399363E+02  0.00000000000E+00 0.  1.
         21   -1    0    0  503  502 -0.00000000000E+00 -0.00000000000E+00 -0.11863219803E+02  0.11863219803E+02  0.00000000000E+00 0.  1.
         21    1    1    2  503  504  0.15527017370E+01  0.20101434142E+02  0.31048980223E+01  0.20398993333E+02  0.00000000000E+00 0.  1.
         21    1    1    2  504  501 -0.15527017370E+01 -0.20101434142E+02  0.28380281538E+02  0.34812625833E+02  0.00000000000E+00 0.  1.
<mgrwt>
<rscale>  2 0.20161313E+02</rscale>
<asrwt>0</asrwt>
<pdfrwt beam="1">  1       21 0.66689844E-02 0.20161313E+02</pdfrwt>
<pdfrwt beam="2">  1       21 0.18251108E-02 0.20161313E+02</pdfrwt>
<totfact> 0.14931485E+08</totfact>
</mgrwt>
</event>
<event>
 4    1  0.4594485E+006  0.2068482E+02  0.7546771E-02  0.1732043E+00
         21   -1    0    0  504  501  0.00000000000E+00  0.00000000000E+00  0.21208037347E+01  0.21208037347E+01  0.00000000000E+00 0. -1.
         21   -1    0    0  503  502 -0.00000000000E+00 -0.00000000000E+00 -0.37902053562E+03  0.37902053562E+03  0.00000000000E+00 0. -1.
         21    1    1    2  503  501  0.17910157918E+02  0.10348336180E+02 -0.31878122903E+03  0.31945161418E+03  0.00000000000E+00 0. -1.
         21    1    1    2  504  502 -0.17910157918E+02 -0.10348336180E+02 -0.58118502851E+02  0.61689725174E+02  0.00000000000E+00 0. -1.
<mgrwt>
<rscale>  2 0.20684821E+02</rscale>
<asrwt>0</asrwt>
<pdfrwt beam="1">  1       21 0.32627739E-03 0.20684821E+02</pdfrwt>
<pdfrwt beam="2">  1       21 0.58310872E-01 0.20684821E+02</pdfrwt>
<totfact> 0.43388898E+07</totfact>
</mgrwt>
</event>
<event>
 4    1  0.4594485E+006  0.6655223E+02  0.7546771E-02  0.1372226E+00
         21   -1    0    0  503  501  0.00000000000E+00  0.00000000000E+00  0.69826725980E+02  0.69826725980E+02  0.00000000000E+00 0.  1.
         21   -1    0    0  501  502 -0.00000000000E+00 -0.00000000000E+00 -0.94970051508E+02  0.94970051508E+02  0.00000000000E+00 0.  1.
         21    1    1    2  503  504 -0.42930297003E+02  0.50854584719E+02  0.34912382658E+02  0.75153666914E+02  0.00000000000E+00 0.  1.
         21    1    1    2  504  502  0.42930297003E+02 -0.50854584719E+02 -0.60055708186E+02  0.89643110575E+02  0.00000000000E+00 0.  1.
<mgrwt>
<rscale>  2 0.66552229E+02</rscale>
<asrwt>0</asrwt>
<pdfrwt beam="1">  1       21 0.10742573E-01 0.66552229E+02</pdfrwt>
<pdfrwt beam="2">  1       21 0.14610777E-01 0.66552229E+02</pdfrwt>
<totfact> 0.28199756E+06</totfact>
</mgrwt>
</event>
<event>
 4    1  0.4594485E+006  0.2307874E+02  0.7546771E-02  0.1690237E+00
         21   -1    0    0  504  501  0.00000000000E+00  0.00000000000E+00  0.22406442186E+02  0.22406442186E+02  0.00000000000E+00 0.  1.
         21   -1    0    0  503  502 -0.00000000000E+00 -0.00000000000E+00 -0.42804405155E+02  0.42804405155E+02  0.00000000000E+00 0. -1.
         21    1    1    2  503  501 -0.21544884247E+02  0.82732205750E+01  0.11543117998E+02  0.25804491644E+02  0.00000000000E+00 0.  1.
         21    1    1    2  504  502  0.21544884247E+02 -0.82732205750E+01 -0.31941080968E+02  0.39406355697E+02  0.00000000000E+00 0. -1.
<mgrwt>
<rscale>  2 0.23078739E+02</rscale>
<asrwt>0</asrwt>
<pdfrwt beam="1">  1       21 0.34471450E-02 0.23078739E+02</pdfrwt>
<pdfrwt beam="2">  1       21 0.65852931E-02 0.23078739E+02</pdfrwt>
<totfact> 0.59391875E+07</totfact>
</mgrwt>
</event>
<event>
 4    1  0.4594485E+006  0.3553345E+02  0.7546771E-02  0.1543914E+00
         21   -1    0    0  503  501  0.00000000000E+00  0.00000000000E+00  0.29626677216E+02  0.29626677216E+02  0.00000000000E+00 0. -1.
         21   -1    0    0  504  502 -0.00000000000E+00 -0.00000000000E+00 -0.45229078754E+02  0.45229078754E+02  0.00000000000E+00 0. -1.
         21    1    1    2  503  502 -0.26949123527E+02 -0.23159682417E+02 -0.16794237589E+02  0.39302322638E+02  0.00000000000E+00 0. -1.
         21    1    1    2  504  501  0.26949123527E+02  0.23159682417E+02  0.11918360509E+01  0.35553433332E+02  0.00000000000E+00 0. -1.
<mgrwt>
<rscale>  2 0.35533451E+02</rscale>
<asrwt>0</asrwt>
<pdfrwt beam="1">  1       21 0.45579504E-02 0.35533451E+02</pdfrwt>
<pdfrwt beam="2">  1       21 0.69583198E-02 0.35533451E+02</pdfrwt>
<totfact> 0.38444288E+07</totfact>
</mgrwt>
</event>
<event>
 4    1  0.4594485E+006  0.3663611E+02  0.7546771E-02  0.1534534E+00
         21   -1    0    0  503  501  0.00000000000E+00  0.00000000000E+00  0.38786556560E+02  0.38786556560E+02  0.00000000000E+00 0.  1.
         21   -1    0    0  504  502 -0.00000000000E+00 -0.00000000000E+00 -0.51000942133E+02  0.51000942133E+02  0.00000000000E+00 0. -1.
         21    1    1    2  503  502  0.36117992517E+02 -0.61396474668E+01 -0.31561798747E+02  0.48356507262E+02  0.00000000000E+00 0. -1.
         21    1    1    2  504  501 -0.36117992517E+02  0.61396474668E+01  0.19347413174E+02  0.41430991431E+02  0.00000000000E+00 0.  1.
<mgrwt>
<rscale>  2 0.36636111E+02</rscale>
<asrwt>0</asrwt>
<pdfrwt beam="1">  1       21 0.59671626E-02 0.36636111E+02</pdfrwt>
<pdfrwt beam="2">  1       21 0.78462988E-02 0.36636111E+02</pdfrwt>
<totfact> 0.20473674E+07</totfact>
</mgrwt>
</event>
<event>
 4    1  0.4594485E+006  0.2792100E+02  0.7546771E-02  0.1622276E+00
         21   -1    0    0  502  501  0.00000000000E+00  0.00000000000E+00  0.11476477493E+02  0.11476477493E+02  0.00000000000E+00 0. -1.
         21   -1    0    0  503  502 -0.00000000000E+00 -0.00000000000E+00 -0.70280323694E+02  0.70280323694E+02  0.00000000000E+00 0. -1.
         21    1    1    2  503  504  0.24233977417E+02  0.13867111504E+02 -0.36879466654E+02  0.46256648210E+02  0.00000000000E+00 0. -1.
         21    1    1    2  504  501 -0.24233977417E+02 -0.13867111504E+02 -0.21924379547E+02  0.35500152977E+02  0.00000000000E+00 0. -1.
<mgrwt>
<rscale>  2 0.27921004E+02</rscale>
<asrwt>0</asrwt>
<pdfrwt beam="1">  1       21 0.17656119E-02 0.27921004E+02</pdfrwt>
<pdfrwt beam="2">  1       21 0.10812357E-01 0.27921004E+02</pdfrwt>
<totfact> 0.77923545E+07</totfact>
</mgrwt>
</event>
<event>
 4    1  0.4594485E+006  0.2658782E+02  0.7546771E-02  0.1639190E+00
         21   -1    0    0  503  501  0.00000000000E+00  0.00000000000E+00  0.47089566647E+02  0.47089566647E+02  0.00000000000E+00 0.  1.
         21   -1    0    0  504  502 -0.00000000000E+00 -0.00000000000E+00 -0.59873671874E+02  0.59873671874E+02  0.00000000000E+00 0. -1.
         21    1    1    2  503  502 -0.18082660823E+02  0.19491777186E+02 -0.52685974719E+02  0.59014607788E+02  0.00000000000E+00 0. -1.
         21    1    1    2  504  501  0.18082660823E+02 -0.19491777186E+02  0.39901869491E+02  0.47948630733E+02  0.00000000000E+00 0.  1.
<mgrwt>
<rscale>  2 0.26587817E+02</rscale>
<asrwt>0</asrwt>
<pdfrwt beam="1">  1       21 0.72445487E-02 0.26587817E+02</pdfrwt>
<pdfrwt beam="2">  1       21 0.92113341E-02 0.26587817E+02</pdfrwt>
<totfact> 0.10811116E+07</totfact>
</mgrwt>
</event>
<event>
 4    1  0.4594485E+006  0.2336959E+02  0.7546771E-02  0.1685588E+00
         21   -1    0    0  503  501  0.00000000000E+00  0.00000000000E+00  0.18539913033E+01  0.18539913033E+01  0.00000000000E+00 0. -1.
         21   -1    0    0  501  502 -0.00000000000E+00 -0.00000000000E+00 -0.34844486710E+03  0.34844486710E+03  0.00000000000E+00 0.  1.
         21    1    1    2  503  504 -0.22654090912E+02  0.57384572408E+01 -0.10442727901E+03  0.10701025337E+03  0.00000000000E+00 0. -1.
         21    1    1    2  504  502  0.22654090912E+02 -0.57384572408E+01 -0.24216359679E+03  0.24328860503E+03  0.00000000000E+00 0.  1.
<mgrwt>
<rscale>  2 0.23369590E+02</rscale>
<asrwt>0</asrwt>
<pdfrwt beam="1">  1       21 0.28522991E-03 0.23369590E+02</pdfrwt>
<pdfrwt beam="2">  1       21 0.53606812E-01 0.23369590E+02</pdfrwt>
<totfact> 0.64139106E+07</totfact>
</mgrwt>
</event>
<event>
 4    1  0.4594485E+006  0.3905471E+02  0.7546771E-02  0.1515285E+00
         21   -1    0    0  503  501  0.00000000000E+00  0.00000000000E+00  0.33005204742E+02  0.33005204742E+02  0.00000000000E+00 0.  1.
         21   -1    0    0  504  502 -0.00000000000E+00 -0.00000000000E+00 -0.10036593322E+03  0.10036593322E+03  0.00000000000E+00 0. -1.
         21    1    1    2  503  502  0.37702838283E+02 -0.10186566743E+02 -0.82663841712E+02  0.91425274860E+02  0.00000000000E+00 0. -1.
         21    1    1    2  504  501 -0.37702838283E+02  0.10186566743E+02  0.15303113235E+02  0.41945863101E+02  0.00000000000E+00 0.  1.
<mgrwt>
<rscale>  2 0.39054707E+02</rscale>
<asrwt>0</asrwt>
<pdfrwt beam="1">  1       21 0.50777238E-02 0.39054707E+02</pdfrwt>
<pdfrwt beam="2">  1       21 0.15440913E-01 0.39054707E+02</pdfrwt>
<totfact> 0.85164014E+06</totfact>
</mgrwt>
</event>
<event>
 4    1  0.4594485E+006  0.2136610E+02  0.7546771E-02  0.1719451E+00
         21   -1    0    0  504  501  0.00000000000E+00  0.00000000000E+00  0.93388625132E+02  0.93388625132E+02  0.00000000000E+00 0. -1.
         21   -1    0    0  503  502 -0.00000000000E+00 -0.00000000000E+00 -0.57829970719E+02  0.57829970719E+02  0.00000000000E+00 0.  1.
         21    1    1    2  503  501  0.20754389636E+02 -0.50759948887E+01  0.90122506893E+02  0.92620606033E+02  0.00000000000E+00 0. -1.
         21    1    1    2  504  502 -0.20754389636E+02  0.50759948887E+01 -0.54563852479E+02  0.58597989818E+02  0.00000000000E+00 0.  1.
<mgrwt>
<rscale>  2 0.21366104E+02</rscale>
<asrwt>0</asrwt>
<pdfrwt beam="1">  1       21 0.14367481E-01 0.21366104E+02</pdfrwt>
<pdfrwt beam="2">  1       21 0.88969185E-02 0.21366104E+02</pdfrwt>
<totfact> 0.35413326E+06</totfact>
</mgrwt>
</event>
<event>
 4    1  0.4594485E+006  0.2203954E+02  0.7546771E-02  0.1707569E+00
         21   -1    0    0  504  501  0.00000000000E+00  0.00000000000E+00  0.27329274166E+03  0.27329274166E+03  0.00000000000E+00 0. -1.
         21   -1    0    0  503  502 -0.00000000000E+00 -0.00000000000E+00 -0.21144892570E+01  0.21144892570E+01  0.00000000000E+00 0. -1.
         21    1    1    2  503  501 -0.15236783565E+02 -0.15924248914E+02  0.80605061605E+02  0.83563851235E+02  0.00000000000E+00 0. -1.
         21    1    1    2  504  502  0.15236783565E+02  0.15924248914E+02  0.19057319079E+03  0.19184337968E+03  0.00000000000E+00 0. -1.
<mgrwt>
<rscale>  2 0.22039539E+02</rscale>
<asrwt>0</asrwt>
<pdfrwt beam="1">  1       21 0.42045009E-01 0.22039539E+02</pdfrwt>
<pdfrwt beam="2">  1       21 0.32530626E-03 0.22039539E+02</pdfrwt>
<totfact> 0.83370681E+07</totfact>
</mgrwt>
</event>
<event>
 4    1  0.4594485E+006  0.3459654E+02  0.7546771E-02  0.1552213E+00
         21   -1    0    0  504  501  0.00000000000E+00  0.00000000000E+00  0.29519213056E+02  0.29519213056E+02  0.00000000000E+00 0. -1.
         21   -1    0    0  503  502 -0.00000000000E+00 -0.00000000000E+00 -0.56112162613E+02  0.56112162613E+02  0.00000000000E+00 0. -1.
         21    1    1    2  503  501 -0.33287858248E+02  0.94254588438E+01  0.92536407936E+01  0.35812716304E+02  0.00000000000E+00 0. -1.
         21    1    1    2  504  502  0.33287858248E+02 -0.94254588438E+01 -0.35846590351E+02  0.49818659365E+02  0.00000000000E+00 0. -1.
<mgrwt>
<rscale>  2 0.34596543E+02</rscale>
<asrwt>0</asrwt>
<pdfrwt beam="1">  1       21 0.45414174E-02 0.34596543E+02</pdfrwt>
<pdfrwt beam="2">  1       21 0.86326403E-02 0.34596543E+02</pdfrwt>
<totfact> 0.26921693E+07</totfact>
</mgrwt>
</event>
<event>
 4    1  0.4594485E+006  0.2033704E+02  0.7546771E-02  0.1738707E+00
         21   -1    0    0  504  501  0.00000000000E+00  0.00000000000E+00  0.83623233844E+03  0.83623233844E+03  0.00000000000E+00 0. -1.
         21   -1    0    0  501  502 -0.00000000000E+00 -0.00000000000E+00 -0.24774771265E+02  0.24774771265E+02  0.00000000000E+00 0. -1.
         21    1    1    2  503  502 -0.92417021040E+01  0.18115908884E+02 -0.20455906881E+02  0.28845092109E+02  0.00000000000E+00 0. -1.
         21    1    1    2  504  503  0.92417021040E+01 -0.18115908884E+02  0.83191347406E+03  0.83216201760E+03  0.00000000000E+00 0. -1.
<mgrwt>
<rscale>  2 0.20337040E+02</rscale>
<asrwt>0</asrwt>
<pdfrwt beam="1">  1       21 0.12865111E+00 0.20337040E+02</pdfrwt>
<pdfrwt beam="2">  1       21 0.38115039E-02 0.20337040E+02</pdfrwt>
<totfact> 0.20059711E+05</totfact>
</mgrwt>
</event>
<event>
 4    1  0.4594485E+006  0.3696892E+02  0.7546771E-02  0.1531780E+00
         21   -1    0    0  504  501  0.00000000000E+00  0.00000000000E+00  0.50393041530E+02  0.50393041530E+02  0.00000000000E+00 0.  1.
         21   -1    0    0  501  502 -0.00000000000E+00 -0.00000000000E+00 -0.84308414665E+02  0.84308414665E+02  0.00000000000E+00 0. -1.
         21    1    1    2  503  502  0.34353200914E+02  0.13658657112E+02 -0.72427626375E+02  0.81317048578E+02  0.00000000000E+00 0. -1.
         21    1    1    2  504  503 -0.34353200914E+02 -0.13658657112E+02  0.38512253240E+02  0.53384407618E+02  0.00000000000E+00 0.  1.
<mgrwt>
<rscale>  2 0.36968924E+02</rscale>
<asrwt>0</asrwt>
<pdfrwt beam="1">  1       21 0.77527757E-02 0.36968924E+02</pdfrwt>
<pdfrwt beam="2">  1       21 0.12970525E-01 0.36968924E+02</pdfrwt>
<totfact> 0.57094671E+06</totfact>
</mgrwt>
</event>
<event>
 4    1  0.4594485E+006  0.2234213E+02  0.7546771E-02  0.1702401E+00
         21   -1    0    0  504  501  0.00000000000E+00  0.00000000000E+00  0.73644749553E+03  0.73644749553E+03  0.00000000000E+00 0. -1.
         21   -1    0    0  503  502 -0.00000000000E+00 -0.00000000000E+00 -0.11777130403E+01  0.11777130403E+01  0.00000000000E+00 0. -1.
         21    1    1    2  503  501 -0.14093883980E+02 -0.17335890315E+02  0.12734838406E+03  0.12929339341E+03  0.00000000000E+00 0. -1.
         21    1    1    2  504  502  0.14093883980E+02  0.17335890315E+02  0.60792139843E+03  0.60833181516E+03  0.00000000000E+00 0. -1.
<mgrwt>
<rscale>  2 0.22342127E+02</rscale>
<asrwt>0</asrwt>
<pdfrwt beam="1">  1       21 0.11329925E+00 0.22342127E+02</pdfrwt>
<pdfrwt beam="2">  1       21 0.18118721E-03 0.22342127E+02</pdfrwt>
<totfact> 0.25593416E+07</totfact>
</mgrwt>
</event>
<event>
 4    1  0.4594485E+006  0.2065675E+02  0.7546771E-02  0.1732575E+00
         21   -1    0    0  504  501  0.00000000000E+00  0.00000000000E+00  0.19973369816E+02  0.19973369816E+02  0.00000000000E+00 0.  1.
         21   -1    0    0  503  502 -0.00000000000E+00 -0.00000000000E+00 -0.36055524538E+02  0.36055524538E+02  0.00000000000E+00 0.  1.
         21    1    1    2  503  501  0.16338909868E+02  0.12638881177E+02 -0.25923930790E+02  0.33147420423E+02  0.00000000000E+00 0.  1.
         21    1    1    2  504  502 -0.16338909868E+02 -0.12638881177E+02  0.98417760681E+01  0.22881473931E+02  0.00000000000E+00 0.  1.
<mgrwt>
<rscale>  2 0.20656749E+02</rscale>
<asrwt>0</asrwt>
<pdfrwt beam="1">  1       21 0.30728262E-02 0.20656749E+02</pdfrwt>
<pdfrwt beam="2">  1       21 0.55470037E-02 0.20656749E+02</pdfrwt>
<totfact> 0.90703206E+07</totfact>
</mgrwt>
</event>
<event>
 4    1  0.4594485E+006  0.2605136E+02  0.7546771E-02  0.1646344E+00
         21   -1    0    0  503  501  0.00000000000E+00  0.00000000000E+00  0.11314943926E+03  0.11314943926E+03  0.00000000000E+00 0.  1.
         21   -1    0    0  504  502 -0.00000000000E+00 -0.00000000000E+00 -0.69874872609E+02  0.69874872609E+02  0.00000000000E+00 0.  1.
         21    1    1    2  503  502 -0.19218571610E+01  0.25980375554E+02 -0.65859079795E+02  0.70824373208E+02  0.00000000000E+00 0.  1.
         21    1    1    2  504  501  0.19218571610E+01 -0.25980375554E+02  0.10913364645E+03  0.11219993866E+03  0.00000000000E+00 0.  1.
<mgrwt>
<rscale>  2 0.26051362E+02</rscale>
<asrwt>0</asrwt>
<pdfrwt beam="1">  1       21 0.17407606E-01 0.26051362E+02</pdfrwt>
<pdfrwt beam="2">  1       21 0.10749980E-01 0.26051362E+02</pdfrwt>
<totfact> 0.19148744E+06</totfact>
</mgrwt>
</event>
<event>
 4    1  0.4594485E+006  0.2148157E+02  0.7546771E-02  0.1717375E+00
         21   -1    0    0  504  501  0.00000000000E+00  0.00000000000E+00  0.72180769851E+01  0.72180769851E+01  0.00000000000E+00 0. -1.
         21   -1    0    0  503  502 -0.00000000000E+00 -0.00000000000E+00 -0.12917519540E+03  0.12917519540E+03  0.00000000000E+00 0.  1.
         21    1    1    2  503  501 -0.20452405302E+02 -0.65693928758E+01 -0.12511705790E+02  0.24859617599E+02  0.00000000000E+00 0. -1.
         21    1    1    2  504  502  0.20452405302E+02  0.65693928758E+01 -0.10944541263E+03  0.11153365479E+03  0.00000000000E+00 0.  1.
<mgrwt>
<rscale>  2 0.21481569E+02</rscale>
<asrwt>0</asrwt>
<pdfrwt beam="1">  1       21 0.11104735E-02 0.21481569E+02</pdfrwt>
<pdfrwt beam="2">  1       21 0.19873104E-01 0.21481569E+02</pdfrwt>
<totfact> 0.52278302E+07</totfact>
</mgrwt>
</event>
<event>
 4    1  0.4594485E+006  0.2021379E+02  0.7546771E-02  0.1741110E+00
         21   -1    0    0  504  501  0.00000000000E+00  0.00000000000E+00  0.10446129284E+04  0.10446129284E+04  0.00000000000E+00 0.  1.
         21   -1    0    0  503  502 -0.00000000000E+00 -0.00000000000E+00 -0.60839408177E+02  0.60839408177E+02  0.00000000000E+00 0.  1.
         21    1    1    2  503  501  0.20170216126E+02  0.13266029189E+01 -0.59059756206E+02  0.62423171155E+02  0.00000000000E+00 0.  1.
         21    1    1    2  504  502 -0.20170216126E+02 -0.13266029189E+01  0.10428332764E+04  0.10430291654E+04  0.00000000000E+00 0.  1.
<mgrwt>
<rscale>  2 0.20213795E+02</rscale>
<asrwt>0</asrwt>
<pdfrwt beam="1">  1       21 0.16070967E+00 0.20213795E+02</pdfrwt>
<pdfrwt beam="2">  1       21 0.93599097E-02 0.20213795E+02</pdfrwt>
<totfact> 0.28390143E+04</totfact>
</mgrwt>
</event>
<event>
 4    1  0.4594485E+006  0.2218923E+02  0.7546771E-02  0.1705000E+00
         21   -1    0    0  503  501  0.00000000000E+00  0.00000000000E+00  0.85659205078E+01  0.85659205078E+01  0.00000000000E+00 0. -1.
         21   -1    0    0  504  502 -0.00000000000E+00 -0.00000000000E+00 -0.12714907272E+03  0.12714907272E+03  0.00000000000E+00 0.  1.
         21    1    1    2  503  502  0.21561715903E+02  0.52397081337E+01 -0.10952164672E+03  0.11174682651E+03  0.00000000000E+00 0.  1.
         21    1    1    2  504  501 -0.21561715903E+02 -0.52397081337E+01 -0.90615054853E+01  0.23968166715E+02  0.00000000000E+00 0. -1.
<mgrwt>
<rscale>  2 0.22189235E+02</rscale>
<asrwt>0</asrwt>
<pdfrwt beam="1">  1       21 0.13178340E-02 0.22189235E+02</pdfrwt>
<pdfrwt beam="2">  1       21 0.19561394E-01 0.22189235E+02</pdfrwt>
<totfact> 0.41854939E+07</totfact>
</mgrwt>
</event>
<event>
 4    1  0.4594485E+006  0.3049029E+02  0.7546771E-02  0.1592732E+00
         21   -1    0    0  503  501  0.00000000000E+00  0.00000000000E+00  0.59861218768E+01  0.59861218768E+01  0.00000000000E+00 0.  1.
         21   -1    0    0  504  502 -0.00000000000E+00 -0.00000000000E+00 -0.15715649617E+03  0.15715649617E+03  0.00000000000E+00 0.  1.
         21    1    1    2  503  502 -0.47639759396E+01 -0.30115817999E+02 -0.66724659800E+02  0.73361012711E+02  0.00000000000E+00 0.  1.
         21    1    1    2  504  501  0.47639759396E+01  0.30115817999E+02 -0.84445714492E+02  0.89781605335E+02  0.00000000000E+00 0.  1.
<mgrwt>
<rscale>  2 0.30490293E+02</rscale>
<asrwt>0</asrwt>
<pdfrwt beam="1">  1       21 0.92094184E-03 0.30490293E+02</pdfrwt>
<pdfrwt beam="2">  1       21 0.24177922E-01 0.30490293E+02</pdfrwt>
<totfact> 0.53245492E+07</totfact>
</mgrwt>
</event>
<event>
 4    1  0.4594485E+006  0.3355525E+02  0.7546771E-02  0.1561818E+00
         21   -1    0    0  503  501  0.00000000000E+00  0.00000000000E+00  0.38325784803E+01  0.38325784803E+01  0.00000000000E+00 0.  1.
         21   -1    0    0  504  502 -0.00000000000E+00 -0.00000000000E+00 -0.29681341312E+03  0.29681341312E+03  0.00000000000E+00 0.  1.
         21    1    1    2  503  502  0.61534705566E+00 -0.33549609115E+02 -0.16167403378E+03  0.16511949650E+03  0.00000000000E+00 0.  1.
         21    1    1    2  504  501 -0.61534705566E+00  0.33549609115E+02 -0.13130680085E+03  0.13552649510E+03  0.00000000000E+00 0.  1.
<mgrwt>
<rscale>  2 0.33555252E+02</rscale>
<asrwt>0</asrwt>
<pdfrwt beam="1">  1       21 0.58962740E-03 0.33555252E+02</pdfrwt>
<pdfrwt beam="2">  1       21 0.45663607E-01 0.33555252E+02</pdfrwt>
<totfact> 0.32364882E+07</totfact>
</mgrwt>
</event>
<event>
 4    1  0.4594485E+006  0.2184374E+02  0.7546771E-02  0.1710968E+00
         21   -1    0    0  504  501  0.00000000000E+00  0.00000000000E+00  0.14553783932E+01  0.14553783932E+01  0.00000000000E+00 0.  1.
         21   -1    0    0  503  502 -0.00000000000E+00 -0.00000000000E+00 -0.38256219138E+03  0.38256219138E+03  0.00000000000E+00 0.  1.
         21    1    1    2  503  501 -0.12547278921E+02 -0.17880572849E+02 -0.26316453148E+03  0.26406953577E+03  0.00000000000E+00 0.  1.
         21    1    1    2  504  502  0.12547278921E+02  0.17880572849E+02 -0.11794228151E+03  0.11994803400E+03  0.00000000000E+00 0.  1.
<mgrwt>
<rscale>  2 0.21843743E+02</rscale>
<asrwt>0</asrwt>
<pdfrwt beam="1">  1       21 0.22390472E-03 0.21843743E+02</pdfrwt>
<pdfrwt beam="2">  1       21 0.58855628E-01 0.21843743E+02</pdfrwt>
<totfact> 0.74511850E+07</totfact>
</mgrwt>
</event>
<event>
 4    1  0.4594485E+006  0.3659715E+02  0.7546771E-02  0.1534858E+00
         21   -1    0    0  504  501  0.00000000000E+00  0.00000000000E+00  0.43213664389E+03  0.43213664389E+03  0.00000000000E+00 0. -1.
         21   -1    0    0  503  502 -0.00000000000E+00 -0.00000000000E+00 -0.10779259150E+02  0.10779259150E+02  0.00000000000E+00 0.  1.
         21    1    1    2  503  501 -0.36541682339E+02  0.20142035227E+01  0.23750724984E+02  0.43628528525E+02  0.00000000000E+00 0.  1.
         21    1    1    2  504  502  0.36541682339E+02 -0.20142035227E+01  0.39760665976E+03  0.39928737451E+03  0.00000000000E+00 0. -1.
<mgrwt>
<rscale>  2 0.36597152E+02</rscale>
<asrwt>0</asrwt>
<pdfrwt beam="1">  1       21 0.66482547E-01 0.36597152E+02</pdfrwt>
<pdfrwt beam="2">  1       21 0.16583479E-02 0.36597152E+02</pdfrwt>
<totfact> 0.31888500E+06</totfact>
</mgrwt>
</event>
<event>
 4    1  0.4594485E+006  0.2810518E+02  0.7546771E-02  0.1620030E+00
         21   -1    0    0  504  501  0.00000000000E+00  0.00000000000E+00  0.13979659205E+03  0.13979659205E+03  0.00000000000E+00 0.  1.
         21   -1    0    0  503  502 -0.00000000000E+00 -0.00000000000E+00 -0.63861600968E+01  0.63861600968E+01  0.00000000000E+00 0.  1.
         21    1    1    2  503  501 -0.22135773622E+02  0.17317869633E+02  0.41895251908E+02  0.50449115105E+02  0.00000000000E+00 0.  1.
         21    1    1    2  504  502  0.22135773622E+02 -0.17317869633E+02  0.91515180040E+02  0.95733637037E+02  0.00000000000E+00 0.  1.
<mgrwt>
<rscale>  2 0.28105179E+02</rscale>
<asrwt>0</asrwt>
<pdfrwt beam="1">  1       21 0.21507166E-01 0.28105179E+02</pdfrwt>
<pdfrwt beam="2">  1       21 0.98248627E-03 0.28105179E+02</pdfrwt>
<totfact> 0.58438527E+07</totfact>
</mgrwt>
</event>
<event>
 4    1  0.4594485E+006  0.2375899E+02  0.7546771E-02  0.1679494E+00
         21   -1    0    0  503  501  0.00000000000E+00  0.00000000000E+00  0.35252109373E+01  0.35252109373E+01  0.00000000000E+00 0.  1.
         21   -1    0    0  504  502 -0.00000000000E+00 -0.00000000000E+00 -0.36723480728E+03  0.36723480728E+03  0.00000000000E+00 0.  1.
         21    1    1    2  503  502 -0.36766822636E+01 -0.23472788887E+02 -0.32107002184E+03  0.32194789755E+03  0.00000000000E+00 0.  1.
         21    1    1    2  504  501  0.36766822636E+01  0.23472788887E+02 -0.42639574504E+02  0.48812120671E+02  0.00000000000E+00 0.  1.
<mgrwt>
<rscale>  2 0.23758994E+02</rscale>
<asrwt>0</asrwt>
<pdfrwt beam="1">  1       21 0.54234032E-03 0.23758994E+02</pdfrwt>
<pdfrwt beam="2">  1       21 0.56497645E-01 0.23758994E+02</pdfrwt>
<totfact> 0.22600685E+07</totfact>
</mgrwt>
</event>
<event>
 4    1  0.4594485E+006  0.2742272E+02  0.7546771E-02  0.1628459E+00
         21   -1    0    0  502  501  0.00000000000E+00  0.00000000000E+00  0.77733711675E+02  0.77733711675E+02  0.00000000000E+00 0.  1.
         21   -1    0    0  504  502 -0.00000000000E+00 -0.00000000000E+00 -0.28339458383E+02  0.28339458383E+02  0.00000000000E+00 0.  1.
         21    1    1    2  503  501 -0.17413567517E+02 -0.21184264117E+02  0.67739647117E+02  0.73079854758E+02  0.00000000000E+00 0.  1.
         21    1    1    2  504  503  0.17413567517E+02  0.21184264117E+02 -0.18345393826E+02  0.32993315300E+02  0.00000000000E+00 0.  1.
<mgrwt>
<rscale>  2 0.27422716E+02</rscale>
<asrwt>0</asrwt>
<pdfrwt beam="1">  1       21 0.11959032E-01 0.27422716E+02</pdfrwt>
<pdfrwt beam="2">  1       21 0.43599167E-02 0.27422716E+02</pdfrwt>
<totfact> 0.15935554E+07</totfact>
</mgrwt>
</event>
<event>
 4    1  0.4594485E+006  0.3092412E+02  0.7546771E-02  0.1588093E+00
         21   -1    0    0  504  501  0.00000000000E+00  0.00000000000E+00  0.11200957475E+03  0.11200957475E+03  0.00000000000E+00 0.  1.
         21   -1    0    0  503  502 -0.00000000000E+00 -0.00000000000E+00 -0.61020059759E+02  0.61020059759E+02  0.00000000000E+00 0.  1.
         21    1    1    2  503  501  0.23454533917E+02  0.20154050677E+02  0.10572922536E+03  0.11015883993E+03  0.00000000000E+00 0.  1.
         21    1    1    2  504  502 -0.23454533917E+02 -0.20154050677E+02 -0.54739710367E+02  0.62870794579E+02  0.00000000000E+00 0.  1.
<mgrwt>
<rscale>  2 0.30924116E+02</rscale>
<asrwt>0</asrwt>
<pdfrwt beam="1">  1       21 0.17232242E-01 0.30924116E+02</pdfrwt>
<pdfrwt beam="2">  1       21 0.93877016E-02 0.30924116E+02</pdfrwt>
<totfact> 0.24897582E+06</totfact>
</mgrwt>
</event>
<event>
 4    1  0.4594485E+006  0.2505518E+02  0.7546771E-02  0.1660211E+00
         21   -1    0    0  504  501  0.00000000000E+00  0.00000000000E+00  0.72297222085E+02  0.72297222085E+02  0.00000000000E+00 0.  1.
         21   -1    0    0  501  502 -0.00000000000E+00 -0.00000000000E+00 -0.75837234181E+02  0.75837234181E+02  0.00000000000E+00 0.  1.
         21    1    1    2  503  502  0.16874891430E+02 -0.18520264122E+02 -0.71468165506E+02  0.75732825279E+02  0.00000000000E+00 0.  1.
         21    1    1    2  504  503 -0.16874891430E+02  0.18520264122E+02  0.67928153410E+02  0.72401630987E+02  0.00000000000E+00 0.  1.
<mgrwt>
<rscale>  2 0.25055182E+02</rscale>
<asrwt>0</asrwt>
<pdfrwt beam="1">  1       21 0.11122650E-01 0.25055182E+02</pdfrwt>
<pdfrwt beam="2">  1       21 0.11667267E-01 0.25055182E+02</pdfrwt>
<totfact> 0.35595883E+06</totfact>
</mgrwt>
</event>
<event>
 4    1  0.4594485E+006  0.5125707E+02  0.7546771E-02  0.1438677E+00
         21   -1    0    0  503  501  0.00000000000E+00  0.00000000000E+00  0.36763181277E+03  0.36763181277E+03  0.00000000000E+00 0. -1.
         21   -1    0    0  501  502 -0.00000000000E+00 -0.00000000000E+00 -0.12540958215E+02  0.12540958215E+02  0.00000000000E+00 0. -1.
         21    1    1    2  503  504 -0.46084022706E+02 -0.22439932235E+02  0.30221452235E+03  0.30653043116E+03  0.00000000000E+00 0. -1.
         21    1    1    2  504  502  0.46084022706E+02  0.22439932235E+02  0.52876332200E+02  0.73642339821E+02  0.00000000000E+00 0. -1.
<mgrwt>
<rscale>  2 0.51257075E+02</rscale>
<asrwt>0</asrwt>
<pdfrwt beam="1">  1       21 0.56558732E-01 0.51257075E+02</pdfrwt>
<pdfrwt beam="2">  1       21 0.19293785E-02 0.51257075E+02</pdfrwt>
<totfact> 0.36127843E+06</totfact>
</mgrwt>
</event>
<event>
 4    1  0.4594485E+006  0.2928624E+02  0.7546771E-02  0.1606115E+00
         21   -1    0    0  502  501  0.00000000000E+00  0.00000000000E+00  0.20559009574E+03  0.20559009574E+03  0.00000000000E+00 0.  1.
         21   -1    0    0  504  502 -0.00000000000E+00 -0.00000000000E+00 -0.23584959306E+02  0.23584959306E+02  0.00000000000E+00 0.  1.
         21    1    1    2  503  501  0.24820726848E+02  0.15543972491E+02  0.19496291988E+03  0.19715025663E+03  0.00000000000E+00 0.  1.
         21    1    1    2  504  503 -0.24820726848E+02 -0.15543972491E+02 -0.12957783441E+02  0.32024798419E+02  0.00000000000E+00 0.  1.
<mgrwt>
<rscale>  2 0.29286235E+02</rscale>
<asrwt>0</asrwt>
<pdfrwt beam="1">  1       21 0.31629244E-01 0.29286235E+02</pdfrwt>
<pdfrwt beam="2">  1       21 0.36284554E-02 0.29286235E+02</pdfrwt>
<totfact> 0.38946817E+06</totfact>
</mgrwt>
</event>
<event>
 4    1  0.4594485E+006  0.2299243E+02  0.7546771E-02  0.1691633E+00
         21   -1    0    0  504  501  0.00000000000E+00  0.00000000000E+00  0.28335127999E+01  0.28335127999E+01  0.00000000000E+00 0. -1.
         21   -1    0    0  503  502 -0.00000000000E+00 -0.00000000000E+00 -0.22791932644E+03  0.22791932644E+03  0.00000000000E+00 0. -1.
         21    1    1    2  503  501  0.19790486943E+02 -0.11704214281E+02 -0.16168505905E+03  0.16331169684E+03  0.00000000000E+00 0. -1.
         21    1    1    2  504  502 -0.19790486943E+02  0.11704214281E+02 -0.63400754595E+02  0.67441142403E+02  0.00000000000E+00 0. -1.
<mgrwt>
<rscale>  2 0.22992434E+02</rscale>
<asrwt>0</asrwt>
<pdfrwt beam="1">  1       21 0.43592500E-03 0.22992434E+02</pdfrwt>
<pdfrwt beam="2">  1       21 0.35064516E-01 0.22992434E+02</pdfrwt>
<totfact> 0.77150438E+07</totfact>
</mgrwt>
</event>
<event>
 4    1  0.4594485E+006  0.2467419E+02  0.7546771E-02  0.1665726E+00
         21   -1    0    0  504  501  0.00000000000E+00  0.00000000000E+00  0.66240902367E+01  0.66240902367E+01  0.00000000000E+00 0. -1.
         21   -1    0    0  503  502 -0.00000000000E+00 -0.00000000000E+00 -0.22660695631E+03  0.22660695631E+03  0.00000000000E+00 0.  1.
         21    1    1    2  503  501  0.24640712598E+02  0.12848456886E+01 -0.19989972646E+03  0.20141677235E+03  0.00000000000E+00 0.  1.
         21    1    1    2  504  502 -0.24640712598E+02 -0.12848456886E+01 -0.20083139612E+02  0.31814274194E+02  0.00000000000E+00 0. -1.
<mgrwt>
<rscale>  2 0.24674188E+02</rscale>
<asrwt>0</asrwt>
<pdfrwt beam="1">  1       21 0.10190908E-02 0.24674188E+02</pdfrwt>
<pdfrwt beam="2">  1       21 0.34862610E-01 0.24674188E+02</pdfrwt>
<totfact> 0.22411915E+07</totfact>
</mgrwt>
</event>
<event>
 4    1  0.4594485E+006  0.3577999E+02  0.7546771E-02  0.1541781E+00
         21   -1    0    0  504  501  0.00000000000E+00  0.00000000000E+00  0.18387360845E+03  0.18387360845E+03  0.00000000000E+00 0. -1.
         21   -1    0    0  503  502 -0.00000000000E+00 -0.00000000000E+00 -0.10396731647E+02  0.10396731647E+02  0.00000000000E+00 0. -1.
         21    1    1    2  503  501  0.17697839978E+02  0.31096526288E+02  0.14256581022E+03  0.14698713458E+03  0.00000000000E+00 0. -1.
         21    1    1    2  504  502 -0.17697839978E+02 -0.31096526288E+02  0.30911066581E+02  0.47283205520E+02  0.00000000000E+00 0. -1.
<mgrwt>
<rscale>  2 0.35779987E+02</rscale>
<asrwt>0</asrwt>
<pdfrwt beam="1">  1       21 0.28288245E-01 0.35779987E+02</pdfrwt>
<pdfrwt beam="2">  1       21 0.15994973E-02 0.35779987E+02</pdfrwt>
<totfact> 0.17728464E+07</totfact>
</mgrwt>
</event>
<event>
 4    1  0.4594485E+006  0.2435605E+02  0.7546771E-02  0.1670427E+00
         21   -1    0    0  503  501  0.00000000000E+00  0.00000000000E+00  0.10736804460E+03  0.10736804460E+03  0.00000000000E+00 0.  1.
         21   -1    0    0  504  502 -0.00000000000E+00 -0.00000000000E+00 -0.56981261314E+02  0.56981261314E+02  0.00000000000E+00 0.  1.
         21    1    1    2  503  502  0.24254648447E+02  0.22201436351E+01  0.10328252932E+03  0.10611549308E+03  0.00000000000E+00 0.  1.
         21    1    1    2  504  501 -0.24254648447E+02 -0.22201436351E+01 -0.52895746033E+02  0.58233812836E+02  0.00000000000E+00 0.  1.
<mgrwt>
<rscale>  2 0.24356047E+02</rscale>
<asrwt>0</asrwt>
<pdfrwt beam="1">  1       21 0.16518161E-01 0.24356047E+02</pdfrwt>
<pdfrwt beam="2">  1       21 0.87663479E-02 0.24356047E+02</pdfrwt>
<totfact> 0.29161166E+06</totfact>
</mgrwt>
</event>
<event>
 4    1  0.4594485E+006  0.2153443E+02  0.7546771E-02  0.1716430E+00
         21   -1    0    0  503  501  0.00000000000E+00  0.00000000000E+00  0.18845902817E+01  0.18845902817E+01  0.00000000000E+00 0. -1.
         21   -1    0    0  504  502 -0.00000000000E+00 -0.00000000000E+00 -0.27828011792E+03  0.27828011792E+03  0.00000000000E+00 0. -1.
         21    1    1    2  503  502 -0.18208651346E+02 -0.11496809891E+02 -0.90535736304E+02  0.93061545064E+02  0.00000000000E+00 0. -1.
         21    1    1    2  504  501  0.18208651346E+02  0.11496809891E+02 -0.18585979134E+03  0.18710316314E+03  0.00000000000E+00 0. -1.
<mgrwt>
<rscale>  2 0.21534429E+02</rscale>
<asrwt>0</asrwt>
<pdfrwt beam="1">  1       21 0.28993695E-03 0.21534429E+02</pdfrwt>
<pdfrwt beam="2">  1       21 0.42812328E-01 0.21534429E+02</pdfrwt>
<totfact> 0.94671866E+07</totfact>
</mgrwt>
</event>
<event>
 4    1  0.4594485E+006  0.3343778E+02  0.7546771E-02  0.1562928E+00
         21   -1    0    0  502  501  0.00000000000E+00  0.00000000000E+00  0.21928748266E+03  0.21928748266E+03  0.00000000000E+00 0. -1.
         21   -1    0    0  503  502 -0.00000000000E+00 -0.00000000000E+00 -0.40085978310E+02  0.40085978310E+02  0.00000000000E+00 0. -1.
         21    1    1    2  503  504  0.18363994976E+02  0.27943674749E+02 -0.31557851443E+02  0.45978073662E+02  0.00000000000E+00 0. -1.
         21    1    1    2  504  501 -0.18363994976E+02 -0.27943674749E+02  0.21075935579E+03  0.21339538730E+03  0.00000000000E+00 0. -1.
<mgrwt>
<rscale>  2 0.33437782E+02</rscale>
<asrwt>0</asrwt>
<pdfrwt beam="1">  1       21 0.33736535E-01 0.33437782E+02</pdfrwt>
<pdfrwt beam="2">  1       21 0.61670737E-02 0.33437782E+02</pdfrwt>
<totfact> 0.14929639E+06</totfact>
</mgrwt>
</event>
<event>
 4    1  0.4594485E+006  0.3399968E+02  0.7546771E-02  0.1557667E+00
         21   -1    0    0  502  501  0.00000000000E+00  0.00000000000E+00  0.92684442676E+01  0.92684442676E+01  0.00000000000E+00 0.  1.
         21   -1    0    0  504  502 -0.00000000000E+00 -0.00000000000E+00 -0.26063852945E+03  0.26063852945E+03  0.00000000000E+00 0.  1.
         21    1    1    2  503  501  0.29186292289E+02  0.17439570456E+02 -0.28230733071E+02  0.44192222902E+02  0.00000000000E+00 0.  1.
         21    1    1    2  504  503 -0.29186292289E+02 -0.17439570456E+02 -0.22313935211E+03  0.22571475081E+03  0.00000000000E+00 0.  1.
<mgrwt>
<rscale>  2 0.33999681E+02</rscale>
<asrwt>0</asrwt>
<pdfrwt beam="1">  1       21 0.14259144E-02 0.33999681E+02</pdfrwt>
<pdfrwt beam="2">  1       21 0.40098237E-01 0.33999681E+02</pdfrwt>
<totfact> 0.10912811E+07</totfact>
</mgrwt>
</event>
<event>
 4    1  0.4594485E+006  0.6578182E+02  0.7546771E-02  0.1375055E+00
         21   -1    0    0  503  501  0.00000000000E+00  0.00000000000E+00  0.17850977392E+02  0.17850977392E+02  0.00000000000E+00 0.  1.
         21   -1    0    0  504  502 -0.00000000000E+00 -0.00000000000E+00 -0.24330833186E+03  0.24330833186E+03  0.00000000000E+00 0.  1.
         21    1    1    2  503  502 -0.63221379476E+02 -0.18174302117E+02 -0.10479243494E+03  0.12372834154E+03  0.00000000000E+00 0.  1.
         21    1    1    2  504  501  0.63221379476E+02  0.18174302117E+02 -0.12066491953E+03  0.13743096771E+03  0.00000000000E+00 0.  1.
<mgrwt>
<rscale>  2 0.65781822E+02</rscale>
<asrwt>0</asrwt>
<pdfrwt beam="1">  1       21 0.27463042E-02 0.65781822E+02</pdfrwt>
<pdfrwt beam="2">  1       21 0.37432052E-01 0.65781822E+02</pdfrwt>
<totfact> 0.47766879E+06</totfact>
</mgrwt>
</event>
<event>
 4    1  0.4594485E+006  0.3029442E+02  0.7546771E-02  0.1594857E+00
         21   -1    0    0  503  501  0.00000000000E+00  0.00000000000E+00  0.10358006554E+03  0.10358006554E+03  0.00000000000E+00 0.  1.
         21   -1    0    0  501  502 -0.00000000000E+00 -0.00000000000E+00 -0.11332959082E+02  0.11332959082E+02  0.00000000000E+00 0. -1.
         21    1    1    2  503  504  0.28883996489E+02  0.91360083825E+01  0.72961450946E+02  0.79000792569E+02  0.00000000000E+00 0.  1.
         21    1    1    2  504  502 -0.28883996489E+02 -0.91360083825E+01  0.19285655508E+02  0.35912232049E+02  0.00000000000E+00 0. -1.
<mgrwt>
<rscale>  2 0.30294420E+02</rscale>
<asrwt>0</asrwt>
<pdfrwt beam="1">  1       21 0.15935394E-01 0.30294420E+02</pdfrwt>
<pdfrwt beam="2">  1       21 0.17435322E-02 0.30294420E+02</pdfrwt>
<totfact> 0.41833241E+07</totfact>
</mgrwt>
</event>
<event>
 4    1  0.4594485E+006  0.2214054E+02  0.7546771E-02  0.1705833E+00
         21   -1    0    0  503  501  0.00000000000E+00  0.00000000000E+00  0.90350725821E+03  0.90350725821E+03  0.00000000000E+00 0. -1.
         21   -1    0    0  501  502 -0.00000000000E+00 -0.00000000000E+00 -0.14322543289E+02  0.14322543289E+02  0.00000000000E+00 0. -1.
         21    1    1    2  503  504 -0.63327771015E+01  0.21215545720E+02  0.89473120338E+03  0.89500510040E+03  0.00000000000E+00 0. -1.
         21    1    1    2  504  502  0.63327771015E+01 -0.21215545720E+02 -0.55464884568E+01  0.22824701098E+02  0.00000000000E+00 0. -1.
<mgrwt>
<rscale>  2 0.22140539E+02</rscale>
<asrwt>0</asrwt>
<pdfrwt beam="1">  1       21 0.13900107E+00 0.22140539E+02</pdfrwt>
<pdfrwt beam="2">  1       21 0.22034689E-02 0.22140539E+02</pdfrwt>
<totfact> 0.39367107E+05</totfact>
</mgrwt>
</event>
<event>
 4    1  0.4594485E+006  0.2276187E+02  0.7546771E-02  0.1695400E+00
         21   -1    0    0  503  501  0.00000000000E+00  0.00000000000E+00  0.68793671392E+01  0.68793671392E+01  0.00000000000E+00 0. -1.
         21   -1    0    0  504  502 -0.00000000000E+00 -0.00000000000E+00 -0.22950624368E+03  0.22950624368E+03  0.00000000000E+00 0. -1.
         21    1    1    2  503  502 -0.73632714191E+01 -0.21537983716E+02 -0.14434999787E+02  0.26953139472E+02  0.00000000000E+00 0. -1.
         21    1    1    2  504  501  0.73632714191E+01  0.21537983716E+02 -0.20819187675E+03  0.20943247135E+03  0.00000000000E+00 0. -1.
<mgrwt>
<rscale>  2 0.22761865E+02</rscale>
<asrwt>0</asrwt>
<pdfrwt beam="1">  1       21 0.10583642E-02 0.22761865E+02</pdfrwt>
<pdfrwt beam="2">  1       21 0.35308653E-01 0.22761865E+02</pdfrwt>
<totfact> 0.20330760E+07</totfact>
</mgrwt>
</event>
<event>
 4    1  0.4594485E+006  0.2032368E+02  0.7546771E-02  0.1738967E+00
         21   -1    0    0  503  501  0.00000000000E+00  0.00000000000E+00  0.48557885404E+02  0.48557885404E+02  0.00000000000E+00 0.  1.
         21   -1    0    0  501  502 -0.00000000000E+00 -0.00000000000E+00 -0.21242937739E+02  0.21242937739E+02  0.00000000000E+00 0.  1.
         21    1    1    2  503  504  0.15140255881E+02  0.13558186848E+02  0.40681453849E+02  0.45475624966E+02  0.00000000000E+00 0.  1.
         21    1    1    2  504  502 -0.15140255881E+02 -0.13558186848E+02 -0.13366506184E+02  0.24325198177E+02  0.00000000000E+00 0.  1.
<mgrwt>
<rscale>  2 0.20323675E+02</rscale>
<asrwt>0</asrwt>
<pdfrwt beam="1">  1       21 0.74704439E-02 0.20323675E+02</pdfrwt>
<pdfrwt beam="2">  1       21 0.32681443E-02 0.20323675E+02</pdfrwt>
<totfact> 0.50887232E+07</totfact>
</mgrwt>
</event>
<event>
 4    1  0.4594485E+006  0.2179446E+02  0.7546771E-02  0.1711831E+00
         21   -1    0    0  503  501  0.00000000000E+00  0.00000000000E+00  0.35048482770E+03  0.35048482770E+03  0.00000000000E+00 0.  1.
         21   -1    0    0  504  502 -0.00000000000E+00 -0.00000000000E+00 -0.23189118736E+03  0.23189118736E+03  0.00000000000E+00 0.  1.
         21    1    1    2  503  502  0.21553634002E+02 -0.32310219456E+01 -0.23103903288E+03  0.23206471803E+03  0.00000000000E+00 0.  1.
         21    1    1    2  504  501 -0.21553634002E+02  0.32310219456E+01  0.34963267322E+03  0.35031129703E+03  0.00000000000E+00 0.  1.
<mgrwt>
<rscale>  2 0.21794464E+02</rscale>
<asrwt>0</asrwt>
<pdfrwt beam="1">  1       21 0.53920743E-01 0.21794464E+02</pdfrwt>
<pdfrwt beam="2">  1       21 0.35675567E-01 0.21794464E+02</pdfrwt>
<totfact> 0.29383113E+04</totfact>
</mgrwt>
</event>
<event>
 4    1  0.4594485E+006  0.2106083E+02  0.7546771E-02  0.1725019E+00
         21   -1    0    0  503  501  0.00000000000E+00  0.00000000000E+00  0.62842346331E+02  0.62842346331E+02  0.00000000000E+00 0.  1.
         21   -1    0    0  504  502 -0.00000000000E+00 -0.00000000000E+00 -0.73578930310E+01  0.73578930310E+01  0.00000000000E+00 0. -1.
         21    1    1    2  503  502  0.19826240242E+02  0.71048418657E+01  0.20659252980E+02  0.29501920510E+02  0.00000000000E+00 0. -1.
         21    1    1    2  504  501 -0.19826240242E+02 -0.71048418657E+01  0.34825200320E+02  0.40698318853E+02  0.00000000000E+00 0.  1.
<mgrwt>
<rscale>  2 0.21060830E+02</rscale>
<asrwt>0</asrwt>
<pdfrwt beam="1">  1       21 0.96680529E-02 0.21060830E+02</pdfrwt>
<pdfrwt beam="2">  1       21 0.11319836E-02 0.21060830E+02</pdfrwt>
<totfact> 0.17046330E+08</totfact>
</mgrwt>
</event>
<event>
 4    1  0.4594485E+006  0.2008169E+02  0.7546771E-02  0.1743708E+00
         21   -1    0    0  502  501  0.00000000000E+00  0.00000000000E+00  0.87561553164E+01  0.87561553164E+01  0.00000000000E+00 0. -1.
         21   -1    0    0  504  502 -0.00000000000E+00 -0.00000000000E+00 -0.63062161637E+02  0.63062161637E+02  0.00000000000E+00 0. -1.
         21    1    1    2  503  501  0.12347030679E+02 -0.15837460343E+02 -0.85054117124E+01  0.21808630060E+02  0.00000000000E+00 0. -1.
         21    1    1    2  504  503 -0.12347030679E+02  0.15837460343E+02 -0.45800594609E+02  0.50009686894E+02  0.00000000000E+00 0. -1.
<mgrwt>
<rscale>  2 0.20081691E+02</rscale>
<asrwt>0</asrwt>
<pdfrwt beam="1">  1       21 0.13471008E-02 0.20081691E+02</pdfrwt>
<pdfrwt beam="2">  1       21 0.97018712E-02 0.20081691E+02</pdfrwt>
<totfact> 0.12853663E+08</totfact>
</mgrwt>
</event>
<event>
 4    1  0.4594485E+006  0.2917925E+02  0.7546771E-02  0.1607342E+00
         21   -1    0    0  504  501  0.00000000000E+00  0.00000000000E+00  0.55026432446E+01  0.55026432446E+01  0.00000000000E+00 0.  1.
         21   -1    0    0  503  502 -0.00000000000E+00 -0.00000000000E+00 -0.29829262409E+03  0.29829262409E+03  0.00000000000E+00 0.  1.
         21    1    1    2  503  501  0.18599596471E+01 -0.29119908566E+02 -0.41017173261E+02  0.50337233010E+02  0.00000000000E+00 0.  1.
         21    1    1    2  504  502 -0.18599596471E+01  0.29119908566E+02 -0.25177280758E+03  0.25345803433E+03  0.00000000000E+00 0.  1.
<mgrwt>
<rscale>  2 0.29179248E+02</rscale>
<asrwt>0</asrwt>
<pdfrwt beam="1">  1       21 0.84656028E-03 0.29179248E+02</pdfrwt>
<pdfrwt beam="2">  1       21 0.45891185E-01 0.29179248E+02</pdfrwt>
<totfact> 0.18161476E+07</totfact>
</mgrwt>
</event>
<event>
 4    1  0.4594485E+006  0.2106634E+02  0.7546771E-02  0.1724918E+00
         21   -1    0    0  502  501  0.00000000000E+00  0.00000000000E+00  0.34121411712E+03  0.34121411712E+03  0.00000000000E+00 0. -1.
         21   -1    0    0  504  502 -0.00000000000E+00 -0.00000000000E+00 -0.16559430995E+02  0.16559430995E+02  0.00000000000E+00 0. -1.
         21    1    1    2  503  501 -0.10299691722E+02 -0.18376810884E+02  0.33404534866E+03  0.33470895684E+03  0.00000000000E+00 0. -1.
         21    1    1    2  504  503  0.10299691722E+02  0.18376810884E+02 -0.93906625353E+01  0.23064591275E+02  0.00000000000E+00 0. -1.
<mgrwt>
<rscale>  2 0.21066343E+02</rscale>
<asrwt>0</asrwt>
<pdfrwt beam="1">  1       21 0.52494474E-01 0.21066343E+02</pdfrwt>
<pdfrwt beam="2">  1       21 0.25476050E-02 0.21066343E+02</pdfrwt>
<totfact> 0.24799565E+06</totfact>
</mgrwt>
</event>
<event>
 4    1  0.4594485E+006  0.2163216E+02  0.7546771E-02  0.1714692E+00
         21   -1    0    0  503  501  0.00000000000E+00  0.00000000000E+00  0.56049533558E+02  0.56049533558E+02  0.00000000000E+00 0.  1.
         21   -1    0    0  504  502 -0.00000000000E+00 -0.00000000000E+00 -0.84847298441E+01  0.84847298441E+01  0.00000000000E+00 0.  1.
         21    1    1    2  503  502  0.80091608698E+01  0.20094862452E+02  0.27865503317E+02  0.35276570552E+02  0.00000000000E+00 0.  1.
         21    1    1    2  504  501 -0.80091608698E+01 -0.20094862452E+02  0.19699300396E+02  0.29257692850E+02  0.00000000000E+00 0.  1.
<mgrwt>
<rscale>  2 0.21632156E+02</rscale>
<asrwt>0</asrwt>
<pdfrwt beam="1">  1       21 0.86230049E-02 0.21632156E+02</pdfrwt>
<pdfrwt beam="2">  1       21 0.13053431E-02 0.21632156E+02</pdfrwt>
<totfact> 0.16729064E+08</totfact>
</mgrwt>
</event>
<event>
 4    1  0.4594485E+006  0.3590623E+02  0.7546771E-02  0.1540697E+00
         21   -1    0    0  502  501  0.00000000000E+00  0.00000000000E+00  0.67562328242E+02  0.67562328242E+02  0.00000000000E+00 0. -1.
         21   -1    0    0  503  502 -0.00000000000E+00 -0.00000000000E+00 -0.72787935633E+02  0.72787935633E+02  0.00000000000E+00 0. -1.
         21    1    1    2  503  504 -0.42035629635E+00  0.35903766871E+02 -0.62891342422E+02  0.72419459585E+02  0.00000000000E+00 0. -1.
         21    1    1    2  504  501  0.42035629635E+00 -0.35903766871E+02  0.57665735030E+02  0.67930804290E+02  0.00000000000E+00 0. -1.
<mgrwt>
<rscale>  2 0.35906228E+02</rscale>
<asrwt>0</asrwt>
<pdfrwt beam="1">  1       21 0.10394204E-01 0.35906228E+02</pdfrwt>
<pdfrwt beam="2">  1       21 0.11198144E-01 0.35906228E+02</pdfrwt>
<totfact> 0.44770352E+06</totfact>
</mgrwt>
</event>
<event>
 4    1  0.4594485E+006  0.2111041E+02  0.7546771E-02  0.1724107E+00
         21   -1    0    0  503  501  0.00000000000E+00  0.00000000000E+00  0.21250509117E+02  0.21250509117E+02  0.00000000000E+00 0. -1.
         21   -1    0    0  501  502 -0.00000000000E+00 -0.00000000000E+00 -0.65599508124E+03  0.65599508124E+03  0.00000000000E+00 0.  1.
         21    1    1    2  503  504  0.17305237653E+02 -0.12090422347E+02  0.15793897181E+02  0.26364687575E+02  0.00000000000E+00 0. -1.
         21    1    1    2  504  502 -0.17305237653E+02  0.12090422347E+02 -0.65053846930E+03  0.65088090278E+03  0.00000000000E+00 0.  1.
<mgrwt>
<rscale>  2 0.21110414E+02</rscale>
<asrwt>0</asrwt>
<pdfrwt beam="1">  1       21 0.32693087E-02 0.21110414E+02</pdfrwt>
<pdfrwt beam="2">  1       21 0.10092233E+00 0.21110414E+02</pdfrwt>
<totfact> 0.43878009E+05</totfact>
</mgrwt>
</event>
<event>
 4    1  0.4594485E+006  0.2378075E+02  0.7546771E-02  0.1679158E+00
         21   -1    0    0  503  501  0.00000000000E+00  0.00000000000E+00  0.10292836739E+02  0.10292836739E+02  0.00000000000E+00 0. -1.
         21   -1    0    0  504  502 -0.00000000000E+00 -0.00000000000E+00 -0.66255945655E+02  0.66255945655E+02  0.00000000000E+00 0. -1.
         21    1    1    2  503  502  0.12109002788E+02  0.20466955772E+02 -0.12166358444E+02  0.26712253834E+02  0.00000000000E+00 0. -1.
         21    1    1    2  504  501 -0.12109002788E+02 -0.20466955772E+02 -0.43796750472E+02  0.49836528561E+02  0.00000000000E+00 0. -1.
<mgrwt>
<rscale>  2 0.23780753E+02</rscale>
<asrwt>0</asrwt>
<pdfrwt beam="1">  1       21 0.15835133E-02 0.23780753E+02</pdfrwt>
<pdfrwt beam="2">  1       21 0.10193223E-01 0.23780753E+02</pdfrwt>
<totfact> 0.97430126E+07</totfact>
</mgrwt>
</event>
<event>
 4    1  0.4594485E+006  0.2160791E+02  0.7546771E-02  0.1715122E+00
         21   -1    0    0  504  501  0.00000000000E+00  0.00000000000E+00  0.72045917699E+02  0.72045917699E+02  0.00000000000E+00 0.  1.
         21   -1    0    0  503  502 -0.00000000000E+00 -0.00000000000E+00 -0.52167713704E+02  0.52167713704E+02  0.00000000000E+00 0. -1.
         21    1    1    2  503  501 -0.18813779034E+02 -0.10627495827E+02  0.68060378588E+02  0.71408102360E+02  0.00000000000E+00 0.  1.
         21    1    1    2  504  502  0.18813779034E+02  0.10627495827E+02 -0.48182174592E+02  0.52805529043E+02  0.00000000000E+00 0. -1.
<mgrwt>
<rscale>  2 0.21607914E+02</rscale>
<asrwt>0</asrwt>
<pdfrwt beam="1">  1       21 0.11083987E-01 0.21607914E+02</pdfrwt>
<pdfrwt beam="2">  1       21 0.80258021E-02 0.21607914E+02</pdfrwt>
<totfact> 0.64842900E+06</totfact>
</mgrwt>
</event>
<event>
 4    1  0.4594485E+006  0.4653745E+02  0.7546771E-02  0.1464966E+00
         21   -1    0    0  503  501  0.00000000000E+00  0.00000000000E+00  0.13986324499E+03  0.13986324499E+03  0.00000000000E+00 0. -1.
         21   -1    0    0  504  502 -0.00000000000E+00 -0.00000000000E+00 -0.15529693511E+02  0.15529693511E+02  0.00000000000E+00 0. -1.
         21    1    1    2  503  502 -0.46537148486E+02  0.16678288873E+00  0.57982551405E+02  0.74348572772E+02  0.00000000000E+00 0. -1.
         21    1    1    2  504  501  0.46537148486E+02 -0.16678288873E+00  0.66351000078E+02  0.81044365733E+02  0.00000000000E+00 0. -1.
<mgrwt>
<rscale>  2 0.46537447E+02</rscale>
<asrwt>0</asrwt>
<pdfrwt beam="1">  1       21 0.21517421E-01 0.46537447E+02</pdfrwt>
<pdfrwt beam="2">  1       21 0.23891837E-02 0.46537447E+02</pdfrwt>
<totfact> 0.16197530E+07</totfact>
</mgrwt>
</event>
<event>
 4    1  0.4594485E+006  0.2184799E+02  0.7546771E-02  0.1710894E+00
         21   -1    0    0  503  501  0.00000000000E+00  0.00000000000E+00  0.53507337031E+02  0.53507337031E+02  0.00000000000E+00 0.  1.
         21   -1    0    0  501  502 -0.00000000000E+00 -0.00000000000E+00 -0.26666877293E+02  0.26666877293E+02  0.00000000000E+00 0.  1.
         21    1    1    2  503  504 -0.76501383391E+00 -0.21834595342E+02  0.46121778724E+02  0.51034824116E+02  0.00000000000E+00 0.  1.
         21    1    1    2  504  502  0.76501383391E+00  0.21834595342E+02 -0.19281318985E+02  0.29139390208E+02  0.00000000000E+00 0.  1.
<mgrwt>
<rscale>  2 0.21847993E+02</rscale>
<asrwt>0</asrwt>
<pdfrwt beam="1">  1       21 0.82318980E-02 0.21847993E+02</pdfrwt>
<pdfrwt beam="2">  1       21 0.41025965E-02 0.21847993E+02</pdfrwt>
<totfact> 0.31022499E+07</totfact>
</mgrwt>
</event>
<event>
 4    1  0.4594485E+006  0.2605104E+02  0.7546771E-02  0.1646349E+00
         21   -1    0    0  503  501  0.00000000000E+00  0.00000000000E+00  0.44192914142E+01  0.44192914142E+01  0.00000000000E+00 0.  1.
         21   -1    0    0  504  502 -0.00000000000E+00 -0.00000000000E+00 -0.20812193066E+03  0.20812193066E+03  0.00000000000E+00 0.  1.
         21    1    1    2  503  502 -0.16591966147E+02  0.20083912150E+02 -0.15626043566E+03  0.15841710962E+03  0.00000000000E+00 0.  1.
         21    1    1    2  504  501  0.16591966147E+02 -0.20083912150E+02 -0.47442203586E+02  0.54124112454E+02  0.00000000000E+00 0.  1.
<mgrwt>
<rscale>  2 0.26051044E+02</rscale>
<asrwt>0</asrwt>
<pdfrwt beam="1">  1       21 0.67989089E-03 0.26051044E+02</pdfrwt>
<pdfrwt beam="2">  1       21 0.32018763E-01 0.26051044E+02</pdfrwt>
<totfact> 0.48682016E+07</totfact>
</mgrwt>
</event>
<event>
 4    1  0.4594485E+006  0.2023369E+02  0.7546771E-02  0.1740720E+00
         21   -1    0    0  503  501  0.00000000000E+00  0.00000000000E+00  0.11524550613E+04  0.11524550613E+04  0.00000000000E+00 0. -1.
         21   -1    0    0  504  502 -0.00000000000E+00 -0.00000000000E+00 -0.35560198568E+01  0.35560198568E+01  0.00000000000E+00 0. -1.
         21    1    1    2  503  502 -0.19562333093E+02 -0.51688880470E+01  0.26074616633E+02  0.33004362018E+02  0.00000000000E+00 0. -1.
         21    1    1    2  504  501  0.19562333093E+02  0.51688880470E+01  0.11228244248E+04  0.11230067192E+04  0.00000000000E+00 0. -1.
<mgrwt>
<rscale>  2 0.20233692E+02</rscale>
<asrwt>0</asrwt>
<pdfrwt beam="1">  1       21 0.17730048E+00 0.20233692E+02</pdfrwt>
<pdfrwt beam="2">  1       21 0.54708090E-03 0.20233692E+02</pdfrwt>
<totfact> 0.17759465E+06</totfact>
</mgrwt>
</event>
<event>
 4    1  0.4594485E+006  0.3278858E+02  0.7546771E-02  0.1569164E+00
         21   -1    0    0  504  501  0.00000000000E+00  0.00000000000E+00  0.33799773754E+02  0.33799773754E+02  0.00000000000E+00 0.  1.
         21   -1    0    0  503  502 -0.00000000000E+00 -0.00000000000E+00 -0.11807820084E+03  0.11807820084E+03  0.00000000000E+00 0. -1.
         21    1    1    2  503  501  0.28827167508E+02  0.15623223033E+02  0.22770736435E+02  0.39919883796E+02  0.00000000000E+00 0.  1.
         21    1    1    2  504  502 -0.28827167508E+02 -0.15623223033E+02 -0.10704916352E+03  0.11195809079E+03  0.00000000000E+00 0. -1.
<mgrwt>
<rscale>  2 0.32788576E+02</rscale>
<asrwt>0</asrwt>
<pdfrwt beam="1">  1       21 0.51999652E-02 0.32788576E+02</pdfrwt>
<pdfrwt beam="2">  1       21 0.18165877E-01 0.32788576E+02</pdfrwt>
<totfact> 0.60254804E+06</totfact>
</mgrwt>
</event>
