<event>
 5    1  0.3963873E+001  0.8953459E+02  0.7546771E-02  0.1303983E+00
          2   -1    0    0  501    0  0.00000000000E+00  0.00000000000E+00  0.79529274896E+03  0.79529274896E+03  0.00000000000E+00 0. -1.
         -2   -1    0    0    0  501 -0.00000000000E+00 -0.00000000000E+00 -0.25199658713E+01  0.25199658713E+01  0.00000000000E+00 0.  1.
         23    2    1    2    0    0  0.00000000000E+00  0.00000000000E+00  0.79277278309E+03  0.79781271483E+03  0.89534587397E+02 0.  0.
          2    1    3    3  502    0  0.23861325588E+02  0.37832769901E+02  0.37988541838E+03  0.38250962398E+03  0.00000000000E+00 0. -1.
         -2    1    3    3    0  502 -0.23861325588E+02 -0.37832769901E+02  0.41288736471E+03  0.41530309085E+03  0.00000000000E+00 0.  1.
<mgrwt>
<rscale>  0 0.89534587E+02</rscale>
<asrwt>0</asrwt>
<pdfrwt beam="1">  1        2 0.12235253E+00 0.89534587E+02</pdfrwt>
<pdfrwt beam="2">  1       -2 0.38768769E-03 0.89534587E+02</pdfrwt>
<totfact> 0.25541895E+05</totfact>
</mgrwt>
</event>
<event>
 5    1  0.3963873E+001  0.8321178E+02  0.7546771E-02  0.1320176E+00
          3   -1    0    0  501    0  0.00000000000E+00  0.00000000000E+00  0.34276614623E+03  0.34276614623E+03  0.00000000000E+00 0. -1.
         -3   -1    0    0    0  501 -0.00000000000E+00 -0.00000000000E+00 -0.50502363907E+01  0.50502363907E+01  0.00000000000E+00 0.  1.
         23    2    1    2    0    0  0.00000000000E+00  0.00000000000E+00  0.33771590984E+03  0.34781638262E+03  0.83211779580E+02 0.  0.
          2    1    3    3  502    0 -0.25232358104E+02 -0.10648647044E+02  0.29977502992E+03  0.30102347773E+03  0.00000000000E+00 0. -1.
         -2    1    3    3    0  502  0.25232358104E+02  0.10648647044E+02  0.37940879922E+02  0.46792904896E+02  0.00000000000E+00 0.  1.
<mgrwt>
<rscale>  0 0.83211780E+02</rscale>
<asrwt>0</asrwt>
<pdfrwt beam="1">  1        3 0.52733235E-01 0.83211780E+02</pdfrwt>
<pdfrwt beam="2">  1       -3 0.77695972E-03 0.83211780E+02</pdfrwt>
<totfact> 0.28433901E+04</totfact>
</mgrwt>
</event>
<event>
 5    1  0.3963873E+001  0.9141952E+02  0.7546771E-02  0.1299450E+00
          1   -1    0    0  501    0  0.00000000000E+00  0.00000000000E+00  0.11689993041E+03  0.11689993041E+03  0.00000000000E+00 0. -1.
         -1   -1    0    0    0  501 -0.00000000000E+00 -0.00000000000E+00 -0.17873252882E+02  0.17873252882E+02  0.00000000000E+00 0.  1.
         23    2    1    2    0    0  0.00000000000E+00  0.00000000000E+00  0.99026677530E+02  0.13477318329E+03  0.91419516912E+02 0.  0.
          2    1    3    3  502    0 -0.56770259608E+01  0.21222713908E+02  0.10860669992E+03  0.11080635125E+03  0.00000000000E+00 0. -1.
         -2    1    3    3    0  502  0.56770259608E+01 -0.21222713908E+02 -0.95800223891E+01  0.23966832046E+02  0.00000000000E+00 0.  1.
<mgrwt>
<rscale>  0 0.91419517E+02</rscale>
<asrwt>0</asrwt>
<pdfrwt beam="1">  1        1 0.17984604E-01 0.91419517E+02</pdfrwt>
<pdfrwt beam="2">  1       -1 0.27497313E-02 0.91419517E+02</pdfrwt>
<totfact> 0.10647979E+05</totfact>
</mgrwt>
</event>
<event>
 5    1  0.3963873E+001  0.9205236E+02  0.7546771E-02  0.1297956E+00
         -1   -1    0    0    0  501 -0.00000000000E+00  0.00000000000E+00  0.26493834828E+01  0.26493834828E+01  0.00000000000E+00 0. -1.
          1   -1    0    0  501    0  0.00000000000E+00 -0.00000000000E+00 -0.79958580591E+03  0.79958580591E+03  0.00000000000E+00 0.  1.
         23    2    1    2    0    0  0.00000000000E+00  0.00000000000E+00 -0.79693642243E+03  0.80223518939E+03  0.92052363950E+02 0.  0.
          2    1    3    3  502    0 -0.12474870810E+02  0.34658338191E+02 -0.15796193468E+03  0.16219986318E+03  0.00000000000E+00 0. -1.
         -2    1    3    3    0  502  0.12474870810E+02 -0.34658338191E+02 -0.63897448774E+03  0.64003532621E+03  0.00000000000E+00 0.  1.
<mgrwt>
<rscale>  0 0.92052364E+02</rscale>
<asrwt>0</asrwt>
<pdfrwt beam="2">  1        1 0.12301325E+00 0.92052364E+02</pdfrwt>
<pdfrwt beam="1">  1       -1 0.40759730E-03 0.92052364E+02</pdfrwt>
<totfact> 0.13777771E+05</totfact>
</mgrwt>
</event>
<event>
 5    1  0.3963873E+001  0.9141236E+02  0.7546771E-02  0.1299467E+00
         -1   -1    0    0    0  501 -0.00000000000E+00  0.00000000000E+00  0.71982194835E+02  0.71982194835E+02  0.00000000000E+00 0.  1.
          1   -1    0    0  501    0  0.00000000000E+00 -0.00000000000E+00 -0.29021825003E+02  0.29021825003E+02  0.00000000000E+00 0. -1.
         23    2    1    2    0    0  0.00000000000E+00  0.00000000000E+00  0.42960369832E+02  0.10100401984E+03  0.91412355004E+02 0.  0.
          2    1    3    3  502    0 -0.26018505060E+02  0.35766082303E+02  0.34217051843E+02  0.55919423152E+02  0.00000000000E+00 0. -1.
         -2    1    3    3    0  502  0.26018505060E+02 -0.35766082303E+02  0.87433179891E+01  0.45084596686E+02  0.00000000000E+00 0.  1.
<mgrwt>
<rscale>  0 0.91412355E+02</rscale>
<asrwt>0</asrwt>
<pdfrwt beam="2">  1        1 0.44648962E-02 0.91412355E+02</pdfrwt>
<pdfrwt beam="1">  1       -1 0.11074184E-01 0.91412355E+02</pdfrwt>
<totfact> 0.85581834E+04</totfact>
</mgrwt>
</event>
<event>
 5    1  0.3963873E+001  0.9133304E+02  0.7546771E-02  0.1299655E+00
          2   -1    0    0  501    0  0.00000000000E+00  0.00000000000E+00  0.22360996084E+03  0.22360996084E+03  0.00000000000E+00 0. -1.
         -2   -1    0    0    0  501 -0.00000000000E+00 -0.00000000000E+00 -0.93261992886E+01  0.93261992886E+01  0.00000000000E+00 0.  1.
         23    2    1    2    0    0  0.00000000000E+00  0.00000000000E+00  0.21428376155E+03  0.23293616013E+03  0.91333040192E+02 0.  0.
          2    1    3    3  502    0 -0.43594156046E+02  0.76453618863E+01  0.13583013594E+03  0.14285911882E+03  0.00000000000E+00 0. -1.
         -2    1    3    3    0  502  0.43594156046E+02 -0.76453618863E+01  0.78453625609E+02  0.90077041309E+02  0.00000000000E+00 0.  1.
<mgrwt>
<rscale>  0 0.91333040E+02</rscale>
<asrwt>0</asrwt>
<pdfrwt beam="1">  1        2 0.34401528E-01 0.91333040E+02</pdfrwt>
<pdfrwt beam="2">  1       -2 0.14348001E-02 0.91333040E+02</pdfrwt>
<totfact> 0.16035902E+05</totfact>
</mgrwt>
</event>
<event>
 5    1  0.3963873E+001  0.9310358E+02  0.7546771E-02  0.1295505E+00
         -1   -1    0    0    0  501 -0.00000000000E+00  0.00000000000E+00  0.23068715318E+02  0.23068715318E+02  0.00000000000E+00 0.  1.
          1   -1    0    0  501    0  0.00000000000E+00 -0.00000000000E+00 -0.93939744050E+02  0.93939744050E+02  0.00000000000E+00 0. -1.
         23    2    1    2    0    0  0.00000000000E+00  0.00000000000E+00 -0.70871028732E+02  0.11700845937E+03  0.93103581295E+02 0.  0.
          2    1    3    3  502    0  0.42375855758E+02  0.10649428842E+02 -0.55619877132E+02  0.70729726552E+02  0.00000000000E+00 0. -1.
         -2    1    3    3    0  502 -0.42375855758E+02 -0.10649428842E+02 -0.15251151600E+02  0.46278732816E+02  0.00000000000E+00 0.  1.
<mgrwt>
<rscale>  0 0.93103581E+02</rscale>
<asrwt>0</asrwt>
<pdfrwt beam="2">  1        1 0.14452268E-01 0.93103581E+02</pdfrwt>
<pdfrwt beam="1">  1       -1 0.35490331E-02 0.93103581E+02</pdfrwt>
<totfact> 0.97628284E+04</totfact>
</mgrwt>
</event>
<event>
 5    1  0.3963873E+001  0.8959385E+02  0.7546771E-02  0.1303838E+00
         -3   -1    0    0    0  501 -0.00000000000E+00  0.00000000000E+00  0.48219189028E+03  0.48219189028E+03  0.00000000000E+00 0.  1.
          3   -1    0    0  501    0  0.00000000000E+00 -0.00000000000E+00 -0.41617547263E+01  0.41617547263E+01  0.00000000000E+00 0. -1.
         23    2    1    2    0    0  0.00000000000E+00  0.00000000000E+00  0.47803013555E+03  0.48635364500E+03  0.89593847520E+02 0.  0.
          2    1    3    3  502    0 -0.10724547329E+02  0.17676640535E+02  0.23288208215E+02  0.31141936001E+02  0.00000000000E+00 0. -1.
         -2    1    3    3    0  502  0.10724547329E+02 -0.17676640535E+02  0.45474192734E+03  0.45521170900E+03  0.00000000000E+00 0.  1.
<mgrwt>
<rscale>  0 0.89593848E+02</rscale>
<asrwt>0</asrwt>
<pdfrwt beam="2">  1        3 0.64027034E-03 0.89593848E+02</pdfrwt>
<pdfrwt beam="1">  1       -3 0.74183323E-01 0.89593848E+02</pdfrwt>
<totfact> 0.19097347E+04</totfact>
</mgrwt>
</event>
<event>
 5    1  0.3963873E+001  0.9258112E+02  0.7546771E-02  0.1296719E+00
          1   -1    0    0  501    0  0.00000000000E+00  0.00000000000E+00  0.30384366638E+02  0.30384366638E+02  0.00000000000E+00 0. -1.
         -1   -1    0    0    0  501 -0.00000000000E+00 -0.00000000000E+00 -0.70523628704E+02  0.70523628704E+02  0.00000000000E+00 0.  1.
         23    2    1    2    0    0  0.00000000000E+00  0.00000000000E+00 -0.40139262066E+02  0.10090799534E+03  0.92581116674E+02 0.  0.
          2    1    3    3  502    0  0.47474071952E+01  0.21183572672E+02  0.24491970673E+02  0.32728248558E+02  0.00000000000E+00 0. -1.
         -2    1    3    3    0  502 -0.47474071952E+01 -0.21183572672E+02 -0.64631232738E+02  0.68179746784E+02  0.00000000000E+00 0.  1.
<mgrwt>
<rscale>  0 0.92581117E+02</rscale>
<asrwt>0</asrwt>
<pdfrwt beam="1">  1        1 0.46745180E-02 0.92581117E+02</pdfrwt>
<pdfrwt beam="2">  1       -1 0.10849789E-01 0.92581117E+02</pdfrwt>
<totfact> 0.83127247E+04</totfact>
</mgrwt>
</event>
<event>
 5    1  0.3963873E+001  0.9008411E+02  0.7546771E-02  0.1302648E+00
         -2   -1    0    0    0  501 -0.00000000000E+00  0.00000000000E+00  0.28816984434E+02  0.28816984434E+02  0.00000000000E+00 0.  1.
          2   -1    0    0  501    0  0.00000000000E+00 -0.00000000000E+00 -0.70402459538E+02  0.70402459538E+02  0.00000000000E+00 0. -1.
         23    2    1    2    0    0  0.00000000000E+00  0.00000000000E+00 -0.41585475104E+02  0.99219443973E+02  0.90084106937E+02 0.  0.
          2    1    3    3  502    0 -0.39145217563E+02  0.22198421223E+02 -0.22902336238E+02  0.50493910207E+02  0.00000000000E+00 0. -1.
         -2    1    3    3    0  502  0.39145217563E+02 -0.22198421223E+02 -0.18683138866E+02  0.48725533766E+02  0.00000000000E+00 0.  1.
<mgrwt>
<rscale>  0 0.90084107E+02</rscale>
<asrwt>0</asrwt>
<pdfrwt beam="2">  1        2 0.10831148E-01 0.90084107E+02</pdfrwt>
<pdfrwt beam="1">  1       -2 0.44333822E-02 0.90084107E+02</pdfrwt>
<totfact> 0.11458873E+05</totfact>
</mgrwt>
</event>
<event>
 5    1  0.3963873E+001  0.9549359E+02  0.7546771E-02  0.1290068E+00
         -1   -1    0    0    0  501 -0.00000000000E+00  0.00000000000E+00  0.30797719910E+01  0.30797719910E+01  0.00000000000E+00 0.  1.
          1   -1    0    0  501    0  0.00000000000E+00 -0.00000000000E+00 -0.74023546908E+03  0.74023546908E+03  0.00000000000E+00 0. -1.
         23    2    1    2    0    0  0.00000000000E+00  0.00000000000E+00 -0.73715569709E+03  0.74331524107E+03  0.95493590662E+02 0.  0.
          2    1    3    3  502    0 -0.20860577214E+02  0.11395996865E+01 -0.70276991064E+03  0.70308037213E+03  0.00000000000E+00 0. -1.
         -2    1    3    3    0  502  0.20860577214E+02 -0.11395996865E+01 -0.34385786443E+02  0.40234868938E+02  0.00000000000E+00 0.  1.
<mgrwt>
<rscale>  0 0.95493591E+02</rscale>
<asrwt>0</asrwt>
<pdfrwt beam="2">  1        1 0.11388238E+00 0.95493591E+02</pdfrwt>
<pdfrwt beam="1">  1       -1 0.47381109E-03 0.95493591E+02</pdfrwt>
<totfact> 0.12560239E+05</totfact>
</mgrwt>
</event>
<event>
 5    1  0.3963873E+001  0.8994467E+02  0.7546771E-02  0.1302986E+00
         -1   -1    0    0    0  501 -0.00000000000E+00  0.00000000000E+00  0.10564350077E+03  0.10564350077E+03  0.00000000000E+00 0.  1.
          1   -1    0    0  501    0  0.00000000000E+00 -0.00000000000E+00 -0.19144678672E+02  0.19144678672E+02  0.00000000000E+00 0. -1.
         23    2    1    2    0    0  0.00000000000E+00  0.00000000000E+00  0.86498822098E+02  0.12478817944E+03  0.89944669126E+02 0.  0.
          2    1    3    3  502    0  0.27997498988E+02 -0.33498503574E+02  0.58224285544E+02  0.72774151444E+02  0.00000000000E+00 0. -1.
         -2    1    3    3    0  502 -0.27997498988E+02  0.33498503574E+02  0.28274536554E+02  0.52014027998E+02  0.00000000000E+00 0.  1.
<mgrwt>
<rscale>  0 0.89944669E+02</rscale>
<asrwt>0</asrwt>
<pdfrwt beam="2">  1        1 0.29453352E-02 0.89944669E+02</pdfrwt>
<pdfrwt beam="1">  1       -1 0.16252846E-01 0.89944669E+02</pdfrwt>
<totfact> 0.83405498E+04</totfact>
</mgrwt>
</event>
<event>
 5    1  0.3963873E+001  0.8875866E+02  0.7546771E-02  0.1305886E+00
          2   -1    0    0  501    0  0.00000000000E+00  0.00000000000E+00  0.68620406335E+02  0.68620406335E+02  0.00000000000E+00 0. -1.
         -2   -1    0    0    0  501 -0.00000000000E+00 -0.00000000000E+00 -0.28701736312E+02  0.28701736312E+02  0.00000000000E+00 0.  1.
         23    2    1    2    0    0  0.00000000000E+00  0.00000000000E+00  0.39918670023E+02  0.97322142648E+02  0.88758657229E+02 0.  0.
          2    1    3    3  502    0 -0.83063981389E+01 -0.32685480454E+02  0.51590241882E+02  0.61635135597E+02  0.00000000000E+00 0. -1.
         -2    1    3    3    0  502  0.83063981389E+01  0.32685480454E+02 -0.11671571860E+02  0.35687007051E+02  0.00000000000E+00 0.  1.
<mgrwt>
<rscale>  0 0.88758657E+02</rscale>
<asrwt>0</asrwt>
<pdfrwt beam="1">  1        2 0.10556986E-01 0.88758657E+02</pdfrwt>
<pdfrwt beam="2">  1       -2 0.44156518E-02 0.88758657E+02</pdfrwt>
<totfact> 0.11858602E+05</totfact>
</mgrwt>
</event>
<event>
 5    1  0.3963873E+001  0.9205623E+02  0.7546771E-02  0.1297947E+00
         -2   -1    0    0    0  501 -0.00000000000E+00  0.00000000000E+00  0.30559249172E+02  0.30559249172E+02  0.00000000000E+00 0.  1.
          2   -1    0    0  501    0  0.00000000000E+00 -0.00000000000E+00 -0.69327199663E+02  0.69327199663E+02  0.00000000000E+00 0. -1.
         23    2    1    2    0    0  0.00000000000E+00  0.00000000000E+00 -0.38767950491E+02  0.99886448836E+02  0.92056225622E+02 0.  0.
          2    1    3    3  502    0 -0.13464875575E+02  0.42658143313E+02 -0.31149094095E+02  0.54509504933E+02  0.00000000000E+00 0. -1.
         -2    1    3    3    0  502  0.13464875575E+02 -0.42658143313E+02 -0.76188563958E+01  0.45376943902E+02  0.00000000000E+00 0.  1.
<mgrwt>
<rscale>  0 0.92056226E+02</rscale>
<asrwt>0</asrwt>
<pdfrwt beam="2">  1        2 0.10665723E-01 0.92056226E+02</pdfrwt>
<pdfrwt beam="1">  1       -2 0.47014230E-02 0.92056226E+02</pdfrwt>
<totfact> 0.10739454E+05</totfact>
</mgrwt>
</event>
<event>
 5    1  0.3963873E+001  0.7153236E+02  0.7546771E-02  0.1354958E+00
         -3   -1    0    0    0  501 -0.00000000000E+00  0.00000000000E+00  0.30539279214E+02  0.30539279214E+02  0.00000000000E+00 0.  1.
          3   -1    0    0  501    0  0.00000000000E+00 -0.00000000000E+00 -0.41887687929E+02  0.41887687929E+02  0.00000000000E+00 0. -1.
         23    2    1    2    0    0  0.00000000000E+00  0.00000000000E+00 -0.11348408715E+02  0.72426967143E+02  0.71532364627E+02 0.  0.
          2    1    3    3  502    0 -0.58553587567E+01 -0.31798766760E+02 -0.21155057704E+02  0.38639141554E+02  0.00000000000E+00 0. -1.
         -2    1    3    3    0  502  0.58553587567E+01  0.31798766760E+02  0.98066489889E+01  0.33787825588E+02  0.00000000000E+00 0.  1.
<mgrwt>
<rscale>  0 0.71532365E+02</rscale>
<asrwt>0</asrwt>
<pdfrwt beam="2">  1        3 0.64442597E-02 0.71532365E+02</pdfrwt>
<pdfrwt beam="1">  1       -3 0.46983507E-02 0.71532365E+02</pdfrwt>
<totfact> 0.70740518E+04</totfact>
</mgrwt>
</event>
<event>
 5    1  0.3963873E+001  0.8471290E+02  0.7546771E-02  0.1316185E+00
          2   -1    0    0  501    0  0.00000000000E+00  0.00000000000E+00  0.22084943703E+01  0.22084943703E+01  0.00000000000E+00 0. -1.
         -2   -1    0    0    0  501 -0.00000000000E+00 -0.00000000000E+00 -0.81234920894E+03  0.81234920894E+03  0.00000000000E+00 0.  1.
         23    2    1    2    0    0  0.00000000000E+00  0.00000000000E+00 -0.81014071457E+03  0.81455770331E+03  0.84712895232E+02 0.  0.
          2    1    3    3  502    0 -0.11929746246E+02  0.20572545507E+02 -0.68044301589E+02  0.72080340266E+02  0.00000000000E+00 0. -1.
         -2    1    3    3    0  502  0.11929746246E+02 -0.20572545507E+02 -0.74209641298E+03  0.74247736305E+03  0.00000000000E+00 0.  1.
<mgrwt>
<rscale>  0 0.84712895E+02</rscale>
<asrwt>0</asrwt>
<pdfrwt beam="1">  1        2 0.33976751E-03 0.84712895E+02</pdfrwt>
<pdfrwt beam="2">  1       -2 0.12497711E+00 0.84712895E+02</pdfrwt>
<totfact> 0.28394663E+04</totfact>
</mgrwt>
</event>
<event>
 5    1  0.3963873E+001  0.9226083E+02  0.7546771E-02  0.1297467E+00
         -1   -1    0    0    0  501 -0.00000000000E+00  0.00000000000E+00  0.56248196435E+02  0.56248196435E+02  0.00000000000E+00 0.  1.
          1   -1    0    0  501    0  0.00000000000E+00 -0.00000000000E+00 -0.37832591160E+02  0.37832591160E+02  0.00000000000E+00 0. -1.
         23    2    1    2    0    0  0.00000000000E+00  0.00000000000E+00  0.18415605276E+02  0.94080787595E+02  0.92260826339E+02 0.  0.
          2    1    3    3  502    0 -0.27306300014E+02  0.65049703999E+01 -0.28121231820E+02  0.39733516575E+02  0.00000000000E+00 0. -1.
         -2    1    3    3    0  502  0.27306300014E+02 -0.65049703999E+01  0.46536837096E+02  0.54347271019E+02  0.00000000000E+00 0.  1.
<mgrwt>
<rscale>  0 0.92260826E+02</rscale>
<asrwt>0</asrwt>
<pdfrwt beam="2">  1        1 0.58203986E-02 0.92260826E+02</pdfrwt>
<pdfrwt beam="1">  1       -1 0.86535687E-02 0.92260826E+02</pdfrwt>
<totfact> 0.86930554E+04</totfact>
</mgrwt>
</event>
<event>
 5    1  0.3963873E+001  0.9156032E+02  0.7546771E-02  0.1299117E+00
         -1   -1    0    0    0  501 -0.00000000000E+00  0.00000000000E+00  0.36549269238E+01  0.36549269238E+01  0.00000000000E+00 0.  1.
          1   -1    0    0  501    0  0.00000000000E+00 -0.00000000000E+00 -0.57342407197E+03  0.57342407197E+03  0.00000000000E+00 0. -1.
         23    2    1    2    0    0  0.00000000000E+00  0.00000000000E+00 -0.56976914505E+03  0.57707899890E+03  0.91560320650E+02 0.  0.
          2    1    3    3  502    0 -0.45093965772E+02  0.19607119344E+01 -0.33309643633E+03  0.33614066406E+03  0.00000000000E+00 0. -1.
         -2    1    3    3    0  502  0.45093965772E+02 -0.19607119344E+01 -0.23667270872E+03  0.24093833483E+03  0.00000000000E+00 0.  1.
<mgrwt>
<rscale>  0 0.91560321E+02</rscale>
<asrwt>0</asrwt>
<pdfrwt beam="2">  1        1 0.88219022E-01 0.91560321E+02</pdfrwt>
<pdfrwt beam="1">  1       -1 0.56229687E-03 0.91560321E+02</pdfrwt>
<totfact> 0.13959027E+05</totfact>
</mgrwt>
</event>
<event>
 5    1  0.3963873E+001  0.9242214E+02  0.7546771E-02  0.1297090E+00
          2   -1    0    0  501    0  0.00000000000E+00  0.00000000000E+00  0.33626565381E+02  0.33626565381E+02  0.00000000000E+00 0. -1.
         -2   -1    0    0    0  501 -0.00000000000E+00 -0.00000000000E+00 -0.63505236777E+02  0.63505236777E+02  0.00000000000E+00 0.  1.
         23    2    1    2    0    0  0.00000000000E+00  0.00000000000E+00 -0.29878671395E+02  0.97131802158E+02  0.92422140130E+02 0.  0.
          2    1    3    3  502    0  0.22923274472E+02 -0.31519102710E+02  0.11156034695E+02  0.40538715548E+02  0.00000000000E+00 0. -1.
         -2    1    3    3    0  502 -0.22923274472E+02  0.31519102710E+02 -0.41034706091E+02  0.56593086610E+02  0.00000000000E+00 0.  1.
<mgrwt>
<rscale>  0 0.92422140E+02</rscale>
<asrwt>0</asrwt>
<pdfrwt beam="1">  1        2 0.51733178E-02 0.92422140E+02</pdfrwt>
<pdfrwt beam="2">  1       -2 0.97700363E-02 0.92422140E+02</pdfrwt>
<totfact> 0.87605814E+04</totfact>
</mgrwt>
</event>
<event>
 5    1  0.3963873E+001  0.9190214E+02  0.7546771E-02  0.1298310E+00
         -1   -1    0    0    0  501 -0.00000000000E+00  0.00000000000E+00  0.12136280022E+01  0.12136280022E+01  0.00000000000E+00 0.  1.
          1   -1    0    0  501    0  0.00000000000E+00 -0.00000000000E+00 -0.17398255240E+04  0.17398255240E+04  0.00000000000E+00 0. -1.
         23    2    1    2    0    0  0.00000000000E+00  0.00000000000E+00 -0.17386118960E+04  0.17410391520E+04  0.91902143064E+02 0.  0.
          2    1    3    3  502    0 -0.25593377276E+02  0.15032054169E+01 -0.14687222043E+03  0.14909302372E+03  0.00000000000E+00 0.  1.
         -2    1    3    3    0  502  0.25593377276E+02 -0.15032054169E+01 -0.15917396756E+04  0.15919461283E+04  0.00000000000E+00 0. -1.
<mgrwt>
<rscale>  0 0.91902143E+02</rscale>
<asrwt>0</asrwt>
<pdfrwt beam="2">  1        1 0.26766674E+00 0.91902143E+02</pdfrwt>
<pdfrwt beam="1">  1       -1 0.18671111E-03 0.91902143E+02</pdfrwt>
<totfact> 0.93729280E+04</totfact>
</mgrwt>
</event>
<event>
 5    1  0.3963873E+001  0.9212411E+02  0.7546771E-02  0.1297788E+00
         -1   -1    0    0    0  501 -0.00000000000E+00  0.00000000000E+00  0.71923352791E+02  0.71923352791E+02  0.00000000000E+00 0.  1.
          1   -1    0    0  501    0  0.00000000000E+00 -0.00000000000E+00 -0.29499637212E+02  0.29499637212E+02  0.00000000000E+00 0. -1.
         23    2    1    2    0    0  0.00000000000E+00  0.00000000000E+00  0.42423715579E+02  0.10142299000E+03  0.92124107907E+02 0.  0.
          2    1    3    3  502    0 -0.18414812951E+02 -0.36694693380E+02 -0.17792353733E+01  0.41094665551E+02  0.00000000000E+00 0. -1.
         -2    1    3    3    0  502  0.18414812951E+02  0.36694693380E+02  0.44202950952E+02  0.60328324452E+02  0.00000000000E+00 0.  1.
<mgrwt>
<rscale>  0 0.92124108E+02</rscale>
<asrwt>0</asrwt>
<pdfrwt beam="2">  1        1 0.45384058E-02 0.92124108E+02</pdfrwt>
<pdfrwt beam="1">  1       -1 0.11065131E-01 0.92124108E+02</pdfrwt>
<totfact> 0.83914085E+04</totfact>
</mgrwt>
</event>
<event>
 5    1  0.3963873E+001  0.9261713E+02  0.7546771E-02  0.1296635E+00
         -1   -1    0    0    0  501 -0.00000000000E+00  0.00000000000E+00  0.54294221847E+03  0.54294221847E+03  0.00000000000E+00 0.  1.
          1   -1    0    0  501    0  0.00000000000E+00 -0.00000000000E+00 -0.39497448608E+01  0.39497448608E+01  0.00000000000E+00 0. -1.
         23    2    1    2    0    0  0.00000000000E+00  0.00000000000E+00  0.53899247361E+03  0.54689196333E+03  0.92617130966E+02 0.  0.
          2    1    3    3  502    0  0.19512123733E+02 -0.11869899083E+02  0.31619749577E+02  0.39005461671E+02  0.00000000000E+00 0. -1.
         -2    1    3    3    0  502 -0.19512123733E+02  0.11869899083E+02  0.50737272403E+03  0.50788650166E+03  0.00000000000E+00 0.  1.
<mgrwt>
<rscale>  0 0.92617131E+02</rscale>
<asrwt>0</asrwt>
<pdfrwt beam="2">  1        1 0.60765348E-03 0.92617131E+02</pdfrwt>
<pdfrwt beam="1">  1       -1 0.83529513E-01 0.92617131E+02</pdfrwt>
<totfact> 0.42823148E+04</totfact>
</mgrwt>
</event>
<event>
 5    1  0.3963873E+001  0.8739906E+02  0.7546771E-02  0.1309275E+00
         -1   -1    0    0    0  501 -0.00000000000E+00  0.00000000000E+00  0.68635069977E+00  0.68635069977E+00  0.00000000000E+00 0.  1.
          1   -1    0    0  501    0  0.00000000000E+00 -0.00000000000E+00 -0.27823224985E+04  0.27823224985E+04  0.00000000000E+00 0. -1.
         23    2    1    2    0    0  0.00000000000E+00  0.00000000000E+00 -0.27816361478E+04  0.27830088492E+04  0.87399061638E+02 0.  0.
          2    1    3    3  502    0 -0.39775648933E+02  0.14128715750E+02 -0.17509714251E+04  0.17514801325E+04  0.00000000000E+00 0. -1.
         -2    1    3    3    0  502  0.39775648933E+02 -0.14128715750E+02 -0.10306647226E+04  0.10315287167E+04  0.00000000000E+00 0.  1.
<mgrwt>
<rscale>  0 0.87399062E+02</rscale>
<asrwt>0</asrwt>
<pdfrwt beam="2">  1        1 0.42804319E+00 0.87399062E+02</pdfrwt>
<pdfrwt beam="1">  1       -1 0.10559400E-03 0.87399062E+02</pdfrwt>
<totfact> 0.44414066E+04</totfact>
</mgrwt>
</event>
<event>
 5    1  0.3963873E+001  0.9064208E+02  0.7546771E-02  0.1301304E+00
         -2   -1    0    0    0  501 -0.00000000000E+00  0.00000000000E+00  0.15989148042E+01  0.15989148042E+01  0.00000000000E+00 0.  1.
          2   -1    0    0  501    0  0.00000000000E+00 -0.00000000000E+00 -0.12846191985E+04  0.12846191985E+04  0.00000000000E+00 0. -1.
         23    2    1    2    0    0  0.00000000000E+00  0.00000000000E+00 -0.12830202837E+04  0.12862181133E+04  0.90642079723E+02 0.  0.
          2    1    3    3  502    0 -0.21158795786E+02 -0.20043877039E+01 -0.12095182929E+04  0.12097050108E+04  0.00000000000E+00 0. -1.
         -2    1    3    3    0  502  0.21158795786E+02  0.20043877039E+01 -0.73501990779E+02  0.76513102523E+02  0.00000000000E+00 0.  1.
<mgrwt>
<rscale>  0 0.90642080E+02</rscale>
<asrwt>0</asrwt>
<pdfrwt beam="2">  1        2 0.19763369E+00 0.90642080E+02</pdfrwt>
<pdfrwt beam="1">  1       -2 0.24598693E-03 0.90642080E+02</pdfrwt>
<totfact> 0.25008632E+05</totfact>
</mgrwt>
</event>
<event>
 5    1  0.3963873E+001  0.8853827E+02  0.7546771E-02  0.1306431E+00
          2   -1    0    0  501    0  0.00000000000E+00  0.00000000000E+00  0.43742422956E+02  0.43742422956E+02  0.00000000000E+00 0. -1.
         -2   -1    0    0    0  501 -0.00000000000E+00 -0.00000000000E+00 -0.44802184571E+02  0.44802184571E+02  0.00000000000E+00 0.  1.
         23    2    1    2    0    0  0.00000000000E+00  0.00000000000E+00 -0.10597616148E+01  0.88544607527E+02  0.88538265329E+02 0.  0.
          2    1    3    3  502    0  0.12081017565E+02  0.26974090082E+02  0.32430082873E+02  0.43877816676E+02  0.00000000000E+00 0. -1.
         -2    1    3    3    0  502 -0.12081017565E+02 -0.26974090082E+02 -0.33489844487E+02  0.44666790851E+02  0.00000000000E+00 0.  1.
<mgrwt>
<rscale>  0 0.88538265E+02</rscale>
<asrwt>0</asrwt>
<pdfrwt beam="1">  1        2 0.67296035E-02 0.88538265E+02</pdfrwt>
<pdfrwt beam="2">  1       -2 0.68926438E-02 0.88538265E+02</pdfrwt>
<totfact> 0.10619727E+05</totfact>
</mgrwt>
</event>
<event>
 5    1  0.3963873E+001  0.9124542E+02  0.7546771E-02  0.1299863E+00
         -4   -1    0    0    0  501 -0.00000000000E+00  0.00000000000E+00  0.85234663108E+01  0.85234663108E+01  0.00000000000E+00 0.  1.
          4   -1    0    0  501    0  0.00000000000E+00 -0.00000000000E+00 -0.24420012681E+03  0.24420012681E+03  0.00000000000E+00 0. -1.
         23    2    1    2    0    0  0.00000000000E+00  0.00000000000E+00 -0.23567666050E+03  0.25272359312E+03  0.91245417506E+02 0.  0.
          2    1    3    3  502    0 -0.41098631953E+02 -0.19796479839E+02 -0.11966170091E+03  0.12806217563E+03  0.00000000000E+00 0. -1.
         -2    1    3    3    0  502  0.41098631953E+02  0.19796479839E+02 -0.11601495959E+03  0.12466141750E+03  0.00000000000E+00 0.  1.
<mgrwt>
<rscale>  0 0.91245418E+02</rscale>
<asrwt>0</asrwt>
<pdfrwt beam="2">  1        4 0.37569247E-01 0.91245418E+02</pdfrwt>
<pdfrwt beam="1">  1       -4 0.13113026E-02 0.91245418E+02</pdfrwt>
<totfact> 0.19328770E+04</totfact>
</mgrwt>
</event>
<event>
 5    1  0.3963873E+001  0.9308637E+02  0.7546771E-02  0.1295545E+00
          2   -1    0    0  501    0  0.00000000000E+00  0.00000000000E+00  0.38798447821E+02  0.38798447821E+02  0.00000000000E+00 0. -1.
         -2   -1    0    0    0  501 -0.00000000000E+00 -0.00000000000E+00 -0.55833880911E+02  0.55833880911E+02  0.00000000000E+00 0.  1.
         23    2    1    2    0    0  0.00000000000E+00  0.00000000000E+00 -0.17035433091E+02  0.94632328732E+02  0.93086366674E+02 0.  0.
          2    1    3    3  502    0 -0.13006009497E+02 -0.42350930098E+02  0.59849112386E+01  0.44705444028E+02  0.00000000000E+00 0. -1.
         -2    1    3    3    0  502  0.13006009497E+02  0.42350930098E+02 -0.23020344329E+02  0.49926884704E+02  0.00000000000E+00 0.  1.
<mgrwt>
<rscale>  0 0.93086367E+02</rscale>
<asrwt>0</asrwt>
<pdfrwt beam="1">  1        2 0.59689920E-02 0.93086367E+02</pdfrwt>
<pdfrwt beam="2">  1       -2 0.85898278E-02 0.93086367E+02</pdfrwt>
<totfact> 0.89093747E+04</totfact>
</mgrwt>
</event>
<event>
 5    1  0.3963873E+001  0.8934831E+02  0.7546771E-02  0.1304438E+00
         -3   -1    0    0    0  501 -0.00000000000E+00  0.00000000000E+00  0.24024748771E+02  0.24024748771E+02  0.00000000000E+00 0.  1.
          3   -1    0    0  501    0  0.00000000000E+00 -0.00000000000E+00 -0.83071842157E+02  0.83071842157E+02  0.00000000000E+00 0. -1.
         23    2    1    2    0    0  0.00000000000E+00  0.00000000000E+00 -0.59047093386E+02  0.10709659093E+03  0.89348310286E+02 0.  0.
          2    1    3    3  502    0 -0.38026137658E+02 -0.21434636159E+02 -0.40916907629E+02  0.59829959907E+02  0.00000000000E+00 0.  1.
         -2    1    3    3    0  502  0.38026137658E+02  0.21434636159E+02 -0.18130185757E+02  0.47266631021E+02  0.00000000000E+00 0. -1.
<mgrwt>
<rscale>  0 0.89348310E+02</rscale>
<asrwt>0</asrwt>
<pdfrwt beam="2">  1        3 0.12780284E-01 0.89348310E+02</pdfrwt>
<pdfrwt beam="1">  1       -3 0.36961151E-02 0.89348310E+02</pdfrwt>
<totfact> 0.36081760E+04</totfact>
</mgrwt>
</event>
<event>
 5    1  0.3963873E+001  0.8999646E+02  0.7546771E-02  0.1302860E+00
          4   -1    0    0  501    0  0.00000000000E+00  0.00000000000E+00  0.13377953494E+02  0.13377953494E+02  0.00000000000E+00 0. -1.
         -4   -1    0    0    0  501 -0.00000000000E+00 -0.00000000000E+00 -0.15135652601E+03  0.15135652601E+03  0.00000000000E+00 0.  1.
         23    2    1    2    0    0  0.00000000000E+00  0.00000000000E+00 -0.13797857251E+03  0.16473447950E+03  0.89996456950E+02 0.  0.
          2    1    3    3  502    0 -0.12172176106E+02 -0.23194627608E+02 -0.20164375497E+01  0.26272012511E+02  0.00000000000E+00 0. -1.
         -2    1    3    3    0  502  0.12172176106E+02  0.23194627608E+02 -0.13596213496E+03  0.13846246699E+03  0.00000000000E+00 0.  1.
<mgrwt>
<rscale>  0 0.89996457E+02</rscale>
<asrwt>0</asrwt>
<pdfrwt beam="1">  1        4 0.20581466E-02 0.89996457E+02</pdfrwt>
<pdfrwt beam="2">  1       -4 0.23285621E-01 0.89996457E+02</pdfrwt>
<totfact> 0.23770389E+04</totfact>
</mgrwt>
</event>
<event>
 5    1  0.3963873E+001  0.9064050E+02  0.7546771E-02  0.1301308E+00
          2   -1    0    0  501    0  0.00000000000E+00  0.00000000000E+00  0.13906058982E+02  0.13906058982E+02  0.00000000000E+00 0. -1.
         -2   -1    0    0    0  501 -0.00000000000E+00 -0.00000000000E+00 -0.14770001447E+03  0.14770001447E+03  0.00000000000E+00 0.  1.
         23    2    1    2    0    0  0.00000000000E+00  0.00000000000E+00 -0.13379395549E+03  0.16160607346E+03  0.90640501166E+02 0.  0.
          2    1    3    3  502    0 -0.31960375373E+02  0.25879004757E+02 -0.10085411642E+03  0.10891621220E+03  0.00000000000E+00 0. -1.
         -2    1    3    3    0  502  0.31960375373E+02 -0.25879004757E+02 -0.32939839075E+02  0.52689861259E+02  0.00000000000E+00 0.  1.
<mgrwt>
<rscale>  0 0.90640501E+02</rscale>
<asrwt>0</asrwt>
<pdfrwt beam="1">  1        2 0.21393938E-02 0.90640501E+02</pdfrwt>
<pdfrwt beam="2">  1       -2 0.22723078E-01 0.90640501E+02</pdfrwt>
<totfact> 0.71304978E+04</totfact>
</mgrwt>
</event>
<event>
 5    1  0.3963873E+001  0.9068571E+02  0.7546771E-02  0.1301200E+00
         -2   -1    0    0    0  501 -0.00000000000E+00  0.00000000000E+00  0.95725220947E+00  0.95725220947E+00  0.00000000000E+00 0. -1.
          2   -1    0    0  501    0  0.00000000000E+00 -0.00000000000E+00 -0.21477878194E+04  0.21477878194E+04  0.00000000000E+00 0.  1.
         23    2    1    2    0    0  0.00000000000E+00  0.00000000000E+00 -0.21468305672E+04  0.21487450716E+04  0.90685713001E+02 0.  0.
          2    1    3    3  502    0  0.43881320979E+02 -0.18724442659E+01 -0.80649974907E+03  0.80769481961E+03  0.00000000000E+00 0.  1.
         -2    1    3    3    0  502 -0.43881320979E+02  0.18724442659E+01 -0.13403308181E+04  0.13410502520E+04  0.00000000000E+00 0. -1.
<mgrwt>
<rscale>  0 0.90685713E+02</rscale>
<asrwt>0</asrwt>
<pdfrwt beam="2">  1        2 0.33042811E+00 0.90685713E+02</pdfrwt>
<pdfrwt beam="1">  1       -2 0.14726992E-03 0.90685713E+02</pdfrwt>
<totfact> 0.18554817E+05</totfact>
</mgrwt>
</event>
<event>
 5    1  0.3963873E+001  0.9165552E+02  0.7546771E-02  0.1298891E+00
         -1   -1    0    0    0  501 -0.00000000000E+00  0.00000000000E+00  0.56201620650E+01  0.56201620650E+01  0.00000000000E+00 0.  1.
          1   -1    0    0  501    0  0.00000000000E+00 -0.00000000000E+00 -0.37368735368E+03  0.37368735368E+03  0.00000000000E+00 0. -1.
         23    2    1    2    0    0  0.00000000000E+00  0.00000000000E+00 -0.36806719162E+03  0.37930751575E+03  0.91655517878E+02 0.  0.
          2    1    3    3  502    0 -0.42039282427E+02 -0.17793331974E+02 -0.20073119988E+03  0.20585654844E+03  0.00000000000E+00 0. -1.
         -2    1    3    3    0  502  0.42039282427E+02  0.17793331974E+02 -0.16733599174E+03  0.17345096731E+03  0.00000000000E+00 0.  1.
<mgrwt>
<rscale>  0 0.91655518E+02</rscale>
<asrwt>0</asrwt>
<pdfrwt beam="2">  1        1 0.57490357E-01 0.91655518E+02</pdfrwt>
<pdfrwt beam="1">  1       -1 0.86464039E-03 0.91655518E+02</pdfrwt>
<totfact> 0.13150933E+05</totfact>
</mgrwt>
</event>
<event>
 5    1  0.3963873E+001  0.9481047E+02  0.7546771E-02  0.1291604E+00
         -1   -1    0    0    0  501 -0.00000000000E+00  0.00000000000E+00  0.17944665966E+02  0.17944665966E+02  0.00000000000E+00 0.  1.
          1   -1    0    0  501    0  0.00000000000E+00 -0.00000000000E+00 -0.12523254048E+03  0.12523254048E+03  0.00000000000E+00 0. -1.
         23    2    1    2    0    0  0.00000000000E+00  0.00000000000E+00 -0.10728787451E+03  0.14317720644E+03  0.94810465813E+02 0.  0.
          2    1    3    3  502    0  0.37958839679E+02 -0.28380573546E+02 -0.55096848962E+02  0.72677322667E+02  0.00000000000E+00 0. -1.
         -2    1    3    3    0  502 -0.37958839679E+02  0.28380573546E+02 -0.52191025548E+02  0.70499883775E+02  0.00000000000E+00 0.  1.
<mgrwt>
<rscale>  0 0.94810466E+02</rscale>
<asrwt>0</asrwt>
<pdfrwt beam="2">  1        1 0.19266544E-01 0.94810466E+02</pdfrwt>
<pdfrwt beam="1">  1       -1 0.27607179E-02 0.94810466E+02</pdfrwt>
<totfact> 0.97608973E+04</totfact>
</mgrwt>
</event>
<event>
 5    1  0.3963873E+001  0.9224306E+02  0.7546771E-02  0.1297509E+00
         -2   -1    0    0    0  501 -0.00000000000E+00  0.00000000000E+00  0.18216728301E+01  0.18216728301E+01  0.00000000000E+00 0.  1.
          2   -1    0    0  501    0  0.00000000000E+00 -0.00000000000E+00 -0.11677154802E+04  0.11677154802E+04  0.00000000000E+00 0. -1.
         23    2    1    2    0    0  0.00000000000E+00  0.00000000000E+00 -0.11658938074E+04  0.11695371531E+04  0.92243060739E+02 0.  0.
          2    1    3    3  502    0 -0.25314474817E+02 -0.31128556277E+02 -0.87134183125E+03  0.87226509533E+03  0.00000000000E+00 0. -1.
         -2    1    3    3    0  502  0.25314474817E+02  0.31128556277E+02 -0.29455197616E+03  0.29727205774E+03  0.00000000000E+00 0.  1.
<mgrwt>
<rscale>  0 0.92243061E+02</rscale>
<asrwt>0</asrwt>
<pdfrwt beam="2">  1        2 0.17964860E+00 0.92243061E+02</pdfrwt>
<pdfrwt beam="1">  1       -2 0.28025726E-03 0.92243061E+02</pdfrwt>
<totfact> 0.24182217E+05</totfact>
</mgrwt>
</event>
<event>
 5    1  0.3963873E+001  0.9164725E+02  0.7546771E-02  0.1298911E+00
          1   -1    0    0  501    0  0.00000000000E+00  0.00000000000E+00  0.18671572942E+04  0.18671572942E+04  0.00000000000E+00 0. -1.
         -1   -1    0    0    0  501 -0.00000000000E+00 -0.00000000000E+00 -0.11245997427E+01  0.11245997427E+01  0.00000000000E+00 0.  1.
         23    2    1    2    0    0  0.00000000000E+00  0.00000000000E+00  0.18660326945E+04  0.18682818940E+04  0.91647250099E+02 0.  0.
          2    1    3    3  502    0 -0.39901711034E+02  0.22306255216E+02  0.99776758108E+03  0.99881422768E+03  0.00000000000E+00 0. -1.
         -2    1    3    3    0  502  0.39901711034E+02 -0.22306255216E+02  0.86826511342E+03  0.86946766630E+03  0.00000000000E+00 0.  1.
<mgrwt>
<rscale>  0 0.91647250E+02</rscale>
<asrwt>0</asrwt>
<pdfrwt beam="1">  1        1 0.28725249E+00 0.91647250E+02</pdfrwt>
<pdfrwt beam="2">  1       -1 0.17301684E-03 0.91647250E+02</pdfrwt>
<totfact> 0.86633389E+04</totfact>
</mgrwt>
</event>
<event>
 5    1  0.3963873E+001  0.8872707E+02  0.7546771E-02  0.1305964E+00
         -1   -1    0    0    0  501 -0.00000000000E+00  0.00000000000E+00  0.63419892658E+01  0.63419892658E+01  0.00000000000E+00 0.  1.
          1   -1    0    0  501    0  0.00000000000E+00 -0.00000000000E+00 -0.31033213338E+03  0.31033213338E+03  0.00000000000E+00 0. -1.
         23    2    1    2    0    0  0.00000000000E+00  0.00000000000E+00 -0.30399014412E+03  0.31667412265E+03  0.88727065966E+02 0.  0.
          2    1    3    3  502    0  0.19582665124E+02  0.11581172941E+02 -0.16064193346E+02  0.27850720779E+02  0.00000000000E+00 0.  1.
         -2    1    3    3    0  502 -0.19582665124E+02 -0.11581172941E+02 -0.28792595077E+03  0.28882340187E+03  0.00000000000E+00 0. -1.
<mgrwt>
<rscale>  0 0.88727066E+02</rscale>
<asrwt>0</asrwt>
<pdfrwt beam="2">  1        1 0.47743394E-01 0.88727066E+02</pdfrwt>
<pdfrwt beam="1">  1       -1 0.97569089E-03 0.88727066E+02</pdfrwt>
<totfact> 0.13862925E+05</totfact>
</mgrwt>
</event>
<event>
 4    1  0.3963873E+001  0.3185292E+03  0.7546771E-02  0.1076328E+00
          2   -1    0    0  501    0  0.00000000000E+00  0.00000000000E+00  0.12386930113E+04  0.12386930113E+04  0.00000000000E+00 0. -1.
         -2   -1    0    0    0  501 -0.00000000000E+00 -0.00000000000E+00 -0.20477404731E+02  0.20477404731E+02  0.00000000000E+00 0.  1.
          2    1    1    2  502    0  0.15853492429E+03 -0.10246085573E+02  0.56457404256E+03  0.58649991818E+03  0.00000000000E+00 0. -1.
         -2    1    1    2    0  502 -0.15853492429E+03  0.10246085573E+02  0.65364156405E+03  0.67267049790E+03  0.00000000000E+00 0.  1.
<mgrwt>
<rscale>  0 0.31852923E+03</rscale>
<asrwt>0</asrwt>
<pdfrwt beam="1">  1        2 0.19056810E+00 0.31852923E+03</pdfrwt>
<pdfrwt beam="2">  1       -2 0.31503709E-02 0.31852923E+03</pdfrwt>
<totfact> 0.74972991E+03</totfact>
</mgrwt>
</event>
<event>
 5    1  0.3963873E+001  0.9196640E+02  0.7546771E-02  0.1298158E+00
          1   -1    0    0  501    0  0.00000000000E+00  0.00000000000E+00  0.57361724725E+03  0.57361724725E+03  0.00000000000E+00 0. -1.
         -1   -1    0    0    0  501 -0.00000000000E+00 -0.00000000000E+00 -0.36861768101E+01  0.36861768101E+01  0.00000000000E+00 0.  1.
         23    2    1    2    0    0  0.00000000000E+00  0.00000000000E+00  0.56993107044E+03  0.57730342406E+03  0.91966398095E+02 0.  0.
          2    1    3    3  502    0 -0.19987312166E+01  0.36474058912E+02  0.46029336007E+03  0.46174054319E+03  0.00000000000E+00 0. -1.
         -2    1    3    3    0  502  0.19987312166E+01 -0.36474058912E+02  0.10963771037E+03  0.11556288087E+03  0.00000000000E+00 0.  1.
<mgrwt>
<rscale>  0 0.91966398E+02</rscale>
<asrwt>0</asrwt>
<pdfrwt beam="1">  1        1 0.88248736E-01 0.91966398E+02</pdfrwt>
<pdfrwt beam="2">  1       -1 0.56710458E-03 0.91966398E+02</pdfrwt>
<totfact> 0.13796648E+05</totfact>
</mgrwt>
</event>
<event>
 5    1  0.3963873E+001  0.9168521E+02  0.7546771E-02  0.1298821E+00
          1   -1    0    0  501    0  0.00000000000E+00  0.00000000000E+00  0.35766091229E+02  0.35766091229E+02  0.00000000000E+00 0. -1.
         -1   -1    0    0    0  501 -0.00000000000E+00 -0.00000000000E+00 -0.58758016696E+02  0.58758016696E+02  0.00000000000E+00 0.  1.
         23    2    1    2    0    0  0.00000000000E+00  0.00000000000E+00 -0.22991925468E+02  0.94524107925E+02  0.91685213324E+02 0.  0.
          2    1    3    3  502    0  0.17304986033E+02  0.37273046335E+02  0.94506698975E+01  0.42167021311E+02  0.00000000000E+00 0. -1.
         -2    1    3    3    0  502 -0.17304986033E+02 -0.37273046335E+02 -0.32442595365E+02  0.52357086614E+02  0.00000000000E+00 0.  1.
<mgrwt>
<rscale>  0 0.91685213E+02</rscale>
<asrwt>0</asrwt>
<pdfrwt beam="1">  1        1 0.55024756E-02 0.91685213E+02</pdfrwt>
<pdfrwt beam="2">  1       -1 0.90396948E-02 0.91685213E+02</pdfrwt>
<totfact> 0.87723543E+04</totfact>
</mgrwt>
</event>
<event>
 5    1  0.3963873E+001  0.9026622E+02  0.7546771E-02  0.1302208E+00
         -2   -1    0    0    0  501 -0.00000000000E+00  0.00000000000E+00  0.47805011732E+01  0.47805011732E+01  0.00000000000E+00 0.  1.
          2   -1    0    0  501    0  0.00000000000E+00 -0.00000000000E+00 -0.42610547343E+03  0.42610547343E+03  0.00000000000E+00 0. -1.
         23    2    1    2    0    0  0.00000000000E+00  0.00000000000E+00 -0.42132497226E+03  0.43088597461E+03  0.90266222158E+02 0.  0.
          2    1    3    3  502    0 -0.37093136557E+02  0.19608312844E+02 -0.29005358577E+03  0.29307246430E+03  0.00000000000E+00 0. -1.
         -2    1    3    3    0  502  0.37093136557E+02 -0.19608312844E+02 -0.13127138649E+03  0.13781351031E+03  0.00000000000E+00 0.  1.
<mgrwt>
<rscale>  0 0.90266222E+02</rscale>
<asrwt>0</asrwt>
<pdfrwt beam="2">  1        2 0.65554686E-01 0.90266222E+02</pdfrwt>
<pdfrwt beam="1">  1       -2 0.73546175E-03 0.90266222E+02</pdfrwt>
<totfact> 0.20964600E+05</totfact>
</mgrwt>
</event>
<event>
 5    1  0.3963873E+001  0.8929474E+02  0.7546771E-02  0.1304569E+00
         -3   -1    0    0    0  501 -0.00000000000E+00  0.00000000000E+00  0.17221902577E+02  0.17221902577E+02  0.00000000000E+00 0.  1.
          3   -1    0    0  501    0  0.00000000000E+00 -0.00000000000E+00 -0.11574723889E+03  0.11574723889E+03  0.00000000000E+00 0. -1.
         23    2    1    2    0    0  0.00000000000E+00  0.00000000000E+00 -0.98525336313E+02  0.13296914147E+03  0.89294740532E+02 0.  0.
          2    1    3    3  502    0 -0.41625832495E+02  0.16091114804E+02 -0.47290650972E+02  0.65023377150E+02  0.00000000000E+00 0. -1.
         -2    1    3    3    0  502  0.41625832495E+02 -0.16091114804E+02 -0.51234685341E+02  0.67945764316E+02  0.00000000000E+00 0.  1.
<mgrwt>
<rscale>  0 0.89294741E+02</rscale>
<asrwt>0</asrwt>
<pdfrwt beam="2">  1        3 0.17807268E-01 0.89294741E+02</pdfrwt>
<pdfrwt beam="1">  1       -3 0.26495234E-02 0.89294741E+02</pdfrwt>
<totfact> 0.34261021E+04</totfact>
</mgrwt>
</event>
<event>
 5    1  0.3963873E+001  0.8783003E+02  0.7546771E-02  0.1308193E+00
          1   -1    0    0  501    0  0.00000000000E+00  0.00000000000E+00  0.68924360873E+03  0.68924360873E+03  0.00000000000E+00 0.  1.
         -1   -1    0    0    0  501 -0.00000000000E+00 -0.00000000000E+00 -0.27980364456E+01  0.27980364456E+01  0.00000000000E+00 0. -1.
         23    2    1    2    0    0  0.00000000000E+00  0.00000000000E+00  0.68644557229E+03  0.69204164518E+03  0.87830034433E+02 0.  0.
          2    1    3    3  502    0  0.21004124764E+02  0.38221359348E+02  0.30267434550E+03  0.30580026977E+03  0.00000000000E+00 0. -1.
         -2    1    3    3    0  502 -0.21004124764E+02 -0.38221359348E+02  0.38377122678E+03  0.38624137540E+03  0.00000000000E+00 0.  1.
<mgrwt>
<rscale>  0 0.87830034E+02</rscale>
<asrwt>0</asrwt>
<pdfrwt beam="1">  1        1 0.10603734E+00 0.87830034E+02</pdfrwt>
<pdfrwt beam="2">  1       -1 0.43046769E-03 0.87830034E+02</pdfrwt>
<totfact> 0.15693991E+05</totfact>
</mgrwt>
</event>
<event>
 5    1  0.3963873E+001  0.9082200E+02  0.7546771E-02  0.1300873E+00
          1   -1    0    0  501    0  0.00000000000E+00  0.00000000000E+00  0.27381361662E+03  0.27381361662E+03  0.00000000000E+00 0. -1.
         -1   -1    0    0    0  501 -0.00000000000E+00 -0.00000000000E+00 -0.75312509494E+01  0.75312509494E+01  0.00000000000E+00 0.  1.
         23    2    1    2    0    0  0.00000000000E+00  0.00000000000E+00  0.26628236568E+03  0.28134486757E+03  0.90822003065E+02 0.  0.
          2    1    3    3  502    0 -0.28376307412E+02 -0.35401798769E+02  0.12721734202E+03  0.13506574062E+03  0.00000000000E+00 0. -1.
         -2    1    3    3    0  502  0.28376307412E+02  0.35401798769E+02  0.13906502366E+03  0.14627912696E+03  0.00000000000E+00 0.  1.
<mgrwt>
<rscale>  0 0.90822003E+02</rscale>
<asrwt>0</asrwt>
<pdfrwt beam="1">  1        1 0.42125164E-01 0.90822003E+02</pdfrwt>
<pdfrwt beam="2">  1       -1 0.11586542E-02 0.90822003E+02</pdfrwt>
<totfact> 0.12720173E+05</totfact>
</mgrwt>
</event>
<event>
 5    1  0.3963873E+001  0.9254282E+02  0.7546771E-02  0.1296808E+00
          2   -1    0    0  501    0  0.00000000000E+00  0.00000000000E+00  0.58577422106E+02  0.58577422106E+02  0.00000000000E+00 0. -1.
         -2   -1    0    0    0  501 -0.00000000000E+00 -0.00000000000E+00 -0.36550657614E+02  0.36550657614E+02  0.00000000000E+00 0.  1.
         23    2    1    2    0    0  0.00000000000E+00  0.00000000000E+00  0.22026764493E+02  0.95128079720E+02  0.92542818183E+02 0.  0.
          2    1    3    3  502    0  0.10539364809E+02  0.21541564939E+02  0.51690637085E+02  0.56982797341E+02  0.00000000000E+00 0. -1.
         -2    1    3    3    0  502 -0.10539364809E+02 -0.21541564939E+02 -0.29663872592E+02  0.38145282379E+02  0.00000000000E+00 0.  1.
<mgrwt>
<rscale>  0 0.92542818E+02</rscale>
<asrwt>0</asrwt>
<pdfrwt beam="1">  1        2 0.90119111E-02 0.92542818E+02</pdfrwt>
<pdfrwt beam="2">  1       -2 0.56231781E-02 0.92542818E+02</pdfrwt>
<totfact> 0.10104544E+05</totfact>
</mgrwt>
</event>
<event>
 5    1  0.3963873E+001  0.9224179E+02  0.7546771E-02  0.1297512E+00
         -2   -1    0    0    0  501 -0.00000000000E+00  0.00000000000E+00  0.31189751469E+01  0.31189751469E+01  0.00000000000E+00 0.  1.
          2   -1    0    0  501    0  0.00000000000E+00 -0.00000000000E+00 -0.68199876021E+03  0.68199876021E+03  0.00000000000E+00 0. -1.
         23    2    1    2    0    0  0.00000000000E+00  0.00000000000E+00 -0.67887978506E+03  0.68511773535E+03  0.92241794936E+02 0.  0.
          2    1    3    3  502    0 -0.34783719385E+02  0.84115215600E+01 -0.55553497306E+03  0.55668641722E+03  0.00000000000E+00 0. -1.
         -2    1    3    3    0  502  0.34783719385E+02 -0.84115215600E+01 -0.12334481200E+03  0.12843131813E+03  0.00000000000E+00 0.  1.
<mgrwt>
<rscale>  0 0.92241795E+02</rscale>
<asrwt>0</asrwt>
<pdfrwt beam="2">  1        2 0.10492299E+00 0.92241795E+02</pdfrwt>
<pdfrwt beam="1">  1       -2 0.47984184E-03 0.92241795E+02</pdfrwt>
<totfact> 0.22856201E+05</totfact>
</mgrwt>
</event>
<event>
 5    1  0.3963873E+001  0.9267871E+02  0.7546771E-02  0.1296491E+00
          3   -1    0    0  501    0  0.00000000000E+00  0.00000000000E+00  0.13350621472E+01  0.13350621472E+01  0.00000000000E+00 0. -1.
         -3   -1    0    0    0  501 -0.00000000000E+00 -0.00000000000E+00 -0.16084162976E+04  0.16084162976E+04  0.00000000000E+00 0.  1.
         23    2    1    2    0    0  0.00000000000E+00  0.00000000000E+00 -0.16070812355E+04  0.16097513598E+04  0.92678707715E+02 0.  0.
          2    1    3    3  502    0  0.20984478966E+02 -0.24491119995E+02 -0.13814855455E+04  0.13818619598E+04  0.00000000000E+00 0.  1.
         -2    1    3    3    0  502 -0.20984478966E+02  0.24491119995E+02 -0.22559568994E+03  0.22788940001E+03  0.00000000000E+00 0. -1.
<mgrwt>
<rscale>  0 0.92678708E+02</rscale>
<asrwt>0</asrwt>
<pdfrwt beam="1">  1        3 0.20539518E-03 0.92678708E+02</pdfrwt>
<pdfrwt beam="2">  1       -3 0.24744745E+00 0.92678708E+02</pdfrwt>
<totfact> 0.52016361E+03</totfact>
</mgrwt>
</event>
<event>
 5    1  0.3963873E+001  0.9154946E+02  0.7546771E-02  0.1299142E+00
         -3   -1    0    0    0  501 -0.00000000000E+00  0.00000000000E+00  0.11913141899E+02  0.11913141899E+02  0.00000000000E+00 0.  1.
          3   -1    0    0  501    0  0.00000000000E+00 -0.00000000000E+00 -0.17588358229E+03  0.17588358229E+03  0.00000000000E+00 0. -1.
         23    2    1    2    0    0  0.00000000000E+00  0.00000000000E+00 -0.16397044039E+03  0.18779672419E+03  0.91549463647E+02 0.  0.
          2    1    3    3  502    0 -0.14815489276E+02 -0.22099116328E+02 -0.55766836409E+01  0.27183985459E+02  0.00000000000E+00 0.  1.
         -2    1    3    3    0  502  0.14815489276E+02  0.22099116328E+02 -0.15839375675E+03  0.16061273873E+03  0.00000000000E+00 0. -1.
<mgrwt>
<rscale>  0 0.91549464E+02</rscale>
<asrwt>0</asrwt>
<pdfrwt beam="2">  1        3 0.27059010E-01 0.91549464E+02</pdfrwt>
<pdfrwt beam="1">  1       -3 0.18327912E-02 0.91549464E+02</pdfrwt>
<totfact> 0.28822289E+04</totfact>
</mgrwt>
</event>
<event>
 5    1  0.3963873E+001  0.8832364E+02  0.7546771E-02  0.1306963E+00
          1   -1    0    0  501    0  0.00000000000E+00  0.00000000000E+00  0.81068030522E+02  0.81068030522E+02  0.00000000000E+00 0. -1.
         -1   -1    0    0    0  501 -0.00000000000E+00 -0.00000000000E+00 -0.24057159503E+02  0.24057159503E+02  0.00000000000E+00 0.  1.
         23    2    1    2    0    0  0.00000000000E+00  0.00000000000E+00  0.57010871019E+02  0.10512519003E+03  0.88323644420E+02 0.  0.
          2    1    3    3  502    0  0.60783528295E+01 -0.25161732182E+02  0.71091742459E+02  0.75657749010E+02  0.00000000000E+00 0. -1.
         -2    1    3    3    0  502 -0.60783528295E+01  0.25161732182E+02 -0.14080871439E+02  0.29467441015E+02  0.00000000000E+00 0.  1.
<mgrwt>
<rscale>  0 0.88323644E+02</rscale>
<asrwt>0</asrwt>
<pdfrwt beam="1">  1        1 0.12472005E-01 0.88323644E+02</pdfrwt>
<pdfrwt beam="2">  1       -1 0.37011015E-02 0.88323644E+02</pdfrwt>
<totfact> 0.11012830E+05</totfact>
</mgrwt>
</event>
<event>
 5    1  0.3963873E+001  0.9206514E+02  0.7546771E-02  0.1297926E+00
         -3   -1    0    0    0  501 -0.00000000000E+00  0.00000000000E+00  0.43852100074E+02  0.43852100074E+02  0.00000000000E+00 0.  1.
          3   -1    0    0  501    0  0.00000000000E+00 -0.00000000000E+00 -0.48321462248E+02  0.48321462248E+02  0.00000000000E+00 0. -1.
         23    2    1    2    0    0  0.00000000000E+00  0.00000000000E+00 -0.44693621736E+01  0.92173562321E+02  0.92065142116E+02 0.  0.
          2    1    3    3  502    0 -0.35391745233E+02  0.64833961226E+01 -0.30980643586E+02  0.47480631135E+02  0.00000000000E+00 0. -1.
         -2    1    3    3    0  502  0.35391745233E+02 -0.64833961226E+01  0.26511281413E+02  0.44692931187E+02  0.00000000000E+00 0.  1.
<mgrwt>
<rscale>  0 0.92065142E+02</rscale>
<asrwt>0</asrwt>
<pdfrwt beam="2">  1        3 0.74340712E-02 0.92065142E+02</pdfrwt>
<pdfrwt beam="1">  1       -3 0.67464769E-02 0.92065142E+02</pdfrwt>
<totfact> 0.34340697E+04</totfact>
</mgrwt>
</event>
<event>
 5    1  0.3963873E+001  0.9043143E+02  0.7546771E-02  0.1301810E+00
         -1   -1    0    0    0  501 -0.00000000000E+00  0.00000000000E+00  0.83138613066E+01  0.83138613066E+01  0.00000000000E+00 0.  1.
          1   -1    0    0  501    0  0.00000000000E+00 -0.00000000000E+00 -0.24590992321E+03  0.24590992321E+03  0.00000000000E+00 0. -1.
         23    2    1    2    0    0  0.00000000000E+00  0.00000000000E+00 -0.23759606191E+03  0.25422378452E+03  0.90431432489E+02 0.  0.
          2    1    3    3  502    0 -0.20648882752E+02  0.21199080263E+02 -0.21490286876E+03  0.21693091150E+03  0.00000000000E+00 0. -1.
         -2    1    3    3    0  502  0.20648882752E+02 -0.21199080263E+02 -0.22693193148E+02  0.37292873021E+02  0.00000000000E+00 0.  1.
<mgrwt>
<rscale>  0 0.90431432E+02</rscale>
<asrwt>0</asrwt>
<pdfrwt beam="2">  1        1 0.37832292E-01 0.90431432E+02</pdfrwt>
<pdfrwt beam="1">  1       -1 0.12790557E-02 0.90431432E+02</pdfrwt>
<totfact> 0.12600476E+05</totfact>
</mgrwt>
</event>
<event>
 5    1  0.3963873E+001  0.9623592E+02  0.7546771E-02  0.1288416E+00
          1   -1    0    0  501    0  0.00000000000E+00  0.00000000000E+00  0.14385621584E+02  0.14385621584E+02  0.00000000000E+00 0. -1.
         -1   -1    0    0    0  501 -0.00000000000E+00 -0.00000000000E+00 -0.16094807822E+03  0.16094807822E+03  0.00000000000E+00 0.  1.
         23    2    1    2    0    0  0.00000000000E+00  0.00000000000E+00 -0.14656245664E+03  0.17533369980E+03  0.96235921524E+02 0.  0.
          2    1    3    3  502    0 -0.20774444080E+02 -0.32532153808E+01  0.55716626795E+01  0.21753260954E+02  0.00000000000E+00 0. -1.
         -2    1    3    3    0  502  0.20774444080E+02  0.32532153808E+01 -0.15213411932E+03  0.15358043885E+03  0.00000000000E+00 0.  1.
<mgrwt>
<rscale>  0 0.96235922E+02</rscale>
<asrwt>0</asrwt>
<pdfrwt beam="1">  1        1 0.22131724E-02 0.96235922E+02</pdfrwt>
<pdfrwt beam="2">  1       -1 0.24761244E-01 0.96235922E+02</pdfrwt>
<totfact> 0.63891120E+04</totfact>
</mgrwt>
</event>
<event>
 5    1  0.3963873E+001  0.9247170E+02  0.7546771E-02  0.1296974E+00
         -1   -1    0    0    0  501 -0.00000000000E+00  0.00000000000E+00  0.10750490067E+03  0.10750490067E+03  0.00000000000E+00 0.  1.
          1   -1    0    0  501    0  0.00000000000E+00 -0.00000000000E+00 -0.19885177146E+02  0.19885177146E+02  0.00000000000E+00 0. -1.
         23    2    1    2    0    0  0.00000000000E+00  0.00000000000E+00  0.87619723524E+02  0.12739007782E+03  0.92471703647E+02 0.  0.
          2    1    3    3  502    0 -0.34830265037E+02 -0.55048740891E+00  0.19272201998E+01  0.34887885815E+02  0.00000000000E+00 0. -1.
         -2    1    3    3    0  502  0.34830265037E+02  0.55048740891E+00  0.85692503324E+02  0.92502192001E+02  0.00000000000E+00 0.  1.
<mgrwt>
<rscale>  0 0.92471704E+02</rscale>
<asrwt>0</asrwt>
<pdfrwt beam="2">  1        1 0.30592581E-02 0.92471704E+02</pdfrwt>
<pdfrwt beam="1">  1       -1 0.16539215E-01 0.92471704E+02</pdfrwt>
<totfact> 0.77392991E+04</totfact>
</mgrwt>
</event>
<event>
 5    1  0.3963873E+001  0.9154798E+02  0.7546771E-02  0.1299146E+00
          3   -1    0    0  501    0  0.00000000000E+00  0.00000000000E+00  0.38365486524E+02  0.38365486524E+02  0.00000000000E+00 0. -1.
         -3   -1    0    0    0  501 -0.00000000000E+00 -0.00000000000E+00 -0.54613095950E+02  0.54613095950E+02  0.00000000000E+00 0.  1.
         23    2    1    2    0    0  0.00000000000E+00  0.00000000000E+00 -0.16247609427E+02  0.92978582474E+02  0.91547976421E+02 0.  0.
          2    1    3    3  502    0 -0.32780658315E+02 -0.12511132031E+02  0.21732135487E+02  0.41272093442E+02  0.00000000000E+00 0. -1.
         -2    1    3    3    0  502  0.32780658315E+02  0.12511132031E+02 -0.37979744914E+02  0.51706489032E+02  0.00000000000E+00 0.  1.
<mgrwt>
<rscale>  0 0.91547976E+02</rscale>
<asrwt>0</asrwt>
<pdfrwt beam="1">  1        3 0.59023826E-02 0.91547976E+02</pdfrwt>
<pdfrwt beam="2">  1       -3 0.84020147E-02 0.91547976E+02</pdfrwt>
<totfact> 0.34813212E+04</totfact>
</mgrwt>
</event>
<event>
 5    1  0.3963873E+001  0.9040145E+02  0.7546771E-02  0.1301882E+00
         -2   -1    0    0    0  501 -0.00000000000E+00  0.00000000000E+00  0.19462368013E+01  0.19462368013E+01  0.00000000000E+00 0.  1.
          2   -1    0    0  501    0  0.00000000000E+00 -0.00000000000E+00 -0.10497723537E+04  0.10497723537E+04  0.00000000000E+00 0. -1.
         23    2    1    2    0    0  0.00000000000E+00  0.00000000000E+00 -0.10478261169E+04  0.10517185905E+04  0.90401451045E+02 0.  0.
          2    1    3    3  502    0 -0.37024225818E+02  0.25598922535E+02 -0.57189124393E+03  0.57365991059E+03  0.00000000000E+00 0. -1.
         -2    1    3    3    0  502  0.37024225818E+02 -0.25598922535E+02 -0.47593487295E+03  0.47805867989E+03  0.00000000000E+00 0.  1.
<mgrwt>
<rscale>  0 0.90401451E+02</rscale>
<asrwt>0</asrwt>
<pdfrwt beam="2">  1        2 0.16150338E+00 0.90401451E+02</pdfrwt>
<pdfrwt beam="1">  1       -2 0.29942116E-03 0.90401451E+02</pdfrwt>
<totfact> 0.25601488E+05</totfact>
</mgrwt>
</event>
<event>
 5    1  0.3963873E+001  0.9013689E+02  0.7546771E-02  0.1302521E+00
         -1   -1    0    0    0  501 -0.00000000000E+00  0.00000000000E+00  0.43860506522E+01  0.43860506522E+01  0.00000000000E+00 0.  1.
          1   -1    0    0  501    0  0.00000000000E+00 -0.00000000000E+00 -0.46309646406E+03  0.46309646406E+03  0.00000000000E+00 0. -1.
         23    2    1    2    0    0  0.00000000000E+00  0.00000000000E+00 -0.45871041341E+03  0.46748251471E+03  0.90136885862E+02 0.  0.
          2    1    3    3  502    0  0.18752287121E+01 -0.27432114772E+02 -0.41455460336E+03  0.41546546977E+03  0.00000000000E+00 0. -1.
         -2    1    3    3    0  502 -0.18752287121E+01  0.27432114772E+02 -0.44155810044E+02  0.52017044939E+02  0.00000000000E+00 0.  1.
<mgrwt>
<rscale>  0 0.90136886E+02</rscale>
<asrwt>0</asrwt>
<pdfrwt beam="2">  1        1 0.71245631E-01 0.90136886E+02</pdfrwt>
<pdfrwt beam="1">  1       -1 0.67477683E-03 0.90136886E+02</pdfrwt>
<totfact> 0.14216487E+05</totfact>
</mgrwt>
</event>
<event>
 5    1  0.3963873E+001  0.9020187E+02  0.7546771E-02  0.1302364E+00
         -2   -1    0    0    0  501 -0.00000000000E+00  0.00000000000E+00  0.15419248990E+01  0.15419248990E+01  0.00000000000E+00 0.  1.
          2   -1    0    0  501    0  0.00000000000E+00 -0.00000000000E+00 -0.13191915827E+04  0.13191915827E+04  0.00000000000E+00 0. -1.
         23    2    1    2    0    0  0.00000000000E+00  0.00000000000E+00 -0.13176496578E+04  0.13207335076E+04  0.90201870225E+02 0.  0.
          2    1    3    3  502    0 -0.24196785282E+02  0.24578364094E+01 -0.12149441030E+04  0.12151875159E+04  0.00000000000E+00 0. -1.
         -2    1    3    3    0  502  0.24196785282E+02 -0.24578364094E+01 -0.10270555488E+03  0.10554599178E+03  0.00000000000E+00 0.  1.
<mgrwt>
<rscale>  0 0.90201870E+02</rscale>
<asrwt>0</asrwt>
<pdfrwt beam="2">  1        2 0.20295211E+00 0.90201870E+02</pdfrwt>
<pdfrwt beam="1">  1       -2 0.23721973E-03 0.90201870E+02</pdfrwt>
<totfact> 0.25199772E+05</totfact>
</mgrwt>
</event>
<event>
 5    1  0.3963873E+001  0.9170502E+02  0.7546771E-02  0.1298774E+00
         -1   -1    0    0    0  501 -0.00000000000E+00  0.00000000000E+00  0.25690471681E+02  0.25690471681E+02  0.00000000000E+00 0.  1.
          1   -1    0    0  501    0  0.00000000000E+00 -0.00000000000E+00 -0.81837839228E+02  0.81837839228E+02  0.00000000000E+00 0. -1.
         23    2    1    2    0    0  0.00000000000E+00  0.00000000000E+00 -0.56147367547E+02  0.10752831091E+03  0.91705020390E+02 0.  0.
          2    1    3    3  502    0 -0.43618796543E+01 -0.26705352366E+02 -0.71477683537E+02  0.76428143265E+02  0.00000000000E+00 0. -1.
         -2    1    3    3    0  502  0.43618796543E+01  0.26705352366E+02  0.15330315991E+02  0.31100167644E+02  0.00000000000E+00 0.  1.
<mgrwt>
<rscale>  0 0.91705020E+02</rscale>
<asrwt>0</asrwt>
<pdfrwt beam="2">  1        1 0.12590437E-01 0.91705020E+02</pdfrwt>
<pdfrwt beam="1">  1       -1 0.39523803E-02 0.91705020E+02</pdfrwt>
<totfact> 0.99515484E+04</totfact>
</mgrwt>
</event>
<event>
 5    1  0.3963873E+001  0.9282087E+02  0.7546771E-02  0.1296161E+00
         -1   -1    0    0    0  501 -0.00000000000E+00  0.00000000000E+00  0.23116081744E+03  0.23116081744E+03  0.00000000000E+00 0.  1.
          1   -1    0    0  501    0  0.00000000000E+00 -0.00000000000E+00 -0.93178788052E+01  0.93178788052E+01  0.00000000000E+00 0. -1.
         23    2    1    2    0    0  0.00000000000E+00  0.00000000000E+00  0.22184293863E+03  0.24047869624E+03  0.92820870097E+02 0.  0.
          2    1    3    3  502    0  0.42812980551E+01 -0.23401944282E+02  0.76812049232E+01  0.24999628363E+02  0.00000000000E+00 0. -1.
         -2    1    3    3    0  502 -0.42812980551E+01  0.23401944282E+02  0.21416173371E+03  0.21547906788E+03  0.00000000000E+00 0.  1.
<mgrwt>
<rscale>  0 0.92820870E+02</rscale>
<asrwt>0</asrwt>
<pdfrwt beam="2">  1        1 0.14335200E-02 0.92820870E+02</pdfrwt>
<pdfrwt beam="1">  1       -1 0.35563198E-01 0.92820870E+02</pdfrwt>
<totfact> 0.63422814E+04</totfact>
</mgrwt>
</event>
<event>
 5    1  0.3963873E+001  0.9185576E+02  0.7546771E-02  0.1298419E+00
         -2   -1    0    0    0  501 -0.00000000000E+00  0.00000000000E+00  0.84107459233E+03  0.84107459233E+03  0.00000000000E+00 0.  1.
          2   -1    0    0  501    0  0.00000000000E+00 -0.00000000000E+00 -0.25079465171E+01  0.25079465171E+01  0.00000000000E+00 0. -1.
         23    2    1    2    0    0  0.00000000000E+00  0.00000000000E+00  0.83856664581E+03  0.84358253885E+03  0.91855758545E+02 0.  0.
          2    1    3    3  502    0 -0.32842981452E+02 -0.22959574980E+02  0.62536987053E+03  0.62665243834E+03  0.00000000000E+00 0.  1.
         -2    1    3    3    0  502  0.32842981452E+02  0.22959574980E+02  0.21319677528E+03  0.21693010050E+03  0.00000000000E+00 0. -1.
<mgrwt>
<rscale>  0 0.91855759E+02</rscale>
<asrwt>0</asrwt>
<pdfrwt beam="2">  1        2 0.38583859E-03 0.91855759E+02</pdfrwt>
<pdfrwt beam="1">  1       -2 0.12939587E+00 0.91855759E+02</pdfrwt>
<totfact> 0.22205230E+04</totfact>
</mgrwt>
</event>
<event>
 5    1  0.3963873E+001  0.9305613E+02  0.7546771E-02  0.1295615E+00
         -4   -1    0    0    0  501 -0.00000000000E+00  0.00000000000E+00  0.24160454384E+03  0.24160454384E+03  0.00000000000E+00 0.  1.
          4   -1    0    0  501    0  0.00000000000E+00 -0.00000000000E+00 -0.89603478096E+01  0.89603478096E+01  0.00000000000E+00 0. -1.
         23    2    1    2    0    0  0.00000000000E+00  0.00000000000E+00  0.23264419603E+03  0.25056489165E+03  0.93056128119E+02 0.  0.
          2    1    3    3  502    0 -0.20316614347E+02  0.13193519617E+01  0.22897395098E+03  0.22987730583E+03  0.00000000000E+00 0.  1.
         -2    1    3    3    0  502  0.20316614347E+02 -0.13193519617E+01  0.36702450449E+01  0.20687585814E+02  0.00000000000E+00 0. -1.
<mgrwt>
<rscale>  0 0.93056128E+02</rscale>
<asrwt>0</asrwt>
<pdfrwt beam="2">  1        4 0.13785152E-02 0.93056128E+02</pdfrwt>
<pdfrwt beam="1">  1       -4 0.37169925E-01 0.93056128E+02</pdfrwt>
<totfact> 0.18411236E+04</totfact>
</mgrwt>
</event>
<event>
 5    1  0.3963873E+001  0.9670610E+02  0.7546771E-02  0.1287379E+00
          1   -1    0    0  501    0  0.00000000000E+00  0.00000000000E+00  0.35323374555E+02  0.35323374555E+02  0.00000000000E+00 0. -1.
         -1   -1    0    0    0  501 -0.00000000000E+00 -0.00000000000E+00 -0.66188961080E+02  0.66188961080E+02  0.00000000000E+00 0.  1.
         23    2    1    2    0    0  0.00000000000E+00  0.00000000000E+00 -0.30865586525E+02  0.10151233564E+03  0.96706100400E+02 0.  0.
          2    1    3    3  502    0  0.24423628377E+02 -0.29665201667E+02  0.15376906123E+02  0.41388247789E+02  0.00000000000E+00 0. -1.
         -2    1    3    3    0  502 -0.24423628377E+02  0.29665201667E+02 -0.46242492648E+02  0.60124087847E+02  0.00000000000E+00 0.  1.
<mgrwt>
<rscale>  0 0.96706100E+02</rscale>
<asrwt>0</asrwt>
<pdfrwt beam="1">  1        1 0.54343654E-02 0.96706100E+02</pdfrwt>
<pdfrwt beam="2">  1       -1 0.10182917E-01 0.96706100E+02</pdfrwt>
<totfact> 0.75159706E+04</totfact>
</mgrwt>
</event>
<event>
 5    1  0.3963873E+001  0.9329427E+02  0.7546771E-02  0.1295065E+00
         -1   -1    0    0    0  501 -0.00000000000E+00  0.00000000000E+00  0.99404431479E+01  0.99404431479E+01  0.00000000000E+00 0.  1.
          1   -1    0    0  501    0  0.00000000000E+00 -0.00000000000E+00 -0.21889919842E+03  0.21889919842E+03  0.00000000000E+00 0. -1.
         23    2    1    2    0    0  0.00000000000E+00  0.00000000000E+00 -0.20895875528E+03  0.22883964157E+03  0.93294266428E+02 0.  0.
          2    1    3    3  502    0  0.25228516068E+02 -0.25354961231E+02 -0.17792677105E+03  0.18148632989E+03  0.00000000000E+00 0. -1.
         -2    1    3    3    0  502 -0.25228516068E+02  0.25354961231E+02 -0.31031984230E+02  0.47353311682E+02  0.00000000000E+00 0.  1.
<mgrwt>
<rscale>  0 0.93294266E+02</rscale>
<asrwt>0</asrwt>
<pdfrwt beam="2">  1        1 0.33676797E-01 0.93294266E+02</pdfrwt>
<pdfrwt beam="1">  1       -1 0.15292991E-02 0.93294266E+02</pdfrwt>
<totfact> 0.11330707E+05</totfact>
</mgrwt>
</event>
<event>
 5    1  0.3963873E+001  0.9187027E+02  0.7546771E-02  0.1298385E+00
          2   -1    0    0  501    0  0.00000000000E+00  0.00000000000E+00  0.87297416745E+03  0.87297416745E+03  0.00000000000E+00 0. -1.
         -2   -1    0    0    0  501 -0.00000000000E+00 -0.00000000000E+00 -0.24170664122E+01  0.24170664122E+01  0.00000000000E+00 0.  1.
         23    2    1    2    0    0  0.00000000000E+00  0.00000000000E+00  0.87055710104E+03  0.87539123386E+03  0.91870268071E+02 0.  0.
          2    1    3    3  502    0 -0.33854639670E+01 -0.26530906313E+02  0.79112731219E+03  0.79157929132E+03  0.00000000000E+00 0. -1.
         -2    1    3    3    0  502  0.33854639670E+01  0.26530906313E+02  0.79429788850E+02  0.83811942543E+02  0.00000000000E+00 0.  1.
<mgrwt>
<rscale>  0 0.91870268E+02</rscale>
<asrwt>0</asrwt>
<pdfrwt beam="1">  1        2 0.13430347E+00 0.91870268E+02</pdfrwt>
<pdfrwt beam="2">  1       -2 0.37185707E-03 0.91870268E+02</pdfrwt>
<totfact> 0.24214261E+05</totfact>
</mgrwt>
</event>
<event>
 5    1  0.3963873E+001  0.8745218E+02  0.7546771E-02  0.1309142E+00
          2   -1    0    0  501    0  0.00000000000E+00  0.00000000000E+00  0.31212192187E+03  0.31212192187E+03  0.00000000000E+00 0.  1.
         -2   -1    0    0    0  501 -0.00000000000E+00 -0.00000000000E+00 -0.61257175513E+01  0.61257175513E+01  0.00000000000E+00 0. -1.
         23    2    1    2    0    0  0.00000000000E+00  0.00000000000E+00  0.30599620432E+03  0.31824763942E+03  0.87452175157E+02 0.  0.
          2    1    3    3  502    0 -0.29588889831E+02 -0.24326909501E+02  0.22973661814E+03  0.23290816783E+03  0.00000000000E+00 0. -1.
         -2    1    3    3    0  502  0.29588889831E+02  0.24326909501E+02  0.76259586174E+02  0.85339471587E+02  0.00000000000E+00 0.  1.
<mgrwt>
<rscale>  0 0.87452175E+02</rscale>
<asrwt>0</asrwt>
<pdfrwt beam="1">  1        2 0.48018745E-01 0.87452175E+02</pdfrwt>
<pdfrwt beam="2">  1       -2 0.94241833E-03 0.87452175E+02</pdfrwt>
<totfact> 0.20370801E+05</totfact>
</mgrwt>
</event>
<event>
 5    1  0.3963873E+001  0.9157961E+02  0.7546771E-02  0.1299071E+00
          2   -1    0    0  501    0  0.00000000000E+00  0.00000000000E+00  0.17451936345E+04  0.17451936345E+04  0.00000000000E+00 0. -1.
         -2   -1    0    0    0  501 -0.00000000000E+00 -0.00000000000E+00 -0.12014174917E+01  0.12014174917E+01  0.00000000000E+00 0.  1.
         23    2    1    2    0    0  0.00000000000E+00  0.00000000000E+00  0.17439922170E+04  0.17463950520E+04  0.91579608187E+02 0.  0.
          2    1    3    3  502    0  0.21775398533E+02  0.30173775174E+02  0.13808681063E+04  0.13813693756E+04  0.00000000000E+00 0. -1.
         -2    1    3    3    0  502 -0.21775398533E+02 -0.30173775174E+02  0.36312411065E+03  0.36502567639E+03  0.00000000000E+00 0.  1.
<mgrwt>
<rscale>  0 0.91579608E+02</rscale>
<asrwt>0</asrwt>
<pdfrwt beam="1">  1        2 0.26848930E+00 0.91579608E+02</pdfrwt>
<pdfrwt beam="2">  1       -2 0.18483486E-03 0.91579608E+02</pdfrwt>
<totfact> 0.21624312E+05</totfact>
</mgrwt>
</event>
<event>
 5    1  0.3963873E+001  0.9196915E+02  0.7546771E-02  0.1298152E+00
         -3   -1    0    0    0  501 -0.00000000000E+00  0.00000000000E+00  0.13207825029E+03  0.13207825029E+03  0.00000000000E+00 0.  1.
          3   -1    0    0  501    0  0.00000000000E+00 -0.00000000000E+00 -0.16010064509E+02  0.16010064509E+02  0.00000000000E+00 0. -1.
         23    2    1    2    0    0  0.00000000000E+00  0.00000000000E+00  0.11606818578E+03  0.14808831480E+03  0.91969153684E+02 0.  0.
          2    1    3    3  502    0  0.98215598680E+01  0.43205914942E+02  0.38223637202E+02  0.58517181795E+02  0.00000000000E+00 0. -1.
         -2    1    3    3    0  502 -0.98215598680E+01 -0.43205914942E+02  0.77844548576E+02  0.89571133002E+02  0.00000000000E+00 0.  1.
<mgrwt>
<rscale>  0 0.91969154E+02</rscale>
<asrwt>0</asrwt>
<pdfrwt beam="2">  1        3 0.24630869E-02 0.91969154E+02</pdfrwt>
<pdfrwt beam="1">  1       -3 0.20319730E-01 0.91969154E+02</pdfrwt>
<totfact> 0.30696125E+04</totfact>
</mgrwt>
</event>
<event>
 5    1  0.3963873E+001  0.8976346E+02  0.7546771E-02  0.1303426E+00
         -2   -1    0    0    0  501 -0.00000000000E+00  0.00000000000E+00  0.31841606526E+01  0.31841606526E+01  0.00000000000E+00 0.  1.
          2   -1    0    0  501    0  0.00000000000E+00 -0.00000000000E+00 -0.63262184052E+03  0.63262184052E+03  0.00000000000E+00 0. -1.
         23    2    1    2    0    0  0.00000000000E+00  0.00000000000E+00 -0.62943767987E+03  0.63580600117E+03  0.89763457432E+02 0.  0.
          2    1    3    3  502    0  0.52652121502E+00  0.43189174195E+02 -0.40111777534E+03  0.40343655225E+03  0.00000000000E+00 0. -1.
         -2    1    3    3    0  502 -0.52652121502E+00 -0.43189174195E+02 -0.22831990452E+03  0.23236944893E+03  0.00000000000E+00 0.  1.
<mgrwt>
<rscale>  0 0.89763457E+02</rscale>
<asrwt>0</asrwt>
<pdfrwt beam="2">  1        2 0.97326488E-01 0.89763457E+02</pdfrwt>
<pdfrwt beam="1">  1       -2 0.48987061E-03 0.89763457E+02</pdfrwt>
<totfact> 0.24092397E+05</totfact>
</mgrwt>
</event>
<event>
 5    1  0.3963873E+001  0.9000149E+02  0.7546771E-02  0.1302848E+00
          2   -1    0    0  501    0  0.00000000000E+00  0.00000000000E+00  0.46694419921E+03  0.46694419921E+03  0.00000000000E+00 0. -1.
         -2   -1    0    0    0  501 -0.00000000000E+00 -0.00000000000E+00 -0.43368504502E+01  0.43368504502E+01  0.00000000000E+00 0.  1.
         23    2    1    2    0    0  0.00000000000E+00  0.00000000000E+00  0.46260734876E+03  0.47128104966E+03  0.90001492445E+02 0.  0.
          2    1    3    3  502    0 -0.20331730023E+02 -0.84741953376E+01  0.43678536528E+03  0.43734042411E+03  0.00000000000E+00 0. -1.
         -2    1    3    3    0  502  0.20331730023E+02  0.84741953376E+01  0.25821983479E+02  0.33940625556E+02  0.00000000000E+00 0.  1.
<mgrwt>
<rscale>  0 0.90001492E+02</rscale>
<asrwt>0</asrwt>
<pdfrwt beam="1">  1        2 0.71837529E-01 0.90001492E+02</pdfrwt>
<pdfrwt beam="2">  1       -2 0.66720813E-03 0.90001492E+02</pdfrwt>
<totfact> 0.21802953E+05</totfact>
</mgrwt>
</event>
<event>
 5    1  0.3963873E+001  0.8500835E+02  0.7546771E-02  0.1315411E+00
         -1   -1    0    0    0  501 -0.00000000000E+00  0.00000000000E+00  0.73172820308E+01  0.73172820308E+01  0.00000000000E+00 0.  1.
          1   -1    0    0  501    0  0.00000000000E+00 -0.00000000000E+00 -0.24689563704E+03  0.24689563704E+03  0.00000000000E+00 0. -1.
         23    2    1    2    0    0  0.00000000000E+00  0.00000000000E+00 -0.23957835501E+03  0.25421291907E+03  0.85008352729E+02 0.  0.
          2    1    3    3  502    0  0.34449240491E+02  0.16174476293E+02 -0.17639013200E+03  0.18044900255E+03  0.00000000000E+00 0. -1.
         -2    1    3    3    0  502 -0.34449240491E+02 -0.16174476293E+02 -0.63188223015E+02  0.73763916528E+02  0.00000000000E+00 0.  1.
<mgrwt>
<rscale>  0 0.85008353E+02</rscale>
<asrwt>0</asrwt>
<pdfrwt beam="2">  1        1 0.37983940E-01 0.85008353E+02</pdfrwt>
<pdfrwt beam="1">  1       -1 0.11257358E-02 0.85008353E+02</pdfrwt>
<totfact> 0.14864614E+05</totfact>
</mgrwt>
</event>
<event>
 5    1  0.3963873E+001  0.8993616E+02  0.7546771E-02  0.1303006E+00
         -1   -1    0    0    0  501 -0.00000000000E+00  0.00000000000E+00  0.28160220311E+02  0.28160220311E+02  0.00000000000E+00 0.  1.
          1   -1    0    0  501    0  0.00000000000E+00 -0.00000000000E+00 -0.71807971870E+02  0.71807971870E+02  0.00000000000E+00 0. -1.
         23    2    1    2    0    0  0.00000000000E+00  0.00000000000E+00 -0.43647751558E+02  0.99968192181E+02  0.89936161981E+02 0.  0.
          2    1    3    3  502    0  0.21205979509E+02  0.25623209518E+02  0.11815518636E+02  0.35296585013E+02  0.00000000000E+00 0.  1.
         -2    1    3    3    0  502 -0.21205979509E+02 -0.25623209518E+02 -0.55463270195E+02  0.64671607168E+02  0.00000000000E+00 0. -1.
<mgrwt>
<rscale>  0 0.89936162E+02</rscale>
<asrwt>0</asrwt>
<pdfrwt beam="2">  1        1 0.11047380E-01 0.89936162E+02</pdfrwt>
<pdfrwt beam="1">  1       -1 0.43323416E-02 0.89936162E+02</pdfrwt>
<totfact> 0.10286109E+05</totfact>
</mgrwt>
</event>
<event>
 5    1  0.3963873E+001  0.9052955E+02  0.7546771E-02  0.1301574E+00
          2   -1    0    0  501    0  0.00000000000E+00  0.00000000000E+00  0.21457384566E+03  0.21457384566E+03  0.00000000000E+00 0. -1.
         -2   -1    0    0    0  501 -0.00000000000E+00 -0.00000000000E+00 -0.95486941071E+01  0.95486941071E+01  0.00000000000E+00 0.  1.
         23    2    1    2    0    0  0.00000000000E+00  0.00000000000E+00  0.20502515156E+03  0.22412253977E+03  0.90529553531E+02 0.  0.
          2    1    3    3  502    0  0.33210102445E+02 -0.13326795138E+02  0.17113795817E+03  0.17483911204E+03  0.00000000000E+00 0. -1.
         -2    1    3    3    0  502 -0.33210102445E+02  0.13326795138E+02  0.33887193385E+02  0.49283427727E+02  0.00000000000E+00 0.  1.
<mgrwt>
<rscale>  0 0.90529554E+02</rscale>
<asrwt>0</asrwt>
<pdfrwt beam="1">  1        2 0.33011357E-01 0.90529554E+02</pdfrwt>
<pdfrwt beam="2">  1       -2 0.14690300E-02 0.90529554E+02</pdfrwt>
<totfact> 0.16174977E+05</totfact>
</mgrwt>
</event>
<event>
 5    1  0.3963873E+001  0.8907638E+02  0.7546771E-02  0.1305104E+00
         -1   -1    0    0    0  501 -0.00000000000E+00  0.00000000000E+00  0.34396227456E+02  0.34396227456E+02  0.00000000000E+00 0.  1.
          1   -1    0    0  501    0  0.00000000000E+00 -0.00000000000E+00 -0.57670580659E+02  0.57670580659E+02  0.00000000000E+00 0. -1.
         23    2    1    2    0    0  0.00000000000E+00  0.00000000000E+00 -0.23274353203E+02  0.92066808116E+02  0.89076380930E+02 0.  0.
          2    1    3    3  502    0  0.63352878873E+01  0.43677270186E+02 -0.17822271400E+02  0.47596986894E+02  0.00000000000E+00 0. -1.
         -2    1    3    3    0  502 -0.63352878873E+01 -0.43677270186E+02 -0.54520818031E+01  0.44469821222E+02  0.00000000000E+00 0.  1.
<mgrwt>
<rscale>  0 0.89076381E+02</rscale>
<asrwt>0</asrwt>
<pdfrwt beam="2">  1        1 0.88723970E-02 0.89076381E+02</pdfrwt>
<pdfrwt beam="1">  1       -1 0.52917273E-02 0.89076381E+02</pdfrwt>
<totfact> 0.10218723E+05</totfact>
</mgrwt>
</event>
<event>
 5    1  0.3963873E+001  0.9095550E+02  0.7546771E-02  0.1300554E+00
         -2   -1    0    0    0  501 -0.00000000000E+00  0.00000000000E+00  0.12502721944E+02  0.12502721944E+02  0.00000000000E+00 0. -1.
          2   -1    0    0  501    0  0.00000000000E+00 -0.00000000000E+00 -0.16542202182E+03  0.16542202182E+03  0.00000000000E+00 0.  1.
         23    2    1    2    0    0  0.00000000000E+00  0.00000000000E+00 -0.15291929988E+03  0.17792474376E+03  0.90955495538E+02 0.  0.
          2    1    3    3  502    0 -0.32544985139E+02  0.20782062070E+02 -0.29464419971E+02  0.48571825227E+02  0.00000000000E+00 0. -1.
         -2    1    3    3    0  502  0.32544985139E+02 -0.20782062070E+02 -0.12345487990E+03  0.12935291854E+03  0.00000000000E+00 0.  1.
<mgrwt>
<rscale>  0 0.90955496E+02</rscale>
<asrwt>0</asrwt>
<pdfrwt beam="2">  1        2 0.25449542E-01 0.90955496E+02</pdfrwt>
<pdfrwt beam="1">  1       -2 0.19234957E-02 0.90955496E+02</pdfrwt>
<totfact> 0.14555006E+05</totfact>
</mgrwt>
</event>
<event>
 5    1  0.3963873E+001  0.9231563E+02  0.7546771E-02  0.1297339E+00
          2   -1    0    0  501    0  0.00000000000E+00  0.00000000000E+00  0.90712863726E+03  0.90712863726E+03  0.00000000000E+00 0. -1.
         -2   -1    0    0    0  501 -0.00000000000E+00 -0.00000000000E+00 -0.23486678516E+01  0.23486678516E+01  0.00000000000E+00 0.  1.
         23    2    1    2    0    0  0.00000000000E+00  0.00000000000E+00  0.90477996941E+03  0.90947730511E+03  0.92315629610E+02 0.  0.
          2    1    3    3  502    0  0.33955445969E+02 -0.17614251928E+02  0.70688562356E+03  0.70791985350E+03  0.00000000000E+00 0. -1.
         -2    1    3    3    0  502 -0.33955445969E+02  0.17614251928E+02  0.19789434585E+03  0.20155745162E+03  0.00000000000E+00 0.  1.
<mgrwt>
<rscale>  0 0.92315630E+02</rscale>
<asrwt>0</asrwt>
<pdfrwt beam="1">  1        2 0.13955797E+00 0.92315630E+02</pdfrwt>
<pdfrwt beam="2">  1       -2 0.36133424E-03 0.92315630E+02</pdfrwt>
<totfact> 0.24016986E+05</totfact>
</mgrwt>
</event>
<event>
 5    1  0.3963873E+001  0.8798467E+02  0.7546771E-02  0.1307807E+00
          1   -1    0    0  501    0  0.00000000000E+00  0.00000000000E+00  0.16860160817E+01  0.16860160817E+01  0.00000000000E+00 0. -1.
         -1   -1    0    0    0  501 -0.00000000000E+00 -0.00000000000E+00 -0.11478689619E+04  0.11478689619E+04  0.00000000000E+00 0.  1.
         23    2    1    2    0    0  0.00000000000E+00  0.00000000000E+00 -0.11461829458E+04  0.11495549780E+04  0.87984669790E+02 0.  0.
          2    1    3    3  502    0 -0.50182323248E+01 -0.28833786439E+02 -0.10022169273E+04  0.10026441738E+04  0.00000000000E+00 0.  1.
         -2    1    3    3    0  502  0.50182323248E+01  0.28833786439E+02 -0.14396601850E+03  0.14691080416E+03  0.00000000000E+00 0. -1.
<mgrwt>
<rscale>  0 0.87984670E+02</rscale>
<asrwt>0</asrwt>
<pdfrwt beam="1">  1        1 0.25938681E-03 0.87984670E+02</pdfrwt>
<pdfrwt beam="2">  1       -1 0.17659542E+00 0.87984670E+02</pdfrwt>
<totfact> 0.23527640E+04</totfact>
</mgrwt>
</event>
<event>
 5    1  0.3963873E+001  0.9044351E+02  0.7546771E-02  0.1301781E+00
          1   -1    0    0  501    0  0.00000000000E+00  0.00000000000E+00  0.88503148010E+01  0.88503148010E+01  0.00000000000E+00 0. -1.
         -1   -1    0    0    0  501 -0.00000000000E+00 -0.00000000000E+00 -0.23106602748E+03  0.23106602748E+03  0.00000000000E+00 0.  1.
         23    2    1    2    0    0  0.00000000000E+00  0.00000000000E+00 -0.22221571268E+03  0.23991634228E+03  0.90443509065E+02 0.  0.
          2    1    3    3  502    0  0.41842930890E+02  0.69430280803E+01 -0.15271079506E+03  0.15849171408E+03  0.00000000000E+00 0. -1.
         -2    1    3    3    0  502 -0.41842930890E+02 -0.69430280803E+01 -0.69504917619E+02  0.81424628201E+02  0.00000000000E+00 0.  1.
<mgrwt>
<rscale>  0 0.90443509E+02</rscale>
<asrwt>0</asrwt>
<pdfrwt beam="1">  1        1 0.13615869E-02 0.90443509E+02</pdfrwt>
<pdfrwt beam="2">  1       -1 0.35548618E-01 0.90443509E+02</pdfrwt>
<totfact> 0.67877474E+04</totfact>
</mgrwt>
</event>
<event>
 5    1  0.3963873E+001  0.9486609E+02  0.7546771E-02  0.1291478E+00
         -2   -1    0    0    0  501 -0.00000000000E+00  0.00000000000E+00  0.11832566697E+01  0.11832566697E+01  0.00000000000E+00 0.  1.
          2   -1    0    0  501    0  0.00000000000E+00 -0.00000000000E+00 -0.19014417468E+04  0.19014417468E+04  0.00000000000E+00 0. -1.
         23    2    1    2    0    0  0.00000000000E+00  0.00000000000E+00 -0.19002584901E+04  0.19026250034E+04  0.94866087279E+02 0.  0.
          2    1    3    3  502    0  0.23926365004E+02 -0.20985278802E+02 -0.16555272321E+04  0.16558331042E+04  0.00000000000E+00 0. -1.
         -2    1    3    3    0  502 -0.23926365004E+02  0.20985278802E+02 -0.24473125799E+03  0.24679189919E+03  0.00000000000E+00 0.  1.
<mgrwt>
<rscale>  0 0.94866087E+02</rscale>
<asrwt>0</asrwt>
<pdfrwt beam="2">  1        2 0.29253132E+00 0.94866087E+02</pdfrwt>
<pdfrwt beam="1">  1       -2 0.18203836E-03 0.94866087E+02</pdfrwt>
<totfact> 0.18518549E+05</totfact>
</mgrwt>
</event>
<event>
 5    1  0.3963873E+001  0.9028723E+02  0.7546771E-02  0.1302158E+00
         -1   -1    0    0    0  501 -0.00000000000E+00  0.00000000000E+00  0.16339773596E+02  0.16339773596E+02  0.00000000000E+00 0.  1.
          1   -1    0    0  501    0  0.00000000000E+00 -0.00000000000E+00 -0.12472301305E+03  0.12472301305E+03  0.00000000000E+00 0. -1.
         23    2    1    2    0    0  0.00000000000E+00  0.00000000000E+00 -0.10838323946E+03  0.14106278665E+03  0.90287226018E+02 0.  0.
          2    1    3    3  502    0  0.66786485247E+01  0.29593995677E+02 -0.10642126533E+03  0.11066117043E+03  0.00000000000E+00 0. -1.
         -2    1    3    3    0  502 -0.66786485247E+01 -0.29593995677E+02 -0.19619741260E+01  0.30401616219E+02  0.00000000000E+00 0.  1.
<mgrwt>
<rscale>  0 0.90287226E+02</rscale>
<asrwt>0</asrwt>
<pdfrwt beam="2">  1        1 0.19188156E-01 0.90287226E+02</pdfrwt>
<pdfrwt beam="1">  1       -1 0.25138113E-02 0.90287226E+02</pdfrwt>
<totfact> 0.11138549E+05</totfact>
</mgrwt>
</event>
<event>
 5    1  0.3963873E+001  0.9217390E+02  0.7546771E-02  0.1297671E+00
         -1   -1    0    0    0  501 -0.00000000000E+00  0.00000000000E+00  0.15719914557E+02  0.15719914557E+02  0.00000000000E+00 0.  1.
          1   -1    0    0  501    0  0.00000000000E+00 -0.00000000000E+00 -0.13511567255E+03  0.13511567255E+03  0.00000000000E+00 0. -1.
         23    2    1    2    0    0  0.00000000000E+00  0.00000000000E+00 -0.11939575800E+03  0.15083558711E+03  0.92173897125E+02 0.  0.
          2    1    3    3  502    0 -0.15377604329E+02  0.31871997067E+02 -0.10801292078E+03  0.11366215715E+03  0.00000000000E+00 0. -1.
         -2    1    3    3    0  502  0.15377604329E+02 -0.31871997067E+02 -0.11382837214E+02  0.37173429960E+02  0.00000000000E+00 0.  1.
<mgrwt>
<rscale>  0 0.92173897E+02</rscale>
<asrwt>0</asrwt>
<pdfrwt beam="2">  1        1 0.20787026E-01 0.92173897E+02</pdfrwt>
<pdfrwt beam="1">  1       -1 0.24184485E-02 0.92173897E+02</pdfrwt>
<totfact> 0.10682975E+05</totfact>
</mgrwt>
</event>
<event>
 5    1  0.3963873E+001  0.9357066E+02  0.7546771E-02  0.1294428E+00
         -1   -1    0    0    0  501 -0.00000000000E+00  0.00000000000E+00  0.30152865419E+02  0.30152865419E+02  0.00000000000E+00 0.  1.
          1   -1    0    0  501    0  0.00000000000E+00 -0.00000000000E+00 -0.72592335699E+02  0.72592335699E+02  0.00000000000E+00 0. -1.
         23    2    1    2    0    0  0.00000000000E+00  0.00000000000E+00 -0.42439470280E+02  0.10274520112E+03  0.93570656273E+02 0.  0.
          2    1    3    3  502    0  0.13975028291E+02  0.41346537292E+02 -0.27141213546E+01  0.43728755030E+02  0.00000000000E+00 0. -1.
         -2    1    3    3    0  502 -0.13975028291E+02 -0.41346537292E+02 -0.39725348925E+02  0.59016446089E+02  0.00000000000E+00 0.  1.
<mgrwt>
<rscale>  0 0.93570656E+02</rscale>
<asrwt>0</asrwt>
<pdfrwt beam="2">  1        1 0.11168052E-01 0.93570656E+02</pdfrwt>
<pdfrwt beam="1">  1       -1 0.46389024E-02 0.93570656E+02</pdfrwt>
<totfact> 0.92369879E+04</totfact>
</mgrwt>
</event>
<event>
 5    1  0.3963873E+001  0.9010314E+02  0.7546771E-02  0.1302602E+00
         -2   -1    0    0    0  501 -0.00000000000E+00  0.00000000000E+00  0.17720624348E+03  0.17720624348E+03  0.00000000000E+00 0.  1.
          2   -1    0    0  501    0  0.00000000000E+00 -0.00000000000E+00 -0.11453568673E+02  0.11453568673E+02  0.00000000000E+00 0. -1.
         23    2    1    2    0    0  0.00000000000E+00  0.00000000000E+00  0.16575267481E+03  0.18865981215E+03  0.90103138214E+02 0.  0.
          2    1    3    3  502    0  0.29756822910E+02  0.25326226208E+02  0.35928151264E+02  0.53082184365E+02  0.00000000000E+00 0. -1.
         -2    1    3    3    0  502 -0.29756822910E+02 -0.25326226208E+02  0.12982452354E+03  0.13557762779E+03  0.00000000000E+00 0.  1.
<mgrwt>
<rscale>  0 0.90103138E+02</rscale>
<asrwt>0</asrwt>
<pdfrwt beam="2">  1        2 0.17620876E-02 0.90103138E+02</pdfrwt>
<pdfrwt beam="1">  1       -2 0.27262497E-01 0.90103138E+02</pdfrwt>
<totfact> 0.67550956E+04</totfact>
</mgrwt>
</event>
<event>
 5    1  0.3963873E+001  0.9039073E+02  0.7546771E-02  0.1301908E+00
          2   -1    0    0  501    0  0.00000000000E+00  0.00000000000E+00  0.15492475301E+03  0.15492475301E+03  0.00000000000E+00 0. -1.
         -2   -1    0    0    0  501 -0.00000000000E+00 -0.00000000000E+00 -0.13184599584E+02  0.13184599584E+02  0.00000000000E+00 0.  1.
         23    2    1    2    0    0  0.00000000000E+00  0.00000000000E+00  0.14174015343E+03  0.16810935260E+03  0.90390725943E+02 0.  0.
          2    1    3    3  502    0  0.80194572411E+01 -0.35345022413E+02  0.12108620698E+03  0.12639403397E+03  0.00000000000E+00 0. -1.
         -2    1    3    3    0  502 -0.80194572411E+01  0.35345022413E+02  0.20653946450E+02  0.41715318623E+02  0.00000000000E+00 0.  1.
<mgrwt>
<rscale>  0 0.90390726E+02</rscale>
<asrwt>0</asrwt>
<pdfrwt beam="1">  1        2 0.23834576E-01 0.90390726E+02</pdfrwt>
<pdfrwt beam="2">  1       -2 0.20284000E-02 0.90390726E+02</pdfrwt>
<totfact> 0.14471498E+05</totfact>
</mgrwt>
</event>
<event>
 5    1  0.3963873E+001  0.9147828E+02  0.7546771E-02  0.1299311E+00
          2   -1    0    0  501    0  0.00000000000E+00  0.00000000000E+00  0.88694897899E+03  0.88694897899E+03  0.00000000000E+00 0. -1.
         -2   -1    0    0    0  501 -0.00000000000E+00 -0.00000000000E+00 -0.23587250344E+01  0.23587250344E+01  0.00000000000E+00 0.  1.
         23    2    1    2    0    0  0.00000000000E+00  0.00000000000E+00  0.88459025396E+03  0.88930770403E+03  0.91478276350E+02 0.  0.
          2    1    3    3  502    0  0.27361245901E+02  0.21223760670E+02  0.15178875066E+03  0.15568850510E+03  0.00000000000E+00 0.  1.
         -2    1    3    3    0  502 -0.27361245901E+02 -0.21223760670E+02  0.73280150330E+03  0.73361919892E+03  0.00000000000E+00 0. -1.
<mgrwt>
<rscale>  0 0.91478276E+02</rscale>
<asrwt>0</asrwt>
<pdfrwt beam="1">  1        2 0.13645342E+00 0.91478276E+02</pdfrwt>
<pdfrwt beam="2">  1       -2 0.36288148E-03 0.91478276E+02</pdfrwt>
<totfact> 0.24537611E+05</totfact>
</mgrwt>
</event>
<event>
 5    1  0.3963873E+001  0.9451425E+02  0.7546771E-02  0.1292274E+00
          3   -1    0    0  501    0  0.00000000000E+00  0.00000000000E+00  0.13801937723E+03  0.13801937723E+03  0.00000000000E+00 0. -1.
         -3   -1    0    0    0  501 -0.00000000000E+00 -0.00000000000E+00 -0.16180598198E+02  0.16180598198E+02  0.00000000000E+00 0.  1.
         23    2    1    2    0    0  0.00000000000E+00  0.00000000000E+00  0.12183877903E+03  0.15419997543E+03  0.94514254723E+02 0.  0.
          2    1    3    3  502    0 -0.13607181244E+02 -0.27283782640E+02  0.20117242128E+01  0.30554986677E+02  0.00000000000E+00 0.  1.
         -2    1    3    3    0  502  0.13607181244E+02  0.27283782640E+02  0.11982705482E+03  0.12364498875E+03  0.00000000000E+00 0. -1.
<mgrwt>
<rscale>  0 0.94514255E+02</rscale>
<asrwt>0</asrwt>
<pdfrwt beam="1">  1        3 0.21233750E-01 0.94514255E+02</pdfrwt>
<pdfrwt beam="2">  1       -3 0.24893229E-02 0.94514255E+02</pdfrwt>
<totfact> 0.28162740E+04</totfact>
</mgrwt>
</event>
<event>
 5    1  0.3963873E+001  0.9053680E+02  0.7546771E-02  0.1301557E+00
         -2   -1    0    0    0  501 -0.00000000000E+00  0.00000000000E+00  0.47544885114E+03  0.47544885114E+03  0.00000000000E+00 0.  1.
          2   -1    0    0  501    0  0.00000000000E+00 -0.00000000000E+00 -0.43100917271E+01  0.43100917271E+01  0.00000000000E+00 0. -1.
         23    2    1    2    0    0  0.00000000000E+00  0.00000000000E+00  0.47113875941E+03  0.47975894287E+03  0.90536802682E+02 0.  0.
          2    1    3    3  502    0  0.71975437265E+01 -0.34069147724E+02  0.82288796708E+02  0.89352993940E+02  0.00000000000E+00 0. -1.
         -2    1    3    3    0  502 -0.71975437265E+01  0.34069147724E+02  0.38884996270E+03  0.39040594893E+03  0.00000000000E+00 0.  1.
<mgrwt>
<rscale>  0 0.90536803E+02</rscale>
<asrwt>0</asrwt>
<pdfrwt beam="2">  1        2 0.66309141E-03 0.90536803E+02</pdfrwt>
<pdfrwt beam="1">  1       -2 0.73145935E-01 0.90536803E+02</pdfrwt>
<totfact> 0.38426257E+04</totfact>
</mgrwt>
</event>
<event>
 5    1  0.3963873E+001  0.9281183E+02  0.7546771E-02  0.1296182E+00
         -1   -1    0    0    0  501 -0.00000000000E+00  0.00000000000E+00  0.25969665938E+01  0.25969665938E+01  0.00000000000E+00 0.  1.
          1   -1    0    0  501    0  0.00000000000E+00 -0.00000000000E+00 -0.82924017288E+03  0.82924017288E+03  0.00000000000E+00 0. -1.
         23    2    1    2    0    0  0.00000000000E+00  0.00000000000E+00 -0.82664320629E+03  0.83183713947E+03  0.92811831728E+02 0.  0.
          2    1    3    3  502    0 -0.32442801881E+02 -0.32863785444E+02 -0.37230330580E+03  0.37515638779E+03  0.00000000000E+00 0. -1.
         -2    1    3    3    0  502  0.32442801881E+02  0.32863785444E+02 -0.45433990049E+03  0.45668075169E+03  0.00000000000E+00 0.  1.
<mgrwt>
<rscale>  0 0.92811832E+02</rscale>
<asrwt>0</asrwt>
<pdfrwt beam="2">  1        1 0.12757552E+00 0.92811832E+02</pdfrwt>
<pdfrwt beam="1">  1       -1 0.39953299E-03 0.92811832E+02</pdfrwt>
<totfact> 0.13432812E+05</totfact>
</mgrwt>
</event>
<event>
 5    1  0.3963873E+001  0.9243773E+02  0.7546771E-02  0.1297053E+00
         -2   -1    0    0    0  501 -0.00000000000E+00  0.00000000000E+00  0.61653582803E+02  0.61653582803E+02  0.00000000000E+00 0.  1.
          2   -1    0    0  501    0  0.00000000000E+00 -0.00000000000E+00 -0.34648164536E+02  0.34648164536E+02  0.00000000000E+00 0. -1.
         23    2    1    2    0    0  0.00000000000E+00  0.00000000000E+00  0.27005418267E+02  0.96301747339E+02  0.92437729985E+02 0.  0.
          2    1    3    3  502    0  0.76468125910E+01  0.38202703025E+02 -0.12401575359E+02  0.40886664484E+02  0.00000000000E+00 0. -1.
         -2    1    3    3    0  502 -0.76468125910E+01 -0.38202703025E+02  0.39406993626E+02  0.55415082855E+02  0.00000000000E+00 0.  1.
<mgrwt>
<rscale>  0 0.92437730E+02</rscale>
<asrwt>0</asrwt>
<pdfrwt beam="2">  1        2 0.53304868E-02 0.92437730E+02</pdfrwt>
<pdfrwt beam="1">  1       -2 0.94851666E-02 0.92437730E+02</pdfrwt>
<totfact> 0.88260362E+04</totfact>
</mgrwt>
</event>
<event>
 5    1  0.3963873E+001  0.9100152E+02  0.7546771E-02  0.1300444E+00
          1   -1    0    0  501    0  0.00000000000E+00  0.00000000000E+00  0.44715699818E+01  0.44715699818E+01  0.00000000000E+00 0. -1.
         -1   -1    0    0    0  501 -0.00000000000E+00 -0.00000000000E+00 -0.46299598986E+03  0.46299598986E+03  0.00000000000E+00 0.  1.
         23    2    1    2    0    0  0.00000000000E+00  0.00000000000E+00 -0.45852441988E+03  0.46746755984E+03  0.91001515810E+02 0.  0.
          2    1    3    3  502    0  0.11677080062E+02  0.43513727557E+02 -0.26196155836E+03  0.26580755584E+03  0.00000000000E+00 0. -1.
         -2    1    3    3    0  502 -0.11677080062E+02 -0.43513727557E+02 -0.19656286152E+03  0.20166000400E+03  0.00000000000E+00 0.  1.
<mgrwt>
<rscale>  0 0.91001516E+02</rscale>
<asrwt>0</asrwt>
<pdfrwt beam="1">  1        1 0.68793408E-03 0.91001516E+02</pdfrwt>
<pdfrwt beam="2">  1       -1 0.71230128E-01 0.91001516E+02</pdfrwt>
<totfact> 0.49497026E+04</totfact>
</mgrwt>
</event>
<event>
 5    1  0.3963873E+001  0.9243265E+02  0.7546771E-02  0.1297065E+00
         -2   -1    0    0    0  501 -0.00000000000E+00  0.00000000000E+00  0.10188335943E+02  0.10188335943E+02  0.00000000000E+00 0. -1.
          2   -1    0    0  501    0  0.00000000000E+00 -0.00000000000E+00 -0.20964648245E+03  0.20964648245E+03  0.00000000000E+00 0.  1.
         23    2    1    2    0    0  0.00000000000E+00  0.00000000000E+00 -0.19945814650E+03  0.21983481839E+03  0.92432652078E+02 0.  0.
          2    1    3    3  502    0 -0.32138357263E+02  0.13409496899E+01 -0.20803221328E+02  0.38307260033E+02  0.00000000000E+00 0. -1.
         -2    1    3    3    0  502  0.32138357263E+02 -0.13409496899E+01 -0.17865492518E+03  0.18152755836E+03  0.00000000000E+00 0.  1.
<mgrwt>
<rscale>  0 0.92432652E+02</rscale>
<asrwt>0</asrwt>
<pdfrwt beam="2">  1        2 0.32253306E-01 0.92432652E+02</pdfrwt>
<pdfrwt beam="1">  1       -2 0.15674362E-02 0.92432652E+02</pdfrwt>
<totfact> 0.15165433E+05</totfact>
</mgrwt>
</event>
<event>
 5    1  0.3963873E+001  0.9138842E+02  0.7546771E-02  0.1299524E+00
         -2   -1    0    0    0  501 -0.00000000000E+00  0.00000000000E+00  0.24363347591E+01  0.24363347591E+01  0.00000000000E+00 0.  1.
          2   -1    0    0  501    0  0.00000000000E+00 -0.00000000000E+00 -0.85700901376E+03  0.85700901376E+03  0.00000000000E+00 0. -1.
         23    2    1    2    0    0  0.00000000000E+00  0.00000000000E+00 -0.85457267900E+03  0.85944534852E+03  0.91388420472E+02 0.  0.
          2    1    3    3  502    0 -0.16650965821E+02  0.42500455067E+02 -0.44705219607E+03  0.44937646729E+03  0.00000000000E+00 0. -1.
         -2    1    3    3    0  502  0.16650965821E+02 -0.42500455067E+02 -0.40752048292E+03  0.41006888122E+03  0.00000000000E+00 0.  1.
<mgrwt>
<rscale>  0 0.91388420E+02</rscale>
<asrwt>0</asrwt>
<pdfrwt beam="2">  1        2 0.13184750E+00 0.91388420E+02</pdfrwt>
<pdfrwt beam="1">  1       -2 0.37482085E-03 0.91388420E+02</pdfrwt>
<totfact> 0.24491018E+05</totfact>
</mgrwt>
</event>
<event>
 5    1  0.3963873E+001  0.9832798E+02  0.7546771E-02  0.1283852E+00
          1   -1    0    0  501    0  0.00000000000E+00  0.00000000000E+00  0.23824543493E+03  0.23824543493E+03  0.00000000000E+00 0. -1.
         -1   -1    0    0    0  501 -0.00000000000E+00 -0.00000000000E+00 -0.10145411958E+02  0.10145411958E+02  0.00000000000E+00 0.  1.
         23    2    1    2    0    0  0.00000000000E+00  0.00000000000E+00  0.22810002297E+03  0.24839084688E+03  0.98327983493E+02 0.  0.
          2    1    3    3  502    0  0.21907149993E+02  0.16689085752E+02  0.21693114434E+03  0.21867228948E+03  0.00000000000E+00 0. -1.
         -2    1    3    3    0  502 -0.21907149993E+02 -0.16689085752E+02  0.11168878628E+02  0.29718557399E+02  0.00000000000E+00 0.  1.
<mgrwt>
<rscale>  0 0.98327983E+02</rscale>
<asrwt>0</asrwt>
<pdfrwt beam="1">  1        1 0.36653140E-01 0.98327983E+02</pdfrwt>
<pdfrwt beam="2">  1       -1 0.15608328E-02 0.98327983E+02</pdfrwt>
<totfact> 0.10002382E+05</totfact>
</mgrwt>
</event>
<event>
 5    1  0.3963873E+001  0.8001367E+02  0.7546771E-02  0.1329013E+00
         -1   -1    0    0    0  501 -0.00000000000E+00  0.00000000000E+00  0.48517682999E+01  0.48517682999E+01  0.00000000000E+00 0.  1.
          1   -1    0    0  501    0  0.00000000000E+00 -0.00000000000E+00 -0.32988939096E+03  0.32988939096E+03  0.00000000000E+00 0. -1.
         23    2    1    2    0    0  0.00000000000E+00  0.00000000000E+00 -0.32503762266E+03  0.33474115926E+03  0.80013671070E+02 0.  0.
          2    1    3    3  502    0  0.18763871557E+02 -0.95635479187E+01 -0.30482116395E+03  0.30554784620E+03  0.00000000000E+00 0. -1.
         -2    1    3    3    0  502 -0.18763871557E+02  0.95635479187E+01 -0.20216458702E+02  0.29193313053E+02  0.00000000000E+00 0.  1.
<mgrwt>
<rscale>  0 0.80013671E+02</rscale>
<asrwt>0</asrwt>
<pdfrwt beam="2">  1        1 0.50752206E-01 0.80013671E+02</pdfrwt>
<pdfrwt beam="1">  1       -1 0.74642601E-03 0.80013671E+02</pdfrwt>
<totfact> 0.18418260E+05</totfact>
</mgrwt>
</event>
<event>
 5    1  0.3963873E+001  0.9420727E+02  0.7546771E-02  0.1292972E+00
         -2   -1    0    0    0  501 -0.00000000000E+00  0.00000000000E+00  0.54025999381E+02  0.54025999381E+02  0.00000000000E+00 0.  1.
          2   -1    0    0  501    0  0.00000000000E+00 -0.00000000000E+00 -0.41068235759E+02  0.41068235759E+02  0.00000000000E+00 0. -1.
         23    2    1    2    0    0  0.00000000000E+00  0.00000000000E+00  0.12957763622E+02  0.95094235139E+02  0.94207271050E+02 0.  0.
          2    1    3    3  502    0 -0.24953271950E+02  0.15003937839E+02 -0.30896317035E+02  0.42454285273E+02  0.00000000000E+00 0. -1.
         -2    1    3    3    0  502  0.24953271950E+02 -0.15003937839E+02  0.43854080657E+02  0.52639949866E+02  0.00000000000E+00 0.  1.
<mgrwt>
<rscale>  0 0.94207271E+02</rscale>
<asrwt>0</asrwt>
<pdfrwt beam="2">  1        2 0.63181901E-02 0.94207271E+02</pdfrwt>
<pdfrwt beam="1">  1       -2 0.83116922E-02 0.94207271E+02</pdfrwt>
<totfact> 0.87342251E+04</totfact>
</mgrwt>
</event>
<event>
 5    1  0.3963873E+001  0.9009674E+02  0.7546771E-02  0.1302618E+00
         -3   -1    0    0    0  501 -0.00000000000E+00  0.00000000000E+00  0.68945560387E+01  0.68945560387E+01  0.00000000000E+00 0.  1.
          3   -1    0    0  501    0  0.00000000000E+00 -0.00000000000E+00 -0.29434172881E+03  0.29434172881E+03  0.00000000000E+00 0. -1.
         23    2    1    2    0    0  0.00000000000E+00  0.00000000000E+00 -0.28744717277E+03  0.30123628485E+03  0.90096737872E+02 0.  0.
          2    1    3    3  502    0 -0.20295982651E+02  0.17782173766E+02 -0.26433101814E+03  0.26570476053E+03  0.00000000000E+00 0. -1.
         -2    1    3    3    0  502  0.20295982651E+02 -0.17782173766E+02 -0.23116154627E+02  0.35531524318E+02  0.00000000000E+00 0.  1.
<mgrwt>
<rscale>  0 0.90096738E+02</rscale>
<asrwt>0</asrwt>
<pdfrwt beam="2">  1        3 0.45283338E-01 0.90096738E+02</pdfrwt>
<pdfrwt beam="1">  1       -3 0.10607011E-02 0.90096738E+02</pdfrwt>
<totfact> 0.24761537E+04</totfact>
</mgrwt>
</event>
<event>
 5    1  0.3963873E+001  0.8903311E+02  0.7546771E-02  0.1305210E+00
          1   -1    0    0  501    0  0.00000000000E+00  0.00000000000E+00  0.67709556908E+02  0.67709556908E+02  0.00000000000E+00 0. -1.
         -1   -1    0    0    0  501 -0.00000000000E+00 -0.00000000000E+00 -0.29268003110E+02  0.29268003110E+02  0.00000000000E+00 0.  1.
         23    2    1    2    0    0  0.00000000000E+00  0.00000000000E+00  0.38441553798E+02  0.96977560019E+02  0.89033106701E+02 0.  0.
          2    1    3    3  502    0 -0.19126603733E+02  0.37754263330E+02  0.34255002634E+02  0.54448292677E+02  0.00000000000E+00 0. -1.
         -2    1    3    3    0  502  0.19126603733E+02 -0.37754263330E+02  0.41865511635E+01  0.42529267342E+02  0.00000000000E+00 0.  1.
<mgrwt>
<rscale>  0 0.89033107E+02</rscale>
<asrwt>0</asrwt>
<pdfrwt beam="1">  1        1 0.10416855E-01 0.89033107E+02</pdfrwt>
<pdfrwt beam="2">  1       -1 0.45027697E-02 0.89033107E+02</pdfrwt>
<totfact> 0.10481081E+05</totfact>
</mgrwt>
</event>
<event>
 5    1  0.3963873E+001  0.9154262E+02  0.7546771E-02  0.1299158E+00
         -2   -1    0    0    0  501 -0.00000000000E+00  0.00000000000E+00  0.63829979800E+02  0.63829979800E+02  0.00000000000E+00 0.  1.
          2   -1    0    0  501    0  0.00000000000E+00 -0.00000000000E+00 -0.32821769552E+02  0.32821769552E+02  0.00000000000E+00 0. -1.
         23    2    1    2    0    0  0.00000000000E+00  0.00000000000E+00  0.31008210248E+02  0.96651749353E+02  0.91542621495E+02 0.  0.
          2    1    3    3  502    0 -0.27491660809E+02 -0.35864765971E+02  0.23186179140E+02  0.50790469139E+02  0.00000000000E+00 0. -1.
         -2    1    3    3    0  502  0.27491660809E+02  0.35864765971E+02  0.78220311079E+01  0.45861280214E+02  0.00000000000E+00 0.  1.
<mgrwt>
<rscale>  0 0.91542621E+02</rscale>
<asrwt>0</asrwt>
<pdfrwt beam="2">  1        2 0.50495030E-02 0.91542621E+02</pdfrwt>
<pdfrwt beam="1">  1       -2 0.98199969E-02 0.91542621E+02</pdfrwt>
<totfact> 0.89535470E+04</totfact>
</mgrwt>
</event>
<event>
 5    1  0.3963873E+001  0.8848619E+02  0.7546771E-02  0.1306560E+00
         -2   -1    0    0    0  501 -0.00000000000E+00  0.00000000000E+00  0.31712213960E+03  0.31712213960E+03  0.00000000000E+00 0.  1.
          2   -1    0    0  501    0  0.00000000000E+00 -0.00000000000E+00 -0.61725481098E+01  0.61725481098E+01  0.00000000000E+00 0. -1.
         23    2    1    2    0    0  0.00000000000E+00  0.00000000000E+00  0.31094959149E+03  0.32329468771E+03  0.88486194705E+02 0.  0.
          2    1    3    3  502    0  0.35388715702E+00 -0.40708824205E+02  0.92179838031E+02  0.10076932144E+03  0.00000000000E+00 0. -1.
         -2    1    3    3    0  502 -0.35388715702E+00  0.40708824205E+02  0.21876975346E+03  0.22252536627E+03  0.00000000000E+00 0.  1.
<mgrwt>
<rscale>  0 0.88486195E+02</rscale>
<asrwt>0</asrwt>
<pdfrwt beam="2">  1        2 0.94962303E-03 0.88486195E+02</pdfrwt>
<pdfrwt beam="1">  1       -2 0.48788009E-01 0.88486195E+02</pdfrwt>
<totfact> 0.53365557E+04</totfact>
</mgrwt>
</event>
<event>
 5    1  0.3963873E+001  0.9052061E+02  0.7546771E-02  0.1301596E+00
         -2   -1    0    0    0  501 -0.00000000000E+00  0.00000000000E+00  0.81314758413E+01  0.81314758413E+01  0.00000000000E+00 0.  1.
          2   -1    0    0  501    0  0.00000000000E+00 -0.00000000000E+00 -0.25192171433E+03  0.25192171433E+03  0.00000000000E+00 0. -1.
         23    2    1    2    0    0  0.00000000000E+00  0.00000000000E+00 -0.24379023849E+03  0.26005319017E+03  0.90520612768E+02 0.  0.
          2    1    3    3  502    0 -0.20815598155E+02  0.10522564091E+02 -0.23332667073E+03  0.23448954936E+03  0.00000000000E+00 0. -1.
         -2    1    3    3    0  502  0.20815598155E+02 -0.10522564091E+02 -0.10463567755E+02  0.25563640815E+02  0.00000000000E+00 0.  1.
<mgrwt>
<rscale>  0 0.90520613E+02</rscale>
<asrwt>0</asrwt>
<pdfrwt beam="2">  1        2 0.38757178E-01 0.90520613E+02</pdfrwt>
<pdfrwt beam="1">  1       -2 0.12509966E-02 0.90520613E+02</pdfrwt>
<totfact> 0.17162166E+05</totfact>
</mgrwt>
</event>
<event>
 5    1  0.3963873E+001  0.9025088E+02  0.7546771E-02  0.1302245E+00
          1   -1    0    0  501    0  0.00000000000E+00  0.00000000000E+00  0.24530933394E+01  0.24530933394E+01  0.00000000000E+00 0. -1.
         -1   -1    0    0    0  501 -0.00000000000E+00 -0.00000000000E+00 -0.83009702918E+03  0.83009702918E+03  0.00000000000E+00 0.  1.
         23    2    1    2    0    0  0.00000000000E+00  0.00000000000E+00 -0.82764393584E+03  0.83255012252E+03  0.90250883505E+02 0.  0.
          2    1    3    3  502    0 -0.41394027796E+02 -0.15440526013E+02 -0.49858522008E+03  0.50053880675E+03  0.00000000000E+00 0. -1.
         -2    1    3    3    0  502  0.41394027796E+02  0.15440526013E+02 -0.32905871575E+03  0.33201131576E+03  0.00000000000E+00 0.  1.
<mgrwt>
<rscale>  0 0.90250884E+02</rscale>
<asrwt>0</asrwt>
<pdfrwt beam="1">  1        1 0.37739915E-03 0.90250884E+02</pdfrwt>
<pdfrwt beam="2">  1       -1 0.12770718E+00 0.90250884E+02</pdfrwt>
<totfact> 0.32341268E+04</totfact>
</mgrwt>
</event>
<event>
 5    1  0.3963873E+001  0.9182296E+02  0.7546771E-02  0.1298496E+00
         -1   -1    0    0    0  501 -0.00000000000E+00  0.00000000000E+00  0.12714052578E+03  0.12714052578E+03  0.00000000000E+00 0.  1.
          1   -1    0    0  501    0  0.00000000000E+00 -0.00000000000E+00 -0.16579010748E+02  0.16579010748E+02  0.00000000000E+00 0. -1.
         23    2    1    2    0    0  0.00000000000E+00  0.00000000000E+00  0.11056151503E+03  0.14371953653E+03  0.91822963217E+02 0.  0.
          2    1    3    3  502    0  0.21030528232E+01 -0.28381341415E+02  0.11166943926E+03  0.11523882608E+03  0.00000000000E+00 0.  1.
         -2    1    3    3    0  502 -0.21030528232E+01  0.28381341415E+02 -0.11079242261E+01  0.28480710450E+02  0.00000000000E+00 0. -1.
<mgrwt>
<rscale>  0 0.91822963E+02</rscale>
<asrwt>0</asrwt>
<pdfrwt beam="2">  1        1 0.25506171E-02 0.91822963E+02</pdfrwt>
<pdfrwt beam="1">  1       -1 0.19560080E-01 0.91822963E+02</pdfrwt>
<totfact> 0.76184889E+04</totfact>
</mgrwt>
</event>
<event>
 5    1  0.3963873E+001  0.8920472E+02  0.7546771E-02  0.1304789E+00
          3   -1    0    0  501    0  0.00000000000E+00  0.00000000000E+00  0.34380514395E+02  0.34380514395E+02  0.00000000000E+00 0. -1.
         -3   -1    0    0    0  501 -0.00000000000E+00 -0.00000000000E+00 -0.57863318563E+02  0.57863318563E+02  0.00000000000E+00 0.  1.
         23    2    1    2    0    0  0.00000000000E+00  0.00000000000E+00 -0.23482804168E+02  0.92243832958E+02  0.89204723121E+02 0.  0.
          2    1    3    3  502    0 -0.40050238569E+02 -0.18622689282E+02 -0.53214668025E+01  0.44487573259E+02  0.00000000000E+00 0. -1.
         -2    1    3    3    0  502  0.40050238569E+02  0.18622689282E+02 -0.18161337366E+02  0.47756259699E+02  0.00000000000E+00 0.  1.
<mgrwt>
<rscale>  0 0.89204723E+02</rscale>
<asrwt>0</asrwt>
<pdfrwt beam="1">  1        3 0.52893099E-02 0.89204723E+02</pdfrwt>
<pdfrwt beam="2">  1       -3 0.89020490E-02 0.89204723E+02</pdfrwt>
<totfact> 0.37415664E+04</totfact>
</mgrwt>
</event>
<event>
 5    1  0.3963873E+001  0.9067815E+02  0.7546771E-02  0.1301218E+00
          2   -1    0    0  501    0  0.00000000000E+00  0.00000000000E+00  0.46913298324E+03  0.46913298324E+03  0.00000000000E+00 0. -1.
         -2   -1    0    0    0  501 -0.00000000000E+00 -0.00000000000E+00 -0.43817675439E+01  0.43817675439E+01  0.00000000000E+00 0.  1.
         23    2    1    2    0    0  0.00000000000E+00  0.00000000000E+00  0.46475121569E+03  0.47351475078E+03  0.90678149071E+02 0.  0.
          2    1    3    3  502    0  0.43894046696E+02  0.11134800858E+02  0.24400604300E+03  0.24817256123E+03  0.00000000000E+00 0. -1.
         -2    1    3    3    0  502 -0.43894046696E+02 -0.11134800858E+02  0.22074517269E+03  0.22534218955E+03  0.00000000000E+00 0.  1.
<mgrwt>
<rscale>  0 0.90678149E+02</rscale>
<asrwt>0</asrwt>
<pdfrwt beam="1">  1        2 0.72174266E-01 0.90678149E+02</pdfrwt>
<pdfrwt beam="2">  1       -2 0.67411845E-03 0.90678149E+02</pdfrwt>
<totfact> 0.21408877E+05</totfact>
</mgrwt>
</event>
<event>
 5    1  0.3963873E+001  0.8646214E+02  0.7546771E-02  0.1311653E+00
         -4   -1    0    0    0  501 -0.00000000000E+00  0.00000000000E+00  0.31839000318E+03  0.31839000318E+03  0.00000000000E+00 0.  1.
          4   -1    0    0  501    0  0.00000000000E+00 -0.00000000000E+00 -0.58699254980E+01  0.58699254980E+01  0.00000000000E+00 0. -1.
         23    2    1    2    0    0  0.00000000000E+00  0.00000000000E+00  0.31252007768E+03  0.32425992867E+03  0.86462144270E+02 0.  0.
          2    1    3    3  502    0  0.18917842163E+02 -0.19075966335E+02  0.29238586475E+02  0.39707331600E+02  0.00000000000E+00 0. -1.
         -2    1    3    3    0  502 -0.18917842163E+02  0.19075966335E+02  0.28328149120E+03  0.28455259708E+03  0.00000000000E+00 0.  1.
<mgrwt>
<rscale>  0 0.86462144E+02</rscale>
<asrwt>0</asrwt>
<pdfrwt beam="2">  1        4 0.90306571E-03 0.86462144E+02</pdfrwt>
<pdfrwt beam="1">  1       -4 0.48983064E-01 0.86462144E+02</pdfrwt>
<totfact> 0.19679854E+04</totfact>
</mgrwt>
</event>
<event>
 5    1  0.3963873E+001  0.9202661E+02  0.7546771E-02  0.1298017E+00
          2   -1    0    0  501    0  0.00000000000E+00  0.00000000000E+00  0.34082872428E+01  0.34082872428E+01  0.00000000000E+00 0. -1.
         -2   -1    0    0    0  501 -0.00000000000E+00 -0.00000000000E+00 -0.62119892943E+03  0.62119892943E+03  0.00000000000E+00 0.  1.
         23    2    1    2    0    0  0.00000000000E+00  0.00000000000E+00 -0.61779064219E+03  0.62460721667E+03  0.92026613247E+02 0.  0.
          2    1    3    3  502    0  0.16026338268E+01 -0.44829215664E+02 -0.37844302193E+03  0.38109230885E+03  0.00000000000E+00 0. -1.
         -2    1    3    3    0  502 -0.16026338268E+01  0.44829215664E+02 -0.23934762025E+03  0.24351490782E+03  0.00000000000E+00 0.  1.
<mgrwt>
<rscale>  0 0.92026613E+02</rscale>
<asrwt>0</asrwt>
<pdfrwt beam="1">  1        2 0.52435194E-03 0.92026613E+02</pdfrwt>
<pdfrwt beam="2">  1       -2 0.95569056E-01 0.92026613E+02</pdfrwt>
<totfact> 0.29607394E+04</totfact>
</mgrwt>
</event>
<event>
 5    1  0.3963873E+001  0.9791821E+02  0.7546771E-02  0.1284736E+00
         -1   -1    0    0    0  501 -0.00000000000E+00  0.00000000000E+00  0.10794378179E+04  0.10794378179E+04  0.00000000000E+00 0.  1.
          1   -1    0    0  501    0  0.00000000000E+00 -0.00000000000E+00 -0.22205945769E+01  0.22205945769E+01  0.00000000000E+00 0. -1.
         23    2    1    2    0    0  0.00000000000E+00  0.00000000000E+00  0.10772172233E+04  0.10816584125E+04  0.97918205960E+02 0.  0.
          2    1    3    3  502    0 -0.40049405043E+02 -0.15711154835E+02  0.28044088556E+03  0.28372149288E+03  0.00000000000E+00 0.  1.
         -2    1    3    3    0  502  0.40049405043E+02  0.15711154835E+02  0.79677633778E+03  0.79793691961E+03  0.00000000000E+00 0. -1.
<mgrwt>
<rscale>  0 0.97918206E+02</rscale>
<asrwt>0</asrwt>
<pdfrwt beam="2">  1        1 0.34163080E-03 0.97918206E+02</pdfrwt>
<pdfrwt beam="1">  1       -1 0.16606694E+00 0.97918206E+02</pdfrwt>
<totfact> 0.19290157E+04</totfact>
</mgrwt>
</event>
<event>
 5    1  0.3963873E+001  0.9154426E+02  0.7546771E-02  0.1299155E+00
         -1   -1    0    0    0  501 -0.00000000000E+00  0.00000000000E+00  0.42816574424E+01  0.42816574424E+01  0.00000000000E+00 0.  1.
          1   -1    0    0  501    0  0.00000000000E+00 -0.00000000000E+00 -0.48931707452E+03  0.48931707452E+03  0.00000000000E+00 0. -1.
         23    2    1    2    0    0  0.00000000000E+00  0.00000000000E+00 -0.48503541707E+03  0.49359873196E+03  0.91544264567E+02 0.  0.
          2    1    3    3  502    0  0.44668155576E+02  0.93996376171E+01 -0.22424016935E+03  0.22883891903E+03  0.00000000000E+00 0.  1.
         -2    1    3    3    0  502 -0.44668155576E+02 -0.93996376171E+01 -0.26079524772E+03  0.26475981293E+03  0.00000000000E+00 0. -1.
<mgrwt>
<rscale>  0 0.91544265E+02</rscale>
<asrwt>0</asrwt>
<pdfrwt beam="2">  1        1 0.75279565E-01 0.91544265E+02</pdfrwt>
<pdfrwt beam="1">  1       -1 0.65871639E-03 0.91544265E+02</pdfrwt>
<totfact> 0.13742861E+05</totfact>
</mgrwt>
</event>
<event>
 5    1  0.3963873E+001  0.9186471E+02  0.7546771E-02  0.1298398E+00
         -1   -1    0    0    0  501 -0.00000000000E+00  0.00000000000E+00  0.27726609173E+03  0.27726609173E+03  0.00000000000E+00 0. -1.
          1   -1    0    0  501    0  0.00000000000E+00 -0.00000000000E+00 -0.76092293467E+01  0.76092293467E+01  0.00000000000E+00 0.  1.
         23    2    1    2    0    0  0.00000000000E+00  0.00000000000E+00  0.26965686238E+03  0.28487532108E+03  0.91864711005E+02 0.  0.
          2    1    3    3  502    0 -0.41106287396E+02  0.13168476359E+02  0.18352998795E+03  0.18853750849E+03  0.00000000000E+00 0. -1.
         -2    1    3    3    0  502  0.41106287396E+02 -0.13168476359E+02  0.86126874437E+02  0.96337812584E+02  0.00000000000E+00 0.  1.
<mgrwt>
<rscale>  0 0.91864711E+02</rscale>
<asrwt>0</asrwt>
<pdfrwt beam="2">  1        1 0.11706509E-02 0.91864711E+02</pdfrwt>
<pdfrwt beam="1">  1       -1 0.42656314E-01 0.91864711E+02</pdfrwt>
<totfact> 0.61218801E+04</totfact>
</mgrwt>
</event>
<event>
 5    1  0.3963873E+001  0.9083862E+02  0.7546771E-02  0.1300833E+00
         -4   -1    0    0    0  501 -0.00000000000E+00  0.00000000000E+00  0.13950008642E+02  0.13950008642E+02  0.00000000000E+00 0.  1.
          4   -1    0    0  501    0  0.00000000000E+00 -0.00000000000E+00 -0.14787903311E+03  0.14787903311E+03  0.00000000000E+00 0. -1.
         23    2    1    2    0    0  0.00000000000E+00  0.00000000000E+00 -0.13392902447E+03  0.16182904176E+03  0.90838621522E+02 0.  0.
          2    1    3    3  502    0 -0.13616692797E+02  0.20750133379E+02 -0.13473020819E+03  0.13699712171E+03  0.00000000000E+00 0. -1.
         -2    1    3    3    0  502  0.13616692797E+02 -0.20750133379E+02  0.80118371536E+00  0.24831920049E+02  0.00000000000E+00 0.  1.
<mgrwt>
<rscale>  0 0.90838622E+02</rscale>
<asrwt>0</asrwt>
<pdfrwt beam="2">  1        4 0.22750619E-01 0.90838622E+02</pdfrwt>
<pdfrwt beam="1">  1       -4 0.21461553E-02 0.90838622E+02</pdfrwt>
<totfact> 0.23324707E+04</totfact>
</mgrwt>
</event>
<event>
 5    1  0.3963873E+001  0.9332265E+02  0.7546771E-02  0.1294999E+00
         -2   -1    0    0    0  501 -0.00000000000E+00  0.00000000000E+00  0.71998934965E+01  0.71998934965E+01  0.00000000000E+00 0.  1.
          2   -1    0    0  501    0  0.00000000000E+00 -0.00000000000E+00 -0.30240439676E+03  0.30240439676E+03  0.00000000000E+00 0. -1.
         23    2    1    2    0    0  0.00000000000E+00  0.00000000000E+00 -0.29520450327E+03  0.30960429026E+03  0.93322654261E+02 0.  0.
          2    1    3    3  502    0  0.28220291883E+02 -0.51118191200E+01 -0.26971238133E+03  0.27123289662E+03  0.00000000000E+00 0. -1.
         -2    1    3    3    0  502 -0.28220291883E+02  0.51118191200E+01 -0.25492121936E+02  0.38371393635E+02  0.00000000000E+00 0.  1.
<mgrwt>
<rscale>  0 0.93322654E+02</rscale>
<asrwt>0</asrwt>
<pdfrwt beam="2">  1        2 0.46523760E-01 0.93322654E+02</pdfrwt>
<pdfrwt beam="1">  1       -2 0.11076758E-02 0.93322654E+02</pdfrwt>
<totfact> 0.16933235E+05</totfact>
</mgrwt>
</event>
<event>
 5    1  0.3963873E+001  0.9519034E+02  0.7546771E-02  0.1290748E+00
          4   -1    0    0  501    0  0.00000000000E+00  0.00000000000E+00  0.21238588328E+02  0.21238588328E+02  0.00000000000E+00 0. -1.
         -4   -1    0    0    0  501 -0.00000000000E+00 -0.00000000000E+00 -0.10665964980E+03  0.10665964980E+03  0.00000000000E+00 0.  1.
         23    2    1    2    0    0  0.00000000000E+00  0.00000000000E+00 -0.85421061475E+02  0.12789823813E+03  0.95190343910E+02 0.  0.
          2    1    3    3  502    0  0.40914464654E+02  0.23097954499E+02 -0.32496349732E+02  0.57127241014E+02  0.00000000000E+00 0. -1.
         -2    1    3    3    0  502 -0.40914464654E+02 -0.23097954499E+02 -0.52924711744E+02  0.70770997118E+02  0.00000000000E+00 0.  1.
<mgrwt>
<rscale>  0 0.95190344E+02</rscale>
<asrwt>0</asrwt>
<pdfrwt beam="1">  1        4 0.32674751E-02 0.95190344E+02</pdfrwt>
<pdfrwt beam="2">  1       -4 0.16409177E-01 0.95190344E+02</pdfrwt>
<totfact> 0.22095028E+04</totfact>
</mgrwt>
</event>
<event>
 5    1  0.3963873E+001  0.9138085E+02  0.7546771E-02  0.1299542E+00
         -1   -1    0    0    0  501 -0.00000000000E+00  0.00000000000E+00  0.25448902427E+02  0.25448902427E+02  0.00000000000E+00 0.  1.
          1   -1    0    0  501    0  0.00000000000E+00 -0.00000000000E+00 -0.82031635409E+02  0.82031635409E+02  0.00000000000E+00 0. -1.
         23    2    1    2    0    0  0.00000000000E+00  0.00000000000E+00 -0.56582732982E+02  0.10748053784E+03  0.91380853255E+02 0.  0.
          2    1    3    3  502    0  0.20537205957E+02 -0.92095265753E+01 -0.75058817413E+02  0.78360821076E+02  0.00000000000E+00 0. -1.
         -2    1    3    3    0  502 -0.20537205957E+02  0.92095265753E+01  0.18476084431E+02  0.29119716759E+02  0.00000000000E+00 0.  1.
<mgrwt>
<rscale>  0 0.91380853E+02</rscale>
<asrwt>0</asrwt>
<pdfrwt beam="2">  1        1 0.12620252E-01 0.91380853E+02</pdfrwt>
<pdfrwt beam="1">  1       -1 0.39152157E-02 0.91380853E+02</pdfrwt>
<totfact> 0.10052597E+05</totfact>
</mgrwt>
</event>
<event>
 5    1  0.3963873E+001  0.9045113E+02  0.7546771E-02  0.1301763E+00
         -2   -1    0    0    0  501 -0.00000000000E+00  0.00000000000E+00  0.30925712851E+01  0.30925712851E+01  0.00000000000E+00 0.  1.
          2   -1    0    0  501    0  0.00000000000E+00 -0.00000000000E+00 -0.66137582271E+03  0.66137582271E+03  0.00000000000E+00 0. -1.
         23    2    1    2    0    0  0.00000000000E+00  0.00000000000E+00 -0.65828325142E+03  0.66446839399E+03  0.90451133282E+02 0.  0.
          2    1    3    3  502    0 -0.14507975188E+02 -0.23183014840E+02 -0.59374801996E+03  0.59437752711E+03  0.00000000000E+00 0. -1.
         -2    1    3    3    0  502  0.14507975188E+02  0.23183014840E+02 -0.64535231461E+02  0.70090866886E+02  0.00000000000E+00 0.  1.
<mgrwt>
<rscale>  0 0.90451133E+02</rscale>
<asrwt>0</asrwt>
<pdfrwt beam="2">  1        2 0.10175020E+00 0.90451133E+02</pdfrwt>
<pdfrwt beam="1">  1       -2 0.47577987E-03 0.90451133E+02</pdfrwt>
<totfact> 0.23887373E+05</totfact>
</mgrwt>
</event>
<event>
 5    1  0.3963873E+001  0.8898338E+02  0.7546771E-02  0.1305332E+00
          1   -1    0    0  501    0  0.00000000000E+00  0.00000000000E+00  0.54655479882E+03  0.54655479882E+03  0.00000000000E+00 0. -1.
         -1   -1    0    0    0  501 -0.00000000000E+00 -0.00000000000E+00 -0.36217967264E+01  0.36217967264E+01  0.00000000000E+00 0.  1.
         23    2    1    2    0    0  0.00000000000E+00  0.00000000000E+00  0.54293300209E+03  0.55017659554E+03  0.88983377799E+02 0.  0.
          2    1    3    3  502    0 -0.36957911429E+02 -0.24748541218E+02  0.26488562735E+03  0.26859406748E+03  0.00000000000E+00 0. -1.
         -2    1    3    3    0  502  0.36957911429E+02  0.24748541218E+02  0.27804737474E+03  0.28158252806E+03  0.00000000000E+00 0.  1.
<mgrwt>
<rscale>  0 0.88983378E+02</rscale>
<asrwt>0</asrwt>
<pdfrwt beam="1">  1        1 0.84085288E-01 0.88983378E+02</pdfrwt>
<pdfrwt beam="2">  1       -1 0.55719993E-03 0.88983378E+02</pdfrwt>
<totfact> 0.14993004E+05</totfact>
</mgrwt>
</event>
<event>
 5    1  0.3963873E+001  0.1111293E+03  0.7546771E-02  0.1258493E+00
         -2   -1    0    0    0  501 -0.00000000000E+00  0.00000000000E+00  0.26580058619E+02  0.26580058619E+02  0.00000000000E+00 0.  1.
          2   -1    0    0  501    0  0.00000000000E+00 -0.00000000000E+00 -0.11615582531E+03  0.11615582531E+03  0.00000000000E+00 0. -1.
         23    2    1    2    0    0  0.00000000000E+00  0.00000000000E+00 -0.89575766688E+02  0.14273588393E+03  0.11112926969E+03 0.  0.
          2    1    3    3  502    0 -0.31422729813E+02  0.34604781406E+02 -0.83374819441E+02  0.95583677277E+02  0.00000000000E+00 0. -1.
         -2    1    3    3    0  502  0.31422729813E+02 -0.34604781406E+02 -0.62009472469E+01  0.47152206649E+02  0.00000000000E+00 0.  1.
<mgrwt>
<rscale>  0 0.11112927E+03</rscale>
<asrwt>0</asrwt>
<pdfrwt beam="2">  1        2 0.17870127E-01 0.11112927E+03</pdfrwt>
<pdfrwt beam="1">  1       -2 0.40892398E-02 0.11112927E+03</pdfrwt>
<totfact> 0.74167610E+04</totfact>
</mgrwt>
</event>
<event>
 5    1  0.3963873E+001  0.8784114E+02  0.7546771E-02  0.1308166E+00
         -2   -1    0    0    0  501 -0.00000000000E+00  0.00000000000E+00  0.64764658222E+02  0.64764658222E+02  0.00000000000E+00 0.  1.
          2   -1    0    0  501    0  0.00000000000E+00 -0.00000000000E+00 -0.29785016275E+02  0.29785016275E+02  0.00000000000E+00 0. -1.
         23    2    1    2    0    0  0.00000000000E+00  0.00000000000E+00  0.34979641948E+02  0.94549674497E+02  0.87841138407E+02 0.  0.
          2    1    3    3  502    0  0.86168061218E+01  0.24523488843E+02  0.55596487429E+02  0.61372797453E+02  0.00000000000E+00 0.  1.
         -2    1    3    3    0  502 -0.86168061218E+01 -0.24523488843E+02 -0.20616845481E+02  0.33176877044E+02  0.00000000000E+00 0. -1.
<mgrwt>
<rscale>  0 0.87841138E+02</rscale>
<asrwt>0</asrwt>
<pdfrwt beam="2">  1        2 0.45823102E-02 0.87841138E+02</pdfrwt>
<pdfrwt beam="1">  1       -2 0.99637936E-02 0.87841138E+02</pdfrwt>
<totfact> 0.98571489E+04</totfact>
</mgrwt>
</event>
<event>
 5    1  0.3963873E+001  0.9376880E+02  0.7546771E-02  0.1293973E+00
          4   -1    0    0  501    0  0.00000000000E+00  0.00000000000E+00  0.56028063727E+03  0.56028063727E+03  0.00000000000E+00 0. -1.
         -4   -1    0    0    0  501 -0.00000000000E+00 -0.00000000000E+00 -0.39232963917E+01  0.39232963917E+01  0.00000000000E+00 0.  1.
         23    2    1    2    0    0  0.00000000000E+00  0.00000000000E+00  0.55635734088E+03  0.56420393366E+03  0.93768800835E+02 0.  0.
          2    1    3    3  502    0 -0.37174803655E+02  0.58209832185E+01  0.44647072645E+03  0.44805352297E+03  0.00000000000E+00 0. -1.
         -2    1    3    3    0  502  0.37174803655E+02 -0.58209832185E+01  0.10988661443E+03  0.11615041069E+03  0.00000000000E+00 0.  1.
<mgrwt>
<rscale>  0 0.93768801E+02</rscale>
<asrwt>0</asrwt>
<pdfrwt beam="1">  1        4 0.86196958E-01 0.93768801E+02</pdfrwt>
<pdfrwt beam="2">  1       -4 0.60358451E-03 0.93768801E+02</pdfrwt>
<totfact> 0.11109200E+04</totfact>
</mgrwt>
</event>
<event>
 5    1  0.3963873E+001  0.9272710E+02  0.7546771E-02  0.1296379E+00
          3   -1    0    0  501    0  0.00000000000E+00  0.00000000000E+00  0.86667629591E+02  0.86667629591E+02  0.00000000000E+00 0. -1.
         -3   -1    0    0    0  501 -0.00000000000E+00 -0.00000000000E+00 -0.24802558146E+02  0.24802558146E+02  0.00000000000E+00 0.  1.
         23    2    1    2    0    0  0.00000000000E+00  0.00000000000E+00  0.61865071444E+02  0.11147018774E+03  0.92727103316E+02 0.  0.
          2    1    3    3  502    0 -0.15381034828E+02 -0.41807374824E+02  0.46381031581E+02  0.64308886731E+02  0.00000000000E+00 0. -1.
         -2    1    3    3    0  502  0.15381034828E+02  0.41807374824E+02  0.15484039863E+02  0.47161301006E+02  0.00000000000E+00 0.  1.
<mgrwt>
<rscale>  0 0.92727103E+02</rscale>
<asrwt>0</asrwt>
<pdfrwt beam="1">  1        3 0.13333481E-01 0.92727103E+02</pdfrwt>
<pdfrwt beam="2">  1       -3 0.38157782E-02 0.92727103E+02</pdfrwt>
<totfact> 0.32320696E+04</totfact>
</mgrwt>
</event>
<event>
 5    1  0.3963873E+001  0.9232170E+02  0.7546771E-02  0.1297325E+00
         -2   -1    0    0    0  501 -0.00000000000E+00  0.00000000000E+00  0.77405372845E+01  0.77405372845E+01  0.00000000000E+00 0.  1.
          2   -1    0    0  501    0  0.00000000000E+00 -0.00000000000E+00 -0.27528116220E+03  0.27528116220E+03  0.00000000000E+00 0. -1.
         23    2    1    2    0    0  0.00000000000E+00  0.00000000000E+00 -0.26754062491E+03  0.28302169948E+03  0.92321700585E+02 0.  0.
          2    1    3    3  502    0  0.34904626162E+02 -0.30196376811E+02 -0.13627961619E+03  0.14388289645E+03  0.00000000000E+00 0. -1.
         -2    1    3    3    0  502 -0.34904626162E+02  0.30196376811E+02 -0.13126100872E+03  0.13913880304E+03  0.00000000000E+00 0.  1.
<mgrwt>
<rscale>  0 0.92321701E+02</rscale>
<asrwt>0</asrwt>
<pdfrwt beam="2">  1        2 0.42350944E-01 0.92321701E+02</pdfrwt>
<pdfrwt beam="1">  1       -2 0.11908520E-02 0.92321701E+02</pdfrwt>
<totfact> 0.16827518E+05</totfact>
</mgrwt>
</event>
<event>
 5    1  0.3963873E+001  0.9509221E+02  0.7546771E-02  0.1290969E+00
         -2   -1    0    0    0  501 -0.00000000000E+00  0.00000000000E+00  0.97421697780E+01  0.97421697780E+01  0.00000000000E+00 0.  1.
          2   -1    0    0  501    0  0.00000000000E+00 -0.00000000000E+00 -0.23204607180E+03  0.23204607180E+03  0.00000000000E+00 0. -1.
         23    2    1    2    0    0  0.00000000000E+00  0.00000000000E+00 -0.22230390202E+03  0.24178824158E+03  0.95092212674E+02 0.  0.
          2    1    3    3  502    0  0.45829649240E+02  0.67730262938E+01 -0.13834802789E+03  0.14589862047E+03  0.00000000000E+00 0. -1.
         -2    1    3    3    0  502 -0.45829649240E+02 -0.67730262938E+01 -0.83955874135E+02  0.95889621108E+02  0.00000000000E+00 0.  1.
<mgrwt>
<rscale>  0 0.95092213E+02</rscale>
<asrwt>0</asrwt>
<pdfrwt beam="2">  1        2 0.35699394E-01 0.95092213E+02</pdfrwt>
<pdfrwt beam="1">  1       -2 0.14987954E-02 0.95092213E+02</pdfrwt>
<totfact> 0.14583478E+05</totfact>
</mgrwt>
</event>
<event>
 5    1  0.3963873E+001  0.9128445E+02  0.7546771E-02  0.1299771E+00
          1   -1    0    0  501    0  0.00000000000E+00  0.00000000000E+00  0.79193377696E+03  0.79193377696E+03  0.00000000000E+00 0. -1.
         -1   -1    0    0    0  501 -0.00000000000E+00 -0.00000000000E+00 -0.26305390269E+01  0.26305390269E+01  0.00000000000E+00 0.  1.
         23    2    1    2    0    0  0.00000000000E+00  0.00000000000E+00  0.78930323793E+03  0.79456431598E+03  0.91284450088E+02 0.  0.
          2    1    3    3  502    0  0.37594478731E+02 -0.23159048197E+02  0.29407066221E+03  0.29736718164E+03  0.00000000000E+00 0.  1.
         -2    1    3    3    0  502 -0.37594478731E+02  0.23159048197E+02  0.49523257572E+03  0.49719713434E+03  0.00000000000E+00 0. -1.
<mgrwt>
<rscale>  0 0.91284450E+02</rscale>
<asrwt>0</asrwt>
<pdfrwt beam="1">  1        1 0.12183578E+00 0.91284450E+02</pdfrwt>
<pdfrwt beam="2">  1       -1 0.40469894E-03 0.91284450E+02</pdfrwt>
<totfact> 0.14097862E+05</totfact>
</mgrwt>
</event>
<event>
 5    1  0.3963873E+001  0.9243096E+02  0.7546771E-02  0.1297069E+00
          2   -1    0    0  501    0  0.00000000000E+00  0.00000000000E+00  0.93526128126E+03  0.93526128126E+03  0.00000000000E+00 0. -1.
         -2   -1    0    0    0  501 -0.00000000000E+00 -0.00000000000E+00 -0.22837153991E+01  0.22837153991E+01  0.00000000000E+00 0.  1.
         23    2    1    2    0    0  0.00000000000E+00  0.00000000000E+00  0.93297756586E+03  0.93754499666E+03  0.92430959970E+02 0.  0.
          2    1    3    3  502    0 -0.21666653619E+02 -0.40762948841E+02  0.44424600200E+03  0.44663807739E+03  0.00000000000E+00 0.  1.
         -2    1    3    3    0  502  0.21666653619E+02  0.40762948841E+02  0.48873156386E+03  0.49090691927E+03  0.00000000000E+00 0. -1.
<mgrwt>
<rscale>  0 0.92430960E+02</rscale>
<asrwt>0</asrwt>
<pdfrwt beam="1">  1        2 0.14388605E+00 0.92430960E+02</pdfrwt>
<pdfrwt beam="2">  1       -2 0.35134158E-03 0.92430960E+02</pdfrwt>
<totfact> 0.24010101E+05</totfact>
</mgrwt>
</event>
<event>
 5    1  0.3963873E+001  0.9173666E+02  0.7546771E-02  0.1298700E+00
          2   -1    0    0  501    0  0.00000000000E+00  0.00000000000E+00  0.38598221390E+01  0.38598221390E+01  0.00000000000E+00 0. -1.
         -2   -1    0    0    0  501 -0.00000000000E+00 -0.00000000000E+00 -0.54507792144E+03  0.54507792144E+03  0.00000000000E+00 0.  1.
         23    2    1    2    0    0  0.00000000000E+00  0.00000000000E+00 -0.54121809930E+03  0.54893774358E+03  0.91736662871E+02 0.  0.
          2    1    3    3  502    0  0.11645976516E+02  0.25310629817E+02 -0.48864167146E+03  0.48943532754E+03  0.00000000000E+00 0.  1.
         -2    1    3    3    0  502 -0.11645976516E+02 -0.25310629817E+02 -0.52576427842E+02  0.59502416046E+02  0.00000000000E+00 0. -1.
<mgrwt>
<rscale>  0 0.91736663E+02</rscale>
<asrwt>0</asrwt>
<pdfrwt beam="1">  1        2 0.59381871E-03 0.91736663E+02</pdfrwt>
<pdfrwt beam="2">  1       -2 0.83858153E-01 0.91736663E+02</pdfrwt>
<totfact> 0.33354340E+04</totfact>
</mgrwt>
</event>
<event>
 5    1  0.3963873E+001  0.9090335E+02  0.7546771E-02  0.1300679E+00
          1   -1    0    0  501    0  0.00000000000E+00  0.00000000000E+00  0.14910874559E+02  0.14910874559E+02  0.00000000000E+00 0. -1.
         -1   -1    0    0    0  501 -0.00000000000E+00 -0.00000000000E+00 -0.13854684923E+03  0.13854684923E+03  0.00000000000E+00 0.  1.
         23    2    1    2    0    0  0.00000000000E+00  0.00000000000E+00 -0.12363597467E+03  0.15345772379E+03  0.90903348439E+02 0.  0.
          2    1    3    3  502    0  0.21469088044E+02 -0.36389265957E+02 -0.90104021209E+02  0.99518013728E+02  0.00000000000E+00 0. -1.
         -2    1    3    3    0  502 -0.21469088044E+02  0.36389265957E+02 -0.33531953461E+02  0.53939710059E+02  0.00000000000E+00 0.  1.
<mgrwt>
<rscale>  0 0.90903348E+02</rscale>
<asrwt>0</asrwt>
<pdfrwt beam="1">  1        1 0.22939806E-02 0.90903348E+02</pdfrwt>
<pdfrwt beam="2">  1       -1 0.21314900E-01 0.90903348E+02</pdfrwt>
<totfact> 0.76752827E+04</totfact>
</mgrwt>
</event>
<event>
 5    1  0.3963873E+001  0.9030842E+02  0.7546771E-02  0.1302107E+00
         -2   -1    0    0    0  501 -0.00000000000E+00  0.00000000000E+00  0.43817884571E+01  0.43817884571E+01  0.00000000000E+00 0.  1.
          2   -1    0    0  501    0  0.00000000000E+00 -0.00000000000E+00 -0.46531287175E+03  0.46531287175E+03  0.00000000000E+00 0. -1.
         23    2    1    2    0    0  0.00000000000E+00  0.00000000000E+00 -0.46093108329E+03  0.46969466021E+03  0.90308417555E+02 0.  0.
          2    1    3    3  502    0  0.13995496035E+02  0.16387385717E+02 -0.43684015616E+03  0.43737140093E+03  0.00000000000E+00 0. -1.
         -2    1    3    3    0  502 -0.13995496035E+02 -0.16387385717E+02 -0.24090927129E+02  0.32323259270E+02  0.00000000000E+00 0.  1.
<mgrwt>
<rscale>  0 0.90308418E+02</rscale>
<asrwt>0</asrwt>
<pdfrwt beam="2">  1        2 0.71586565E-01 0.90308418E+02</pdfrwt>
<pdfrwt beam="1">  1       -2 0.67412159E-03 0.90308418E+02</pdfrwt>
<totfact> 0.21582060E+05</totfact>
</mgrwt>
</event>
<event>
 5    1  0.3963873E+001  0.9203481E+02  0.7546771E-02  0.1297998E+00
          2   -1    0    0  501    0  0.00000000000E+00  0.00000000000E+00  0.34496398999E+03  0.34496398999E+03  0.00000000000E+00 0. -1.
         -2   -1    0    0    0  501 -0.00000000000E+00 -0.00000000000E+00 -0.61386163744E+01  0.61386163744E+01  0.00000000000E+00 0.  1.
         23    2    1    2    0    0  0.00000000000E+00  0.00000000000E+00  0.33882537362E+03  0.35110260637E+03  0.92034810752E+02 0.  0.
          2    1    3    3  502    0  0.26992713628E+02 -0.15711692128E+01  0.31146424664E+03  0.31263565391E+03  0.00000000000E+00 0. -1.
         -2    1    3    3    0  502 -0.26992713628E+02  0.15711692128E+01  0.27361126977E+02  0.38466952455E+02  0.00000000000E+00 0.  1.
<mgrwt>
<rscale>  0 0.92034811E+02</rscale>
<asrwt>0</asrwt>
<pdfrwt beam="1">  1        2 0.53071368E-01 0.92034811E+02</pdfrwt>
<pdfrwt beam="2">  1       -2 0.94440279E-03 0.92034811E+02</pdfrwt>
<totfact> 0.18452717E+05</totfact>
</mgrwt>
</event>
<event>
 5    1  0.3963873E+001  0.8883536E+02  0.7546771E-02  0.1305697E+00
         -1   -1    0    0    0  501 -0.00000000000E+00  0.00000000000E+00  0.43730875472E+01  0.43730875472E+01  0.00000000000E+00 0.  1.
          1   -1    0    0  501    0  0.00000000000E+00 -0.00000000000E+00 -0.45115268822E+03  0.45115268822E+03  0.00000000000E+00 0. -1.
         23    2    1    2    0    0  0.00000000000E+00  0.00000000000E+00 -0.44677960067E+03  0.45552577576E+03  0.88835357887E+02 0.  0.
          2    1    3    3  502    0 -0.26893455721E+02  0.21396646377E+02 -0.36768442133E+03  0.36928702675E+03  0.00000000000E+00 0. -1.
         -2    1    3    3    0  502  0.26893455721E+02 -0.21396646377E+02 -0.79095179339E+02  0.86238749014E+02  0.00000000000E+00 0.  1.
<mgrwt>
<rscale>  0 0.88835358E+02</rscale>
<asrwt>0</asrwt>
<pdfrwt beam="2">  1        1 0.69408118E-01 0.88835358E+02</pdfrwt>
<pdfrwt beam="1">  1       -1 0.67278258E-03 0.88835358E+02</pdfrwt>
<totfact> 0.14720700E+05</totfact>
</mgrwt>
</event>
<event>
 5    1  0.3963873E+001  0.9141959E+02  0.7546771E-02  0.1299450E+00
          3   -1    0    0  501    0  0.00000000000E+00  0.00000000000E+00  0.31929345439E+02  0.31929345439E+02  0.00000000000E+00 0. -1.
         -3   -1    0    0    0  501 -0.00000000000E+00 -0.00000000000E+00 -0.65437777977E+02  0.65437777977E+02  0.00000000000E+00 0.  1.
         23    2    1    2    0    0  0.00000000000E+00  0.00000000000E+00 -0.33508432538E+02  0.97367123416E+02  0.91419591288E+02 0.  0.
          2    1    3    3  502    0  0.11655154987E+02 -0.20572806816E+02  0.24909853887E+02  0.34345070079E+02  0.00000000000E+00 0. -1.
         -2    1    3    3    0  502 -0.11655154987E+02  0.20572806816E+02 -0.58418286425E+02  0.63022053338E+02  0.00000000000E+00 0.  1.
<mgrwt>
<rscale>  0 0.91419591E+02</rscale>
<asrwt>0</asrwt>
<pdfrwt beam="1">  1        3 0.49122070E-02 0.91419591E+02</pdfrwt>
<pdfrwt beam="2">  1       -3 0.10067350E-01 0.91419591E+02</pdfrwt>
<totfact> 0.34616602E+04</totfact>
</mgrwt>
</event>
<event>
 5    1  0.3963873E+001  0.9269747E+02  0.7546771E-02  0.1296448E+00
         -1   -1    0    0    0  501 -0.00000000000E+00  0.00000000000E+00  0.39525562875E+01  0.39525562875E+01  0.00000000000E+00 0.  1.
          1   -1    0    0  501    0  0.00000000000E+00 -0.00000000000E+00 -0.54349768054E+03  0.54349768054E+03  0.00000000000E+00 0. -1.
         23    2    1    2    0    0  0.00000000000E+00  0.00000000000E+00 -0.53954512426E+03  0.54745023683E+03  0.92697468670E+02 0.  0.
          2    1    3    3  502    0  0.27662504918E+02  0.26487695449E+02 -0.42393394682E+03  0.42566043209E+03  0.00000000000E+00 0. -1.
         -2    1    3    3    0  502 -0.27662504918E+02 -0.26487695449E+02 -0.11561117744E+03  0.12178980474E+03  0.00000000000E+00 0.  1.
<mgrwt>
<rscale>  0 0.92697469E+02</rscale>
<asrwt>0</asrwt>
<pdfrwt beam="2">  1        1 0.83615017E-01 0.92697469E+02</pdfrwt>
<pdfrwt beam="1">  1       -1 0.60808566E-03 0.92697469E+02</pdfrwt>
<totfact> 0.13447789E+05</totfact>
</mgrwt>
</event>
<event>
 5    1  0.3963873E+001  0.9045983E+02  0.7546771E-02  0.1301742E+00
         -2   -1    0    0    0  501 -0.00000000000E+00  0.00000000000E+00  0.10751679678E+02  0.10751679678E+02  0.00000000000E+00 0.  1.
          2   -1    0    0  501    0  0.00000000000E+00 -0.00000000000E+00 -0.19027214366E+03  0.19027214366E+03  0.00000000000E+00 0. -1.
         23    2    1    2    0    0  0.00000000000E+00  0.00000000000E+00 -0.17952046398E+03  0.20102382334E+03  0.90459828440E+02 0.  0.
          2    1    3    3  502    0  0.33885480712E+02 -0.23557376471E+01 -0.15612947333E+03  0.15978168776E+03  0.00000000000E+00 0. -1.
         -2    1    3    3    0  502 -0.33885480712E+02  0.23557376471E+01 -0.23390990652E+02  0.41242135573E+02  0.00000000000E+00 0.  1.
<mgrwt>
<rscale>  0 0.90459828E+02</rscale>
<asrwt>0</asrwt>
<pdfrwt beam="2">  1        2 0.29272637E-01 0.90459828E+02</pdfrwt>
<pdfrwt beam="1">  1       -2 0.16541046E-02 0.90459828E+02</pdfrwt>
<totfact> 0.15519139E+05</totfact>
</mgrwt>
</event>
<event>
 5    1  0.3963873E+001  0.9057835E+02  0.7546771E-02  0.1301457E+00
          1   -1    0    0  501    0  0.00000000000E+00  0.00000000000E+00  0.27413644454E+04  0.27413644454E+04  0.00000000000E+00 0.  1.
         -1   -1    0    0    0  501 -0.00000000000E+00 -0.00000000000E+00 -0.74820755368E+00  0.74820755368E+00  0.00000000000E+00 0. -1.
         23    2    1    2    0    0  0.00000000000E+00  0.00000000000E+00  0.27406162378E+04  0.27421126529E+04  0.90578354708E+02 0.  0.
          2    1    3    3  502    0 -0.15053571596E+02  0.42104146717E+02  0.11525493048E+04  0.11534163468E+04  0.00000000000E+00 0. -1.
         -2    1    3    3    0  502  0.15053571596E+02 -0.42104146717E+02  0.15880669331E+04  0.15886963061E+04  0.00000000000E+00 0.  1.
<mgrwt>
<rscale>  0 0.90578355E+02</rscale>
<asrwt>0</asrwt>
<pdfrwt beam="1">  1        1 0.42174034E+00 0.90578355E+02</pdfrwt>
<pdfrwt beam="2">  1       -1 0.11511105E-03 0.90578355E+02</pdfrwt>
<totfact> 0.42094492E+04</totfact>
</mgrwt>
</event>
<event>
 5    1  0.3963873E+001  0.8571296E+02  0.7546771E-02  0.1313579E+00
          2   -1    0    0  501    0  0.00000000000E+00  0.00000000000E+00  0.11617714605E+04  0.11617714605E+04  0.00000000000E+00 0. -1.
         -2   -1    0    0    0  501 -0.00000000000E+00 -0.00000000000E+00 -0.15809286141E+01  0.15809286141E+01  0.00000000000E+00 0.  1.
         23    2    1    2    0    0  0.00000000000E+00  0.00000000000E+00  0.11601905319E+04  0.11633523891E+04  0.85712956896E+02 0.  0.
          2    1    3    3  502    0  0.33214638224E+02 -0.24005570369E+02  0.75026742754E+03  0.75138584790E+03  0.00000000000E+00 0. -1.
         -2    1    3    3    0  502 -0.33214638224E+02  0.24005570369E+02  0.40992310437E+03  0.41196654123E+03  0.00000000000E+00 0.  1.
<mgrwt>
<rscale>  0 0.85712957E+02</rscale>
<asrwt>0</asrwt>
<pdfrwt beam="1">  1        2 0.17873339E+00 0.85712957E+02</pdfrwt>
<pdfrwt beam="2">  1       -2 0.24322071E-03 0.85712957E+02</pdfrwt>
<totfact> 0.29337496E+05</totfact>
</mgrwt>
</event>
<event>
 5    1  0.3963873E+001  0.9139723E+02  0.7546771E-02  0.1299503E+00
         -2   -1    0    0    0  501 -0.00000000000E+00  0.00000000000E+00  0.16078961082E+01  0.16078961082E+01  0.00000000000E+00 0.  1.
          2   -1    0    0  501    0  0.00000000000E+00 -0.00000000000E+00 -0.12988172497E+04  0.12988172497E+04  0.00000000000E+00 0. -1.
         23    2    1    2    0    0  0.00000000000E+00  0.00000000000E+00 -0.12972093536E+04  0.13004251458E+04  0.91397225364E+02 0.  0.
          2    1    3    3  502    0  0.26220245842E+02  0.16178586923E+02 -0.11288201805E+04  0.11292405624E+04  0.00000000000E+00 0. -1.
         -2    1    3    3    0  502 -0.26220245842E+02 -0.16178586923E+02 -0.16838917312E+03  0.17118458339E+03  0.00000000000E+00 0.  1.
<mgrwt>
<rscale>  0 0.91397225E+02</rscale>
<asrwt>0</asrwt>
<pdfrwt beam="2">  1        2 0.19981865E+00 0.91397225E+02</pdfrwt>
<pdfrwt beam="1">  1       -2 0.24736787E-03 0.91397225E+02</pdfrwt>
<totfact> 0.24418013E+05</totfact>
</mgrwt>
</event>
<event>
 5    1  0.3963873E+001  0.9047611E+02  0.7546771E-02  0.1301703E+00
         -2   -1    0    0    0  501 -0.00000000000E+00  0.00000000000E+00  0.69078107698E+00  0.69078107698E+00  0.00000000000E+00 0.  1.
          2   -1    0    0  501    0  0.00000000000E+00 -0.00000000000E+00 -0.29625616995E+04  0.29625616995E+04  0.00000000000E+00 0. -1.
         23    2    1    2    0    0  0.00000000000E+00  0.00000000000E+00 -0.29618709184E+04  0.29632524806E+04  0.90476108701E+02 0.  0.
          2    1    3    3  502    0  0.38508021813E+02  0.15753975646E+02 -0.20626146595E+04  0.20630342433E+04  0.00000000000E+00 0. -1.
         -2    1    3    3    0  502 -0.38508021813E+02 -0.15753975646E+02 -0.89925625889E+03  0.90021823723E+03  0.00000000000E+00 0.  1.
<mgrwt>
<rscale>  0 0.90476109E+02</rscale>
<asrwt>0</asrwt>
<pdfrwt beam="2">  1        2 0.45578631E+00 0.90476109E+02</pdfrwt>
<pdfrwt beam="1">  1       -2 0.10627224E-03 0.90476109E+02</pdfrwt>
<totfact> 0.10737229E+05</totfact>
</mgrwt>
</event>
<event>
 5    1  0.3963873E+001  0.9182025E+02  0.7546771E-02  0.1298503E+00
          1   -1    0    0  501    0  0.00000000000E+00  0.00000000000E+00  0.16839526136E+02  0.16839526136E+02  0.00000000000E+00 0. -1.
         -1   -1    0    0    0  501 -0.00000000000E+00 -0.00000000000E+00 -0.12516621500E+03  0.12516621500E+03  0.00000000000E+00 0.  1.
         23    2    1    2    0    0  0.00000000000E+00  0.00000000000E+00 -0.10832668886E+03  0.14200574113E+03  0.91820253729E+02 0.  0.
          2    1    3    3  502    0  0.17792795486E+02 -0.22797544283E+02  0.98256788743E+00  0.28935739773E+02  0.00000000000E+00 0. -1.
         -2    1    3    3    0  502 -0.17792795486E+02  0.22797544283E+02 -0.10930925675E+03  0.11307000136E+03  0.00000000000E+00 0.  1.
<mgrwt>
<rscale>  0 0.91820254E+02</rscale>
<asrwt>0</asrwt>
<pdfrwt beam="1">  1        1 0.25906962E-02 0.91820254E+02</pdfrwt>
<pdfrwt beam="2">  1       -1 0.19256341E-01 0.91820254E+02</pdfrwt>
<totfact> 0.76442820E+04</totfact>
</mgrwt>
</event>
<event>
 5    1  0.3963873E+001  0.9653714E+02  0.7546771E-02  0.1287751E+00
          1   -1    0    0  501    0  0.00000000000E+00  0.00000000000E+00  0.41240987220E+03  0.41240987220E+03  0.00000000000E+00 0. -1.
         -1   -1    0    0    0  501 -0.00000000000E+00 -0.00000000000E+00 -0.56493678195E+01  0.56493678195E+01  0.00000000000E+00 0.  1.
         23    2    1    2    0    0  0.00000000000E+00  0.00000000000E+00  0.40676050438E+03  0.41805924002E+03  0.96537144363E+02 0.  0.
          2    1    3    3  502    0 -0.26306076038E+02  0.10500670513E+02  0.34123675996E+02  0.44347479987E+02  0.00000000000E+00 0.  1.
         -2    1    3    3    0  502  0.26306076038E+02 -0.10500670513E+02  0.37263682838E+03  0.37371176003E+03  0.00000000000E+00 0. -1.
<mgrwt>
<rscale>  0 0.96537144E+02</rscale>
<asrwt>0</asrwt>
<pdfrwt beam="1">  1        1 0.63447649E-01 0.96537144E+02</pdfrwt>
<pdfrwt beam="2">  1       -1 0.86913384E-03 0.96537144E+02</pdfrwt>
<totfact> 0.11642712E+05</totfact>
</mgrwt>
</event>
<event>
 5    1  0.3963873E+001  0.9447685E+02  0.7546771E-02  0.1292359E+00
         -1   -1    0    0    0  501 -0.00000000000E+00  0.00000000000E+00  0.42281753600E+03  0.42281753600E+03  0.00000000000E+00 0.  1.
          1   -1    0    0  501    0  0.00000000000E+00 -0.00000000000E+00 -0.52776170364E+01  0.52776170364E+01  0.00000000000E+00 0. -1.
         23    2    1    2    0    0  0.00000000000E+00  0.00000000000E+00  0.41753991896E+03  0.42809515303E+03  0.94476854970E+02 0.  0.
          2    1    3    3  502    0 -0.39946259131E+02 -0.24907956066E+02  0.19101178599E+03  0.19672725353E+03  0.00000000000E+00 0. -1.
         -2    1    3    3    0  502  0.39946259131E+02  0.24907956066E+02  0.22652813297E+03  0.23136789951E+03  0.00000000000E+00 0.  1.
<mgrwt>
<rscale>  0 0.94476855E+02</rscale>
<asrwt>0</asrwt>
<pdfrwt beam="2">  1        1 0.81194142E-03 0.94476855E+02</pdfrwt>
<pdfrwt beam="1">  1       -1 0.65048825E-01 0.94476855E+02</pdfrwt>
<totfact> 0.47166231E+04</totfact>
</mgrwt>
</event>
<event>
 5    1  0.3963873E+001  0.8886629E+02  0.7546771E-02  0.1305621E+00
         -1   -1    0    0    0  501 -0.00000000000E+00  0.00000000000E+00  0.21170246731E+02  0.21170246731E+02  0.00000000000E+00 0.  1.
          1   -1    0    0  501    0  0.00000000000E+00 -0.00000000000E+00 -0.93258444794E+02  0.93258444794E+02  0.00000000000E+00 0. -1.
         23    2    1    2    0    0  0.00000000000E+00  0.00000000000E+00 -0.72088198063E+02  0.11442869152E+03  0.88866288006E+02 0.  0.
          2    1    3    3  502    0  0.11274389420E+02  0.42062223421E+02 -0.47413531683E+02  0.64376901778E+02  0.00000000000E+00 0. -1.
         -2    1    3    3    0  502 -0.11274389420E+02 -0.42062223421E+02 -0.24674666380E+02  0.50051789747E+02  0.00000000000E+00 0.  1.
<mgrwt>
<rscale>  0 0.88866288E+02</rscale>
<asrwt>0</asrwt>
<pdfrwt beam="2">  1        1 0.14347453E-01 0.88866288E+02</pdfrwt>
<pdfrwt beam="1">  1       -1 0.32569611E-02 0.88866288E+02</pdfrwt>
<totfact> 0.11073704E+05</totfact>
</mgrwt>
</event>
<event>
 5    1  0.3963873E+001  0.9353578E+02  0.7546771E-02  0.1294508E+00
          1   -1    0    0  501    0  0.00000000000E+00  0.00000000000E+00  0.18114238830E+02  0.18114238830E+02  0.00000000000E+00 0. -1.
         -1   -1    0    0    0  501 -0.00000000000E+00 -0.00000000000E+00 -0.12074676575E+03  0.12074676575E+03  0.00000000000E+00 0.  1.
         23    2    1    2    0    0  0.00000000000E+00  0.00000000000E+00 -0.10263252692E+03  0.13886100458E+03  0.93535784653E+02 0.  0.
          2    1    3    3  502    0 -0.38643740255E+02 -0.22736073919E+02 -0.31567044593E+02  0.54833803647E+02  0.00000000000E+00 0. -1.
         -2    1    3    3    0  502  0.38643740255E+02  0.22736073919E+02 -0.71065482325E+02  0.84027200931E+02  0.00000000000E+00 0.  1.
<mgrwt>
<rscale>  0 0.93535785E+02</rscale>
<asrwt>0</asrwt>
<pdfrwt beam="1">  1        1 0.27868060E-02 0.93535785E+02</pdfrwt>
<pdfrwt beam="2">  1       -1 0.18576425E-01 0.93535785E+02</pdfrwt>
<totfact> 0.73411696E+04</totfact>
</mgrwt>
</event>
<event>
 5    1  0.3963873E+001  0.9185105E+02  0.7546771E-02  0.1298430E+00
         -3   -1    0    0    0  501 -0.00000000000E+00  0.00000000000E+00  0.85036825615E+02  0.85036825615E+02  0.00000000000E+00 0.  1.
          3   -1    0    0  501    0  0.00000000000E+00 -0.00000000000E+00 -0.24802830133E+02  0.24802830133E+02  0.00000000000E+00 0. -1.
         23    2    1    2    0    0  0.00000000000E+00  0.00000000000E+00  0.60233995482E+02  0.10983965575E+03  0.91851052052E+02 0.  0.
          2    1    3    3  502    0 -0.13166647281E+01  0.35373147423E+02 -0.48737071703E+01  0.35731585274E+02  0.00000000000E+00 0. -1.
         -2    1    3    3    0  502  0.13166647281E+01 -0.35373147423E+02  0.65107702652E+02  0.74108070473E+02  0.00000000000E+00 0.  1.
<mgrwt>
<rscale>  0 0.91851052E+02</rscale>
<asrwt>0</asrwt>
<pdfrwt beam="2">  1        3 0.38158201E-02 0.91851052E+02</pdfrwt>
<pdfrwt beam="1">  1       -3 0.13082588E-01 0.91851052E+02</pdfrwt>
<totfact> 0.33283145E+04</totfact>
</mgrwt>
</event>
<event>
 5    1  0.3963873E+001  0.9834053E+02  0.7546771E-02  0.1283825E+00
          2   -1    0    0  501    0  0.00000000000E+00  0.00000000000E+00  0.24598103395E+03  0.24598103395E+03  0.00000000000E+00 0. -1.
         -2   -1    0    0    0  501 -0.00000000000E+00 -0.00000000000E+00 -0.98288678847E+01  0.98288678847E+01  0.00000000000E+00 0.  1.
         23    2    1    2    0    0  0.00000000000E+00  0.00000000000E+00  0.23615216606E+03  0.25580990183E+03  0.98340532535E+02 0.  0.
          2    1    3    3  502    0  0.35989020806E+02  0.66439121449E+01  0.20349763649E+03  0.20676227713E+03  0.00000000000E+00 0. -1.
         -2    1    3    3    0  502 -0.35989020806E+02 -0.66439121449E+01  0.32654529568E+02  0.49047624697E+02  0.00000000000E+00 0.  1.
<mgrwt>
<rscale>  0 0.98340533E+02</rscale>
<asrwt>0</asrwt>
<pdfrwt beam="1">  1        2 0.37843231E-01 0.98340533E+02</pdfrwt>
<pdfrwt beam="2">  1       -2 0.15121337E-02 0.98340533E+02</pdfrwt>
<totfact> 0.13611521E+05</totfact>
</mgrwt>
</event>
<event>
 5    1  0.3963873E+001  0.9014830E+02  0.7546771E-02  0.1302493E+00
         -1   -1    0    0    0  501 -0.00000000000E+00  0.00000000000E+00  0.10835139998E+02  0.10835139998E+02  0.00000000000E+00 0.  1.
          1   -1    0    0  501    0  0.00000000000E+00 -0.00000000000E+00 -0.18750831464E+03  0.18750831464E+03  0.00000000000E+00 0. -1.
         23    2    1    2    0    0  0.00000000000E+00  0.00000000000E+00 -0.17667317465E+03  0.19834345464E+03  0.90148296487E+02 0.  0.
          2    1    3    3  502    0 -0.16333333071E+02  0.16274744164E+02 -0.17355057078E+03  0.17507554279E+03  0.00000000000E+00 0. -1.
         -2    1    3    3    0  502  0.16333333071E+02 -0.16274744164E+02 -0.31226038659E+01  0.23267911847E+02  0.00000000000E+00 0.  1.
<mgrwt>
<rscale>  0 0.90148296E+02</rscale>
<asrwt>0</asrwt>
<pdfrwt beam="2">  1        1 0.28847433E-01 0.90148296E+02</pdfrwt>
<pdfrwt beam="1">  1       -1 0.16669446E-02 0.90148296E+02</pdfrwt>
<totfact> 0.12055205E+05</totfact>
</mgrwt>
</event>
<event>
 5    1  0.3963873E+001  0.8930028E+02  0.7546771E-02  0.1304555E+00
          1   -1    0    0  501    0  0.00000000000E+00  0.00000000000E+00  0.82018092286E+01  0.82018092286E+01  0.00000000000E+00 0.  1.
         -1   -1    0    0    0  501 -0.00000000000E+00 -0.00000000000E+00 -0.24307260895E+03  0.24307260895E+03  0.00000000000E+00 0. -1.
         23    2    1    2    0    0  0.00000000000E+00  0.00000000000E+00 -0.23487079972E+03  0.25127441818E+03  0.89300283701E+02 0.  0.
          2    1    3    3  502    0 -0.76340320749E+01  0.36213024471E+02 -0.18772297134E+03  0.19133628918E+03  0.00000000000E+00 0. -1.
         -2    1    3    3    0  502  0.76340320749E+01 -0.36213024471E+02 -0.47147828374E+02  0.59938128995E+02  0.00000000000E+00 0.  1.
<mgrwt>
<rscale>  0 0.89300284E+02</rscale>
<asrwt>0</asrwt>
<pdfrwt beam="1">  1        1 0.12618170E-02 0.89300284E+02</pdfrwt>
<pdfrwt beam="2">  1       -1 0.37395780E-01 0.89300284E+02</pdfrwt>
<totfact> 0.69020321E+04</totfact>
</mgrwt>
</event>
<event>
 5    1  0.3963873E+001  0.9230541E+02  0.7546771E-02  0.1297363E+00
          1   -1    0    0  501    0  0.00000000000E+00  0.00000000000E+00  0.20577885687E+02  0.20577885687E+02  0.00000000000E+00 0. -1.
         -1   -1    0    0    0  501 -0.00000000000E+00 -0.00000000000E+00 -0.10351268068E+03  0.10351268068E+03  0.00000000000E+00 0.  1.
         23    2    1    2    0    0  0.00000000000E+00  0.00000000000E+00 -0.82934794990E+02  0.12409056636E+03  0.92305408510E+02 0.  0.
          2    1    3    3  502    0  0.41408825730E+02  0.30810341705E+01 -0.14383261481E+02  0.43943848611E+02  0.00000000000E+00 0. -1.
         -2    1    3    3    0  502 -0.41408825730E+02 -0.30810341705E+01 -0.68551533509E+02  0.80146717752E+02  0.00000000000E+00 0.  1.
<mgrwt>
<rscale>  0 0.92305409E+02</rscale>
<asrwt>0</asrwt>
<pdfrwt beam="1">  1        1 0.31658285E-02 0.92305409E+02</pdfrwt>
<pdfrwt beam="2">  1       -1 0.15925028E-01 0.92305409E+02</pdfrwt>
<totfact> 0.78319501E+04</totfact>
</mgrwt>
</event>
<event>
 5    1  0.3963873E+001  0.9269513E+02  0.7546771E-02  0.1296453E+00
         -2   -1    0    0    0  501 -0.00000000000E+00  0.00000000000E+00  0.63024549178E+01  0.63024549178E+01  0.00000000000E+00 0.  1.
          2   -1    0    0  501    0  0.00000000000E+00 -0.00000000000E+00 -0.34083492028E+03  0.34083492028E+03  0.00000000000E+00 0. -1.
         23    2    1    2    0    0  0.00000000000E+00  0.00000000000E+00 -0.33453246536E+03  0.34713737520E+03  0.92695128663E+02 0.  0.
          2    1    3    3  502    0 -0.25696347046E+02 -0.36151200980E+02 -0.21763321179E+03  0.22210679066E+03  0.00000000000E+00 0. -1.
         -2    1    3    3    0  502  0.25696347046E+02  0.36151200980E+02 -0.11689925357E+03  0.12503058453E+03  0.00000000000E+00 0.  1.
<mgrwt>
<rscale>  0 0.92695129E+02</rscale>
<asrwt>0</asrwt>
<pdfrwt beam="2">  1        2 0.52436140E-01 0.92695129E+02</pdfrwt>
<pdfrwt beam="1">  1       -2 0.96960848E-03 0.92695129E+02</pdfrwt>
<totfact> 0.18024224E+05</totfact>
</mgrwt>
</event>
<event>
 5    1  0.3963873E+001  0.9249791E+02  0.7546771E-02  0.1296913E+00
          2   -1    0    0  501    0  0.00000000000E+00  0.00000000000E+00  0.10157021839E+04  0.10157021839E+04  0.00000000000E+00 0. -1.
         -2   -1    0    0    0  501 -0.00000000000E+00 -0.00000000000E+00 -0.21058985931E+01  0.21058985931E+01  0.00000000000E+00 0.  1.
         23    2    1    2    0    0  0.00000000000E+00  0.00000000000E+00  0.10135962853E+04  0.10178080825E+04  0.92497909168E+02 0.  0.
          2    1    3    3  502    0  0.43576146381E+02 -0.12873221014E+02  0.41190833266E+03  0.41440689529E+03  0.00000000000E+00 0. -1.
         -2    1    3    3    0  502 -0.43576146381E+02  0.12873221014E+02  0.60168795265E+03  0.60340118720E+03  0.00000000000E+00 0.  1.
<mgrwt>
<rscale>  0 0.92497909E+02</rscale>
<asrwt>0</asrwt>
<pdfrwt beam="1">  1        2 0.15626148E+00 0.92497909E+02</pdfrwt>
<pdfrwt beam="2">  1       -2 0.32398521E-03 0.92497909E+02</pdfrwt>
<totfact> 0.24085712E+05</totfact>
</mgrwt>
</event>
<event>
 5    1  0.3963873E+001  0.9086880E+02  0.7546771E-02  0.1300761E+00
          1   -1    0    0  501    0  0.00000000000E+00  0.00000000000E+00  0.11096562635E+02  0.11096562635E+02  0.00000000000E+00 0.  1.
         -1   -1    0    0    0  501 -0.00000000000E+00 -0.00000000000E+00 -0.18602920571E+03  0.18602920571E+03  0.00000000000E+00 0. -1.
         23    2    1    2    0    0  0.00000000000E+00  0.00000000000E+00 -0.17493264307E+03  0.19712576834E+03  0.90868800655E+02 0.  0.
          2    1    3    3  502    0 -0.29016813304E+02 -0.25758004896E+02 -0.13874894018E+03  0.14407192187E+03  0.00000000000E+00 0. -1.
         -2    1    3    3    0  502  0.29016813304E+02  0.25758004896E+02 -0.36183702894E+02  0.53053846473E+02  0.00000000000E+00 0.  1.
<mgrwt>
<rscale>  0 0.90868801E+02</rscale>
<asrwt>0</asrwt>
<pdfrwt beam="1">  1        1 0.17071635E-02 0.90868801E+02</pdfrwt>
<pdfrwt beam="2">  1       -1 0.28619877E-01 0.90868801E+02</pdfrwt>
<totfact> 0.71466781E+04</totfact>
</mgrwt>
</event>
<event>
 5    1  0.3963873E+001  0.9171477E+02  0.7546771E-02  0.1298751E+00
          2   -1    0    0  501    0  0.00000000000E+00  0.00000000000E+00  0.26193025017E+01  0.26193025017E+01  0.00000000000E+00 0. -1.
         -2   -1    0    0    0  501 -0.00000000000E+00 -0.00000000000E+00 -0.80284729510E+03  0.80284729510E+03  0.00000000000E+00 0.  1.
         23    2    1    2    0    0  0.00000000000E+00  0.00000000000E+00 -0.80022799260E+03  0.80546659760E+03  0.91714773696E+02 0.  0.
          2    1    3    3  502    0  0.39244565588E+02 -0.26248347596E+01 -0.19305385228E+03  0.19701983546E+03  0.00000000000E+00 0. -1.
         -2    1    3    3    0  502 -0.39244565588E+02  0.26248347596E+01 -0.60717414032E+03  0.60844676214E+03  0.00000000000E+00 0.  1.
<mgrwt>
<rscale>  0 0.91714774E+02</rscale>
<asrwt>0</asrwt>
<pdfrwt beam="1">  1        2 0.40296978E-03 0.91714774E+02</pdfrwt>
<pdfrwt beam="2">  1       -2 0.12351492E+00 0.91714774E+02</pdfrwt>
<totfact> 0.23397202E+04</totfact>
</mgrwt>
</event>
<event>
 5    1  0.3963873E+001  0.9387672E+02  0.7546771E-02  0.1293726E+00
         -1   -1    0    0    0  501 -0.00000000000E+00  0.00000000000E+00  0.16506788313E+03  0.16506788313E+03  0.00000000000E+00 0.  1.
          1   -1    0    0  501    0  0.00000000000E+00 -0.00000000000E+00 -0.13347295530E+02  0.13347295530E+02  0.00000000000E+00 0. -1.
         23    2    1    2    0    0  0.00000000000E+00  0.00000000000E+00  0.15172058760E+03  0.17841517866E+03  0.93876723817E+02 0.  0.
          2    1    3    3  502    0  0.48273280961E+01 -0.46566287322E+02  0.69418769315E+02  0.83729849783E+02  0.00000000000E+00 0. -1.
         -2    1    3    3    0  502 -0.48273280961E+01  0.46566287322E+02  0.82301818287E+02  0.94685328878E+02  0.00000000000E+00 0.  1.
<mgrwt>
<rscale>  0 0.93876724E+02</rscale>
<asrwt>0</asrwt>
<pdfrwt beam="2">  1        1 0.20534302E-02 0.93876724E+02</pdfrwt>
<pdfrwt beam="1">  1       -1 0.25395058E-01 0.93876724E+02</pdfrwt>
<totfact> 0.67732709E+04</totfact>
</mgrwt>
</event>
<event>
 5    1  0.3963873E+001  0.9148289E+02  0.7546771E-02  0.1299300E+00
         -2   -1    0    0    0  501 -0.00000000000E+00  0.00000000000E+00  0.24486240382E+03  0.24486240382E+03  0.00000000000E+00 0.  1.
          2   -1    0    0  501    0  0.00000000000E+00 -0.00000000000E+00 -0.85447157118E+01  0.85447157118E+01  0.00000000000E+00 0. -1.
         23    2    1    2    0    0  0.00000000000E+00  0.00000000000E+00  0.23631768811E+03  0.25340711953E+03  0.91482886468E+02 0.  0.
          2    1    3    3  502    0  0.32212955400E+02 -0.17054701047E+01  0.28328271304E+02  0.42931038642E+02  0.00000000000E+00 0. -1.
         -2    1    3    3    0  502 -0.32212955400E+02  0.17054701047E+01  0.20798941680E+03  0.21047608089E+03  0.00000000000E+00 0.  1.
<mgrwt>
<rscale>  0 0.91482886E+02</rscale>
<asrwt>0</asrwt>
<pdfrwt beam="2">  1        2 0.13145718E-02 0.91482886E+02</pdfrwt>
<pdfrwt beam="1">  1       -2 0.37671134E-01 0.91482886E+02</pdfrwt>
<totfact> 0.56271968E+04</totfact>
</mgrwt>
</event>
<event>
 5    1  0.3963873E+001  0.9255085E+02  0.7546771E-02  0.1296789E+00
          4   -1    0    0  501    0  0.00000000000E+00  0.00000000000E+00  0.49977730164E+02  0.49977730164E+02  0.00000000000E+00 0. -1.
         -4   -1    0    0    0  501 -0.00000000000E+00 -0.00000000000E+00 -0.42847384306E+02  0.42847384306E+02  0.00000000000E+00 0.  1.
         23    2    1    2    0    0  0.00000000000E+00  0.00000000000E+00  0.71303458587E+01  0.92825114470E+02  0.92550851127E+02 0.  0.
          2    1    3    3  502    0 -0.39584070108E+02 -0.10931926120E+02 -0.17828988034E+02  0.44769168289E+02  0.00000000000E+00 0. -1.
         -2    1    3    3    0  502  0.39584070108E+02  0.10931926120E+02  0.24959333892E+02  0.48055946181E+02  0.00000000000E+00 0.  1.
<mgrwt>
<rscale>  0 0.92550851E+02</rscale>
<asrwt>0</asrwt>
<pdfrwt beam="1">  1        4 0.76888815E-02 0.92550851E+02</pdfrwt>
<pdfrwt beam="2">  1       -4 0.65919053E-02 0.92550851E+02</pdfrwt>
<totfact> 0.25836820E+04</totfact>
</mgrwt>
</event>
<event>
 5    1  0.3963873E+001  0.9238158E+02  0.7546771E-02  0.1297185E+00
         -2   -1    0    0    0  501 -0.00000000000E+00  0.00000000000E+00  0.12292843659E+02  0.12292843659E+02  0.00000000000E+00 0.  1.
          2   -1    0    0  501    0  0.00000000000E+00 -0.00000000000E+00 -0.17356352196E+03  0.17356352196E+03  0.00000000000E+00 0. -1.
         23    2    1    2    0    0  0.00000000000E+00  0.00000000000E+00 -0.16127067830E+03  0.18585636562E+03  0.92381583454E+02 0.  0.
          2    1    3    3  502    0 -0.25186631100E+02 -0.22976789684E+02 -0.17935490152E+02  0.38522474704E+02  0.00000000000E+00 0.  1.
         -2    1    3    3    0  502  0.25186631100E+02  0.22976789684E+02 -0.14333518815E+03  0.14733389092E+03  0.00000000000E+00 0. -1.
<mgrwt>
<rscale>  0 0.92381583E+02</rscale>
<asrwt>0</asrwt>
<pdfrwt beam="2">  1        2 0.26702079E-01 0.92381583E+02</pdfrwt>
<pdfrwt beam="1">  1       -2 0.18912068E-02 0.92381583E+02</pdfrwt>
<totfact> 0.14191061E+05</totfact>
</mgrwt>
</event>
<event>
 5    1  0.3963873E+001  0.9012557E+02  0.7546771E-02  0.1302548E+00
          2   -1    0    0  501    0  0.00000000000E+00  0.00000000000E+00  0.61076154886E+03  0.61076154886E+03  0.00000000000E+00 0. -1.
         -2   -1    0    0    0  501 -0.00000000000E+00 -0.00000000000E+00 -0.33247908436E+01  0.33247908436E+01  0.00000000000E+00 0.  1.
         23    2    1    2    0    0  0.00000000000E+00  0.00000000000E+00  0.60743675801E+03  0.61408633970E+03  0.90125565856E+02 0.  0.
          2    1    3    3  502    0  0.31004266573E+02 -0.12723606217E+01  0.52636724340E+03  0.52728109995E+03  0.00000000000E+00 0. -1.
         -2    1    3    3    0  502 -0.31004266573E+02  0.12723606217E+01  0.81069514614E+02  0.86805239744E+02  0.00000000000E+00 0.  1.
<mgrwt>
<rscale>  0 0.90125566E+02</rscale>
<asrwt>0</asrwt>
<pdfrwt beam="1">  1        2 0.93963226E-01 0.90125566E+02</pdfrwt>
<pdfrwt beam="2">  1       -2 0.51150677E-03 0.90125566E+02</pdfrwt>
<totfact> 0.23610562E+05</totfact>
</mgrwt>
</event>
<event>
 5    1  0.3963873E+001  0.7703589E+02  0.7546771E-02  0.1337680E+00
         -2   -1    0    0    0  501 -0.00000000000E+00  0.00000000000E+00  0.17358896889E+02  0.17358896889E+02  0.00000000000E+00 0.  1.
          2   -1    0    0  501    0  0.00000000000E+00 -0.00000000000E+00 -0.85468116294E+02  0.85468116294E+02  0.00000000000E+00 0. -1.
         23    2    1    2    0    0  0.00000000000E+00  0.00000000000E+00 -0.68109219405E+02  0.10282701318E+03  0.77035893401E+02 0.  0.
          2    1    3    3  502    0  0.24967228069E+02  0.28832373786E+02 -0.41238225311E+02  0.56171696452E+02  0.00000000000E+00 0. -1.
         -2    1    3    3    0  502 -0.24967228069E+02 -0.28832373786E+02 -0.26870994094E+02  0.46655316730E+02  0.00000000000E+00 0.  1.
<mgrwt>
<rscale>  0 0.77035893E+02</rscale>
<asrwt>0</asrwt>
<pdfrwt beam="2">  1        2 0.13148941E-01 0.77035893E+02</pdfrwt>
<pdfrwt beam="1">  1       -2 0.26705996E-02 0.77035893E+02</pdfrwt>
<totfact> 0.18560658E+05</totfact>
</mgrwt>
</event>
<event>
 5    1  0.3963873E+001  0.9714783E+02  0.7546771E-02  0.1286411E+00
          1   -1    0    0  501    0  0.00000000000E+00  0.00000000000E+00  0.57913596079E+02  0.57913596079E+02  0.00000000000E+00 0. -1.
         -1   -1    0    0    0  501 -0.00000000000E+00 -0.00000000000E+00 -0.40740441240E+02  0.40740441240E+02  0.00000000000E+00 0.  1.
         23    2    1    2    0    0  0.00000000000E+00  0.00000000000E+00  0.17173154840E+02  0.98654037319E+02  0.97147834933E+02 0.  0.
          2    1    3    3  502    0 -0.40464701201E+02 -0.23610545820E+02  0.21614176424E+02  0.51594791788E+02  0.00000000000E+00 0. -1.
         -2    1    3    3    0  502  0.40464701201E+02  0.23610545820E+02 -0.44410215839E+01  0.47059245531E+02  0.00000000000E+00 0.  1.
<mgrwt>
<rscale>  0 0.97147835E+02</rscale>
<asrwt>0</asrwt>
<pdfrwt beam="1">  1        1 0.89097841E-02 0.97147835E+02</pdfrwt>
<pdfrwt beam="2">  1       -1 0.62677602E-02 0.97147835E+02</pdfrwt>
<totfact> 0.80291382E+04</totfact>
</mgrwt>
</event>
<event>
 5    1  0.3963873E+001  0.9280154E+02  0.7546771E-02  0.1296206E+00
         -2   -1    0    0    0  501 -0.00000000000E+00  0.00000000000E+00  0.24704726907E+01  0.24704726907E+01  0.00000000000E+00 0.  1.
          2   -1    0    0  501    0  0.00000000000E+00 -0.00000000000E+00 -0.87150585511E+03  0.87150585511E+03  0.00000000000E+00 0. -1.
         23    2    1    2    0    0  0.00000000000E+00  0.00000000000E+00 -0.86903538242E+03  0.87397632780E+03  0.92801539101E+02 0.  0.
          2    1    3    3  502    0  0.38536017991E+02  0.39271553302E+01 -0.67509948708E+03  0.67620985255E+03  0.00000000000E+00 0. -1.
         -2    1    3    3    0  502 -0.38536017991E+02 -0.39271553302E+01 -0.19393589534E+03  0.19776647525E+03  0.00000000000E+00 0.  1.
<mgrwt>
<rscale>  0 0.92801539E+02</rscale>
<asrwt>0</asrwt>
<pdfrwt beam="2">  1        2 0.13407785E+00 0.92801539E+02</pdfrwt>
<pdfrwt beam="1">  1       -2 0.38007263E-03 0.92801539E+02</pdfrwt>
<totfact> 0.23573376E+05</totfact>
</mgrwt>
</event>
<event>
 5    1  0.3963873E+001  0.8904345E+02  0.7546771E-02  0.1305185E+00
         -1   -1    0    0    0  501 -0.00000000000E+00  0.00000000000E+00  0.35783823014E+02  0.35783823014E+02  0.00000000000E+00 0.  1.
          1   -1    0    0  501    0  0.00000000000E+00 -0.00000000000E+00 -0.55393300027E+02  0.55393300027E+02  0.00000000000E+00 0. -1.
         23    2    1    2    0    0  0.00000000000E+00  0.00000000000E+00 -0.19609477013E+02  0.91177123041E+02  0.89043451063E+02 0.  0.
          2    1    3    3  502    0 -0.36306469310E+02 -0.24291450181E+02 -0.99927259605E+00  0.43694768696E+02  0.00000000000E+00 0.  1.
         -2    1    3    3    0  502  0.36306469310E+02  0.24291450181E+02 -0.18610204417E+02  0.47482354345E+02  0.00000000000E+00 0. -1.
<mgrwt>
<rscale>  0 0.89043451E+02</rscale>
<asrwt>0</asrwt>
<pdfrwt beam="2">  1        1 0.85220461E-02 0.89043451E+02</pdfrwt>
<pdfrwt beam="1">  1       -1 0.55052036E-02 0.89043451E+02</pdfrwt>
<totfact> 0.10168389E+05</totfact>
</mgrwt>
</event>
<event>
 5    1  0.3963873E+001  0.9049230E+02  0.7546771E-02  0.1301664E+00
          3   -1    0    0  501    0  0.00000000000E+00  0.00000000000E+00  0.15294884685E+02  0.15294884685E+02  0.00000000000E+00 0. -1.
         -3   -1    0    0    0  501 -0.00000000000E+00 -0.00000000000E+00 -0.13384959186E+03  0.13384959186E+03  0.00000000000E+00 0.  1.
         23    2    1    2    0    0  0.00000000000E+00  0.00000000000E+00 -0.11855470718E+03  0.14914447655E+03  0.90492299620E+02 0.  0.
          2    1    3    3  502    0  0.28649246460E+02  0.25920482400E+02 -0.20464897282E+02  0.43720278491E+02  0.00000000000E+00 0. -1.
         -2    1    3    3    0  502 -0.28649246460E+02 -0.25920482400E+02 -0.98089809894E+02  0.10542419806E+03  0.00000000000E+00 0.  1.
<mgrwt>
<rscale>  0 0.90492300E+02</rscale>
<asrwt>0</asrwt>
<pdfrwt beam="1">  1        3 0.23530592E-02 0.90492300E+02</pdfrwt>
<pdfrwt beam="2">  1       -3 0.20592244E-01 0.90492300E+02</pdfrwt>
<totfact> 0.32006252E+04</totfact>
</mgrwt>
</event>
<event>
 5    1  0.3963873E+001  0.9149119E+02  0.7546771E-02  0.1299280E+00
         -1   -1    0    0    0  501 -0.00000000000E+00  0.00000000000E+00  0.30437826726E+02  0.30437826726E+02  0.00000000000E+00 0.  1.
          1   -1    0    0  501    0  0.00000000000E+00 -0.00000000000E+00 -0.68751936316E+02  0.68751936316E+02  0.00000000000E+00 0. -1.
         23    2    1    2    0    0  0.00000000000E+00  0.00000000000E+00 -0.38314109590E+02  0.99189763042E+02  0.91491191372E+02 0.  0.
          2    1    3    3  502    0 -0.17875624857E+02  0.32394929744E+02 -0.48322182467E+02  0.60860518857E+02  0.00000000000E+00 0. -1.
         -2    1    3    3    0  502  0.17875624857E+02 -0.32394929744E+02  0.10008072877E+02  0.38329244186E+02  0.00000000000E+00 0.  1.
<mgrwt>
<rscale>  0 0.91491191E+02</rscale>
<asrwt>0</asrwt>
<pdfrwt beam="2">  1        1 0.10577221E-01 0.91491191E+02</pdfrwt>
<pdfrwt beam="1">  1       -1 0.46827426E-02 0.91491191E+02</pdfrwt>
<totfact> 0.97462463E+04</totfact>
</mgrwt>
</event>
<event>
 5    1  0.3963873E+001  0.9263903E+02  0.7546771E-02  0.1296584E+00
          2   -1    0    0  501    0  0.00000000000E+00  0.00000000000E+00  0.10570436458E+04  0.10570436458E+04  0.00000000000E+00 0. -1.
         -2   -1    0    0    0  501 -0.00000000000E+00 -0.00000000000E+00 -0.20297151607E+01  0.20297151607E+01  0.00000000000E+00 0.  1.
         23    2    1    2    0    0  0.00000000000E+00  0.00000000000E+00  0.10550139306E+04  0.10590733609E+04  0.92639030939E+02 0.  0.
          2    1    3    3  502    0  0.26124297378E+02 -0.16854948293E+02  0.92003974056E+03  0.92056487681E+03  0.00000000000E+00 0. -1.
         -2    1    3    3    0  502 -0.26124297378E+02  0.16854948293E+02  0.13497419003E+03  0.13850848410E+03  0.00000000000E+00 0.  1.
<mgrwt>
<rscale>  0 0.92639031E+02</rscale>
<asrwt>0</asrwt>
<pdfrwt beam="1">  1        2 0.16262166E+00 0.92639031E+02</pdfrwt>
<pdfrwt beam="2">  1       -2 0.31226472E-03 0.92639031E+02</pdfrwt>
<totfact> 0.24005636E+05</totfact>
</mgrwt>
</event>
<event>
 5    1  0.3963873E+001  0.8924661E+02  0.7546771E-02  0.1304686E+00
          2   -1    0    0  501    0  0.00000000000E+00  0.00000000000E+00  0.29455626256E+03  0.29455626256E+03  0.00000000000E+00 0. -1.
         -2   -1    0    0    0  501 -0.00000000000E+00 -0.00000000000E+00 -0.67601324997E+01  0.67601324997E+01  0.00000000000E+00 0.  1.
         23    2    1    2    0    0  0.00000000000E+00  0.00000000000E+00  0.28779613006E+03  0.30131639506E+03  0.89246610323E+02 0.  0.
          2    1    3    3  502    0  0.43819166728E+02 -0.81775313566E+01  0.15085666450E+03  0.15730456006E+03  0.00000000000E+00 0. -1.
         -2    1    3    3    0  502 -0.43819166728E+02  0.81775313566E+01  0.13693946556E+03  0.14401183500E+03  0.00000000000E+00 0.  1.
<mgrwt>
<rscale>  0 0.89246610E+02</rscale>
<asrwt>0</asrwt>
<pdfrwt beam="1">  1        2 0.45316338E-01 0.89246610E+02</pdfrwt>
<pdfrwt beam="2">  1       -2 0.10400206E-02 0.89246610E+02</pdfrwt>
<totfact> 0.18890759E+05</totfact>
</mgrwt>
</event>
<event>
 5    1  0.3963873E+001  0.1216643E+03  0.7546771E-02  0.1240376E+00
          2   -1    0    0  501    0  0.00000000000E+00  0.00000000000E+00  0.11416709666E+04  0.11416709666E+04  0.00000000000E+00 0. -1.
         -2   -1    0    0    0  501 -0.00000000000E+00 -0.00000000000E+00 -0.32413483555E+01  0.32413483555E+01  0.00000000000E+00 0.  1.
         23    2    1    2    0    0  0.00000000000E+00  0.00000000000E+00  0.11384296183E+04  0.11449123150E+04  0.12166434663E+03 0.  0.
          2    1    3    3  502    0  0.46938773257E+02 -0.11121810966E+02  0.91798603803E+03  0.91925258179E+03  0.00000000000E+00 0. -1.
         -2    1    3    3    0  502 -0.46938773257E+02  0.11121810966E+02  0.22044358026E+03  0.22565973321E+03  0.00000000000E+00 0.  1.
<mgrwt>
<rscale>  0 0.12166435E+03</rscale>
<asrwt>0</asrwt>
<pdfrwt beam="1">  1        2 0.17564137E+00 0.12166435E+03</pdfrwt>
<pdfrwt beam="2">  1       -2 0.49866989E-03 0.12166435E+03</pdfrwt>
<totfact> 0.11562493E+05</totfact>
</mgrwt>
</event>
<event>
 5    1  0.3963873E+001  0.9404402E+02  0.7546771E-02  0.1293344E+00
         -1   -1    0    0    0  501 -0.00000000000E+00  0.00000000000E+00  0.25083487890E+03  0.25083487890E+03  0.00000000000E+00 0.  1.
          1   -1    0    0  501    0  0.00000000000E+00 -0.00000000000E+00 -0.88148398426E+01  0.88148398426E+01  0.00000000000E+00 0. -1.
         23    2    1    2    0    0  0.00000000000E+00  0.00000000000E+00  0.24202003906E+03  0.25964971874E+03  0.94044017023E+02 0.  0.
          2    1    3    3  502    0  0.19035948938E+01  0.46914428290E+02  0.12803932108E+03  0.13637688586E+03  0.00000000000E+00 0. -1.
         -2    1    3    3    0  502 -0.19035948938E+01 -0.46914428290E+02  0.11398071798E+03  0.12327283288E+03  0.00000000000E+00 0.  1.
<mgrwt>
<rscale>  0 0.94044017E+02</rscale>
<asrwt>0</asrwt>
<pdfrwt beam="2">  1        1 0.13561294E-02 0.94044017E+02</pdfrwt>
<pdfrwt beam="1">  1       -1 0.38589976E-01 0.94044017E+02</pdfrwt>
<totfact> 0.59659204E+04</totfact>
</mgrwt>
</event>
<event>
 5    1  0.3963873E+001  0.9239275E+02  0.7546771E-02  0.1297159E+00
         -1   -1    0    0    0  501 -0.00000000000E+00  0.00000000000E+00  0.15841831398E+01  0.15841831398E+01  0.00000000000E+00 0.  1.
          1   -1    0    0  501    0  0.00000000000E+00 -0.00000000000E+00 -0.13471326595E+04  0.13471326595E+04  0.00000000000E+00 0. -1.
         23    2    1    2    0    0  0.00000000000E+00  0.00000000000E+00 -0.13455484764E+04  0.13487168426E+04  0.92392745305E+02 0.  0.
          2    1    3    3  502    0 -0.40814315482E+02 -0.97446698339E+01 -0.95482933630E+03  0.95575092383E+03  0.00000000000E+00 0. -1.
         -2    1    3    3    0  502  0.40814315482E+02  0.97446698339E+01 -0.39071914006E+03  0.39296591881E+03  0.00000000000E+00 0.  1.
<mgrwt>
<rscale>  0 0.92392745E+02</rscale>
<asrwt>0</asrwt>
<pdfrwt beam="2">  1        1 0.20725073E+00 0.92392745E+02</pdfrwt>
<pdfrwt beam="1">  1       -1 0.24372101E-03 0.92392745E+02</pdfrwt>
<totfact> 0.11533866E+05</totfact>
</mgrwt>
</event>
<event>
 5    1  0.3963873E+001  0.8692631E+02  0.7546771E-02  0.1310471E+00
          2   -1    0    0  501    0  0.00000000000E+00  0.00000000000E+00  0.37152635373E+03  0.37152635373E+03  0.00000000000E+00 0. -1.
         -2   -1    0    0    0  501 -0.00000000000E+00 -0.00000000000E+00 -0.50845541980E+01  0.50845541980E+01  0.00000000000E+00 0.  1.
         23    2    1    2    0    0  0.00000000000E+00  0.00000000000E+00  0.36644179954E+03  0.37661090793E+03  0.86926310897E+02 0.  0.
          2    1    3    3  502    0  0.14928036112E+02  0.23521516268E+02  0.32775725874E+03  0.32893909565E+03  0.00000000000E+00 0. -1.
         -2    1    3    3    0  502 -0.14928036112E+02 -0.23521516268E+02  0.38684540795E+02  0.47671812282E+02  0.00000000000E+00 0.  1.
<mgrwt>
<rscale>  0 0.86926311E+02</rscale>
<asrwt>0</asrwt>
<pdfrwt beam="1">  1        2 0.57157879E-01 0.86926311E+02</pdfrwt>
<pdfrwt beam="2">  1       -2 0.78223940E-03 0.86926311E+02</pdfrwt>
<totfact> 0.22058748E+05</totfact>
</mgrwt>
</event>
<event>
 5    1  0.3963873E+001  0.9047765E+02  0.7546771E-02  0.1301699E+00
         -2   -1    0    0    0  501 -0.00000000000E+00  0.00000000000E+00  0.16050035050E+02  0.16050035050E+02  0.00000000000E+00 0.  1.
          2   -1    0    0  501    0  0.00000000000E+00 -0.00000000000E+00 -0.12751069602E+03  0.12751069602E+03  0.00000000000E+00 0. -1.
         23    2    1    2    0    0  0.00000000000E+00  0.00000000000E+00 -0.11146066097E+03  0.14356073107E+03  0.90477646750E+02 0.  0.
          2    1    3    3  502    0  0.36131981426E+02 -0.25842685010E+02 -0.69304410915E+02  0.82319291922E+02  0.00000000000E+00 0. -1.
         -2    1    3    3    0  502 -0.36131981426E+02  0.25842685010E+02 -0.42156250058E+02  0.61241439151E+02  0.00000000000E+00 0.  1.
<mgrwt>
<rscale>  0 0.90477647E+02</rscale>
<asrwt>0</asrwt>
<pdfrwt beam="2">  1        2 0.19617030E-01 0.90477647E+02</pdfrwt>
<pdfrwt beam="1">  1       -2 0.24692362E-02 0.90477647E+02</pdfrwt>
<totfact> 0.13524797E+05</totfact>
</mgrwt>
</event>
<event>
 5    1  0.3963873E+001  0.9261214E+02  0.7546771E-02  0.1296647E+00
         -3   -1    0    0    0  501 -0.00000000000E+00  0.00000000000E+00  0.18168329083E+02  0.18168329083E+02  0.00000000000E+00 0.  1.
          3   -1    0    0  501    0  0.00000000000E+00 -0.00000000000E+00 -0.11802143472E+03  0.11802143472E+03  0.00000000000E+00 0. -1.
         23    2    1    2    0    0  0.00000000000E+00  0.00000000000E+00 -0.99853105636E+02  0.13618976380E+03  0.92612143153E+02 0.  0.
          2    1    3    3  502    0  0.43052785447E+02  0.13644651028E+01 -0.74919147080E+02  0.86419226443E+02  0.00000000000E+00 0. -1.
         -2    1    3    3    0  502 -0.43052785447E+02 -0.13644651028E+01 -0.24933958556E+02  0.49770537360E+02  0.00000000000E+00 0.  1.
<mgrwt>
<rscale>  0 0.92612143E+02</rscale>
<asrwt>0</asrwt>
<pdfrwt beam="2">  1        3 0.18157143E-01 0.92612143E+02</pdfrwt>
<pdfrwt beam="1">  1       -3 0.27951277E-02 0.92612143E+02</pdfrwt>
<totfact> 0.30836131E+04</totfact>
</mgrwt>
</event>
<event>
 5    1  0.3963873E+001  0.8828364E+02  0.7546771E-02  0.1307062E+00
          1   -1    0    0  501    0  0.00000000000E+00  0.00000000000E+00  0.27052869964E+03  0.27052869964E+03  0.00000000000E+00 0. -1.
         -1   -1    0    0    0  501 -0.00000000000E+00 -0.00000000000E+00 -0.72025646818E+01  0.72025646818E+01  0.00000000000E+00 0.  1.
         23    2    1    2    0    0  0.00000000000E+00  0.00000000000E+00  0.26332613496E+03  0.27773126432E+03  0.88283644180E+02 0.  0.
          2    1    3    3  502    0  0.31605539145E+01  0.32235356089E+02  0.22600815965E+03  0.22831731321E+03  0.00000000000E+00 0. -1.
         -2    1    3    3    0  502 -0.31605539145E+01 -0.32235356089E+02  0.37317975305E+02  0.49413951108E+02  0.00000000000E+00 0.  1.
<mgrwt>
<rscale>  0 0.88283644E+02</rscale>
<asrwt>0</asrwt>
<pdfrwt beam="1">  1        1 0.41619792E-01 0.88283644E+02</pdfrwt>
<pdfrwt beam="2">  1       -1 0.11080871E-02 0.88283644E+02</pdfrwt>
<totfact> 0.13684851E+05</totfact>
</mgrwt>
</event>
<event>
 5    1  0.3963873E+001  0.9179112E+02  0.7546771E-02  0.1298571E+00
          3   -1    0    0  501    0  0.00000000000E+00  0.00000000000E+00  0.88669167914E+03  0.88669167914E+03  0.00000000000E+00 0. -1.
         -3   -1    0    0    0  501 -0.00000000000E+00 -0.00000000000E+00 -0.23755746532E+01  0.23755746532E+01  0.00000000000E+00 0.  1.
         23    2    1    2    0    0  0.00000000000E+00  0.00000000000E+00  0.88431610449E+03  0.88906725380E+03  0.91791116742E+02 0.  0.
          2    1    3    3  502    0  0.32568172300E+02 -0.27435065470E+02  0.60796116573E+03  0.60945069341E+03  0.00000000000E+00 0. -1.
         -2    1    3    3    0  502 -0.32568172300E+02  0.27435065470E+02  0.27635493876E+03  0.27961656038E+03  0.00000000000E+00 0.  1.
<mgrwt>
<rscale>  0 0.91791117E+02</rscale>
<asrwt>0</asrwt>
<pdfrwt beam="1">  1        3 0.13641384E+00 0.91791117E+02</pdfrwt>
<pdfrwt beam="2">  1       -3 0.36547373E-03 0.91791117E+02</pdfrwt>
<totfact> 0.11059858E+04</totfact>
</mgrwt>
</event>
<event>
 5    1  0.3963873E+001  0.8867445E+02  0.7546771E-02  0.1306094E+00
          1   -1    0    0  501    0  0.00000000000E+00  0.00000000000E+00  0.83780625718E+01  0.83780625718E+01  0.00000000000E+00 0. -1.
         -1   -1    0    0    0  501 -0.00000000000E+00 -0.00000000000E+00 -0.23463533404E+03  0.23463533404E+03  0.00000000000E+00 0.  1.
         23    2    1    2    0    0  0.00000000000E+00  0.00000000000E+00 -0.22625727147E+03  0.24301339661E+03  0.88674449762E+02 0.  0.
          2    1    3    3  502    0 -0.24748156263E+02 -0.35049655393E+02 -0.82508404284E+02  0.92997776097E+02  0.00000000000E+00 0. -1.
         -2    1    3    3    0  502  0.24748156263E+02  0.35049655393E+02 -0.14374886719E+03  0.15001562052E+03  0.00000000000E+00 0.  1.
<mgrwt>
<rscale>  0 0.88674450E+02</rscale>
<asrwt>0</asrwt>
<pdfrwt beam="1">  1        1 0.12889329E-02 0.88674450E+02</pdfrwt>
<pdfrwt beam="2">  1       -1 0.36097738E-01 0.88674450E+02</pdfrwt>
<totfact> 0.71111265E+04</totfact>
</mgrwt>
</event>
<event>
 5    1  0.3963873E+001  0.9402912E+02  0.7546771E-02  0.1293378E+00
         -1   -1    0    0    0  501 -0.00000000000E+00  0.00000000000E+00  0.32396601750E+01  0.32396601750E+01  0.00000000000E+00 0.  1.
          1   -1    0    0  501    0  0.00000000000E+00 -0.00000000000E+00 -0.68228417651E+03  0.68228417651E+03  0.00000000000E+00 0. -1.
         23    2    1    2    0    0  0.00000000000E+00  0.00000000000E+00 -0.67904451633E+03  0.68552383668E+03  0.94029120482E+02 0.  0.
          2    1    3    3  502    0  0.13493324210E+02 -0.36297657425E+02 -0.53389149253E+03  0.53529404586E+03  0.00000000000E+00 0. -1.
         -2    1    3    3    0  502 -0.13493324210E+02  0.36297657425E+02 -0.14515302380E+03  0.15022979083E+03  0.00000000000E+00 0.  1.
<mgrwt>
<rscale>  0 0.94029120E+02</rscale>
<asrwt>0</asrwt>
<pdfrwt beam="2">  1        1 0.10496680E+00 0.94029120E+02</pdfrwt>
<pdfrwt beam="1">  1       -1 0.49840922E-03 0.94029120E+02</pdfrwt>
<totfact> 0.13104150E+05</totfact>
</mgrwt>
</event>
<event>
 5    1  0.3963873E+001  0.9134480E+02  0.7546771E-02  0.1299627E+00
         -2   -1    0    0    0  501 -0.00000000000E+00  0.00000000000E+00  0.51501698274E+03  0.51501698274E+03  0.00000000000E+00 0. -1.
          2   -1    0    0  501    0  0.00000000000E+00 -0.00000000000E+00 -0.40502896987E+01  0.40502896987E+01  0.00000000000E+00 0.  1.
         23    2    1    2    0    0  0.00000000000E+00  0.00000000000E+00  0.51096669304E+03  0.51906727244E+03  0.91344796893E+02 0.  0.
          2    1    3    3  502    0  0.11329138603E+02 -0.19840826831E+02  0.48020901429E+03  0.48075222848E+03  0.00000000000E+00 0. -1.
         -2    1    3    3    0  502 -0.11329138603E+02  0.19840826831E+02  0.30757678756E+02  0.38315043955E+02  0.00000000000E+00 0.  1.
<mgrwt>
<rscale>  0 0.91344797E+02</rscale>
<asrwt>0</asrwt>
<pdfrwt beam="2">  1        2 0.62312190E-03 0.91344797E+02</pdfrwt>
<pdfrwt beam="1">  1       -2 0.79233330E-01 0.91344797E+02</pdfrwt>
<totfact> 0.35302413E+04</totfact>
</mgrwt>
</event>
<event>
 5    1  0.3963873E+001  0.8873905E+02  0.7546771E-02  0.1305934E+00
          2   -1    0    0  501    0  0.00000000000E+00  0.00000000000E+00  0.18726270406E+03  0.18726270406E+03  0.00000000000E+00 0.  1.
         -2   -1    0    0    0  501 -0.00000000000E+00 -0.00000000000E+00 -0.10512795742E+02  0.10512795742E+02  0.00000000000E+00 0. -1.
         23    2    1    2    0    0  0.00000000000E+00  0.00000000000E+00  0.17674990832E+03  0.19777549980E+03  0.88739045699E+02 0.  0.
          2    1    3    3  502    0  0.25072984159E+02  0.34804385420E+02  0.63095325050E+02  0.76295608146E+02  0.00000000000E+00 0. -1.
         -2    1    3    3    0  502 -0.25072984159E+02 -0.34804385420E+02  0.11365458327E+03  0.12147989166E+03  0.00000000000E+00 0.  1.
<mgrwt>
<rscale>  0 0.88739046E+02</rscale>
<asrwt>0</asrwt>
<pdfrwt beam="1">  1        2 0.28809644E-01 0.88739046E+02</pdfrwt>
<pdfrwt beam="2">  1       -2 0.16173533E-02 0.88739046E+02</pdfrwt>
<totfact> 0.16248803E+05</totfact>
</mgrwt>
</event>
<event>
 5    1  0.3963873E+001  0.9152473E+02  0.7546771E-02  0.1299201E+00
         -1   -1    0    0    0  501 -0.00000000000E+00  0.00000000000E+00  0.93378597325E+00  0.93378597325E+00  0.00000000000E+00 0.  1.
          1   -1    0    0  501    0  0.00000000000E+00 -0.00000000000E+00 -0.22426917850E+04  0.22426917850E+04  0.00000000000E+00 0. -1.
         23    2    1    2    0    0  0.00000000000E+00  0.00000000000E+00 -0.22417579990E+04  0.22436255710E+04  0.91524731765E+02 0.  0.
          2    1    3    3  502    0  0.25693867018E+02  0.15553928131E+02 -0.19672626889E+04  0.19674919534E+04  0.00000000000E+00 0. -1.
         -2    1    3    3    0  502 -0.25693867018E+02 -0.15553928131E+02 -0.27449531008E+03  0.27613361754E+03  0.00000000000E+00 0.  1.
<mgrwt>
<rscale>  0 0.91524732E+02</rscale>
<asrwt>0</asrwt>
<pdfrwt beam="2">  1        1 0.34503113E+00 0.91524732E+02</pdfrwt>
<pdfrwt beam="1">  1       -1 0.14365870E-03 0.91524732E+02</pdfrwt>
<totfact> 0.65046392E+04</totfact>
</mgrwt>
</event>
<event>
 5    1  0.3963873E+001  0.8971893E+02  0.7546771E-02  0.1303534E+00
         -1   -1    0    0    0  501 -0.00000000000E+00  0.00000000000E+00  0.44141822636E+03  0.44141822636E+03  0.00000000000E+00 0.  1.
          1   -1    0    0  501    0  0.00000000000E+00 -0.00000000000E+00 -0.45588772904E+01  0.45588772904E+01  0.00000000000E+00 0. -1.
         23    2    1    2    0    0  0.00000000000E+00  0.00000000000E+00  0.43685934907E+03  0.44597710365E+03  0.89718928387E+02 0.  0.
          2    1    3    3  502    0 -0.57511241750E+01  0.28651877971E+02  0.49248754064E+02  0.57266441460E+02  0.00000000000E+00 0. -1.
         -2    1    3    3    0  502  0.57511241750E+01 -0.28651877971E+02  0.38761059500E+03  0.38871066219E+03  0.00000000000E+00 0.  1.
<mgrwt>
<rscale>  0 0.89718928E+02</rscale>
<asrwt>0</asrwt>
<pdfrwt beam="2">  1        1 0.70136609E-03 0.89718928E+02</pdfrwt>
<pdfrwt beam="1">  1       -1 0.67910463E-01 0.89718928E+02</pdfrwt>
<totfact> 0.52770658E+04</totfact>
</mgrwt>
</event>
<event>
 5    1  0.3963873E+001  0.9095123E+02  0.7546771E-02  0.1300564E+00
          1   -1    0    0  501    0  0.00000000000E+00  0.00000000000E+00  0.85164607007E+03  0.85164607007E+03  0.00000000000E+00 0. -1.
         -1   -1    0    0    0  501 -0.00000000000E+00 -0.00000000000E+00 -0.24282758572E+01  0.24282758572E+01  0.00000000000E+00 0.  1.
         23    2    1    2    0    0  0.00000000000E+00  0.00000000000E+00  0.84921779422E+03  0.85407434593E+03  0.90951230686E+02 0.  0.
          2    1    3    3  502    0  0.15990617719E+02 -0.32873614667E+02  0.67861311054E+03  0.67959703369E+03  0.00000000000E+00 0. -1.
         -2    1    3    3    0  502 -0.15990617719E+02  0.32873614667E+02  0.17060468367E+03  0.17447731224E+03  0.00000000000E+00 0.  1.
<mgrwt>
<rscale>  0 0.90951231E+02</rscale>
<asrwt>0</asrwt>
<pdfrwt beam="1">  1        1 0.13102223E+00 0.90951231E+02</pdfrwt>
<pdfrwt beam="2">  1       -1 0.37358158E-03 0.90951231E+02</pdfrwt>
<totfact> 0.14126556E+05</totfact>
</mgrwt>
</event>
<event>
 5    1  0.3963873E+001  0.9043109E+02  0.7546771E-02  0.1301811E+00
          2   -1    0    0  501    0  0.00000000000E+00  0.00000000000E+00  0.68089723827E+02  0.68089723827E+02  0.00000000000E+00 0. -1.
         -2   -1    0    0    0  501 -0.00000000000E+00 -0.00000000000E+00 -0.30025759455E+02  0.30025759455E+02  0.00000000000E+00 0.  1.
         23    2    1    2    0    0  0.00000000000E+00  0.00000000000E+00  0.38063964372E+02  0.98115483283E+02  0.90431093525E+02 0.  0.
          2    1    3    3  502    0 -0.34127957166E+02 -0.13725159225E+02  0.47559776013E+02  0.60125117467E+02  0.00000000000E+00 0. -1.
         -2    1    3    3    0  502  0.34127957166E+02  0.13725159225E+02 -0.94958116408E+01  0.37990365815E+02  0.00000000000E+00 0.  1.
<mgrwt>
<rscale>  0 0.90431094E+02</rscale>
<asrwt>0</asrwt>
<pdfrwt beam="1">  1        2 0.10475342E-01 0.90431094E+02</pdfrwt>
<pdfrwt beam="2">  1       -2 0.46193476E-02 0.90431094E+02</pdfrwt>
<totfact> 0.11232922E+05</totfact>
</mgrwt>
</event>
<event>
 5    1  0.3963873E+001  0.9141578E+02  0.7546771E-02  0.1299459E+00
         -2   -1    0    0    0  501 -0.00000000000E+00  0.00000000000E+00  0.59519045237E+03  0.59519045237E+03  0.00000000000E+00 0.  1.
          2   -1    0    0  501    0  0.00000000000E+00 -0.00000000000E+00 -0.35101558511E+01  0.35101558511E+01  0.00000000000E+00 0. -1.
         23    2    1    2    0    0  0.00000000000E+00  0.00000000000E+00  0.59168029652E+03  0.59870060822E+03  0.91415780889E+02 0.  0.
          2    1    3    3  502    0  0.40599290362E+02  0.11057795015E+02  0.17893473777E+03  0.18381571638E+03  0.00000000000E+00 0. -1.
         -2    1    3    3    0  502 -0.40599290362E+02 -0.11057795015E+02  0.41274555875E+03  0.41488489184E+03  0.00000000000E+00 0.  1.
<mgrwt>
<rscale>  0 0.91415781E+02</rscale>
<asrwt>0</asrwt>
<pdfrwt beam="2">  1        2 0.54002445E-03 0.91415781E+02</pdfrwt>
<pdfrwt beam="1">  1       -2 0.91567682E-01 0.91415781E+02</pdfrwt>
<totfact> 0.31267291E+04</totfact>
</mgrwt>
</event>
<event>
 5    1  0.3963873E+001  0.1038877E+03  0.7546771E-02  0.1272327E+00
          2   -1    0    0  501    0  0.00000000000E+00  0.00000000000E+00  0.98838063324E+03  0.98838063324E+03  0.00000000000E+00 0. -1.
         -2   -1    0    0    0  501 -0.00000000000E+00 -0.00000000000E+00 -0.27298811879E+01  0.27298811879E+01  0.00000000000E+00 0.  1.
         23    2    1    2    0    0  0.00000000000E+00  0.00000000000E+00  0.98565075205E+03  0.99111051443E+03  0.10388766428E+03 0.  0.
          2    1    3    3  502    0 -0.21799342987E+02 -0.37702669089E+02  0.76290932805E+03  0.76415138908E+03  0.00000000000E+00 0. -1.
         -2    1    3    3    0  502  0.21799342987E+02  0.37702669089E+02  0.22274142401E+03  0.22695912535E+03  0.00000000000E+00 0.  1.
<mgrwt>
<rscale>  0 0.10388766E+03</rscale>
<asrwt>0</asrwt>
<pdfrwt beam="1">  1        2 0.15205827E+00 0.10388766E+03</pdfrwt>
<pdfrwt beam="2">  1       -2 0.41998251E-03 0.10388766E+03</pdfrwt>
<totfact> 0.17681332E+05</totfact>
</mgrwt>
</event>
<event>
 5    1  0.3963873E+001  0.9184091E+02  0.7546771E-02  0.1298454E+00
          1   -1    0    0  501    0  0.00000000000E+00  0.00000000000E+00  0.16244698426E+01  0.16244698426E+01  0.00000000000E+00 0. -1.
         -1   -1    0    0    0  501 -0.00000000000E+00 -0.00000000000E+00 -0.12980778547E+04  0.12980778547E+04  0.00000000000E+00 0.  1.
         23    2    1    2    0    0  0.00000000000E+00  0.00000000000E+00 -0.12964533849E+04  0.12997023246E+04  0.91840913069E+02 0.  0.
          2    1    3    3  502    0  0.23434291717E+02 -0.32652883322E+02 -0.96254402310E+03  0.96338277607E+03  0.00000000000E+00 0.  1.
         -2    1    3    3    0  502 -0.23434291717E+02  0.32652883322E+02 -0.33390936179E+03  0.33631954850E+03  0.00000000000E+00 0. -1.
<mgrwt>
<rscale>  0 0.91840913E+02</rscale>
<asrwt>0</asrwt>
<pdfrwt beam="1">  1        1 0.24991891E-03 0.91840913E+02</pdfrwt>
<pdfrwt beam="2">  1       -1 0.19970391E+00 0.91840913E+02</pdfrwt>
<totfact> 0.17463364E+04</totfact>
</mgrwt>
</event>
<event>
 5    1  0.3963873E+001  0.9233188E+02  0.7546771E-02  0.1297301E+00
          1   -1    0    0  501    0  0.00000000000E+00  0.00000000000E+00  0.25142612968E+02  0.25142612968E+02  0.00000000000E+00 0. -1.
         -1   -1    0    0    0  501 -0.00000000000E+00 -0.00000000000E+00 -0.84768202870E+02  0.84768202870E+02  0.00000000000E+00 0.  1.
         23    2    1    2    0    0  0.00000000000E+00  0.00000000000E+00 -0.59625589902E+02  0.10991081584E+03  0.92331882180E+02 0.  0.
          2    1    3    3  502    0  0.41092613516E+02 -0.19352871687E+02 -0.19985231617E+02  0.49624046700E+02  0.00000000000E+00 0. -1.
         -2    1    3    3    0  502 -0.41092613516E+02  0.19352871687E+02 -0.39640358285E+02  0.60286769138E+02  0.00000000000E+00 0.  1.
<mgrwt>
<rscale>  0 0.92331882E+02</rscale>
<asrwt>0</asrwt>
<pdfrwt beam="1">  1        1 0.38680943E-02 0.92331882E+02</pdfrwt>
<pdfrwt beam="2">  1       -1 0.13041262E-01 0.92331882E+02</pdfrwt>
<totfact> 0.81151520E+04</totfact>
</mgrwt>
</event>
<event>
 5    1  0.3963873E+001  0.9818314E+02  0.7546771E-02  0.1284164E+00
         -1   -1    0    0    0  501 -0.00000000000E+00  0.00000000000E+00  0.39127351245E+01  0.39127351245E+01  0.00000000000E+00 0. -1.
          1   -1    0    0  501    0  0.00000000000E+00 -0.00000000000E+00 -0.61593286086E+03  0.61593286086E+03  0.00000000000E+00 0.  1.
         23    2    1    2    0    0  0.00000000000E+00  0.00000000000E+00 -0.61202012573E+03  0.61984559598E+03  0.98183137840E+02 0.  0.
          2    1    3    3  502    0  0.29575512150E+02 -0.33645601389E+02 -0.43278428689E+03  0.43509651388E+03  0.00000000000E+00 0.  1.
         -2    1    3    3    0  502 -0.29575512150E+02  0.33645601389E+02 -0.17923583884E+03  0.18474908210E+03  0.00000000000E+00 0. -1.
<mgrwt>
<rscale>  0 0.98183138E+02</rscale>
<asrwt>0</asrwt>
<pdfrwt beam="2">  1        1 0.94758784E-01 0.98183138E+02</pdfrwt>
<pdfrwt beam="1">  1       -1 0.60195999E-03 0.98183138E+02</pdfrwt>
<totfact> 0.11647624E+05</totfact>
</mgrwt>
</event>
<event>
 5    1  0.3963873E+001  0.8976274E+02  0.7546771E-02  0.1303427E+00
         -1   -1    0    0    0  501 -0.00000000000E+00  0.00000000000E+00  0.20537522206E+01  0.20537522206E+01  0.00000000000E+00 0.  1.
          1   -1    0    0  501    0  0.00000000000E+00 -0.00000000000E+00 -0.98080831044E+03  0.98080831044E+03  0.00000000000E+00 0. -1.
         23    2    1    2    0    0  0.00000000000E+00  0.00000000000E+00 -0.97875455822E+03  0.98286206266E+03  0.89762737160E+02 0.  0.
          2    1    3    3  502    0 -0.27026568776E+02 -0.64658974693E+01 -0.10347822314E+03  0.10714469615E+03  0.00000000000E+00 0.  1.
         -2    1    3    3    0  502  0.27026568776E+02  0.64658974693E+01 -0.87527633508E+03  0.87571736651E+03  0.00000000000E+00 0. -1.
<mgrwt>
<rscale>  0 0.89762737E+02</rscale>
<asrwt>0</asrwt>
<pdfrwt beam="2">  1        1 0.15089352E+00 0.89762737E+02</pdfrwt>
<pdfrwt beam="1">  1       -1 0.31596201E-03 0.89762737E+02</pdfrwt>
<totfact> 0.14245567E+05</totfact>
</mgrwt>
</event>
<event>
 5    1  0.3963873E+001  0.8831665E+02  0.7546771E-02  0.1306980E+00
          1   -1    0    0  501    0  0.00000000000E+00  0.00000000000E+00  0.31259748313E+02  0.31259748313E+02  0.00000000000E+00 0. -1.
         -1   -1    0    0    0  501 -0.00000000000E+00 -0.00000000000E+00 -0.62379189184E+02  0.62379189184E+02  0.00000000000E+00 0.  1.
         23    2    1    2    0    0  0.00000000000E+00  0.00000000000E+00 -0.31119440872E+02  0.93638937497E+02  0.88316651971E+02 0.  0.
          2    1    3    3  502    0  0.44053129235E+02 -0.24936790203E+01 -0.13704676092E+02  0.46202973684E+02  0.00000000000E+00 0. -1.
         -2    1    3    3    0  502 -0.44053129235E+02  0.24936790203E+01 -0.17414764780E+02  0.47435963813E+02  0.00000000000E+00 0.  1.
<mgrwt>
<rscale>  0 0.88316652E+02</rscale>
<asrwt>0</asrwt>
<pdfrwt beam="1">  1        1 0.48091920E-02 0.88316652E+02</pdfrwt>
<pdfrwt beam="2">  1       -1 0.95967983E-02 0.88316652E+02</pdfrwt>
<totfact> 0.95564239E+04</totfact>
</mgrwt>
</event>
<event>
 5    1  0.3963873E+001  0.8607902E+02  0.7546771E-02  0.1312635E+00
         -1   -1    0    0    0  501 -0.00000000000E+00  0.00000000000E+00  0.26498504769E+01  0.26498504769E+01  0.00000000000E+00 0.  1.
          1   -1    0    0  501    0  0.00000000000E+00 -0.00000000000E+00 -0.69905803560E+03  0.69905803560E+03  0.00000000000E+00 0. -1.
         23    2    1    2    0    0  0.00000000000E+00  0.00000000000E+00 -0.69640818513E+03  0.70170788608E+03  0.86079016467E+02 0.  0.
          2    1    3    3  502    0  0.41869490078E+02  0.97925891320E+01 -0.33306201531E+03  0.33582622745E+03  0.00000000000E+00 0. -1.
         -2    1    3    3    0  502 -0.41869490078E+02 -0.97925891320E+01 -0.36334616982E+03  0.36588165863E+03  0.00000000000E+00 0.  1.
<mgrwt>
<rscale>  0 0.86079016E+02</rscale>
<asrwt>0</asrwt>
<pdfrwt beam="2">  1        1 0.10754743E+00 0.86079016E+02</pdfrwt>
<pdfrwt beam="1">  1       -1 0.40766917E-03 0.86079016E+02</pdfrwt>
<totfact> 0.16547153E+05</totfact>
</mgrwt>
</event>
<event>
 5    1  0.3963873E+001  0.9273954E+02  0.7546771E-02  0.1296350E+00
          2   -1    0    0  501    0  0.00000000000E+00  0.00000000000E+00  0.66871259623E+01  0.66871259623E+01  0.00000000000E+00 0. -1.
         -2   -1    0    0    0  501 -0.00000000000E+00 -0.00000000000E+00 -0.32153655779E+03  0.32153655779E+03  0.00000000000E+00 0.  1.
         23    2    1    2    0    0  0.00000000000E+00  0.00000000000E+00 -0.31484943183E+03  0.32822368375E+03  0.92739537705E+02 0.  0.
          2    1    3    3  502    0 -0.12983807344E+02 -0.20374796189E+02 -0.17349142060E+02  0.29743979275E+02  0.00000000000E+00 0. -1.
         -2    1    3    3    0  502  0.12983807344E+02  0.20374796189E+02 -0.29750028977E+03  0.29847970448E+03  0.00000000000E+00 0.  1.
<mgrwt>
<rscale>  0 0.92739538E+02</rscale>
<asrwt>0</asrwt>
<pdfrwt beam="1">  1        2 0.10287886E-02 0.92739538E+02</pdfrwt>
<pdfrwt beam="2">  1       -2 0.49467165E-01 0.92739538E+02</pdfrwt>
<totfact> 0.46904434E+04</totfact>
</mgrwt>
</event>
<event>
 5    1  0.3963873E+001  0.8925455E+02  0.7546771E-02  0.1304667E+00
          2   -1    0    0  501    0  0.00000000000E+00  0.00000000000E+00  0.36056103071E+03  0.36056103071E+03  0.00000000000E+00 0. -1.
         -2   -1    0    0    0  501 -0.00000000000E+00 -0.00000000000E+00 -0.55235970099E+01  0.55235970099E+01  0.00000000000E+00 0.  1.
         23    2    1    2    0    0  0.00000000000E+00  0.00000000000E+00  0.35503743370E+03  0.36608462772E+03  0.89254553522E+02 0.  0.
          2    1    3    3  502    0 -0.17419877817E+02 -0.16858468688E+02  0.23836217909E+02  0.33997432166E+02  0.00000000000E+00 0.  1.
         -2    1    3    3    0  502  0.17419877817E+02  0.16858468688E+02  0.33120121579E+03  0.33208719555E+03  0.00000000000E+00 0. -1.
<mgrwt>
<rscale>  0 0.89254554E+02</rscale>
<asrwt>0</asrwt>
<pdfrwt beam="1">  1        2 0.55470909E-01 0.89254554E+02</pdfrwt>
<pdfrwt beam="2">  1       -2 0.84978444E-03 0.89254554E+02</pdfrwt>
<totfact> 0.20346280E+05</totfact>
</mgrwt>
</event>
<event>
 5    1  0.3963873E+001  0.9165801E+02  0.7546771E-02  0.1298886E+00
          2   -1    0    0  501    0  0.00000000000E+00  0.00000000000E+00  0.15649474605E+03  0.15649474605E+03  0.00000000000E+00 0. -1.
         -2   -1    0    0    0  501 -0.00000000000E+00 -0.00000000000E+00 -0.13420881830E+02  0.13420881830E+02  0.00000000000E+00 0.  1.
         23    2    1    2    0    0  0.00000000000E+00  0.00000000000E+00  0.14307386422E+03  0.16991562788E+03  0.91658005517E+02 0.  0.
          2    1    3    3  502    0 -0.29226362406E+02  0.33154705640E+02  0.49069766469E+02  0.66039811833E+02  0.00000000000E+00 0.  1.
         -2    1    3    3    0  502  0.29226362406E+02 -0.33154705640E+02  0.94004097753E+02  0.10387581605E+03  0.00000000000E+00 0. -1.
<mgrwt>
<rscale>  0 0.91658006E+02</rscale>
<asrwt>0</asrwt>
<pdfrwt beam="1">  1        2 0.24076114E-01 0.91658006E+02</pdfrwt>
<pdfrwt beam="2">  1       -2 0.20647512E-02 0.91658006E+02</pdfrwt>
<totfact> 0.13983836E+05</totfact>
</mgrwt>
</event>
<event>
 5    1  0.3963873E+001  0.9179835E+02  0.7546771E-02  0.1298554E+00
         -2   -1    0    0    0  501 -0.00000000000E+00  0.00000000000E+00  0.10645392679E+03  0.10645392679E+03  0.00000000000E+00 0.  1.
          2   -1    0    0  501    0  0.00000000000E+00 -0.00000000000E+00 -0.19790103163E+02  0.19790103163E+02  0.00000000000E+00 0. -1.
         23    2    1    2    0    0  0.00000000000E+00  0.00000000000E+00  0.86663823630E+02  0.12624402996E+03  0.91798348424E+02 0.  0.
          2    1    3    3  502    0 -0.45006226985E+02 -0.90086044222E+01  0.43143488647E+02  0.62992666508E+02  0.00000000000E+00 0. -1.
         -2    1    3    3    0  502  0.45006226985E+02  0.90086044222E+01  0.43520334983E+02  0.63251363449E+02  0.00000000000E+00 0.  1.
<mgrwt>
<rscale>  0 0.91798348E+02</rscale>
<asrwt>0</asrwt>
<pdfrwt beam="2">  1        2 0.30446313E-02 0.91798348E+02</pdfrwt>
<pdfrwt beam="1">  1       -2 0.16377527E-01 0.91798348E+02</pdfrwt>
<totfact> 0.76994100E+04</totfact>
</mgrwt>
</event>
<event>
 5    1  0.3963873E+001  0.9287678E+02  0.7546771E-02  0.1296031E+00
         -2   -1    0    0    0  501 -0.00000000000E+00  0.00000000000E+00  0.10077402088E+03  0.10077402088E+03  0.00000000000E+00 0.  1.
          2   -1    0    0  501    0  0.00000000000E+00 -0.00000000000E+00 -0.21399601108E+02  0.21399601108E+02  0.00000000000E+00 0. -1.
         23    2    1    2    0    0  0.00000000000E+00  0.00000000000E+00  0.79374419771E+02  0.12217362199E+03  0.92876775328E+02 0.  0.
          2    1    3    3  502    0  0.38853475522E+02 -0.20576695362E+02  0.59354254412E+02  0.73864202893E+02  0.00000000000E+00 0.  1.
         -2    1    3    3    0  502 -0.38853475522E+02  0.20576695362E+02  0.20020165359E+02  0.48309419094E+02  0.00000000000E+00 0. -1.
<mgrwt>
<rscale>  0 0.92876775E+02</rscale>
<asrwt>0</asrwt>
<pdfrwt beam="2">  1        2 0.32922464E-02 0.92876775E+02</pdfrwt>
<pdfrwt beam="1">  1       -2 0.15503695E-01 0.92876775E+02</pdfrwt>
<totfact> 0.76041265E+04</totfact>
</mgrwt>
</event>
<event>
 5    1  0.3963873E+001  0.9150989E+02  0.7546771E-02  0.1299236E+00
         -2   -1    0    0    0  501 -0.00000000000E+00  0.00000000000E+00  0.44094588657E+01  0.44094588657E+01  0.00000000000E+00 0. -1.
          2   -1    0    0  501    0  0.00000000000E+00 -0.00000000000E+00 -0.47477824608E+03  0.47477824608E+03  0.00000000000E+00 0.  1.
         23    2    1    2    0    0  0.00000000000E+00  0.00000000000E+00 -0.47036878721E+03  0.47918770494E+03  0.91509893376E+02 0.  0.
          2    1    3    3  502    0  0.19178293772E+02 -0.20704276631E+02 -0.46596204630E+02  0.54476419749E+02  0.00000000000E+00 0. -1.
         -2    1    3    3    0  502 -0.19178293772E+02  0.20704276631E+02 -0.42377258258E+03  0.42471128519E+03  0.00000000000E+00 0.  1.
<mgrwt>
<rscale>  0 0.91509893E+02</rscale>
<asrwt>0</asrwt>
<pdfrwt beam="2">  1        2 0.73042792E-01 0.91509893E+02</pdfrwt>
<pdfrwt beam="1">  1       -2 0.67837843E-03 0.91509893E+02</pdfrwt>
<totfact> 0.20981320E+05</totfact>
</mgrwt>
</event>
<event>
 5    1  0.3963873E+001  0.9049860E+02  0.7546771E-02  0.1301649E+00
         -2   -1    0    0    0  501 -0.00000000000E+00  0.00000000000E+00  0.35360397624E+01  0.35360397624E+01  0.00000000000E+00 0.  1.
          2   -1    0    0  501    0  0.00000000000E+00 -0.00000000000E+00 -0.57903741163E+03  0.57903741163E+03  0.00000000000E+00 0. -1.
         23    2    1    2    0    0  0.00000000000E+00  0.00000000000E+00 -0.57550137186E+03  0.58257345139E+03  0.90498603557E+02 0.  0.
          2    1    3    3  502    0  0.15085941016E+02 -0.29690232681E+02 -0.48494922148E+03  0.48609139362E+03  0.00000000000E+00 0. -1.
         -2    1    3    3    0  502 -0.15085941016E+02  0.29690232681E+02 -0.90552150384E+02  0.96482057773E+02  0.00000000000E+00 0.  1.
<mgrwt>
<rscale>  0 0.90498604E+02</rscale>
<asrwt>0</asrwt>
<pdfrwt beam="2">  1        2 0.89082744E-01 0.90498604E+02</pdfrwt>
<pdfrwt beam="1">  1       -2 0.54400572E-03 0.90498604E+02</pdfrwt>
<totfact> 0.23001626E+05</totfact>
</mgrwt>
</event>
<event>
 5    1  0.3963873E+001  0.9102042E+02  0.7546771E-02  0.1300399E+00
          1   -1    0    0  501    0  0.00000000000E+00  0.00000000000E+00  0.10869215488E+03  0.10869215488E+03  0.00000000000E+00 0. -1.
         -1   -1    0    0    0  501 -0.00000000000E+00 -0.00000000000E+00 -0.19055460145E+02  0.19055460145E+02  0.00000000000E+00 0.  1.
         23    2    1    2    0    0  0.00000000000E+00  0.00000000000E+00  0.89636694730E+02  0.12774761502E+03  0.91020415849E+02 0.  0.
          2    1    3    3  502    0 -0.19772763019E+02  0.15321008346E+02  0.98178930316E+02  0.10131533848E+03  0.00000000000E+00 0. -1.
         -2    1    3    3    0  502  0.19772763019E+02 -0.15321008346E+02 -0.85422355854E+01  0.26432276537E+02  0.00000000000E+00 0.  1.
<mgrwt>
<rscale>  0 0.91020416E+02</rscale>
<asrwt>0</asrwt>
<pdfrwt beam="1">  1        1 0.16721870E-01 0.91020416E+02</pdfrwt>
<pdfrwt beam="2">  1       -1 0.29316093E-02 0.91020416E+02</pdfrwt>
<totfact> 0.10642050E+05</totfact>
</mgrwt>
</event>
<event>
 5    1  0.3963873E+001  0.9081362E+02  0.7546771E-02  0.1300893E+00
         -1   -1    0    0    0  501 -0.00000000000E+00  0.00000000000E+00  0.48210824188E+01  0.48210824188E+01  0.00000000000E+00 0.  1.
          1   -1    0    0  501    0  0.00000000000E+00 -0.00000000000E+00 -0.42765886094E+03  0.42765886094E+03  0.00000000000E+00 0. -1.
         23    2    1    2    0    0  0.00000000000E+00  0.00000000000E+00 -0.42283777852E+03  0.43247994336E+03  0.90813624875E+02 0.  0.
          2    1    3    3  502    0 -0.11774723110E+02 -0.24475428683E+02 -0.38470883636E+03  0.38566640959E+03  0.00000000000E+00 0. -1.
         -2    1    3    3    0  502  0.11774723110E+02  0.24475428683E+02 -0.38128942166E+02  0.46813533772E+02  0.00000000000E+00 0.  1.
<mgrwt>
<rscale>  0 0.90813625E+02</rscale>
<asrwt>0</asrwt>
<pdfrwt beam="2">  1        1 0.65793708E-01 0.90813625E+02</pdfrwt>
<pdfrwt beam="1">  1       -1 0.74170457E-03 0.90813625E+02</pdfrwt>
<totfact> 0.13777867E+05</totfact>
</mgrwt>
</event>
<event>
 5    1  0.3963873E+001  0.9156863E+02  0.7546771E-02  0.1299097E+00
         -2   -1    0    0    0  501 -0.00000000000E+00  0.00000000000E+00  0.42059276669E+01  0.42059276669E+01  0.00000000000E+00 0.  1.
          2   -1    0    0  501    0  0.00000000000E+00 -0.00000000000E+00 -0.49839266767E+03  0.49839266767E+03  0.00000000000E+00 0. -1.
         23    2    1    2    0    0  0.00000000000E+00  0.00000000000E+00 -0.49418674000E+03  0.50259859534E+03  0.91568630216E+02 0.  0.
          2    1    3    3  502    0  0.26909896884E+02 -0.30171961429E+02 -0.12915342119E+03  0.13533327755E+03  0.00000000000E+00 0.  1.
         -2    1    3    3    0  502 -0.26909896884E+02  0.30171961429E+02 -0.36503331882E+03  0.36726531779E+03  0.00000000000E+00 0. -1.
<mgrwt>
<rscale>  0 0.91568630E+02</rscale>
<asrwt>0</asrwt>
<pdfrwt beam="2">  1        2 0.76675781E-01 0.91568630E+02</pdfrwt>
<pdfrwt beam="1">  1       -2 0.64706591E-03 0.91568630E+02</pdfrwt>
<totfact> 0.21284048E+05</totfact>
</mgrwt>
</event>
<event>
 5    1  0.3963873E+001  0.9409055E+02  0.7546771E-02  0.1293238E+00
         -3   -1    0    0    0  501 -0.00000000000E+00  0.00000000000E+00  0.34262244362E+02  0.34262244362E+02  0.00000000000E+00 0.  1.
          3   -1    0    0  501    0  0.00000000000E+00 -0.00000000000E+00 -0.64597577958E+02  0.64597577958E+02  0.00000000000E+00 0. -1.
         23    2    1    2    0    0  0.00000000000E+00  0.00000000000E+00 -0.30335333596E+02  0.98859822320E+02  0.94090552154E+02 0.  0.
          2    1    3    3  502    0 -0.68393397813E+01 -0.19431153464E+02  0.29271740871E+02  0.35793590309E+02  0.00000000000E+00 0.  1.
         -2    1    3    3    0  502  0.68393397813E+01  0.19431153464E+02 -0.59607074467E+02  0.63066232011E+02  0.00000000000E+00 0. -1.
<mgrwt>
<rscale>  0 0.94090552E+02</rscale>
<asrwt>0</asrwt>
<pdfrwt beam="2">  1        3 0.99380889E-02 0.94090552E+02</pdfrwt>
<pdfrwt beam="1">  1       -3 0.52711145E-02 0.94090552E+02</pdfrwt>
<totfact> 0.31894409E+04</totfact>
</mgrwt>
</event>
<event>
 5    1  0.3963873E+001  0.9096097E+02  0.7546771E-02  0.1300541E+00
          2   -1    0    0  501    0  0.00000000000E+00  0.00000000000E+00  0.17778780315E+02  0.17778780315E+02  0.00000000000E+00 0.  1.
         -2   -1    0    0    0  501 -0.00000000000E+00 -0.00000000000E+00 -0.11634511836E+03  0.11634511836E+03  0.00000000000E+00 0. -1.
         23    2    1    2    0    0  0.00000000000E+00  0.00000000000E+00 -0.98566338041E+02  0.13412389867E+03  0.90960965253E+02 0.  0.
          2    1    3    3  502    0 -0.48233072744E+01 -0.45027929886E+02 -0.55485900527E+02  0.71620275901E+02  0.00000000000E+00 0. -1.
         -2    1    3    3    0  502  0.48233072744E+01  0.45027929886E+02 -0.43080437514E+02  0.62503622769E+02  0.00000000000E+00 0.  1.
<mgrwt>
<rscale>  0 0.90960965E+02</rscale>
<asrwt>0</asrwt>
<pdfrwt beam="1">  1        2 0.27351968E-02 0.90960965E+02</pdfrwt>
<pdfrwt beam="2">  1       -2 0.17899250E-01 0.90960965E+02</pdfrwt>
<totfact> 0.76623227E+04</totfact>
</mgrwt>
</event>
<event>
 5    1  0.3963873E+001  0.9901247E+02  0.7546771E-02  0.1282386E+00
          4   -1    0    0  501    0  0.00000000000E+00  0.00000000000E+00  0.87072906846E+02  0.87072906846E+02  0.00000000000E+00 0. -1.
         -4   -1    0    0    0  501 -0.00000000000E+00 -0.00000000000E+00 -0.28147299253E+02  0.28147299253E+02  0.00000000000E+00 0.  1.
         23    2    1    2    0    0  0.00000000000E+00  0.00000000000E+00  0.58925607592E+02  0.11522020610E+03  0.99012467212E+02 0.  0.
          2    1    3    3  502    0  0.25424207288E+02  0.25938721118E+02  0.68609640165E+02  0.77630472709E+02  0.00000000000E+00 0. -1.
         -2    1    3    3    0  502 -0.25424207288E+02 -0.25938721118E+02 -0.96840325730E+01  0.37589733390E+02  0.00000000000E+00 0.  1.
<mgrwt>
<rscale>  0 0.99012467E+02</rscale>
<asrwt>0</asrwt>
<pdfrwt beam="1">  1        4 0.13395832E-01 0.99012467E+02</pdfrwt>
<pdfrwt beam="2">  1       -4 0.43303538E-02 0.99012467E+02</pdfrwt>
<totfact> 0.20410390E+04</totfact>
</mgrwt>
</event>
<event>
 5    1  0.3963873E+001  0.9299120E+02  0.7546771E-02  0.1295766E+00
         -1   -1    0    0    0  501 -0.00000000000E+00  0.00000000000E+00  0.19031399849E+02  0.19031399849E+02  0.00000000000E+00 0.  1.
          1   -1    0    0  501    0  0.00000000000E+00 -0.00000000000E+00 -0.11359336901E+03  0.11359336901E+03  0.00000000000E+00 0. -1.
         23    2    1    2    0    0  0.00000000000E+00  0.00000000000E+00 -0.94561969159E+02  0.13262476886E+03  0.92991200138E+02 0.  0.
          2    1    3    3  502    0 -0.60424358311E+01  0.24119920654E+02 -0.10331405691E+03  0.10626418003E+03  0.00000000000E+00 0. -1.
         -2    1    3    3    0  502  0.60424358311E+01 -0.24119920654E+02  0.87520877500E+01  0.26360588823E+02  0.00000000000E+00 0.  1.
<mgrwt>
<rscale>  0 0.92991200E+02</rscale>
<asrwt>0</asrwt>
<pdfrwt beam="2">  1        1 0.17475903E-01 0.92991200E+02</pdfrwt>
<pdfrwt beam="1">  1       -1 0.29279076E-02 0.92991200E+02</pdfrwt>
<totfact> 0.10115078E+05</totfact>
</mgrwt>
</event>
<event>
 5    1  0.3963873E+001  0.9143887E+02  0.7546771E-02  0.1299404E+00
         -4   -1    0    0    0  501 -0.00000000000E+00  0.00000000000E+00  0.47316712985E+02  0.47316712985E+02  0.00000000000E+00 0.  1.
          4   -1    0    0  501    0  0.00000000000E+00 -0.00000000000E+00 -0.44176079802E+02  0.44176079802E+02  0.00000000000E+00 0. -1.
         23    2    1    2    0    0  0.00000000000E+00  0.00000000000E+00  0.31406331827E+01  0.91492792787E+02  0.91438873326E+02 0.  0.
          2    1    3    3  502    0 -0.53335914454E+01 -0.30426570755E+02 -0.32154802787E+02  0.44588728934E+02  0.00000000000E+00 0. -1.
         -2    1    3    3    0  502  0.53335914454E+01  0.30426570755E+02  0.35295435970E+02  0.46904063853E+02  0.00000000000E+00 0.  1.
<mgrwt>
<rscale>  0 0.91438873E+02</rscale>
<asrwt>0</asrwt>
<pdfrwt beam="2">  1        4 0.67963200E-02 0.91438873E+02</pdfrwt>
<pdfrwt beam="1">  1       -4 0.72794943E-02 0.91438873E+02</pdfrwt>
<totfact> 0.26785900E+04</totfact>
</mgrwt>
</event>
<event>
 5    1  0.3963873E+001  0.1008868E+03  0.7546771E-02  0.1278442E+00
         -2   -1    0    0    0  501 -0.00000000000E+00  0.00000000000E+00  0.22409033840E+01  0.22409033840E+01  0.00000000000E+00 0.  1.
          2   -1    0    0  501    0  0.00000000000E+00 -0.00000000000E+00 -0.11354965137E+04  0.11354965137E+04  0.00000000000E+00 0. -1.
         23    2    1    2    0    0  0.00000000000E+00  0.00000000000E+00 -0.11332556103E+04  0.11377374171E+04  0.10088682729E+03 0.  0.
          2    1    3    3  502    0  0.24060549765E+02  0.15635798874E+02 -0.10344888665E+04  0.10348867586E+04  0.00000000000E+00 0. -1.
         -2    1    3    3    0  502 -0.24060549765E+02 -0.15635798874E+02 -0.98766743773E+02  0.10285065842E+03  0.00000000000E+00 0.  1.
<mgrwt>
<rscale>  0 0.10088683E+03</rscale>
<asrwt>0</asrwt>
<pdfrwt beam="2">  1        2 0.17469205E+00 0.10088683E+03</pdfrwt>
<pdfrwt beam="1">  1       -2 0.34475383E-03 0.10088683E+03</pdfrwt>
<totfact> 0.19115169E+05</totfact>
</mgrwt>
</event>
<event>
 5    1  0.3963873E+001  0.9372674E+02  0.7546771E-02  0.1294070E+00
          2   -1    0    0  501    0  0.00000000000E+00  0.00000000000E+00  0.49295363635E+03  0.49295363635E+03  0.00000000000E+00 0. -1.
         -2   -1    0    0    0  501 -0.00000000000E+00 -0.00000000000E+00 -0.44551357071E+01  0.44551357071E+01  0.00000000000E+00 0.  1.
         23    2    1    2    0    0  0.00000000000E+00  0.00000000000E+00  0.48849850064E+03  0.49740877206E+03  0.93726737856E+02 0.  0.
          2    1    3    3  502    0  0.15127100116E+00 -0.23060697450E+02  0.46075684853E+03  0.46133360176E+03  0.00000000000E+00 0. -1.
         -2    1    3    3    0  502 -0.15127100116E+00  0.23060697450E+02  0.27741652119E+02  0.36075170298E+02  0.00000000000E+00 0.  1.
<mgrwt>
<rscale>  0 0.93726738E+02</rscale>
<asrwt>0</asrwt>
<pdfrwt beam="1">  1        2 0.75838978E-01 0.93726738E+02</pdfrwt>
<pdfrwt beam="2">  1       -2 0.68540588E-03 0.93726738E+02</pdfrwt>
<totfact> 0.19937053E+05</totfact>
</mgrwt>
</event>
<event>
 5    1  0.3963873E+001  0.9084162E+02  0.7546771E-02  0.1300826E+00
         -1   -1    0    0    0  501 -0.00000000000E+00  0.00000000000E+00  0.18410350832E+03  0.18410350832E+03  0.00000000000E+00 0.  1.
          1   -1    0    0  501    0  0.00000000000E+00 -0.00000000000E+00 -0.11205924472E+02  0.11205924472E+02  0.00000000000E+00 0. -1.
         23    2    1    2    0    0  0.00000000000E+00  0.00000000000E+00  0.17289758384E+03  0.19530943279E+03  0.90841620620E+02 0.  0.
          2    1    3    3  502    0  0.29339146176E+02  0.21528681924E+02  0.14488688256E+03  0.14938700874E+03  0.00000000000E+00 0.  1.
         -2    1    3    3    0  502 -0.29339146176E+02 -0.21528681924E+02  0.28010701287E+02  0.45922424046E+02  0.00000000000E+00 0. -1.
<mgrwt>
<rscale>  0 0.90841621E+02</rscale>
<asrwt>0</asrwt>
<pdfrwt beam="2">  1        1 0.17239885E-02 0.90841621E+02</pdfrwt>
<pdfrwt beam="1">  1       -1 0.28323614E-01 0.90841621E+02</pdfrwt>
<totfact> 0.71723956E+04</totfact>
</mgrwt>
</event>
<event>
 5    1  0.3963873E+001  0.9519343E+02  0.7546771E-02  0.1290741E+00
         -1   -1    0    0    0  501 -0.00000000000E+00  0.00000000000E+00  0.50211226857E+01  0.50211226857E+01  0.00000000000E+00 0.  1.
          1   -1    0    0  501    0  0.00000000000E+00 -0.00000000000E+00 -0.45118338655E+03  0.45118338655E+03  0.00000000000E+00 0. -1.
         23    2    1    2    0    0  0.00000000000E+00  0.00000000000E+00 -0.44616226387E+03  0.45620450924E+03  0.95193427035E+02 0.  0.
          2    1    3    3  502    0 -0.11110843034E+02  0.43433046810E+02 -0.14646772309E+03  0.15317530576E+03  0.00000000000E+00 0.  1.
         -2    1    3    3    0  502  0.11110843034E+02 -0.43433046810E+02 -0.29969454078E+03  0.30302920348E+03  0.00000000000E+00 0. -1.
<mgrwt>
<rscale>  0 0.95193427E+02</rscale>
<asrwt>0</asrwt>
<pdfrwt beam="2">  1        1 0.69412868E-01 0.95193427E+02</pdfrwt>
<pdfrwt beam="1">  1       -1 0.77247997E-03 0.95193427E+02</pdfrwt>
<totfact> 0.12252713E+05</totfact>
</mgrwt>
</event>
<event>
 5    1  0.3963873E+001  0.8676298E+02  0.7546771E-02  0.1310885E+00
          2   -1    0    0  501    0  0.00000000000E+00  0.00000000000E+00  0.28420641713E+02  0.28420641713E+02  0.00000000000E+00 0. -1.
         -2   -1    0    0    0  501 -0.00000000000E+00 -0.00000000000E+00 -0.66217842654E+02  0.66217842654E+02  0.00000000000E+00 0.  1.
         23    2    1    2    0    0  0.00000000000E+00  0.00000000000E+00 -0.37797200941E+02  0.94638484366E+02  0.86762977843E+02 0.  0.
          2    1    3    3  502    0  0.34080780500E+02 -0.16968618941E+02  0.37862750571E+01  0.38259240807E+02  0.00000000000E+00 0. -1.
         -2    1    3    3    0  502 -0.34080780500E+02  0.16968618941E+02 -0.41583475998E+02  0.56379243560E+02  0.00000000000E+00 0.  1.
<mgrwt>
<rscale>  0 0.86762978E+02</rscale>
<asrwt>0</asrwt>
<pdfrwt beam="1">  1        2 0.43724065E-02 0.86762978E+02</pdfrwt>
<pdfrwt beam="2">  1       -2 0.10187360E-01 0.86762978E+02</pdfrwt>
<totfact> 0.10099464E+05</totfact>
</mgrwt>
</event>
<event>
 5    1  0.3963873E+001  0.9201267E+02  0.7546771E-02  0.1298050E+00
          2   -1    0    0  501    0  0.00000000000E+00  0.00000000000E+00  0.88910174058E+03  0.88910174058E+03  0.00000000000E+00 0. -1.
         -2   -1    0    0    0  501 -0.00000000000E+00 -0.00000000000E+00 -0.23805856071E+01  0.23805856071E+01  0.00000000000E+00 0.  1.
         23    2    1    2    0    0  0.00000000000E+00  0.00000000000E+00  0.88672115497E+03  0.89148232618E+03  0.92012668842E+02 0.  0.
          2    1    3    3  502    0  0.42801034078E+02 -0.15980377171E+01  0.60609037622E+03  0.60760186503E+03  0.00000000000E+00 0. -1.
         -2    1    3    3    0  502 -0.42801034078E+02  0.15980377171E+01  0.28063077875E+03  0.28388046115E+03  0.00000000000E+00 0.  1.
<mgrwt>
<rscale>  0 0.92012669E+02</rscale>
<asrwt>0</asrwt>
<pdfrwt beam="1">  1        2 0.13678462E+00 0.92012669E+02</pdfrwt>
<pdfrwt beam="2">  1       -2 0.36624465E-03 0.92012669E+02</pdfrwt>
<totfact> 0.24170805E+05</totfact>
</mgrwt>
</event>
<event>
 5    1  0.3963873E+001  0.9052806E+02  0.7546771E-02  0.1301578E+00
         -2   -1    0    0    0  501 -0.00000000000E+00  0.00000000000E+00  0.10464355724E+02  0.10464355724E+02  0.00000000000E+00 0.  1.
          2   -1    0    0  501    0  0.00000000000E+00 -0.00000000000E+00 -0.19579154479E+03  0.19579154479E+03  0.00000000000E+00 0. -1.
         23    2    1    2    0    0  0.00000000000E+00  0.00000000000E+00 -0.18532718907E+03  0.20625590052E+03  0.90528059130E+02 0.  0.
          2    1    3    3  502    0 -0.15202812864E+01  0.44689723978E+02 -0.76658237079E+02  0.88746650621E+02  0.00000000000E+00 0. -1.
         -2    1    3    3    0  502  0.15202812864E+01 -0.44689723978E+02 -0.10866895199E+03  0.11750924990E+03  0.00000000000E+00 0.  1.
<mgrwt>
<rscale>  0 0.90528059E+02</rscale>
<asrwt>0</asrwt>
<pdfrwt beam="2">  1        2 0.30121777E-01 0.90528059E+02</pdfrwt>
<pdfrwt beam="1">  1       -2 0.16099008E-02 0.90528059E+02</pdfrwt>
<totfact> 0.15647529E+05</totfact>
</mgrwt>
</event>
<event>
 5    1  0.3963873E+001  0.9096551E+02  0.7546771E-02  0.1300530E+00
         -3   -1    0    0    0  501 -0.00000000000E+00  0.00000000000E+00  0.89110098201E+02  0.89110098201E+02  0.00000000000E+00 0.  1.
          3   -1    0    0  501    0  0.00000000000E+00 -0.00000000000E+00 -0.23214888228E+02  0.23214888228E+02  0.00000000000E+00 0. -1.
         23    2    1    2    0    0  0.00000000000E+00  0.00000000000E+00  0.65895209973E+02  0.11232498643E+03  0.90965509283E+02 0.  0.
          2    1    3    3  502    0 -0.22203687061E+02  0.40752133543E+01  0.81704092527E+02  0.84765381015E+02  0.00000000000E+00 0.  1.
         -2    1    3    3    0  502  0.22203687061E+02 -0.40752133543E+01 -0.15808882554E+02  0.27559605414E+02  0.00000000000E+00 0. -1.
<mgrwt>
<rscale>  0 0.90965509E+02</rscale>
<asrwt>0</asrwt>
<pdfrwt beam="2">  1        3 0.35715213E-02 0.90965509E+02</pdfrwt>
<pdfrwt beam="1">  1       -3 0.13709246E-01 0.90965509E+02</pdfrwt>
<totfact> 0.33995215E+04</totfact>
</mgrwt>
</event>
<event>
 5    1  0.3963873E+001  0.9426446E+02  0.7546771E-02  0.1292841E+00
          1   -1    0    0  501    0  0.00000000000E+00  0.00000000000E+00  0.38502049807E+03  0.38502049807E+03  0.00000000000E+00 0. -1.
         -1   -1    0    0    0  501 -0.00000000000E+00 -0.00000000000E+00 -0.57696850635E+01  0.57696850635E+01  0.00000000000E+00 0.  1.
         23    2    1    2    0    0  0.00000000000E+00  0.00000000000E+00  0.37925081301E+03  0.39079018313E+03  0.94264458134E+02 0.  0.
          2    1    3    3  502    0  0.28901949200E+02 -0.36979608423E+02  0.17173022882E+03  0.17802832808E+03  0.00000000000E+00 0. -1.
         -2    1    3    3    0  502 -0.28901949200E+02  0.36979608423E+02  0.20752058418E+03  0.21276185506E+03  0.00000000000E+00 0.  1.
<mgrwt>
<rscale>  0 0.94264458E+02</rscale>
<asrwt>0</asrwt>
<pdfrwt beam="1">  1        1 0.59233902E-01 0.94264458E+02</pdfrwt>
<pdfrwt beam="2">  1       -1 0.88764416E-03 0.94264458E+02</pdfrwt>
<totfact> 0.12266544E+05</totfact>
</mgrwt>
</event>
<event>
 5    1  0.3963873E+001  0.9052371E+02  0.7546771E-02  0.1301588E+00
          2   -1    0    0  501    0  0.00000000000E+00  0.00000000000E+00  0.30772035465E+03  0.30772035465E+03  0.00000000000E+00 0. -1.
         -2   -1    0    0    0  501 -0.00000000000E+00 -0.00000000000E+00 -0.66574591625E+01  0.66574591625E+01  0.00000000000E+00 0.  1.
         23    2    1    2    0    0  0.00000000000E+00  0.00000000000E+00  0.30106289549E+03  0.31437781382E+03  0.90523713901E+02 0.  0.
          2    1    3    3  502    0 -0.29959832327E+02 -0.18450164870E+02  0.24941005739E+03  0.25187968728E+03  0.00000000000E+00 0. -1.
         -2    1    3    3    0  502  0.29959832327E+02  0.18450164870E+02  0.51652838105E+02  0.62498126541E+02  0.00000000000E+00 0.  1.
<mgrwt>
<rscale>  0 0.90523714E+02</rscale>
<asrwt>0</asrwt>
<pdfrwt beam="1">  1        2 0.47341582E-01 0.90523714E+02</pdfrwt>
<pdfrwt beam="2">  1       -2 0.10242247E-02 0.90523714E+02</pdfrwt>
<totfact> 0.18487483E+05</totfact>
</mgrwt>
</event>
<event>
 5    1  0.3963873E+001  0.8654985E+02  0.7546771E-02  0.1311429E+00
          1   -1    0    0  501    0  0.00000000000E+00  0.00000000000E+00  0.33045378105E+01  0.33045378105E+01  0.00000000000E+00 0. -1.
         -1   -1    0    0    0  501 -0.00000000000E+00 -0.00000000000E+00 -0.56671137464E+03  0.56671137464E+03  0.00000000000E+00 0.  1.
         23    2    1    2    0    0  0.00000000000E+00  0.00000000000E+00 -0.56340683683E+03  0.57001591245E+03  0.86549850725E+02 0.  0.
          2    1    3    3  502    0 -0.31272475868E+02 -0.20448255035E+02 -0.13792062494E+03  0.14289225894E+03  0.00000000000E+00 0. -1.
         -2    1    3    3    0  502  0.31272475868E+02  0.20448255035E+02 -0.42548621189E+03  0.42712365351E+03  0.00000000000E+00 0.  1.
<mgrwt>
<rscale>  0 0.86549851E+02</rscale>
<asrwt>0</asrwt>
<pdfrwt beam="1">  1        1 0.50839016E-03 0.86549851E+02</pdfrwt>
<pdfrwt beam="2">  1       -1 0.87186412E-01 0.86549851E+02</pdfrwt>
<totfact> 0.49674364E+04</totfact>
</mgrwt>
</event>
<event>
 5    1  0.3963873E+001  0.9860539E+02  0.7546771E-02  0.1283256E+00
         -1   -1    0    0    0  501 -0.00000000000E+00  0.00000000000E+00  0.16331831214E+01  0.16331831214E+01  0.00000000000E+00 0.  1.
          1   -1    0    0  501    0  0.00000000000E+00 -0.00000000000E+00 -0.14883545253E+04  0.14883545253E+04  0.00000000000E+00 0. -1.
         23    2    1    2    0    0  0.00000000000E+00  0.00000000000E+00 -0.14867213422E+04  0.14899877084E+04  0.98605385034E+02 0.  0.
          2    1    3    3  502    0 -0.63944229763E+01 -0.42223588979E+02 -0.11156572571E+04  0.11164742878E+04  0.00000000000E+00 0. -1.
         -2    1    3    3    0  502  0.63944229763E+01  0.42223588979E+02 -0.37106408511E+03  0.37351342060E+03  0.00000000000E+00 0.  1.
<mgrwt>
<rscale>  0 0.98605385E+02</rscale>
<asrwt>0</asrwt>
<pdfrwt beam="2">  1        1 0.22897642E+00 0.98605385E+02</pdfrwt>
<pdfrwt beam="1">  1       -1 0.25126026E-03 0.98605385E+02</pdfrwt>
<totfact> 0.90317174E+04</totfact>
</mgrwt>
</event>
<event>
 5    1  0.3963873E+001  0.8857127E+02  0.7546771E-02  0.1306349E+00
          1   -1    0    0  501    0  0.00000000000E+00  0.00000000000E+00  0.29028403022E+02  0.29028403022E+02  0.00000000000E+00 0. -1.
         -1   -1    0    0    0  501 -0.00000000000E+00 -0.00000000000E+00 -0.67562010326E+02  0.67562010326E+02  0.00000000000E+00 0.  1.
         23    2    1    2    0    0  0.00000000000E+00  0.00000000000E+00 -0.38533607304E+02  0.96590413348E+02  0.88571265424E+02 0.  0.
          2    1    3    3  502    0 -0.86438069228E+01  0.33050946863E+02  0.11465055198E+02  0.36035093691E+02  0.00000000000E+00 0. -1.
         -2    1    3    3    0  502  0.86438069228E+01 -0.33050946863E+02 -0.49998662503E+02  0.60555319656E+02  0.00000000000E+00 0.  1.
<mgrwt>
<rscale>  0 0.88571265E+02</rscale>
<asrwt>0</asrwt>
<pdfrwt beam="1">  1        1 0.44659082E-02 0.88571265E+02</pdfrwt>
<pdfrwt beam="2">  1       -1 0.10394155E-01 0.88571265E+02</pdfrwt>
<totfact> 0.93695272E+04</totfact>
</mgrwt>
</event>
<event>
 5    1  0.3963873E+001  0.9161984E+02  0.7546771E-02  0.1298976E+00
         -3   -1    0    0    0  501 -0.00000000000E+00  0.00000000000E+00  0.12778250375E+01  0.12778250375E+01  0.00000000000E+00 0.  1.
          3   -1    0    0  501    0  0.00000000000E+00 -0.00000000000E+00 -0.16422819455E+04  0.16422819455E+04  0.00000000000E+00 0. -1.
         23    2    1    2    0    0  0.00000000000E+00  0.00000000000E+00 -0.16410041205E+04  0.16435597706E+04  0.91619844765E+02 0.  0.
          2    1    3    3  502    0 -0.45802111883E+02 -0.57430639418E+00 -0.83164308778E+03  0.83290358909E+03  0.00000000000E+00 0. -1.
         -2    1    3    3    0  502  0.45802111883E+02  0.57430639418E+00 -0.80936103272E+03  0.81065618147E+03  0.00000000000E+00 0.  1.
<mgrwt>
<rscale>  0 0.91619845E+02</rscale>
<asrwt>0</asrwt>
<pdfrwt beam="2">  1        3 0.25265777E+00 0.91619845E+02</pdfrwt>
<pdfrwt beam="1">  1       -3 0.19658924E-03 0.91619845E+02</pdfrwt>
<totfact> 0.52352381E+03</totfact>
</mgrwt>
</event>
<event>
 5    1  0.3963873E+001  0.9349288E+02  0.7546771E-02  0.1294607E+00
          1   -1    0    0  501    0  0.00000000000E+00  0.00000000000E+00  0.26973943825E+03  0.26973943825E+03  0.00000000000E+00 0. -1.
         -1   -1    0    0    0  501 -0.00000000000E+00 -0.00000000000E+00 -0.81012614185E+01  0.81012614185E+01  0.00000000000E+00 0.  1.
         23    2    1    2    0    0  0.00000000000E+00  0.00000000000E+00  0.26163817684E+03  0.27784069967E+03  0.93492881102E+02 0.  0.
          2    1    3    3  502    0 -0.33679069125E+02  0.19438297913E+02  0.53718454527E+02  0.66315906687E+02  0.00000000000E+00 0.  1.
         -2    1    3    3    0  502  0.33679069125E+02 -0.19438297913E+02  0.20791972231E+03  0.21152479299E+03  0.00000000000E+00 0. -1.
<mgrwt>
<rscale>  0 0.93492881E+02</rscale>
<asrwt>0</asrwt>
<pdfrwt beam="1">  1        1 0.41498368E-01 0.93492881E+02</pdfrwt>
<pdfrwt beam="2">  1       -1 0.12463481E-02 0.93492881E+02</pdfrwt>
<totfact> 0.11737658E+05</totfact>
</mgrwt>
</event>
<event>
 5    1  0.3963873E+001  0.6926538E+02  0.7546771E-02  0.1362609E+00
         -1   -1    0    0    0  501 -0.00000000000E+00  0.00000000000E+00  0.12792455228E+02  0.12792455228E+02  0.00000000000E+00 0.  1.
          1   -1    0    0  501    0  0.00000000000E+00 -0.00000000000E+00 -0.93760191697E+02  0.93760191697E+02  0.00000000000E+00 0. -1.
         23    2    1    2    0    0  0.00000000000E+00  0.00000000000E+00 -0.80967736469E+02  0.10655264692E+03  0.69265375317E+02 0.  0.
          2    1    3    3  502    0 -0.17497292134E+02 -0.13140784307E+02 -0.81778295421E+02  0.84655330879E+02  0.00000000000E+00 0. -1.
         -2    1    3    3    0  502  0.17497292134E+02  0.13140784307E+02  0.81055895176E+00  0.21897316046E+02  0.00000000000E+00 0.  1.
<mgrwt>
<rscale>  0 0.69265375E+02</rscale>
<asrwt>0</asrwt>
<pdfrwt beam="2">  1        1 0.14424645E-01 0.69265375E+02</pdfrwt>
<pdfrwt beam="1">  1       -1 0.19680701E-02 0.69265375E+02</pdfrwt>
<totfact> 0.21594911E+05</totfact>
</mgrwt>
</event>
<event>
 5    1  0.3963873E+001  0.9096645E+02  0.7546771E-02  0.1300528E+00
          2   -1    0    0  501    0  0.00000000000E+00  0.00000000000E+00  0.55196040045E+03  0.55196040045E+03  0.00000000000E+00 0. -1.
         -2   -1    0    0    0  501 -0.00000000000E+00 -0.00000000000E+00 -0.37479570529E+01  0.37479570529E+01  0.00000000000E+00 0.  1.
         23    2    1    2    0    0  0.00000000000E+00  0.00000000000E+00  0.54821244340E+03  0.55570835751E+03  0.90966452625E+02 0.  0.
          2    1    3    3  502    0 -0.59437296337E+01  0.36816965769E+02  0.43316246611E+03  0.43476492376E+03  0.00000000000E+00 0. -1.
         -2    1    3    3    0  502  0.59437296337E+01 -0.36816965769E+02  0.11504997729E+03  0.12094343374E+03  0.00000000000E+00 0.  1.
<mgrwt>
<rscale>  0 0.90966453E+02</rscale>
<asrwt>0</asrwt>
<pdfrwt beam="1">  1        2 0.84916920E-01 0.90966453E+02</pdfrwt>
<pdfrwt beam="2">  1       -2 0.57660921E-03 0.90966453E+02</pdfrwt>
<totfact> 0.22367880E+05</totfact>
</mgrwt>
</event>
<event>
 5    1  0.3963873E+001  0.8577240E+02  0.7546771E-02  0.1313425E+00
         -3   -1    0    0    0  501 -0.00000000000E+00  0.00000000000E+00  0.39371225679E+01  0.39371225679E+01  0.00000000000E+00 0.  1.
          3   -1    0    0  501    0  0.00000000000E+00 -0.00000000000E+00 -0.46714987107E+03  0.46714987107E+03  0.00000000000E+00 0. -1.
         23    2    1    2    0    0  0.00000000000E+00  0.00000000000E+00 -0.46321274851E+03  0.47108699364E+03  0.85772403487E+02 0.  0.
          2    1    3    3  502    0  0.34038586459E+02  0.23477399755E+02 -0.29408649640E+03  0.29697926028E+03  0.00000000000E+00 0. -1.
         -2    1    3    3    0  502 -0.34038586459E+02 -0.23477399755E+02 -0.16912625210E+03  0.17410773337E+03  0.00000000000E+00 0.  1.
<mgrwt>
<rscale>  0 0.85772403E+02</rscale>
<asrwt>0</asrwt>
<pdfrwt beam="2">  1        3 0.71869178E-01 0.85772403E+02</pdfrwt>
<pdfrwt beam="1">  1       -3 0.60571144E-03 0.85772403E+02</pdfrwt>
<totfact> 0.21919147E+04</totfact>
</mgrwt>
</event>
<event>
 5    1  0.3963873E+001  0.8949952E+02  0.7546771E-02  0.1304068E+00
          2   -1    0    0  501    0  0.00000000000E+00  0.00000000000E+00  0.48197364700E+03  0.48197364700E+03  0.00000000000E+00 0. -1.
         -2   -1    0    0    0  501 -0.00000000000E+00 -0.00000000000E+00 -0.41548767995E+01  0.41548767995E+01  0.00000000000E+00 0.  1.
         23    2    1    2    0    0  0.00000000000E+00  0.00000000000E+00  0.47781877020E+03  0.48612852380E+03  0.89499522321E+02 0.  0.
          2    1    3    3  502    0  0.26879804129E+02  0.16099903518E+02  0.41245071508E+03  0.41363912186E+03  0.00000000000E+00 0. -1.
         -2    1    3    3    0  502 -0.26879804129E+02 -0.16099903518E+02  0.65368055123E+02  0.72489401942E+02  0.00000000000E+00 0.  1.
<mgrwt>
<rscale>  0 0.89499522E+02</rscale>
<asrwt>0</asrwt>
<pdfrwt beam="1">  1        2 0.74149748E-01 0.89499522E+02</pdfrwt>
<pdfrwt beam="2">  1       -2 0.63921220E-03 0.89499522E+02</pdfrwt>
<totfact> 0.22362881E+05</totfact>
</mgrwt>
</event>
<event>
 5    1  0.3963873E+001  0.9325227E+02  0.7546771E-02  0.1295162E+00
          1   -1    0    0  501    0  0.00000000000E+00  0.00000000000E+00  0.34507455459E+02  0.34507455459E+02  0.00000000000E+00 0. -1.
         -1   -1    0    0    0  501 -0.00000000000E+00 -0.00000000000E+00 -0.63000779915E+02  0.63000779915E+02  0.00000000000E+00 0.  1.
         23    2    1    2    0    0  0.00000000000E+00  0.00000000000E+00 -0.28493324455E+02  0.97508235374E+02  0.93252273041E+02 0.  0.
          2    1    3    3  502    0  0.15509056134E+02  0.26920290154E+02  0.22107369870E+02  0.38130940805E+02  0.00000000000E+00 0. -1.
         -2    1    3    3    0  502 -0.15509056134E+02 -0.26920290154E+02 -0.50600694325E+02  0.59377294569E+02  0.00000000000E+00 0.  1.
<mgrwt>
<rscale>  0 0.93252273E+02</rscale>
<asrwt>0</asrwt>
<pdfrwt beam="1">  1        1 0.53088393E-02 0.93252273E+02</pdfrwt>
<pdfrwt beam="2">  1       -1 0.96924276E-02 0.93252273E+02</pdfrwt>
<totfact> 0.83110334E+04</totfact>
</mgrwt>
</event>
<event>
 5    1  0.3963873E+001  0.9080395E+02  0.7546771E-02  0.1300916E+00
          2   -1    0    0  501    0  0.00000000000E+00  0.00000000000E+00  0.26499655033E+03  0.26499655033E+03  0.00000000000E+00 0. -1.
         -2   -1    0    0    0  501 -0.00000000000E+00 -0.00000000000E+00 -0.77787395380E+01  0.77787395380E+01  0.00000000000E+00 0.  1.
         23    2    1    2    0    0  0.00000000000E+00  0.00000000000E+00  0.25721781080E+03  0.27277528987E+03  0.90803945807E+02 0.  0.
          2    1    3    3  502    0 -0.28937966420E+02  0.25861202930E+02  0.19938689324E+03  0.20312887760E+03  0.00000000000E+00 0. -1.
         -2    1    3    3    0  502  0.28937966420E+02 -0.25861202930E+02  0.57830917555E+02  0.69646412275E+02  0.00000000000E+00 0.  1.
<mgrwt>
<rscale>  0 0.90803946E+02</rscale>
<asrwt>0</asrwt>
<pdfrwt beam="1">  1        2 0.40768693E-01 0.90803946E+02</pdfrwt>
<pdfrwt beam="2">  1       -2 0.11967294E-02 0.90803946E+02</pdfrwt>
<totfact> 0.17342510E+05</totfact>
</mgrwt>
</event>
<event>
 5    1  0.3963873E+001  0.9219315E+02  0.7546771E-02  0.1297626E+00
         -2   -1    0    0    0  501 -0.00000000000E+00  0.00000000000E+00  0.19685061455E+01  0.19685061455E+01  0.00000000000E+00 0.  1.
          2   -1    0    0  501    0  0.00000000000E+00 -0.00000000000E+00 -0.10794449905E+04  0.10794449905E+04  0.00000000000E+00 0. -1.
         23    2    1    2    0    0  0.00000000000E+00  0.00000000000E+00 -0.10774764844E+04  0.10814134967E+04  0.92193147198E+02 0.  0.
          2    1    3    3  502    0  0.10328797731E+02  0.32361874000E+02 -0.90423596664E+03  0.90487383558E+03  0.00000000000E+00 0. -1.
         -2    1    3    3    0  502 -0.10328797731E+02 -0.32361874000E+02 -0.17324051773E+03  0.17653966108E+03  0.00000000000E+00 0.  1.
<mgrwt>
<rscale>  0 0.92193147E+02</rscale>
<asrwt>0</asrwt>
<pdfrwt beam="2">  1        2 0.16606811E+00 0.92193147E+02</pdfrwt>
<pdfrwt beam="1">  1       -2 0.30284774E-03 0.92193147E+02</pdfrwt>
<totfact> 0.24309556E+05</totfact>
</mgrwt>
</event>
<event>
 5    1  0.3963873E+001  0.8653535E+02  0.7546771E-02  0.1311466E+00
          1   -1    0    0  501    0  0.00000000000E+00  0.00000000000E+00  0.78475942467E+02  0.78475942467E+02  0.00000000000E+00 0. -1.
         -1   -1    0    0    0  501 -0.00000000000E+00 -0.00000000000E+00 -0.23855610158E+02  0.23855610158E+02  0.00000000000E+00 0.  1.
         23    2    1    2    0    0  0.00000000000E+00  0.00000000000E+00  0.54620332309E+02  0.10233155263E+03  0.86535345155E+02 0.  0.
          2    1    3    3  502    0  0.39150811749E+02  0.62096751822E+01  0.47817797596E+02  0.62111898163E+02  0.00000000000E+00 0. -1.
         -2    1    3    3    0  502 -0.39150811749E+02 -0.62096751822E+01  0.68025347124E+01  0.40219654462E+02  0.00000000000E+00 0.  1.
<mgrwt>
<rscale>  0 0.86535345E+02</rscale>
<asrwt>0</asrwt>
<pdfrwt beam="1">  1        1 0.12073222E-01 0.86535345E+02</pdfrwt>
<pdfrwt beam="2">  1       -1 0.36700939E-02 0.86535345E+02</pdfrwt>
<totfact> 0.11586489E+05</totfact>
</mgrwt>
</event>
<event>
 5    1  0.3963873E+001  0.9575894E+02  0.7546771E-02  0.1289476E+00
          2   -1    0    0  501    0  0.00000000000E+00  0.00000000000E+00  0.34877645446E+02  0.34877645446E+02  0.00000000000E+00 0. -1.
         -2   -1    0    0    0  501 -0.00000000000E+00 -0.00000000000E+00 -0.65728166710E+02  0.65728166710E+02  0.00000000000E+00 0.  1.
         23    2    1    2    0    0  0.00000000000E+00  0.00000000000E+00 -0.30850521265E+02  0.10060581216E+03  0.95758940978E+02 0.  0.
          2    1    3    3  502    0 -0.36894997347E+02  0.30474477950E+02 -0.13761085019E+02  0.49792590779E+02  0.00000000000E+00 0. -1.
         -2    1    3    3    0  502  0.36894997347E+02 -0.30474477950E+02 -0.17089436246E+02  0.50813221377E+02  0.00000000000E+00 0.  1.
<mgrwt>
<rscale>  0 0.95758941E+02</rscale>
<asrwt>0</asrwt>
<pdfrwt beam="1">  1        2 0.53657917E-02 0.95758941E+02</pdfrwt>
<pdfrwt beam="2">  1       -2 0.10112026E-01 0.95758941E+02</pdfrwt>
<totfact> 0.79662578E+04</totfact>
</mgrwt>
</event>
<event>
 5    1  0.3963873E+001  0.1016284E+03  0.7546771E-02  0.1276909E+00
          2   -1    0    0  501    0  0.00000000000E+00  0.00000000000E+00  0.23649181079E+04  0.23649181079E+04  0.00000000000E+00 0. -1.
         -2   -1    0    0    0  501 -0.00000000000E+00 -0.00000000000E+00 -0.10918269958E+01  0.10918269958E+01  0.00000000000E+00 0.  1.
         23    2    1    2    0    0  0.00000000000E+00  0.00000000000E+00  0.23638262809E+04  0.23660099348E+04  0.10162837070E+03 0.  0.
          2    1    3    3  502    0  0.24811193932E+02 -0.43759768454E+02  0.13490972197E+04  0.13500347480E+04  0.00000000000E+00 0. -1.
         -2    1    3    3    0  502 -0.24811193932E+02  0.43759768454E+02  0.10147290612E+04  0.10159751869E+04  0.00000000000E+00 0.  1.
<mgrwt>
<rscale>  0 0.10162837E+03</rscale>
<asrwt>0</asrwt>
<pdfrwt beam="1">  1        2 0.36382945E+00 0.10162837E+03</pdfrwt>
<pdfrwt beam="2">  1       -2 0.16797528E-03 0.10162837E+03</pdfrwt>
<totfact> 0.12117299E+05</totfact>
</mgrwt>
</event>
<event>
 5    1  0.3963873E+001  0.9153596E+02  0.7546771E-02  0.1299174E+00
         -1   -1    0    0    0  501 -0.00000000000E+00  0.00000000000E+00  0.52381935933E+03  0.52381935933E+03  0.00000000000E+00 0.  1.
          1   -1    0    0  501    0  0.00000000000E+00 -0.00000000000E+00 -0.39989125002E+01  0.39989125002E+01  0.00000000000E+00 0. -1.
         23    2    1    2    0    0  0.00000000000E+00  0.00000000000E+00  0.51982044683E+03  0.52781827183E+03  0.91535955424E+02 0.  0.
          2    1    3    3  502    0  0.19159481582E+02  0.11554376840E+02  0.29684952754E+02  0.37172379244E+02  0.00000000000E+00 0. -1.
         -2    1    3    3    0  502 -0.19159481582E+02 -0.11554376840E+02  0.49013549407E+03  0.49064589258E+03  0.00000000000E+00 0.  1.
<mgrwt>
<rscale>  0 0.91535955E+02</rscale>
<asrwt>0</asrwt>
<pdfrwt beam="2">  1        1 0.61521772E-03 0.91535955E+02</pdfrwt>
<pdfrwt beam="1">  1       -1 0.80587539E-01 0.91535955E+02</pdfrwt>
<totfact> 0.45213807E+04</totfact>
</mgrwt>
</event>
<event>
 5    1  0.3963873E+001  0.9184639E+02  0.7546771E-02  0.1298441E+00
          2   -1    0    0  501    0  0.00000000000E+00  0.00000000000E+00  0.92496898741E+02  0.92496898741E+02  0.00000000000E+00 0.  1.
         -2   -1    0    0    0  501 -0.00000000000E+00 -0.00000000000E+00 -0.22800113517E+02  0.22800113517E+02  0.00000000000E+00 0. -1.
         23    2    1    2    0    0  0.00000000000E+00  0.00000000000E+00  0.69696785224E+02  0.11529701226E+03  0.91846388960E+02 0.  0.
          2    1    3    3  502    0 -0.24794482846E+02 -0.22274157358E+02 -0.48094352999E+01  0.33675438134E+02  0.00000000000E+00 0. -1.
         -2    1    3    3    0  502  0.24794482846E+02  0.22274157358E+02  0.74506220524E+02  0.81621574124E+02  0.00000000000E+00 0.  1.
<mgrwt>
<rscale>  0 0.91846389E+02</rscale>
<asrwt>0</asrwt>
<pdfrwt beam="1">  1        2 0.14230292E-01 0.91846389E+02</pdfrwt>
<pdfrwt beam="2">  1       -2 0.35077098E-02 0.91846389E+02</pdfrwt>
<totfact> 0.11742724E+05</totfact>
</mgrwt>
</event>
<event>
 5    1  0.3963873E+001  0.9171031E+02  0.7546771E-02  0.1298762E+00
         -1   -1    0    0    0  501 -0.00000000000E+00  0.00000000000E+00  0.12545603145E+02  0.12545603145E+02  0.00000000000E+00 0.  1.
          1   -1    0    0  501    0  0.00000000000E+00 -0.00000000000E+00 -0.16760415818E+03  0.16760415818E+03  0.00000000000E+00 0. -1.
         23    2    1    2    0    0  0.00000000000E+00  0.00000000000E+00 -0.15505855503E+03  0.18014976132E+03  0.91710310302E+02 0.  0.
          2    1    3    3  502    0 -0.82634380680E+01 -0.29643197161E+02 -0.14430775708E+03  0.14755247304E+03  0.00000000000E+00 0. -1.
         -2    1    3    3    0  502  0.82634380680E+01  0.29643197161E+02 -0.10750797949E+02  0.32597288280E+02  0.00000000000E+00 0.  1.
<mgrwt>
<rscale>  0 0.91710310E+02</rscale>
<asrwt>0</asrwt>
<pdfrwt beam="2">  1        1 0.25785255E-01 0.91710310E+02</pdfrwt>
<pdfrwt beam="1">  1       -1 0.19300928E-02 0.91710310E+02</pdfrwt>
<totfact> 0.11268447E+05</totfact>
</mgrwt>
</event>
<event>
 5    1  0.3963873E+001  0.8958874E+02  0.7546771E-02  0.1303851E+00
         -2   -1    0    0    0  501 -0.00000000000E+00  0.00000000000E+00  0.41951048729E+02  0.41951048729E+02  0.00000000000E+00 0.  1.
          2   -1    0    0  501    0  0.00000000000E+00 -0.00000000000E+00 -0.47830405710E+02  0.47830405710E+02  0.00000000000E+00 0. -1.
         23    2    1    2    0    0  0.00000000000E+00  0.00000000000E+00 -0.58793569811E+01  0.89781454439E+02  0.89588742165E+02 0.  0.
          2    1    3    3  502    0 -0.32648568716E+02 -0.62088258301E+01  0.27159193344E+02  0.42919696417E+02  0.00000000000E+00 0.  1.
         -2    1    3    3    0  502  0.32648568716E+02  0.62088258301E+01 -0.33038550325E+02  0.46861758023E+02  0.00000000000E+00 0. -1.
<mgrwt>
<rscale>  0 0.89588742E+02</rscale>
<asrwt>0</asrwt>
<pdfrwt beam="2">  1        2 0.73585240E-02 0.89588742E+02</pdfrwt>
<pdfrwt beam="1">  1       -2 0.64540075E-02 0.89588742E+02</pdfrwt>
<totfact> 0.10505078E+05</totfact>
</mgrwt>
</event>
<event>
 5    1  0.3963873E+001  0.9090945E+02  0.7546771E-02  0.1300664E+00
          2   -1    0    0  501    0  0.00000000000E+00  0.00000000000E+00  0.47557814428E+03  0.47557814428E+03  0.00000000000E+00 0. -1.
         -2   -1    0    0    0  501 -0.00000000000E+00 -0.00000000000E+00 -0.43444641777E+01  0.43444641777E+01  0.00000000000E+00 0.  1.
         23    2    1    2    0    0  0.00000000000E+00  0.00000000000E+00  0.47123368011E+03  0.47992260846E+03  0.90909454107E+02 0.  0.
          2    1    3    3  502    0  0.15163181543E+02 -0.34284605452E+02  0.37131978689E+03  0.37320736914E+03  0.00000000000E+00 0. -1.
         -2    1    3    3    0  502 -0.15163181543E+02  0.34284605452E+02  0.99913893214E+02  0.10671523932E+03  0.00000000000E+00 0.  1.
<mgrwt>
<rscale>  0 0.90909454E+02</rscale>
<asrwt>0</asrwt>
<pdfrwt beam="1">  1        2 0.73165827E-01 0.90909454E+02</pdfrwt>
<pdfrwt beam="2">  1       -2 0.66837948E-03 0.90909454E+02</pdfrwt>
<totfact> 0.21362464E+05</totfact>
</mgrwt>
</event>
<event>
 5    1  0.3963873E+001  0.8972740E+02  0.7546771E-02  0.1303513E+00
         -1   -1    0    0    0  501 -0.00000000000E+00  0.00000000000E+00  0.35367914738E+02  0.35367914738E+02  0.00000000000E+00 0.  1.
          1   -1    0    0  501    0  0.00000000000E+00 -0.00000000000E+00 -0.56908973725E+02  0.56908973725E+02  0.00000000000E+00 0. -1.
         23    2    1    2    0    0  0.00000000000E+00  0.00000000000E+00 -0.21541058986E+02  0.92276888463E+02  0.89727403407E+02 0.  0.
          2    1    3    3  502    0  0.38161490433E+02  0.12510476712E+02 -0.31337269288E+02  0.50939531074E+02  0.00000000000E+00 0. -1.
         -2    1    3    3    0  502 -0.38161490433E+02 -0.12510476712E+02  0.97962103015E+01  0.41337357389E+02  0.00000000000E+00 0.  1.
<mgrwt>
<rscale>  0 0.89727403E+02</rscale>
<asrwt>0</asrwt>
<pdfrwt beam="2">  1        1 0.87552266E-02 0.89727403E+02</pdfrwt>
<pdfrwt beam="1">  1       -1 0.54412177E-02 0.89727403E+02</pdfrwt>
<totfact> 0.99950505E+04</totfact>
</mgrwt>
</event>
<event>
 5    1  0.3963873E+001  0.9445100E+02  0.7546771E-02  0.1292417E+00
          2   -1    0    0  501    0  0.00000000000E+00  0.00000000000E+00  0.24456695953E+04  0.24456695953E+04  0.00000000000E+00 0. -1.
         -2   -1    0    0    0  501 -0.00000000000E+00 -0.00000000000E+00 -0.91191698634E+00  0.91191698634E+00  0.00000000000E+00 0.  1.
         23    2    1    2    0    0  0.00000000000E+00  0.00000000000E+00  0.24447576784E+04  0.24465815123E+04  0.94450995695E+02 0.  0.
          2    1    3    3  502    0 -0.41330497004E+02 -0.22654550709E+02  0.12992593690E+04  0.13001139745E+04  0.00000000000E+00 0. -1.
         -2    1    3    3    0  502  0.41330497004E+02  0.22654550709E+02  0.11454983093E+04  0.11464675378E+04  0.00000000000E+00 0.  1.
<mgrwt>
<rscale>  0 0.94450996E+02</rscale>
<asrwt>0</asrwt>
<pdfrwt beam="1">  1        2 0.37625161E+00 0.94450996E+02</pdfrwt>
<pdfrwt beam="2">  1       -2 0.14029688E-03 0.94450996E+02</pdfrwt>
<totfact> 0.14010786E+05</totfact>
</mgrwt>
</event>
<event>
 5    1  0.3963873E+001  0.8848073E+02  0.7546771E-02  0.1306573E+00
         -2   -1    0    0    0  501 -0.00000000000E+00  0.00000000000E+00  0.23698461698E+01  0.23698461698E+01  0.00000000000E+00 0. -1.
          2   -1    0    0  501    0  0.00000000000E+00 -0.00000000000E+00 -0.82588048092E+03  0.82588048092E+03  0.00000000000E+00 0.  1.
         23    2    1    2    0    0  0.00000000000E+00  0.00000000000E+00 -0.82351063475E+03  0.82825032709E+03  0.88480725458E+02 0.  0.
          2    1    3    3  502    0  0.20433685843E+02  0.38469492794E+02 -0.33938459123E+03  0.34216858149E+03  0.00000000000E+00 0.  1.
         -2    1    3    3    0  502 -0.20433685843E+02 -0.38469492794E+02 -0.48412604352E+03  0.48608174560E+03  0.00000000000E+00 0. -1.
<mgrwt>
<rscale>  0 0.88480725E+02</rscale>
<asrwt>0</asrwt>
<pdfrwt beam="2">  1        2 0.12705855E+00 0.88480725E+02</pdfrwt>
<pdfrwt beam="1">  1       -2 0.36459166E-03 0.88480725E+02</pdfrwt>
<totfact> 0.26517836E+05</totfact>
</mgrwt>
</event>
<event>
 5    1  0.3963873E+001  0.9385116E+02  0.7546771E-02  0.1293785E+00
         -1   -1    0    0    0  501 -0.00000000000E+00  0.00000000000E+00  0.14528323385E+02  0.14528323385E+02  0.00000000000E+00 0.  1.
          1   -1    0    0  501    0  0.00000000000E+00 -0.00000000000E+00 -0.15156669265E+03  0.15156669265E+03  0.00000000000E+00 0. -1.
         23    2    1    2    0    0  0.00000000000E+00  0.00000000000E+00 -0.13703836927E+03  0.16609501604E+03  0.93851157162E+02 0.  0.
          2    1    3    3  502    0 -0.31416727405E+02 -0.33689622283E+02 -0.52689033053E+02  0.69986681693E+02  0.00000000000E+00 0. -1.
         -2    1    3    3    0  502  0.31416727405E+02  0.33689622283E+02 -0.84349336213E+02  0.96108334342E+02  0.00000000000E+00 0.  1.
<mgrwt>
<rscale>  0 0.93851157E+02</rscale>
<asrwt>0</asrwt>
<pdfrwt beam="2">  1        1 0.23317953E-01 0.93851157E+02</pdfrwt>
<pdfrwt beam="1">  1       -1 0.22351266E-02 0.93851157E+02</pdfrwt>
<totfact> 0.10389994E+05</totfact>
</mgrwt>
</event>
<event>
 5    1  0.3963873E+001  0.9222215E+02  0.7546771E-02  0.1297558E+00
         -2   -1    0    0    0  501 -0.00000000000E+00  0.00000000000E+00  0.25402438374E+01  0.25402438374E+01  0.00000000000E+00 0. -1.
          2   -1    0    0  501    0  0.00000000000E+00 -0.00000000000E+00 -0.83701853498E+03  0.83701853498E+03  0.00000000000E+00 0.  1.
         23    2    1    2    0    0  0.00000000000E+00  0.00000000000E+00 -0.83447829115E+03  0.83955877882E+03  0.92222148648E+02 0.  0.
          2    1    3    3  502    0 -0.36971850255E+02  0.23266503606E+02 -0.28283042215E+03  0.28618402401E+03  0.00000000000E+00 0. -1.
         -2    1    3    3    0  502  0.36971850255E+02 -0.23266503606E+02 -0.55164786899E+03  0.55337475481E+03  0.00000000000E+00 0.  1.
<mgrwt>
<rscale>  0 0.92222149E+02</rscale>
<asrwt>0</asrwt>
<pdfrwt beam="2">  1        2 0.12877193E+00 0.92222149E+02</pdfrwt>
<pdfrwt beam="1">  1       -2 0.39080720E-03 0.92222149E+02</pdfrwt>
<totfact> 0.23828864E+05</totfact>
</mgrwt>
</event>
<event>
 5    1  0.3963873E+001  0.9147289E+02  0.7546771E-02  0.1299324E+00
          1   -1    0    0  501    0  0.00000000000E+00  0.00000000000E+00  0.86359225515E+03  0.86359225515E+03  0.00000000000E+00 0. -1.
         -1   -1    0    0    0  501 -0.00000000000E+00 -0.00000000000E+00 -0.24222339070E+01  0.24222339070E+01  0.00000000000E+00 0.  1.
         23    2    1    2    0    0  0.00000000000E+00  0.00000000000E+00  0.86117002124E+03  0.86601448905E+03  0.91472890897E+02 0.  0.
          2    1    3    3  502    0  0.12945961562E+02  0.38582982905E+02  0.62817534564E+03  0.62949226314E+03  0.00000000000E+00 0. -1.
         -2    1    3    3    0  502 -0.12945961562E+02 -0.38582982905E+02  0.23299467560E+03  0.23652222591E+03  0.00000000000E+00 0.  1.
<mgrwt>
<rscale>  0 0.91472891E+02</rscale>
<asrwt>0</asrwt>
<pdfrwt beam="1">  1        1 0.13286010E+00 0.91472891E+02</pdfrwt>
<pdfrwt beam="2">  1       -1 0.37265206E-03 0.91472891E+02</pdfrwt>
<totfact> 0.13888343E+05</totfact>
</mgrwt>
</event>
<event>
 5    1  0.3963873E+001  0.8410289E+02  0.7546771E-02  0.1317795E+00
         -2   -1    0    0    0  501 -0.00000000000E+00  0.00000000000E+00  0.24997667948E+02  0.24997667948E+02  0.00000000000E+00 0.  1.
          2   -1    0    0  501    0  0.00000000000E+00 -0.00000000000E+00 -0.70739556749E+02  0.70739556749E+02  0.00000000000E+00 0. -1.
         23    2    1    2    0    0  0.00000000000E+00  0.00000000000E+00 -0.45741888802E+02  0.95737224697E+02  0.84102888188E+02 0.  0.
          2    1    3    3  502    0  0.17455717878E+02  0.29917671318E+02 -0.50013834685E+02  0.60837100552E+02  0.00000000000E+00 0. -1.
         -2    1    3    3    0  502 -0.17455717878E+02 -0.29917671318E+02  0.42719458828E+01  0.34900124145E+02  0.00000000000E+00 0.  1.
<mgrwt>
<rscale>  0 0.84102888E+02</rscale>
<asrwt>0</asrwt>
<pdfrwt beam="2">  1        2 0.10883009E-01 0.84102888E+02</pdfrwt>
<pdfrwt beam="1">  1       -2 0.38457951E-02 0.84102888E+02</pdfrwt>
<totfact> 0.13881506E+05</totfact>
</mgrwt>
</event>
<event>
 5    1  0.3963873E+001  0.9267107E+02  0.7546771E-02  0.1296509E+00
         -4   -1    0    0    0  501 -0.00000000000E+00  0.00000000000E+00  0.10768471330E+02  0.10768471330E+02  0.00000000000E+00 0.  1.
          4   -1    0    0  501    0  0.00000000000E+00 -0.00000000000E+00 -0.19937666480E+03  0.19937666480E+03  0.00000000000E+00 0. -1.
         23    2    1    2    0    0  0.00000000000E+00  0.00000000000E+00 -0.18860819347E+03  0.21014513613E+03  0.92671072050E+02 0.  0.
          2    1    3    3  502    0  0.22644494471E+02 -0.26194812487E+02 -0.16412550696E+03  0.16773825851E+03  0.00000000000E+00 0. -1.
         -2    1    3    3    0  502 -0.22644494471E+02  0.26194812487E+02 -0.24482686505E+02  0.42406877621E+02  0.00000000000E+00 0.  1.
<mgrwt>
<rscale>  0 0.92671072E+02</rscale>
<asrwt>0</asrwt>
<pdfrwt beam="2">  1        4 0.30673330E-01 0.92671072E+02</pdfrwt>
<pdfrwt beam="1">  1       -4 0.16566881E-02 0.92671072E+02</pdfrwt>
<totfact> 0.20075070E+04</totfact>
</mgrwt>
</event>
<event>
 5    1  0.3963873E+001  0.9083890E+02  0.7546771E-02  0.1300833E+00
          1   -1    0    0  501    0  0.00000000000E+00  0.00000000000E+00  0.18719462356E+01  0.18719462356E+01  0.00000000000E+00 0. -1.
         -1   -1    0    0    0  501 -0.00000000000E+00 -0.00000000000E+00 -0.11020221926E+04  0.11020221926E+04  0.00000000000E+00 0.  1.
         23    2    1    2    0    0  0.00000000000E+00  0.00000000000E+00 -0.11001502463E+04  0.11038941388E+04  0.90838896843E+02 0.  0.
          2    1    3    3  502    0  0.44452243821E+02 -0.93117970058E+01 -0.55570660726E+03  0.55755945414E+03  0.00000000000E+00 0. -1.
         -2    1    3    3    0  502 -0.44452243821E+02  0.93117970058E+01 -0.54444363907E+03  0.54633468466E+03  0.00000000000E+00 0.  1.
<mgrwt>
<rscale>  0 0.90838897E+02</rscale>
<asrwt>0</asrwt>
<pdfrwt beam="1">  1        1 0.28799127E-03 0.90838897E+02</pdfrwt>
<pdfrwt beam="2">  1       -1 0.16954215E+00 0.90838897E+02</pdfrwt>
<totfact> 0.22878652E+04</totfact>
</mgrwt>
</event>
<event>
 5    1  0.3963873E+001  0.9071935E+02  0.7546771E-02  0.1301119E+00
          1   -1    0    0  501    0  0.00000000000E+00  0.00000000000E+00  0.95544562766E+01  0.95544562766E+01  0.00000000000E+00 0. -1.
         -1   -1    0    0    0  501 -0.00000000000E+00 -0.00000000000E+00 -0.21534457083E+03  0.21534457083E+03  0.00000000000E+00 0.  1.
         23    2    1    2    0    0  0.00000000000E+00  0.00000000000E+00 -0.20579011456E+03  0.22489902711E+03  0.90719353755E+02 0.  0.
          2    1    3    3  502    0 -0.34835297624E+02 -0.26639320266E+02 -0.13162963066E+03  0.13874260706E+03  0.00000000000E+00 0. -1.
         -2    1    3    3    0  502  0.34835297624E+02  0.26639320266E+02 -0.74160483895E+02  0.86156420053E+02  0.00000000000E+00 0.  1.
<mgrwt>
<rscale>  0 0.90719354E+02</rscale>
<asrwt>0</asrwt>
<pdfrwt beam="1">  1        1 0.14699164E-02 0.90719354E+02</pdfrwt>
<pdfrwt beam="2">  1       -1 0.33129932E-01 0.90719354E+02</pdfrwt>
<totfact> 0.68828724E+04</totfact>
</mgrwt>
</event>
<event>
 5    1  0.3963873E+001  0.9310474E+02  0.7546771E-02  0.1295503E+00
         -2   -1    0    0    0  501 -0.00000000000E+00  0.00000000000E+00  0.33959258092E+01  0.33959258092E+01  0.00000000000E+00 0. -1.
          2   -1    0    0  501    0  0.00000000000E+00 -0.00000000000E+00 -0.63815391185E+03  0.63815391185E+03  0.00000000000E+00 0.  1.
         23    2    1    2    0    0  0.00000000000E+00  0.00000000000E+00 -0.63475798604E+03  0.64154983766E+03  0.93104744013E+02 0.  0.
          2    1    3    3  502    0 -0.38962695687E+02 -0.25390454281E+02 -0.30299669678E+03  0.30654488266E+03  0.00000000000E+00 0. -1.
         -2    1    3    3    0  502  0.38962695687E+02  0.25390454281E+02 -0.33176128926E+03  0.33500495500E+03  0.00000000000E+00 0.  1.
<mgrwt>
<rscale>  0 0.93104744E+02</rscale>
<asrwt>0</asrwt>
<pdfrwt beam="2">  1        2 0.98177605E-01 0.93104744E+02</pdfrwt>
<pdfrwt beam="1">  1       -2 0.52244970E-03 0.93104744E+02</pdfrwt>
<totfact> 0.21926656E+05</totfact>
</mgrwt>
</event>
<event>
 5    1  0.3963873E+001  0.9197501E+02  0.7546771E-02  0.1298138E+00
         -2   -1    0    0    0  501 -0.00000000000E+00  0.00000000000E+00  0.13711391001E+02  0.13711391001E+02  0.00000000000E+00 0.  1.
          2   -1    0    0  501    0  0.00000000000E+00 -0.00000000000E+00 -0.15424039975E+03  0.15424039975E+03  0.00000000000E+00 0. -1.
         23    2    1    2    0    0  0.00000000000E+00  0.00000000000E+00 -0.14052900875E+03  0.16795179076E+03  0.91975005935E+02 0.  0.
          2    1    3    3  502    0  0.28931950955E+02  0.35626492311E+02 -0.64926384166E+02  0.79509371154E+02  0.00000000000E+00 0. -1.
         -2    1    3    3    0  502 -0.28931950955E+02 -0.35626492311E+02 -0.75602624587E+02  0.88442419601E+02  0.00000000000E+00 0.  1.
<mgrwt>
<rscale>  0 0.91975006E+02</rscale>
<asrwt>0</asrwt>
<pdfrwt beam="2">  1        2 0.23729292E-01 0.91975006E+02</pdfrwt>
<pdfrwt beam="1">  1       -2 0.21094448E-02 0.91975006E+02</pdfrwt>
<totfact> 0.13784441E+05</totfact>
</mgrwt>
</event>
<event>
 5    1  0.3963873E+001  0.8634739E+02  0.7546771E-02  0.1311946E+00
          4   -1    0    0  501    0  0.00000000000E+00  0.00000000000E+00  0.12512956261E+04  0.12512956261E+04  0.00000000000E+00 0. -1.
         -4   -1    0    0    0  501 -0.00000000000E+00 -0.00000000000E+00 -0.14896302268E+01  0.14896302268E+01  0.00000000000E+00 0.  1.
         23    2    1    2    0    0  0.00000000000E+00  0.00000000000E+00  0.12498059959E+04  0.12527852563E+04  0.86347386464E+02 0.  0.
          2    1    3    3  502    0  0.27173175492E+02 -0.25082878121E+02  0.94816813638E+03  0.94888900673E+03  0.00000000000E+00 0. -1.
         -2    1    3    3    0  502 -0.27173175492E+02  0.25082878121E+02  0.30163785950E+03  0.30389624961E+03  0.00000000000E+00 0.  1.
<mgrwt>
<rscale>  0 0.86347386E+02</rscale>
<asrwt>0</asrwt>
<pdfrwt beam="1">  1        4 0.19250618E+00 0.86347386E+02</pdfrwt>
<pdfrwt beam="2">  1       -4 0.22917488E-03 0.86347386E+02</pdfrwt>
<totfact> 0.62685739E+03</totfact>
</mgrwt>
</event>
<event>
 5    1  0.3963873E+001  0.8993807E+02  0.7546771E-02  0.1303002E+00
         -2   -1    0    0    0  501 -0.00000000000E+00  0.00000000000E+00  0.10867694402E+01  0.10867694402E+01  0.00000000000E+00 0.  1.
          2   -1    0    0  501    0  0.00000000000E+00 -0.00000000000E+00 -0.18607571941E+04  0.18607571941E+04  0.00000000000E+00 0. -1.
         23    2    1    2    0    0  0.00000000000E+00  0.00000000000E+00 -0.18596704247E+04  0.18618439635E+04  0.89938068787E+02 0.  0.
          2    1    3    3  502    0 -0.60348560367E+01 -0.26921367874E+02 -0.19470679618E+03  0.19665176331E+03  0.00000000000E+00 0.  1.
         -2    1    3    3    0  502  0.60348560367E+01  0.26921367874E+02 -0.16649636285E+04  0.16651922002E+04  0.00000000000E+00 0. -1.
<mgrwt>
<rscale>  0 0.89938069E+02</rscale>
<asrwt>0</asrwt>
<pdfrwt beam="2">  1        2 0.28626870E+00 0.89938069E+02</pdfrwt>
<pdfrwt beam="1">  1       -2 0.16719626E-03 0.89938069E+02</pdfrwt>
<totfact> 0.21690073E+05</totfact>
</mgrwt>
</event>
<event>
 5    1  0.3963873E+001  0.9230910E+02  0.7546771E-02  0.1297354E+00
         -1   -1    0    0    0  501 -0.00000000000E+00  0.00000000000E+00  0.92233806000E+02  0.92233806000E+02  0.00000000000E+00 0.  1.
          1   -1    0    0  501    0  0.00000000000E+00 -0.00000000000E+00 -0.23096115723E+02  0.23096115723E+02  0.00000000000E+00 0. -1.
         23    2    1    2    0    0  0.00000000000E+00  0.00000000000E+00  0.69137690277E+02  0.11532992172E+03  0.92309103709E+02 0.  0.
          2    1    3    3  502    0 -0.24359705242E+01  0.25087714754E+02  0.82875365198E+02  0.86623631537E+02  0.00000000000E+00 0. -1.
         -2    1    3    3    0  502  0.24359705242E+01 -0.25087714754E+02 -0.13737674921E+02  0.28706290185E+02  0.00000000000E+00 0.  1.
<mgrwt>
<rscale>  0 0.92309104E+02</rscale>
<asrwt>0</asrwt>
<pdfrwt beam="2">  1        1 0.35532486E-02 0.92309104E+02</pdfrwt>
<pdfrwt beam="1">  1       -1 0.14189816E-01 0.92309104E+02</pdfrwt>
<totfact> 0.79999087E+04</totfact>
</mgrwt>
</event>
<event>
 5    1  0.3963873E+001  0.9101899E+02  0.7546771E-02  0.1300403E+00
          3   -1    0    0  501    0  0.00000000000E+00  0.00000000000E+00  0.15745580128E+02  0.15745580128E+02  0.00000000000E+00 0. -1.
         -3   -1    0    0    0  501 -0.00000000000E+00 -0.00000000000E+00 -0.13153622052E+03  0.13153622052E+03  0.00000000000E+00 0.  1.
         23    2    1    2    0    0  0.00000000000E+00  0.00000000000E+00 -0.11579064039E+03  0.14728180064E+03  0.91018989225E+02 0.  0.
          2    1    3    3  502    0  0.26885763936E+02 -0.25237122719E+02 -0.14737349662E+02  0.39710781164E+02  0.00000000000E+00 0. -1.
         -2    1    3    3    0  502 -0.26885763936E+02  0.25237122719E+02 -0.10105329073E+03  0.10757101948E+03  0.00000000000E+00 0.  1.
<mgrwt>
<rscale>  0 0.91018989E+02</rscale>
<asrwt>0</asrwt>
<pdfrwt beam="1">  1        3 0.24223970E-02 0.91018989E+02</pdfrwt>
<pdfrwt beam="2">  1       -3 0.20236341E-01 0.91018989E+02</pdfrwt>
<totfact> 0.31623574E+04</totfact>
</mgrwt>
</event>
<event>
 5    1  0.3963873E+001  0.8872457E+02  0.7546771E-02  0.1305970E+00
         -1   -1    0    0    0  501 -0.00000000000E+00  0.00000000000E+00  0.16910823541E+01  0.16910823541E+01  0.00000000000E+00 0.  1.
          1   -1    0    0  501    0  0.00000000000E+00 -0.00000000000E+00 -0.11637590369E+04  0.11637590369E+04  0.00000000000E+00 0. -1.
         23    2    1    2    0    0  0.00000000000E+00  0.00000000000E+00 -0.11620679545E+04  0.11654501192E+04  0.88724570931E+02 0.  0.
          2    1    3    3  502    0 -0.13008049221E+02  0.41057772049E+02 -0.44136213954E+03  0.44345855298E+03  0.00000000000E+00 0.  1.
         -2    1    3    3    0  502  0.13008049221E+02 -0.41057772049E+02 -0.72070581499E+03  0.72199156626E+03  0.00000000000E+00 0. -1.
<mgrwt>
<rscale>  0 0.88724571E+02</rscale>
<asrwt>0</asrwt>
<pdfrwt beam="2">  1        1 0.17903878E+00 0.88724571E+02</pdfrwt>
<pdfrwt beam="1">  1       -1 0.26016807E-03 0.88724571E+02</pdfrwt>
<totfact> 0.13871306E+05</totfact>
</mgrwt>
</event>
<event>
 5    1  0.3963873E+001  0.8306764E+02  0.7546771E-02  0.1320565E+00
         -1   -1    0    0    0  501 -0.00000000000E+00  0.00000000000E+00  0.74431408512E+01  0.74431408512E+01  0.00000000000E+00 0.  1.
          1   -1    0    0  501    0  0.00000000000E+00 -0.00000000000E+00 -0.23176483043E+03  0.23176483043E+03  0.00000000000E+00 0. -1.
         23    2    1    2    0    0  0.00000000000E+00  0.00000000000E+00 -0.22432168958E+03  0.23920797128E+03  0.83067641769E+02 0.  0.
          2    1    3    3  502    0  0.13545610693E+02  0.38646063485E+02 -0.13212356726E+03  0.13832439704E+03  0.00000000000E+00 0. -1.
         -2    1    3    3    0  502 -0.13545610693E+02 -0.38646063485E+02 -0.92198122320E+02  0.10088357424E+03  0.00000000000E+00 0.  1.
<mgrwt>
<rscale>  0 0.83067642E+02</rscale>
<asrwt>0</asrwt>
<pdfrwt beam="2">  1        1 0.35656129E-01 0.83067642E+02</pdfrwt>
<pdfrwt beam="1">  1       -1 0.11450986E-02 0.83067642E+02</pdfrwt>
<totfact> 0.15611975E+05</totfact>
</mgrwt>
</event>
<event>
 5    1  0.3963873E+001  0.9112318E+02  0.7546771E-02  0.1300154E+00
         -2   -1    0    0    0  501 -0.00000000000E+00  0.00000000000E+00  0.66096770424E+03  0.66096770424E+03  0.00000000000E+00 0.  1.
          2   -1    0    0  501    0  0.00000000000E+00 -0.00000000000E+00 -0.31406351813E+01  0.31406351813E+01  0.00000000000E+00 0. -1.
         23    2    1    2    0    0  0.00000000000E+00  0.00000000000E+00  0.65782706905E+03  0.66410833942E+03  0.91123178734E+02 0.  0.
          2    1    3    3  502    0 -0.58332798110E+01 -0.28483633684E+02  0.73259099108E+02  0.78817765404E+02  0.00000000000E+00 0. -1.
         -2    1    3    3    0  502  0.58332798110E+01  0.28483633684E+02  0.58456796995E+03  0.58529057401E+03  0.00000000000E+00 0.  1.
<mgrwt>
<rscale>  0 0.91123179E+02</rscale>
<asrwt>0</asrwt>
<pdfrwt beam="2">  1        2 0.48317517E-03 0.91123179E+02</pdfrwt>
<pdfrwt beam="1">  1       -2 0.10168723E+00 0.91123179E+02</pdfrwt>
<totfact> 0.28724867E+04</totfact>
</mgrwt>
</event>
<event>
 5    1  0.3963873E+001  0.9187461E+02  0.7546771E-02  0.1298375E+00
         -3   -1    0    0    0  501 -0.00000000000E+00  0.00000000000E+00  0.35417162135E+02  0.35417162135E+02  0.00000000000E+00 0.  1.
          3   -1    0    0  501    0  0.00000000000E+00 -0.00000000000E+00 -0.59582302733E+02  0.59582302733E+02  0.00000000000E+00 0. -1.
         23    2    1    2    0    0  0.00000000000E+00  0.00000000000E+00 -0.24165140598E+02  0.94999464869E+02  0.91874611864E+02 0.  0.
          2    1    3    3  502    0 -0.17735496938E+02 -0.33979518618E+02  0.14098170940E+02  0.40840102363E+02  0.00000000000E+00 0.  1.
         -2    1    3    3    0  502  0.17735496938E+02  0.33979518618E+02 -0.38263311538E+02  0.54159362506E+02  0.00000000000E+00 0. -1.
<mgrwt>
<rscale>  0 0.91874612E+02</rscale>
<asrwt>0</asrwt>
<pdfrwt beam="2">  1        3 0.91665080E-02 0.91874612E+02</pdfrwt>
<pdfrwt beam="1">  1       -3 0.54487943E-02 0.91874612E+02</pdfrwt>
<totfact> 0.34325012E+04</totfact>
</mgrwt>
</event>
<event>
 5    1  0.3963873E+001  0.9096460E+02  0.7546771E-02  0.1300532E+00
         -1   -1    0    0    0  501 -0.00000000000E+00  0.00000000000E+00  0.43307740049E+01  0.43307740049E+01  0.00000000000E+00 0.  1.
          1   -1    0    0  501    0  0.00000000000E+00 -0.00000000000E+00 -0.47766043384E+03  0.47766043384E+03  0.00000000000E+00 0. -1.
         23    2    1    2    0    0  0.00000000000E+00  0.00000000000E+00 -0.47332965983E+03  0.48199120784E+03  0.90964595091E+02 0.  0.
          2    1    3    3  502    0  0.22483639280E+01 -0.28780668695E+02 -0.42289303201E+03  0.42387722108E+03  0.00000000000E+00 0. -1.
         -2    1    3    3    0  502 -0.22483639280E+01  0.28780668695E+02 -0.50436627823E+02  0.58113986759E+02  0.00000000000E+00 0.  1.
<mgrwt>
<rscale>  0 0.90964595E+02</rscale>
<asrwt>0</asrwt>
<pdfrwt beam="2">  1        1 0.73486232E-01 0.90964595E+02</pdfrwt>
<pdfrwt beam="1">  1       -1 0.66627282E-03 0.90964595E+02</pdfrwt>
<totfact> 0.13933711E+05</totfact>
</mgrwt>
</event>
<event>
 5    1  0.3963873E+001  0.9145144E+02  0.7546771E-02  0.1299374E+00
         -3   -1    0    0    0  501 -0.00000000000E+00  0.00000000000E+00  0.16344276434E+02  0.16344276434E+02  0.00000000000E+00 0.  1.
          3   -1    0    0  501    0  0.00000000000E+00 -0.00000000000E+00 -0.12792500522E+03  0.12792500522E+03  0.00000000000E+00 0. -1.
         23    2    1    2    0    0  0.00000000000E+00  0.00000000000E+00 -0.11158072879E+03  0.14426928166E+03  0.91451443907E+02 0.  0.
          2    1    3    3  502    0 -0.29213890863E+01 -0.22898882824E+02  0.64769053198E+01  0.23975897300E+02  0.00000000000E+00 0.  1.
         -2    1    3    3    0  502  0.29213890863E+01  0.22898882824E+02 -0.11805763411E+03  0.12029338436E+03  0.00000000000E+00 0. -1.
<mgrwt>
<rscale>  0 0.91451444E+02</rscale>
<asrwt>0</asrwt>
<pdfrwt beam="2">  1        3 0.19680771E-01 0.91451444E+02</pdfrwt>
<pdfrwt beam="1">  1       -3 0.25145040E-02 0.91451444E+02</pdfrwt>
<totfact> 0.31403922E+04</totfact>
</mgrwt>
</event>
<event>
 5    1  0.3963873E+001  0.9078656E+02  0.7546771E-02  0.1300958E+00
         -2   -1    0    0    0  501 -0.00000000000E+00  0.00000000000E+00  0.14672663166E+03  0.14672663166E+03  0.00000000000E+00 0.  1.
          2   -1    0    0  501    0  0.00000000000E+00 -0.00000000000E+00 -0.14043460593E+02  0.14043460593E+02  0.00000000000E+00 0. -1.
         23    2    1    2    0    0  0.00000000000E+00  0.00000000000E+00  0.13268317107E+03  0.16077009225E+03  0.90786555604E+02 0.  0.
          2    1    3    3  502    0 -0.43773724486E+02 -0.94693606719E+01  0.79443771072E+02  0.91198248388E+02  0.00000000000E+00 0. -1.
         -2    1    3    3    0  502  0.43773724486E+02  0.94693606719E+01  0.53239399994E+02  0.69571843863E+02  0.00000000000E+00 0.  1.
<mgrwt>
<rscale>  0 0.90786556E+02</rscale>
<asrwt>0</asrwt>
<pdfrwt beam="2">  1        2 0.21605325E-02 0.90786556E+02</pdfrwt>
<pdfrwt beam="1">  1       -2 0.22573327E-01 0.90786556E+02</pdfrwt>
<totfact> 0.71184589E+04</totfact>
</mgrwt>
</event>
<event>
 5    1  0.3963873E+001  0.9109840E+02  0.7546771E-02  0.1300213E+00
         -1   -1    0    0    0  501 -0.00000000000E+00  0.00000000000E+00  0.10189711536E+01  0.10189711536E+01  0.00000000000E+00 0.  1.
          1   -1    0    0  501    0  0.00000000000E+00 -0.00000000000E+00 -0.20361025901E+04  0.20361025901E+04  0.00000000000E+00 0. -1.
         23    2    1    2    0    0  0.00000000000E+00  0.00000000000E+00 -0.20350836189E+04  0.20371215613E+04  0.91098404050E+02 0.  0.
          2    1    3    3  502    0 -0.17105972528E+02 -0.41493020428E+02 -0.11913961438E+04  0.11922411906E+04  0.00000000000E+00 0. -1.
         -2    1    3    3    0  502  0.17105972528E+02  0.41493020428E+02 -0.84368747512E+03  0.84488037065E+03  0.00000000000E+00 0.  1.
<mgrwt>
<rscale>  0 0.91098404E+02</rscale>
<asrwt>0</asrwt>
<pdfrwt beam="2">  1        1 0.31324795E+00 0.91098404E+02</pdfrwt>
<pdfrwt beam="1">  1       -1 0.15676409E-03 0.91098404E+02</pdfrwt>
<totfact> 0.77757176E+04</totfact>
</mgrwt>
</event>
<event>
 5    1  0.3963873E+001  0.9167679E+02  0.7546771E-02  0.1298841E+00
          2   -1    0    0  501    0  0.00000000000E+00  0.00000000000E+00  0.16890951087E+04  0.16890951087E+04  0.00000000000E+00 0. -1.
         -2   -1    0    0    0  501 -0.00000000000E+00 -0.00000000000E+00 -0.12439550569E+01  0.12439550569E+01  0.00000000000E+00 0.  1.
         23    2    1    2    0    0  0.00000000000E+00  0.00000000000E+00  0.16878511536E+04  0.16903390637E+04  0.91676788820E+02 0.  0.
          2    1    3    3  502    0  0.19739845161E+02  0.37651918374E+02  0.11599804360E+04  0.11607592086E+04  0.00000000000E+00 0. -1.
         -2    1    3    3    0  502 -0.19739845161E+02 -0.37651918374E+02  0.52787071764E+03  0.52957985515E+03  0.00000000000E+00 0.  1.
<mgrwt>
<rscale>  0 0.91676789E+02</rscale>
<asrwt>0</asrwt>
<pdfrwt beam="1">  1        2 0.25985895E+00 0.91676789E+02</pdfrwt>
<pdfrwt beam="2">  1       -2 0.19137905E-03 0.91676789E+02</pdfrwt>
<totfact> 0.21992328E+05</totfact>
</mgrwt>
</event>
<event>
 5    1  0.3963873E+001  0.9283995E+02  0.7546771E-02  0.1296117E+00
          1   -1    0    0  501    0  0.00000000000E+00  0.00000000000E+00  0.14365937379E+04  0.14365937379E+04  0.00000000000E+00 0. -1.
         -1   -1    0    0    0  501 -0.00000000000E+00 -0.00000000000E+00 -0.14999466531E+01  0.14999466531E+01  0.00000000000E+00 0.  1.
         23    2    1    2    0    0  0.00000000000E+00  0.00000000000E+00  0.14350937912E+04  0.14380936845E+04  0.92839947628E+02 0.  0.
          2    1    3    3  502    0 -0.94848591127E+01  0.44761453024E+02  0.59630462973E+03  0.59805749027E+03  0.00000000000E+00 0.  1.
         -2    1    3    3    0  502  0.94848591127E+01 -0.44761453024E+02  0.83878916147E+03  0.84003619423E+03  0.00000000000E+00 0. -1.
<mgrwt>
<rscale>  0 0.92839948E+02</rscale>
<asrwt>0</asrwt>
<pdfrwt beam="1">  1        1 0.22101332E+00 0.92839948E+02</pdfrwt>
<pdfrwt beam="2">  1       -1 0.23076217E-03 0.92839948E+02</pdfrwt>
<totfact> 0.10895066E+05</totfact>
</mgrwt>
</event>
<event>
 5    1  0.3963873E+001  0.9379556E+02  0.7546771E-02  0.1293912E+00
         -3   -1    0    0    0  501 -0.00000000000E+00  0.00000000000E+00  0.24138063012E+02  0.24138063012E+02  0.00000000000E+00 0.  1.
          3   -1    0    0  501    0  0.00000000000E+00 -0.00000000000E+00 -0.91117582133E+02  0.91117582133E+02  0.00000000000E+00 0. -1.
         23    2    1    2    0    0  0.00000000000E+00  0.00000000000E+00 -0.66979519122E+02  0.11525564515E+03  0.93795563627E+02 0.  0.
          2    1    3    3  502    0 -0.32519370145E+01 -0.33734069545E+02 -0.73323224163E+02  0.80776591560E+02  0.00000000000E+00 0.  1.
         -2    1    3    3    0  502  0.32519370145E+01  0.33734069545E+02  0.63437050415E+01  0.34479053585E+02  0.00000000000E+00 0. -1.
<mgrwt>
<rscale>  0 0.93795564E+02</rscale>
<asrwt>0</asrwt>
<pdfrwt beam="2">  1        3 0.14018089E-01 0.93795564E+02</pdfrwt>
<pdfrwt beam="1">  1       -3 0.37135482E-02 0.93795564E+02</pdfrwt>
<totfact> 0.31080196E+04</totfact>
</mgrwt>
</event>
<event>
 5    1  0.3963873E+001  0.8927411E+02  0.7546771E-02  0.1304619E+00
          3   -1    0    0  501    0  0.00000000000E+00  0.00000000000E+00  0.24025994762E+01  0.24025994762E+01  0.00000000000E+00 0. -1.
         -3   -1    0    0    0  501 -0.00000000000E+00 -0.00000000000E+00 -0.82929619416E+03  0.82929619416E+03  0.00000000000E+00 0.  1.
         23    2    1    2    0    0  0.00000000000E+00  0.00000000000E+00 -0.82689359468E+03  0.83169879363E+03  0.89274108266E+02 0.  0.
          2    1    3    3  502    0 -0.19907612314E+02 -0.43522823294E+01 -0.43460637530E+02  0.48000858368E+02  0.00000000000E+00 0. -1.
         -2    1    3    3    0  502  0.19907612314E+02  0.43522823294E+01 -0.78343295715E+03  0.78369793527E+03  0.00000000000E+00 0.  1.
<mgrwt>
<rscale>  0 0.89274108E+02</rscale>
<asrwt>0</asrwt>
<pdfrwt beam="1">  1        3 0.36963072E-03 0.89274108E+02</pdfrwt>
<pdfrwt beam="2">  1       -3 0.12758402E+00 0.89274108E+02</pdfrwt>
<totfact> 0.12631531E+04</totfact>
</mgrwt>
</event>
<event>
 5    1  0.3963873E+001  0.1043532E+03  0.7546771E-02  0.1271399E+00
         -2   -1    0    0    0  501 -0.00000000000E+00  0.00000000000E+00  0.93383261541E+01  0.93383261541E+01  0.00000000000E+00 0.  1.
          2   -1    0    0  501    0  0.00000000000E+00 -0.00000000000E+00 -0.29152941367E+03  0.29152941367E+03  0.00000000000E+00 0. -1.
         23    2    1    2    0    0  0.00000000000E+00  0.00000000000E+00 -0.28219108751E+03  0.30086773982E+03  0.10435318392E+03 0.  0.
          2    1    3    3  502    0 -0.22115290155E+02  0.47251569828E+02 -0.13886255224E+03  0.14833949347E+03  0.00000000000E+00 0. -1.
         -2    1    3    3    0  502  0.22115290155E+02 -0.47251569828E+02 -0.14332853528E+03  0.15252824635E+03  0.00000000000E+00 0.  1.
<mgrwt>
<rscale>  0 0.10435318E+03</rscale>
<asrwt>0</asrwt>
<pdfrwt beam="2">  1        2 0.44850672E-01 0.10435318E+03</pdfrwt>
<pdfrwt beam="1">  1       -2 0.14366658E-02 0.10435318E+03</pdfrwt>
<totfact> 0.12361637E+05</totfact>
</mgrwt>
</event>
<event>
 5    1  0.3963873E+001  0.9089922E+02  0.7546771E-02  0.1300689E+00
         -2   -1    0    0    0  501 -0.00000000000E+00  0.00000000000E+00  0.12365852743E+01  0.12365852743E+01  0.00000000000E+00 0.  1.
          2   -1    0    0  501    0  0.00000000000E+00 -0.00000000000E+00 -0.16704607372E+04  0.16704607372E+04  0.00000000000E+00 0. -1.
         23    2    1    2    0    0  0.00000000000E+00  0.00000000000E+00 -0.16692241520E+04  0.16716973225E+04  0.90899222197E+02 0.  0.
          2    1    3    3  502    0  0.12044861752E+02  0.32133685856E+02 -0.13826461408E+04  0.13830719443E+04  0.00000000000E+00 0. -1.
         -2    1    3    3    0  502 -0.12044861752E+02 -0.32133685856E+02 -0.28657801115E+03  0.28862537819E+03  0.00000000000E+00 0.  1.
<mgrwt>
<rscale>  0 0.90899222E+02</rscale>
<asrwt>0</asrwt>
<pdfrwt beam="2">  1        2 0.25699407E+00 0.90899222E+02</pdfrwt>
<pdfrwt beam="1">  1       -2 0.19024381E-03 0.90899222E+02</pdfrwt>
<totfact> 0.22632383E+05</totfact>
</mgrwt>
</event>
<event>
 5    1  0.3963873E+001  0.9012731E+02  0.7546771E-02  0.1302544E+00
         -1   -1    0    0    0  501 -0.00000000000E+00  0.00000000000E+00  0.25898147708E+01  0.25898147708E+01  0.00000000000E+00 0.  1.
          1   -1    0    0  501    0  0.00000000000E+00 -0.00000000000E+00 -0.78412283792E+03  0.78412283792E+03  0.00000000000E+00 0. -1.
         23    2    1    2    0    0  0.00000000000E+00  0.00000000000E+00 -0.78153302315E+03  0.78671265269E+03  0.90127307909E+02 0.  0.
          2    1    3    3  502    0  0.42712224219E+02 -0.80510733036E+01 -0.49462911399E+03  0.49653510882E+03  0.00000000000E+00 0.  1.
         -2    1    3    3    0  502 -0.42712224219E+02  0.80510733036E+01 -0.28690390916E+03  0.29017754387E+03  0.00000000000E+00 0. -1.
<mgrwt>
<rscale>  0 0.90127308E+02</rscale>
<asrwt>0</asrwt>
<pdfrwt beam="2">  1        1 0.12063429E+00 0.90127308E+02</pdfrwt>
<pdfrwt beam="1">  1       -1 0.39843302E-03 0.90127308E+02</pdfrwt>
<totfact> 0.14592421E+05</totfact>
</mgrwt>
</event>
<event>
 5    1  0.3963873E+001  0.8800358E+02  0.7546771E-02  0.1307760E+00
         -2   -1    0    0    0  501 -0.00000000000E+00  0.00000000000E+00  0.49320625709E+02  0.49320625709E+02  0.00000000000E+00 0.  1.
          2   -1    0    0  501    0  0.00000000000E+00 -0.00000000000E+00 -0.39256547112E+02  0.39256547112E+02  0.00000000000E+00 0. -1.
         23    2    1    2    0    0  0.00000000000E+00  0.00000000000E+00  0.10064078597E+02  0.88577172821E+02  0.88003578716E+02 0.  0.
          2    1    3    3  502    0 -0.10412971765E+02  0.30364181795E+02 -0.25259699407E+02  0.40846859502E+02  0.00000000000E+00 0. -1.
         -2    1    3    3    0  502  0.10412971765E+02 -0.30364181795E+02  0.35323778003E+02  0.47730313319E+02  0.00000000000E+00 0.  1.
<mgrwt>
<rscale>  0 0.88003579E+02</rscale>
<asrwt>0</asrwt>
<pdfrwt beam="2">  1        2 0.60394688E-02 0.88003579E+02</pdfrwt>
<pdfrwt beam="1">  1       -2 0.75877886E-02 0.88003579E+02</pdfrwt>
<totfact> 0.10514883E+05</totfact>
</mgrwt>
</event>
<event>
 5    1  0.3963873E+001  0.8872095E+02  0.7546771E-02  0.1305979E+00
          1   -1    0    0  501    0  0.00000000000E+00  0.00000000000E+00  0.13523479938E+02  0.13523479938E+02  0.00000000000E+00 0. -1.
         -1   -1    0    0    0  501 -0.00000000000E+00 -0.00000000000E+00 -0.14551372659E+03  0.14551372659E+03  0.00000000000E+00 0.  1.
         23    2    1    2    0    0  0.00000000000E+00  0.00000000000E+00 -0.13199024666E+03  0.15903720653E+03  0.88720954959E+02 0.  0.
          2    1    3    3  502    0 -0.28185937505E+01 -0.43940307292E+02 -0.75674404482E+02  0.87551759373E+02  0.00000000000E+00 0.  1.
         -2    1    3    3    0  502  0.28185937505E+01  0.43940307292E+02 -0.56315842174E+02  0.71485447158E+02  0.00000000000E+00 0. -1.
<mgrwt>
<rscale>  0 0.88720955E+02</rscale>
<asrwt>0</asrwt>
<pdfrwt beam="1">  1        1 0.20805354E-02 0.88720955E+02</pdfrwt>
<pdfrwt beam="2">  1       -1 0.22386727E-01 0.88720955E+02</pdfrwt>
<totfact> 0.80837214E+04</totfact>
</mgrwt>
</event>
<event>
 5    1  0.3963873E+001  0.9259554E+02  0.7546771E-02  0.1296685E+00
          1   -1    0    0  501    0  0.00000000000E+00  0.00000000000E+00  0.21308547217E+04  0.21308547217E+04  0.00000000000E+00 0. -1.
         -1   -1    0    0    0  501 -0.00000000000E+00 -0.00000000000E+00 -0.10059266651E+01  0.10059266651E+01  0.00000000000E+00 0.  1.
         23    2    1    2    0    0  0.00000000000E+00  0.00000000000E+00  0.21298487951E+04  0.21318606484E+04  0.92595541664E+02 0.  0.
          2    1    3    3  502    0  0.21027749674E+02 -0.41239676621E+02  0.10469957191E+04  0.10480185652E+04  0.00000000000E+00 0.  1.
         -2    1    3    3    0  502 -0.21027749674E+02  0.41239676621E+02  0.10828530759E+04  0.10838420832E+04  0.00000000000E+00 0. -1.
<mgrwt>
<rscale>  0 0.92595542E+02</rscale>
<asrwt>0</asrwt>
<pdfrwt beam="1">  1        1 0.32782019E+00 0.92595542E+02</pdfrwt>
<pdfrwt beam="2">  1       -1 0.15475965E-03 0.92595542E+02</pdfrwt>
<totfact> 0.69133878E+04</totfact>
</mgrwt>
</event>
<event>
 5    1  0.3963873E+001  0.8990298E+02  0.7546771E-02  0.1303087E+00
          1   -1    0    0  501    0  0.00000000000E+00  0.00000000000E+00  0.19235490464E+02  0.19235490464E+02  0.00000000000E+00 0. -1.
         -1   -1    0    0    0  501 -0.00000000000E+00 -0.00000000000E+00 -0.10504731686E+03  0.10504731686E+03  0.00000000000E+00 0.  1.
         23    2    1    2    0    0  0.00000000000E+00  0.00000000000E+00 -0.85811826396E+02  0.12428280732E+03  0.89902984638E+02 0.  0.
          2    1    3    3  502    0 -0.97074575992E+01 -0.17695996450E+02  0.12619048977E+02  0.23803853059E+02  0.00000000000E+00 0. -1.
         -2    1    3    3    0  502  0.97074575992E+01  0.17695996450E+02 -0.98430875373E+02  0.10047895426E+03  0.00000000000E+00 0.  1.
<mgrwt>
<rscale>  0 0.89902985E+02</rscale>
<asrwt>0</asrwt>
<pdfrwt beam="1">  1        1 0.29593063E-02 0.89902985E+02</pdfrwt>
<pdfrwt beam="2">  1       -1 0.16161125E-01 0.89902985E+02</pdfrwt>
<totfact> 0.83594908E+04</totfact>
</mgrwt>
</event>
<event>
 5    1  0.3963873E+001  0.9125455E+02  0.7546771E-02  0.1299842E+00
         -2   -1    0    0    0  501 -0.00000000000E+00  0.00000000000E+00  0.60247243926E+01  0.60247243926E+01  0.00000000000E+00 0.  1.
          2   -1    0    0  501    0  0.00000000000E+00 -0.00000000000E+00 -0.34555077141E+03  0.34555077141E+03  0.00000000000E+00 0. -1.
         23    2    1    2    0    0  0.00000000000E+00  0.00000000000E+00 -0.33952604701E+03  0.35157549580E+03  0.91254548629E+02 0.  0.
          2    1    3    3  502    0  0.21650876512E+02 -0.14817438709E+02 -0.25941982586E+02  0.36895845350E+02  0.00000000000E+00 0.  1.
         -2    1    3    3    0  502 -0.21650876512E+02  0.14817438709E+02 -0.31358406443E+03  0.31467965045E+03  0.00000000000E+00 0. -1.
<mgrwt>
<rscale>  0 0.91254549E+02</rscale>
<asrwt>0</asrwt>
<pdfrwt beam="2">  1        2 0.53161671E-01 0.91254549E+02</pdfrwt>
<pdfrwt beam="1">  1       -2 0.92688043E-03 0.91254549E+02</pdfrwt>
<totfact> 0.18887850E+05</totfact>
</mgrwt>
</event>
<event>
 5    1  0.3963873E+001  0.9106601E+02  0.7546771E-02  0.1300291E+00
         -2   -1    0    0    0  501 -0.00000000000E+00  0.00000000000E+00  0.10759226381E+02  0.10759226381E+02  0.00000000000E+00 0.  1.
          2   -1    0    0  501    0  0.00000000000E+00 -0.00000000000E+00 -0.19269551198E+03  0.19269551198E+03  0.00000000000E+00 0. -1.
         23    2    1    2    0    0  0.00000000000E+00  0.00000000000E+00 -0.18193628560E+03  0.20345473836E+03  0.91066012013E+02 0.  0.
          2    1    3    3  502    0  0.27188692519E+02  0.18095357983E+02 -0.16185035943E+03  0.16511270644E+03  0.00000000000E+00 0. -1.
         -2    1    3    3    0  502 -0.27188692519E+02 -0.18095357983E+02 -0.20085926168E+02  0.38342031917E+02  0.00000000000E+00 0.  1.
<mgrwt>
<rscale>  0 0.91066012E+02</rscale>
<asrwt>0</asrwt>
<pdfrwt beam="2">  1        2 0.29645462E-01 0.91066012E+02</pdfrwt>
<pdfrwt beam="1">  1       -2 0.16552657E-02 0.91066012E+02</pdfrwt>
<totfact> 0.15311988E+05</totfact>
</mgrwt>
</event>
<event>
 5    1  0.3963873E+001  0.9121983E+02  0.7546771E-02  0.1299924E+00
         -2   -1    0    0    0  501 -0.00000000000E+00  0.00000000000E+00  0.37243189741E+01  0.37243189741E+01  0.00000000000E+00 0. -1.
          2   -1    0    0  501    0  0.00000000000E+00 -0.00000000000E+00 -0.55856235069E+03  0.55856235069E+03  0.00000000000E+00 0.  1.
         23    2    1    2    0    0  0.00000000000E+00  0.00000000000E+00 -0.55483803171E+03  0.56228666966E+03  0.91219830319E+02 0.  0.
          2    1    3    3  502    0 -0.17082403037E+02  0.15479338953E+02 -0.34829159445E+02  0.41767077652E+02  0.00000000000E+00 0. -1.
         -2    1    3    3    0  502  0.17082403037E+02 -0.15479338953E+02 -0.52000887227E+03  0.52051959201E+03  0.00000000000E+00 0.  1.
<mgrwt>
<rscale>  0 0.91219830E+02</rscale>
<asrwt>0</asrwt>
<pdfrwt beam="2">  1        2 0.85932667E-01 0.91219830E+02</pdfrwt>
<pdfrwt beam="1">  1       -2 0.57297216E-03 0.91219830E+02</pdfrwt>
<totfact> 0.22284320E+05</totfact>
</mgrwt>
</event>
<event>
 5    1  0.3963873E+001  0.9279317E+02  0.7546771E-02  0.1296225E+00
          1   -1    0    0  501    0  0.00000000000E+00  0.00000000000E+00  0.12075252171E+03  0.12075252171E+03  0.00000000000E+00 0. -1.
         -1   -1    0    0    0  501 -0.00000000000E+00 -0.00000000000E+00 -0.17826898614E+02  0.17826898614E+02  0.00000000000E+00 0.  1.
         23    2    1    2    0    0  0.00000000000E+00  0.00000000000E+00  0.10292562310E+03  0.13857942033E+03  0.92793167032E+02 0.  0.
          2    1    3    3  502    0  0.40277724033E+02  0.22971692813E+02  0.53893577991E+02  0.71095087542E+02  0.00000000000E+00 0. -1.
         -2    1    3    3    0  502 -0.40277724033E+02 -0.22971692813E+02  0.49032045109E+02  0.67484332785E+02  0.00000000000E+00 0.  1.
<mgrwt>
<rscale>  0 0.92793167E+02</rscale>
<asrwt>0</asrwt>
<pdfrwt beam="1">  1        1 0.18577311E-01 0.92793167E+02</pdfrwt>
<pdfrwt beam="2">  1       -1 0.27425999E-02 0.92793167E+02</pdfrwt>
<totfact> 0.10282750E+05</totfact>
</mgrwt>
</event>
<event>
 5    1  0.3963873E+001  0.8767798E+02  0.7546771E-02  0.1308574E+00
          2   -1    0    0  501    0  0.00000000000E+00  0.00000000000E+00  0.11134202479E+02  0.11134202479E+02  0.00000000000E+00 0. -1.
         -2   -1    0    0    0  501 -0.00000000000E+00 -0.00000000000E+00 -0.17260841588E+03  0.17260841588E+03  0.00000000000E+00 0.  1.
         23    2    1    2    0    0  0.00000000000E+00  0.00000000000E+00 -0.16147421340E+03  0.18374261836E+03  0.87677980177E+02 0.  0.
          2    1    3    3  502    0 -0.25137629949E+02  0.18360339706E+02 -0.14542643889E+03  0.14872071692E+03  0.00000000000E+00 0. -1.
         -2    1    3    3    0  502  0.25137629949E+02 -0.18360339706E+02 -0.16047774514E+02  0.35021901440E+02  0.00000000000E+00 0.  1.
<mgrwt>
<rscale>  0 0.87677980E+02</rscale>
<asrwt>0</asrwt>
<pdfrwt beam="1">  1        2 0.17129543E-02 0.87677980E+02</pdfrwt>
<pdfrwt beam="2">  1       -2 0.26555140E-01 0.87677980E+02</pdfrwt>
<totfact> 0.73157285E+04</totfact>
</mgrwt>
</event>
<event>
 5    1  0.3963873E+001  0.9100181E+02  0.7546771E-02  0.1300444E+00
          3   -1    0    0  501    0  0.00000000000E+00  0.00000000000E+00  0.71784318250E+01  0.71784318250E+01  0.00000000000E+00 0. -1.
         -3   -1    0    0    0  501 -0.00000000000E+00 -0.00000000000E+00 -0.28841014308E+03  0.28841014308E+03  0.00000000000E+00 0.  1.
         23    2    1    2    0    0  0.00000000000E+00  0.00000000000E+00 -0.28123171126E+03  0.29558857491E+03  0.91001814262E+02 0.  0.
          2    1    3    3  502    0  0.85225961863E+01  0.34040939417E+02 -0.46536163772E+02  0.58284086514E+02  0.00000000000E+00 0. -1.
         -2    1    3    3    0  502 -0.85225961863E+01 -0.34040939417E+02 -0.23469554749E+03  0.23730448839E+03  0.00000000000E+00 0.  1.
<mgrwt>
<rscale>  0 0.91001814E+02</rscale>
<asrwt>0</asrwt>
<pdfrwt beam="1">  1        3 0.11043742E-02 0.91001814E+02</pdfrwt>
<pdfrwt beam="2">  1       -3 0.44370789E-01 0.91001814E+02</pdfrwt>
<totfact> 0.24320715E+04</totfact>
</mgrwt>
</event>
<event>
 5    1  0.3963873E+001  0.9041668E+02  0.7546771E-02  0.1301846E+00
         -4   -1    0    0    0  501 -0.00000000000E+00  0.00000000000E+00  0.89362795426E+03  0.89362795426E+03  0.00000000000E+00 0.  1.
          4   -1    0    0  501    0  0.00000000000E+00 -0.00000000000E+00 -0.22870745941E+01  0.22870745941E+01  0.00000000000E+00 0. -1.
         23    2    1    2    0    0  0.00000000000E+00  0.00000000000E+00  0.89134087967E+03  0.89591502886E+03  0.90416675249E+02 0.  0.
          2    1    3    3  502    0  0.27000758785E+01 -0.42274555659E+02  0.60214232686E+03  0.60363052462E+03  0.00000000000E+00 0.  1.
         -2    1    3    3    0  502 -0.27000758785E+01  0.42274555659E+02  0.28919855281E+03  0.29228450424E+03  0.00000000000E+00 0. -1.
<mgrwt>
<rscale>  0 0.90416675E+02</rscale>
<asrwt>0</asrwt>
<pdfrwt beam="2">  1        4 0.35185834E-03 0.90416675E+02</pdfrwt>
<pdfrwt beam="1">  1       -4 0.13748095E+00 0.90416675E+02</pdfrwt>
<totfact> 0.81605029E+03</totfact>
</mgrwt>
</event>
<event>
 5    1  0.3963873E+001  0.9082391E+02  0.7546771E-02  0.1300869E+00
          2   -1    0    0  501    0  0.00000000000E+00  0.00000000000E+00  0.11481951805E+04  0.11481951805E+04  0.00000000000E+00 0. -1.
         -2   -1    0    0    0  501 -0.00000000000E+00 -0.00000000000E+00 -0.17960759982E+01  0.17960759982E+01  0.00000000000E+00 0.  1.
         23    2    1    2    0    0  0.00000000000E+00  0.00000000000E+00  0.11463991045E+04  0.11499912565E+04  0.90823913257E+02 0.  0.
          2    1    3    3  502    0  0.10389950759E+02  0.23024237528E+02  0.10510331136E+04  0.10513366123E+04  0.00000000000E+00 0. -1.
         -2    1    3    3    0  502 -0.10389950759E+02 -0.23024237528E+02  0.95365990874E+02  0.98654644117E+02  0.00000000000E+00 0.  1.
<mgrwt>
<rscale>  0 0.90823913E+02</rscale>
<asrwt>0</asrwt>
<pdfrwt beam="1">  1        2 0.17664483E+00 0.90823913E+02</pdfrwt>
<pdfrwt beam="2">  1       -2 0.27632030E-03 0.90823913E+02</pdfrwt>
<totfact> 0.25222326E+05</totfact>
</mgrwt>
</event>
<event>
 5    1  0.3963873E+001  0.1274360E+03  0.7546771E-02  0.1231311E+00
          2   -1    0    0  501    0  0.00000000000E+00  0.00000000000E+00  0.27462526445E+02  0.27462526445E+02  0.00000000000E+00 0. -1.
         -2   -1    0    0    0  501 -0.00000000000E+00 -0.00000000000E+00 -0.14783711047E+03  0.14783711047E+03  0.00000000000E+00 0.  1.
         23    2    1    2    0    0  0.00000000000E+00  0.00000000000E+00 -0.12037458402E+03  0.17529963692E+03  0.12743595342E+03 0.  0.
          2    1    3    3  502    0  0.56694720481E+02 -0.99283786176E+01 -0.22587692869E+02  0.61830962321E+02  0.00000000000E+00 0. -1.
         -2    1    3    3    0  502 -0.56694720481E+02  0.99283786176E+01 -0.97786891155E+02  0.11346867459E+03  0.00000000000E+00 0.  1.
<mgrwt>
<rscale>  0 0.12743595E+03</rscale>
<asrwt>0</asrwt>
<pdfrwt beam="1">  1        2 0.42250042E-02 0.12743595E+03</pdfrwt>
<pdfrwt beam="2">  1       -2 0.22744170E-01 0.12743595E+03</pdfrwt>
<totfact> 0.30127276E+04</totfact>
</mgrwt>
</event>
<event>
 5    1  0.3963873E+001  0.9089885E+02  0.7546771E-02  0.1300689E+00
         -2   -1    0    0    0  501 -0.00000000000E+00  0.00000000000E+00  0.63763955302E+00  0.63763955302E+00  0.00000000000E+00 0.  1.
          2   -1    0    0  501    0  0.00000000000E+00 -0.00000000000E+00 -0.32395268008E+04  0.32395268008E+04  0.00000000000E+00 0. -1.
         23    2    1    2    0    0  0.00000000000E+00  0.00000000000E+00 -0.32388891613E+04  0.32401644404E+04  0.90898854146E+02 0.  0.
          2    1    3    3  502    0  0.25837475280E+02 -0.36838868235E+02 -0.18476142676E+04  0.18481621031E+04  0.00000000000E+00 0. -1.
         -2    1    3    3    0  502 -0.25837475280E+02  0.36838868235E+02 -0.13912748936E+04  0.13920023373E+04  0.00000000000E+00 0.  1.
<mgrwt>
<rscale>  0 0.90898854E+02</rscale>
<asrwt>0</asrwt>
<pdfrwt beam="2">  1        2 0.49838793E+00 0.90898854E+02</pdfrwt>
<pdfrwt beam="1">  1       -2 0.98098551E-04 0.90898854E+02</pdfrwt>
<totfact> 0.82769037E+04</totfact>
</mgrwt>
</event>
<event>
 5    1  0.3963873E+001  0.8591148E+02  0.7546771E-02  0.1313066E+00
          2   -1    0    0  501    0  0.00000000000E+00  0.00000000000E+00  0.17217589258E+03  0.17217589258E+03  0.00000000000E+00 0. -1.
         -2   -1    0    0    0  501 -0.00000000000E+00 -0.00000000000E+00 -0.10716921943E+02  0.10716921943E+02  0.00000000000E+00 0.  1.
         23    2    1    2    0    0  0.00000000000E+00  0.00000000000E+00  0.16145897064E+03  0.18289281452E+03  0.85911480054E+02 0.  0.
          2    1    3    3  502    0 -0.31968094915E+02 -0.28676229790E+02  0.82760675295E+02  0.93239555033E+02  0.00000000000E+00 0.  1.
         -2    1    3    3    0  502  0.31968094915E+02  0.28676229790E+02  0.78698295341E+02  0.89653259489E+02  0.00000000000E+00 0. -1.
<mgrwt>
<rscale>  0 0.85911480E+02</rscale>
<asrwt>0</asrwt>
<pdfrwt beam="1">  1        2 0.26488597E-01 0.85911480E+02</pdfrwt>
<pdfrwt beam="2">  1       -2 0.16487574E-02 0.85911480E+02</pdfrwt>
<totfact> 0.17208704E+05</totfact>
</mgrwt>
</event>
<event>
 5    1  0.3963873E+001  0.9181892E+02  0.7546771E-02  0.1298506E+00
         -2   -1    0    0    0  501 -0.00000000000E+00  0.00000000000E+00  0.11154956864E+04  0.11154956864E+04  0.00000000000E+00 0.  1.
          2   -1    0    0  501    0  0.00000000000E+00 -0.00000000000E+00 -0.18894548065E+01  0.18894548065E+01  0.00000000000E+00 0. -1.
         23    2    1    2    0    0  0.00000000000E+00  0.00000000000E+00  0.11136062316E+04  0.11173851412E+04  0.91818923675E+02 0.  0.
          2    1    3    3  502    0 -0.95129094164E+01  0.22310048443E+02  0.82437519982E+02  0.85931242327E+02  0.00000000000E+00 0. -1.
         -2    1    3    3    0  502  0.95129094164E+01 -0.22310048443E+02  0.10311687116E+04  0.10314538988E+04  0.00000000000E+00 0.  1.
<mgrwt>
<rscale>  0 0.91818924E+02</rscale>
<asrwt>0</asrwt>
<pdfrwt beam="2">  1        2 0.29068625E-03 0.91818924E+02</pdfrwt>
<pdfrwt beam="1">  1       -2 0.17161420E+00 0.91818924E+02</pdfrwt>
<totfact> 0.16054506E+04</totfact>
</mgrwt>
</event>
<event>
 5    1  0.3963873E+001  0.9194594E+02  0.7546771E-02  0.1298207E+00
         -2   -1    0    0    0  501 -0.00000000000E+00  0.00000000000E+00  0.14531820838E+03  0.14531820838E+03  0.00000000000E+00 0.  1.
          2   -1    0    0  501    0  0.00000000000E+00 -0.00000000000E+00 -0.14544042060E+02  0.14544042060E+02  0.00000000000E+00 0. -1.
         23    2    1    2    0    0  0.00000000000E+00  0.00000000000E+00  0.13077416632E+03  0.15986225044E+03  0.91945943571E+02 0.  0.
          2    1    3    3  502    0  0.15869740957E+02 -0.31899104094E+02  0.14872875682E+02  0.38608340435E+02  0.00000000000E+00 0. -1.
         -2    1    3    3    0  502 -0.15869740957E+02  0.31899104094E+02  0.11590129064E+03  0.12125391000E+03  0.00000000000E+00 0.  1.
<mgrwt>
<rscale>  0 0.91945944E+02</rscale>
<asrwt>0</asrwt>
<pdfrwt beam="2">  1        2 0.22375450E-02 0.91945944E+02</pdfrwt>
<pdfrwt beam="1">  1       -2 0.22356647E-01 0.91945944E+02</pdfrwt>
<totfact> 0.69173962E+04</totfact>
</mgrwt>
</event>
<event>
 5    1  0.3963873E+001  0.9021056E+02  0.7546771E-02  0.1302343E+00
          4   -1    0    0  501    0  0.00000000000E+00  0.00000000000E+00  0.12807692588E+03  0.12807692588E+03  0.00000000000E+00 0.  1.
         -4   -1    0    0    0  501 -0.00000000000E+00 -0.00000000000E+00 -0.15884875995E+02  0.15884875995E+02  0.00000000000E+00 0. -1.
         23    2    1    2    0    0  0.00000000000E+00  0.00000000000E+00  0.11219204989E+03  0.14396180188E+03  0.90210555600E+02 0.  0.
          2    1    3    3  502    0 -0.16455759219E+02  0.38637267209E+02  0.82359904075E+02  0.92448819506E+02  0.00000000000E+00 0. -1.
         -2    1    3    3    0  502  0.16455759219E+02 -0.38637267209E+02  0.29832145811E+02  0.51512982369E+02  0.00000000000E+00 0.  1.
<mgrwt>
<rscale>  0 0.90210556E+02</rscale>
<asrwt>0</asrwt>
<pdfrwt beam="1">  1        4 0.19704142E-01 0.90210556E+02</pdfrwt>
<pdfrwt beam="2">  1       -4 0.24438272E-02 0.90210556E+02</pdfrwt>
<totfact> 0.24676259E+04</totfact>
</mgrwt>
</event>
<event>
 5    1  0.3963873E+001  0.9178750E+02  0.7546771E-02  0.1298580E+00
         -4   -1    0    0    0  501 -0.00000000000E+00  0.00000000000E+00  0.60177170763E+03  0.60177170763E+03  0.00000000000E+00 0.  1.
          4   -1    0    0  501    0  0.00000000000E+00 -0.00000000000E+00 -0.35000586607E+01  0.35000586607E+01  0.00000000000E+00 0. -1.
         23    2    1    2    0    0  0.00000000000E+00  0.00000000000E+00  0.59827164897E+03  0.60527176629E+03  0.91787499738E+02 0.  0.
          2    1    3    3  502    0  0.19473773786E+02  0.26415387975E+02  0.87580337011E+02  0.93527087084E+02  0.00000000000E+00 0. -1.
         -2    1    3    3    0  502 -0.19473773786E+02 -0.26415387975E+02  0.51069131196E+03  0.51174467921E+03  0.00000000000E+00 0.  1.
<mgrwt>
<rscale>  0 0.91787500E+02</rscale>
<asrwt>0</asrwt>
<pdfrwt beam="2">  1        4 0.53847104E-03 0.91787500E+02</pdfrwt>
<pdfrwt beam="1">  1       -4 0.92580181E-01 0.91787500E+02</pdfrwt>
<totfact> 0.11131805E+04</totfact>
</mgrwt>
</event>
<event>
 5    1  0.3963873E+001  0.9002766E+02  0.7546771E-02  0.1302785E+00
          2   -1    0    0  501    0  0.00000000000E+00  0.00000000000E+00  0.15128996640E+04  0.15128996640E+04  0.00000000000E+00 0. -1.
         -2   -1    0    0    0  501 -0.00000000000E+00 -0.00000000000E+00 -0.13393122733E+01  0.13393122733E+01  0.00000000000E+00 0.  1.
         23    2    1    2    0    0  0.00000000000E+00  0.00000000000E+00  0.15115603517E+04  0.15142389763E+04  0.90027664379E+02 0.  0.
          2    1    3    3  502    0 -0.26091418324E+02  0.33609843291E+02  0.10028990658E+04  0.10038012352E+04  0.00000000000E+00 0. -1.
         -2    1    3    3    0  502  0.26091418324E+02 -0.33609843291E+02  0.50866128598E+03  0.51043774110E+03  0.00000000000E+00 0.  1.
<mgrwt>
<rscale>  0 0.90027664E+02</rscale>
<asrwt>0</asrwt>
<pdfrwt beam="1">  1        2 0.23275243E+00 0.90027664E+02</pdfrwt>
<pdfrwt beam="2">  1       -2 0.20604925E-03 0.90027664E+02</pdfrwt>
<totfact> 0.24318055E+05</totfact>
</mgrwt>
</event>
<event>
 5    1  0.3963873E+001  0.9010242E+02  0.7546771E-02  0.1302604E+00
          1   -1    0    0  501    0  0.00000000000E+00  0.00000000000E+00  0.58844738154E+01  0.58844738154E+01  0.00000000000E+00 0. -1.
         -1   -1    0    0    0  501 -0.00000000000E+00 -0.00000000000E+00 -0.34490963043E+03  0.34490963043E+03  0.00000000000E+00 0.  1.
         23    2    1    2    0    0  0.00000000000E+00  0.00000000000E+00 -0.33902515662E+03  0.35079410425E+03  0.90102423696E+02 0.  0.
          2    1    3    3  502    0 -0.26486662080E+00 -0.25908582044E+02 -0.26025903885E+02  0.36724276043E+02  0.00000000000E+00 0. -1.
         -2    1    3    3    0  502  0.26486662080E+00  0.25908582044E+02 -0.31299925273E+03  0.31406982821E+03  0.00000000000E+00 0.  1.
<mgrwt>
<rscale>  0 0.90102424E+02</rscale>
<asrwt>0</asrwt>
<pdfrwt beam="1">  1        1 0.90530341E-03 0.90102424E+02</pdfrwt>
<pdfrwt beam="2">  1       -1 0.53063035E-01 0.90102424E+02</pdfrwt>
<totfact> 0.58958477E+04</totfact>
</mgrwt>
</event>
<event>
 5    1  0.3963873E+001  0.8980310E+02  0.7546771E-02  0.1303329E+00
          1   -1    0    0  501    0  0.00000000000E+00  0.00000000000E+00  0.38520586469E+01  0.38520586469E+01  0.00000000000E+00 0. -1.
         -1   -1    0    0    0  501 -0.00000000000E+00 -0.00000000000E+00 -0.52339523517E+03  0.52339523517E+03  0.00000000000E+00 0.  1.
         23    2    1    2    0    0  0.00000000000E+00  0.00000000000E+00 -0.51954317652E+03  0.52724729382E+03  0.89803098863E+02 0.  0.
          2    1    3    3  502    0  0.41340891335E+02 -0.17522104579E+02 -0.26115718088E+03  0.26498899330E+03  0.00000000000E+00 0.  1.
         -2    1    3    3    0  502 -0.41340891335E+02  0.17522104579E+02 -0.25838599564E+03  0.26225830052E+03  0.00000000000E+00 0. -1.
<mgrwt>
<rscale>  0 0.89803099E+02</rscale>
<asrwt>0</asrwt>
<pdfrwt beam="1">  1        1 0.59262435E-03 0.89803099E+02</pdfrwt>
<pdfrwt beam="2">  1       -1 0.80522352E-01 0.89803099E+02</pdfrwt>
<totfact> 0.47562022E+04</totfact>
</mgrwt>
</event>
<event>
 5    1  0.3963873E+001  0.9092149E+02  0.7546771E-02  0.1300635E+00
          1   -1    0    0  501    0  0.00000000000E+00  0.00000000000E+00  0.18536094831E+03  0.18536094831E+03  0.00000000000E+00 0. -1.
         -1   -1    0    0    0  501 -0.00000000000E+00 -0.00000000000E+00 -0.11149485304E+02  0.11149485304E+02  0.00000000000E+00 0.  1.
         23    2    1    2    0    0  0.00000000000E+00  0.00000000000E+00  0.17421146300E+03  0.19651043361E+03  0.90921486328E+02 0.  0.
          2    1    3    3  502    0  0.44081612778E+02 -0.10773270002E+02  0.81215494909E+02  0.93033373286E+02  0.00000000000E+00 0. -1.
         -2    1    3    3    0  502 -0.44081612778E+02  0.10773270002E+02  0.92995968095E+02  0.10347706033E+03  0.00000000000E+00 0.  1.
<mgrwt>
<rscale>  0 0.90921486E+02</rscale>
<asrwt>0</asrwt>
<pdfrwt beam="1">  1        1 0.28517067E-01 0.90921486E+02</pdfrwt>
<pdfrwt beam="2">  1       -1 0.17153056E-02 0.90921486E+02</pdfrwt>
<totfact> 0.11756294E+05</totfact>
</mgrwt>
</event>
<event>
 5    1  0.3963873E+001  0.9042553E+02  0.7546771E-02  0.1301824E+00
         -2   -1    0    0    0  501 -0.00000000000E+00  0.00000000000E+00  0.12595493281E+03  0.12595493281E+03  0.00000000000E+00 0.  1.
          2   -1    0    0  501    0  0.00000000000E+00 -0.00000000000E+00 -0.16229566613E+02  0.16229566613E+02  0.00000000000E+00 0. -1.
         23    2    1    2    0    0  0.00000000000E+00  0.00000000000E+00  0.10972536620E+03  0.14218449942E+03  0.90425526756E+02 0.  0.
          2    1    3    3  502    0 -0.28846243326E+02  0.22992804741E+02  0.13756724785E+02  0.39370322588E+02  0.00000000000E+00 0. -1.
         -2    1    3    3    0  502  0.28846243326E+02 -0.22992804741E+02  0.95968641410E+02  0.10281417683E+03  0.00000000000E+00 0.  1.
<mgrwt>
<rscale>  0 0.90425527E+02</rscale>
<asrwt>0</asrwt>
<pdfrwt beam="2">  1        2 0.24968565E-02 0.90425527E+02</pdfrwt>
<pdfrwt beam="1">  1       -2 0.19377681E-01 0.90425527E+02</pdfrwt>
<totfact> 0.75788637E+04</totfact>
</mgrwt>
</event>
<event>
 5    1  0.3963873E+001  0.9110176E+02  0.7546771E-02  0.1300205E+00
          2   -1    0    0  501    0  0.00000000000E+00  0.00000000000E+00  0.23281503825E+03  0.23281503825E+03  0.00000000000E+00 0.  1.
         -2   -1    0    0    0  501 -0.00000000000E+00 -0.00000000000E+00 -0.89121513770E+01  0.89121513770E+01  0.00000000000E+00 0. -1.
         23    2    1    2    0    0  0.00000000000E+00  0.00000000000E+00  0.22390288688E+03  0.24172718963E+03  0.91101764281E+02 0.  0.
          2    1    3    3  502    0 -0.99980477908E+00  0.27388771696E+02  0.20848977869E+03  0.21028345689E+03  0.00000000000E+00 0.  1.
         -2    1    3    3    0  502  0.99980477908E+00 -0.27388771696E+02  0.15413108190E+02  0.31443732741E+02  0.00000000000E+00 0. -1.
<mgrwt>
<rscale>  0 0.91101764E+02</rscale>
<asrwt>0</asrwt>
<pdfrwt beam="1">  1        2 0.35817694E-01 0.91101764E+02</pdfrwt>
<pdfrwt beam="2">  1       -2 0.13711004E-02 0.91101764E+02</pdfrwt>
<totfact> 0.16386671E+05</totfact>
</mgrwt>
</event>
<event>
 5    1  0.3963873E+001  0.9092728E+02  0.7546771E-02  0.1300622E+00
          1   -1    0    0  501    0  0.00000000000E+00  0.00000000000E+00  0.73276589527E+03  0.73276589527E+03  0.00000000000E+00 0. -1.
         -1   -1    0    0    0  501 -0.00000000000E+00 -0.00000000000E+00 -0.28207403991E+01  0.28207403991E+01  0.00000000000E+00 0.  1.
         23    2    1    2    0    0  0.00000000000E+00  0.00000000000E+00  0.72994515487E+03  0.73558663567E+03  0.90927275641E+02 0.  0.
          2    1    3    3  502    0 -0.55382967799E+01  0.21362232839E+02  0.68652948067E+03  0.68688408451E+03  0.00000000000E+00 0. -1.
         -2    1    3    3    0  502  0.55382967799E+01 -0.21362232839E+02  0.43415674196E+02  0.48702551155E+02  0.00000000000E+00 0.  1.
<mgrwt>
<rscale>  0 0.90927276E+02</rscale>
<asrwt>0</asrwt>
<pdfrwt beam="1">  1        1 0.11273306E+00 0.90927276E+02</pdfrwt>
<pdfrwt beam="2">  1       -1 0.43396065E-03 0.90927276E+02</pdfrwt>
<totfact> 0.14307148E+05</totfact>
</mgrwt>
</event>
<event>
 5    1  0.3963873E+001  0.9104339E+02  0.7546771E-02  0.1300344E+00
          2   -1    0    0  501    0  0.00000000000E+00  0.00000000000E+00  0.83325522969E+01  0.83325522969E+01  0.00000000000E+00 0.  1.
         -2   -1    0    0    0  501 -0.00000000000E+00 -0.00000000000E+00 -0.24869027153E+03  0.24869027153E+03  0.00000000000E+00 0. -1.
         23    2    1    2    0    0  0.00000000000E+00  0.00000000000E+00 -0.24035771923E+03  0.25702282383E+03  0.91043389507E+02 0.  0.
          2    1    3    3  502    0 -0.24502661493E+02 -0.11165050608E+02 -0.22379729734E+03  0.22541133306E+03  0.00000000000E+00 0. -1.
         -2    1    3    3    0  502  0.24502661493E+02  0.11165050608E+02 -0.16560421896E+02  0.31611490770E+02  0.00000000000E+00 0.  1.
<mgrwt>
<rscale>  0 0.91043390E+02</rscale>
<asrwt>0</asrwt>
<pdfrwt beam="1">  1        2 0.12819312E-02 0.91043390E+02</pdfrwt>
<pdfrwt beam="2">  1       -2 0.38260040E-01 0.91043390E+02</pdfrwt>
<totfact> 0.56536507E+04</totfact>
</mgrwt>
</event>
<event>
 5    1  0.3963873E+001  0.9214857E+02  0.7546771E-02  0.1297730E+00
          1   -1    0    0  501    0  0.00000000000E+00  0.00000000000E+00  0.67132482947E+03  0.67132482947E+03  0.00000000000E+00 0. -1.
         -1   -1    0    0    0  501 -0.00000000000E+00 -0.00000000000E+00 -0.31621644636E+01  0.31621644636E+01  0.00000000000E+00 0.  1.
         23    2    1    2    0    0  0.00000000000E+00  0.00000000000E+00  0.66816266500E+03  0.67448699393E+03  0.92148565247E+02 0.  0.
          2    1    3    3  502    0  0.16370223312E+02  0.18823746434E+02  0.61761600049E+03  0.61811960145E+03  0.00000000000E+00 0. -1.
         -2    1    3    3    0  502 -0.16370223312E+02 -0.18823746434E+02  0.50546664513E+02  0.56367392475E+02  0.00000000000E+00 0.  1.
<mgrwt>
<rscale>  0 0.92148565E+02</rscale>
<asrwt>0</asrwt>
<pdfrwt beam="1">  1        1 0.10328063E+00 0.92148565E+02</pdfrwt>
<pdfrwt beam="2">  1       -1 0.48648738E-03 0.92148565E+02</pdfrwt>
<totfact> 0.13823377E+05</totfact>
</mgrwt>
</event>
<event>
 5    1  0.3963873E+001  0.9460182E+02  0.7546771E-02  0.1292075E+00
          2   -1    0    0  501    0  0.00000000000E+00  0.00000000000E+00  0.74102681240E+03  0.74102681240E+03  0.00000000000E+00 0. -1.
         -2   -1    0    0    0  501 -0.00000000000E+00 -0.00000000000E+00 -0.30192917314E+01  0.30192917314E+01  0.00000000000E+00 0.  1.
         23    2    1    2    0    0  0.00000000000E+00  0.00000000000E+00  0.73800752066E+03  0.74404610413E+03  0.94601820858E+02 0.  0.
          2    1    3    3  502    0 -0.47267229893E+02 -0.12420721961E+01  0.35892435666E+03  0.36202545155E+03  0.00000000000E+00 0. -1.
         -2    1    3    3    0  502  0.47267229893E+02  0.12420721961E+01  0.37908316401E+03  0.38202065258E+03  0.00000000000E+00 0.  1.
<mgrwt>
<rscale>  0 0.94601821E+02</rscale>
<asrwt>0</asrwt>
<pdfrwt beam="1">  1        2 0.11400398E+00 0.94601821E+02</pdfrwt>
<pdfrwt beam="2">  1       -2 0.46450701E-03 0.94601821E+02</pdfrwt>
<totfact> 0.21786349E+05</totfact>
</mgrwt>
</event>
<event>
 5    1  0.3963873E+001  0.9551031E+02  0.7546771E-02  0.1290031E+00
          4   -1    0    0  501    0  0.00000000000E+00  0.00000000000E+00  0.18426694604E+03  0.18426694604E+03  0.00000000000E+00 0. -1.
         -4   -1    0    0    0  501 -0.00000000000E+00 -0.00000000000E+00 -0.12376364031E+02  0.12376364031E+02  0.00000000000E+00 0.  1.
         23    2    1    2    0    0  0.00000000000E+00  0.00000000000E+00  0.17189058201E+03  0.19664331007E+03  0.95510309456E+02 0.  0.
          2    1    3    3  502    0  0.33947586233E+01  0.47242385516E+02  0.73389993921E+02  0.87346772024E+02  0.00000000000E+00 0. -1.
         -2    1    3    3    0  502 -0.33947586233E+01 -0.47242385516E+02  0.98500588092E+02  0.10929653805E+03  0.00000000000E+00 0.  1.
<mgrwt>
<rscale>  0 0.95510309E+02</rscale>
<asrwt>0</asrwt>
<pdfrwt beam="1">  1        4 0.28348759E-01 0.95510309E+02</pdfrwt>
<pdfrwt beam="2">  1       -4 0.19040561E-02 0.95510309E+02</pdfrwt>
<totfact> 0.18999150E+04</totfact>
</mgrwt>
</event>
<event>
 5    1  0.3963873E+001  0.9092011E+02  0.7546771E-02  0.1300639E+00
          2   -1    0    0  501    0  0.00000000000E+00  0.00000000000E+00  0.17577927429E+03  0.17577927429E+03  0.00000000000E+00 0.  1.
         -2   -1    0    0    0  501 -0.00000000000E+00 -0.00000000000E+00 -0.11756883266E+02  0.11756883266E+02  0.00000000000E+00 0. -1.
         23    2    1    2    0    0  0.00000000000E+00  0.00000000000E+00  0.16402239103E+03  0.18753615756E+03  0.90920105774E+02 0.  0.
          2    1    3    3  502    0  0.40399215588E+02  0.35403665765E+01  0.12438270081E+03  0.13082693559E+03  0.00000000000E+00 0.  1.
         -2    1    3    3    0  502 -0.40399215588E+02 -0.35403665765E+01  0.39639690218E+02  0.56709221968E+02  0.00000000000E+00 0. -1.
<mgrwt>
<rscale>  0 0.90920106E+02</rscale>
<asrwt>0</asrwt>
<pdfrwt beam="1">  1        2 0.27042963E-01 0.90920106E+02</pdfrwt>
<pdfrwt beam="2">  1       -2 0.18087514E-02 0.90920106E+02</pdfrwt>
<totfact> 0.14883015E+05</totfact>
</mgrwt>
</event>
<event>
 5    1  0.3963873E+001  0.9033673E+02  0.7546771E-02  0.1302038E+00
         -2   -1    0    0    0  501 -0.00000000000E+00  0.00000000000E+00  0.27633756735E+03  0.27633756735E+03  0.00000000000E+00 0.  1.
          2   -1    0    0  501    0  0.00000000000E+00 -0.00000000000E+00 -0.73829308167E+01  0.73829308167E+01  0.00000000000E+00 0. -1.
         23    2    1    2    0    0  0.00000000000E+00  0.00000000000E+00  0.26895463653E+03  0.28372049816E+03  0.90336728782E+02 0.  0.
          2    1    3    3  502    0 -0.98658625654E+01  0.36772229514E+02  0.58148049354E+02  0.69503436975E+02  0.00000000000E+00 0. -1.
         -2    1    3    3    0  502  0.98658625654E+01 -0.36772229514E+02  0.21080658718E+03  0.21421706119E+03  0.00000000000E+00 0.  1.
<mgrwt>
<rscale>  0 0.90336729E+02</rscale>
<asrwt>0</asrwt>
<pdfrwt beam="2">  1        2 0.11358357E-02 0.90336729E+02</pdfrwt>
<pdfrwt beam="1">  1       -2 0.42513464E-01 0.90336729E+02</pdfrwt>
<totfact> 0.54632063E+04</totfact>
</mgrwt>
</event>
<event>
 5    1  0.3963873E+001  0.9255358E+02  0.7546771E-02  0.1296783E+00
         -2   -1    0    0    0  501 -0.00000000000E+00  0.00000000000E+00  0.10718978203E+01  0.10718978203E+01  0.00000000000E+00 0.  1.
          2   -1    0    0  501    0  0.00000000000E+00 -0.00000000000E+00 -0.19978968016E+04  0.19978968016E+04  0.00000000000E+00 0. -1.
         23    2    1    2    0    0  0.00000000000E+00  0.00000000000E+00 -0.19968249038E+04  0.19989686994E+04  0.92553578577E+02 0.  0.
          2    1    3    3  502    0 -0.36427841541E+02 -0.28539335247E+02 -0.10036998147E+04  0.10047660421E+04  0.00000000000E+00 0. -1.
         -2    1    3    3    0  502  0.36427841541E+02  0.28539335247E+02 -0.99312508906E+03  0.99420265732E+03  0.00000000000E+00 0.  1.
<mgrwt>
<rscale>  0 0.92553579E+02</rscale>
<asrwt>0</asrwt>
<pdfrwt beam="2">  1        2 0.30736775E+00 0.92553579E+02</pdfrwt>
<pdfrwt beam="1">  1       -2 0.16490789E-03 0.92553579E+02</pdfrwt>
<totfact> 0.18934844E+05</totfact>
</mgrwt>
</event>
<event>
 5    1  0.3963873E+001  0.9456544E+02  0.7546771E-02  0.1292158E+00
         -1   -1    0    0    0  501 -0.00000000000E+00  0.00000000000E+00  0.12741942176E+02  0.12741942176E+02  0.00000000000E+00 0.  1.
          1   -1    0    0  501    0  0.00000000000E+00 -0.00000000000E+00 -0.17545643919E+03  0.17545643919E+03  0.00000000000E+00 0. -1.
         23    2    1    2    0    0  0.00000000000E+00  0.00000000000E+00 -0.16271449701E+03  0.18819838136E+03  0.94565444060E+02 0.  0.
          2    1    3    3  502    0  0.35813908954E+02  0.20355206839E+01 -0.14266116719E+03  0.14710196478E+03  0.00000000000E+00 0. -1.
         -2    1    3    3    0  502 -0.35813908954E+02 -0.20355206839E+01 -0.20053329824E+02  0.41096416584E+02  0.00000000000E+00 0.  1.
<mgrwt>
<rscale>  0 0.94565444E+02</rscale>
<asrwt>0</asrwt>
<pdfrwt beam="2">  1        1 0.26993301E-01 0.94565444E+02</pdfrwt>
<pdfrwt beam="1">  1       -1 0.19602986E-02 0.94565444E+02</pdfrwt>
<totfact> 0.10464368E+05</totfact>
</mgrwt>
</event>
<event>
 5    1  0.3963873E+001  0.9102453E+02  0.7546771E-02  0.1300389E+00
          2   -1    0    0  501    0  0.00000000000E+00  0.00000000000E+00  0.30739003595E+03  0.30739003595E+03  0.00000000000E+00 0. -1.
         -2   -1    0    0    0  501 -0.00000000000E+00 -0.00000000000E+00 -0.67385605613E+01  0.67385605613E+01  0.00000000000E+00 0.  1.
         23    2    1    2    0    0  0.00000000000E+00  0.00000000000E+00  0.30065147538E+03  0.31412859651E+03  0.91024532367E+02 0.  0.
          2    1    3    3  502    0  0.36580080758E+02 -0.46445860376E+01  0.24239083670E+03  0.24517951016E+03  0.00000000000E+00 0. -1.
         -2    1    3    3    0  502 -0.36580080758E+02  0.46445860376E+01  0.58260638684E+02  0.68949086343E+02  0.00000000000E+00 0.  1.
<mgrwt>
<rscale>  0 0.91024532E+02</rscale>
<asrwt>0</asrwt>
<pdfrwt beam="1">  1        2 0.47290764E-01 0.91024532E+02</pdfrwt>
<pdfrwt beam="2">  1       -2 0.10367019E-02 0.91024532E+02</pdfrwt>
<totfact> 0.18210493E+05</totfact>
</mgrwt>
</event>
<event>
 5    1  0.3963873E+001  0.9288335E+02  0.7546771E-02  0.1296016E+00
         -3   -1    0    0    0  501 -0.00000000000E+00  0.00000000000E+00  0.15573484753E+03  0.15573484753E+03  0.00000000000E+00 0.  1.
          3   -1    0    0  501    0  0.00000000000E+00 -0.00000000000E+00 -0.13849367313E+02  0.13849367313E+02  0.00000000000E+00 0. -1.
         23    2    1    2    0    0  0.00000000000E+00  0.00000000000E+00  0.14188548022E+03  0.16958421485E+03  0.92883348496E+02 0.  0.
          2    1    3    3  502    0  0.26747916407E+02 -0.31133300209E+02  0.11061277483E+03  0.11798270793E+03  0.00000000000E+00 0. -1.
         -2    1    3    3    0  502 -0.26747916407E+02  0.31133300209E+02  0.31272705391E+02  0.51601506921E+02  0.00000000000E+00 0.  1.
<mgrwt>
<rscale>  0 0.92883348E+02</rscale>
<asrwt>0</asrwt>
<pdfrwt beam="2">  1        3 0.21306720E-02 0.92883348E+02</pdfrwt>
<pdfrwt beam="1">  1       -3 0.23959206E-01 0.92883348E+02</pdfrwt>
<totfact> 0.28672282E+04</totfact>
</mgrwt>
</event>
<event>
 5    1  0.3963873E+001  0.8917085E+02  0.7546771E-02  0.1304872E+00
          2   -1    0    0  501    0  0.00000000000E+00  0.00000000000E+00  0.46926647469E+03  0.46926647469E+03  0.00000000000E+00 0. -1.
         -2   -1    0    0    0  501 -0.00000000000E+00 -0.00000000000E+00 -0.42361009577E+01  0.42361009577E+01  0.00000000000E+00 0.  1.
         23    2    1    2    0    0  0.00000000000E+00  0.00000000000E+00  0.46503037373E+03  0.47350257564E+03  0.89170850906E+02 0.  0.
          2    1    3    3  502    0 -0.17508990941E+02 -0.11042784984E+02  0.22828162245E+02  0.30816113568E+02  0.00000000000E+00 0. -1.
         -2    1    3    3    0  502  0.17508990941E+02  0.11042784984E+02  0.44220221148E+03  0.44268646208E+03  0.00000000000E+00 0.  1.
<mgrwt>
<rscale>  0 0.89170851E+02</rscale>
<asrwt>0</asrwt>
<pdfrwt beam="1">  1        2 0.72194801E-01 0.89170851E+02</pdfrwt>
<pdfrwt beam="2">  1       -2 0.65170821E-03 0.89170851E+02</pdfrwt>
<totfact> 0.22381109E+05</totfact>
</mgrwt>
</event>
<event>
 5    1  0.3963873E+001  0.9138257E+02  0.7546771E-02  0.1299538E+00
         -2   -1    0    0    0  501 -0.00000000000E+00  0.00000000000E+00  0.52341259175E+01  0.52341259175E+01  0.00000000000E+00 0.  1.
          2   -1    0    0  501    0  0.00000000000E+00 -0.00000000000E+00 -0.39886193102E+03  0.39886193102E+03  0.00000000000E+00 0. -1.
         23    2    1    2    0    0  0.00000000000E+00  0.00000000000E+00 -0.39362780511E+03  0.40409605694E+03  0.91382571001E+02 0.  0.
          2    1    3    3  502    0  0.21100951102E+02  0.30209387369E+02 -0.31627705875E+03  0.31841644919E+03  0.00000000000E+00 0. -1.
         -2    1    3    3    0  502 -0.21100951102E+02 -0.30209387369E+02 -0.77350746352E+02  0.85679607748E+02  0.00000000000E+00 0.  1.
<mgrwt>
<rscale>  0 0.91382571E+02</rscale>
<asrwt>0</asrwt>
<pdfrwt beam="2">  1        2 0.61363381E-01 0.91382571E+02</pdfrwt>
<pdfrwt beam="1">  1       -2 0.80525005E-03 0.91382571E+02</pdfrwt>
<totfact> 0.19823107E+05</totfact>
</mgrwt>
</event>
<event>
 5    1  0.3963873E+001  0.8589901E+02  0.7546771E-02  0.1313098E+00
          3   -1    0    0  501    0  0.00000000000E+00  0.00000000000E+00  0.16326316892E+02  0.16326316892E+02  0.00000000000E+00 0. -1.
         -3   -1    0    0    0  501 -0.00000000000E+00 -0.00000000000E+00 -0.11298689376E+03  0.11298689376E+03  0.00000000000E+00 0.  1.
         23    2    1    2    0    0  0.00000000000E+00  0.00000000000E+00 -0.96660576866E+02  0.12931321065E+03  0.85899006562E+02 0.  0.
          2    1    3    3  502    0 -0.11992924284E+01  0.37503036800E+02 -0.16869608229E+02  0.41140001864E+02  0.00000000000E+00 0. -1.
         -2    1    3    3    0  502  0.11992924284E+01 -0.37503036800E+02 -0.79790968637E+02  0.88173208786E+02  0.00000000000E+00 0.  1.
<mgrwt>
<rscale>  0 0.85899007E+02</rscale>
<asrwt>0</asrwt>
<pdfrwt beam="1">  1        3 0.25117411E-02 0.85899007E+02</pdfrwt>
<pdfrwt beam="2">  1       -3 0.17382599E-01 0.85899007E+02</pdfrwt>
<totfact> 0.38320721E+04</totfact>
</mgrwt>
</event>
<event>
 5    1  0.3963873E+001  0.8899136E+02  0.7546771E-02  0.1305313E+00
          2   -1    0    0  501    0  0.00000000000E+00  0.00000000000E+00  0.10163948436E+03  0.10163948436E+03  0.00000000000E+00 0. -1.
         -2   -1    0    0    0  501 -0.00000000000E+00 -0.00000000000E+00 -0.19479294172E+02  0.19479294172E+02  0.00000000000E+00 0.  1.
         23    2    1    2    0    0  0.00000000000E+00  0.00000000000E+00  0.82160190186E+02  0.12111877853E+03  0.88991357228E+02 0.  0.
          2    1    3    3  502    0 -0.28680340638E+02 -0.16021204541E+02  0.81924777738E+02  0.88266132472E+02  0.00000000000E+00 0. -1.
         -2    1    3    3    0  502  0.28680340638E+02  0.16021204541E+02  0.23541244836E+00  0.32852646059E+02  0.00000000000E+00 0.  1.
<mgrwt>
<rscale>  0 0.88991357E+02</rscale>
<asrwt>0</asrwt>
<pdfrwt beam="1">  1        2 0.15636843E-01 0.88991357E+02</pdfrwt>
<pdfrwt beam="2">  1       -2 0.29968146E-02 0.88991357E+02</pdfrwt>
<totfact> 0.13177430E+05</totfact>
</mgrwt>
</event>
<event>
 5    1  0.3963873E+001  0.9144561E+02  0.7546771E-02  0.1299388E+00
          3   -1    0    0  501    0  0.00000000000E+00  0.00000000000E+00  0.24807272648E+01  0.24807272648E+01  0.00000000000E+00 0. -1.
         -3   -1    0    0    0  501 -0.00000000000E+00 -0.00000000000E+00 -0.84272657529E+03  0.84272657529E+03  0.00000000000E+00 0.  1.
         23    2    1    2    0    0  0.00000000000E+00  0.00000000000E+00 -0.84024584803E+03  0.84520730255E+03  0.91445607704E+02 0.  0.
          2    1    3    3  502    0 -0.42305803105E+02  0.13132224082E+02 -0.52483068684E+03  0.52669676868E+03  0.00000000000E+00 0. -1.
         -2    1    3    3    0  502  0.42305803105E+02 -0.13132224082E+02 -0.31541516119E+03  0.31851053388E+03  0.00000000000E+00 0.  1.
<mgrwt>
<rscale>  0 0.91445608E+02</rscale>
<asrwt>0</asrwt>
<pdfrwt beam="1">  1        3 0.38165031E-03 0.91445608E+02</pdfrwt>
<pdfrwt beam="2">  1       -3 0.12965026E+00 0.91445608E+02</pdfrwt>
<totfact> 0.11676009E+04</totfact>
</mgrwt>
</event>
<event>
 4    1  0.3963873E+001  0.1448941E+03  0.7546771E-02  0.1206891E+00
          2   -1    0    0  501    0  0.00000000000E+00  0.00000000000E+00  0.13028910314E+04  0.13028910314E+04  0.00000000000E+00 0. -1.
         -2   -1    0    0    0  501 -0.00000000000E+00 -0.00000000000E+00 -0.40284063182E+01  0.40284063182E+01  0.00000000000E+00 0.  1.
          2    1    1    2  502    0  0.13609443386E+01 -0.62085487706E+02  0.98597048309E+03  0.98792421444E+03  0.00000000000E+00 0. -1.
         -2    1    1    2    0  502 -0.13609443386E+01  0.62085487706E+02  0.31289214195E+03  0.31899522324E+03  0.00000000000E+00 0.  1.
<mgrwt>
<rscale>  0 0.14489409E+03</rscale>
<asrwt>0</asrwt>
<pdfrwt beam="1">  1        2 0.20044444E+00 0.14489409E+03</pdfrwt>
<pdfrwt beam="2">  1       -2 0.61975585E-03 0.14489409E+03</pdfrwt>
<totfact> 0.70578568E+04</totfact>
</mgrwt>
</event>
<event>
 5    1  0.3963873E+001  0.9077719E+02  0.7546771E-02  0.1300980E+00
         -2   -1    0    0    0  501 -0.00000000000E+00  0.00000000000E+00  0.90574795481E+01  0.90574795481E+01  0.00000000000E+00 0.  1.
          2   -1    0    0  501    0  0.00000000000E+00 -0.00000000000E+00 -0.22745008392E+03  0.22745008392E+03  0.00000000000E+00 0. -1.
         23    2    1    2    0    0  0.00000000000E+00  0.00000000000E+00 -0.21839260437E+03  0.23650756346E+03  0.90777188396E+02 0.  0.
          2    1    3    3  502    0  0.23142687686E+02  0.30060248139E+02 -0.44275060058E+02  0.58305089440E+02  0.00000000000E+00 0.  1.
         -2    1    3    3    0  502 -0.23142687686E+02 -0.30060248139E+02 -0.17411754431E+03  0.17820247402E+03  0.00000000000E+00 0. -1.
<mgrwt>
<rscale>  0 0.90777188E+02</rscale>
<asrwt>0</asrwt>
<pdfrwt beam="2">  1        2 0.34992317E-01 0.90777188E+02</pdfrwt>
<pdfrwt beam="1">  1       -2 0.13934586E-02 0.90777188E+02</pdfrwt>
<totfact> 0.16403044E+05</totfact>
</mgrwt>
</event>
<event>
 5    1  0.3963873E+001  0.8995068E+02  0.7546771E-02  0.1302971E+00
         -2   -1    0    0    0  501 -0.00000000000E+00  0.00000000000E+00  0.12125515132E+01  0.12125515132E+01  0.00000000000E+00 0.  1.
          2   -1    0    0  501    0  0.00000000000E+00 -0.00000000000E+00 -0.16682022957E+04  0.16682022957E+04  0.00000000000E+00 0. -1.
         23    2    1    2    0    0  0.00000000000E+00  0.00000000000E+00 -0.16669897442E+04  0.16694148472E+04  0.89950680220E+02 0.  0.
          2    1    3    3  502    0  0.23221062570E+02  0.57550899698E+01 -0.15403168821E+04  0.15405026570E+04  0.00000000000E+00 0. -1.
         -2    1    3    3    0  502 -0.23221062570E+02 -0.57550899698E+01 -0.12667286206E+03  0.12891219023E+03  0.00000000000E+00 0.  1.
<mgrwt>
<rscale>  0 0.89950680E+02</rscale>
<asrwt>0</asrwt>
<pdfrwt beam="2">  1        2 0.25664464E+00 0.89950680E+02</pdfrwt>
<pdfrwt beam="1">  1       -2 0.18654775E-03 0.89950680E+02</pdfrwt>
<totfact> 0.23284505E+05</totfact>
</mgrwt>
</event>
<event>
 5    1  0.3963873E+001  0.9040901E+02  0.7546771E-02  0.1301864E+00
          2   -1    0    0  501    0  0.00000000000E+00  0.00000000000E+00  0.25196158093E+02  0.25196158093E+02  0.00000000000E+00 0. -1.
         -2   -1    0    0    0  501 -0.00000000000E+00 -0.00000000000E+00 -0.81101536926E+02  0.81101536926E+02  0.00000000000E+00 0.  1.
         23    2    1    2    0    0  0.00000000000E+00  0.00000000000E+00 -0.55905378832E+02  0.10629769502E+03  0.90409007206E+02 0.  0.
          2    1    3    3  502    0 -0.10103124510E+00 -0.23133472910E+02 -0.73614490993E+02  0.77163858511E+02  0.00000000000E+00 0.  1.
         -2    1    3    3    0  502  0.10103124510E+00  0.23133472910E+02  0.17709112160E+02  0.29133836508E+02  0.00000000000E+00 0. -1.
<mgrwt>
<rscale>  0 0.90409007E+02</rscale>
<asrwt>0</asrwt>
<pdfrwt beam="1">  1        2 0.38763320E-02 0.90409007E+02</pdfrwt>
<pdfrwt beam="2">  1       -2 0.12477160E-01 0.90409007E+02</pdfrwt>
<totfact> 0.86537402E+04</totfact>
</mgrwt>
</event>
<event>
 5    1  0.3963873E+001  0.9094542E+02  0.7546771E-02  0.1300578E+00
          1   -1    0    0  501    0  0.00000000000E+00  0.00000000000E+00  0.30157681112E+04  0.30157681112E+04  0.00000000000E+00 0. -1.
         -1   -1    0    0    0  501 -0.00000000000E+00 -0.00000000000E+00 -0.68565203044E+00  0.68565203044E+00  0.00000000000E+00 0.  1.
         23    2    1    2    0    0  0.00000000000E+00  0.00000000000E+00  0.30150824592E+04  0.30164537633E+04  0.90945423828E+02 0.  0.
          2    1    3    3  502    0  0.33809115367E+02 -0.92410069731E+01  0.54664094170E+03  0.54776342670E+03  0.00000000000E+00 0. -1.
         -2    1    3    3    0  502 -0.33809115367E+02  0.92410069731E+01  0.24684415175E+04  0.24686903366E+04  0.00000000000E+00 0.  1.
<mgrwt>
<rscale>  0 0.90945424E+02</rscale>
<asrwt>0</asrwt>
<pdfrwt beam="1">  1        1 0.46395371E+00 0.90945424E+02</pdfrwt>
<pdfrwt beam="2">  1       -1 0.10548734E-03 0.90945424E+02</pdfrwt>
<totfact> 0.31109775E+04</totfact>
</mgrwt>
</event>
<event>
 5    1  0.3963873E+001  0.9051564E+02  0.7546771E-02  0.1301608E+00
          2   -1    0    0  501    0  0.00000000000E+00  0.00000000000E+00  0.10107638114E+03  0.10107638114E+03  0.00000000000E+00 0. -1.
         -2   -1    0    0    0  501 -0.00000000000E+00 -0.00000000000E+00 -0.20264577962E+02  0.20264577962E+02  0.00000000000E+00 0.  1.
         23    2    1    2    0    0  0.00000000000E+00  0.00000000000E+00  0.80811803178E+02  0.12134095910E+03  0.90515638555E+02 0.  0.
          2    1    3    3  502    0 -0.21417307971E+02 -0.26507857510E+02  0.80328773153E+02  0.87258692328E+02  0.00000000000E+00 0. -1.
         -2    1    3    3    0  502  0.21417307971E+02  0.26507857510E+02  0.48303002474E+00  0.34082266774E+02  0.00000000000E+00 0.  1.
<mgrwt>
<rscale>  0 0.90515639E+02</rscale>
<asrwt>0</asrwt>
<pdfrwt beam="1">  1        2 0.15550212E-01 0.90515639E+02</pdfrwt>
<pdfrwt beam="2">  1       -2 0.31176274E-02 0.90515639E+02</pdfrwt>
<totfact> 0.12556461E+05</totfact>
</mgrwt>
</event>
<event>
 5    1  0.3963873E+001  0.8974463E+02  0.7546771E-02  0.1303471E+00
          2   -1    0    0  501    0  0.00000000000E+00  0.00000000000E+00  0.54244547210E+03  0.54244547210E+03  0.00000000000E+00 0. -1.
         -2   -1    0    0    0  501 -0.00000000000E+00 -0.00000000000E+00 -0.37119390785E+01  0.37119390785E+01  0.00000000000E+00 0.  1.
         23    2    1    2    0    0  0.00000000000E+00  0.00000000000E+00  0.53873353302E+03  0.54615741117E+03  0.89744627602E+02 0.  0.
          2    1    3    3  502    0  0.26311804588E+02  0.36337823479E+02  0.26400559354E+03  0.26779040665E+03  0.00000000000E+00 0. -1.
         -2    1    3    3    0  502 -0.26311804588E+02 -0.36337823479E+02  0.27472793948E+03  0.27836700452E+03  0.00000000000E+00 0.  1.
<mgrwt>
<rscale>  0 0.89744628E+02</rscale>
<asrwt>0</asrwt>
<pdfrwt beam="1">  1        2 0.83453087E-01 0.89744628E+02</pdfrwt>
<pdfrwt beam="2">  1       -2 0.57106798E-03 0.89744628E+02</pdfrwt>
<totfact> 0.23057543E+05</totfact>
</mgrwt>
</event>
<event>
 5    1  0.3963873E+001  0.8930236E+02  0.7546771E-02  0.1304550E+00
          2   -1    0    0  501    0  0.00000000000E+00  0.00000000000E+00  0.27301003292E+02  0.27301003292E+02  0.00000000000E+00 0. -1.
         -2   -1    0    0    0  501 -0.00000000000E+00 -0.00000000000E+00 -0.73027646465E+02  0.73027646465E+02  0.00000000000E+00 0.  1.
         23    2    1    2    0    0  0.00000000000E+00  0.00000000000E+00 -0.45726643173E+02  0.10032864976E+03  0.89302363161E+02 0.  0.
          2    1    3    3  502    0 -0.17418167638E+02  0.36825924084E+02 -0.23253929238E+01  0.40803782922E+02  0.00000000000E+00 0. -1.
         -2    1    3    3    0  502  0.17418167638E+02 -0.36825924084E+02 -0.43401250249E+02  0.59524866835E+02  0.00000000000E+00 0.  1.
<mgrwt>
<rscale>  0 0.89302363E+02</rscale>
<asrwt>0</asrwt>
<pdfrwt beam="1">  1        2 0.42001545E-02 0.89302363E+02</pdfrwt>
<pdfrwt beam="2">  1       -2 0.11235022E-01 0.89302363E+02</pdfrwt>
<totfact> 0.91760710E+04</totfact>
</mgrwt>
</event>
<event>
 5    1  0.3963873E+001  0.9126314E+02  0.7546771E-02  0.1299821E+00
         -1   -1    0    0    0  501 -0.00000000000E+00  0.00000000000E+00  0.29737720633E+01  0.29737720633E+01  0.00000000000E+00 0.  1.
          1   -1    0    0  501    0  0.00000000000E+00 -0.00000000000E+00 -0.70020164771E+03  0.70020164771E+03  0.00000000000E+00 0. -1.
         23    2    1    2    0    0  0.00000000000E+00  0.00000000000E+00 -0.69722787565E+03  0.70317541978E+03  0.91263138203E+02 0.  0.
          2    1    3    3  502    0 -0.24356378220E+02  0.34762286175E+02 -0.21955006716E+03  0.22361547730E+03  0.00000000000E+00 0.  1.
         -2    1    3    3    0  502  0.24356378220E+02 -0.34762286175E+02 -0.47767780849E+03  0.47955994247E+03  0.00000000000E+00 0. -1.
<mgrwt>
<rscale>  0 0.91263138E+02</rscale>
<asrwt>0</asrwt>
<pdfrwt beam="2">  1        1 0.10772333E+00 0.91263138E+02</pdfrwt>
<pdfrwt beam="1">  1       -1 0.45750339E-03 0.91263138E+02</pdfrwt>
<totfact> 0.14181944E+05</totfact>
</mgrwt>
</event>
<event>
 5    1  0.3963873E+001  0.9017693E+02  0.7546771E-02  0.1302424E+00
         -2   -1    0    0    0  501 -0.00000000000E+00  0.00000000000E+00  0.29318698905E+03  0.29318698905E+03  0.00000000000E+00 0.  1.
          2   -1    0    0  501    0  0.00000000000E+00 -0.00000000000E+00 -0.69340371942E+01  0.69340371942E+01  0.00000000000E+00 0. -1.
         23    2    1    2    0    0  0.00000000000E+00  0.00000000000E+00  0.28625295185E+03  0.30012102624E+03  0.90176925805E+02 0.  0.
          2    1    3    3  502    0 -0.64738204557E+01  0.30806306460E+02  0.35692601780E+02  0.47590972787E+02  0.00000000000E+00 0. -1.
         -2    1    3    3    0  502  0.64738204557E+01 -0.30806306460E+02  0.25056035007E+03  0.25253005346E+03  0.00000000000E+00 0.  1.
<mgrwt>
<rscale>  0 0.90176926E+02</rscale>
<asrwt>0</asrwt>
<pdfrwt beam="2">  1        2 0.10667752E-02 0.90176926E+02</pdfrwt>
<pdfrwt beam="1">  1       -2 0.45105681E-01 0.90176926E+02</pdfrwt>
<totfact> 0.53145617E+04</totfact>
</mgrwt>
</event>
<event>
 5    1  0.3963873E+001  0.8932154E+02  0.7546771E-02  0.1304503E+00
         -1   -1    0    0    0  501 -0.00000000000E+00  0.00000000000E+00  0.22600012637E+01  0.22600012637E+01  0.00000000000E+00 0.  1.
          1   -1    0    0  501    0  0.00000000000E+00 -0.00000000000E+00 -0.88255900904E+03  0.88255900904E+03  0.00000000000E+00 0. -1.
         23    2    1    2    0    0  0.00000000000E+00  0.00000000000E+00 -0.88029900778E+03  0.88481901031E+03  0.89321542210E+02 0.  0.
          2    1    3    3  502    0 -0.20192140323E+02  0.37979541030E+02 -0.32110578067E+03  0.32397390396E+03  0.00000000000E+00 0. -1.
         -2    1    3    3    0  502  0.20192140323E+02 -0.37979541030E+02 -0.55919322711E+03  0.56084510635E+03  0.00000000000E+00 0.  1.
<mgrwt>
<rscale>  0 0.89321542E+02</rscale>
<asrwt>0</asrwt>
<pdfrwt beam="2">  1        1 0.13577824E+00 0.89321542E+02</pdfrwt>
<pdfrwt beam="1">  1       -1 0.34769269E-03 0.89321542E+02</pdfrwt>
<totfact> 0.14741691E+05</totfact>
</mgrwt>
</event>
<event>
 5    1  0.3963873E+001  0.8910632E+02  0.7546771E-02  0.1305030E+00
          2   -1    0    0  501    0  0.00000000000E+00  0.00000000000E+00  0.66444569118E+03  0.66444569118E+03  0.00000000000E+00 0.  1.
         -2   -1    0    0    0  501 -0.00000000000E+00 -0.00000000000E+00 -0.29874283887E+01  0.29874283887E+01  0.00000000000E+00 0. -1.
         23    2    1    2    0    0  0.00000000000E+00  0.00000000000E+00  0.66145826279E+03  0.66743311957E+03  0.89106316736E+02 0.  0.
          2    1    3    3  502    0  0.35863446209E+02  0.23633105605E+02  0.24201618054E+03  0.24579776667E+03  0.00000000000E+00 0. -1.
         -2    1    3    3    0  502 -0.35863446209E+02 -0.23633105605E+02  0.41944208225E+03  0.42163535290E+03  0.00000000000E+00 0.  1.
<mgrwt>
<rscale>  0 0.89106317E+02</rscale>
<asrwt>0</asrwt>
<pdfrwt beam="1">  1        2 0.10222230E+00 0.89106317E+02</pdfrwt>
<pdfrwt beam="2">  1       -2 0.45960490E-03 0.89106317E+02</pdfrwt>
<totfact> 0.24877746E+05</totfact>
</mgrwt>
</event>
<event>
 5    1  0.3963873E+001  0.9115561E+02  0.7546771E-02  0.1300077E+00
          1   -1    0    0  501    0  0.00000000000E+00  0.00000000000E+00  0.11957577725E+03  0.11957577725E+03  0.00000000000E+00 0. -1.
         -1   -1    0    0    0  501 -0.00000000000E+00 -0.00000000000E+00 -0.17372552341E+02  0.17372552341E+02  0.00000000000E+00 0.  1.
         23    2    1    2    0    0  0.00000000000E+00  0.00000000000E+00  0.10220322491E+03  0.13694832960E+03  0.91155613081E+02 0.  0.
          2    1    3    3  502    0 -0.17853857079E+02 -0.17849437234E+02  0.10811155749E+03  0.11102013999E+03  0.00000000000E+00 0. -1.
         -2    1    3    3    0  502  0.17853857079E+02  0.17849437234E+02 -0.59083325735E+01  0.25928189600E+02  0.00000000000E+00 0.  1.
<mgrwt>
<rscale>  0 0.91155613E+02</rscale>
<asrwt>0</asrwt>
<pdfrwt beam="1">  1        1 0.18396273E-01 0.91155613E+02</pdfrwt>
<pdfrwt beam="2">  1       -1 0.26727004E-02 0.91155613E+02</pdfrwt>
<totfact> 0.10774060E+05</totfact>
</mgrwt>
</event>
<event>
 5    1  0.3963873E+001  0.9021980E+02  0.7546771E-02  0.1302320E+00
         -1   -1    0    0    0  501 -0.00000000000E+00  0.00000000000E+00  0.44102596044E+02  0.44102596044E+02  0.00000000000E+00 0.  1.
          1   -1    0    0  501    0  0.00000000000E+00 -0.00000000000E+00 -0.46140205839E+02  0.46140205839E+02  0.00000000000E+00 0. -1.
         23    2    1    2    0    0  0.00000000000E+00  0.00000000000E+00 -0.20376097944E+01  0.90242801883E+02  0.90219795156E+02 0.  0.
          2    1    3    3  502    0  0.28987657776E+02 -0.17793022991E+02 -0.30657879664E+02  0.45790627382E+02  0.00000000000E+00 0. -1.
         -2    1    3    3    0  502 -0.28987657776E+02  0.17793022991E+02  0.28620269870E+02  0.44452174501E+02  0.00000000000E+00 0.  1.
<mgrwt>
<rscale>  0 0.90219795E+02</rscale>
<asrwt>0</asrwt>
<pdfrwt beam="2">  1        1 0.70984932E-02 0.90219795E+02</pdfrwt>
<pdfrwt beam="1">  1       -1 0.67850148E-02 0.90219795E+02</pdfrwt>
<totfact> 0.95418570E+04</totfact>
</mgrwt>
</event>
<event>
 5    1  0.3963873E+001  0.9234597E+02  0.7546771E-02  0.1297268E+00
         -2   -1    0    0    0  501 -0.00000000000E+00  0.00000000000E+00  0.51514428780E+01  0.51514428780E+01  0.00000000000E+00 0.  1.
          2   -1    0    0  501    0  0.00000000000E+00 -0.00000000000E+00 -0.41385385848E+03  0.41385385848E+03  0.00000000000E+00 0. -1.
         23    2    1    2    0    0  0.00000000000E+00  0.00000000000E+00 -0.40870241561E+03  0.41900530136E+03  0.92345969308E+02 0.  0.
          2    1    3    3  502    0 -0.99947704500E+01  0.28997974226E+02 -0.36094978834E+03  0.36225064203E+03  0.00000000000E+00 0. -1.
         -2    1    3    3    0  502  0.99947704500E+01 -0.28997974226E+02 -0.47752627266E+02  0.56754659336E+02  0.00000000000E+00 0.  1.
<mgrwt>
<rscale>  0 0.92345969E+02</rscale>
<asrwt>0</asrwt>
<pdfrwt beam="2">  1        2 0.63669813E-01 0.92345969E+02</pdfrwt>
<pdfrwt beam="1">  1       -2 0.79252981E-03 0.92345969E+02</pdfrwt>
<totfact> 0.19533211E+05</totfact>
</mgrwt>
</event>
<event>
 5    1  0.3963873E+001  0.9242154E+02  0.7546771E-02  0.1297091E+00
         -1   -1    0    0    0  501 -0.00000000000E+00  0.00000000000E+00  0.13474185068E+01  0.13474185068E+01  0.00000000000E+00 0.  1.
          1   -1    0    0  501    0  0.00000000000E+00 -0.00000000000E+00 -0.15848345793E+04  0.15848345793E+04  0.00000000000E+00 0. -1.
         23    2    1    2    0    0  0.00000000000E+00  0.00000000000E+00 -0.15834871608E+04  0.15861819979E+04  0.92421543862E+02 0.  0.
          2    1    3    3  502    0  0.35080530873E+02 -0.39096175765E+01 -0.13036073683E+04  0.13040851580E+04  0.00000000000E+00 0. -1.
         -2    1    3    3    0  502 -0.35080530873E+02  0.39096175765E+01 -0.27987979256E+03  0.28209683982E+03  0.00000000000E+00 0.  1.
<mgrwt>
<rscale>  0 0.92421544E+02</rscale>
<asrwt>0</asrwt>
<pdfrwt beam="2">  1        1 0.24382043E+00 0.92421544E+02</pdfrwt>
<pdfrwt beam="1">  1       -1 0.20729539E-03 0.92421544E+02</pdfrwt>
<totfact> 0.10161982E+05</totfact>
</mgrwt>
</event>
<event>
 5    1  0.3963873E+001  0.9259002E+02  0.7546771E-02  0.1296698E+00
         -2   -1    0    0    0  501 -0.00000000000E+00  0.00000000000E+00  0.78444659316E+02  0.78444659316E+02  0.00000000000E+00 0.  1.
          2   -1    0    0  501    0  0.00000000000E+00 -0.00000000000E+00 -0.27321525784E+02  0.27321525784E+02  0.00000000000E+00 0. -1.
         23    2    1    2    0    0  0.00000000000E+00  0.00000000000E+00  0.51123133531E+02  0.10576618510E+03  0.92590016355E+02 0.  0.
          2    1    3    3  502    0 -0.43224889394E+02 -0.37138272029E+01  0.44017657166E+02  0.61804026714E+02  0.00000000000E+00 0.  1.
         -2    1    3    3    0  502  0.43224889394E+02  0.37138272029E+01  0.71054763652E+01  0.43962158387E+02  0.00000000000E+00 0. -1.
<mgrwt>
<rscale>  0 0.92590016E+02</rscale>
<asrwt>0</asrwt>
<pdfrwt beam="2">  1        2 0.42033117E-02 0.92590016E+02</pdfrwt>
<pdfrwt beam="1">  1       -2 0.12068409E-01 0.92590016E+02</pdfrwt>
<totfact> 0.82369690E+04</totfact>
</mgrwt>
</event>
<event>
 5    1  0.3963873E+001  0.9462622E+02  0.7546771E-02  0.1292020E+00
         -1   -1    0    0    0  501 -0.00000000000E+00  0.00000000000E+00  0.43317450940E+02  0.43317450940E+02  0.00000000000E+00 0.  1.
          1   -1    0    0  501    0  0.00000000000E+00 -0.00000000000E+00 -0.51677337055E+02  0.51677337055E+02  0.00000000000E+00 0. -1.
         23    2    1    2    0    0  0.00000000000E+00  0.00000000000E+00 -0.83598861147E+01  0.94994787995E+02  0.94626222847E+02 0.  0.
          2    1    3    3  502    0  0.24637872193E+02 -0.25272700154E+02 -0.35811339721E+02  0.50281071706E+02  0.00000000000E+00 0. -1.
         -2    1    3    3    0  502 -0.24637872193E+02  0.25272700154E+02  0.27451453606E+02  0.44713716289E+02  0.00000000000E+00 0.  1.
<mgrwt>
<rscale>  0 0.94626223E+02</rscale>
<asrwt>0</asrwt>
<pdfrwt beam="2">  1        1 0.79503595E-02 0.94626223E+02</pdfrwt>
<pdfrwt beam="1">  1       -1 0.66642232E-02 0.94626223E+02</pdfrwt>
<totfact> 0.84918087E+04</totfact>
</mgrwt>
</event>
<event>
 5    1  0.3963873E+001  0.9236515E+02  0.7546771E-02  0.1297223E+00
          1   -1    0    0  501    0  0.00000000000E+00  0.00000000000E+00  0.18253158563E+03  0.18253158563E+03  0.00000000000E+00 0. -1.
         -1   -1    0    0    0  501 -0.00000000000E+00 -0.00000000000E+00 -0.11684717773E+02  0.11684717773E+02  0.00000000000E+00 0.  1.
         23    2    1    2    0    0  0.00000000000E+00  0.00000000000E+00  0.17084686786E+03  0.19421630340E+03  0.92365146298E+02 0.  0.
          2    1    3    3  502    0  0.52366253849E+01  0.20758543583E+02  0.17146710460E+03  0.17279845872E+03  0.00000000000E+00 0. -1.
         -2    1    3    3    0  502 -0.52366253849E+01 -0.20758543583E+02 -0.62023674205E+00  0.21417844680E+02  0.00000000000E+00 0.  1.
<mgrwt>
<rscale>  0 0.92365146E+02</rscale>
<asrwt>0</asrwt>
<pdfrwt beam="1">  1        1 0.28081780E-01 0.92365146E+02</pdfrwt>
<pdfrwt beam="2">  1       -1 0.17976490E-02 0.92365146E+02</pdfrwt>
<totfact> 0.11235359E+05</totfact>
</mgrwt>
</event>
<event>
 5    1  0.3963873E+001  0.9205853E+02  0.7546771E-02  0.1297942E+00
          1   -1    0    0  501    0  0.00000000000E+00  0.00000000000E+00  0.38810044831E+03  0.38810044831E+03  0.00000000000E+00 0. -1.
         -1   -1    0    0    0  501 -0.00000000000E+00 -0.00000000000E+00 -0.54591368537E+01  0.54591368537E+01  0.00000000000E+00 0.  1.
         23    2    1    2    0    0  0.00000000000E+00  0.00000000000E+00  0.38264131145E+03  0.39355958516E+03  0.92058534863E+02 0.  0.
          2    1    3    3  502    0  0.22527426647E+02 -0.14490378728E+02  0.35135098572E+03  0.35237050273E+03  0.00000000000E+00 0. -1.
         -2    1    3    3    0  502 -0.22527426647E+02  0.14490378728E+02  0.31290325731E+02  0.41189082429E+02  0.00000000000E+00 0.  1.
<mgrwt>
<rscale>  0 0.92058535E+02</rscale>
<asrwt>0</asrwt>
<pdfrwt beam="1">  1        1 0.59707740E-01 0.92058535E+02</pdfrwt>
<pdfrwt beam="2">  1       -1 0.83986751E-03 0.92058535E+02</pdfrwt>
<totfact> 0.13082647E+05</totfact>
</mgrwt>
</event>
<event>
 5    1  0.3963873E+001  0.9232273E+02  0.7546771E-02  0.1297322E+00
          2   -1    0    0  501    0  0.00000000000E+00  0.00000000000E+00  0.31876388891E+03  0.31876388891E+03  0.00000000000E+00 0. -1.
         -2   -1    0    0    0  501 -0.00000000000E+00 -0.00000000000E+00 -0.66847965831E+01  0.66847965831E+01  0.00000000000E+00 0.  1.
         23    2    1    2    0    0  0.00000000000E+00  0.00000000000E+00  0.31207909233E+03  0.32544868549E+03  0.92322732962E+02 0.  0.
          2    1    3    3  502    0  0.46006481813E+02  0.30237270443E+01  0.14805340997E+03  0.15506628098E+03  0.00000000000E+00 0.  1.
         -2    1    3    3    0  502 -0.46006481813E+02 -0.30237270443E+01  0.16402568236E+03  0.17038240451E+03  0.00000000000E+00 0. -1.
<mgrwt>
<rscale>  0 0.92322733E+02</rscale>
<asrwt>0</asrwt>
<pdfrwt beam="1">  1        2 0.49040586E-01 0.92322733E+02</pdfrwt>
<pdfrwt beam="2">  1       -2 0.10284305E-02 0.92322733E+02</pdfrwt>
<totfact> 0.17773265E+05</totfact>
</mgrwt>
</event>
<event>
 5    1  0.3963873E+001  0.8968019E+02  0.7546771E-02  0.1303628E+00
         -1   -1    0    0    0  501 -0.00000000000E+00  0.00000000000E+00  0.38748721938E+01  0.38748721938E+01  0.00000000000E+00 0.  1.
          1   -1    0    0  501    0  0.00000000000E+00 -0.00000000000E+00 -0.51889043724E+03  0.51889043724E+03  0.00000000000E+00 0. -1.
         23    2    1    2    0    0  0.00000000000E+00  0.00000000000E+00 -0.51501556505E+03  0.52276530944E+03  0.89680190163E+02 0.  0.
          2    1    3    3  502    0 -0.40282966219E+02 -0.19142699259E+02 -0.28452029251E+03  0.28799471723E+03  0.00000000000E+00 0. -1.
         -2    1    3    3    0  502  0.40282966219E+02  0.19142699259E+02 -0.23049527254E+03  0.23477059221E+03  0.00000000000E+00 0.  1.
<mgrwt>
<rscale>  0 0.89680190E+02</rscale>
<asrwt>0</asrwt>
<pdfrwt beam="2">  1        1 0.79829320E-01 0.89680190E+02</pdfrwt>
<pdfrwt beam="1">  1       -1 0.59613402E-03 0.89680190E+02</pdfrwt>
<totfact> 0.14611124E+05</totfact>
</mgrwt>
</event>
<event>
 5    1  0.3963873E+001  0.9146134E+02  0.7546771E-02  0.1299351E+00
          2   -1    0    0  501    0  0.00000000000E+00  0.00000000000E+00  0.35865800672E+04  0.35865800672E+04  0.00000000000E+00 0. -1.
         -2   -1    0    0    0  501 -0.00000000000E+00 -0.00000000000E+00 -0.58308868021E+00  0.58308868021E+00  0.00000000000E+00 0.  1.
         23    2    1    2    0    0  0.00000000000E+00  0.00000000000E+00  0.35859969786E+04  0.35871631559E+04  0.91461341295E+02 0.  0.
          2    1    3    3  502    0 -0.35329629549E+02  0.26018229146E+02  0.22985682314E+04  0.22989869607E+04  0.00000000000E+00 0. -1.
         -2    1    3    3    0  502  0.35329629549E+02 -0.26018229146E+02  0.12874287471E+04  0.12881761952E+04  0.00000000000E+00 0.  1.
<mgrwt>
<rscale>  0 0.91461341E+02</rscale>
<asrwt>0</asrwt>
<pdfrwt beam="1">  1        2 0.55176388E+00 0.91461341E+02</pdfrwt>
<pdfrwt beam="2">  1       -2 0.89708823E-04 0.91461341E+02</pdfrwt>
<totfact> 0.56851088E+04</totfact>
</mgrwt>
</event>
<event>
 5    1  0.3963873E+001  0.9086303E+02  0.7546771E-02  0.1300775E+00
         -2   -1    0    0    0  501 -0.00000000000E+00  0.00000000000E+00  0.11687277472E+01  0.11687277472E+01  0.00000000000E+00 0.  1.
          2   -1    0    0  501    0  0.00000000000E+00 -0.00000000000E+00 -0.17660421496E+04  0.17660421496E+04  0.00000000000E+00 0. -1.
         23    2    1    2    0    0  0.00000000000E+00  0.00000000000E+00 -0.17648734218E+04  0.17672108773E+04  0.90863027970E+02 0.  0.
          2    1    3    3  502    0  0.12811141698E+02  0.41123820888E+02 -0.11634274536E+04  0.11642245204E+04  0.00000000000E+00 0. -1.
         -2    1    3    3    0  502 -0.12811141698E+02 -0.41123820888E+02 -0.60144596817E+03  0.60298635691E+03  0.00000000000E+00 0.  1.
<mgrwt>
<rscale>  0 0.90863028E+02</rscale>
<asrwt>0</asrwt>
<pdfrwt beam="2">  1        2 0.27169882E+00 0.90863028E+02</pdfrwt>
<pdfrwt beam="1">  1       -2 0.17980425E-03 0.90863028E+02</pdfrwt>
<totfact> 0.21908698E+05</totfact>
</mgrwt>
</event>
<event>
 5    1  0.3963873E+001  0.9099211E+02  0.7546771E-02  0.1300467E+00
         -4   -1    0    0    0  501 -0.00000000000E+00  0.00000000000E+00  0.15403722336E+02  0.15403722336E+02  0.00000000000E+00 0. -1.
          4   -1    0    0  501    0  0.00000000000E+00 -0.00000000000E+00 -0.13437603279E+03  0.13437603279E+03  0.00000000000E+00 0.  1.
         23    2    1    2    0    0  0.00000000000E+00  0.00000000000E+00 -0.11897231045E+03  0.14977975512E+03  0.90992111694E+02 0.  0.
          2    1    3    3  502    0  0.35318502470E+02  0.27063516629E+02 -0.43864873446E+02  0.62481658680E+02  0.00000000000E+00 0. -1.
         -2    1    3    3    0  502 -0.35318502470E+02 -0.27063516629E+02 -0.75107437007E+02  0.87298096444E+02  0.00000000000E+00 0.  1.
<mgrwt>
<rscale>  0 0.90992112E+02</rscale>
<asrwt>0</asrwt>
<pdfrwt beam="2">  1        4 0.20673237E-01 0.90992112E+02</pdfrwt>
<pdfrwt beam="1">  1       -4 0.23698034E-02 0.90992112E+02</pdfrwt>
<totfact> 0.23813921E+04</totfact>
</mgrwt>
</event>
<event>
 5    1  0.3963873E+001  0.8835274E+02  0.7546771E-02  0.1306891E+00
          4   -1    0    0  501    0  0.00000000000E+00  0.00000000000E+00  0.55342311113E+02  0.55342311113E+02  0.00000000000E+00 0. -1.
         -4   -1    0    0    0  501 -0.00000000000E+00 -0.00000000000E+00 -0.35263285770E+02  0.35263285770E+02  0.00000000000E+00 0.  1.
         23    2    1    2    0    0  0.00000000000E+00  0.00000000000E+00  0.20079025344E+02  0.90605596883E+02  0.88352741484E+02 0.  0.
          2    1    3    3  502    0 -0.18988634867E+02 -0.23300407430E+02  0.43238976624E+02  0.52660101975E+02  0.00000000000E+00 0. -1.
         -2    1    3    3    0  502  0.18988634867E+02  0.23300407430E+02 -0.23159951281E+02  0.37945494908E+02  0.00000000000E+00 0.  1.
<mgrwt>
<rscale>  0 0.88352741E+02</rscale>
<asrwt>0</asrwt>
<pdfrwt beam="1">  1        4 0.85142017E-02 0.88352741E+02</pdfrwt>
<pdfrwt beam="2">  1       -4 0.54251209E-02 0.88352741E+02</pdfrwt>
<totfact> 0.29455674E+04</totfact>
</mgrwt>
</event>
<event>
 5    1  0.3963873E+001  0.9075468E+02  0.7546771E-02  0.1301034E+00
          1   -1    0    0  501    0  0.00000000000E+00  0.00000000000E+00  0.15457109910E+03  0.15457109910E+03  0.00000000000E+00 0. -1.
         -1   -1    0    0    0  501 -0.00000000000E+00 -0.00000000000E+00 -0.13321396999E+02  0.13321396999E+02  0.00000000000E+00 0.  1.
         23    2    1    2    0    0  0.00000000000E+00  0.00000000000E+00  0.14124970210E+03  0.16789249609E+03  0.90754679782E+02 0.  0.
          2    1    3    3  502    0  0.41532033690E+02 -0.26487899093E+01  0.10408698885E+03  0.11209829240E+03  0.00000000000E+00 0. -1.
         -2    1    3    3    0  502 -0.41532033690E+02  0.26487899093E+01  0.37162713247E+02  0.55794203697E+02  0.00000000000E+00 0.  1.
<mgrwt>
<rscale>  0 0.90754680E+02</rscale>
<asrwt>0</asrwt>
<pdfrwt beam="1">  1        1 0.23780168E-01 0.90754680E+02</pdfrwt>
<pdfrwt beam="2">  1       -1 0.20494458E-02 0.90754680E+02</pdfrwt>
<totfact> 0.11417410E+05</totfact>
</mgrwt>
</event>
<event>
 5    1  0.3963873E+001  0.9035178E+02  0.7546771E-02  0.1302002E+00
          1   -1    0    0  501    0  0.00000000000E+00  0.00000000000E+00  0.80578505616E+02  0.80578505616E+02  0.00000000000E+00 0. -1.
         -1   -1    0    0    0  501 -0.00000000000E+00 -0.00000000000E+00 -0.25327612280E+02  0.25327612280E+02  0.00000000000E+00 0.  1.
         23    2    1    2    0    0  0.00000000000E+00  0.00000000000E+00  0.55250893336E+02  0.10590611790E+03  0.90351782457E+02 0.  0.
          2    1    3    3  502    0 -0.13601453937E+02 -0.43011448249E+02  0.24783871415E+02  0.51470617949E+02  0.00000000000E+00 0. -1.
         -2    1    3    3    0  502  0.13601453937E+02  0.43011448249E+02  0.30467021921E+02  0.54435499946E+02  0.00000000000E+00 0.  1.
<mgrwt>
<rscale>  0 0.90351782E+02</rscale>
<asrwt>0</asrwt>
<pdfrwt beam="1">  1        1 0.12396693E-01 0.90351782E+02</pdfrwt>
<pdfrwt beam="2">  1       -1 0.38965558E-02 0.90351782E+02</pdfrwt>
<totfact> 0.10340314E+05</totfact>
</mgrwt>
</event>
<event>
 5    1  0.3963873E+001  0.9069778E+02  0.7546771E-02  0.1301171E+00
          1   -1    0    0  501    0  0.00000000000E+00  0.00000000000E+00  0.55772250851E+03  0.55772250851E+03  0.00000000000E+00 0. -1.
         -1   -1    0    0    0  501 -0.00000000000E+00 -0.00000000000E+00 -0.36873563952E+01  0.36873563952E+01  0.00000000000E+00 0.  1.
         23    2    1    2    0    0  0.00000000000E+00  0.00000000000E+00  0.55403515212E+03  0.56140986491E+03  0.90697776346E+02 0.  0.
          2    1    3    3  502    0 -0.26138365551E+02 -0.55349346199E+01  0.50383079745E+03  0.50453872212E+03  0.00000000000E+00 0. -1.
         -2    1    3    3    0  502  0.26138365551E+02  0.55349346199E+01  0.50204354668E+02  0.56871142793E+02  0.00000000000E+00 0.  1.
<mgrwt>
<rscale>  0 0.90697776E+02</rscale>
<asrwt>0</asrwt>
<pdfrwt beam="1">  1        1 0.85803396E-01 0.90697776E+02</pdfrwt>
<pdfrwt beam="2">  1       -1 0.56728604E-03 0.90697776E+02</pdfrwt>
<totfact> 0.14281085E+05</totfact>
</mgrwt>
</event>
<event>
 5    1  0.3963873E+001  0.9100541E+02  0.7546771E-02  0.1300435E+00
         -2   -1    0    0    0  501 -0.00000000000E+00  0.00000000000E+00  0.10893789835E+01  0.10893789835E+01  0.00000000000E+00 0. -1.
          2   -1    0    0  501    0  0.00000000000E+00 -0.00000000000E+00 -0.19006205362E+04  0.19006205362E+04  0.00000000000E+00 0.  1.
         23    2    1    2    0    0  0.00000000000E+00  0.00000000000E+00 -0.18995311572E+04  0.19017099152E+04  0.91005407922E+02 0.  0.
          2    1    3    3  502    0 -0.37337139144E+02  0.23335570154E+02 -0.70978548247E+03  0.71114980273E+03  0.00000000000E+00 0. -1.
         -2    1    3    3    0  502  0.37337139144E+02 -0.23335570154E+02 -0.11897456748E+04  0.11905601125E+04  0.00000000000E+00 0.  1.
<mgrwt>
<rscale>  0 0.91005408E+02</rscale>
<asrwt>0</asrwt>
<pdfrwt beam="2">  1        2 0.29240261E+00 0.91005408E+02</pdfrwt>
<pdfrwt beam="1">  1       -2 0.16759708E-03 0.91005408E+02</pdfrwt>
<totfact> 0.20676668E+05</totfact>
</mgrwt>
</event>
<event>
 5    1  0.3963873E+001  0.8650126E+02  0.7546771E-02  0.1311553E+00
         -4   -1    0    0    0  501 -0.00000000000E+00  0.00000000000E+00  0.28205789019E+01  0.28205789019E+01  0.00000000000E+00 0. -1.
          4   -1    0    0  501    0  0.00000000000E+00 -0.00000000000E+00 -0.66320328774E+03  0.66320328774E+03  0.00000000000E+00 0.  1.
         23    2    1    2    0    0  0.00000000000E+00  0.00000000000E+00 -0.66038270883E+03  0.66602386664E+03  0.86501264755E+02 0.  0.
          2    1    3    3  502    0 -0.11698277163E+02 -0.38431414925E+02 -0.20680712534E+03  0.21067275674E+03  0.00000000000E+00 0. -1.
         -2    1    3    3    0  502  0.11698277163E+02  0.38431414925E+02 -0.45357558350E+03  0.45535110990E+03  0.00000000000E+00 0.  1.
<mgrwt>
<rscale>  0 0.86501265E+02</rscale>
<asrwt>0</asrwt>
<pdfrwt beam="2">  1        4 0.10203122E+00 0.86501265E+02</pdfrwt>
<pdfrwt beam="1">  1       -4 0.43393546E-03 0.86501265E+02</pdfrwt>
<totfact> 0.12025610E+04</totfact>
</mgrwt>
</event>
<event>
 5    1  0.3963873E+001  0.9025762E+02  0.7546771E-02  0.1302229E+00
          1   -1    0    0  501    0  0.00000000000E+00  0.00000000000E+00  0.24120589112E+02  0.24120589112E+02  0.00000000000E+00 0. -1.
         -1   -1    0    0    0  501 -0.00000000000E+00 -0.00000000000E+00 -0.84434491831E+02  0.84434491831E+02  0.00000000000E+00 0.  1.
         23    2    1    2    0    0  0.00000000000E+00  0.00000000000E+00 -0.60313902719E+02  0.10855508094E+03  0.90257624261E+02 0.  0.
          2    1    3    3  502    0 -0.18893378928E+02  0.36778711322E+02 -0.84086970815E+01  0.42194070205E+02  0.00000000000E+00 0. -1.
         -2    1    3    3    0  502  0.18893378928E+02 -0.36778711322E+02 -0.51905205638E+02  0.66361010738E+02  0.00000000000E+00 0.  1.
<mgrwt>
<rscale>  0 0.90257624E+02</rscale>
<asrwt>0</asrwt>
<pdfrwt beam="1">  1        1 0.37108599E-02 0.90257624E+02</pdfrwt>
<pdfrwt beam="2">  1       -1 0.12989922E-01 0.90257624E+02</pdfrwt>
<totfact> 0.86079639E+04</totfact>
</mgrwt>
</event>
<event>
 5    1  0.3963873E+001  0.9062870E+02  0.7546771E-02  0.1301336E+00
          1   -1    0    0  501    0  0.00000000000E+00  0.00000000000E+00  0.74243501016E+02  0.74243501016E+02  0.00000000000E+00 0. -1.
         -1   -1    0    0    0  501 -0.00000000000E+00 -0.00000000000E+00 -0.27657508806E+02  0.27657508806E+02  0.00000000000E+00 0.  1.
         23    2    1    2    0    0  0.00000000000E+00  0.00000000000E+00  0.46585992211E+02  0.10190100982E+03  0.90628699277E+02 0.  0.
          2    1    3    3  502    0 -0.23196875376E+02  0.42515895279E+01 -0.20213633547E+02  0.31060618505E+02  0.00000000000E+00 0.  1.
         -2    1    3    3    0  502  0.23196875376E+02 -0.42515895279E+01  0.66799625757E+02  0.70840391318E+02  0.00000000000E+00 0. -1.
<mgrwt>
<rscale>  0 0.90628699E+02</rscale>
<asrwt>0</asrwt>
<pdfrwt beam="1">  1        1 0.11422077E-01 0.90628699E+02</pdfrwt>
<pdfrwt beam="2">  1       -1 0.42550014E-02 0.90628699E+02</pdfrwt>
<totfact> 0.10123640E+05</totfact>
</mgrwt>
</event>
<event>
 5    1  0.3963873E+001  0.8778064E+02  0.7546771E-02  0.1308317E+00
          2   -1    0    0  501    0  0.00000000000E+00  0.00000000000E+00  0.14015596056E+04  0.14015596056E+04  0.00000000000E+00 0. -1.
         -2   -1    0    0    0  501 -0.00000000000E+00 -0.00000000000E+00 -0.13744403365E+01  0.13744403365E+01  0.00000000000E+00 0.  1.
         23    2    1    2    0    0  0.00000000000E+00  0.00000000000E+00  0.14001851653E+04  0.14029340460E+04  0.87780636953E+02 0.  0.
          2    1    3    3  502    0 -0.27014820517E+02  0.25484116321E+02  0.10739272403E+04  0.10745691966E+04  0.00000000000E+00 0. -1.
         -2    1    3    3    0  502  0.27014820517E+02 -0.25484116321E+02  0.32625792497E+03  0.32836484939E+03  0.00000000000E+00 0.  1.
<mgrwt>
<rscale>  0 0.87780637E+02</rscale>
<asrwt>0</asrwt>
<pdfrwt beam="1">  1        2 0.21562341E+00 0.87780637E+02</pdfrwt>
<pdfrwt beam="2">  1       -2 0.21145348E-03 0.87780637E+02</pdfrwt>
<totfact> 0.26665745E+05</totfact>
</mgrwt>
</event>
<event>
 5    1  0.3963873E+001  0.9043884E+02  0.7546771E-02  0.1301792E+00
          1   -1    0    0  501    0  0.00000000000E+00  0.00000000000E+00  0.22923148840E+03  0.22923148840E+03  0.00000000000E+00 0. -1.
         -1   -1    0    0    0  501 -0.00000000000E+00 -0.00000000000E+00 -0.89202219301E+01  0.89202219301E+01  0.00000000000E+00 0.  1.
         23    2    1    2    0    0  0.00000000000E+00  0.00000000000E+00  0.22031126647E+03  0.23815171033E+03  0.90438835681E+02 0.  0.
          2    1    3    3  502    0 -0.10868233333E+02  0.38842361142E+02  0.16399004723E+03  0.16887742036E+03  0.00000000000E+00 0. -1.
         -2    1    3    3    0  502  0.10868233333E+02 -0.38842361142E+02  0.56321219233E+02  0.69274289969E+02  0.00000000000E+00 0.  1.
<mgrwt>
<rscale>  0 0.90438836E+02</rscale>
<asrwt>0</asrwt>
<pdfrwt beam="1">  1        1 0.35266378E-01 0.90438836E+02</pdfrwt>
<pdfrwt beam="2">  1       -1 0.13723420E-02 0.90438836E+02</pdfrwt>
<totfact> 0.12426578E+05</totfact>
</mgrwt>
</event>
<event>
 5    1  0.3963873E+001  0.1038416E+03  0.7546771E-02  0.1272419E+00
         -1   -1    0    0    0  501 -0.00000000000E+00  0.00000000000E+00  0.31618498065E+01  0.31618498065E+01  0.00000000000E+00 0.  1.
          1   -1    0    0  501    0  0.00000000000E+00 -0.00000000000E+00 -0.85259229208E+03  0.85259229208E+03  0.00000000000E+00 0. -1.
         23    2    1    2    0    0  0.00000000000E+00  0.00000000000E+00 -0.84943044227E+03  0.85575414188E+03  0.10384158654E+03 0.  0.
          2    1    3    3  502    0  0.26579109707E+02  0.82969910667E+01 -0.78586100460E+03  0.78635412359E+03  0.00000000000E+00 0. -1.
         -2    1    3    3    0  502 -0.26579109707E+02 -0.82969910667E+01 -0.63569437668E+02  0.69400018293E+02  0.00000000000E+00 0.  1.
<mgrwt>
<rscale>  0 0.10384159E+03</rscale>
<asrwt>0</asrwt>
<pdfrwt beam="2">  1        1 0.13116816E+00 0.10384159E+03</pdfrwt>
<pdfrwt beam="1">  1       -1 0.48643801E-03 0.10384159E+03</pdfrwt>
<totfact> 0.99282558E+04</totfact>
</mgrwt>
</event>
<event>
 5    1  0.3963873E+001  0.9058023E+02  0.7546771E-02  0.1301453E+00
          1   -1    0    0  501    0  0.00000000000E+00  0.00000000000E+00  0.17796700936E+03  0.17796700936E+03  0.00000000000E+00 0. -1.
         -1   -1    0    0    0  501 -0.00000000000E+00 -0.00000000000E+00 -0.11525700531E+02  0.11525700531E+02  0.00000000000E+00 0.  1.
         23    2    1    2    0    0  0.00000000000E+00  0.00000000000E+00  0.16644130883E+03  0.18949270989E+03  0.90580228620E+02 0.  0.
          2    1    3    3  502    0 -0.40904797578E+01  0.45102609734E+02  0.82246082894E+02  0.93890338059E+02  0.00000000000E+00 0. -1.
         -2    1    3    3    0  502  0.40904797578E+01 -0.45102609734E+02  0.84195225933E+02  0.95602371829E+02  0.00000000000E+00 0.  1.
<mgrwt>
<rscale>  0 0.90580229E+02</rscale>
<asrwt>0</asrwt>
<pdfrwt beam="1">  1        1 0.27379538E-01 0.90580229E+02</pdfrwt>
<pdfrwt beam="2">  1       -1 0.17731848E-02 0.90580229E+02</pdfrwt>
<totfact> 0.11783389E+05</totfact>
</mgrwt>
</event>
<event>
 5    1  0.3963873E+001  0.8814557E+02  0.7546771E-02  0.1307406E+00
          1   -1    0    0  501    0  0.00000000000E+00  0.00000000000E+00  0.24828175904E+03  0.24828175904E+03  0.00000000000E+00 0. -1.
         -1   -1    0    0    0  501 -0.00000000000E+00 -0.00000000000E+00 -0.78234109740E+01  0.78234109740E+01  0.00000000000E+00 0.  1.
         23    2    1    2    0    0  0.00000000000E+00  0.00000000000E+00  0.24045834806E+03  0.25610517001E+03  0.88145566838E+02 0.  0.
          2    1    3    3  502    0  0.11460961814E+02 -0.28841329342E+02  0.21114954155E+03  0.21341814548E+03  0.00000000000E+00 0. -1.
         -2    1    3    3    0  502 -0.11460961814E+02  0.28841329342E+02  0.29308806511E+02  0.42687024528E+02  0.00000000000E+00 0.  1.
<mgrwt>
<rscale>  0 0.88145567E+02</rscale>
<asrwt>0</asrwt>
<pdfrwt beam="1">  1        1 0.38197188E-01 0.88145567E+02</pdfrwt>
<pdfrwt beam="2">  1       -1 0.12036019E-02 0.88145567E+02</pdfrwt>
<totfact> 0.13515126E+05</totfact>
</mgrwt>
</event>
<event>
 5    1  0.3963873E+001  0.9129599E+02  0.7546771E-02  0.1299743E+00
          2   -1    0    0  501    0  0.00000000000E+00  0.00000000000E+00  0.99276950503E+01  0.99276950503E+01  0.00000000000E+00 0. -1.
         -2   -1    0    0    0  501 -0.00000000000E+00 -0.00000000000E+00 -0.20989154328E+03  0.20989154328E+03  0.00000000000E+00 0.  1.
         23    2    1    2    0    0  0.00000000000E+00  0.00000000000E+00 -0.19996384823E+03  0.21981923833E+03  0.91295985350E+02 0.  0.
          2    1    3    3  502    0  0.39340810368E+02 -0.10703988632E+02 -0.50551479198E+02  0.64944028071E+02  0.00000000000E+00 0. -1.
         -2    1    3    3    0  502 -0.39340810368E+02  0.10703988632E+02 -0.14941236903E+03  0.15487521025E+03  0.00000000000E+00 0.  1.
<mgrwt>
<rscale>  0 0.91295985E+02</rscale>
<asrwt>0</asrwt>
<pdfrwt beam="1">  1        2 0.15273377E-02 0.91295985E+02</pdfrwt>
<pdfrwt beam="2">  1       -2 0.32291006E-01 0.91295985E+02</pdfrwt>
<totfact> 0.60807211E+04</totfact>
</mgrwt>
</event>
<event>
 5    1  0.3963873E+001  0.9214276E+02  0.7546771E-02  0.1297744E+00
          1   -1    0    0  501    0  0.00000000000E+00  0.00000000000E+00  0.16318176829E+04  0.16318176829E+04  0.00000000000E+00 0. -1.
         -1   -1    0    0    0  501 -0.00000000000E+00 -0.00000000000E+00 -0.13007410608E+01  0.13007410608E+01  0.00000000000E+00 0.  1.
         23    2    1    2    0    0  0.00000000000E+00  0.00000000000E+00  0.16305169419E+04  0.16331184240E+04  0.92142764533E+02 0.  0.
          2    1    3    3  502    0  0.27538601765E+02  0.18858608111E+02  0.13781248150E+04  0.13785289360E+04  0.00000000000E+00 0. -1.
         -2    1    3    3    0  502 -0.27538601765E+02 -0.18858608111E+02  0.25239212692E+03  0.25458948804E+03  0.00000000000E+00 0.  1.
<mgrwt>
<rscale>  0 0.92142765E+02</rscale>
<asrwt>0</asrwt>
<pdfrwt beam="1">  1        1 0.25104724E+00 0.92142765E+02</pdfrwt>
<pdfrwt beam="2">  1       -1 0.20011532E-03 0.92142765E+02</pdfrwt>
<totfact> 0.99614786E+04</totfact>
</mgrwt>
</event>
<event>
 5    1  0.3963873E+001  0.9016400E+02  0.7546771E-02  0.1302455E+00
         -1   -1    0    0    0  501 -0.00000000000E+00  0.00000000000E+00  0.53722061359E+01  0.53722061359E+01  0.00000000000E+00 0.  1.
          1   -1    0    0  501    0  0.00000000000E+00 -0.00000000000E+00 -0.37831512962E+03  0.37831512962E+03  0.00000000000E+00 0. -1.
         23    2    1    2    0    0  0.00000000000E+00  0.00000000000E+00 -0.37294292349E+03  0.38368733576E+03  0.90164003032E+02 0.  0.
          2    1    3    3  502    0 -0.10945747673E+02 -0.20059195742E+02 -0.35184362022E+03  0.35258490299E+03  0.00000000000E+00 0. -1.
         -2    1    3    3    0  502  0.10945747673E+02  0.20059195742E+02 -0.21099303271E+02  0.31102432774E+02  0.00000000000E+00 0.  1.
<mgrwt>
<rscale>  0 0.90164003E+02</rscale>
<asrwt>0</asrwt>
<pdfrwt beam="2">  1        1 0.58202350E-01 0.90164003E+02</pdfrwt>
<pdfrwt beam="1">  1       -1 0.82649293E-03 0.90164003E+02</pdfrwt>
<totfact> 0.13765815E+05</totfact>
</mgrwt>
</event>
<event>
 5    1  0.3963873E+001  0.9167564E+02  0.7546771E-02  0.1298844E+00
         -2   -1    0    0    0  501 -0.00000000000E+00  0.00000000000E+00  0.11029631228E+01  0.11029631228E+01  0.00000000000E+00 0.  1.
          2   -1    0    0  501    0  0.00000000000E+00 -0.00000000000E+00 -0.19049646283E+04  0.19049646283E+04  0.00000000000E+00 0. -1.
         23    2    1    2    0    0  0.00000000000E+00  0.00000000000E+00 -0.19038616652E+04  0.19060675914E+04  0.91675639847E+02 0.  0.
          2    1    3    3  502    0 -0.39225554115E+02  0.14072607500E+02 -0.55502502822E+03  0.55658733756E+03  0.00000000000E+00 0. -1.
         -2    1    3    3    0  502  0.39225554115E+02 -0.14072607500E+02 -0.13488366369E+04  0.13494802539E+04  0.00000000000E+00 0.  1.
<mgrwt>
<rscale>  0 0.91675640E+02</rscale>
<asrwt>0</asrwt>
<pdfrwt beam="2">  1        2 0.29306856E+00 0.91675640E+02</pdfrwt>
<pdfrwt beam="1">  1       -2 0.16968833E-03 0.91675640E+02</pdfrwt>
<totfact> 0.20242450E+05</totfact>
</mgrwt>
</event>
<event>
 5    1  0.3963873E+001  0.8926681E+02  0.7546771E-02  0.1304637E+00
          1   -1    0    0  501    0  0.00000000000E+00  0.00000000000E+00  0.11135359419E+02  0.11135359419E+02  0.00000000000E+00 0. -1.
         -1   -1    0    0    0  501 -0.00000000000E+00 -0.00000000000E+00 -0.17890224269E+03  0.17890224269E+03  0.00000000000E+00 0.  1.
         23    2    1    2    0    0  0.00000000000E+00  0.00000000000E+00 -0.16776688327E+03  0.19003760210E+03  0.89266808461E+02 0.  0.
          2    1    3    3  502    0 -0.41971609163E+02 -0.88063736196E+01 -0.11021377340E+03  0.11826345184E+03  0.00000000000E+00 0. -1.
         -2    1    3    3    0  502  0.41971609163E+02  0.88063736196E+01 -0.57553109862E+02  0.71774150269E+02  0.00000000000E+00 0.  1.
<mgrwt>
<rscale>  0 0.89266808E+02</rscale>
<asrwt>0</asrwt>
<pdfrwt beam="1">  1        1 0.17131322E-02 0.89266808E+02</pdfrwt>
<pdfrwt beam="2">  1       -1 0.27523423E-01 0.89266808E+02</pdfrwt>
<totfact> 0.75633489E+04</totfact>
</mgrwt>
</event>
<event>
 5    1  0.3963873E+001  0.9326690E+02  0.7546771E-02  0.1295128E+00
          1   -1    0    0  501    0  0.00000000000E+00  0.00000000000E+00  0.20090667799E+02  0.20090667799E+02  0.00000000000E+00 0. -1.
         -1   -1    0    0    0  501 -0.00000000000E+00 -0.00000000000E+00 -0.10824322902E+03  0.10824322902E+03  0.00000000000E+00 0.  1.
         23    2    1    2    0    0  0.00000000000E+00  0.00000000000E+00 -0.88152561224E+02  0.12833389682E+03  0.93266902077E+02 0.  0.
          2    1    3    3  502    0 -0.17140333978E+02  0.42253630873E+02 -0.57524268687E+02  0.73404372205E+02  0.00000000000E+00 0.  1.
         -2    1    3    3    0  502  0.17140333978E+02 -0.42253630873E+02 -0.30628292537E+02  0.54929524616E+02  0.00000000000E+00 0. -1.
<mgrwt>
<rscale>  0 0.93266902E+02</rscale>
<asrwt>0</asrwt>
<pdfrwt beam="1">  1        1 0.30908720E-02 0.93266902E+02</pdfrwt>
<pdfrwt beam="2">  1       -1 0.16652804E-01 0.93266902E+02</pdfrwt>
<totfact> 0.75599151E+04</totfact>
</mgrwt>
</event>
<event>
 5    1  0.3963873E+001  0.8812530E+02  0.7546771E-02  0.1307456E+00
          2   -1    0    0  501    0  0.00000000000E+00  0.00000000000E+00  0.88381711497E+02  0.88381711497E+02  0.00000000000E+00 0. -1.
         -2   -1    0    0    0  501 -0.00000000000E+00 -0.00000000000E+00 -0.21967405873E+02  0.21967405873E+02  0.00000000000E+00 0.  1.
         23    2    1    2    0    0  0.00000000000E+00  0.00000000000E+00  0.66414305623E+02  0.11034911737E+03  0.88125295534E+02 0.  0.
          2    1    3    3  502    0 -0.22758798766E+02 -0.35929895238E+02  0.18788173159E+02  0.46496405708E+02  0.00000000000E+00 0. -1.
         -2    1    3    3    0  502  0.22758798766E+02  0.35929895238E+02  0.47626132464E+02  0.63852711662E+02  0.00000000000E+00 0.  1.
<mgrwt>
<rscale>  0 0.88125296E+02</rscale>
<asrwt>0</asrwt>
<pdfrwt beam="1">  1        2 0.13597186E-01 0.88125296E+02</pdfrwt>
<pdfrwt beam="2">  1       -2 0.33796010E-02 0.88125296E+02</pdfrwt>
<totfact> 0.12985942E+05</totfact>
</mgrwt>
</event>
<event>
 5    1  0.3963873E+001  0.9524219E+02  0.7546771E-02  0.1290632E+00
          2   -1    0    0  501    0  0.00000000000E+00  0.00000000000E+00  0.19187954367E+03  0.19187954367E+03  0.00000000000E+00 0. -1.
         -2   -1    0    0    0  501 -0.00000000000E+00 -0.00000000000E+00 -0.11818709123E+02  0.11818709123E+02  0.00000000000E+00 0.  1.
         23    2    1    2    0    0  0.00000000000E+00  0.00000000000E+00  0.18006083455E+03  0.20369825279E+03  0.95242186310E+02 0.  0.
          2    1    3    3  502    0  0.31347882201E+02  0.17343466027E+02  0.15712970895E+03  0.16116212634E+03  0.00000000000E+00 0. -1.
         -2    1    3    3    0  502 -0.31347882201E+02 -0.17343466027E+02  0.22931125599E+02  0.42536126452E+02  0.00000000000E+00 0.  1.
<mgrwt>
<rscale>  0 0.95242186E+02</rscale>
<asrwt>0</asrwt>
<pdfrwt beam="1">  1        2 0.29519927E-01 0.95242186E+02</pdfrwt>
<pdfrwt beam="2">  1       -2 0.18182631E-02 0.95242186E+02</pdfrwt>
<totfact> 0.13542965E+05</totfact>
</mgrwt>
</event>
<event>
 5    1  0.3963873E+001  0.9172290E+02  0.7546771E-02  0.1298732E+00
         -2   -1    0    0    0  501 -0.00000000000E+00  0.00000000000E+00  0.12108724801E+01  0.12108724801E+01  0.00000000000E+00 0.  1.
          2   -1    0    0  501    0  0.00000000000E+00 -0.00000000000E+00 -0.17369894579E+04  0.17369894579E+04  0.00000000000E+00 0. -1.
         23    2    1    2    0    0  0.00000000000E+00  0.00000000000E+00 -0.17357785854E+04  0.17382003304E+04  0.91722902979E+02 0.  0.
          2    1    3    3  502    0 -0.25104364484E+02  0.11493648474E+02 -0.15618368554E+04  0.15620808865E+04  0.00000000000E+00 0. -1.
         -2    1    3    3    0  502  0.25104364484E+02 -0.11493648474E+02 -0.17394172997E+03  0.17611944384E+03  0.00000000000E+00 0.  1.
<mgrwt>
<rscale>  0 0.91722903E+02</rscale>
<asrwt>0</asrwt>
<pdfrwt beam="2">  1        2 0.26722840E+00 0.91722903E+02</pdfrwt>
<pdfrwt beam="1">  1       -2 0.18628859E-03 0.91722903E+02</pdfrwt>
<totfact> 0.21599096E+05</totfact>
</mgrwt>
</event>
<event>
 5    1  0.3963873E+001  0.8469000E+02  0.7546771E-02  0.1316245E+00
          3   -1    0    0  501    0  0.00000000000E+00  0.00000000000E+00  0.42987654810E+02  0.42987654810E+02  0.00000000000E+00 0. -1.
         -3   -1    0    0    0  501 -0.00000000000E+00 -0.00000000000E+00 -0.41711955432E+02  0.41711955432E+02  0.00000000000E+00 0.  1.
         23    2    1    2    0    0  0.00000000000E+00  0.00000000000E+00  0.12756993789E+01  0.84699610242E+02  0.84690002753E+02 0.  0.
          2    1    3    3  502    0 -0.27528005515E+01 -0.21257611433E+02  0.37160962744E+02  0.42899896349E+02  0.00000000000E+00 0. -1.
         -2    1    3    3    0  502  0.27528005515E+01  0.21257611433E+02 -0.35885263365E+02  0.41799713893E+02  0.00000000000E+00 0.  1.
<mgrwt>
<rscale>  0 0.84690003E+02</rscale>
<asrwt>0</asrwt>
<pdfrwt beam="1">  1        3 0.66134853E-02 0.84690003E+02</pdfrwt>
<pdfrwt beam="2">  1       -3 0.64172239E-02 0.84690003E+02</pdfrwt>
<totfact> 0.43785171E+04</totfact>
</mgrwt>
</event>
<event>
 5    1  0.3963873E+001  0.8804610E+02  0.7546771E-02  0.1307654E+00
          3   -1    0    0  501    0  0.00000000000E+00  0.00000000000E+00  0.13208524836E+04  0.13208524836E+04  0.00000000000E+00 0. -1.
         -3   -1    0    0    0  501 -0.00000000000E+00 -0.00000000000E+00 -0.14672562071E+01  0.14672562071E+01  0.00000000000E+00 0.  1.
         23    2    1    2    0    0  0.00000000000E+00  0.00000000000E+00  0.13193852273E+04  0.13223197398E+04  0.88046101677E+02 0.  0.
          2    1    3    3  502    0 -0.13359013235E+02 -0.41427828570E+02  0.75851930638E+03  0.75976724486E+03  0.00000000000E+00 0. -1.
         -2    1    3    3    0  502  0.13359013235E+02  0.41427828570E+02  0.56086592097E+03  0.56255249490E+03  0.00000000000E+00 0.  1.
<mgrwt>
<rscale>  0 0.88046102E+02</rscale>
<asrwt>0</asrwt>
<pdfrwt beam="1">  1        3 0.20320712E+00 0.88046102E+02</pdfrwt>
<pdfrwt beam="2">  1       -3 0.22573278E-03 0.88046102E+02</pdfrwt>
<totfact> 0.79749119E+03</totfact>
</mgrwt>
</event>
<event>
 5    1  0.3963873E+001  0.9640673E+02  0.7546771E-02  0.1288039E+00
         -1   -1    0    0    0  501 -0.00000000000E+00  0.00000000000E+00  0.32548698784E+01  0.32548698784E+01  0.00000000000E+00 0.  1.
          1   -1    0    0  501    0  0.00000000000E+00 -0.00000000000E+00 -0.71387315885E+03  0.71387315885E+03  0.00000000000E+00 0. -1.
         23    2    1    2    0    0  0.00000000000E+00  0.00000000000E+00 -0.71061828897E+03  0.71712802873E+03  0.96406726772E+02 0.  0.
          2    1    3    3  502    0 -0.22600632125E+02 -0.36378399028E+01 -0.67086070159E+03  0.67125114778E+03  0.00000000000E+00 0. -1.
         -2    1    3    3    0  502  0.22600632125E+02  0.36378399028E+01 -0.39757587382E+02  0.45876880953E+02  0.00000000000E+00 0.  1.
<mgrwt>
<rscale>  0 0.96406727E+02</rscale>
<asrwt>0</asrwt>
<pdfrwt beam="2">  1        1 0.10982665E+00 0.96406727E+02</pdfrwt>
<pdfrwt beam="1">  1       -1 0.50074919E-03 0.96406727E+02</pdfrwt>
<totfact> 0.12259148E+05</totfact>
</mgrwt>
</event>
<event>
 5    1  0.3963873E+001  0.9016751E+02  0.7546771E-02  0.1302447E+00
         -1   -1    0    0    0  501 -0.00000000000E+00  0.00000000000E+00  0.34754540561E+03  0.34754540561E+03  0.00000000000E+00 0.  1.
          1   -1    0    0  501    0  0.00000000000E+00 -0.00000000000E+00 -0.58482861028E+01  0.58482861028E+01  0.00000000000E+00 0. -1.
         23    2    1    2    0    0  0.00000000000E+00  0.00000000000E+00  0.34169711951E+03  0.35339369171E+03  0.90167510018E+02 0.  0.
          2    1    3    3  502    0  0.13543831637E+02  0.40575463176E+02  0.11504268584E+03  0.12273802652E+03  0.00000000000E+00 0. -1.
         -2    1    3    3    0  502 -0.13543831637E+02 -0.40575463176E+02  0.22665443366E+03  0.23065566519E+03  0.00000000000E+00 0.  1.
<mgrwt>
<rscale>  0 0.90167510E+02</rscale>
<asrwt>0</asrwt>
<pdfrwt beam="2">  1        1 0.89973659E-03 0.90167510E+02</pdfrwt>
<pdfrwt beam="1">  1       -1 0.53468508E-01 0.90167510E+02</pdfrwt>
<totfact> 0.58648839E+04</totfact>
</mgrwt>
</event>
<event>
 5    1  0.3963873E+001  0.8893018E+02  0.7546771E-02  0.1305463E+00
          1   -1    0    0  501    0  0.00000000000E+00  0.00000000000E+00  0.11281702219E+04  0.11281702219E+04  0.00000000000E+00 0. -1.
         -1   -1    0    0    0  501 -0.00000000000E+00 -0.00000000000E+00 -0.17525229540E+01  0.17525229540E+01  0.00000000000E+00 0.  1.
         23    2    1    2    0    0  0.00000000000E+00  0.00000000000E+00  0.11264176990E+04  0.11299227449E+04  0.88930179579E+02 0.  0.
          2    1    3    3  502    0 -0.10111720181E+02  0.38384722609E+02  0.81780274047E+03  0.81876550742E+03  0.00000000000E+00 0. -1.
         -2    1    3    3    0  502  0.10111720181E+02 -0.38384722609E+02  0.30861495850E+03  0.31115723746E+03  0.00000000000E+00 0.  1.
<mgrwt>
<rscale>  0 0.88930180E+02</rscale>
<asrwt>0</asrwt>
<pdfrwt beam="1">  1        1 0.17356407E+00 0.88930180E+02</pdfrwt>
<pdfrwt beam="2">  1       -1 0.26961982E-03 0.88930180E+02</pdfrwt>
<totfact> 0.13964608E+05</totfact>
</mgrwt>
</event>
<event>
 5    1  0.3963873E+001  0.9327241E+02  0.7546771E-02  0.1295115E+00
         -2   -1    0    0    0  501 -0.00000000000E+00  0.00000000000E+00  0.23358344163E+01  0.23358344163E+01  0.00000000000E+00 0.  1.
          2   -1    0    0  501    0  0.00000000000E+00 -0.00000000000E+00 -0.93111721882E+03  0.93111721882E+03  0.00000000000E+00 0. -1.
         23    2    1    2    0    0  0.00000000000E+00  0.00000000000E+00 -0.92878138441E+03  0.93345305324E+03  0.93272410611E+02 0.  0.
          2    1    3    3  502    0  0.17748174047E+02 -0.35545213076E+02 -0.70881010150E+03  0.70992268582E+03  0.00000000000E+00 0. -1.
         -2    1    3    3    0  502 -0.17748174047E+02  0.35545213076E+02 -0.21997128291E+03  0.22353036742E+03  0.00000000000E+00 0.  1.
<mgrwt>
<rscale>  0 0.93272411E+02</rscale>
<asrwt>0</asrwt>
<pdfrwt beam="2">  1        2 0.14324873E+00 0.93272411E+02</pdfrwt>
<pdfrwt beam="1">  1       -2 0.35935932E-03 0.93272411E+02</pdfrwt>
<totfact> 0.23433417E+05</totfact>
</mgrwt>
</event>
<event>
 5    1  0.3963873E+001  0.9246990E+02  0.7546771E-02  0.1296978E+00
          3   -1    0    0  501    0  0.00000000000E+00  0.00000000000E+00  0.60829809221E+02  0.60829809221E+02  0.00000000000E+00 0. -1.
         -3   -1    0    0    0  501 -0.00000000000E+00 -0.00000000000E+00 -0.35141828561E+02  0.35141828561E+02  0.00000000000E+00 0.  1.
         23    2    1    2    0    0  0.00000000000E+00  0.00000000000E+00  0.25687980660E+02  0.95971637782E+02  0.92469902715E+02 0.  0.
          2    1    3    3  502    0  0.86275647143E+01 -0.23979419346E+02 -0.27194395065E+02  0.37269056174E+02  0.00000000000E+00 0.  1.
         -2    1    3    3    0  502 -0.86275647143E+01  0.23979419346E+02  0.52882375725E+02  0.58702581608E+02  0.00000000000E+00 0. -1.
<mgrwt>
<rscale>  0 0.92469903E+02</rscale>
<asrwt>0</asrwt>
<pdfrwt beam="1">  1        3 0.93584322E-02 0.92469903E+02</pdfrwt>
<pdfrwt beam="2">  1       -3 0.54064352E-02 0.92469903E+02</pdfrwt>
<totfact> 0.33654088E+04</totfact>
</mgrwt>
</event>
<event>
 5    1  0.3963873E+001  0.1167832E+03  0.7546771E-02  0.1248500E+00
         -2   -1    0    0    0  501 -0.00000000000E+00  0.00000000000E+00  0.33843663496E+02  0.33843663496E+02  0.00000000000E+00 0.  1.
          2   -1    0    0  501    0  0.00000000000E+00 -0.00000000000E+00 -0.10074503550E+03  0.10074503550E+03  0.00000000000E+00 0. -1.
         23    2    1    2    0    0  0.00000000000E+00  0.00000000000E+00 -0.66901372007E+02  0.13458869900E+03  0.11678323648E+03 0.  0.
          2    1    3    3  502    0  0.26176946931E+02 -0.31509685564E+02 -0.81406123999E+02  0.91132046282E+02  0.00000000000E+00 0. -1.
         -2    1    3    3    0  502 -0.26176946931E+02  0.31509685564E+02  0.14504751992E+02  0.43456652717E+02  0.00000000000E+00 0.  1.
<mgrwt>
<rscale>  0 0.11678324E+03</rscale>
<asrwt>0</asrwt>
<pdfrwt beam="2">  1        2 0.15499236E-01 0.11678324E+03</pdfrwt>
<pdfrwt beam="1">  1       -2 0.52067175E-02 0.11678324E+03</pdfrwt>
<totfact> 0.61372812E+04</totfact>
</mgrwt>
</event>
<event>
 5    1  0.3963873E+001  0.9341429E+02  0.7546771E-02  0.1294788E+00
         -1   -1    0    0    0  501 -0.00000000000E+00  0.00000000000E+00  0.34587686726E+03  0.34587686726E+03  0.00000000000E+00 0.  1.
          1   -1    0    0  501    0  0.00000000000E+00 -0.00000000000E+00 -0.63073242306E+01  0.63073242306E+01  0.00000000000E+00 0. -1.
         23    2    1    2    0    0  0.00000000000E+00  0.00000000000E+00  0.33956954303E+03  0.35218419149E+03  0.93414293246E+02 0.  0.
          2    1    3    3  502    0 -0.25307496997E+02  0.32854273916E+02  0.25079303571E+03  0.25419877946E+03  0.00000000000E+00 0. -1.
         -2    1    3    3    0  502  0.25307496997E+02 -0.32854273916E+02  0.88776507321E+02  0.97985412031E+02  0.00000000000E+00 0.  1.
<mgrwt>
<rscale>  0 0.93414293E+02</rscale>
<asrwt>0</asrwt>
<pdfrwt beam="2">  1        1 0.97035784E-03 0.93414293E+02</pdfrwt>
<pdfrwt beam="1">  1       -1 0.53211811E-01 0.93414293E+02</pdfrwt>
<totfact> 0.53572644E+04</totfact>
</mgrwt>
</event>
<event>
 5    1  0.3963873E+001  0.9189526E+02  0.7546771E-02  0.1298326E+00
         -1   -1    0    0    0  501 -0.00000000000E+00  0.00000000000E+00  0.56611382567E+02  0.56611382567E+02  0.00000000000E+00 0.  1.
          1   -1    0    0  501    0  0.00000000000E+00 -0.00000000000E+00 -0.37292579296E+02  0.37292579296E+02  0.00000000000E+00 0. -1.
         23    2    1    2    0    0  0.00000000000E+00  0.00000000000E+00  0.19318803271E+02  0.93903961863E+02  0.91895255012E+02 0.  0.
          2    1    3    3  502    0 -0.34829270270E+01 -0.38261739495E+02 -0.16092510736E+02  0.41654056125E+02  0.00000000000E+00 0. -1.
         -2    1    3    3    0  502  0.34829270270E+01  0.38261739495E+02  0.35411314007E+02  0.52249905738E+02  0.00000000000E+00 0.  1.
<mgrwt>
<rscale>  0 0.91895255E+02</rscale>
<asrwt>0</asrwt>
<pdfrwt beam="2">  1        1 0.57373199E-02 0.91895255E+02</pdfrwt>
<pdfrwt beam="1">  1       -1 0.87094434E-02 0.91895255E+02</pdfrwt>
<totfact> 0.87721372E+04</totfact>
</mgrwt>
</event>
<event>
 5    1  0.3963873E+001  0.9305860E+02  0.7546771E-02  0.1295609E+00
          1   -1    0    0  501    0  0.00000000000E+00  0.00000000000E+00  0.15652506640E+03  0.15652506640E+03  0.00000000000E+00 0. -1.
         -1   -1    0    0    0  501 -0.00000000000E+00 -0.00000000000E+00 -0.13831494715E+02  0.13831494715E+02  0.00000000000E+00 0.  1.
         23    2    1    2    0    0  0.00000000000E+00  0.00000000000E+00  0.14269357168E+03  0.17035656111E+03  0.93058597209E+02 0.  0.
          2    1    3    3  502    0  0.11855513226E+02  0.43787357344E+02  0.90290989728E+02  0.10104627001E+03  0.00000000000E+00 0. -1.
         -2    1    3    3    0  502 -0.11855513226E+02 -0.43787357344E+02  0.52402581953E+02  0.69310291100E+02  0.00000000000E+00 0.  1.
<mgrwt>
<rscale>  0 0.93058597E+02</rscale>
<asrwt>0</asrwt>
<pdfrwt beam="1">  1        1 0.24080778E-01 0.93058597E+02</pdfrwt>
<pdfrwt beam="2">  1       -1 0.21279224E-02 0.93058597E+02</pdfrwt>
<totfact> 0.10695159E+05</totfact>
</mgrwt>
</event>
<event>
 5    1  0.3963873E+001  0.9167569E+02  0.7546771E-02  0.1298844E+00
          2   -1    0    0  501    0  0.00000000000E+00  0.00000000000E+00  0.32643962563E+03  0.32643962563E+03  0.00000000000E+00 0. -1.
         -2   -1    0    0    0  501 -0.00000000000E+00 -0.00000000000E+00 -0.64364372952E+01  0.64364372952E+01  0.00000000000E+00 0.  1.
         23    2    1    2    0    0  0.00000000000E+00  0.00000000000E+00  0.32000318833E+03  0.33287606293E+03  0.91675693202E+02 0.  0.
          2    1    3    3  502    0 -0.27287667034E+02  0.23965256821E+02  0.26155057630E+03  0.26405994446E+03  0.00000000000E+00 0. -1.
         -2    1    3    3    0  502  0.27287667034E+02 -0.23965256821E+02  0.58452612040E+02  0.68816118468E+02  0.00000000000E+00 0.  1.
<mgrwt>
<rscale>  0 0.91675693E+02</rscale>
<asrwt>0</asrwt>
<pdfrwt beam="1">  1        2 0.50221468E-01 0.91675693E+02</pdfrwt>
<pdfrwt beam="2">  1       -2 0.99022138E-03 0.91675693E+02</pdfrwt>
<totfact> 0.18270438E+05</totfact>
</mgrwt>
</event>
<event>
 5    1  0.3963873E+001  0.9227572E+02  0.7546771E-02  0.1297432E+00
         -1   -1    0    0    0  501 -0.00000000000E+00  0.00000000000E+00  0.28436627547E+03  0.28436627547E+03  0.00000000000E+00 0. -1.
          1   -1    0    0  501    0  0.00000000000E+00 -0.00000000000E+00 -0.74857761300E+01  0.74857761300E+01  0.00000000000E+00 0.  1.
         23    2    1    2    0    0  0.00000000000E+00  0.00000000000E+00  0.27688049934E+03  0.29185205160E+03  0.92275723288E+02 0.  0.
          2    1    3    3  502    0  0.15385866887E+02 -0.41270919054E+02  0.18188608421E+03  0.18714315721E+03  0.00000000000E+00 0. -1.
         -2    1    3    3    0  502 -0.15385866887E+02  0.41270919054E+02  0.94994415125E+02  0.10470889439E+03  0.00000000000E+00 0.  1.
<mgrwt>
<rscale>  0 0.92275723E+02</rscale>
<asrwt>0</asrwt>
<pdfrwt beam="2">  1        1 0.11516581E-02 0.92275723E+02</pdfrwt>
<pdfrwt beam="1">  1       -1 0.43748649E-01 0.92275723E+02</pdfrwt>
<totfact> 0.59939360E+04</totfact>
</mgrwt>
</event>
<event>
 5    1  0.3963873E+001  0.9229634E+02  0.7546771E-02  0.1297384E+00
         -1   -1    0    0    0  501 -0.00000000000E+00  0.00000000000E+00  0.11210856222E+02  0.11210856222E+02  0.00000000000E+00 0.  1.
          1   -1    0    0  501    0  0.00000000000E+00 -0.00000000000E+00 -0.18996349999E+03  0.18996349999E+03  0.00000000000E+00 0. -1.
         23    2    1    2    0    0  0.00000000000E+00  0.00000000000E+00 -0.17875264376E+03  0.20117435621E+03  0.92296337646E+02 0.  0.
          2    1    3    3  502    0  0.22201206453E+01  0.34648783918E+02 -0.15563883762E+03  0.15946446293E+03  0.00000000000E+00 0. -1.
         -2    1    3    3    0  502 -0.22201206453E+01 -0.34648783918E+02 -0.23113806148E+02  0.41709893278E+02  0.00000000000E+00 0.  1.
<mgrwt>
<rscale>  0 0.92296338E+02</rscale>
<asrwt>0</asrwt>
<pdfrwt beam="2">  1        1 0.29225152E-01 0.92296338E+02</pdfrwt>
<pdfrwt beam="1">  1       -1 0.17247472E-02 0.92296338E+02</pdfrwt>
<totfact> 0.11344925E+05</totfact>
</mgrwt>
</event>
<event>
 5    1  0.3963873E+001  0.9281014E+02  0.7546771E-02  0.1296186E+00
          2   -1    0    0  501    0  0.00000000000E+00  0.00000000000E+00  0.20427487368E+04  0.20427487368E+04  0.00000000000E+00 0. -1.
         -2   -1    0    0    0  501 -0.00000000000E+00 -0.00000000000E+00 -0.10541827255E+01  0.10541827255E+01  0.00000000000E+00 0.  1.
         23    2    1    2    0    0  0.00000000000E+00  0.00000000000E+00  0.20416945541E+04  0.20438029195E+04  0.92810138045E+02 0.  0.
          2    1    3    3  502    0 -0.28920016976E+02 -0.22299546403E+02  0.16513627858E+04  0.16517665354E+04  0.00000000000E+00 0. -1.
         -2    1    3    3    0  502  0.28920016976E+02  0.22299546403E+02  0.39033176826E+03  0.39203638411E+03  0.00000000000E+00 0.  1.
<mgrwt>
<rscale>  0 0.92810138E+02</rscale>
<asrwt>0</asrwt>
<pdfrwt beam="1">  1        2 0.31426587E+00 0.92810138E+02</pdfrwt>
<pdfrwt beam="2">  1       -2 0.16218359E-03 0.92810138E+02</pdfrwt>
<totfact> 0.18400737E+05</totfact>
</mgrwt>
</event>
<event>
 5    1  0.3963873E+001  0.9453130E+02  0.7546771E-02  0.1292235E+00
          1   -1    0    0  501    0  0.00000000000E+00  0.00000000000E+00  0.54596393913E+03  0.54596393913E+03  0.00000000000E+00 0. -1.
         -1   -1    0    0    0  501 -0.00000000000E+00 -0.00000000000E+00 -0.40919215903E+01  0.40919215903E+01  0.00000000000E+00 0.  1.
         23    2    1    2    0    0  0.00000000000E+00  0.00000000000E+00  0.54187201754E+03  0.55005586072E+03  0.94531299157E+02 0.  0.
          2    1    3    3  502    0  0.32028884236E+02  0.90849671499E+01  0.46616033536E+03  0.46734766964E+03  0.00000000000E+00 0. -1.
         -2    1    3    3    0  502 -0.32028884236E+02 -0.90849671499E+01  0.75711682179E+02  0.82708191081E+02  0.00000000000E+00 0.  1.
<mgrwt>
<rscale>  0 0.94531299E+02</rscale>
<asrwt>0</asrwt>
<pdfrwt beam="1">  1        1 0.83994394E-01 0.94531299E+02</pdfrwt>
<pdfrwt beam="2">  1       -1 0.62952683E-03 0.94531299E+02</pdfrwt>
<totfact> 0.12771458E+05</totfact>
</mgrwt>
</event>
<event>
 5    1  0.3963873E+001  0.9018769E+02  0.7546771E-02  0.1302398E+00
         -3   -1    0    0    0  501 -0.00000000000E+00  0.00000000000E+00  0.29179306397E+01  0.29179306397E+01  0.00000000000E+00 0.  1.
          3   -1    0    0  501    0  0.00000000000E+00 -0.00000000000E+00 -0.69688256820E+03  0.69688256820E+03  0.00000000000E+00 0. -1.
         23    2    1    2    0    0  0.00000000000E+00  0.00000000000E+00 -0.69396463756E+03  0.69980049884E+03  0.90187693129E+02 0.  0.
          2    1    3    3  502    0 -0.28911376837E+02  0.15922912278E+02 -0.10857255222E+03  0.11347865853E+03  0.00000000000E+00 0.  1.
         -2    1    3    3    0  502  0.28911376837E+02 -0.15922912278E+02 -0.58539208534E+03  0.58632184031E+03  0.00000000000E+00 0. -1.
<mgrwt>
<rscale>  0 0.90187693E+02</rscale>
<asrwt>0</asrwt>
<pdfrwt beam="2">  1        3 0.10721274E+00 0.90187693E+02</pdfrwt>
<pdfrwt beam="1">  1       -3 0.44891226E-03 0.90187693E+02</pdfrwt>
<totfact> 0.14331718E+04</totfact>
</mgrwt>
</event>
<event>
 5    1  0.3963873E+001  0.9327125E+02  0.7546771E-02  0.1295118E+00
         -2   -1    0    0    0  501 -0.00000000000E+00  0.00000000000E+00  0.50713153423E+01  0.50713153423E+01  0.00000000000E+00 0.  1.
          2   -1    0    0  501    0  0.00000000000E+00 -0.00000000000E+00 -0.42885943133E+03  0.42885943133E+03  0.00000000000E+00 0. -1.
         23    2    1    2    0    0  0.00000000000E+00  0.00000000000E+00 -0.42378811599E+03  0.43393074668E+03  0.93271247742E+02 0.  0.
          2    1    3    3  502    0 -0.35958616538E+02  0.28073040226E+02 -0.25694356665E+03  0.26096190169E+03  0.00000000000E+00 0. -1.
         -2    1    3    3    0  502  0.35958616538E+02 -0.28073040226E+02 -0.16684454935E+03  0.17296884499E+03  0.00000000000E+00 0.  1.
<mgrwt>
<rscale>  0 0.93271248E+02</rscale>
<asrwt>0</asrwt>
<pdfrwt beam="2">  1        2 0.65978406E-01 0.93271248E+02</pdfrwt>
<pdfrwt beam="1">  1       -2 0.78020199E-03 0.93271248E+02</pdfrwt>
<totfact> 0.19262408E+05</totfact>
</mgrwt>
</event>
<event>
 5    1  0.3963873E+001  0.9287274E+02  0.7546771E-02  0.1296040E+00
         -2   -1    0    0    0  501 -0.00000000000E+00  0.00000000000E+00  0.29259143892E+02  0.29259143892E+02  0.00000000000E+00 0.  1.
          2   -1    0    0  501    0  0.00000000000E+00 -0.00000000000E+00 -0.73697867119E+02  0.73697867119E+02  0.00000000000E+00 0. -1.
         23    2    1    2    0    0  0.00000000000E+00  0.00000000000E+00 -0.44438723227E+02  0.10295701101E+03  0.92872740856E+02 0.  0.
          2    1    3    3  502    0 -0.23857649500E+02 -0.29092349495E+02  0.79532940268E+01  0.38455261339E+02  0.00000000000E+00 0. -1.
         -2    1    3    3    0  502  0.23857649500E+02  0.29092349495E+02 -0.52392017254E+02  0.64501749671E+02  0.00000000000E+00 0.  1.
<mgrwt>
<rscale>  0 0.92872741E+02</rscale>
<asrwt>0</asrwt>
<pdfrwt beam="2">  1        2 0.11338133E-01 0.92872741E+02</pdfrwt>
<pdfrwt beam="1">  1       -2 0.45014068E-02 0.92872741E+02</pdfrwt>
<totfact> 0.10657942E+05</totfact>
</mgrwt>
</event>
<event>
 5    1  0.3963873E+001  0.9200011E+02  0.7546771E-02  0.1298079E+00
          1   -1    0    0  501    0  0.00000000000E+00  0.00000000000E+00  0.32191179465E+03  0.32191179465E+03  0.00000000000E+00 0. -1.
         -1   -1    0    0    0  501 -0.00000000000E+00 -0.00000000000E+00 -0.65732442044E+01  0.65732442044E+01  0.00000000000E+00 0.  1.
         23    2    1    2    0    0  0.00000000000E+00  0.00000000000E+00  0.31533855044E+03  0.32848503885E+03  0.92000105185E+02 0.  0.
          2    1    3    3  502    0 -0.34102212886E+02 -0.65791695303E+01  0.26536298003E+03  0.26762615261E+03  0.00000000000E+00 0. -1.
         -2    1    3    3    0  502  0.34102212886E+02  0.65791695303E+01  0.49975570418E+02  0.60858886238E+02  0.00000000000E+00 0.  1.
<mgrwt>
<rscale>  0 0.92000105E+02</rscale>
<asrwt>0</asrwt>
<pdfrwt beam="1">  1        1 0.49524879E-01 0.92000105E+02</pdfrwt>
<pdfrwt beam="2">  1       -1 0.10112686E-02 0.92000105E+02</pdfrwt>
<totfact> 0.12676215E+05</totfact>
</mgrwt>
</event>
<event>
 5    1  0.3963873E+001  0.9408744E+02  0.7546771E-02  0.1293245E+00
          2   -1    0    0  501    0  0.00000000000E+00  0.00000000000E+00  0.16206443333E+04  0.16206443333E+04  0.00000000000E+00 0. -1.
         -2   -1    0    0    0  501 -0.00000000000E+00 -0.00000000000E+00 -0.13655750282E+01  0.13655750282E+01  0.00000000000E+00 0.  1.
         23    2    1    2    0    0  0.00000000000E+00  0.00000000000E+00  0.16192787583E+04  0.16220099083E+04  0.94087436594E+02 0.  0.
          2    1    3    3  502    0  0.46067892522E+02 -0.55327004986E+01  0.94345294925E+03  0.94459320819E+03  0.00000000000E+00 0. -1.
         -2    1    3    3    0  502 -0.46067892522E+02  0.55327004986E+01  0.67582580903E+03  0.67741670015E+03  0.00000000000E+00 0.  1.
<mgrwt>
<rscale>  0 0.94087437E+02</rscale>
<asrwt>0</asrwt>
<pdfrwt beam="1">  1        2 0.24932836E+00 0.94087437E+02</pdfrwt>
<pdfrwt beam="2">  1       -2 0.21008976E-03 0.94087437E+02</pdfrwt>
<totfact> 0.20995579E+05</totfact>
</mgrwt>
</event>
<event>
 5    1  0.3963873E+001  0.9004876E+02  0.7546771E-02  0.1302734E+00
         -2   -1    0    0    0  501 -0.00000000000E+00  0.00000000000E+00  0.13612087644E+01  0.13612087644E+01  0.00000000000E+00 0.  1.
          2   -1    0    0  501    0  0.00000000000E+00 -0.00000000000E+00 -0.14892608480E+04  0.14892608480E+04  0.00000000000E+00 0. -1.
         23    2    1    2    0    0  0.00000000000E+00  0.00000000000E+00 -0.14878996392E+04  0.14906220568E+04  0.90048762764E+02 0.  0.
          2    1    3    3  502    0 -0.10409125159E+02 -0.43785441436E+02 -0.72249307235E+03  0.72389346893E+03  0.00000000000E+00 0. -1.
         -2    1    3    3    0  502  0.10409125159E+02  0.43785441436E+02 -0.76540656689E+03  0.76672858783E+03  0.00000000000E+00 0.  1.
<mgrwt>
<rscale>  0 0.90048763E+02</rscale>
<asrwt>0</asrwt>
<pdfrwt beam="2">  1        2 0.22911551E+00 0.90048763E+02</pdfrwt>
<pdfrwt beam="1">  1       -2 0.20941814E-03 0.90048763E+02</pdfrwt>
<totfact> 0.24448594E+05</totfact>
</mgrwt>
</event>
<event>
 5    1  0.3963873E+001  0.8845439E+02  0.7546771E-02  0.1306638E+00
          2   -1    0    0  501    0  0.00000000000E+00  0.00000000000E+00  0.26322600575E+03  0.26322600575E+03  0.00000000000E+00 0. -1.
         -2   -1    0    0    0  501 -0.00000000000E+00 -0.00000000000E+00 -0.74310472793E+01  0.74310472793E+01  0.00000000000E+00 0.  1.
         23    2    1    2    0    0  0.00000000000E+00  0.00000000000E+00  0.25579495848E+03  0.27065705303E+03  0.88454392631E+02 0.  0.
          2    1    3    3  502    0 -0.37917940424E+02 -0.22395587489E+02  0.11538859161E+03  0.12350651650E+03  0.00000000000E+00 0. -1.
         -2    1    3    3    0  502  0.37917940424E+02  0.22395587489E+02  0.14040636687E+03  0.14715053653E+03  0.00000000000E+00 0.  1.
<mgrwt>
<rscale>  0 0.88454393E+02</rscale>
<asrwt>0</asrwt>
<pdfrwt beam="1">  1        2 0.40496301E-01 0.88454393E+02</pdfrwt>
<pdfrwt beam="2">  1       -2 0.11432382E-02 0.88454393E+02</pdfrwt>
<totfact> 0.18552599E+05</totfact>
</mgrwt>
</event>
<event>
 5    1  0.3963873E+001  0.9366948E+02  0.7546771E-02  0.1294201E+00
         -2   -1    0    0    0  501 -0.00000000000E+00  0.00000000000E+00  0.13372176408E+01  0.13372176408E+01  0.00000000000E+00 0.  1.
          2   -1    0    0  501    0  0.00000000000E+00 -0.00000000000E+00 -0.16403410688E+04  0.16403410688E+04  0.00000000000E+00 0. -1.
         23    2    1    2    0    0  0.00000000000E+00  0.00000000000E+00 -0.16390038512E+04  0.16416782865E+04  0.93669483061E+02 0.  0.
          2    1    3    3  502    0  0.18361309700E+00 -0.46796302772E+02 -0.78640856655E+03  0.78779969612E+03  0.00000000000E+00 0. -1.
         -2    1    3    3    0  502 -0.18361309700E+00  0.46796302772E+02 -0.85259528464E+03  0.85387859035E+03  0.00000000000E+00 0.  1.
<mgrwt>
<rscale>  0 0.93669483E+02</rscale>
<asrwt>0</asrwt>
<pdfrwt beam="2">  1        2 0.25236071E+00 0.93669483E+02</pdfrwt>
<pdfrwt beam="1">  1       -2 0.20572535E-03 0.93669483E+02</pdfrwt>
<totfact> 0.21113451E+05</totfact>
</mgrwt>
</event>
<event>
 5    1  0.3963873E+001  0.7395497E+02  0.7546771E-02  0.1347138E+00
         -1   -1    0    0    0  501 -0.00000000000E+00  0.00000000000E+00  0.19003043409E+03  0.19003043409E+03  0.00000000000E+00 0.  1.
          1   -1    0    0  501    0  0.00000000000E+00 -0.00000000000E+00 -0.71953434583E+01  0.71953434583E+01  0.00000000000E+00 0. -1.
         23    2    1    2    0    0  0.00000000000E+00  0.00000000000E+00  0.18283509063E+03  0.19722577755E+03  0.73954965779E+02 0.  0.
          2    1    3    3  502    0  0.34497113690E+02  0.30230747393E+01  0.56836545191E+02  0.66555110270E+02  0.00000000000E+00 0. -1.
         -2    1    3    3    0  502 -0.34497113690E+02 -0.30230747393E+01  0.12599854544E+03  0.13067066728E+03  0.00000000000E+00 0.  1.
<mgrwt>
<rscale>  0 0.73954966E+02</rscale>
<asrwt>0</asrwt>
<pdfrwt beam="2">  1        1 0.11069761E-02 0.73954966E+02</pdfrwt>
<pdfrwt beam="1">  1       -1 0.29235448E-01 0.73954966E+02</pdfrwt>
<totfact> 0.12101680E+05</totfact>
</mgrwt>
</event>
<event>
 5    1  0.3963873E+001  0.9215852E+02  0.7546771E-02  0.1297707E+00
         -2   -1    0    0    0  501 -0.00000000000E+00  0.00000000000E+00  0.86598596216E+01  0.86598596216E+01  0.00000000000E+00 0.  1.
          2   -1    0    0  501    0  0.00000000000E+00 -0.00000000000E+00 -0.24518854453E+03  0.24518854453E+03  0.00000000000E+00 0. -1.
         23    2    1    2    0    0  0.00000000000E+00  0.00000000000E+00 -0.23652868491E+03  0.25384840415E+03  0.92158523783E+02 0.  0.
          2    1    3    3  502    0  0.32110122433E+02 -0.23050965021E+02 -0.18349899122E+03  0.18770798260E+03  0.00000000000E+00 0. -1.
         -2    1    3    3    0  502 -0.32110122433E+02  0.23050965021E+02 -0.53029693688E+02  0.66140421556E+02  0.00000000000E+00 0.  1.
<mgrwt>
<rscale>  0 0.92158524E+02</rscale>
<asrwt>0</asrwt>
<pdfrwt beam="2">  1        2 0.37721312E-01 0.92158524E+02</pdfrwt>
<pdfrwt beam="1">  1       -2 0.13322862E-02 0.92158524E+02</pdfrwt>
<totfact> 0.16193826E+05</totfact>
</mgrwt>
</event>
<event>
 5    1  0.3963873E+001  0.9250372E+02  0.7546771E-02  0.1296899E+00
         -1   -1    0    0    0  501 -0.00000000000E+00  0.00000000000E+00  0.31259744763E+02  0.31259744763E+02  0.00000000000E+00 0.  1.
          1   -1    0    0  501    0  0.00000000000E+00 -0.00000000000E+00 -0.68434166901E+02  0.68434166901E+02  0.00000000000E+00 0. -1.
         23    2    1    2    0    0  0.00000000000E+00  0.00000000000E+00 -0.37174422138E+02  0.99693911664E+02  0.92503720798E+02 0.  0.
          2    1    3    3  502    0 -0.26432661837E+02  0.32461847948E+02 -0.39782531333E+02  0.57750385136E+02  0.00000000000E+00 0. -1.
         -2    1    3    3    0  502  0.26432661837E+02 -0.32461847948E+02  0.26081091959E+01  0.41943526528E+02  0.00000000000E+00 0.  1.
<mgrwt>
<rscale>  0 0.92503721E+02</rscale>
<asrwt>0</asrwt>
<pdfrwt beam="2">  1        1 0.10528333E-01 0.92503721E+02</pdfrwt>
<pdfrwt beam="1">  1       -1 0.48091916E-02 0.92503721E+02</pdfrwt>
<totfact> 0.94472276E+04</totfact>
</mgrwt>
</event>
<event>
 5    1  0.3963873E+001  0.8890972E+02  0.7546771E-02  0.1305514E+00
          1   -1    0    0  501    0  0.00000000000E+00  0.00000000000E+00  0.36908678498E+04  0.36908678498E+04  0.00000000000E+00 0. -1.
         -1   -1    0    0    0  501 -0.00000000000E+00 -0.00000000000E+00 -0.53543905402E+00  0.53543905402E+00  0.00000000000E+00 0.  1.
         23    2    1    2    0    0  0.00000000000E+00  0.00000000000E+00  0.36903324108E+04  0.36914032889E+04  0.88909724778E+02 0.  0.
          2    1    3    3  502    0 -0.16936873649E+02 -0.38435884651E+02  0.24497708463E+04  0.24501308893E+04  0.00000000000E+00 0. -1.
         -2    1    3    3    0  502  0.16936873649E+02  0.38435884651E+02  0.12405615644E+04  0.12412723996E+04  0.00000000000E+00 0.  1.
<mgrwt>
<rscale>  0 0.88909725E+02</rscale>
<asrwt>0</asrwt>
<pdfrwt beam="1">  1        1 0.56780545E+00 0.88909725E+02</pdfrwt>
<pdfrwt beam="2">  1       -1 0.82378195E-04 0.88909725E+02</pdfrwt>
<totfact> 0.14307148E+04</totfact>
</mgrwt>
</event>
<event>
 5    1  0.3963873E+001  0.9081604E+02  0.7546771E-02  0.1300887E+00
         -2   -1    0    0    0  501 -0.00000000000E+00  0.00000000000E+00  0.20959928276E+01  0.20959928276E+01  0.00000000000E+00 0.  1.
          2   -1    0    0  501    0  0.00000000000E+00 -0.00000000000E+00 -0.98372878930E+03  0.98372878930E+03  0.00000000000E+00 0. -1.
         23    2    1    2    0    0  0.00000000000E+00  0.00000000000E+00 -0.98163279648E+03  0.98582478213E+03  0.90816044545E+02 0.  0.
          2    1    3    3  502    0 -0.35131901328E+01 -0.27666342325E+02 -0.10182511740E+03  0.10557520322E+03  0.00000000000E+00 0.  1.
         -2    1    3    3    0  502  0.35131901328E+01  0.27666342325E+02 -0.87980767908E+03  0.88024957891E+03  0.00000000000E+00 0. -1.
<mgrwt>
<rscale>  0 0.90816045E+02</rscale>
<asrwt>0</asrwt>
<pdfrwt beam="2">  1        2 0.15134297E+00 0.90816045E+02</pdfrwt>
<pdfrwt beam="1">  1       -2 0.32246027E-03 0.90816045E+02</pdfrwt>
<totfact> 0.25243302E+05</totfact>
</mgrwt>
</event>
<event>
 5    1  0.3963873E+001  0.6789059E+02  0.7546771E-02  0.1367417E+00
         -1   -1    0    0    0  501 -0.00000000000E+00  0.00000000000E+00  0.48709928294E+01  0.48709928294E+01  0.00000000000E+00 0.  1.
          1   -1    0    0  501    0  0.00000000000E+00 -0.00000000000E+00 -0.23656020838E+03  0.23656020838E+03  0.00000000000E+00 0. -1.
         23    2    1    2    0    0  0.00000000000E+00  0.00000000000E+00 -0.23168921555E+03  0.24143120121E+03  0.67890590769E+02 0.  0.
          2    1    3    3  502    0 -0.23726519077E+02  0.22209466855E+02 -0.15070151882E+03  0.15416600112E+03  0.00000000000E+00 0. -1.
         -2    1    3    3    0  502  0.23726519077E+02 -0.22209466855E+02 -0.80987696725E+02  0.87265200088E+02  0.00000000000E+00 0.  1.
<mgrwt>
<rscale>  0 0.67890591E+02</rscale>
<asrwt>0</asrwt>
<pdfrwt beam="2">  1        1 0.36393896E-01 0.67890591E+02</pdfrwt>
<pdfrwt beam="1">  1       -1 0.74938315E-03 0.67890591E+02</pdfrwt>
<totfact> 0.26578196E+05</totfact>
</mgrwt>
</event>
<event>
 5    1  0.3963873E+001  0.9104465E+02  0.7546771E-02  0.1300341E+00
          1   -1    0    0  501    0  0.00000000000E+00  0.00000000000E+00  0.47276850469E+02  0.47276850469E+02  0.00000000000E+00 0. -1.
         -1   -1    0    0    0  501 -0.00000000000E+00 -0.00000000000E+00 -0.43832911860E+02  0.43832911860E+02  0.00000000000E+00 0.  1.
         23    2    1    2    0    0  0.00000000000E+00  0.00000000000E+00  0.34439386093E+01  0.91109762329E+02  0.91044648819E+02 0.  0.
          2    1    3    3  502    0  0.37852264184E+02 -0.67616329044E+01  0.26106760572E+02  0.46476623489E+02  0.00000000000E+00 0. -1.
         -2    1    3    3    0  502 -0.37852264184E+02  0.67616329044E+01 -0.22662821963E+02  0.44633138840E+02  0.00000000000E+00 0.  1.
<mgrwt>
<rscale>  0 0.91044649E+02</rscale>
<asrwt>0</asrwt>
<pdfrwt beam="1">  1        1 0.72733616E-02 0.91044649E+02</pdfrwt>
<pdfrwt beam="2">  1       -1 0.67435249E-02 0.91044649E+02</pdfrwt>
<totfact> 0.93358119E+04</totfact>
</mgrwt>
</event>
<event>
 5    1  0.3963873E+001  0.9186624E+02  0.7546771E-02  0.1298394E+00
          2   -1    0    0  501    0  0.00000000000E+00  0.00000000000E+00  0.59819561853E+01  0.59819561853E+01  0.00000000000E+00 0. -1.
         -2   -1    0    0    0  501 -0.00000000000E+00 -0.00000000000E+00 -0.35270263968E+03  0.35270263968E+03  0.00000000000E+00 0.  1.
         23    2    1    2    0    0  0.00000000000E+00  0.00000000000E+00 -0.34672068349E+03  0.35868459586E+03  0.91866244878E+02 0.  0.
          2    1    3    3  502    0  0.22063369638E+02  0.22152077419E+02 -0.41975237525E+02  0.52339539347E+02  0.00000000000E+00 0. -1.
         -2    1    3    3    0  502 -0.22063369638E+02 -0.22152077419E+02 -0.30474544597E+03  0.30634505652E+03  0.00000000000E+00 0.  1.
<mgrwt>
<rscale>  0 0.91866245E+02</rscale>
<asrwt>0</asrwt>
<pdfrwt beam="1">  1        2 0.92030091E-03 0.91866245E+02</pdfrwt>
<pdfrwt beam="2">  1       -2 0.54261947E-01 0.91866245E+02</pdfrwt>
<totfact> 0.45440384E+04</totfact>
</mgrwt>
</event>
<event>
 5    1  0.3963873E+001  0.9046879E+02  0.7546771E-02  0.1301720E+00
         -1   -1    0    0    0  501 -0.00000000000E+00  0.00000000000E+00  0.24917697331E+02  0.24917697331E+02  0.00000000000E+00 0.  1.
          1   -1    0    0  501    0  0.00000000000E+00 -0.00000000000E+00 -0.82116356884E+02  0.82116356884E+02  0.00000000000E+00 0. -1.
         23    2    1    2    0    0  0.00000000000E+00  0.00000000000E+00 -0.57198659553E+02  0.10703405421E+03  0.90468790789E+02 0.  0.
          2    1    3    3  502    0  0.11863585294E+02 -0.40862156363E+02 -0.46762590321E+02  0.63223416012E+02  0.00000000000E+00 0. -1.
         -2    1    3    3    0  502 -0.11863585294E+02  0.40862156363E+02 -0.10436069232E+02  0.43810638202E+02  0.00000000000E+00 0.  1.
<mgrwt>
<rscale>  0 0.90468791E+02</rscale>
<asrwt>0</asrwt>
<pdfrwt beam="2">  1        1 0.12633285E-01 0.90468791E+02</pdfrwt>
<pdfrwt beam="1">  1       -1 0.38334920E-02 0.90468791E+02</pdfrwt>
<totfact> 0.10334497E+05</totfact>
</mgrwt>
</event>
<event>
 5    1  0.3963873E+001  0.8972471E+02  0.7546771E-02  0.1303520E+00
          4   -1    0    0  501    0  0.00000000000E+00  0.00000000000E+00  0.51904934092E+02  0.51904934092E+02  0.00000000000E+00 0. -1.
         -4   -1    0    0    0  501 -0.00000000000E+00 -0.00000000000E+00 -0.38775326715E+02  0.38775326715E+02  0.00000000000E+00 0.  1.
         23    2    1    2    0    0  0.00000000000E+00  0.00000000000E+00  0.13129607377E+02  0.90680260808E+02  0.89724707357E+02 0.  0.
          2    1    3    3  502    0 -0.20600815983E+02 -0.66890985633E+01  0.46270522150E+02  0.51089126816E+02  0.00000000000E+00 0. -1.
         -2    1    3    3    0  502  0.20600815983E+02  0.66890985633E+01 -0.33140914773E+02  0.39591133992E+02  0.00000000000E+00 0.  1.
<mgrwt>
<rscale>  0 0.89724707E+02</rscale>
<asrwt>0</asrwt>
<pdfrwt beam="1">  1        4 0.79853745E-02 0.89724707E+02</pdfrwt>
<pdfrwt beam="2">  1       -4 0.59654349E-02 0.89724707E+02</pdfrwt>
<totfact> 0.28250121E+04</totfact>
</mgrwt>
</event>
<event>
 5    1  0.3963873E+001  0.1078945E+03  0.7546771E-02  0.1264519E+00
          1   -1    0    0  501    0  0.00000000000E+00  0.00000000000E+00  0.20640679276E+02  0.20640679276E+02  0.00000000000E+00 0. -1.
         -1   -1    0    0    0  501 -0.00000000000E+00 -0.00000000000E+00 -0.14099852422E+03  0.14099852422E+03  0.00000000000E+00 0.  1.
         23    2    1    2    0    0  0.00000000000E+00  0.00000000000E+00 -0.12035784494E+03  0.16163920349E+03  0.10789449137E+03 0.  0.
          2    1    3    3  502    0 -0.51933068552E+02 -0.13322565918E+02 -0.51218827029E+02  0.74147842950E+02  0.00000000000E+00 0. -1.
         -2    1    3    3    0  502  0.51933068552E+02  0.13322565918E+02 -0.69139017912E+02  0.87491360543E+02  0.00000000000E+00 0.  1.
<mgrwt>
<rscale>  0 0.10789449E+03</rscale>
<asrwt>0</asrwt>
<pdfrwt beam="1">  1        1 0.31754892E-02 0.10789449E+03</pdfrwt>
<pdfrwt beam="2">  1       -1 0.21692080E-01 0.10789449E+03</pdfrwt>
<totfact> 0.48944241E+04</totfact>
</mgrwt>
</event>
<event>
 5    1  0.3963873E+001  0.9121349E+02  0.7546771E-02  0.1299939E+00
         -2   -1    0    0    0  501 -0.00000000000E+00  0.00000000000E+00  0.20697723599E+01  0.20697723599E+01  0.00000000000E+00 0.  1.
          2   -1    0    0  501    0  0.00000000000E+00 -0.00000000000E+00 -0.10049294760E+04  0.10049294760E+04  0.00000000000E+00 0. -1.
         23    2    1    2    0    0  0.00000000000E+00  0.00000000000E+00 -0.10028597036E+04  0.10069992483E+04  0.91213491393E+02 0.  0.
          2    1    3    3  502    0  0.28074480640E+02 -0.26178725990E+01 -0.89717210871E+03  0.89761507472E+03  0.00000000000E+00 0. -1.
         -2    1    3    3    0  502 -0.28074480640E+02  0.26178725990E+01 -0.10568759489E+03  0.10938417360E+03  0.00000000000E+00 0.  1.
<mgrwt>
<rscale>  0 0.91213491E+02</rscale>
<asrwt>0</asrwt>
<pdfrwt beam="2">  1        2 0.15460407E+00 0.91213491E+02</pdfrwt>
<pdfrwt beam="1">  1       -2 0.31842748E-03 0.91213491E+02</pdfrwt>
<totfact> 0.24980066E+05</totfact>
</mgrwt>
</event>
<event>
 5    1  0.3963873E+001  0.9128970E+02  0.7546771E-02  0.1299758E+00
         -1   -1    0    0    0  501 -0.00000000000E+00  0.00000000000E+00  0.56416727849E+01  0.56416727849E+01  0.00000000000E+00 0.  1.
          1   -1    0    0  501    0  0.00000000000E+00 -0.00000000000E+00 -0.36929688024E+03  0.36929688024E+03  0.00000000000E+00 0. -1.
         23    2    1    2    0    0  0.00000000000E+00  0.00000000000E+00 -0.36365520746E+03  0.37493855303E+03  0.91289696216E+02 0.  0.
          2    1    3    3  502    0 -0.40304419686E+02  0.14071505174E+02 -0.24818013136E+03  0.25182500095E+03  0.00000000000E+00 0. -1.
         -2    1    3    3    0  502  0.40304419686E+02 -0.14071505174E+02 -0.11547507610E+03  0.12311355207E+03  0.00000000000E+00 0.  1.
<mgrwt>
<rscale>  0 0.91289696E+02</rscale>
<asrwt>0</asrwt>
<pdfrwt beam="2">  1        1 0.56814939E-01 0.91289696E+02</pdfrwt>
<pdfrwt beam="1">  1       -1 0.86794914E-03 0.91289696E+02</pdfrwt>
<totfact> 0.13264452E+05</totfact>
</mgrwt>
</event>
<event>
 5    1  0.3963873E+001  0.9244009E+02  0.7546771E-02  0.1297048E+00
          3   -1    0    0  501    0  0.00000000000E+00  0.00000000000E+00  0.28735071845E+01  0.28735071845E+01  0.00000000000E+00 0. -1.
         -3   -1    0    0    0  501 -0.00000000000E+00 -0.00000000000E+00 -0.74344428669E+03  0.74344428669E+03  0.00000000000E+00 0.  1.
         23    2    1    2    0    0  0.00000000000E+00  0.00000000000E+00 -0.74057077951E+03  0.74631779388E+03  0.92440088686E+02 0.  0.
          2    1    3    3  502    0  0.30494760686E+02 -0.22865807480E+02 -0.15920976807E+03  0.16370866144E+03  0.00000000000E+00 0. -1.
         -2    1    3    3    0  502 -0.30494760686E+02  0.22865807480E+02 -0.58136101143E+03  0.58260913243E+03  0.00000000000E+00 0.  1.
<mgrwt>
<rscale>  0 0.92440089E+02</rscale>
<asrwt>0</asrwt>
<pdfrwt beam="1">  1        3 0.44207818E-03 0.92440089E+02</pdfrwt>
<pdfrwt beam="2">  1       -3 0.11437601E+00 0.92440089E+02</pdfrwt>
<totfact> 0.12682255E+04</totfact>
</mgrwt>
</event>
<event>
 5    1  0.3963873E+001  0.9077921E+02  0.7546771E-02  0.1300976E+00
          2   -1    0    0  501    0  0.00000000000E+00  0.00000000000E+00  0.27360402626E+03  0.27360402626E+03  0.00000000000E+00 0. -1.
         -2   -1    0    0    0  501 -0.00000000000E+00 -0.00000000000E+00 -0.75299192859E+01  0.75299192859E+01  0.00000000000E+00 0.  1.
         23    2    1    2    0    0  0.00000000000E+00  0.00000000000E+00  0.26607410697E+03  0.28113394554E+03  0.90779209823E+02 0.  0.
          2    1    3    3  502    0  0.33554219753E+02  0.12055840536E+02  0.22002556314E+03  0.22289566480E+03  0.00000000000E+00 0. -1.
         -2    1    3    3    0  502 -0.33554219753E+02 -0.12055840536E+02  0.46048543833E+02  0.58238280739E+02  0.00000000000E+00 0.  1.
<mgrwt>
<rscale>  0 0.90779210E+02</rscale>
<asrwt>0</asrwt>
<pdfrwt beam="1">  1        2 0.42092919E-01 0.90779210E+02</pdfrwt>
<pdfrwt beam="2">  1       -2 0.11584493E-02 0.90779210E+02</pdfrwt>
<totfact> 0.17563246E+05</totfact>
</mgrwt>
</event>
<event>
 5    1  0.3963873E+001  0.9850257E+02  0.7546771E-02  0.1283477E+00
         -2   -1    0    0    0  501 -0.00000000000E+00  0.00000000000E+00  0.34678984817E+01  0.34678984817E+01  0.00000000000E+00 0. -1.
          2   -1    0    0  501    0  0.00000000000E+00 -0.00000000000E+00 -0.69946947172E+03  0.69946947172E+03  0.00000000000E+00 0.  1.
         23    2    1    2    0    0  0.00000000000E+00  0.00000000000E+00 -0.69600157324E+03  0.70293737020E+03  0.98502570911E+02 0.  0.
          2    1    3    3  502    0 -0.39552834878E+02 -0.46502931470E+01 -0.55478381359E+03  0.55621140927E+03  0.00000000000E+00 0.  1.
         -2    1    3    3    0  502  0.39552834878E+02  0.46502931470E+01 -0.14121775965E+03  0.14672596094E+03  0.00000000000E+00 0. -1.
<mgrwt>
<rscale>  0 0.98502571E+02</rscale>
<asrwt>0</asrwt>
<pdfrwt beam="2">  1        2 0.10761068E+00 0.98502571E+02</pdfrwt>
<pdfrwt beam="1">  1       -2 0.53352288E-03 0.98502571E+02</pdfrwt>
<totfact> 0.19321507E+05</totfact>
</mgrwt>
</event>
<event>
 5    1  0.3963873E+001  0.8970557E+02  0.7546771E-02  0.1303566E+00
         -1   -1    0    0    0  501 -0.00000000000E+00  0.00000000000E+00  0.17654410076E+03  0.17654410076E+03  0.00000000000E+00 0.  1.
          1   -1    0    0  501    0  0.00000000000E+00 -0.00000000000E+00 -0.11395295581E+02  0.11395295581E+02  0.00000000000E+00 0. -1.
         23    2    1    2    0    0  0.00000000000E+00  0.00000000000E+00  0.16514880518E+03  0.18793939634E+03  0.89705567525E+02 0.  0.
          2    1    3    3  502    0 -0.10515133821E+02  0.43585371333E+02  0.79991786261E+02  0.91700264464E+02  0.00000000000E+00 0. -1.
         -2    1    3    3    0  502  0.10515133821E+02 -0.43585371333E+02  0.85157018919E+02  0.96239131878E+02  0.00000000000E+00 0.  1.
<mgrwt>
<rscale>  0 0.89705568E+02</rscale>
<asrwt>0</asrwt>
<pdfrwt beam="2">  1        1 0.17531225E-02 0.89705568E+02</pdfrwt>
<pdfrwt beam="1">  1       -1 0.27160629E-01 0.89705568E+02</pdfrwt>
<totfact> 0.74936966E+04</totfact>
</mgrwt>
</event>
<event>
 5    1  0.3963873E+001  0.9254827E+02  0.7546771E-02  0.1296795E+00
         -2   -1    0    0    0  501 -0.00000000000E+00  0.00000000000E+00  0.46750804403E+01  0.46750804403E+01  0.00000000000E+00 0.  1.
          2   -1    0    0  501    0  0.00000000000E+00 -0.00000000000E+00 -0.45802323642E+03  0.45802323642E+03  0.00000000000E+00 0. -1.
         23    2    1    2    0    0  0.00000000000E+00  0.00000000000E+00 -0.45334815598E+03  0.46269831686E+03  0.92548267922E+02 0.  0.
          2    1    3    3  502    0  0.44046348493E+02  0.97641306529E+01 -0.17523072945E+03  0.18094537189E+03  0.00000000000E+00 0. -1.
         -2    1    3    3    0  502 -0.44046348493E+02 -0.97641306529E+01 -0.27811742653E+03  0.28175294498E+03  0.00000000000E+00 0.  1.
<mgrwt>
<rscale>  0 0.92548268E+02</rscale>
<asrwt>0</asrwt>
<pdfrwt beam="2">  1        2 0.70465162E-01 0.92548268E+02</pdfrwt>
<pdfrwt beam="1">  1       -2 0.71924265E-03 0.92548268E+02</pdfrwt>
<totfact> 0.20117128E+05</totfact>
</mgrwt>
</event>
<event>
 5    1  0.3963873E+001  0.9124985E+02  0.7546771E-02  0.1299853E+00
         -1   -1    0    0    0  501 -0.00000000000E+00  0.00000000000E+00  0.11080586268E+02  0.11080586268E+02  0.00000000000E+00 0.  1.
          1   -1    0    0  501    0  0.00000000000E+00 -0.00000000000E+00 -0.18786316143E+03  0.18786316143E+03  0.00000000000E+00 0. -1.
         23    2    1    2    0    0  0.00000000000E+00  0.00000000000E+00 -0.17678257516E+03  0.19894374770E+03  0.91249854069E+02 0.  0.
          2    1    3    3  502    0 -0.67543935090E+01  0.25899241315E+02 -0.16894820637E+03  0.17105522198E+03  0.00000000000E+00 0. -1.
         -2    1    3    3    0  502  0.67543935090E+01 -0.25899241315E+02 -0.78343687974E+01  0.27888525720E+02  0.00000000000E+00 0.  1.
<mgrwt>
<rscale>  0 0.91249854E+02</rscale>
<asrwt>0</asrwt>
<pdfrwt beam="2">  1        1 0.28902025E-01 0.91249854E+02</pdfrwt>
<pdfrwt beam="1">  1       -1 0.17047056E-02 0.91249854E+02</pdfrwt>
<totfact> 0.11673073E+05</totfact>
</mgrwt>
</event>
<event>
 5    1  0.3963873E+001  0.9240854E+02  0.7546771E-02  0.1297122E+00
         -1   -1    0    0    0  501 -0.00000000000E+00  0.00000000000E+00  0.29077216031E+02  0.29077216031E+02  0.00000000000E+00 0.  1.
          1   -1    0    0  501    0  0.00000000000E+00 -0.00000000000E+00 -0.73419503783E+02  0.73419503783E+02  0.00000000000E+00 0. -1.
         23    2    1    2    0    0  0.00000000000E+00  0.00000000000E+00 -0.44342287752E+02  0.10249671981E+03  0.92408544462E+02 0.  0.
          2    1    3    3  502    0 -0.18375884647E+02 -0.27570400522E+02 -0.57889747410E+02  0.66700996819E+02  0.00000000000E+00 0. -1.
         -2    1    3    3    0  502  0.18375884647E+02  0.27570400522E+02  0.13547459659E+02  0.35795722995E+02  0.00000000000E+00 0.  1.
<mgrwt>
<rscale>  0 0.92408544E+02</rscale>
<asrwt>0</asrwt>
<pdfrwt beam="2">  1        1 0.11295308E-01 0.92408544E+02</pdfrwt>
<pdfrwt beam="1">  1       -1 0.44734179E-02 0.92408544E+02</pdfrwt>
<totfact> 0.95786810E+04</totfact>
</mgrwt>
</event>
<event>
 5    1  0.3963873E+001  0.9191455E+02  0.7546771E-02  0.1298280E+00
          2   -1    0    0  501    0  0.00000000000E+00  0.00000000000E+00  0.90839445740E+03  0.90839445740E+03  0.00000000000E+00 0. -1.
         -2   -1    0    0    0  501 -0.00000000000E+00 -0.00000000000E+00 -0.23250592144E+01  0.23250592144E+01  0.00000000000E+00 0.  1.
         23    2    1    2    0    0  0.00000000000E+00  0.00000000000E+00  0.90606939819E+03  0.91071951661E+03  0.91914545171E+02 0.  0.
          2    1    3    3  502    0 -0.30127849203E+02 -0.25524971662E+02  0.68600886253E+03  0.68714435961E+03  0.00000000000E+00 0. -1.
         -2    1    3    3    0  502  0.30127849203E+02  0.25524971662E+02  0.22006053566E+03  0.22357515701E+03  0.00000000000E+00 0.  1.
<mgrwt>
<rscale>  0 0.91914545E+02</rscale>
<asrwt>0</asrwt>
<pdfrwt beam="1">  1        2 0.13975271E+00 0.91914545E+02</pdfrwt>
<pdfrwt beam="2">  1       -2 0.35770214E-03 0.91914545E+02</pdfrwt>
<totfact> 0.24297939E+05</totfact>
</mgrwt>
</event>
<event>
 5    1  0.3963873E+001  0.8920816E+02  0.7546771E-02  0.1304781E+00
          2   -1    0    0  501    0  0.00000000000E+00  0.00000000000E+00  0.42351984616E+04  0.42351984616E+04  0.00000000000E+00 0. -1.
         -2   -1    0    0    0  501 -0.00000000000E+00 -0.00000000000E+00 -0.46975927130E+00  0.46975927130E+00  0.00000000000E+00 0.  1.
         23    2    1    2    0    0  0.00000000000E+00  0.00000000000E+00  0.42347287023E+04  0.42356682209E+04  0.89208155303E+02 0.  0.
          2    1    3    3  502    0  0.23226582790E+02  0.34858768538E+02  0.28450998105E+04  0.28454081499E+04  0.00000000000E+00 0. -1.
         -2    1    3    3    0  502 -0.23226582790E+02 -0.34858768538E+02  0.13896288919E+04  0.13902600710E+04  0.00000000000E+00 0.  1.
<mgrwt>
<rscale>  0 0.89208155E+02</rscale>
<asrwt>0</asrwt>
<pdfrwt beam="1">  1        2 0.65153842E+00 0.89208155E+02</pdfrwt>
<pdfrwt beam="2">  1       -2 0.72274049E-04 0.89208155E+02</pdfrwt>
<totfact> 0.26014121E+04</totfact>
</mgrwt>
</event>
<event>
 5    1  0.3963873E+001  0.9047112E+02  0.7546771E-02  0.1301715E+00
          3   -1    0    0  501    0  0.00000000000E+00  0.00000000000E+00  0.17118996524E+03  0.17118996524E+03  0.00000000000E+00 0. -1.
         -3   -1    0    0    0  501 -0.00000000000E+00 -0.00000000000E+00 -0.11953129514E+02  0.11953129514E+02  0.00000000000E+00 0.  1.
         23    2    1    2    0    0  0.00000000000E+00  0.00000000000E+00  0.15923683573E+03  0.18314309476E+03  0.90471118619E+02 0.  0.
          2    1    3    3  502    0 -0.34599489362E+02  0.29094150445E+02  0.82920969986E+02  0.94443006716E+02  0.00000000000E+00 0. -1.
         -2    1    3    3    0  502  0.34599489362E+02 -0.29094150445E+02  0.76315865743E+02  0.88700088040E+02  0.00000000000E+00 0.  1.
<mgrwt>
<rscale>  0 0.90471119E+02</rscale>
<asrwt>0</asrwt>
<pdfrwt beam="1">  1        3 0.26336916E-01 0.90471119E+02</pdfrwt>
<pdfrwt beam="2">  1       -3 0.18389431E-02 0.90471119E+02</pdfrwt>
<totfact> 0.30016280E+04</totfact>
</mgrwt>
</event>
<event>
 5    1  0.3963873E+001  0.9271069E+02  0.7546771E-02  0.1296417E+00
         -1   -1    0    0    0  501 -0.00000000000E+00  0.00000000000E+00  0.13042851228E+02  0.13042851228E+02  0.00000000000E+00 0.  1.
          1   -1    0    0  501    0  0.00000000000E+00 -0.00000000000E+00 -0.16475063944E+03  0.16475063944E+03  0.00000000000E+00 0. -1.
         23    2    1    2    0    0  0.00000000000E+00  0.00000000000E+00 -0.15170778821E+03  0.17779349066E+03  0.92710691507E+02 0.  0.
          2    1    3    3  502    0 -0.38049151516E+02  0.15669374357E+02 -0.11678509340E+03  0.12382255556E+03  0.00000000000E+00 0. -1.
         -2    1    3    3    0  502  0.38049151516E+02 -0.15669374357E+02 -0.34922694805E+02  0.53970935107E+02  0.00000000000E+00 0.  1.
<mgrwt>
<rscale>  0 0.92710692E+02</rscale>
<asrwt>0</asrwt>
<pdfrwt beam="2">  1        1 0.25346254E-01 0.92710692E+02</pdfrwt>
<pdfrwt beam="1">  1       -1 0.20065924E-02 0.92710692E+02</pdfrwt>
<totfact> 0.10908203E+05</totfact>
</mgrwt>
</event>
<event>
 5    1  0.3963873E+001  0.8960847E+02  0.7546771E-02  0.1303803E+00
         -2   -1    0    0    0  501 -0.00000000000E+00  0.00000000000E+00  0.25712011932E+01  0.25712011932E+01  0.00000000000E+00 0.  1.
          2   -1    0    0  501    0  0.00000000000E+00 -0.00000000000E+00 -0.78073215012E+03  0.78073215012E+03  0.00000000000E+00 0. -1.
         23    2    1    2    0    0  0.00000000000E+00  0.00000000000E+00 -0.77816094892E+03  0.78330335131E+03  0.89608469153E+02 0.  0.
          2    1    3    3  502    0  0.28539107517E+02 -0.32810777833E+02 -0.29477393408E+03  0.29796425962E+03  0.00000000000E+00 0.  1.
         -2    1    3    3    0  502 -0.28539107517E+02  0.32810777833E+02 -0.48338701484E+03  0.48533909169E+03  0.00000000000E+00 0. -1.
<mgrwt>
<rscale>  0 0.89608469E+02</rscale>
<asrwt>0</asrwt>
<pdfrwt beam="2">  1        2 0.12011272E+00 0.89608469E+02</pdfrwt>
<pdfrwt beam="1">  1       -2 0.39556913E-03 0.89608469E+02</pdfrwt>
<totfact> 0.25400708E+05</totfact>
</mgrwt>
</event>
<event>
 5    1  0.3963873E+001  0.9051218E+02  0.7546771E-02  0.1301616E+00
         -2   -1    0    0    0  501 -0.00000000000E+00  0.00000000000E+00  0.10548620003E+02  0.10548620003E+02  0.00000000000E+00 0.  1.
          2   -1    0    0  501    0  0.00000000000E+00 -0.00000000000E+00 -0.19415937545E+03  0.19415937545E+03  0.00000000000E+00 0. -1.
         23    2    1    2    0    0  0.00000000000E+00  0.00000000000E+00 -0.18361075545E+03  0.20470799546E+03  0.90512175352E+02 0.  0.
          2    1    3    3  502    0  0.90796848925E+01 -0.26810441243E+02 -0.17166714549E+03  0.17398519844E+03  0.00000000000E+00 0. -1.
         -2    1    3    3    0  502 -0.90796848925E+01  0.26810441243E+02 -0.11943609963E+02  0.30722797014E+02  0.00000000000E+00 0.  1.
<mgrwt>
<rscale>  0 0.90512175E+02</rscale>
<asrwt>0</asrwt>
<pdfrwt beam="2">  1        2 0.29870669E-01 0.90512175E+02</pdfrwt>
<pdfrwt beam="1">  1       -2 0.16228648E-02 0.90512175E+02</pdfrwt>
<totfact> 0.15607849E+05</totfact>
</mgrwt>
</event>
<event>
 5    1  0.3963873E+001  0.8410397E+02  0.7546771E-02  0.1317793E+00
          2   -1    0    0  501    0  0.00000000000E+00  0.00000000000E+00  0.43559927060E+01  0.43559927060E+01  0.00000000000E+00 0. -1.
         -2   -1    0    0    0  501 -0.00000000000E+00 -0.00000000000E+00 -0.40596243820E+03  0.40596243820E+03  0.00000000000E+00 0.  1.
         23    2    1    2    0    0  0.00000000000E+00  0.00000000000E+00 -0.40160644549E+03  0.41031843090E+03  0.84103969460E+02 0.  0.
          2    1    3    3  502    0  0.26095313272E+02 -0.31335869913E+02 -0.25090619026E+03  0.25419838400E+03  0.00000000000E+00 0. -1.
         -2    1    3    3    0  502 -0.26095313272E+02  0.31335869913E+02 -0.15070025523E+03  0.15612004690E+03  0.00000000000E+00 0.  1.
<mgrwt>
<rscale>  0 0.84103969E+02</rscale>
<asrwt>0</asrwt>
<pdfrwt beam="1">  1        2 0.67015271E-03 0.84103969E+02</pdfrwt>
<pdfrwt beam="2">  1       -2 0.62455761E-01 0.84103969E+02</pdfrwt>
<totfact> 0.52046159E+04</totfact>
</mgrwt>
</event>
<event>
 5    1  0.3963873E+001  0.9034134E+02  0.7546771E-02  0.1302027E+00
          1   -1    0    0  501    0  0.00000000000E+00  0.00000000000E+00  0.24551244759E+02  0.24551244759E+02  0.00000000000E+00 0. -1.
         -1   -1    0    0    0  501 -0.00000000000E+00 -0.00000000000E+00 -0.83107375722E+02  0.83107375722E+02  0.00000000000E+00 0.  1.
         23    2    1    2    0    0  0.00000000000E+00  0.00000000000E+00 -0.58556130964E+02  0.10765862048E+03  0.90341342090E+02 0.  0.
          2    1    3    3  502    0  0.18872214371E+02  0.37934989824E+02 -0.10618907834E+02  0.43680489143E+02  0.00000000000E+00 0. -1.
         -2    1    3    3    0  502 -0.18872214371E+02 -0.37934989824E+02 -0.47937223129E+02  0.63978131338E+02  0.00000000000E+00 0.  1.
<mgrwt>
<rscale>  0 0.90341342E+02</rscale>
<asrwt>0</asrwt>
<pdfrwt beam="1">  1        1 0.37771145E-02 0.90341342E+02</pdfrwt>
<pdfrwt beam="2">  1       -1 0.12785750E-01 0.90341342E+02</pdfrwt>
<totfact> 0.86109116E+04</totfact>
</mgrwt>
</event>
<event>
 5    1  0.3963873E+001  0.9234711E+02  0.7546771E-02  0.1297265E+00
          1   -1    0    0  501    0  0.00000000000E+00  0.00000000000E+00  0.20910209069E+02  0.20910209069E+02  0.00000000000E+00 0. -1.
         -1   -1    0    0    0  501 -0.00000000000E+00 -0.00000000000E+00 -0.10195963994E+03  0.10195963994E+03  0.00000000000E+00 0.  1.
         23    2    1    2    0    0  0.00000000000E+00  0.00000000000E+00 -0.81049430870E+02  0.12286984901E+03  0.92347114471E+02 0.  0.
          2    1    3    3  502    0  0.43097084189E+02 -0.98384065043E+01 -0.22781097012E+02  0.49730587059E+02  0.00000000000E+00 0. -1.
         -2    1    3    3    0  502 -0.43097084189E+02  0.98384065043E+01 -0.58268333858E+02  0.73139261950E+02  0.00000000000E+00 0.  1.
<mgrwt>
<rscale>  0 0.92347114E+02</rscale>
<asrwt>0</asrwt>
<pdfrwt beam="1">  1        1 0.32169552E-02 0.92347114E+02</pdfrwt>
<pdfrwt beam="2">  1       -1 0.15686099E-01 0.92347114E+02</pdfrwt>
<totfact> 0.78452280E+04</totfact>
</mgrwt>
</event>
<event>
 5    1  0.3963873E+001  0.9039924E+02  0.7546771E-02  0.1301888E+00
         -2   -1    0    0    0  501 -0.00000000000E+00  0.00000000000E+00  0.17722423241E+01  0.17722423241E+01  0.00000000000E+00 0.  1.
          2   -1    0    0  501    0  0.00000000000E+00 -0.00000000000E+00 -0.11527802049E+04  0.11527802049E+04  0.00000000000E+00 0. -1.
         23    2    1    2    0    0  0.00000000000E+00  0.00000000000E+00 -0.11510079626E+04  0.11545524472E+04  0.90399244898E+02 0.  0.
          2    1    3    3  502    0 -0.21622777586E+02  0.36437895783E+02 -0.77652797780E+03  0.77768307495E+03  0.00000000000E+00 0. -1.
         -2    1    3    3    0  502  0.21622777586E+02 -0.36437895783E+02 -0.37447998479E+03  0.37686937229E+03  0.00000000000E+00 0.  1.
<mgrwt>
<rscale>  0 0.90399245E+02</rscale>
<asrwt>0</asrwt>
<pdfrwt beam="2">  1        2 0.17735066E+00 0.90399245E+02</pdfrwt>
<pdfrwt beam="1">  1       -2 0.27265289E-03 0.90399245E+02</pdfrwt>
<totfact> 0.25528171E+05</totfact>
</mgrwt>
</event>
<event>
 5    1  0.3963873E+001  0.9022449E+02  0.7546771E-02  0.1302309E+00
         -2   -1    0    0    0  501 -0.00000000000E+00  0.00000000000E+00  0.10221801162E+03  0.10221801162E+03  0.00000000000E+00 0. -1.
          2   -1    0    0  501    0  0.00000000000E+00 -0.00000000000E+00 -0.19909548717E+02  0.19909548717E+02  0.00000000000E+00 0.  1.
         23    2    1    2    0    0  0.00000000000E+00  0.00000000000E+00  0.82308462902E+02  0.12212756033E+03  0.90224486300E+02 0.  0.
          2    1    3    3  502    0  0.31733572430E+02  0.20691128050E+01 -0.21569188276E+01  0.31874019919E+02  0.00000000000E+00 0.  1.
         -2    1    3    3    0  502 -0.31733572430E+02 -0.20691128050E+01  0.84465381730E+02  0.90253540416E+02  0.00000000000E+00 0. -1.
<mgrwt>
<rscale>  0 0.90224486E+02</rscale>
<asrwt>0</asrwt>
<pdfrwt beam="2">  1        2 0.30630076E-02 0.90224486E+02</pdfrwt>
<pdfrwt beam="1">  1       -2 0.15725848E-01 0.90224486E+02</pdfrwt>
<totfact> 0.81383051E+04</totfact>
</mgrwt>
</event>
<event>
 5    1  0.3963873E+001  0.9438017E+02  0.7546771E-02  0.1292578E+00
          2   -1    0    0  501    0  0.00000000000E+00  0.00000000000E+00  0.28708147198E+03  0.28708147198E+03  0.00000000000E+00 0. -1.
         -2   -1    0    0    0  501 -0.00000000000E+00 -0.00000000000E+00 -0.77570465355E+01  0.77570465355E+01  0.00000000000E+00 0.  1.
         23    2    1    2    0    0  0.00000000000E+00  0.00000000000E+00  0.27932442544E+03  0.29483851852E+03  0.94380174563E+02 0.  0.
          2    1    3    3  502    0 -0.45639605400E+02  0.11829770140E+02  0.14590017333E+03  0.15332898493E+03  0.00000000000E+00 0. -1.
         -2    1    3    3    0  502  0.45639605400E+02 -0.11829770140E+02  0.13342425212E+03  0.14150953358E+03  0.00000000000E+00 0.  1.
<mgrwt>
<rscale>  0 0.94380175E+02</rscale>
<asrwt>0</asrwt>
<pdfrwt beam="1">  1        2 0.44166372E-01 0.94380175E+02</pdfrwt>
<pdfrwt beam="2">  1       -2 0.11933920E-02 0.94380175E+02</pdfrwt>
<totfact> 0.16113068E+05</totfact>
</mgrwt>
</event>
<event>
 5    1  0.3963873E+001  0.9102690E+02  0.7546771E-02  0.1300384E+00
          3   -1    0    0  501    0  0.00000000000E+00  0.00000000000E+00  0.17588938452E+02  0.17588938452E+02  0.00000000000E+00 0. -1.
         -3   -1    0    0    0  501 -0.00000000000E+00 -0.00000000000E+00 -0.11777140170E+03  0.11777140170E+03  0.00000000000E+00 0.  1.
         23    2    1    2    0    0  0.00000000000E+00  0.00000000000E+00 -0.10018246325E+03  0.13536034015E+03  0.91026895717E+02 0.  0.
          2    1    3    3  502    0  0.42821667906E+02 -0.13136694978E+02 -0.38083380894E+02  0.58792957891E+02  0.00000000000E+00 0. -1.
         -2    1    3    3    0  502 -0.42821667906E+02  0.13136694978E+02 -0.62099082354E+02  0.76567382262E+02  0.00000000000E+00 0.  1.
<mgrwt>
<rscale>  0 0.91026896E+02</rscale>
<asrwt>0</asrwt>
<pdfrwt beam="1">  1        3 0.27059906E-02 0.91026896E+02</pdfrwt>
<pdfrwt beam="2">  1       -3 0.18118677E-01 0.91026896E+02</pdfrwt>
<totfact> 0.32372659E+04</totfact>
</mgrwt>
</event>
<event>
 5    1  0.3963873E+001  0.5928103E+02  0.7546771E-02  0.1400874E+00
         -1   -1    0    0    0  501 -0.00000000000E+00  0.00000000000E+00  0.11312190908E+01  0.11312190908E+01  0.00000000000E+00 0.  1.
          1   -1    0    0  501    0  0.00000000000E+00 -0.00000000000E+00 -0.77664889226E+03  0.77664889226E+03  0.00000000000E+00 0. -1.
         23    2    1    2    0    0  0.00000000000E+00  0.00000000000E+00 -0.77551767317E+03  0.77778011135E+03  0.59281027447E+02 0.  0.
          2    1    3    3  502    0 -0.25581461500E+02  0.63352255288E+01 -0.56573683038E+03  0.56635033990E+03  0.00000000000E+00 0. -1.
         -2    1    3    3    0  502  0.25581461500E+02 -0.63352255288E+01 -0.20978084279E+03  0.21142977145E+03  0.00000000000E+00 0.  1.
<mgrwt>
<rscale>  0 0.59281027E+02</rscale>
<asrwt>0</asrwt>
<pdfrwt beam="2">  1        1 0.11948429E+00 0.59281027E+02</pdfrwt>
<pdfrwt beam="1">  1       -1 0.17403393E-03 0.59281027E+02</pdfrwt>
<totfact> 0.43138042E+05</totfact>
</mgrwt>
</event>
<event>
 5    1  0.3963873E+001  0.8876138E+02  0.7546771E-02  0.1305879E+00
          2   -1    0    0  501    0  0.00000000000E+00  0.00000000000E+00  0.63528222383E+03  0.63528222383E+03  0.00000000000E+00 0. -1.
         -2   -1    0    0    0  501 -0.00000000000E+00 -0.00000000000E+00 -0.31004260800E+01  0.31004260800E+01  0.00000000000E+00 0.  1.
         23    2    1    2    0    0  0.00000000000E+00  0.00000000000E+00  0.63218179775E+03  0.63838264991E+03  0.88761378424E+02 0.  0.
          2    1    3    3  502    0  0.24372667296E+02  0.27363604775E+02  0.49616011538E+03  0.49751146105E+03  0.00000000000E+00 0. -1.
         -2    1    3    3    0  502 -0.24372667296E+02 -0.27363604775E+02  0.13602168236E+03  0.14087118886E+03  0.00000000000E+00 0.  1.
<mgrwt>
<rscale>  0 0.88761378E+02</rscale>
<asrwt>0</asrwt>
<pdfrwt beam="1">  1        2 0.97735623E-01 0.88761378E+02</pdfrwt>
<pdfrwt beam="2">  1       -2 0.47698913E-03 0.88761378E+02</pdfrwt>
<totfact> 0.24843071E+05</totfact>
</mgrwt>
</event>
<event>
 5    1  0.3963873E+001  0.9006754E+02  0.7546771E-02  0.1302688E+00
          1   -1    0    0  501    0  0.00000000000E+00  0.00000000000E+00  0.62629506868E+03  0.62629506868E+03  0.00000000000E+00 0. -1.
         -1   -1    0    0    0  501 -0.00000000000E+00 -0.00000000000E+00 -0.32381546679E+01  0.32381546679E+01  0.00000000000E+00 0.  1.
         23    2    1    2    0    0  0.00000000000E+00  0.00000000000E+00  0.62305691401E+03  0.62953322335E+03  0.90067536884E+02 0.  0.
          2    1    3    3  502    0  0.19438197208E+02 -0.21555097825E+02  0.55219449156E+03  0.55295679964E+03  0.00000000000E+00 0. -1.
         -2    1    3    3    0  502 -0.19438197208E+02  0.21555097825E+02  0.70862422451E+02  0.76576423712E+02  0.00000000000E+00 0.  1.
<mgrwt>
<rscale>  0 0.90067537E+02</rscale>
<asrwt>0</asrwt>
<pdfrwt beam="1">  1        1 0.96352991E-01 0.90067537E+02</pdfrwt>
<pdfrwt beam="2">  1       -1 0.49817814E-03 0.90067537E+02</pdfrwt>
<totfact> 0.14656713E+05</totfact>
</mgrwt>
</event>
<event>
 5    1  0.3963873E+001  0.9252627E+02  0.7546771E-02  0.1296847E+00
          1   -1    0    0  501    0  0.00000000000E+00  0.00000000000E+00  0.26936560737E+03  0.26936560737E+03  0.00000000000E+00 0. -1.
         -1   -1    0    0    0  501 -0.00000000000E+00 -0.00000000000E+00 -0.79456239791E+01  0.79456239791E+01  0.00000000000E+00 0.  1.
         23    2    1    2    0    0  0.00000000000E+00  0.00000000000E+00  0.26141998339E+03  0.27731123135E+03  0.92526273654E+02 0.  0.
          2    1    3    3  502    0 -0.16181211940E+02  0.19916850594E+02  0.24607977933E+03  0.24741416764E+03  0.00000000000E+00 0. -1.
         -2    1    3    3    0  502  0.16181211940E+02 -0.19916850594E+02  0.15340204062E+02  0.29897063703E+02  0.00000000000E+00 0.  1.
<mgrwt>
<rscale>  0 0.92526274E+02</rscale>
<asrwt>0</asrwt>
<pdfrwt beam="1">  1        1 0.41440856E-01 0.92526274E+02</pdfrwt>
<pdfrwt beam="2">  1       -1 0.12224039E-02 0.92526274E+02</pdfrwt>
<totfact> 0.12065352E+05</totfact>
</mgrwt>
</event>
<event>
 5    1  0.3963873E+001  0.9136250E+02  0.7546771E-02  0.1299585E+00
          2   -1    0    0  501    0  0.00000000000E+00  0.00000000000E+00  0.65957595154E+03  0.65957595154E+03  0.00000000000E+00 0. -1.
         -2   -1    0    0    0  501 -0.00000000000E+00 -0.00000000000E+00 -0.31638155573E+01  0.31638155573E+01  0.00000000000E+00 0.  1.
         23    2    1    2    0    0  0.00000000000E+00  0.00000000000E+00  0.65641213598E+03  0.66273976710E+03  0.91362501208E+02 0.  0.
          2    1    3    3  502    0  0.35229746580E+02 -0.12771629199E+02  0.13869481624E+03  0.14366802570E+03  0.00000000000E+00 0.  1.
         -2    1    3    3    0  502 -0.35229746580E+02  0.12771629199E+02  0.51771731975E+03  0.51907174140E+03  0.00000000000E+00 0. -1.
<mgrwt>
<rscale>  0 0.91362501E+02</rscale>
<asrwt>0</asrwt>
<pdfrwt beam="1">  1        2 0.10147311E+00 0.91362501E+02</pdfrwt>
<pdfrwt beam="2">  1       -2 0.48674138E-03 0.91362501E+02</pdfrwt>
<totfact> 0.23247832E+05</totfact>
</mgrwt>
</event>
<event>
 5    1  0.3963873E+001  0.9483485E+02  0.7546771E-02  0.1291548E+00
         -1   -1    0    0    0  501 -0.00000000000E+00  0.00000000000E+00  0.27578039538E+01  0.27578039538E+01  0.00000000000E+00 0.  1.
          1   -1    0    0  501    0  0.00000000000E+00 -0.00000000000E+00 -0.81529073650E+03  0.81529073650E+03  0.00000000000E+00 0. -1.
         23    2    1    2    0    0  0.00000000000E+00  0.00000000000E+00 -0.81253293255E+03  0.81804854046E+03  0.94834846266E+02 0.  0.
          2    1    3    3  502    0  0.25928256623E+02  0.39470150155E+02 -0.44311161789E+03  0.44562099721E+03  0.00000000000E+00 0. -1.
         -2    1    3    3    0  502 -0.25928256623E+02 -0.39470150155E+02 -0.36942131466E+03  0.37242754325E+03  0.00000000000E+00 0.  1.
<mgrwt>
<rscale>  0 0.94834846E+02</rscale>
<asrwt>0</asrwt>
<pdfrwt beam="2">  1        1 0.12542946E+00 0.94834846E+02</pdfrwt>
<pdfrwt beam="1">  1       -1 0.42427713E-03 0.94834846E+02</pdfrwt>
<totfact> 0.12709183E+05</totfact>
</mgrwt>
</event>
<event>
 5    1  0.3963873E+001  0.9249340E+02  0.7546771E-02  0.1296923E+00
         -1   -1    0    0    0  501 -0.00000000000E+00  0.00000000000E+00  0.19056269683E+01  0.19056269683E+01  0.00000000000E+00 0.  1.
          1   -1    0    0  501    0  0.00000000000E+00 -0.00000000000E+00 -0.11223378903E+04  0.11223378903E+04  0.00000000000E+00 0. -1.
         23    2    1    2    0    0  0.00000000000E+00  0.00000000000E+00 -0.11204322634E+04  0.11242435173E+04  0.92493401957E+02 0.  0.
          2    1    3    3  502    0  0.38320037489E+02 -0.25611552363E+02 -0.60630924952E+03  0.60805861802E+03  0.00000000000E+00 0. -1.
         -2    1    3    3    0  502 -0.38320037489E+02  0.25611552363E+02 -0.51412301385E+03  0.51618489929E+03  0.00000000000E+00 0.  1.
<mgrwt>
<rscale>  0 0.92493402E+02</rscale>
<asrwt>0</asrwt>
<pdfrwt beam="2">  1        1 0.17266770E+00 0.92493402E+02</pdfrwt>
<pdfrwt beam="1">  1       -1 0.29317281E-03 0.92493402E+02</pdfrwt>
<totfact> 0.12612966E+05</totfact>
</mgrwt>
</event>
<event>
 5    1  0.3963873E+001  0.8897296E+02  0.7546771E-02  0.1305358E+00
         -2   -1    0    0    0  501 -0.00000000000E+00  0.00000000000E+00  0.10639489436E+01  0.10639489436E+01  0.00000000000E+00 0.  1.
          2   -1    0    0  501    0  0.00000000000E+00 -0.00000000000E+00 -0.18600956045E+04  0.18600956045E+04  0.00000000000E+00 0. -1.
         23    2    1    2    0    0  0.00000000000E+00  0.00000000000E+00 -0.18590316555E+04  0.18611595534E+04  0.88972956644E+02 0.  0.
          2    1    3    3  502    0  0.74974278896E+01  0.35707496416E+02 -0.39710188954E+03  0.39877455712E+03  0.00000000000E+00 0. -1.
         -2    1    3    3    0  502 -0.74974278896E+01 -0.35707496416E+02 -0.14619297660E+04  0.14623849963E+04  0.00000000000E+00 0.  1.
<mgrwt>
<rscale>  0 0.88972957E+02</rscale>
<asrwt>0</asrwt>
<pdfrwt beam="2">  1        2 0.28616574E+00 0.88972957E+02</pdfrwt>
<pdfrwt beam="1">  1       -2 0.16368606E-03 0.88972957E+02</pdfrwt>
<totfact> 0.22322247E+05</totfact>
</mgrwt>
</event>
<event>
 5    1  0.3963873E+001  0.9017278E+02  0.7546771E-02  0.1302434E+00
         -1   -1    0    0    0  501 -0.00000000000E+00  0.00000000000E+00  0.92586980060E+02  0.92586980060E+02  0.00000000000E+00 0.  1.
          1   -1    0    0  501    0  0.00000000000E+00 -0.00000000000E+00 -0.21955384919E+02  0.21955384919E+02  0.00000000000E+00 0. -1.
         23    2    1    2    0    0  0.00000000000E+00  0.00000000000E+00  0.70631595140E+02  0.11454236498E+03  0.90172784935E+02 0.  0.
          2    1    3    3  502    0 -0.31500968763E+02  0.16177771998E+02  0.70763663629E+02  0.79129813787E+02  0.00000000000E+00 0. -1.
         -2    1    3    3    0  502  0.31500968763E+02 -0.16177771998E+02 -0.13206848853E+00  0.35412551192E+02  0.00000000000E+00 0.  1.
<mgrwt>
<rscale>  0 0.90172785E+02</rscale>
<asrwt>0</asrwt>
<pdfrwt beam="2">  1        1 0.33777516E-02 0.90172785E+02</pdfrwt>
<pdfrwt beam="1">  1       -1 0.14244151E-01 0.90172785E+02</pdfrwt>
<totfact> 0.84903911E+04</totfact>
</mgrwt>
</event>
<event>
 5    1  0.3963873E+001  0.9115157E+02  0.7546771E-02  0.1300087E+00
         -2   -1    0    0    0  501 -0.00000000000E+00  0.00000000000E+00  0.13482958347E+02  0.13482958347E+02  0.00000000000E+00 0. -1.
          2   -1    0    0  501    0  0.00000000000E+00 -0.00000000000E+00 -0.15405760389E+03  0.15405760389E+03  0.00000000000E+00 0.  1.
         23    2    1    2    0    0  0.00000000000E+00  0.00000000000E+00 -0.14057464554E+03  0.16754056223E+03  0.91151571710E+02 0.  0.
          2    1    3    3  502    0  0.38543614699E+02  0.19514997249E+02 -0.43606747424E+02  0.61383986288E+02  0.00000000000E+00 0. -1.
         -2    1    3    3    0  502 -0.38543614699E+02 -0.19514997249E+02 -0.96967898117E+02  0.10615657595E+03  0.00000000000E+00 0.  1.
<mgrwt>
<rscale>  0 0.91151572E+02</rscale>
<asrwt>0</asrwt>
<pdfrwt beam="2">  1        2 0.23701171E-01 0.91151572E+02</pdfrwt>
<pdfrwt beam="1">  1       -2 0.20743012E-02 0.91151572E+02</pdfrwt>
<totfact> 0.14119501E+05</totfact>
</mgrwt>
</event>
<event>
 5    1  0.3963873E+001  0.8869621E+02  0.7546771E-02  0.1306040E+00
          2   -1    0    0  501    0  0.00000000000E+00  0.00000000000E+00  0.16326474656E+03  0.16326474656E+03  0.00000000000E+00 0. -1.
         -2   -1    0    0    0  501 -0.00000000000E+00 -0.00000000000E+00 -0.12046411076E+02  0.12046411076E+02  0.00000000000E+00 0.  1.
         23    2    1    2    0    0  0.00000000000E+00  0.00000000000E+00  0.15121833549E+03  0.17531115764E+03  0.88696206262E+02 0.  0.
          2    1    3    3  502    0 -0.14075601324E+02 -0.32990915971E+02  0.12715965503E+03  0.13212153858E+03  0.00000000000E+00 0. -1.
         -2    1    3    3    0  502  0.14075601324E+02  0.32990915971E+02  0.24058680458E+02  0.43189619061E+02  0.00000000000E+00 0.  1.
<mgrwt>
<rscale>  0 0.88696206E+02</rscale>
<asrwt>0</asrwt>
<pdfrwt beam="1">  1        2 0.25117652E-01 0.88696206E+02</pdfrwt>
<pdfrwt beam="2">  1       -2 0.18532941E-02 0.88696206E+02</pdfrwt>
<totfact> 0.15506956E+05</totfact>
</mgrwt>
</event>
<event>
 5    1  0.3963873E+001  0.8997754E+02  0.7546771E-02  0.1302906E+00
         -3   -1    0    0    0  501 -0.00000000000E+00  0.00000000000E+00  0.89847997209E+01  0.89847997209E+01  0.00000000000E+00 0.  1.
          3   -1    0    0  501    0  0.00000000000E+00 -0.00000000000E+00 -0.22526819648E+03  0.22526819648E+03  0.00000000000E+00 0. -1.
         23    2    1    2    0    0  0.00000000000E+00  0.00000000000E+00 -0.21628339676E+03  0.23425299620E+03  0.89977544506E+02 0.  0.
          2    1    3    3  502    0 -0.11360451040E+02  0.29647227361E+02 -0.19112521226E+03  0.19374432817E+03  0.00000000000E+00 0. -1.
         -2    1    3    3    0  502  0.11360451040E+02 -0.29647227361E+02 -0.25158184497E+02  0.40508668025E+02  0.00000000000E+00 0.  1.
<mgrwt>
<rscale>  0 0.89977545E+02</rscale>
<asrwt>0</asrwt>
<pdfrwt beam="2">  1        3 0.34656646E-01 0.89977545E+02</pdfrwt>
<pdfrwt beam="1">  1       -3 0.13822769E-02 0.89977545E+02</pdfrwt>
<totfact> 0.27790900E+04</totfact>
</mgrwt>
</event>
<event>
 5    1  0.3963873E+001  0.9012148E+02  0.7546771E-02  0.1302558E+00
         -2   -1    0    0    0  501 -0.00000000000E+00  0.00000000000E+00  0.78678115069E+01  0.78678115069E+01  0.00000000000E+00 0. -1.
          2   -1    0    0  501    0  0.00000000000E+00 -0.00000000000E+00 -0.25807307979E+03  0.25807307979E+03  0.00000000000E+00 0.  1.
         23    2    1    2    0    0  0.00000000000E+00  0.00000000000E+00 -0.25020526829E+03  0.26594089130E+03  0.90121481275E+02 0.  0.
          2    1    3    3  502    0 -0.20714826596E+02  0.39577631076E+02 -0.14255485544E+03  0.14939002554E+03  0.00000000000E+00 0. -1.
         -2    1    3    3    0  502  0.20714826596E+02 -0.39577631076E+02 -0.10765041285E+03  0.11655086576E+03  0.00000000000E+00 0.  1.
<mgrwt>
<rscale>  0 0.90121481E+02</rscale>
<asrwt>0</asrwt>
<pdfrwt beam="2">  1        2 0.39703547E-01 0.90121481E+02</pdfrwt>
<pdfrwt beam="1">  1       -2 0.12104327E-02 0.90121481E+02</pdfrwt>
<totfact> 0.17521931E+05</totfact>
</mgrwt>
</event>
<event>
 5    1  0.3963873E+001  0.9223470E+02  0.7546771E-02  0.1297529E+00
          1   -1    0    0  501    0  0.00000000000E+00  0.00000000000E+00  0.93949529351E+03  0.93949529351E+03  0.00000000000E+00 0. -1.
         -1   -1    0    0    0  501 -0.00000000000E+00 -0.00000000000E+00 -0.22637792038E+01  0.22637792038E+01  0.00000000000E+00 0.  1.
         23    2    1    2    0    0  0.00000000000E+00  0.00000000000E+00  0.93723151431E+03  0.94175907271E+03  0.92234698623E+02 0.  0.
          2    1    3    3  502    0  0.30067725643E+02  0.31800485940E+01  0.82417294933E+03  0.82472736782E+03  0.00000000000E+00 0. -1.
         -2    1    3    3    0  502 -0.30067725643E+02 -0.31800485940E+01  0.11305856498E+03  0.11703170489E+03  0.00000000000E+00 0.  1.
<mgrwt>
<rscale>  0 0.92234699E+02</rscale>
<asrwt>0</asrwt>
<pdfrwt beam="1">  1        1 0.14453743E+00 0.92234699E+02</pdfrwt>
<pdfrwt beam="2">  1       -1 0.34827447E-03 0.92234699E+02</pdfrwt>
<totfact> 0.13389268E+05</totfact>
</mgrwt>
</event>
<event>
 5    1  0.3963873E+001  0.9057298E+02  0.7546771E-02  0.1301470E+00
          3   -1    0    0  501    0  0.00000000000E+00  0.00000000000E+00  0.15503817864E+03  0.15503817864E+03  0.00000000000E+00 0.  1.
         -3   -1    0    0    0  501 -0.00000000000E+00 -0.00000000000E+00 -0.13228135373E+02  0.13228135373E+02  0.00000000000E+00 0. -1.
         23    2    1    2    0    0  0.00000000000E+00  0.00000000000E+00  0.14181004327E+03  0.16826631402E+03  0.90572976435E+02 0.  0.
          2    1    3    3  502    0 -0.44698322212E+02 -0.66172306504E+01  0.76521064518E+02  0.88866197539E+02  0.00000000000E+00 0.  1.
         -2    1    3    3    0  502  0.44698322212E+02  0.66172306504E+01  0.65288978753E+02  0.79400116478E+02  0.00000000000E+00 0. -1.
<mgrwt>
<rscale>  0 0.90572976E+02</rscale>
<asrwt>0</asrwt>
<pdfrwt beam="1">  1        3 0.23852026E-01 0.90572976E+02</pdfrwt>
<pdfrwt beam="2">  1       -3 0.20350979E-02 0.90572976E+02</pdfrwt>
<totfact> 0.30772937E+04</totfact>
</mgrwt>
</event>
<event>
 5    1  0.3963873E+001  0.9106589E+02  0.7546771E-02  0.1300291E+00
         -2   -1    0    0    0  501 -0.00000000000E+00  0.00000000000E+00  0.27401050107E+02  0.27401050107E+02  0.00000000000E+00 0.  1.
          2   -1    0    0  501    0  0.00000000000E+00 -0.00000000000E+00 -0.75663132030E+02  0.75663132030E+02  0.00000000000E+00 0. -1.
         23    2    1    2    0    0  0.00000000000E+00  0.00000000000E+00 -0.48262081923E+02  0.10306418214E+03  0.91065894209E+02 0.  0.
          2    1    3    3  502    0 -0.18718804038E+02 -0.14533946818E+02 -0.68133132977E+02  0.72137043493E+02  0.00000000000E+00 0. -1.
         -2    1    3    3    0  502  0.18718804038E+02  0.14533946818E+02  0.19871051054E+02  0.30927138644E+02  0.00000000000E+00 0.  1.
<mgrwt>
<rscale>  0 0.91065894E+02</rscale>
<asrwt>0</asrwt>
<pdfrwt beam="2">  1        2 0.11640482E-01 0.91065894E+02</pdfrwt>
<pdfrwt beam="1">  1       -2 0.42155462E-02 0.91065894E+02</pdfrwt>
<totfact> 0.11343652E+05</totfact>
</mgrwt>
</event>
<event>
 5    1  0.3963873E+001  0.7825416E+02  0.7546771E-02  0.1334080E+00
         -2   -1    0    0    0  501 -0.00000000000E+00  0.00000000000E+00  0.13221053982E+01  0.13221053982E+01  0.00000000000E+00 0.  1.
          2   -1    0    0  501    0  0.00000000000E+00 -0.00000000000E+00 -0.11579472294E+04  0.11579472294E+04  0.00000000000E+00 0. -1.
         23    2    1    2    0    0  0.00000000000E+00  0.00000000000E+00 -0.11566251240E+04  0.11592693348E+04  0.78254157278E+02 0.  0.
          2    1    3    3  502    0  0.99928155615E+00 -0.29148547578E+02 -0.96470140439E+03  0.96514218435E+03  0.00000000000E+00 0. -1.
         -2    1    3    3    0  502 -0.99928155615E+00  0.29148547578E+02 -0.19192371961E+03  0.19412715044E+03  0.00000000000E+00 0.  1.
<mgrwt>
<rscale>  0 0.78254157E+02</rscale>
<asrwt>0</asrwt>
<pdfrwt beam="2">  1        2 0.17814502E+00 0.78254157E+02</pdfrwt>
<pdfrwt beam="1">  1       -2 0.20340164E-03 0.78254157E+02</pdfrwt>
<totfact> 0.37197008E+05</totfact>
</mgrwt>
</event>
<event>
 5    1  0.3963873E+001  0.8984452E+02  0.7546771E-02  0.1303229E+00
          4   -1    0    0  501    0  0.00000000000E+00  0.00000000000E+00  0.64995300125E+01  0.64995300125E+01  0.00000000000E+00 0. -1.
         -4   -1    0    0    0  501 -0.00000000000E+00 -0.00000000000E+00 -0.31048541981E+03  0.31048541981E+03  0.00000000000E+00 0.  1.
         23    2    1    2    0    0  0.00000000000E+00  0.00000000000E+00 -0.30398588980E+03  0.31698494982E+03  0.89844516906E+02 0.  0.
          2    1    3    3  502    0  0.38863601516E+02 -0.11902481624E+02 -0.84499080064E+02  0.93766428551E+02  0.00000000000E+00 0. -1.
         -2    1    3    3    0  502 -0.38863601516E+02  0.11902481624E+02 -0.21948680973E+03  0.22321852127E+03  0.00000000000E+00 0.  1.
<mgrwt>
<rscale>  0 0.89844517E+02</rscale>
<asrwt>0</asrwt>
<pdfrwt beam="1">  1        4 0.99992770E-03 0.89844517E+02</pdfrwt>
<pdfrwt beam="2">  1       -4 0.47766987E-01 0.89844517E+02</pdfrwt>
<totfact> 0.18002857E+04</totfact>
</mgrwt>
</event>
<event>
 5    1  0.3963873E+001  0.9285524E+02  0.7546771E-02  0.1296081E+00
         -4   -1    0    0    0  501 -0.00000000000E+00  0.00000000000E+00  0.68073681636E+03  0.68073681636E+03  0.00000000000E+00 0.  1.
          4   -1    0    0  501    0  0.00000000000E+00 -0.00000000000E+00 -0.31664570189E+01  0.31664570189E+01  0.00000000000E+00 0. -1.
         23    2    1    2    0    0  0.00000000000E+00  0.00000000000E+00  0.67757035934E+03  0.68390327338E+03  0.92855239382E+02 0.  0.
          2    1    3    3  502    0  0.39379100293E+02 -0.49625670679E+01  0.16137813354E+03  0.16618737196E+03  0.00000000000E+00 0. -1.
         -2    1    3    3    0  502 -0.39379100293E+02  0.49625670679E+01  0.51619222580E+03  0.51771590142E+03  0.00000000000E+00 0.  1.
<mgrwt>
<rscale>  0 0.92855239E+02</rscale>
<asrwt>0</asrwt>
<pdfrwt beam="2">  1        4 0.48714777E-03 0.92855239E+02</pdfrwt>
<pdfrwt beam="1">  1       -4 0.10472862E+00 0.92855239E+02</pdfrwt>
<totfact> 0.97649079E+03</totfact>
</mgrwt>
</event>
<event>
 5    1  0.3963873E+001  0.9186514E+02  0.7546771E-02  0.1298397E+00
         -2   -1    0    0    0  501 -0.00000000000E+00  0.00000000000E+00  0.18361448006E+02  0.18361448006E+02  0.00000000000E+00 0.  1.
          2   -1    0    0  501    0  0.00000000000E+00 -0.00000000000E+00 -0.11490385566E+03  0.11490385566E+03  0.00000000000E+00 0. -1.
         23    2    1    2    0    0  0.00000000000E+00  0.00000000000E+00 -0.96542407649E+02  0.13326530366E+03  0.91865144018E+02 0.  0.
          2    1    3    3  502    0  0.34139828353E+02 -0.16604945490E+02 -0.10762420280E+02  0.39459875633E+02  0.00000000000E+00 0. -1.
         -2    1    3    3    0  502 -0.34139828353E+02  0.16604945490E+02 -0.85779987368E+02  0.93805428028E+02  0.00000000000E+00 0.  1.
<mgrwt>
<rscale>  0 0.91865144E+02</rscale>
<asrwt>0</asrwt>
<pdfrwt beam="2">  1        2 0.17677516E-01 0.91865144E+02</pdfrwt>
<pdfrwt beam="1">  1       -2 0.28248381E-02 0.91865144E+02</pdfrwt>
<totfact> 0.12546834E+05</totfact>
</mgrwt>
</event>
<event>
 5    1  0.3963873E+001  0.9108591E+02  0.7546771E-02  0.1300243E+00
         -1   -1    0    0    0  501 -0.00000000000E+00  0.00000000000E+00  0.72583359126E+02  0.72583359126E+02  0.00000000000E+00 0.  1.
          1   -1    0    0  501    0  0.00000000000E+00 -0.00000000000E+00 -0.28576259838E+02  0.28576259838E+02  0.00000000000E+00 0. -1.
         23    2    1    2    0    0  0.00000000000E+00  0.00000000000E+00  0.44007099288E+02  0.10115961896E+03  0.91085913957E+02 0.  0.
          2    1    3    3  502    0 -0.25630753408E+02  0.19659613470E+02 -0.13652019332E+02  0.35068697636E+02  0.00000000000E+00 0. -1.
         -2    1    3    3    0  502  0.25630753408E+02 -0.19659613470E+02  0.57659118620E+02  0.66090921329E+02  0.00000000000E+00 0.  1.
<mgrwt>
<rscale>  0 0.91085914E+02</rscale>
<asrwt>0</asrwt>
<pdfrwt beam="2">  1        1 0.43963477E-02 0.91085914E+02</pdfrwt>
<pdfrwt beam="1">  1       -1 0.11166671E-01 0.91085914E+02</pdfrwt>
<totfact> 0.86250359E+04</totfact>
</mgrwt>
</event>
<event>
 5    1  0.3963873E+001  0.9031442E+02  0.7546771E-02  0.1302092E+00
          2   -1    0    0  501    0  0.00000000000E+00  0.00000000000E+00  0.17360887586E+04  0.17360887586E+04  0.00000000000E+00 0. -1.
         -2   -1    0    0    0  501 -0.00000000000E+00 -0.00000000000E+00 -0.11745791919E+01  0.11745791919E+01  0.00000000000E+00 0.  1.
         23    2    1    2    0    0  0.00000000000E+00  0.00000000000E+00  0.17349141794E+04  0.17372633378E+04  0.90314422574E+02 0.  0.
          2    1    3    3  502    0 -0.26887337707E+02 -0.11868172230E+01  0.15649573635E+04  0.15651887704E+04  0.00000000000E+00 0. -1.
         -2    1    3    3    0  502  0.26887337707E+02  0.11868172230E+01  0.16995681594E+03  0.17207456741E+03  0.00000000000E+00 0.  1.
<mgrwt>
<rscale>  0 0.90314423E+02</rscale>
<asrwt>0</asrwt>
<pdfrwt beam="1">  1        2 0.26708852E+00 0.90314423E+02</pdfrwt>
<pdfrwt beam="2">  1       -2 0.18070588E-03 0.90314423E+02</pdfrwt>
<totfact> 0.22506407E+05</totfact>
</mgrwt>
</event>
<event>
 5    1  0.3963873E+001  0.1047823E+03  0.7546771E-02  0.1270549E+00
          1   -1    0    0  501    0  0.00000000000E+00  0.00000000000E+00  0.38363618328E+01  0.38363618328E+01  0.00000000000E+00 0.  1.
         -1   -1    0    0    0  501 -0.00000000000E+00 -0.00000000000E+00 -0.71547790421E+03  0.71547790421E+03  0.00000000000E+00 0. -1.
         23    2    1    2    0    0  0.00000000000E+00  0.00000000000E+00 -0.71164154238E+03  0.71931426604E+03  0.10478229095E+03 0.  0.
          2    1    3    3  502    0 -0.36736532209E+02 -0.19223366573E+02 -0.13596113039E+03  0.14214267339E+03  0.00000000000E+00 0.  1.
         -2    1    3    3    0  502  0.36736532209E+02  0.19223366573E+02 -0.57568041199E+03  0.57717159266E+03  0.00000000000E+00 0. -1.
<mgrwt>
<rscale>  0 0.10478229E+03</rscale>
<asrwt>0</asrwt>
<pdfrwt beam="1">  1        1 0.59020969E-03 0.10478229E+03</pdfrwt>
<pdfrwt beam="2">  1       -1 0.11007349E+00 0.10478229E+03</pdfrwt>
<totfact> 0.25041679E+04</totfact>
</mgrwt>
</event>
<event>
 5    1  0.3963873E+001  0.8968429E+02  0.7546771E-02  0.1303618E+00
         -2   -1    0    0    0  501 -0.00000000000E+00  0.00000000000E+00  0.13845706654E+01  0.13845706654E+01  0.00000000000E+00 0.  1.
          2   -1    0    0  501    0  0.00000000000E+00 -0.00000000000E+00 -0.14523041977E+04  0.14523041977E+04  0.00000000000E+00 0. -1.
         23    2    1    2    0    0  0.00000000000E+00  0.00000000000E+00 -0.14509196270E+04  0.14536887684E+04  0.89684286011E+02 0.  0.
          2    1    3    3  502    0 -0.38984895668E+02  0.14271784824E+02 -0.10002061148E+04  0.10010673194E+04  0.00000000000E+00 0. -1.
         -2    1    3    3    0  502  0.38984895668E+02 -0.14271784824E+02 -0.45071351223E+03  0.45262144894E+03  0.00000000000E+00 0.  1.
<mgrwt>
<rscale>  0 0.89684286E+02</rscale>
<asrwt>0</asrwt>
<pdfrwt beam="2">  1        2 0.22343189E+00 0.89684286E+02</pdfrwt>
<pdfrwt beam="1">  1       -2 0.21301042E-03 0.89684286E+02</pdfrwt>
<totfact> 0.24929128E+05</totfact>
</mgrwt>
</event>
<event>
 5    1  0.3963873E+001  0.8921065E+02  0.7546771E-02  0.1304775E+00
          4   -1    0    0  501    0  0.00000000000E+00  0.00000000000E+00  0.37551231172E+02  0.37551231172E+02  0.00000000000E+00 0. -1.
         -4   -1    0    0    0  501 -0.00000000000E+00 -0.00000000000E+00 -0.52984548538E+02  0.52984548538E+02  0.00000000000E+00 0.  1.
         23    2    1    2    0    0  0.00000000000E+00  0.00000000000E+00 -0.15433317366E+02  0.90535779711E+02  0.89210650277E+02 0.  0.
          2    1    3    3  502    0 -0.21756497519E+02  0.20780825918E+02  0.25703440242E+02  0.39570882608E+02  0.00000000000E+00 0. -1.
         -2    1    3    3    0  502  0.21756497519E+02 -0.20780825918E+02 -0.41136757608E+02  0.50964897102E+02  0.00000000000E+00 0.  1.
<mgrwt>
<rscale>  0 0.89210650E+02</rscale>
<asrwt>0</asrwt>
<pdfrwt beam="1">  1        4 0.57771125E-02 0.89210650E+02</pdfrwt>
<pdfrwt beam="2">  1       -4 0.81514690E-02 0.89210650E+02</pdfrwt>
<totfact> 0.28702038E+04</totfact>
</mgrwt>
</event>
<event>
 5    1  0.3963873E+001  0.9178846E+02  0.7546771E-02  0.1298578E+00
          1   -1    0    0  501    0  0.00000000000E+00  0.00000000000E+00  0.18556492736E+04  0.18556492736E+04  0.00000000000E+00 0. -1.
         -1   -1    0    0    0  501 -0.00000000000E+00 -0.00000000000E+00 -0.11350639132E+01  0.11350639132E+01  0.00000000000E+00 0.  1.
         23    2    1    2    0    0  0.00000000000E+00  0.00000000000E+00  0.18545142097E+04  0.18567843375E+04  0.91788463893E+02 0.  0.
          2    1    3    3  502    0 -0.81200410276E+01 -0.41307776506E+02  0.12969619022E+04  0.12976449604E+04  0.00000000000E+00 0. -1.
         -2    1    3    3    0  502  0.81200410276E+01  0.41307776506E+02  0.55755230746E+03  0.55913937709E+03  0.00000000000E+00 0.  1.
<mgrwt>
<rscale>  0 0.91788464E+02</rscale>
<asrwt>0</asrwt>
<pdfrwt beam="1">  1        1 0.28548208E+00 0.91788464E+02</pdfrwt>
<pdfrwt beam="2">  1       -1 0.17462670E-03 0.91788464E+02</pdfrwt>
<totfact> 0.86977313E+04</totfact>
</mgrwt>
</event>
<event>
 5    1  0.3963873E+001  0.8876873E+02  0.7546771E-02  0.1305861E+00
          2   -1    0    0  501    0  0.00000000000E+00  0.00000000000E+00  0.20342434889E+04  0.20342434889E+04  0.00000000000E+00 0. -1.
         -2   -1    0    0    0  501 -0.00000000000E+00 -0.00000000000E+00 -0.96840525123E+00  0.96840525123E+00  0.00000000000E+00 0.  1.
         23    2    1    2    0    0  0.00000000000E+00  0.00000000000E+00  0.20332750836E+04  0.20352118941E+04  0.88768734967E+02 0.  0.
          2    1    3    3  502    0 -0.15224657689E+02  0.35623512925E+02  0.52004045615E+03  0.52148144829E+03  0.00000000000E+00 0. -1.
         -2    1    3    3    0  502  0.15224657689E+02 -0.35623512925E+02  0.15132346275E+04  0.15137304458E+04  0.00000000000E+00 0.  1.
<mgrwt>
<rscale>  0 0.88768735E+02</rscale>
<asrwt>0</asrwt>
<pdfrwt beam="1">  1        2 0.31295712E+00 0.88768735E+02</pdfrwt>
<pdfrwt beam="2">  1       -2 0.14898705E-03 0.88768735E+02</pdfrwt>
<totfact> 0.20783748E+05</totfact>
</mgrwt>
</event>
<event>
 5    1  0.3963873E+001  0.9262539E+02  0.7546771E-02  0.1296616E+00
          4   -1    0    0  501    0  0.00000000000E+00  0.00000000000E+00  0.85836379041E+02  0.85836379041E+02  0.00000000000E+00 0. -1.
         -4   -1    0    0    0  501 -0.00000000000E+00 -0.00000000000E+00 -0.24987841515E+02  0.24987841515E+02  0.00000000000E+00 0.  1.
         23    2    1    2    0    0  0.00000000000E+00  0.00000000000E+00  0.60848537526E+02  0.11082422056E+03  0.92625392537E+02 0.  0.
          2    1    3    3  502    0  0.10106939360E+01  0.23133709905E+02  0.78412958052E+02  0.81760516307E+02  0.00000000000E+00 0. -1.
         -2    1    3    3    0  502 -0.10106939360E+01 -0.23133709905E+02 -0.17564420527E+02  0.29063704249E+02  0.00000000000E+00 0.  1.
<mgrwt>
<rscale>  0 0.92625393E+02</rscale>
<asrwt>0</asrwt>
<pdfrwt beam="1">  1        4 0.13205597E-01 0.92625393E+02</pdfrwt>
<pdfrwt beam="2">  1       -4 0.38442834E-02 0.92625393E+02</pdfrwt>
<totfact> 0.24723684E+04</totfact>
</mgrwt>
</event>
<event>
 5    1  0.3963873E+001  0.8981114E+02  0.7546771E-02  0.1303310E+00
         -2   -1    0    0    0  501 -0.00000000000E+00  0.00000000000E+00  0.87007393757E+01  0.87007393757E+01  0.00000000000E+00 0.  1.
          2   -1    0    0  501    0  0.00000000000E+00 -0.00000000000E+00 -0.23176309155E+03  0.23176309155E+03  0.00000000000E+00 0. -1.
         23    2    1    2    0    0  0.00000000000E+00  0.00000000000E+00 -0.22306235217E+03  0.24046383092E+03  0.89811140878E+02 0.  0.
          2    1    3    3  502    0  0.98638068208E+01 -0.27385370586E+02 -0.20308459077E+03  0.20515994788E+03  0.00000000000E+00 0. -1.
         -2    1    3    3    0  502 -0.98638068208E+01  0.27385370586E+02 -0.19977761403E+02  0.35303883041E+02  0.00000000000E+00 0.  1.
<mgrwt>
<rscale>  0 0.89811141E+02</rscale>
<asrwt>0</asrwt>
<pdfrwt beam="2">  1        2 0.35655860E-01 0.89811141E+02</pdfrwt>
<pdfrwt beam="1">  1       -2 0.13385753E-02 0.89811141E+02</pdfrwt>
<totfact> 0.16996650E+05</totfact>
</mgrwt>
</event>
<event>
 5    1  0.3963873E+001  0.9443308E+02  0.7546771E-02  0.1292458E+00
         -2   -1    0    0    0  501 -0.00000000000E+00  0.00000000000E+00  0.37046875608E+03  0.37046875608E+03  0.00000000000E+00 0.  1.
          2   -1    0    0  501    0  0.00000000000E+00 -0.00000000000E+00 -0.60177856001E+01  0.60177856001E+01  0.00000000000E+00 0. -1.
         23    2    1    2    0    0  0.00000000000E+00  0.00000000000E+00  0.36445097048E+03  0.37648654168E+03  0.94433077799E+02 0.  0.
          2    1    3    3  502    0 -0.23304326418E+02 -0.24538116357E+02  0.50951653334E+02  0.61166018030E+02  0.00000000000E+00 0. -1.
         -2    1    3    3    0  502  0.23304326418E+02  0.24538116357E+02  0.31349931715E+03  0.31532052365E+03  0.00000000000E+00 0.  1.
<mgrwt>
<rscale>  0 0.94433078E+02</rscale>
<asrwt>0</asrwt>
<pdfrwt beam="2">  1        2 0.92581346E-03 0.94433078E+02</pdfrwt>
<pdfrwt beam="1">  1       -2 0.56995176E-01 0.94433078E+02</pdfrwt>
<totfact> 0.41013014E+04</totfact>
</mgrwt>
</event>
<event>
 5    1  0.3963873E+001  0.9013115E+02  0.7546771E-02  0.1302534E+00
         -1   -1    0    0    0  501 -0.00000000000E+00  0.00000000000E+00  0.47138319064E+01  0.47138319064E+01  0.00000000000E+00 0.  1.
          1   -1    0    0  501    0  0.00000000000E+00 -0.00000000000E+00 -0.43083977162E+03  0.43083977162E+03  0.00000000000E+00 0. -1.
         23    2    1    2    0    0  0.00000000000E+00  0.00000000000E+00 -0.42612593971E+03  0.43555360352E+03  0.90131154702E+02 0.  0.
          2    1    3    3  502    0 -0.30158282135E+02 -0.10479757518E+02 -0.36675886811E+03  0.36814591487E+03  0.00000000000E+00 0. -1.
         -2    1    3    3    0  502  0.30158282135E+02  0.10479757518E+02 -0.59367071596E+02  0.67407688648E+02  0.00000000000E+00 0.  1.
<mgrwt>
<rscale>  0 0.90131155E+02</rscale>
<asrwt>0</asrwt>
<pdfrwt beam="2">  1        1 0.66283023E-01 0.90131155E+02</pdfrwt>
<pdfrwt beam="1">  1       -1 0.72520511E-03 0.90131155E+02</pdfrwt>
<totfact> 0.14071898E+05</totfact>
</mgrwt>
</event>
<event>
 5    1  0.3963873E+001  0.9337317E+02  0.7546771E-02  0.1294883E+00
         -1   -1    0    0    0  501 -0.00000000000E+00  0.00000000000E+00  0.12295935043E+02  0.12295935043E+02  0.00000000000E+00 0.  1.
          1   -1    0    0  501    0  0.00000000000E+00 -0.00000000000E+00 -0.17726485556E+03  0.17726485556E+03  0.00000000000E+00 0. -1.
         23    2    1    2    0    0  0.00000000000E+00  0.00000000000E+00 -0.16496892051E+03  0.18956079060E+03  0.93373168510E+02 0.  0.
          2    1    3    3  502    0  0.91659953810E+01 -0.29672011825E+02 -0.15325444707E+03  0.15636933620E+03  0.00000000000E+00 0. -1.
         -2    1    3    3    0  502 -0.91659953810E+01  0.29672011825E+02 -0.11714473441E+02  0.33191454398E+02  0.00000000000E+00 0.  1.
<mgrwt>
<rscale>  0 0.93373169E+02</rscale>
<asrwt>0</asrwt>
<pdfrwt beam="2">  1        1 0.27271512E-01 0.93373169E+02</pdfrwt>
<pdfrwt beam="1">  1       -1 0.18916826E-02 0.93373169E+02</pdfrwt>
<totfact> 0.10850248E+05</totfact>
</mgrwt>
</event>
<event>
 5    1  0.3963873E+001  0.8921948E+02  0.7546771E-02  0.1304753E+00
         -3   -1    0    0    0  501 -0.00000000000E+00  0.00000000000E+00  0.51921117993E+02  0.51921117993E+02  0.00000000000E+00 0.  1.
          3   -1    0    0  501    0  0.00000000000E+00 -0.00000000000E+00 -0.38327930943E+02  0.38327930943E+02  0.00000000000E+00 0. -1.
         23    2    1    2    0    0  0.00000000000E+00  0.00000000000E+00  0.13593187050E+02  0.90249048936E+02  0.89219482736E+02 0.  0.
          2    1    3    3  502    0  0.40439148486E+02 -0.71300842920E+01 -0.10836321925E+02  0.42468679107E+02  0.00000000000E+00 0. -1.
         -2    1    3    3    0  502 -0.40439148486E+02  0.71300842920E+01  0.24429508974E+02  0.47780369829E+02  0.00000000000E+00 0.  1.
<mgrwt>
<rscale>  0 0.89219483E+02</rscale>
<asrwt>0</asrwt>
<pdfrwt beam="2">  1        3 0.58966048E-02 0.89219483E+02</pdfrwt>
<pdfrwt beam="1">  1       -3 0.79878643E-02 0.89219483E+02</pdfrwt>
<totfact> 0.37561880E+04</totfact>
</mgrwt>
</event>
<event>
 5    1  0.3963873E+001  0.8503324E+02  0.7546771E-02  0.1315346E+00
          2   -1    0    0  501    0  0.00000000000E+00  0.00000000000E+00  0.57449569870E+02  0.57449569870E+02  0.00000000000E+00 0. -1.
         -2   -1    0    0    0  501 -0.00000000000E+00 -0.00000000000E+00 -0.31465216431E+02  0.31465216431E+02  0.00000000000E+00 0.  1.
         23    2    1    2    0    0  0.00000000000E+00  0.00000000000E+00  0.25984353439E+02  0.88914786300E+02  0.85033244082E+02 0.  0.
          2    1    3    3  502    0 -0.16695134031E+02 -0.33848506234E+02  0.33461622322E+02  0.50439360058E+02  0.00000000000E+00 0. -1.
         -2    1    3    3    0  502  0.16695134031E+02  0.33848506234E+02 -0.74772688828E+01  0.38475426243E+02  0.00000000000E+00 0.  1.
<mgrwt>
<rscale>  0 0.85033244E+02</rscale>
<asrwt>0</asrwt>
<pdfrwt beam="1">  1        2 0.88383954E-02 0.85033244E+02</pdfrwt>
<pdfrwt beam="2">  1       -2 0.48408025E-02 0.85033244E+02</pdfrwt>
<totfact> 0.12752961E+05</totfact>
</mgrwt>
</event>
<event>
 5    1  0.3963873E+001  0.9398595E+02  0.7546771E-02  0.1293476E+00
          3   -1    0    0  501    0  0.00000000000E+00  0.00000000000E+00  0.31898673166E+03  0.31898673166E+03  0.00000000000E+00 0.  1.
         -3   -1    0    0    0  501 -0.00000000000E+00 -0.00000000000E+00 -0.69229829845E+01  0.69229829845E+01  0.00000000000E+00 0. -1.
         23    2    1    2    0    0  0.00000000000E+00  0.00000000000E+00  0.31206374867E+03  0.32590971464E+03  0.93985950345E+02 0.  0.
          2    1    3    3  502    0  0.26853605172E+02  0.25752936583E+02  0.56491201125E+02  0.67643075461E+02  0.00000000000E+00 0. -1.
         -2    1    3    3    0  502 -0.26853605172E+02 -0.25752936583E+02  0.25557254755E+03  0.25826663918E+03  0.00000000000E+00 0.  1.
<mgrwt>
<rscale>  0 0.93985950E+02</rscale>
<asrwt>0</asrwt>
<pdfrwt beam="1">  1        3 0.49074870E-01 0.93985950E+02</pdfrwt>
<pdfrwt beam="2">  1       -3 0.10650746E-02 0.93985950E+02</pdfrwt>
<totfact> 0.21255015E+04</totfact>
</mgrwt>
</event>
<event>
 5    1  0.3963873E+001  0.8934990E+02  0.7546771E-02  0.1304434E+00
         -1   -1    0    0    0  501 -0.00000000000E+00  0.00000000000E+00  0.33047420285E+01  0.33047420285E+01  0.00000000000E+00 0.  1.
          1   -1    0    0  501    0  0.00000000000E+00 -0.00000000000E+00 -0.60393556787E+03  0.60393556787E+03  0.00000000000E+00 0. -1.
         23    2    1    2    0    0  0.00000000000E+00  0.00000000000E+00 -0.60063082584E+03  0.60724030990E+03  0.89349902153E+02 0.  0.
          2    1    3    3  502    0  0.30965264486E+02 -0.14147048266E+02 -0.10371060693E+03  0.10915528650E+03  0.00000000000E+00 0. -1.
         -2    1    3    3    0  502 -0.30965264486E+02  0.14147048266E+02 -0.49692021891E+03  0.49808502340E+03  0.00000000000E+00 0.  1.
<mgrwt>
<rscale>  0 0.89349902E+02</rscale>
<asrwt>0</asrwt>
<pdfrwt beam="2">  1        1 0.92913104E-01 0.89349902E+02</pdfrwt>
<pdfrwt beam="1">  1       -1 0.50842218E-03 0.89349902E+02</pdfrwt>
<totfact> 0.14942648E+05</totfact>
</mgrwt>
</event>
<event>
 5    1  0.3963873E+001  0.8992156E+02  0.7546771E-02  0.1303042E+00
         -2   -1    0    0    0  501 -0.00000000000E+00  0.00000000000E+00  0.20454392154E+01  0.20454392154E+01  0.00000000000E+00 0.  1.
          2   -1    0    0  501    0  0.00000000000E+00 -0.00000000000E+00 -0.98828248890E+03  0.98828248890E+03  0.00000000000E+00 0. -1.
         23    2    1    2    0    0  0.00000000000E+00  0.00000000000E+00 -0.98623704969E+03  0.99032792812E+03  0.89921560456E+02 0.  0.
          2    1    3    3  502    0 -0.34019345340E+02 -0.12990885368E+02 -0.78354104274E+03  0.78438679529E+03  0.00000000000E+00 0. -1.
         -2    1    3    3    0  502  0.34019345340E+02  0.12990885368E+02 -0.20269600694E+03  0.20594113283E+03  0.00000000000E+00 0.  1.
<mgrwt>
<rscale>  0 0.89921560E+02</rscale>
<asrwt>0</asrwt>
<pdfrwt beam="2">  1        2 0.15204347E+00 0.89921560E+02</pdfrwt>
<pdfrwt beam="1">  1       -2 0.31468293E-03 0.89921560E+02</pdfrwt>
<totfact> 0.25915652E+05</totfact>
</mgrwt>
</event>
<event>
 5    1  0.3963873E+001  0.8850559E+02  0.7546771E-02  0.1306512E+00
          1   -1    0    0  501    0  0.00000000000E+00  0.00000000000E+00  0.11034298995E+02  0.11034298995E+02  0.00000000000E+00 0. -1.
         -1   -1    0    0    0  501 -0.00000000000E+00 -0.00000000000E+00 -0.17747477702E+03  0.17747477702E+03  0.00000000000E+00 0.  1.
         23    2    1    2    0    0  0.00000000000E+00  0.00000000000E+00 -0.16644047803E+03  0.18850907602E+03  0.88505587478E+02 0.  0.
          2    1    3    3  502    0  0.35106520116E+02  0.20141976088E+02 -0.12132975596E+03  0.12790260606E+03  0.00000000000E+00 0. -1.
         -2    1    3    3    0  502 -0.35106520116E+02 -0.20141976088E+02 -0.45110722071E+02  0.60606469962E+02  0.00000000000E+00 0.  1.
<mgrwt>
<rscale>  0 0.88505587E+02</rscale>
<asrwt>0</asrwt>
<pdfrwt beam="1">  1        1 0.16975846E-02 0.88505587E+02</pdfrwt>
<pdfrwt beam="2">  1       -1 0.27303809E-01 0.88505587E+02</pdfrwt>
<totfact> 0.77496675E+04</totfact>
</mgrwt>
</event>
<event>
 5    1  0.3963873E+001  0.9010984E+02  0.7546771E-02  0.1302586E+00
         -2   -1    0    0    0  501 -0.00000000000E+00  0.00000000000E+00  0.28614629268E+01  0.28614629268E+01  0.00000000000E+00 0.  1.
          2   -1    0    0  501    0  0.00000000000E+00 -0.00000000000E+00 -0.70940835818E+03  0.70940835818E+03  0.00000000000E+00 0. -1.
         23    2    1    2    0    0  0.00000000000E+00  0.00000000000E+00 -0.70654689525E+03  0.71226982111E+03  0.90109837796E+02 0.  0.
          2    1    3    3  502    0  0.37211905465E+02  0.24509535005E+02 -0.30054262437E+03  0.30382776746E+03  0.00000000000E+00 0.  1.
         -2    1    3    3    0  502 -0.37211905465E+02 -0.24509535005E+02 -0.40600427088E+03  0.40844205365E+03  0.00000000000E+00 0. -1.
<mgrwt>
<rscale>  0 0.90109838E+02</rscale>
<asrwt>0</asrwt>
<pdfrwt beam="2">  1        2 0.10913969E+00 0.90109838E+02</pdfrwt>
<pdfrwt beam="1">  1       -2 0.44022528E-03 0.90109838E+02</pdfrwt>
<totfact> 0.24536860E+05</totfact>
</mgrwt>
</event>
<event>
 5    1  0.3963873E+001  0.9561291E+02  0.7546771E-02  0.1289802E+00
         -1   -1    0    0    0  501 -0.00000000000E+00  0.00000000000E+00  0.86592389610E+00  0.86592389610E+00  0.00000000000E+00 0.  1.
          1   -1    0    0  501    0  0.00000000000E+00 -0.00000000000E+00 -0.26393281072E+04  0.26393281072E+04  0.00000000000E+00 0. -1.
         23    2    1    2    0    0  0.00000000000E+00  0.00000000000E+00 -0.26384621833E+04  0.26401940311E+04  0.95612912887E+02 0.  0.
          2    1    3    3  502    0 -0.11360617203E+02 -0.38676773830E+02 -0.20289003231E+04  0.20293007361E+04  0.00000000000E+00 0. -1.
         -2    1    3    3    0  502  0.11360617203E+02  0.38676773830E+02 -0.60956186026E+03  0.61089329505E+03  0.00000000000E+00 0.  1.
<mgrwt>
<rscale>  0 0.95612913E+02</rscale>
<asrwt>0</asrwt>
<pdfrwt beam="2">  1        1 0.40605391E+00 0.95612913E+02</pdfrwt>
<pdfrwt beam="1">  1       -1 0.13321793E-03 0.95612913E+02</pdfrwt>
<totfact> 0.40324973E+04</totfact>
</mgrwt>
</event>
<event>
 5    1  0.3963873E+001  0.9287316E+02  0.7546771E-02  0.1296039E+00
          2   -1    0    0  501    0  0.00000000000E+00  0.00000000000E+00  0.39131821210E+02  0.39131821210E+02  0.00000000000E+00 0. -1.
         -2   -1    0    0    0  501 -0.00000000000E+00 -0.00000000000E+00 -0.55104917893E+02  0.55104917893E+02  0.00000000000E+00 0.  1.
         23    2    1    2    0    0  0.00000000000E+00  0.00000000000E+00 -0.15973096683E+02  0.94236739103E+02  0.92873156397E+02 0.  0.
          2    1    3    3  502    0 -0.45535046127E+02 -0.87112507341E+01 -0.10676792100E+02  0.47574364995E+02  0.00000000000E+00 0.  1.
         -2    1    3    3    0  502  0.45535046127E+02  0.87112507341E+01 -0.52963045827E+01  0.46662374108E+02  0.00000000000E+00 0. -1.
<mgrwt>
<rscale>  0 0.92873156E+02</rscale>
<asrwt>0</asrwt>
<pdfrwt beam="1">  1        2 0.60202802E-02 0.92873156E+02</pdfrwt>
<pdfrwt beam="2">  1       -2 0.84776797E-02 0.92873156E+02</pdfrwt>
<totfact> 0.89894158E+04</totfact>
</mgrwt>
</event>
<event>
 5    1  0.3963873E+001  0.9077753E+02  0.7546771E-02  0.1300980E+00
         -1   -1    0    0    0  501 -0.00000000000E+00  0.00000000000E+00  0.15045525283E+01  0.15045525283E+01  0.00000000000E+00 0.  1.
          1   -1    0    0  501    0  0.00000000000E+00 -0.00000000000E+00 -0.13692709352E+04  0.13692709352E+04  0.00000000000E+00 0. -1.
         23    2    1    2    0    0  0.00000000000E+00  0.00000000000E+00 -0.13677663827E+04  0.13707754877E+04  0.90777531305E+02 0.  0.
          2    1    3    3  502    0  0.88581701760E+01 -0.21826346873E+02 -0.12697475864E+04  0.12699660585E+04  0.00000000000E+00 0. -1.
         -2    1    3    3    0  502 -0.88581701760E+01  0.21826346873E+02 -0.98018796227E+02  0.10080942917E+03  0.00000000000E+00 0.  1.
<mgrwt>
<rscale>  0 0.90777531E+02</rscale>
<asrwt>0</asrwt>
<pdfrwt beam="2">  1        1 0.21065770E+00 0.90777531E+02</pdfrwt>
<pdfrwt beam="1">  1       -1 0.23146892E-03 0.90777531E+02</pdfrwt>
<totfact> 0.11958009E+05</totfact>
</mgrwt>
</event>
<event>
 5    1  0.3963873E+001  0.9023031E+02  0.7546771E-02  0.1302295E+00
         -1   -1    0    0    0  501 -0.00000000000E+00  0.00000000000E+00  0.16582602353E+02  0.16582602353E+02  0.00000000000E+00 0.  1.
          1   -1    0    0  501    0  0.00000000000E+00 -0.00000000000E+00 -0.12274172665E+03  0.12274172665E+03  0.00000000000E+00 0. -1.
         23    2    1    2    0    0  0.00000000000E+00  0.00000000000E+00 -0.10615912429E+03  0.13932432900E+03  0.90230310763E+02 0.  0.
          2    1    3    3  502    0  0.18119319246E+02 -0.38150920639E+02 -0.77570648455E+02  0.88323315026E+02  0.00000000000E+00 0. -1.
         -2    1    3    3    0  502 -0.18119319246E+02  0.38150920639E+02 -0.28588475839E+02  0.51001013974E+02  0.00000000000E+00 0.  1.
<mgrwt>
<rscale>  0 0.90230311E+02</rscale>
<asrwt>0</asrwt>
<pdfrwt beam="2">  1        1 0.18883343E-01 0.90230311E+02</pdfrwt>
<pdfrwt beam="1">  1       -1 0.25511695E-02 0.90230311E+02</pdfrwt>
<totfact> 0.11126337E+05</totfact>
</mgrwt>
</event>
<event>
 5    1  0.3963873E+001  0.9038589E+02  0.7546771E-02  0.1301920E+00
         -2   -1    0    0    0  501 -0.00000000000E+00  0.00000000000E+00  0.42317263483E+01  0.42317263483E+01  0.00000000000E+00 0.  1.
          2   -1    0    0  501    0  0.00000000000E+00 -0.00000000000E+00 -0.48264039983E+03  0.48264039983E+03  0.00000000000E+00 0. -1.
         23    2    1    2    0    0  0.00000000000E+00  0.00000000000E+00 -0.47840867348E+03  0.48687212618E+03  0.90385885994E+02 0.  0.
          2    1    3    3  502    0  0.29511773748E+02  0.15065584522E+02 -0.40474776035E+03  0.40610179282E+03  0.00000000000E+00 0. -1.
         -2    1    3    3    0  502 -0.29511773748E+02 -0.15065584522E+02 -0.73660913130E+02  0.80770333353E+02  0.00000000000E+00 0.  1.
<mgrwt>
<rscale>  0 0.90385886E+02</rscale>
<asrwt>0</asrwt>
<pdfrwt beam="2">  1        2 0.74252357E-01 0.90385886E+02</pdfrwt>
<pdfrwt beam="1">  1       -2 0.65103493E-03 0.90385886E+02</pdfrwt>
<totfact> 0.21797940E+05</totfact>
</mgrwt>
</event>
<event>
 5    1  0.3963873E+001  0.9151536E+02  0.7546771E-02  0.1299223E+00
         -3   -1    0    0    0  501 -0.00000000000E+00  0.00000000000E+00  0.23887505413E+03  0.23887505413E+03  0.00000000000E+00 0.  1.
          3   -1    0    0  501    0  0.00000000000E+00 -0.00000000000E+00 -0.87651065413E+01  0.87651065413E+01  0.00000000000E+00 0. -1.
         23    2    1    2    0    0  0.00000000000E+00  0.00000000000E+00  0.23010994759E+03  0.24764016067E+03  0.91515360448E+02 0.  0.
          2    1    3    3  502    0 -0.45114650575E+02 -0.75484436105E+01  0.11179135689E+03  0.12078749179E+03  0.00000000000E+00 0.  1.
         -2    1    3    3    0  502  0.45114650575E+02  0.75484436105E+01  0.11831859070E+03  0.12685266888E+03  0.00000000000E+00 0. -1.
<mgrwt>
<rscale>  0 0.91515360E+02</rscale>
<asrwt>0</asrwt>
<pdfrwt beam="2">  1        3 0.13484781E-02 0.91515360E+02</pdfrwt>
<pdfrwt beam="1">  1       -3 0.36750003E-01 0.91515360E+02</pdfrwt>
<totfact> 0.25944414E+04</totfact>
</mgrwt>
</event>
<event>
 5    1  0.3963873E+001  0.9318857E+02  0.7546771E-02  0.1295309E+00
          1   -1    0    0  501    0  0.00000000000E+00  0.00000000000E+00  0.78785010959E+02  0.78785010959E+02  0.00000000000E+00 0. -1.
         -1   -1    0    0    0  501 -0.00000000000E+00 -0.00000000000E+00 -0.27556352915E+02  0.27556352915E+02  0.00000000000E+00 0.  1.
         23    2    1    2    0    0  0.00000000000E+00  0.00000000000E+00  0.51228658045E+02  0.10634136387E+03  0.93188573686E+02 0.  0.
          2    1    3    3  502    0 -0.36185699629E+02  0.28240662866E+02  0.34749712896E+02  0.57571541956E+02  0.00000000000E+00 0. -1.
         -2    1    3    3    0  502  0.36185699629E+02 -0.28240662866E+02  0.16478945149E+02  0.48769821919E+02  0.00000000000E+00 0.  1.
<mgrwt>
<rscale>  0 0.93188574E+02</rscale>
<asrwt>0</asrwt>
<pdfrwt beam="1">  1        1 0.12120771E-01 0.93188574E+02</pdfrwt>
<pdfrwt beam="2">  1       -1 0.42394389E-02 0.93188574E+02</pdfrwt>
<totfact> 0.94641185E+04</totfact>
</mgrwt>
</event>
<event>
 5    1  0.3963873E+001  0.9265517E+02  0.7546771E-02  0.1296546E+00
          3   -1    0    0  501    0  0.00000000000E+00  0.00000000000E+00  0.65304302620E+01  0.65304302620E+01  0.00000000000E+00 0. -1.
         -3   -1    0    0    0  501 -0.00000000000E+00 -0.00000000000E+00 -0.32865294761E+03  0.32865294761E+03  0.00000000000E+00 0.  1.
         23    2    1    2    0    0  0.00000000000E+00  0.00000000000E+00 -0.32212251735E+03  0.33518337787E+03  0.92655170493E+02 0.  0.
          2    1    3    3  502    0  0.36888157217E+02  0.87292660605E+01 -0.64715960240E+02  0.75000611588E+02  0.00000000000E+00 0. -1.
         -2    1    3    3    0  502 -0.36888157217E+02 -0.87292660605E+01 -0.25740655711E+03  0.26018276628E+03  0.00000000000E+00 0.  1.
<mgrwt>
<rscale>  0 0.92655170E+02</rscale>
<asrwt>0</asrwt>
<pdfrwt beam="1">  1        3 0.10046813E-02 0.92655170E+02</pdfrwt>
<pdfrwt beam="2">  1       -3 0.50562006E-01 0.92655170E+02</pdfrwt>
<totfact> 0.21759963E+04</totfact>
</mgrwt>
</event>
<event>
 5    1  0.3963873E+001  0.9104876E+02  0.7546771E-02  0.1300332E+00
          1   -1    0    0  501    0  0.00000000000E+00  0.00000000000E+00  0.12130499429E+01  0.12130499429E+01  0.00000000000E+00 0. -1.
         -1   -1    0    0    0  501 -0.00000000000E+00 -0.00000000000E+00 -0.17084779252E+04  0.17084779252E+04  0.00000000000E+00 0.  1.
         23    2    1    2    0    0  0.00000000000E+00  0.00000000000E+00 -0.17072648753E+04  0.17096909751E+04  0.91048757260E+02 0.  0.
          2    1    3    3  502    0  0.58475034728E+01  0.24302617082E+02 -0.13917449690E+03  0.14140138288E+03  0.00000000000E+00 0. -1.
         -2    1    3    3    0  502 -0.58475034728E+01 -0.24302617082E+02 -0.15680903784E+04  0.15682895923E+04  0.00000000000E+00 0.  1.
<mgrwt>
<rscale>  0 0.91048757E+02</rscale>
<asrwt>0</asrwt>
<pdfrwt beam="1">  1        1 0.18662158E-03 0.91048757E+02</pdfrwt>
<pdfrwt beam="2">  1       -1 0.26284486E+00 0.91048757E+02</pdfrwt>
<totfact> 0.10523798E+04</totfact>
</mgrwt>
</event>
<event>
 5    1  0.3963873E+001  0.9102127E+02  0.7546771E-02  0.1300397E+00
         -2   -1    0    0    0  501 -0.00000000000E+00  0.00000000000E+00  0.57665448588E+02  0.57665448588E+02  0.00000000000E+00 0.  1.
          2   -1    0    0  501    0  0.00000000000E+00 -0.00000000000E+00 -0.35917833322E+02  0.35917833322E+02  0.00000000000E+00 0. -1.
         23    2    1    2    0    0  0.00000000000E+00  0.00000000000E+00  0.21747615266E+02  0.93583281910E+02  0.91021271598E+02 0.  0.
          2    1    3    3  502    0 -0.21810004280E+02  0.32620089352E+01  0.51805192650E+02  0.56303596461E+02  0.00000000000E+00 0.  1.
         -2    1    3    3    0  502  0.21810004280E+02 -0.32620089352E+01 -0.30057577384E+02  0.37279685449E+02  0.00000000000E+00 0. -1.
<mgrwt>
<rscale>  0 0.91021272E+02</rscale>
<asrwt>0</asrwt>
<pdfrwt beam="2">  1        2 0.55258205E-02 0.91021272E+02</pdfrwt>
<pdfrwt beam="1">  1       -2 0.88716075E-02 0.91021272E+02</pdfrwt>
<totfact> 0.93226287E+04</totfact>
</mgrwt>
</event>
<event>
 5    1  0.3963873E+001  0.8888553E+02  0.7546771E-02  0.1305573E+00
         -2   -1    0    0    0  501 -0.00000000000E+00  0.00000000000E+00  0.27398214132E+01  0.27398214132E+01  0.00000000000E+00 0.  1.
          2   -1    0    0  501    0  0.00000000000E+00 -0.00000000000E+00 -0.72090800805E+03  0.72090800805E+03  0.00000000000E+00 0. -1.
         23    2    1    2    0    0  0.00000000000E+00  0.00000000000E+00 -0.71816818664E+03  0.72364782946E+03  0.88885526322E+02 0.  0.
          2    1    3    3  502    0  0.74718283598E+01 -0.42429307082E+02 -0.44792736130E+03  0.44999443921E+03  0.00000000000E+00 0. -1.
         -2    1    3    3    0  502 -0.74718283598E+01  0.42429307082E+02 -0.27024082534E+03  0.27365339026E+03  0.00000000000E+00 0.  1.
<mgrwt>
<rscale>  0 0.88885526E+02</rscale>
<asrwt>0</asrwt>
<pdfrwt beam="2">  1        2 0.11090901E+00 0.88885526E+02</pdfrwt>
<pdfrwt beam="1">  1       -2 0.42151066E-03 0.88885526E+02</pdfrwt>
<totfact> 0.25528238E+05</totfact>
</mgrwt>
</event>
<event>
 5    1  0.3963873E+001  0.9223208E+02  0.7546771E-02  0.1297535E+00
         -1   -1    0    0    0  501 -0.00000000000E+00  0.00000000000E+00  0.61045577365E+01  0.61045577365E+01  0.00000000000E+00 0.  1.
          1   -1    0    0  501    0  0.00000000000E+00 -0.00000000000E+00 -0.34837727226E+03  0.34837727226E+03  0.00000000000E+00 0. -1.
         23    2    1    2    0    0  0.00000000000E+00  0.00000000000E+00 -0.34227271452E+03  0.35448182999E+03  0.92232080591E+02 0.  0.
          2    1    3    3  502    0 -0.20683785814E+02 -0.19984380318E+02 -0.30968402935E+03  0.31101670773E+03  0.00000000000E+00 0. -1.
         -2    1    3    3    0  502  0.20683785814E+02  0.19984380318E+02 -0.32588685170E+02  0.43465122263E+02  0.00000000000E+00 0.  1.
<mgrwt>
<rscale>  0 0.92232081E+02</rscale>
<asrwt>0</asrwt>
<pdfrwt beam="2">  1        1 0.53596491E-01 0.92232081E+02</pdfrwt>
<pdfrwt beam="1">  1       -1 0.93916294E-03 0.92232081E+02</pdfrwt>
<totfact> 0.12774874E+05</totfact>
</mgrwt>
</event>
<event>
 5    1  0.3963873E+001  0.9164771E+02  0.7546771E-02  0.1298910E+00
         -1   -1    0    0    0  501 -0.00000000000E+00  0.00000000000E+00  0.27540385742E+03  0.27540385742E+03  0.00000000000E+00 0.  1.
          1   -1    0    0  501    0  0.00000000000E+00 -0.00000000000E+00 -0.76245325889E+01  0.76245325889E+01  0.00000000000E+00 0. -1.
         23    2    1    2    0    0  0.00000000000E+00  0.00000000000E+00  0.26777932483E+03  0.28302839001E+03  0.91647709977E+02 0.  0.
          2    1    3    3  502    0 -0.14878917433E+02 -0.41290066859E+02  0.93203140100E+02  0.10301978999E+03  0.00000000000E+00 0. -1.
         -2    1    3    3    0  502  0.14878917433E+02  0.41290066859E+02  0.17457618473E+03  0.18000860002E+03  0.00000000000E+00 0.  1.
<mgrwt>
<rscale>  0 0.91647710E+02</rscale>
<asrwt>0</asrwt>
<pdfrwt beam="2">  1        1 0.11730052E-02 0.91647710E+02</pdfrwt>
<pdfrwt beam="1">  1       -1 0.42369817E-01 0.91647710E+02</pdfrwt>
<totfact> 0.61751881E+04</totfact>
</mgrwt>
</event>
<event>
 5    1  0.3963873E+001  0.9003561E+02  0.7546771E-02  0.1302765E+00
         -1   -1    0    0    0  501 -0.00000000000E+00  0.00000000000E+00  0.94775286503E+01  0.94775286503E+01  0.00000000000E+00 0.  1.
          1   -1    0    0  501    0  0.00000000000E+00 -0.00000000000E+00 -0.21383240043E+03  0.21383240043E+03  0.00000000000E+00 0. -1.
         23    2    1    2    0    0  0.00000000000E+00  0.00000000000E+00 -0.20435487178E+03  0.22330992908E+03  0.90035608544E+02 0.  0.
          2    1    3    3  502    0 -0.15377508163E+02 -0.19094136577E+02 -0.19582247770E+03  0.19735120112E+03  0.00000000000E+00 0. -1.
         -2    1    3    3    0  502  0.15377508163E+02  0.19094136577E+02 -0.85323940821E+01  0.25958727968E+02  0.00000000000E+00 0.  1.
<mgrwt>
<rscale>  0 0.90035609E+02</rscale>
<asrwt>0</asrwt>
<pdfrwt beam="2">  1        1 0.32897286E-01 0.90035609E+02</pdfrwt>
<pdfrwt beam="1">  1       -1 0.14580816E-02 0.90035609E+02</pdfrwt>
<totfact> 0.12406715E+05</totfact>
</mgrwt>
</event>
<event>
 5    1  0.3963873E+001  0.9247679E+02  0.7546771E-02  0.1296962E+00
          1   -1    0    0  501    0  0.00000000000E+00  0.00000000000E+00  0.10238617502E+04  0.10238617502E+04  0.00000000000E+00 0. -1.
         -1   -1    0    0    0  501 -0.00000000000E+00 -0.00000000000E+00 -0.20881620229E+01  0.20881620229E+01  0.00000000000E+00 0.  1.
         23    2    1    2    0    0  0.00000000000E+00  0.00000000000E+00  0.10217735881E+04  0.10259499122E+04  0.92476791109E+02 0.  0.
          2    1    3    3  502    0  0.23807467750E+02 -0.28296454034E+02  0.81883733150E+03  0.81967192235E+03  0.00000000000E+00 0. -1.
         -2    1    3    3    0  502 -0.23807467750E+02  0.28296454034E+02  0.20293625665E+03  0.20627798984E+03  0.00000000000E+00 0.  1.
<mgrwt>
<rscale>  0 0.92476791E+02</rscale>
<asrwt>0</asrwt>
<pdfrwt beam="1">  1        1 0.15751679E+00 0.92476791E+02</pdfrwt>
<pdfrwt beam="2">  1       -1 0.32125651E-03 0.92476791E+02</pdfrwt>
<totfact> 0.13016202E+05</totfact>
</mgrwt>
</event>
<event>
 5    1  0.3963873E+001  0.9004245E+02  0.7546771E-02  0.1302749E+00
         -2   -1    0    0    0  501 -0.00000000000E+00  0.00000000000E+00  0.12389564209E+01  0.12389564209E+01  0.00000000000E+00 0.  1.
          2   -1    0    0  501    0  0.00000000000E+00 -0.00000000000E+00 -0.16359823459E+04  0.16359823459E+04  0.00000000000E+00 0. -1.
         23    2    1    2    0    0  0.00000000000E+00  0.00000000000E+00 -0.16347433895E+04  0.16372213023E+04  0.90042452921E+02 0.  0.
          2    1    3    3  502    0 -0.67809006872E+01  0.31278280040E+02 -0.13931082339E+04  0.13934758207E+04  0.00000000000E+00 0. -1.
         -2    1    3    3    0  502  0.67809006872E+01 -0.31278280040E+02 -0.24163515561E+03  0.24374548169E+03  0.00000000000E+00 0.  1.
<mgrwt>
<rscale>  0 0.90042453E+02</rscale>
<asrwt>0</asrwt>
<pdfrwt beam="2">  1        2 0.25169034E+00 0.90042453E+02</pdfrwt>
<pdfrwt beam="1">  1       -2 0.19060811E-03 0.90042453E+02</pdfrwt>
<totfact> 0.23464094E+05</totfact>
</mgrwt>
</event>
<event>
 5    1  0.3963873E+001  0.9229667E+02  0.7546771E-02  0.1297383E+00
         -2   -1    0    0    0  501 -0.00000000000E+00  0.00000000000E+00  0.81897312612E+01  0.81897312612E+01  0.00000000000E+00 0.  1.
          2   -1    0    0  501    0  0.00000000000E+00 -0.00000000000E+00 -0.26004136305E+03  0.26004136305E+03  0.00000000000E+00 0. -1.
         23    2    1    2    0    0  0.00000000000E+00  0.00000000000E+00 -0.25185163179E+03  0.26823109431E+03  0.92296671233E+02 0.  0.
          2    1    3    3  502    0  0.26340145966E+02  0.23934860235E+02 -0.21129978565E+03  0.21427617749E+03  0.00000000000E+00 0. -1.
         -2    1    3    3    0  502 -0.26340145966E+02 -0.23934860235E+02 -0.40551846141E+02  0.53954916824E+02  0.00000000000E+00 0.  1.
<mgrwt>
<rscale>  0 0.92296671E+02</rscale>
<asrwt>0</asrwt>
<pdfrwt beam="2">  1        2 0.40006358E-01 0.92296671E+02</pdfrwt>
<pdfrwt beam="1">  1       -2 0.12599588E-02 0.92296671E+02</pdfrwt>
<totfact> 0.16485072E+05</totfact>
</mgrwt>
</event>
<event>
 5    1  0.3963873E+001  0.9090460E+02  0.7546771E-02  0.1300676E+00
          2   -1    0    0  501    0  0.00000000000E+00  0.00000000000E+00  0.53960141389E+02  0.53960141389E+02  0.00000000000E+00 0. -1.
         -2   -1    0    0    0  501 -0.00000000000E+00 -0.00000000000E+00 -0.38285877714E+02  0.38285877714E+02  0.00000000000E+00 0.  1.
         23    2    1    2    0    0  0.00000000000E+00  0.00000000000E+00  0.15674263675E+02  0.92246019103E+02  0.90904595586E+02 0.  0.
          2    1    3    3  502    0  0.13324633104E+02 -0.32129077351E+02 -0.21853605125E+02  0.41078017427E+02  0.00000000000E+00 0.  1.
         -2    1    3    3    0  502 -0.13324633104E+02  0.32129077351E+02  0.37527868800E+02  0.51168001676E+02  0.00000000000E+00 0. -1.
<mgrwt>
<rscale>  0 0.90904596E+02</rscale>
<asrwt>0</asrwt>
<pdfrwt beam="1">  1        2 0.83015602E-02 0.90904596E+02</pdfrwt>
<pdfrwt beam="2">  1       -2 0.58901351E-02 0.90904596E+02</pdfrwt>
<totfact> 0.10399849E+05</totfact>
</mgrwt>
</event>
<event>
 5    1  0.3963873E+001  0.8904663E+02  0.7546771E-02  0.1305177E+00
          2   -1    0    0  501    0  0.00000000000E+00  0.00000000000E+00  0.16943285715E+03  0.16943285715E+03  0.00000000000E+00 0.  1.
         -2   -1    0    0    0  501 -0.00000000000E+00 -0.00000000000E+00 -0.11699770015E+02  0.11699770015E+02  0.00000000000E+00 0. -1.
         23    2    1    2    0    0  0.00000000000E+00  0.00000000000E+00  0.15773308714E+03  0.18113262717E+03  0.89046627376E+02 0.  0.
          2    1    3    3  502    0 -0.32501516604E+02 -0.29086517337E+02  0.60678238976E+02  0.74727657247E+02  0.00000000000E+00 0. -1.
         -2    1    3    3    0  502  0.32501516604E+02  0.29086517337E+02  0.97054848160E+02  0.10640496992E+03  0.00000000000E+00 0.  1.
<mgrwt>
<rscale>  0 0.89046627E+02</rscale>
<asrwt>0</asrwt>
<pdfrwt beam="1">  1        2 0.26066592E-01 0.89046627E+02</pdfrwt>
<pdfrwt beam="2">  1       -2 0.17999647E-02 0.89046627E+02</pdfrwt>
<totfact> 0.15541239E+05</totfact>
</mgrwt>
</event>
<event>
 5    1  0.3963873E+001  0.9160046E+02  0.7546771E-02  0.1299022E+00
          1   -1    0    0  501    0  0.00000000000E+00  0.00000000000E+00  0.11921839968E+04  0.11921839968E+04  0.00000000000E+00 0. -1.
         -1   -1    0    0    0  501 -0.00000000000E+00 -0.00000000000E+00 -0.17595110472E+01  0.17595110472E+01  0.00000000000E+00 0.  1.
         23    2    1    2    0    0  0.00000000000E+00  0.00000000000E+00  0.11904244858E+04  0.11939435079E+04  0.91600456608E+02 0.  0.
          2    1    3    3  502    0  0.24337334831E+02  0.36855955567E+02  0.75324071139E+03  0.75453445025E+03  0.00000000000E+00 0. -1.
         -2    1    3    3    0  502 -0.24337334831E+02 -0.36855955567E+02  0.43718377441E+03  0.43940905764E+03  0.00000000000E+00 0.  1.
<mgrwt>
<rscale>  0 0.91600457E+02</rscale>
<asrwt>0</asrwt>
<pdfrwt beam="1">  1        1 0.18341228E+00 0.91600457E+02</pdfrwt>
<pdfrwt beam="2">  1       -1 0.27069496E-03 0.91600457E+02</pdfrwt>
<totfact> 0.12613474E+05</totfact>
</mgrwt>
</event>
<event>
 5    1  0.3963873E+001  0.9166025E+02  0.7546771E-02  0.1298880E+00
          3   -1    0    0  501    0  0.00000000000E+00  0.00000000000E+00  0.73704851745E+02  0.73704851745E+02  0.00000000000E+00 0. -1.
         -3   -1    0    0    0  501 -0.00000000000E+00 -0.00000000000E+00 -0.28497450940E+02  0.28497450940E+02  0.00000000000E+00 0.  1.
         23    2    1    2    0    0  0.00000000000E+00  0.00000000000E+00  0.45207400805E+02  0.10220230269E+03  0.91660250854E+02 0.  0.
          2    1    3    3  502    0 -0.29572015523E+02  0.24887089662E+02  0.50064011128E+02  0.63247739439E+02  0.00000000000E+00 0. -1.
         -2    1    3    3    0  502  0.29572015523E+02 -0.24887089662E+02 -0.48566103224E+01  0.38954563247E+02  0.00000000000E+00 0.  1.
<mgrwt>
<rscale>  0 0.91660251E+02</rscale>
<asrwt>0</asrwt>
<pdfrwt beam="1">  1        3 0.11339208E-01 0.91660251E+02</pdfrwt>
<pdfrwt beam="2">  1       -3 0.43842232E-02 0.91660251E+02</pdfrwt>
<totfact> 0.34014630E+04</totfact>
</mgrwt>
</event>
<event>
 5    1  0.3963873E+001  0.9387508E+02  0.7546771E-02  0.1293730E+00
         -2   -1    0    0    0  501 -0.00000000000E+00  0.00000000000E+00  0.10273368684E+01  0.10273368684E+01  0.00000000000E+00 0.  1.
          2   -1    0    0  501    0  0.00000000000E+00 -0.00000000000E+00 -0.21445084830E+04  0.21445084830E+04  0.00000000000E+00 0. -1.
         23    2    1    2    0    0  0.00000000000E+00  0.00000000000E+00 -0.21434811461E+04  0.21455358199E+04  0.93875079316E+02 0.  0.
          2    1    3    3  502    0 -0.44304960813E+02  0.15338910475E+02 -0.11224405557E+04  0.11234193397E+04  0.00000000000E+00 0.  1.
         -2    1    3    3    0  502  0.44304960813E+02 -0.15338910475E+02 -0.10210405904E+04  0.10221164802E+04  0.00000000000E+00 0. -1.
<mgrwt>
<rscale>  0 0.93875079E+02</rscale>
<asrwt>0</asrwt>
<pdfrwt beam="2">  1        2 0.32992235E+00 0.93875079E+02</pdfrwt>
<pdfrwt beam="1">  1       -2 0.15805280E-03 0.93875079E+02</pdfrwt>
<totfact> 0.16961190E+05</totfact>
</mgrwt>
</event>
<event>
 5    1  0.3963873E+001  0.8969025E+02  0.7546771E-02  0.1303604E+00
          1   -1    0    0  501    0  0.00000000000E+00  0.00000000000E+00  0.13613523642E+01  0.13613523642E+01  0.00000000000E+00 0. -1.
         -1   -1    0    0    0  501 -0.00000000000E+00 -0.00000000000E+00 -0.14772701078E+04  0.14772701078E+04  0.00000000000E+00 0.  1.
         23    2    1    2    0    0  0.00000000000E+00  0.00000000000E+00 -0.14759087554E+04  0.14786314601E+04  0.89690248160E+02 0.  0.
          2    1    3    3  502    0  0.29888396247E+02 -0.17374022052E+01 -0.18752256466E+03  0.18989746457E+03  0.00000000000E+00 0. -1.
         -2    1    3    3    0  502 -0.29888396247E+02  0.17374022052E+01 -0.12883861907E+04  0.12887339955E+04  0.00000000000E+00 0.  1.
<mgrwt>
<rscale>  0 0.89690248E+02</rscale>
<asrwt>0</asrwt>
<pdfrwt beam="1">  1        1 0.20943796E-03 0.89690248E+02</pdfrwt>
<pdfrwt beam="2">  1       -1 0.22727327E+00 0.89690248E+02</pdfrwt>
<totfact> 0.14831920E+04</totfact>
</mgrwt>
</event>
<event>
 5    1  0.3963873E+001  0.8985488E+02  0.7546771E-02  0.1303204E+00
          1   -1    0    0  501    0  0.00000000000E+00  0.00000000000E+00  0.26616518465E+04  0.26616518465E+04  0.00000000000E+00 0. -1.
         -1   -1    0    0    0  501 -0.00000000000E+00 -0.00000000000E+00 -0.75835420580E+00  0.75835420580E+00  0.00000000000E+00 0.  1.
         23    2    1    2    0    0  0.00000000000E+00  0.00000000000E+00  0.26608934922E+04  0.26624102007E+04  0.89854880160E+02 0.  0.
          2    1    3    3  502    0  0.15978110644E+02 -0.40990380780E+02  0.10605628780E+04  0.10614749783E+04  0.00000000000E+00 0.  1.
         -2    1    3    3    0  502 -0.15978110644E+02  0.40990380780E+02  0.16003306142E+04  0.16009352223E+04  0.00000000000E+00 0. -1.
<mgrwt>
<rscale>  0 0.89854880E+02</rscale>
<asrwt>0</asrwt>
<pdfrwt beam="1">  1        1 0.40947742E+00 0.89854880E+02</pdfrwt>
<pdfrwt beam="2">  1       -1 0.11667201E-03 0.89854880E+02</pdfrwt>
<totfact> 0.46577766E+04</totfact>
</mgrwt>
</event>
<event>
 5    1  0.3963873E+001  0.9287405E+02  0.7546771E-02  0.1296037E+00
          1   -1    0    0  501    0  0.00000000000E+00  0.00000000000E+00  0.62850820746E+03  0.62850820746E+03  0.00000000000E+00 0. -1.
         -1   -1    0    0    0  501 -0.00000000000E+00 -0.00000000000E+00 -0.34309770306E+01  0.34309770306E+01  0.00000000000E+00 0.  1.
         23    2    1    2    0    0  0.00000000000E+00  0.00000000000E+00  0.62507723042E+03  0.63193918449E+03  0.92874048545E+02 0.  0.
          2    1    3    3  502    0  0.28167163692E+02 -0.18831454451E+01  0.56341768126E+03  0.56412447111E+03  0.00000000000E+00 0. -1.
         -2    1    3    3    0  502 -0.28167163692E+02  0.18831454451E+01  0.61659549163E+02  0.67814713375E+02  0.00000000000E+00 0.  1.
<mgrwt>
<rscale>  0 0.92874049E+02</rscale>
<asrwt>0</asrwt>
<pdfrwt beam="1">  1        1 0.96693479E-01 0.92874049E+02</pdfrwt>
<pdfrwt beam="2">  1       -1 0.52784312E-03 0.92874049E+02</pdfrwt>
<totfact> 0.13515283E+05</totfact>
</mgrwt>
</event>
<event>
 5    1  0.3963873E+001  0.8246318E+02  0.7546771E-02  0.1322203E+00
          1   -1    0    0  501    0  0.00000000000E+00  0.00000000000E+00  0.21496362097E+04  0.21496362097E+04  0.00000000000E+00 0. -1.
         -1   -1    0    0    0  501 -0.00000000000E+00 -0.00000000000E+00 -0.79085188661E+00  0.79085188661E+00  0.00000000000E+00 0.  1.
         23    2    1    2    0    0  0.00000000000E+00  0.00000000000E+00  0.21488453578E+04  0.21504270616E+04  0.82463176072E+02 0.  0.
          2    1    3    3  502    0  0.18276266794E+02 -0.18723717464E+02  0.19054067867E+04  0.19055864248E+04  0.00000000000E+00 0. -1.
         -2    1    3    3    0  502 -0.18276266794E+02  0.18723717464E+02  0.24343857114E+03  0.24484063682E+03  0.00000000000E+00 0.  1.
<mgrwt>
<rscale>  0 0.82463176E+02</rscale>
<asrwt>0</asrwt>
<pdfrwt beam="1">  1        1 0.33070859E+00 0.82463176E+02</pdfrwt>
<pdfrwt beam="2">  1       -1 0.12167124E-03 0.82463176E+02</pdfrwt>
<totfact> 0.92579031E+04</totfact>
</mgrwt>
</event>
<event>
 5    1  0.3963873E+001  0.8629167E+02  0.7546771E-02  0.1312089E+00
         -3   -1    0    0    0  501 -0.00000000000E+00  0.00000000000E+00  0.16018055653E+02  0.16018055653E+02  0.00000000000E+00 0.  1.
          3   -1    0    0  501    0  0.00000000000E+00 -0.00000000000E+00 -0.11621653591E+03  0.11621653591E+03  0.00000000000E+00 0. -1.
         23    2    1    2    0    0  0.00000000000E+00  0.00000000000E+00 -0.10019848026E+03  0.13223459157E+03  0.86291666807E+02 0.  0.
          2    1    3    3  502    0 -0.22395238151E+02 -0.25592020033E+02 -0.94089558312E+01  0.35284934902E+02  0.00000000000E+00 0.  1.
         -2    1    3    3    0  502  0.22395238151E+02  0.25592020033E+02 -0.90789524431E+02  0.96949656666E+02  0.00000000000E+00 0. -1.
<mgrwt>
<rscale>  0 0.86291667E+02</rscale>
<asrwt>0</asrwt>
<pdfrwt beam="2">  1        3 0.17879468E-01 0.86291667E+02</pdfrwt>
<pdfrwt beam="1">  1       -3 0.24643162E-02 0.86291667E+02</pdfrwt>
<totfact> 0.37627290E+04</totfact>
</mgrwt>
</event>
<event>
 5    1  0.3963873E+001  0.8912141E+02  0.7546771E-02  0.1304993E+00
         -1   -1    0    0    0  501 -0.00000000000E+00  0.00000000000E+00  0.21376116689E+02  0.21376116689E+02  0.00000000000E+00 0.  1.
          1   -1    0    0  501    0  0.00000000000E+00 -0.00000000000E+00 -0.92891353900E+02  0.92891353900E+02  0.00000000000E+00 0. -1.
         23    2    1    2    0    0  0.00000000000E+00  0.00000000000E+00 -0.71515237210E+02  0.11426747059E+03  0.89121409782E+02 0.  0.
          2    1    3    3  502    0  0.30300650647E+02  0.23974961447E+02 -0.64218233696E+02  0.74946045560E+02  0.00000000000E+00 0. -1.
         -2    1    3    3    0  502 -0.30300650647E+02 -0.23974961447E+02 -0.72970035138E+01  0.39321425029E+02  0.00000000000E+00 0.  1.
<mgrwt>
<rscale>  0 0.89121410E+02</rscale>
<asrwt>0</asrwt>
<pdfrwt beam="2">  1        1 0.14290978E-01 0.89121410E+02</pdfrwt>
<pdfrwt beam="1">  1       -1 0.32886333E-02 0.89121410E+02</pdfrwt>
<totfact> 0.10980672E+05</totfact>
</mgrwt>
</event>
<event>
 5    1  0.3963873E+001  0.9401416E+02  0.7546771E-02  0.1293412E+00
         -4   -1    0    0    0  501 -0.00000000000E+00  0.00000000000E+00  0.49435666474E+02  0.49435666474E+02  0.00000000000E+00 0.  1.
          4   -1    0    0  501    0  0.00000000000E+00 -0.00000000000E+00 -0.44697798289E+02  0.44697798289E+02  0.00000000000E+00 0. -1.
         23    2    1    2    0    0  0.00000000000E+00  0.00000000000E+00  0.47378681849E+01  0.94133464763E+02  0.94014157409E+02 0.  0.
          2    1    3    3  502    0 -0.35987333098E+02 -0.13502948696E+02 -0.24725481531E+02  0.45703032765E+02  0.00000000000E+00 0. -1.
         -2    1    3    3    0  502  0.35987333098E+02  0.13502948696E+02  0.29463349716E+02  0.48430431998E+02  0.00000000000E+00 0.  1.
<mgrwt>
<rscale>  0 0.94014157E+02</rscale>
<asrwt>0</asrwt>
<pdfrwt beam="2">  1        4 0.68765843E-02 0.94014157E+02</pdfrwt>
<pdfrwt beam="1">  1       -4 0.76054872E-02 0.94014157E+02</pdfrwt>
<totfact> 0.24678389E+04</totfact>
</mgrwt>
</event>
<event>
 5    1  0.3963873E+001  0.9170195E+02  0.7546771E-02  0.1298782E+00
         -3   -1    0    0    0  501 -0.00000000000E+00  0.00000000000E+00  0.51656464784E+02  0.51656464784E+02  0.00000000000E+00 0.  1.
          3   -1    0    0  501    0  0.00000000000E+00 -0.00000000000E+00 -0.40697947883E+02  0.40697947883E+02  0.00000000000E+00 0. -1.
         23    2    1    2    0    0  0.00000000000E+00  0.00000000000E+00  0.10958516901E+02  0.92354412667E+02  0.91701954430E+02 0.  0.
          2    1    3    3  502    0  0.44502741787E+02 -0.10311024172E+02  0.94443848243E+01  0.46647697165E+02  0.00000000000E+00 0. -1.
         -2    1    3    3    0  502 -0.44502741787E+02  0.10311024172E+02  0.15141320769E+01  0.45706715502E+02  0.00000000000E+00 0.  1.
<mgrwt>
<rscale>  0 0.91701954E+02</rscale>
<asrwt>0</asrwt>
<pdfrwt beam="2">  1        3 0.62612227E-02 0.91701954E+02</pdfrwt>
<pdfrwt beam="1">  1       -3 0.79471485E-02 0.91701954E+02</pdfrwt>
<totfact> 0.34700602E+04</totfact>
</mgrwt>
</event>
<event>
 5    1  0.3963873E+001  0.9263892E+02  0.7546771E-02  0.1296584E+00
          2   -1    0    0  501    0  0.00000000000E+00  0.00000000000E+00  0.14178737912E+04  0.14178737912E+04  0.00000000000E+00 0. -1.
         -2   -1    0    0    0  501 -0.00000000000E+00 -0.00000000000E+00 -0.15131759016E+01  0.15131759016E+01  0.00000000000E+00 0.  1.
         23    2    1    2    0    0  0.00000000000E+00  0.00000000000E+00  0.14163606153E+04  0.14193869671E+04  0.92638921677E+02 0.  0.
          2    1    3    3  502    0 -0.34938429167E+02  0.15929872670E+02  0.31128057456E+03  0.31364000187E+03  0.00000000000E+00 0.  1.
         -2    1    3    3    0  502  0.34938429167E+02 -0.15929872670E+02  0.11050800407E+04  0.11057469652E+04  0.00000000000E+00 0. -1.
<mgrwt>
<rscale>  0 0.92638922E+02</rscale>
<asrwt>0</asrwt>
<pdfrwt beam="1">  1        2 0.21813337E+00 0.92638922E+02</pdfrwt>
<pdfrwt beam="2">  1       -2 0.23279743E-03 0.92638922E+02</pdfrwt>
<totfact> 0.23063173E+05</totfact>
</mgrwt>
</event>
<event>
 5    1  0.3963873E+001  0.9177731E+02  0.7546771E-02  0.1298604E+00
          2   -1    0    0  501    0  0.00000000000E+00  0.00000000000E+00  0.31011152617E+02  0.31011152617E+02  0.00000000000E+00 0. -1.
         -2   -1    0    0    0  501 -0.00000000000E+00 -0.00000000000E+00 -0.67903594115E+02  0.67903594115E+02  0.00000000000E+00 0.  1.
         23    2    1    2    0    0  0.00000000000E+00  0.00000000000E+00 -0.36892441498E+02  0.98914746731E+02  0.91777311364E+02 0.  0.
          2    1    3    3  502    0 -0.11207693571E+02 -0.43935209915E+02 -0.10836403730E+02  0.46619123879E+02  0.00000000000E+00 0. -1.
         -2    1    3    3    0  502  0.11207693571E+02  0.43935209915E+02 -0.26056037767E+02  0.52295622853E+02  0.00000000000E+00 0.  1.
<mgrwt>
<rscale>  0 0.91777311E+02</rscale>
<asrwt>0</asrwt>
<pdfrwt beam="1">  1        2 0.47709466E-02 0.91777311E+02</pdfrwt>
<pdfrwt beam="2">  1       -2 0.10446707E-01 0.91777311E+02</pdfrwt>
<totfact> 0.87530476E+04</totfact>
</mgrwt>
</event>
<event>
 5    1  0.3963873E+001  0.8968504E+02  0.7546771E-02  0.1303616E+00
         -2   -1    0    0    0  501 -0.00000000000E+00  0.00000000000E+00  0.38585052745E+02  0.38585052745E+02  0.00000000000E+00 0.  1.
          2   -1    0    0  501    0  0.00000000000E+00 -0.00000000000E+00 -0.52114787079E+02  0.52114787079E+02  0.00000000000E+00 0. -1.
         23    2    1    2    0    0  0.00000000000E+00  0.00000000000E+00 -0.13529734335E+02  0.90699839824E+02  0.89685044645E+02 0.  0.
          2    1    3    3  502    0 -0.19556222664E+02  0.27782273219E+02 -0.36362921978E+02  0.49765074549E+02  0.00000000000E+00 0. -1.
         -2    1    3    3    0  502  0.19556222664E+02 -0.27782273219E+02  0.22833187643E+02  0.40934765274E+02  0.00000000000E+00 0.  1.
<mgrwt>
<rscale>  0 0.89685045E+02</rscale>
<asrwt>0</asrwt>
<pdfrwt beam="2">  1        2 0.80176595E-02 0.89685045E+02</pdfrwt>
<pdfrwt beam="1">  1       -2 0.59361620E-02 0.89685045E+02</pdfrwt>
<totfact> 0.10707721E+05</totfact>
</mgrwt>
</event>
<event>
 5    1  0.3963873E+001  0.9183000E+02  0.7546771E-02  0.1298480E+00
         -2   -1    0    0    0  501 -0.00000000000E+00  0.00000000000E+00  0.11738205026E+01  0.11738205026E+01  0.00000000000E+00 0.  1.
          2   -1    0    0  501    0  0.00000000000E+00 -0.00000000000E+00 -0.17960048413E+04  0.17960048413E+04  0.00000000000E+00 0. -1.
         23    2    1    2    0    0  0.00000000000E+00  0.00000000000E+00 -0.17948310208E+04  0.17971786618E+04  0.91830001754E+02 0.  0.
          2    1    3    3  502    0 -0.65334594445E+01 -0.43499293922E+02 -0.63977047310E+03  0.64128085338E+03  0.00000000000E+00 0. -1.
         -2    1    3    3    0  502  0.65334594445E+01  0.43499293922E+02 -0.11550605477E+04  0.11558978085E+04  0.00000000000E+00 0.  1.
<mgrwt>
<rscale>  0 0.91830002E+02</rscale>
<asrwt>0</asrwt>
<pdfrwt beam="2">  1        2 0.27630946E+00 0.91830002E+02</pdfrwt>
<pdfrwt beam="1">  1       -2 0.18058710E-03 0.91830002E+02</pdfrwt>
<totfact> 0.21065377E+05</totfact>
</mgrwt>
</event>
<event>
 5    1  0.3963873E+001  0.9021719E+02  0.7546771E-02  0.1302327E+00
         -2   -1    0    0    0  501 -0.00000000000E+00  0.00000000000E+00  0.14703723505E+03  0.14703723505E+03  0.00000000000E+00 0.  1.
          2   -1    0    0  501    0  0.00000000000E+00 -0.00000000000E+00 -0.13838572068E+02  0.13838572068E+02  0.00000000000E+00 0. -1.
         23    2    1    2    0    0  0.00000000000E+00  0.00000000000E+00  0.13319866298E+03  0.16087580712E+03  0.90217190690E+02 0.  0.
          2    1    3    3  502    0  0.16599923166E+02  0.38285660984E+02  0.36053060414E+02  0.55146826303E+02  0.00000000000E+00 0. -1.
         -2    1    3    3    0  502 -0.16599923166E+02 -0.38285660984E+02  0.97145602570E+02  0.10572898082E+03  0.00000000000E+00 0.  1.
<mgrwt>
<rscale>  0 0.90217191E+02</rscale>
<asrwt>0</asrwt>
<pdfrwt beam="2">  1        2 0.21290112E-02 0.90217191E+02</pdfrwt>
<pdfrwt beam="1">  1       -2 0.22621112E-01 0.90217191E+02</pdfrwt>
<totfact> 0.72270430E+04</totfact>
</mgrwt>
</event>
<event>
 5    1  0.3963873E+001  0.9133679E+02  0.7546771E-02  0.1299646E+00
         -3   -1    0    0    0  501 -0.00000000000E+00  0.00000000000E+00  0.46106537802E+02  0.46106537802E+02  0.00000000000E+00 0.  1.
          3   -1    0    0  501    0  0.00000000000E+00 -0.00000000000E+00 -0.45234412901E+02  0.45234412901E+02  0.00000000000E+00 0. -1.
         23    2    1    2    0    0  0.00000000000E+00  0.00000000000E+00  0.87212490031E+00  0.91340950703E+02  0.91336787077E+02 0.  0.
          2    1    3    3  502    0 -0.66434906579E+01 -0.33113575202E+02 -0.30305497239E+02  0.45376954434E+02  0.00000000000E+00 0. -1.
         -2    1    3    3    0  502  0.66434906579E+01  0.33113575202E+02  0.31177622140E+02  0.45963996269E+02  0.00000000000E+00 0.  1.
<mgrwt>
<rscale>  0 0.91336787E+02</rscale>
<asrwt>0</asrwt>
<pdfrwt beam="2">  1        3 0.69591404E-02 0.91336787E+02</pdfrwt>
<pdfrwt beam="1">  1       -3 0.70933135E-02 0.91336787E+02</pdfrwt>
<totfact> 0.35157330E+04</totfact>
</mgrwt>
</event>
<event>
 5    1  0.3963873E+001  0.8953266E+02  0.7546771E-02  0.1303987E+00
          2   -1    0    0  501    0  0.00000000000E+00  0.00000000000E+00  0.17547568837E+04  0.17547568837E+04  0.00000000000E+00 0.  1.
         -2   -1    0    0    0  501 -0.00000000000E+00 -0.00000000000E+00 -0.11420523213E+01  0.11420523213E+01  0.00000000000E+00 0. -1.
         23    2    1    2    0    0  0.00000000000E+00  0.00000000000E+00  0.17536148314E+04  0.17558989360E+04  0.89532657111E+02 0.  0.
          2    1    3    3  502    0  0.27948932832E+02 -0.12663242134E+02  0.23753297676E+03  0.23950660867E+03  0.00000000000E+00 0. -1.
         -2    1    3    3    0  502 -0.27948932832E+02  0.12663242134E+02  0.15160818546E+04  0.15163923274E+04  0.00000000000E+00 0.  1.
<mgrwt>
<rscale>  0 0.89532657E+02</rscale>
<asrwt>0</asrwt>
<pdfrwt beam="1">  1        2 0.26996044E+00 0.89532657E+02</pdfrwt>
<pdfrwt beam="2">  1       -2 0.17570176E-03 0.89532657E+02</pdfrwt>
<totfact> 0.22872962E+05</totfact>
</mgrwt>
</event>
<event>
 5    1  0.3963873E+001  0.8945215E+02  0.7546771E-02  0.1304184E+00
         -1   -1    0    0    0  501 -0.00000000000E+00  0.00000000000E+00  0.28834683731E+03  0.28834683731E+03  0.00000000000E+00 0.  1.
          1   -1    0    0  501    0  0.00000000000E+00 -0.00000000000E+00 -0.69375544936E+01  0.69375544936E+01  0.00000000000E+00 0. -1.
         23    2    1    2    0    0  0.00000000000E+00  0.00000000000E+00  0.28140928281E+03  0.29528439180E+03  0.89452152503E+02 0.  0.
          2    1    3    3  502    0  0.57436462885E+01 -0.23746469477E+02  0.17035392367E+02  0.29784037309E+02  0.00000000000E+00 0. -1.
         -2    1    3    3    0  502 -0.57436462885E+01  0.23746469477E+02  0.26437389045E+03  0.26550035449E+03  0.00000000000E+00 0.  1.
<mgrwt>
<rscale>  0 0.89452153E+02</rscale>
<asrwt>0</asrwt>
<pdfrwt beam="2">  1        1 0.10673163E-02 0.89452153E+02</pdfrwt>
<pdfrwt beam="1">  1       -1 0.44361043E-01 0.89452153E+02</pdfrwt>
<totfact> 0.64669131E+04</totfact>
</mgrwt>
</event>
<event>
 5    1  0.3963873E+001  0.9200183E+02  0.7546771E-02  0.1298075E+00
          3   -1    0    0  501    0  0.00000000000E+00  0.00000000000E+00  0.24452858450E+02  0.24452858450E+02  0.00000000000E+00 0. -1.
         -3   -1    0    0    0  501 -0.00000000000E+00 -0.00000000000E+00 -0.86537292152E+02  0.86537292152E+02  0.00000000000E+00 0.  1.
         23    2    1    2    0    0  0.00000000000E+00  0.00000000000E+00 -0.62084433702E+02  0.11099015060E+03  0.92001829451E+02 0.  0.
          2    1    3    3  502    0  0.28439323127E+02 -0.26454962546E+02 -0.60774889914E+02  0.72126606653E+02  0.00000000000E+00 0.  1.
         -2    1    3    3    0  502 -0.28439323127E+02  0.26454962546E+02 -0.13095437883E+01  0.38863543948E+02  0.00000000000E+00 0. -1.
<mgrwt>
<rscale>  0 0.92001829E+02</rscale>
<asrwt>0</asrwt>
<pdfrwt beam="1">  1        3 0.37619782E-02 0.92001829E+02</pdfrwt>
<pdfrwt beam="2">  1       -3 0.13313430E-01 0.92001829E+02</pdfrwt>
<totfact> 0.33054845E+04</totfact>
</mgrwt>
</event>
<event>
 5    1  0.3963873E+001  0.9181901E+02  0.7546771E-02  0.1298506E+00
         -2   -1    0    0    0  501 -0.00000000000E+00  0.00000000000E+00  0.26059613798E+02  0.26059613798E+02  0.00000000000E+00 0.  1.
          2   -1    0    0  501    0  0.00000000000E+00 -0.00000000000E+00 -0.80879278713E+02  0.80879278713E+02  0.00000000000E+00 0. -1.
         23    2    1    2    0    0  0.00000000000E+00  0.00000000000E+00 -0.54819664915E+02  0.10693889251E+03  0.91819012574E+02 0.  0.
          2    1    3    3  502    0  0.27058887609E+02  0.24489382302E+02 -0.59848979109E+02  0.70098598735E+02  0.00000000000E+00 0. -1.
         -2    1    3    3    0  502 -0.27058887609E+02 -0.24489382302E+02  0.50293141942E+01  0.36840293776E+02  0.00000000000E+00 0.  1.
<mgrwt>
<rscale>  0 0.91819013E+02</rscale>
<asrwt>0</asrwt>
<pdfrwt beam="2">  1        2 0.12442966E-01 0.91819013E+02</pdfrwt>
<pdfrwt beam="1">  1       -2 0.40091714E-02 0.91819013E+02</pdfrwt>
<totfact> 0.11298805E+05</totfact>
</mgrwt>
</event>
<event>
 5    1  0.3963873E+001  0.9077331E+02  0.7546771E-02  0.1300990E+00
          2   -1    0    0  501    0  0.00000000000E+00  0.00000000000E+00  0.81023072029E+03  0.81023072029E+03  0.00000000000E+00 0. -1.
         -2   -1    0    0    0  501 -0.00000000000E+00 -0.00000000000E+00 -0.25424220413E+01  0.25424220413E+01  0.00000000000E+00 0.  1.
         23    2    1    2    0    0  0.00000000000E+00  0.00000000000E+00  0.80768829825E+03  0.81277314233E+03  0.90773309773E+02 0.  0.
          2    1    3    3  502    0  0.25132122999E+02 -0.32043872633E+02  0.58326053083E+03  0.58468049412E+03  0.00000000000E+00 0. -1.
         -2    1    3    3    0  502 -0.25132122999E+02  0.32043872633E+02  0.22442776741E+03  0.22809264820E+03  0.00000000000E+00 0.  1.
<mgrwt>
<rscale>  0 0.90773310E+02</rscale>
<asrwt>0</asrwt>
<pdfrwt beam="1">  1        2 0.12465067E+00 0.90773310E+02</pdfrwt>
<pdfrwt beam="2">  1       -2 0.39114250E-03 0.90773310E+02</pdfrwt>
<totfact> 0.24714563E+05</totfact>
</mgrwt>
</event>
<event>
 5    1  0.3963873E+001  0.9018848E+02  0.7546771E-02  0.1302396E+00
          4   -1    0    0  501    0  0.00000000000E+00  0.00000000000E+00  0.19983714398E+02  0.19983714398E+02  0.00000000000E+00 0. -1.
         -4   -1    0    0    0  501 -0.00000000000E+00 -0.00000000000E+00 -0.10175739403E+03  0.10175739403E+03  0.00000000000E+00 0.  1.
         23    2    1    2    0    0  0.00000000000E+00  0.00000000000E+00 -0.81773679633E+02  0.12174110843E+03  0.90188484856E+02 0.  0.
          2    1    3    3  502    0 -0.17598495832E+02  0.39056762190E+02 -0.59897864096E+02  0.73640286879E+02  0.00000000000E+00 0.  1.
         -2    1    3    3    0  502  0.17598495832E+02 -0.39056762190E+02 -0.21875815537E+02  0.48100821549E+02  0.00000000000E+00 0. -1.
<mgrwt>
<rscale>  0 0.90188485E+02</rscale>
<asrwt>0</asrwt>
<pdfrwt beam="1">  1        4 0.30744176E-02 0.90188485E+02</pdfrwt>
<pdfrwt beam="2">  1       -4 0.15654984E-01 0.90188485E+02</pdfrwt>
<totfact> 0.25924796E+04</totfact>
</mgrwt>
</event>
<event>
 5    1  0.3963873E+001  0.9511356E+02  0.7546771E-02  0.1290921E+00
         -1   -1    0    0    0  501 -0.00000000000E+00  0.00000000000E+00  0.97626250196E+01  0.97626250196E+01  0.00000000000E+00 0.  1.
          1   -1    0    0  501    0  0.00000000000E+00 -0.00000000000E+00 -0.23166385367E+03  0.23166385367E+03  0.00000000000E+00 0. -1.
         23    2    1    2    0    0  0.00000000000E+00  0.00000000000E+00 -0.22190122865E+03  0.24142647869E+03  0.95113560210E+02 0.  0.
          2    1    3    3  502    0  0.44587020430E+02 -0.10304945826E+02 -0.78104123883E+02  0.90523192978E+02  0.00000000000E+00 0.  1.
         -2    1    3    3    0  502 -0.44587020430E+02  0.10304945826E+02 -0.14379710477E+03  0.15090328571E+03  0.00000000000E+00 0. -1.
<mgrwt>
<rscale>  0 0.95113560E+02</rscale>
<asrwt>0</asrwt>
<pdfrwt beam="2">  1        1 0.35640593E-01 0.95113560E+02</pdfrwt>
<pdfrwt beam="1">  1       -1 0.15019423E-02 0.95113560E+02</pdfrwt>
<totfact> 0.10878301E+05</totfact>
</mgrwt>
</event>
<event>
 5    1  0.3963873E+001  0.8886793E+02  0.7546771E-02  0.1305617E+00
         -2   -1    0    0    0  501 -0.00000000000E+00  0.00000000000E+00  0.27908983993E+01  0.27908983993E+01  0.00000000000E+00 0.  1.
          2   -1    0    0  501    0  0.00000000000E+00 -0.00000000000E+00 -0.70743425083E+03  0.70743425083E+03  0.00000000000E+00 0. -1.
         23    2    1    2    0    0  0.00000000000E+00  0.00000000000E+00 -0.70464335243E+03  0.71022514923E+03  0.88867927134E+02 0.  0.
          2    1    3    3  502    0 -0.20782949014E+02  0.18073762988E+02 -0.63098475415E+03  0.63158558553E+03  0.00000000000E+00 0. -1.
         -2    1    3    3    0  502  0.20782949014E+02 -0.18073762988E+02 -0.73658598278E+02  0.78639563698E+02  0.00000000000E+00 0.  1.
<mgrwt>
<rscale>  0 0.88867927E+02</rscale>
<asrwt>0</asrwt>
<pdfrwt beam="2">  1        2 0.10883607E+00 0.88867927E+02</pdfrwt>
<pdfrwt beam="1">  1       -2 0.42936885E-03 0.88867927E+02</pdfrwt>
<totfact> 0.25433469E+05</totfact>
</mgrwt>
</event>
<event>
 5    1  0.3963873E+001  0.9168346E+02  0.7546771E-02  0.1298825E+00
         -1   -1    0    0    0  501 -0.00000000000E+00  0.00000000000E+00  0.10331819509E+03  0.10331819509E+03  0.00000000000E+00 0.  1.
          1   -1    0    0  501    0  0.00000000000E+00 -0.00000000000E+00 -0.20339729521E+02  0.20339729521E+02  0.00000000000E+00 0. -1.
         23    2    1    2    0    0  0.00000000000E+00  0.00000000000E+00  0.82978465572E+02  0.12365792461E+03  0.91683458546E+02 0.  0.
          2    1    3    3  502    0 -0.25822199680E+02 -0.37424200358E+02  0.49366128716E+02  0.67114614154E+02  0.00000000000E+00 0. -1.
         -2    1    3    3    0  502  0.25822199680E+02  0.37424200358E+02  0.33612336856E+02  0.56543310459E+02  0.00000000000E+00 0.  1.
<mgrwt>
<rscale>  0 0.91683459E+02</rscale>
<asrwt>0</asrwt>
<pdfrwt beam="2">  1        1 0.31291892E-02 0.91683459E+02</pdfrwt>
<pdfrwt beam="1">  1       -1 0.15895107E-01 0.91683459E+02</pdfrwt>
<totfact> 0.79726274E+04</totfact>
</mgrwt>
</event>
<event>
 5    1  0.3963873E+001  0.9153976E+02  0.7546771E-02  0.1299165E+00
         -1   -1    0    0    0  501 -0.00000000000E+00  0.00000000000E+00  0.26542978337E+02  0.26542978337E+02  0.00000000000E+00 0.  1.
          1   -1    0    0  501    0  0.00000000000E+00 -0.00000000000E+00 -0.78924147155E+02  0.78924147155E+02  0.00000000000E+00 0. -1.
         23    2    1    2    0    0  0.00000000000E+00  0.00000000000E+00 -0.52381168819E+02  0.10546712549E+03  0.91539760283E+02 0.  0.
          2    1    3    3  502    0 -0.44368950062E+02  0.11111823231E+02 -0.28120413740E+02  0.53692029335E+02  0.00000000000E+00 0.  1.
         -2    1    3    3    0  502  0.44368950062E+02 -0.11111823231E+02 -0.24260755078E+02  0.51775096157E+02  0.00000000000E+00 0. -1.
<mgrwt>
<rscale>  0 0.91539760E+02</rscale>
<asrwt>0</asrwt>
<pdfrwt beam="2">  1        1 0.12142177E-01 0.91539760E+02</pdfrwt>
<pdfrwt beam="1">  1       -1 0.40835351E-02 0.91539760E+02</pdfrwt>
<totfact> 0.99437359E+04</totfact>
</mgrwt>
</event>
<event>
 5    1  0.3963873E+001  0.8733124E+02  0.7546771E-02  0.1309446E+00
         -1   -1    0    0    0  501 -0.00000000000E+00  0.00000000000E+00  0.12381240892E+02  0.12381240892E+02  0.00000000000E+00 0.  1.
          1   -1    0    0  501    0  0.00000000000E+00 -0.00000000000E+00 -0.15399799306E+03  0.15399799306E+03  0.00000000000E+00 0. -1.
         23    2    1    2    0    0  0.00000000000E+00  0.00000000000E+00 -0.14161675216E+03  0.16637923395E+03  0.87331237228E+02 0.  0.
          2    1    3    3  502    0  0.19817620734E+02  0.38873638711E+02 -0.67627075028E+02  0.80481793935E+02  0.00000000000E+00 0. -1.
         -2    1    3    3    0  502 -0.19817620734E+02 -0.38873638711E+02 -0.73989677136E+02  0.85897440013E+02  0.00000000000E+00 0.  1.
<mgrwt>
<rscale>  0 0.87331237E+02</rscale>
<asrwt>0</asrwt>
<pdfrwt beam="2">  1        1 0.23692000E-01 0.87331237E+02</pdfrwt>
<pdfrwt beam="1">  1       -1 0.19048062E-02 0.87331237E+02</pdfrwt>
<totfact> 0.12651194E+05</totfact>
</mgrwt>
</event>
<event>
 5    1  0.3963873E+001  0.9027530E+02  0.7546771E-02  0.1302186E+00
          2   -1    0    0  501    0  0.00000000000E+00  0.00000000000E+00  0.69581795671E+03  0.69581795671E+03  0.00000000000E+00 0. -1.
         -2   -1    0    0    0  501 -0.00000000000E+00 -0.00000000000E+00 -0.29280751105E+01  0.29280751105E+01  0.00000000000E+00 0.  1.
         23    2    1    2    0    0  0.00000000000E+00  0.00000000000E+00  0.69288988160E+03  0.69874603182E+03  0.90275295413E+02 0.  0.
          2    1    3    3  502    0  0.72184057103E+01  0.41690694657E+02  0.22475239231E+03  0.22870036566E+03  0.00000000000E+00 0. -1.
         -2    1    3    3    0  502 -0.72184057103E+01 -0.41690694657E+02  0.46813748929E+03  0.47004566616E+03  0.00000000000E+00 0.  1.
<mgrwt>
<rscale>  0 0.90275295E+02</rscale>
<asrwt>0</asrwt>
<pdfrwt beam="1">  1        2 0.10704878E+00 0.90275295E+02</pdfrwt>
<pdfrwt beam="2">  1       -2 0.45047365E-03 0.90275295E+02</pdfrwt>
<totfact> 0.24309590E+05</totfact>
</mgrwt>
</event>
<event>
 5    1  0.3963873E+001  0.9062609E+02  0.7546771E-02  0.1301343E+00
          2   -1    0    0  501    0  0.00000000000E+00  0.00000000000E+00  0.10473417757E+04  0.10473417757E+04  0.00000000000E+00 0. -1.
         -2   -1    0    0    0  501 -0.00000000000E+00 -0.00000000000E+00 -0.19604603351E+01  0.19604603351E+01  0.00000000000E+00 0.  1.
         23    2    1    2    0    0  0.00000000000E+00  0.00000000000E+00  0.10453813154E+04  0.10493022361E+04  0.90626089149E+02 0.  0.
          2    1    3    3  502    0 -0.24302027665E+02  0.34045350047E+02  0.72443275272E+03  0.72563936471E+03  0.00000000000E+00 0. -1.
         -2    1    3    3    0  502  0.24302027665E+02 -0.34045350047E+02  0.32094856267E+03  0.32366287134E+03  0.00000000000E+00 0.  1.
<mgrwt>
<rscale>  0 0.90626089E+02</rscale>
<asrwt>0</asrwt>
<pdfrwt beam="1">  1        2 0.16112906E+00 0.90626089E+02</pdfrwt>
<pdfrwt beam="2">  1       -2 0.30161012E-03 0.90626089E+02</pdfrwt>
<totfact> 0.25434395E+05</totfact>
</mgrwt>
</event>
<event>
 5    1  0.3963873E+001  0.9275372E+02  0.7546771E-02  0.1296317E+00
         -2   -1    0    0    0  501 -0.00000000000E+00  0.00000000000E+00  0.10128311465E+01  0.10128311465E+01  0.00000000000E+00 0.  1.
          2   -1    0    0  501    0  0.00000000000E+00 -0.00000000000E+00 -0.21235654625E+04  0.21235654625E+04  0.00000000000E+00 0. -1.
         23    2    1    2    0    0  0.00000000000E+00  0.00000000000E+00 -0.21225526313E+04  0.21245782936E+04  0.92753722127E+02 0.  0.
          2    1    3    3  502    0  0.31699933398E+02  0.31912121557E+02 -0.80259125641E+03  0.80385072877E+03  0.00000000000E+00 0.  1.
         -2    1    3    3    0  502 -0.31699933398E+02 -0.31912121557E+02 -0.13199613749E+04  0.13207275649E+04  0.00000000000E+00 0. -1.
<mgrwt>
<rscale>  0 0.92753722E+02</rscale>
<asrwt>0</asrwt>
<pdfrwt beam="2">  1        2 0.32669940E+00 0.92753722E+02</pdfrwt>
<pdfrwt beam="1">  1       -2 0.15582160E-03 0.92753722E+02</pdfrwt>
<totfact> 0.17701496E+05</totfact>
</mgrwt>
</event>
<event>
 5    1  0.3963873E+001  0.9173608E+02  0.7546771E-02  0.1298701E+00
         -1   -1    0    0    0  501 -0.00000000000E+00  0.00000000000E+00  0.11722425568E+03  0.11722425568E+03  0.00000000000E+00 0.  1.
          1   -1    0    0  501    0  0.00000000000E+00 -0.00000000000E+00 -0.17947455837E+02  0.17947455837E+02  0.00000000000E+00 0. -1.
         23    2    1    2    0    0  0.00000000000E+00  0.00000000000E+00  0.99276799839E+02  0.13517171151E+03  0.91736081270E+02 0.  0.
          2    1    3    3  502    0  0.19743309786E+02 -0.48312464282E+01 -0.10949203796E+02  0.23087318751E+02  0.00000000000E+00 0. -1.
         -2    1    3    3    0  502 -0.19743309786E+02  0.48312464282E+01  0.11022600363E+03  0.11208439276E+03  0.00000000000E+00 0.  1.
<mgrwt>
<rscale>  0 0.91736081E+02</rscale>
<asrwt>0</asrwt>
<pdfrwt beam="2">  1        1 0.27611471E-02 0.91736081E+02</pdfrwt>
<pdfrwt beam="1">  1       -1 0.18034500E-01 0.91736081E+02</pdfrwt>
<totfact> 0.77666685E+04</totfact>
</mgrwt>
</event>
<event>
 5    1  0.3963873E+001  0.9060080E+02  0.7546771E-02  0.1301403E+00
         -2   -1    0    0    0  501 -0.00000000000E+00  0.00000000000E+00  0.17520740543E+02  0.17520740543E+02  0.00000000000E+00 0.  1.
          2   -1    0    0  501    0  0.00000000000E+00 -0.00000000000E+00 -0.11712553544E+03  0.11712553544E+03  0.00000000000E+00 0. -1.
         23    2    1    2    0    0  0.00000000000E+00  0.00000000000E+00 -0.99604794899E+02  0.13464627598E+03  0.90600797290E+02 0.  0.
          2    1    3    3  502    0  0.35655213826E+02  0.23407722572E+02 -0.72483112273E+02  0.84101232534E+02  0.00000000000E+00 0. -1.
         -2    1    3    3    0  502 -0.35655213826E+02 -0.23407722572E+02 -0.27121682626E+02  0.50545043450E+02  0.00000000000E+00 0.  1.
<mgrwt>
<rscale>  0 0.90600797E+02</rscale>
<asrwt>0</asrwt>
<pdfrwt beam="2">  1        2 0.18019313E-01 0.90600797E+02</pdfrwt>
<pdfrwt beam="1">  1       -2 0.26954986E-02 0.90600797E+02</pdfrwt>
<totfact> 0.13111537E+05</totfact>
</mgrwt>
</event>
<event>
 5    1  0.3963873E+001  0.9673026E+02  0.7546771E-02  0.1287326E+00
         -3   -1    0    0    0  501 -0.00000000000E+00  0.00000000000E+00  0.20822507393E+02  0.20822507393E+02  0.00000000000E+00 0.  1.
          3   -1    0    0  501    0  0.00000000000E+00 -0.00000000000E+00 -0.11233928738E+03  0.11233928738E+03  0.00000000000E+00 0. -1.
         23    2    1    2    0    0  0.00000000000E+00  0.00000000000E+00 -0.91516779989E+02  0.13316179477E+03  0.96730256735E+02 0.  0.
          2    1    3    3  502    0 -0.19704855144E+02 -0.32120702537E+02 -0.87494694319E+02  0.95264591437E+02  0.00000000000E+00 0. -1.
         -2    1    3    3    0  502  0.19704855144E+02  0.32120702537E+02 -0.40220856697E+01  0.37897203338E+02  0.00000000000E+00 0.  1.
<mgrwt>
<rscale>  0 0.96730257E+02</rscale>
<asrwt>0</asrwt>
<pdfrwt beam="2">  1        3 0.17282967E-01 0.96730257E+02</pdfrwt>
<pdfrwt beam="1">  1       -3 0.32034627E-02 0.96730257E+02</pdfrwt>
<totfact> 0.27551569E+04</totfact>
</mgrwt>
</event>
<event>
 5    1  0.3963873E+001  0.9002487E+02  0.7546771E-02  0.1302791E+00
          1   -1    0    0  501    0  0.00000000000E+00  0.00000000000E+00  0.16794810778E+01  0.16794810778E+01  0.00000000000E+00 0. -1.
         -1   -1    0    0    0  501 -0.00000000000E+00 -0.00000000000E+00 -0.12063960481E+04  0.12063960481E+04  0.00000000000E+00 0.  1.
         23    2    1    2    0    0  0.00000000000E+00  0.00000000000E+00 -0.12047165670E+04  0.12080755292E+04  0.90024870677E+02 0.  0.
          2    1    3    3  502    0  0.10843615097E+02 -0.42737993868E+02 -0.48084144555E+03  0.48285879496E+03  0.00000000000E+00 0. -1.
         -2    1    3    3    0  502 -0.10843615097E+02  0.42737993868E+02 -0.72387512149E+03  0.72521673423E+03  0.00000000000E+00 0.  1.
<mgrwt>
<rscale>  0 0.90024871E+02</rscale>
<asrwt>0</asrwt>
<pdfrwt beam="1">  1        1 0.25838140E-03 0.90024871E+02</pdfrwt>
<pdfrwt beam="2">  1       -1 0.18559961E+00 0.90024871E+02</pdfrwt>
<totfact> 0.20616713E+04</totfact>
</mgrwt>
</event>
<event>
 5    1  0.3963873E+001  0.9334307E+02  0.7546771E-02  0.1294952E+00
          2   -1    0    0  501    0  0.00000000000E+00  0.00000000000E+00  0.25200500313E+03  0.25200500313E+03  0.00000000000E+00 0.  1.
         -2   -1    0    0    0  501 -0.00000000000E+00 -0.00000000000E+00 -0.86436069013E+01  0.86436069013E+01  0.00000000000E+00 0. -1.
         23    2    1    2    0    0  0.00000000000E+00  0.00000000000E+00  0.24336139623E+03  0.26064861003E+03  0.93343070106E+02 0.  0.
          2    1    3    3  502    0 -0.31586932096E+02 -0.31341324502E+02  0.82366784119E+02  0.93617840323E+02  0.00000000000E+00 0. -1.
         -2    1    3    3    0  502  0.31586932096E+02  0.31341324502E+02  0.16099461211E+03  0.16703076971E+03  0.00000000000E+00 0.  1.
<mgrwt>
<rscale>  0 0.93343070E+02</rscale>
<asrwt>0</asrwt>
<pdfrwt beam="1">  1        2 0.38769995E-01 0.93343070E+02</pdfrwt>
<pdfrwt beam="2">  1       -2 0.13297859E-02 0.93343070E+02</pdfrwt>
<totfact> 0.15807842E+05</totfact>
</mgrwt>
</event>
<event>
 5    1  0.3963873E+001  0.8529676E+02  0.7546771E-02  0.1314658E+00
          1   -1    0    0  501    0  0.00000000000E+00  0.00000000000E+00  0.10789070395E+04  0.10789070395E+04  0.00000000000E+00 0. -1.
         -1   -1    0    0    0  501 -0.00000000000E+00 -0.00000000000E+00 -0.16858584315E+01  0.16858584315E+01  0.00000000000E+00 0.  1.
         23    2    1    2    0    0  0.00000000000E+00  0.00000000000E+00  0.10772211811E+04  0.10805928979E+04  0.85296764986E+02 0.  0.
          2    1    3    3  502    0 -0.22244247989E+02 -0.23705406938E+02  0.18887120287E+03  0.19164833461E+03  0.00000000000E+00 0.  1.
         -2    1    3    3    0  502  0.22244247989E+02  0.23705406938E+02  0.88834997819E+03  0.88894456330E+03  0.00000000000E+00 0. -1.
<mgrwt>
<rscale>  0 0.85296765E+02</rscale>
<asrwt>0</asrwt>
<pdfrwt beam="1">  1        1 0.16598515E+00 0.85296765E+02</pdfrwt>
<pdfrwt beam="2">  1       -1 0.25936370E-03 0.85296765E+02</pdfrwt>
<totfact> 0.15844061E+05</totfact>
</mgrwt>
</event>
<event>
 5    1  0.3963873E+001  0.8938471E+02  0.7546771E-02  0.1304349E+00
          1   -1    0    0  501    0  0.00000000000E+00  0.00000000000E+00  0.31211454827E+03  0.31211454827E+03  0.00000000000E+00 0. -1.
         -1   -1    0    0    0  501 -0.00000000000E+00 -0.00000000000E+00 -0.63995948408E+01  0.63995948408E+01  0.00000000000E+00 0.  1.
         23    2    1    2    0    0  0.00000000000E+00  0.00000000000E+00  0.30571495343E+03  0.31851414311E+03  0.89384711285E+02 0.  0.
          2    1    3    3  502    0  0.61261597910E+01 -0.28387074543E+02  0.27391114270E+03  0.27544631043E+03  0.00000000000E+00 0. -1.
         -2    1    3    3    0  502 -0.61261597910E+01  0.28387074543E+02  0.31803810732E+02  0.43067832683E+02  0.00000000000E+00 0.  1.
<mgrwt>
<rscale>  0 0.89384711E+02</rscale>
<asrwt>0</asrwt>
<pdfrwt beam="1">  1        1 0.48017611E-01 0.89384711E+02</pdfrwt>
<pdfrwt beam="2">  1       -1 0.98455329E-03 0.89384711E+02</pdfrwt>
<totfact> 0.13608351E+05</totfact>
</mgrwt>
</event>
<event>
 5    1  0.3963873E+001  0.9268071E+02  0.7546771E-02  0.1296487E+00
          1   -1    0    0  501    0  0.00000000000E+00  0.00000000000E+00  0.13028993937E+03  0.13028993937E+03  0.00000000000E+00 0. -1.
         -1   -1    0    0    0  501 -0.00000000000E+00 -0.00000000000E+00 -0.16481922213E+02  0.16481922213E+02  0.00000000000E+00 0.  1.
         23    2    1    2    0    0  0.00000000000E+00  0.00000000000E+00  0.11380801716E+03  0.14677186158E+03  0.92680713113E+02 0.  0.
          2    1    3    3  502    0 -0.28677358060E+02 -0.28186559816E+02  0.93380990515E+02  0.10167045986E+03  0.00000000000E+00 0. -1.
         -2    1    3    3    0  502  0.28677358060E+02  0.28186559816E+02  0.20427026643E+02  0.45101401719E+02  0.00000000000E+00 0.  1.
<mgrwt>
<rscale>  0 0.92680713E+02</rscale>
<asrwt>0</asrwt>
<pdfrwt beam="1">  1        1 0.20044605E-01 0.92680713E+02</pdfrwt>
<pdfrwt beam="2">  1       -1 0.25356804E-02 0.92680713E+02</pdfrwt>
<totfact> 0.10456736E+05</totfact>
</mgrwt>
</event>
<event>
 5    1  0.3963873E+001  0.9096903E+02  0.7546771E-02  0.1300522E+00
         -2   -1    0    0    0  501 -0.00000000000E+00  0.00000000000E+00  0.42898987128E+02  0.42898987128E+02  0.00000000000E+00 0.  1.
          2   -1    0    0  501    0  0.00000000000E+00 -0.00000000000E+00 -0.48225876229E+02  0.48225876229E+02  0.00000000000E+00 0. -1.
         23    2    1    2    0    0  0.00000000000E+00  0.00000000000E+00 -0.53268891003E+01  0.91124863357E+02  0.90969033051E+02 0.  0.
          2    1    3    3  502    0 -0.29891400702E+02  0.18773144164E+02 -0.31399070382E+02  0.47242231092E+02  0.00000000000E+00 0. -1.
         -2    1    3    3    0  502  0.29891400702E+02 -0.18773144164E+02  0.26072181281E+02  0.43882632265E+02  0.00000000000E+00 0.  1.
<mgrwt>
<rscale>  0 0.90969033E+02</rscale>
<asrwt>0</asrwt>
<pdfrwt beam="2">  1        2 0.74193655E-02 0.90969033E+02</pdfrwt>
<pdfrwt beam="1">  1       -2 0.65998442E-02 0.90969033E+02</pdfrwt>
<totfact> 0.10078386E+05</totfact>
</mgrwt>
</event>
<event>
 5    1  0.3963873E+001  0.9034826E+02  0.7546771E-02  0.1302011E+00
         -1   -1    0    0    0  501 -0.00000000000E+00  0.00000000000E+00  0.27119392423E+01  0.27119392423E+01  0.00000000000E+00 0.  1.
          1   -1    0    0  501    0  0.00000000000E+00 -0.00000000000E+00 -0.75248815016E+03  0.75248815016E+03  0.00000000000E+00 0. -1.
         23    2    1    2    0    0  0.00000000000E+00  0.00000000000E+00 -0.74977621092E+03  0.75520008940E+03  0.90348262712E+02 0.  0.
          2    1    3    3  502    0  0.12459521577E+02 -0.37599164799E+02 -0.19333436084E+03  0.19735022664E+03  0.00000000000E+00 0.  1.
         -2    1    3    3    0  502 -0.12459521577E+02  0.37599164799E+02 -0.55644185007E+03  0.55784986276E+03  0.00000000000E+00 0. -1.
<mgrwt>
<rscale>  0 0.90348263E+02</rscale>
<asrwt>0</asrwt>
<pdfrwt beam="2">  1        1 0.11576750E+00 0.90348263E+02</pdfrwt>
<pdfrwt beam="1">  1       -1 0.41722109E-03 0.90348263E+02</pdfrwt>
<totfact> 0.14534951E+05</totfact>
</mgrwt>
</event>
<event>
 5    1  0.3963873E+001  0.9045054E+02  0.7546771E-02  0.1301764E+00
          2   -1    0    0  501    0  0.00000000000E+00  0.00000000000E+00  0.33758888445E+03  0.33758888445E+03  0.00000000000E+00 0. -1.
         -2   -1    0    0    0  501 -0.00000000000E+00 -0.00000000000E+00 -0.60586272290E+01  0.60586272290E+01  0.00000000000E+00 0.  1.
         23    2    1    2    0    0  0.00000000000E+00  0.00000000000E+00  0.33153025722E+03  0.34364751168E+03  0.90450543559E+02 0.  0.
          2    1    3    3  502    0  0.23123361906E+02  0.24854127645E+02  0.27929373373E+03  0.28134926199E+03  0.00000000000E+00 0. -1.
         -2    1    3    3    0  502 -0.23123361906E+02 -0.24854127645E+02  0.52236523499E+02  0.62298249687E+02  0.00000000000E+00 0.  1.
<mgrwt>
<rscale>  0 0.90450544E+02</rscale>
<asrwt>0</asrwt>
<pdfrwt beam="1">  1        2 0.51936737E-01 0.90450544E+02</pdfrwt>
<pdfrwt beam="2">  1       -2 0.93209676E-03 0.90450544E+02</pdfrwt>
<totfact> 0.19172886E+05</totfact>
</mgrwt>
</event>
<event>
 5    1  0.3963873E+001  0.8980803E+02  0.7546771E-02  0.1303317E+00
         -4   -1    0    0    0  501 -0.00000000000E+00  0.00000000000E+00  0.12465135886E+02  0.12465135886E+02  0.00000000000E+00 0.  1.
          4   -1    0    0  501    0  0.00000000000E+00 -0.00000000000E+00 -0.16176081521E+03  0.16176081521E+03  0.00000000000E+00 0. -1.
         23    2    1    2    0    0  0.00000000000E+00  0.00000000000E+00 -0.14929567933E+03  0.17422595110E+03  0.89808029545E+02 0.  0.
          2    1    3    3  502    0  0.20133638526E+02 -0.22446601673E+02 -0.10096936408E+02  0.31798764941E+02  0.00000000000E+00 0.  1.
         -2    1    3    3    0  502 -0.20133638526E+02  0.22446601673E+02 -0.13919874292E+03  0.14242718616E+03  0.00000000000E+00 0. -1.
<mgrwt>
<rscale>  0 0.89808030E+02</rscale>
<asrwt>0</asrwt>
<pdfrwt beam="2">  1        4 0.24886278E-01 0.89808030E+02</pdfrwt>
<pdfrwt beam="1">  1       -4 0.19177133E-02 0.89808030E+02</pdfrwt>
<totfact> 0.23442840E+04</totfact>
</mgrwt>
</event>
<event>
 5    1  0.3963873E+001  0.9152845E+02  0.7546771E-02  0.1299192E+00
          2   -1    0    0  501    0  0.00000000000E+00  0.00000000000E+00  0.96569110515E+03  0.96569110515E+03  0.00000000000E+00 0. -1.
         -2   -1    0    0    0  501 -0.00000000000E+00 -0.00000000000E+00 -0.21687725037E+01  0.21687725037E+01  0.00000000000E+00 0.  1.
         23    2    1    2    0    0  0.00000000000E+00  0.00000000000E+00  0.96352233264E+03  0.96785987765E+03  0.91528450568E+02 0.  0.
          2    1    3    3  502    0  0.30877042299E+01 -0.28526256828E+02  0.85876289644E+03  0.85924210416E+03  0.00000000000E+00 0. -1.
         -2    1    3    3    0  502 -0.30877042299E+01  0.28526256828E+02  0.10475943620E+03  0.10861777349E+03  0.00000000000E+00 0.  1.
<mgrwt>
<rscale>  0 0.91528451E+02</rscale>
<asrwt>0</asrwt>
<pdfrwt beam="1">  1        2 0.14856752E+00 0.91528451E+02</pdfrwt>
<pdfrwt beam="2">  1       -2 0.33365808E-03 0.91528451E+02</pdfrwt>
<totfact> 0.24701108E+05</totfact>
</mgrwt>
</event>
<event>
 5    1  0.3963873E+001  0.8951607E+02  0.7546771E-02  0.1304028E+00
         -1   -1    0    0    0  501 -0.00000000000E+00  0.00000000000E+00  0.52882929633E+02  0.52882929633E+02  0.00000000000E+00 0.  1.
          1   -1    0    0  501    0  0.00000000000E+00 -0.00000000000E+00 -0.37881445130E+02  0.37881445130E+02  0.00000000000E+00 0. -1.
         23    2    1    2    0    0  0.00000000000E+00  0.00000000000E+00  0.15001484502E+02  0.90764374763E+02  0.89516072238E+02 0.  0.
          2    1    3    3  502    0 -0.20846077239E+02 -0.12895190730E+02  0.45472095049E+02  0.51658071086E+02  0.00000000000E+00 0.  1.
         -2    1    3    3    0  502  0.20846077239E+02  0.12895190730E+02 -0.30470610546E+02  0.39106303677E+02  0.00000000000E+00 0. -1.
<mgrwt>
<rscale>  0 0.89516072E+02</rscale>
<asrwt>0</asrwt>
<pdfrwt beam="2">  1        1 0.58279146E-02 0.89516072E+02</pdfrwt>
<pdfrwt beam="1">  1       -1 0.81358354E-02 0.89516072E+02</pdfrwt>
<totfact> 0.94708353E+04</totfact>
</mgrwt>
</event>
<event>
 5    1  0.3963873E+001  0.9161903E+02  0.7546771E-02  0.1298978E+00
         -1   -1    0    0    0  501 -0.00000000000E+00  0.00000000000E+00  0.46339307028E+03  0.46339307028E+03  0.00000000000E+00 0.  1.
          1   -1    0    0  501    0  0.00000000000E+00 -0.00000000000E+00 -0.45285780036E+01  0.45285780036E+01  0.00000000000E+00 0. -1.
         23    2    1    2    0    0  0.00000000000E+00  0.00000000000E+00  0.45886449227E+03  0.46792164828E+03  0.91619030012E+02 0.  0.
          2    1    3    3  502    0 -0.68825965218E+01  0.43092600871E+02  0.15826540175E+03  0.16417149501E+03  0.00000000000E+00 0. -1.
         -2    1    3    3    0  502  0.68825965218E+01 -0.43092600871E+02  0.30059909053E+03  0.30375015327E+03  0.00000000000E+00 0.  1.
<mgrwt>
<rscale>  0 0.91619030E+02</rscale>
<asrwt>0</asrwt>
<pdfrwt beam="2">  1        1 0.69670468E-03 0.91619030E+02</pdfrwt>
<pdfrwt beam="1">  1       -1 0.71291204E-01 0.91619030E+02</pdfrwt>
<totfact> 0.48602591E+04</totfact>
</mgrwt>
</event>
<event>
 5    1  0.3963873E+001  0.9229536E+02  0.7546771E-02  0.1297386E+00
         -1   -1    0    0    0  501 -0.00000000000E+00  0.00000000000E+00  0.29460014853E+02  0.29460014853E+02  0.00000000000E+00 0.  1.
          1   -1    0    0  501    0  0.00000000000E+00 -0.00000000000E+00 -0.72288101012E+02  0.72288101012E+02  0.00000000000E+00 0. -1.
         23    2    1    2    0    0  0.00000000000E+00  0.00000000000E+00 -0.42828086159E+02  0.10174811586E+03  0.92295363469E+02 0.  0.
          2    1    3    3  502    0 -0.31269251482E+02  0.21931793400E+02 -0.49967296762E+02  0.62892769025E+02  0.00000000000E+00 0. -1.
         -2    1    3    3    0  502  0.31269251482E+02 -0.21931793400E+02  0.71392106025E+01  0.38855346839E+02  0.00000000000E+00 0.  1.
<mgrwt>
<rscale>  0 0.92295363E+02</rscale>
<asrwt>0</asrwt>
<pdfrwt beam="2">  1        1 0.11121246E-01 0.92295363E+02</pdfrwt>
<pdfrwt beam="1">  1       -1 0.45323100E-02 0.92295363E+02</pdfrwt>
<totfact> 0.95878075E+04</totfact>
</mgrwt>
</event>
<event>
 5    1  0.3963873E+001  0.9142200E+02  0.7546771E-02  0.1299444E+00
         -3   -1    0    0    0  501 -0.00000000000E+00  0.00000000000E+00  0.98319516172E+02  0.98319516172E+02  0.00000000000E+00 0.  1.
          3   -1    0    0  501    0  0.00000000000E+00 -0.00000000000E+00 -0.21252091827E+02  0.21252091827E+02  0.00000000000E+00 0. -1.
         23    2    1    2    0    0  0.00000000000E+00  0.00000000000E+00  0.77067424345E+02  0.11957160800E+03  0.91421997049E+02 0.  0.
          2    1    3    3  502    0 -0.19780395348E+02 -0.31099590747E+02  0.31706425246E+01  0.36993263695E+02  0.00000000000E+00 0. -1.
         -2    1    3    3    0  502  0.19780395348E+02  0.31099590747E+02  0.73896781821E+02  0.82578344305E+02  0.00000000000E+00 0.  1.
<mgrwt>
<rscale>  0 0.91421997E+02</rscale>
<asrwt>0</asrwt>
<pdfrwt beam="2">  1        3 0.32695527E-02 0.91421997E+02</pdfrwt>
<pdfrwt beam="1">  1       -3 0.15126079E-01 0.91421997E+02</pdfrwt>
<totfact> 0.33035073E+04</totfact>
</mgrwt>
</event>
<event>
 5    1  0.3963873E+001  0.8998030E+02  0.7546771E-02  0.1302899E+00
          2   -1    0    0  501    0  0.00000000000E+00  0.00000000000E+00  0.15826145075E+04  0.15826145075E+04  0.00000000000E+00 0. -1.
         -2   -1    0    0    0  501 -0.00000000000E+00 -0.00000000000E+00 -0.12789680851E+01  0.12789680851E+01  0.00000000000E+00 0.  1.
         23    2    1    2    0    0  0.00000000000E+00  0.00000000000E+00  0.15813355394E+04  0.15838934755E+04  0.89980296643E+02 0.  0.
          2    1    3    3  502    0 -0.27784905887E+02 -0.15183858236E+02  0.13532825088E+04  0.13536528724E+04  0.00000000000E+00 0. -1.
         -2    1    3    3    0  502  0.27784905887E+02  0.15183858236E+02  0.22805303061E+03  0.23024060310E+03  0.00000000000E+00 0.  1.
<mgrwt>
<rscale>  0 0.89980297E+02</rscale>
<asrwt>0</asrwt>
<pdfrwt beam="1">  1        2 0.24347759E+00 0.89980297E+02</pdfrwt>
<pdfrwt beam="2">  1       -2 0.19676559E-03 0.89980297E+02</pdfrwt>
<totfact> 0.23889997E+05</totfact>
</mgrwt>
</event>
<event>
 5    1  0.3963873E+001  0.9054817E+02  0.7546771E-02  0.1301530E+00
          2   -1    0    0  501    0  0.00000000000E+00  0.00000000000E+00  0.57978194370E+03  0.57978194370E+03  0.00000000000E+00 0. -1.
         -2   -1    0    0    0  501 -0.00000000000E+00 -0.00000000000E+00 -0.35353687158E+01  0.35353687158E+01  0.00000000000E+00 0.  1.
         23    2    1    2    0    0  0.00000000000E+00  0.00000000000E+00  0.57624657499E+03  0.58331731242E+03  0.90548173825E+02 0.  0.
          2    1    3    3  502    0  0.33191434381E+02  0.27541120562E+02  0.37681776541E+03  0.37927801540E+03  0.00000000000E+00 0. -1.
         -2    1    3    3    0  502 -0.33191434381E+02 -0.27541120562E+02  0.19942880958E+03  0.20403929702E+03  0.00000000000E+00 0.  1.
<mgrwt>
<rscale>  0 0.90548174E+02</rscale>
<asrwt>0</asrwt>
<pdfrwt beam="1">  1        2 0.89197147E-01 0.90548174E+02</pdfrwt>
<pdfrwt beam="2">  1       -2 0.54390334E-03 0.90548174E+02</pdfrwt>
<totfact> 0.22977039E+05</totfact>
</mgrwt>
</event>
<event>
 5    1  0.3963873E+001  0.9256192E+02  0.7546771E-02  0.1296764E+00
          4   -1    0    0  501    0  0.00000000000E+00  0.00000000000E+00  0.53004806499E+01  0.53004806499E+01  0.00000000000E+00 0.  1.
         -4   -1    0    0    0  501 -0.00000000000E+00 -0.00000000000E+00 -0.40410052800E+03  0.40410052800E+03  0.00000000000E+00 0. -1.
         23    2    1    2    0    0  0.00000000000E+00  0.00000000000E+00 -0.39880004735E+03  0.40940100865E+03  0.92561915047E+02 0.  0.
          2    1    3    3  502    0  0.18626565319E+02 -0.42211299892E+02 -0.18334006676E+03  0.18905640125E+03  0.00000000000E+00 0. -1.
         -2    1    3    3    0  502 -0.18626565319E+02  0.42211299892E+02 -0.21545998059E+03  0.22034460740E+03  0.00000000000E+00 0.  1.
<mgrwt>
<rscale>  0 0.92561915E+02</rscale>
<asrwt>0</asrwt>
<pdfrwt beam="1">  1        4 0.81545845E-03 0.92561915E+02</pdfrwt>
<pdfrwt beam="2">  1       -4 0.62169320E-01 0.92561915E+02</pdfrwt>
<totfact> 0.14347612E+04</totfact>
</mgrwt>
</event>
<event>
 5    1  0.3963873E+001  0.8992700E+02  0.7546771E-02  0.1303029E+00
         -4   -1    0    0    0  501 -0.00000000000E+00  0.00000000000E+00  0.49181441688E+02  0.49181441688E+02  0.00000000000E+00 0.  1.
          4   -1    0    0  501    0  0.00000000000E+00 -0.00000000000E+00 -0.41107301908E+02  0.41107301908E+02  0.00000000000E+00 0. -1.
         23    2    1    2    0    0  0.00000000000E+00  0.00000000000E+00  0.80741397793E+01  0.90288743596E+02  0.89927000878E+02 0.  0.
          2    1    3    3  502    0 -0.35001645615E+02  0.27253221702E+02 -0.33316000422E+01  0.44485422868E+02  0.00000000000E+00 0. -1.
         -2    1    3    3    0  502  0.35001645615E+02 -0.27253221702E+02  0.11405739821E+02  0.45803320728E+02  0.00000000000E+00 0.  1.
<mgrwt>
<rscale>  0 0.89927001E+02</rscale>
<asrwt>0</asrwt>
<pdfrwt beam="2">  1        4 0.63242003E-02 0.89927001E+02</pdfrwt>
<pdfrwt beam="1">  1       -4 0.75663757E-02 0.89927001E+02</pdfrwt>
<totfact> 0.28104962E+04</totfact>
</mgrwt>
</event>
<event>
 5    1  0.3963873E+001  0.9158674E+02  0.7546771E-02  0.1299054E+00
         -1   -1    0    0    0  501 -0.00000000000E+00  0.00000000000E+00  0.14900177668E+03  0.14900177668E+03  0.00000000000E+00 0. -1.
          1   -1    0    0  501    0  0.00000000000E+00 -0.00000000000E+00 -0.14073876794E+02  0.14073876794E+02  0.00000000000E+00 0.  1.
         23    2    1    2    0    0  0.00000000000E+00  0.00000000000E+00  0.13492789989E+03  0.16307565347E+03  0.91586738060E+02 0.  0.
          2    1    3    3  502    0 -0.10414141220E+02  0.43559273468E+02  0.50462821007E+02  0.67471186046E+02  0.00000000000E+00 0. -1.
         -2    1    3    3    0  502  0.10414141220E+02 -0.43559273468E+02  0.84465078878E+02  0.95604467428E+02  0.00000000000E+00 0.  1.
<mgrwt>
<rscale>  0 0.91586738E+02</rscale>
<asrwt>0</asrwt>
<pdfrwt beam="2">  1        1 0.21652119E-02 0.91586738E+02</pdfrwt>
<pdfrwt beam="1">  1       -1 0.22923349E-01 0.91586738E+02</pdfrwt>
<totfact> 0.74037427E+04</totfact>
</mgrwt>
</event>
<event>
 5    1  0.3963873E+001  0.9359143E+02  0.7546771E-02  0.1294380E+00
          2   -1    0    0  501    0  0.00000000000E+00  0.00000000000E+00  0.11124911304E+04  0.11124911304E+04  0.00000000000E+00 0. -1.
         -2   -1    0    0    0  501 -0.00000000000E+00 -0.00000000000E+00 -0.19684103244E+01  0.19684103244E+01  0.00000000000E+00 0.  1.
         23    2    1    2    0    0  0.00000000000E+00  0.00000000000E+00  0.11105227201E+04  0.11144595408E+04  0.93591431808E+02 0.  0.
          2    1    3    3  502    0 -0.25887762830E+02 -0.23448007022E+02  0.92609688808E+03  0.92675532446E+03  0.00000000000E+00 0. -1.
         -2    1    3    3    0  502  0.25887762830E+02  0.23448007022E+02  0.18442583204E+03  0.18770421631E+03  0.00000000000E+00 0.  1.
<mgrwt>
<rscale>  0 0.93591432E+02</rscale>
<asrwt>0</asrwt>
<pdfrwt beam="1">  1        2 0.17115198E+00 0.93591432E+02</pdfrwt>
<pdfrwt beam="2">  1       -2 0.30283325E-03 0.93591432E+02</pdfrwt>
<totfact> 0.23343937E+05</totfact>
</mgrwt>
</event>
<event>
 5    1  0.3963873E+001  0.8867344E+02  0.7546771E-02  0.1306096E+00
         -2   -1    0    0    0  501 -0.00000000000E+00  0.00000000000E+00  0.10766376807E+03  0.10766376807E+03  0.00000000000E+00 0.  1.
          2   -1    0    0  501    0  0.00000000000E+00 -0.00000000000E+00 -0.18258184412E+02  0.18258184412E+02  0.00000000000E+00 0. -1.
         23    2    1    2    0    0  0.00000000000E+00  0.00000000000E+00  0.89405583661E+02  0.12592195249E+03  0.88673444323E+02 0.  0.
          2    1    3    3  502    0 -0.20397687209E+02  0.39319159135E+02  0.41977521884E+02  0.61026012995E+02  0.00000000000E+00 0. -1.
         -2    1    3    3    0  502  0.20397687209E+02 -0.39319159135E+02  0.47428061777E+02  0.64895939491E+02  0.00000000000E+00 0.  1.
<mgrwt>
<rscale>  0 0.88673444E+02</rscale>
<asrwt>0</asrwt>
<pdfrwt beam="2">  1        2 0.28089515E-02 0.88673444E+02</pdfrwt>
<pdfrwt beam="1">  1       -2 0.16563656E-01 0.88673444E+02</pdfrwt>
<totfact> 0.83655699E+04</totfact>
</mgrwt>
</event>
<event>
 5    1  0.3963873E+001  0.9076634E+02  0.7546771E-02  0.1301006E+00
          2   -1    0    0  501    0  0.00000000000E+00  0.00000000000E+00  0.28001941536E+03  0.28001941536E+03  0.00000000000E+00 0. -1.
         -2   -1    0    0    0  501 -0.00000000000E+00 -0.00000000000E+00 -0.73553195100E+01  0.73553195100E+01  0.00000000000E+00 0.  1.
         23    2    1    2    0    0  0.00000000000E+00  0.00000000000E+00  0.27266409585E+03  0.28737473487E+03  0.90766343299E+02 0.  0.
          2    1    3    3  502    0 -0.28613272401E+02  0.17435789161E+02  0.39421333944E+02  0.51737488063E+02  0.00000000000E+00 0.  1.
         -2    1    3    3    0  502  0.28613272401E+02 -0.17435789161E+02  0.23324276191E+03  0.23563724681E+03  0.00000000000E+00 0. -1.
<mgrwt>
<rscale>  0 0.90766343E+02</rscale>
<asrwt>0</asrwt>
<pdfrwt beam="1">  1        2 0.43079902E-01 0.90766343E+02</pdfrwt>
<pdfrwt beam="2">  1       -2 0.11315878E-02 0.90766343E+02</pdfrwt>
<totfact> 0.17722438E+05</totfact>
</mgrwt>
</event>
<event>
 5    1  0.3963873E+001  0.8727473E+02  0.7546771E-02  0.1309589E+00
          2   -1    0    0  501    0  0.00000000000E+00  0.00000000000E+00  0.43734529057E+02  0.43734529057E+02  0.00000000000E+00 0.  1.
         -2   -1    0    0    0  501 -0.00000000000E+00 -0.00000000000E+00 -0.43540421647E+02  0.43540421647E+02  0.00000000000E+00 0. -1.
         23    2    1    2    0    0  0.00000000000E+00  0.00000000000E+00  0.19410741007E+00  0.87274950704E+02  0.87274734847E+02 0.  0.
          2    1    3    3  502    0  0.32737834090E+02 -0.25634635082E+02 -0.13143807527E+02  0.43608026475E+02  0.00000000000E+00 0. -1.
         -2    1    3    3    0  502 -0.32737834090E+02  0.25634635082E+02  0.13337914937E+02  0.43666924229E+02  0.00000000000E+00 0.  1.
<mgrwt>
<rscale>  0 0.87274735E+02</rscale>
<asrwt>0</asrwt>
<pdfrwt beam="1">  1        2 0.67283891E-02 0.87274735E+02</pdfrwt>
<pdfrwt beam="2">  1       -2 0.66985264E-02 0.87274735E+02</pdfrwt>
<totfact> 0.11063965E+05</totfact>
</mgrwt>
</event>
<event>
 5    1  0.3963873E+001  0.9111475E+02  0.7546771E-02  0.1300174E+00
          2   -1    0    0  501    0  0.00000000000E+00  0.00000000000E+00  0.16460401458E+01  0.16460401458E+01  0.00000000000E+00 0. -1.
         -2   -1    0    0    0  501 -0.00000000000E+00 -0.00000000000E+00 -0.12608893678E+04  0.12608893678E+04  0.00000000000E+00 0.  1.
         23    2    1    2    0    0  0.00000000000E+00  0.00000000000E+00 -0.12592433277E+04  0.12625354080E+04  0.91114752239E+02 0.  0.
          2    1    3    3  502    0  0.39178135415E+02 -0.24455539230E+01 -0.30924849267E+03  0.31172991074E+03  0.00000000000E+00 0. -1.
         -2    1    3    3    0  502 -0.39178135415E+02  0.24455539230E+01 -0.94999483502E+03  0.95080549725E+03  0.00000000000E+00 0.  1.
<mgrwt>
<rscale>  0 0.91114752E+02</rscale>
<asrwt>0</asrwt>
<pdfrwt beam="1">  1        2 0.25323688E-03 0.91114752E+02</pdfrwt>
<pdfrwt beam="2">  1       -2 0.19398303E+00 0.91114752E+02</pdfrwt>
<totfact> 0.13900647E+04</totfact>
</mgrwt>
</event>
<event>
 5    1  0.3963873E+001  0.9280899E+02  0.7546771E-02  0.1296188E+00
         -1   -1    0    0    0  501 -0.00000000000E+00  0.00000000000E+00  0.84768469107E+02  0.84768469107E+02  0.00000000000E+00 0.  1.
          1   -1    0    0  501    0  0.00000000000E+00 -0.00000000000E+00 -0.25403045996E+02  0.25403045996E+02  0.00000000000E+00 0. -1.
         23    2    1    2    0    0  0.00000000000E+00  0.00000000000E+00  0.59365423110E+02  0.11017151510E+03  0.92808993524E+02 0.  0.
          2    1    3    3  502    0 -0.77567971420E+01 -0.36756382253E+02  0.62022206522E+02  0.72511748290E+02  0.00000000000E+00 0.  1.
         -2    1    3    3    0  502  0.77567971420E+01  0.36756382253E+02 -0.26567834115E+01  0.37659766812E+02  0.00000000000E+00 0. -1.
<mgrwt>
<rscale>  0 0.92808994E+02</rscale>
<asrwt>0</asrwt>
<pdfrwt beam="2">  1        1 0.39081610E-02 0.92808994E+02</pdfrwt>
<pdfrwt beam="1">  1       -1 0.13041303E-01 0.92808994E+02</pdfrwt>
<totfact> 0.80084693E+04</totfact>
</mgrwt>
</event>
<event>
 5    1  0.3963873E+001  0.9272049E+02  0.7546771E-02  0.1296394E+00
          2   -1    0    0  501    0  0.00000000000E+00  0.00000000000E+00  0.51857935656E+02  0.51857935656E+02  0.00000000000E+00 0. -1.
         -2   -1    0    0    0  501 -0.00000000000E+00 -0.00000000000E+00 -0.41445393055E+02  0.41445393055E+02  0.00000000000E+00 0.  1.
         23    2    1    2    0    0  0.00000000000E+00  0.00000000000E+00  0.10412542601E+02  0.93303328711E+02  0.92720494526E+02 0.  0.
          2    1    3    3  502    0  0.39621844970E+02  0.21065157701E+02  0.16925984497E+02  0.47959570671E+02  0.00000000000E+00 0. -1.
         -2    1    3    3    0  502 -0.39621844970E+02 -0.21065157701E+02 -0.65134418959E+01  0.45343758039E+02  0.00000000000E+00 0.  1.
<mgrwt>
<rscale>  0 0.92720495E+02</rscale>
<asrwt>0</asrwt>
<pdfrwt beam="1">  1        2 0.79781439E-02 0.92720495E+02</pdfrwt>
<pdfrwt beam="2">  1       -2 0.63762143E-02 0.92720495E+02</pdfrwt>
<totfact> 0.97275289E+04</totfact>
</mgrwt>
</event>
<event>
 5    1  0.3963873E+001  0.9120693E+02  0.7546771E-02  0.1299955E+00
         -1   -1    0    0    0  501 -0.00000000000E+00  0.00000000000E+00  0.86770402676E+02  0.86770402676E+02  0.00000000000E+00 0.  1.
          1   -1    0    0  501    0  0.00000000000E+00 -0.00000000000E+00 -0.23967571413E+02  0.23967571413E+02  0.00000000000E+00 0. -1.
         23    2    1    2    0    0  0.00000000000E+00  0.00000000000E+00  0.62802831262E+02  0.11073797409E+03  0.91206925673E+02 0.  0.
          2    1    3    3  502    0 -0.48438057296E+01  0.41280530680E+02  0.86178872179E+01  0.42447763749E+02  0.00000000000E+00 0.  1.
         -2    1    3    3    0  502  0.48438057296E+01 -0.41280530680E+02  0.54184944044E+02  0.68290210340E+02  0.00000000000E+00 0. -1.
<mgrwt>
<rscale>  0 0.91206926E+02</rscale>
<asrwt>0</asrwt>
<pdfrwt beam="2">  1        1 0.36873187E-02 0.91206926E+02</pdfrwt>
<pdfrwt beam="1">  1       -1 0.13349293E-01 0.91206926E+02</pdfrwt>
<totfact> 0.83406633E+04</totfact>
</mgrwt>
</event>
<event>
 5    1  0.3963873E+001  0.9201694E+02  0.7546771E-02  0.1298040E+00
         -1   -1    0    0    0  501 -0.00000000000E+00  0.00000000000E+00  0.23430722081E+01  0.23430722081E+01  0.00000000000E+00 0.  1.
          1   -1    0    0  501    0  0.00000000000E+00 -0.00000000000E+00 -0.90342043753E+03  0.90342043753E+03  0.00000000000E+00 0. -1.
         23    2    1    2    0    0  0.00000000000E+00  0.00000000000E+00 -0.90107736532E+03  0.90576350974E+03  0.92016940166E+02 0.  0.
          2    1    3    3  502    0 -0.35037431598E+01  0.25558134228E+02 -0.75545503930E+02  0.79828676586E+02  0.00000000000E+00 0. -1.
         -2    1    3    3    0  502  0.35037431598E+01 -0.25558134228E+02 -0.82553186139E+03  0.82593483315E+03  0.00000000000E+00 0.  1.
<mgrwt>
<rscale>  0 0.92016940E+02</rscale>
<asrwt>0</asrwt>
<pdfrwt beam="2">  1        1 0.13898812E+00 0.92016940E+02</pdfrwt>
<pdfrwt beam="1">  1       -1 0.36047171E-03 0.92016940E+02</pdfrwt>
<totfact> 0.13575104E+05</totfact>
</mgrwt>
</event>
<event>
 5    1  0.3963873E+001  0.9565618E+02  0.7546771E-02  0.1289705E+00
         -1   -1    0    0    0  501 -0.00000000000E+00  0.00000000000E+00  0.29335517655E+01  0.29335517655E+01  0.00000000000E+00 0.  1.
          1   -1    0    0  501    0  0.00000000000E+00 -0.00000000000E+00 -0.77978038262E+03  0.77978038262E+03  0.00000000000E+00 0. -1.
         23    2    1    2    0    0  0.00000000000E+00  0.00000000000E+00 -0.77684683085E+03  0.78271393438E+03  0.95656178433E+02 0.  0.
          2    1    3    3  502    0 -0.75387895946E+00 -0.38195076240E+02 -0.15295652898E+03  0.15765510439E+03  0.00000000000E+00 0.  1.
         -2    1    3    3    0  502  0.75387895946E+00  0.38195076240E+02 -0.62389030187E+03  0.62505882999E+03  0.00000000000E+00 0. -1.
<mgrwt>
<rscale>  0 0.95656178E+02</rscale>
<asrwt>0</asrwt>
<pdfrwt beam="2">  1        1 0.11996631E+00 0.95656178E+02</pdfrwt>
<pdfrwt beam="1">  1       -1 0.45131530E-03 0.95656178E+02</pdfrwt>
<totfact> 0.12468560E+05</totfact>
</mgrwt>
</event>
<event>
 5    1  0.3963873E+001  0.9176124E+02  0.7546771E-02  0.1298642E+00
          1   -1    0    0  501    0  0.00000000000E+00  0.00000000000E+00  0.12752346923E+03  0.12752346923E+03  0.00000000000E+00 0. -1.
         -1   -1    0    0    0  501 -0.00000000000E+00 -0.00000000000E+00 -0.16507010980E+02  0.16507010980E+02  0.00000000000E+00 0.  1.
         23    2    1    2    0    0  0.00000000000E+00  0.00000000000E+00  0.11101645825E+03  0.14403048020E+03  0.91761240328E+02 0.  0.
          2    1    3    3  502    0  0.11701691166E+02  0.26787677885E+02  0.11101434133E+03  0.11479848973E+03  0.00000000000E+00 0. -1.
         -2    1    3    3    0  502 -0.11701691166E+02 -0.26787677885E+02  0.21169120192E-02  0.29231990474E+02  0.00000000000E+00 0.  1.
<mgrwt>
<rscale>  0 0.91761240E+02</rscale>
<asrwt>0</asrwt>
<pdfrwt beam="1">  1        1 0.19618995E-01 0.91761240E+02</pdfrwt>
<pdfrwt beam="2">  1       -1 0.25395402E-02 0.91761240E+02</pdfrwt>
<totfact> 0.10702463E+05</totfact>
</mgrwt>
</event>
<event>
 5    1  0.3963873E+001  0.9209221E+02  0.7546771E-02  0.1297863E+00
         -2   -1    0    0    0  501 -0.00000000000E+00  0.00000000000E+00  0.21982284711E+02  0.21982284711E+02  0.00000000000E+00 0.  1.
          2   -1    0    0  501    0  0.00000000000E+00 -0.00000000000E+00 -0.96452389161E+02  0.96452389161E+02  0.00000000000E+00 0. -1.
         23    2    1    2    0    0  0.00000000000E+00  0.00000000000E+00 -0.74470104451E+02  0.11843467387E+03  0.92092212040E+02 0.  0.
          2    1    3    3  502    0 -0.12005392932E+02  0.43922699074E+02 -0.28426734583E+02  0.53678787173E+02  0.00000000000E+00 0. -1.
         -2    1    3    3    0  502  0.12005392932E+02 -0.43922699074E+02 -0.46043369868E+02  0.64755886699E+02  0.00000000000E+00 0.  1.
<mgrwt>
<rscale>  0 0.92092212E+02</rscale>
<asrwt>0</asrwt>
<pdfrwt beam="2">  1        2 0.14838829E-01 0.92092212E+02</pdfrwt>
<pdfrwt beam="1">  1       -2 0.33818899E-02 0.92092212E+02</pdfrwt>
<totfact> 0.11803936E+05</totfact>
</mgrwt>
</event>
<event>
 5    1  0.3963873E+001  0.9149292E+02  0.7546771E-02  0.1299276E+00
         -3   -1    0    0    0  501 -0.00000000000E+00  0.00000000000E+00  0.50626481505E+01  0.50626481505E+01  0.00000000000E+00 0.  1.
          3   -1    0    0  501    0  0.00000000000E+00 -0.00000000000E+00 -0.41336833094E+03  0.41336833094E+03  0.00000000000E+00 0. -1.
         23    2    1    2    0    0  0.00000000000E+00  0.00000000000E+00 -0.40830568279E+03  0.41843097909E+03  0.91492915925E+02 0.  0.
          2    1    3    3  502    0 -0.23429301103E+02  0.35106045277E+02 -0.28485330614E+03  0.28796314449E+03  0.00000000000E+00 0. -1.
         -2    1    3    3    0  502  0.23429301103E+02 -0.35106045277E+02 -0.12345237665E+03  0.13046783460E+03  0.00000000000E+00 0.  1.
<mgrwt>
<rscale>  0 0.91492916E+02</rscale>
<asrwt>0</asrwt>
<pdfrwt beam="2">  1        3 0.63595149E-01 0.91492916E+02</pdfrwt>
<pdfrwt beam="1">  1       -3 0.77886869E-03 0.91492916E+02</pdfrwt>
<totfact> 0.19885052E+04</totfact>
</mgrwt>
</event>
<event>
 5    1  0.3963873E+001  0.8679554E+02  0.7546771E-02  0.1310803E+00
          1   -1    0    0  501    0  0.00000000000E+00  0.00000000000E+00  0.28476104266E+02  0.28476104266E+02  0.00000000000E+00 0. -1.
         -1   -1    0    0    0  501 -0.00000000000E+00 -0.00000000000E+00 -0.66138487880E+02  0.66138487880E+02  0.00000000000E+00 0.  1.
         23    2    1    2    0    0  0.00000000000E+00  0.00000000000E+00 -0.37662383615E+02  0.94614592146E+02  0.86795540827E+02 0.  0.
          2    1    3    3  502    0 -0.39301365590E+02  0.42726414303E+01  0.68450173778E+00  0.39538858667E+02  0.00000000000E+00 0. -1.
         -2    1    3    3    0  502  0.39301365590E+02 -0.42726414303E+01 -0.38346885353E+02  0.55075733479E+02  0.00000000000E+00 0.  1.
<mgrwt>
<rscale>  0 0.86795541E+02</rscale>
<asrwt>0</asrwt>
<pdfrwt beam="1">  1        1 0.43809392E-02 0.86795541E+02</pdfrwt>
<pdfrwt beam="2">  1       -1 0.10175152E-01 0.86795541E+02</pdfrwt>
<totfact> 0.98973830E+04</totfact>
</mgrwt>
</event>
<event>
 5    1  0.3963873E+001  0.8936744E+02  0.7546771E-02  0.1304391E+00
         -4   -1    0    0    0  501 -0.00000000000E+00  0.00000000000E+00  0.19421424862E+01  0.19421424862E+01  0.00000000000E+00 0.  1.
          4   -1    0    0  501    0  0.00000000000E+00 -0.00000000000E+00 -0.10280577944E+04  0.10280577944E+04  0.00000000000E+00 0. -1.
         23    2    1    2    0    0  0.00000000000E+00  0.00000000000E+00 -0.10261156519E+04  0.10299999369E+04  0.89367437487E+02 0.  0.
          2    1    3    3  502    0 -0.18435260751E+02 -0.20958427044E+02 -0.91521515121E+03  0.91564069782E+03  0.00000000000E+00 0. -1.
         -2    1    3    3    0  502  0.18435260751E+02  0.20958427044E+02 -0.11090050072E+03  0.11435923908E+03  0.00000000000E+00 0.  1.
<mgrwt>
<rscale>  0 0.89367437E+02</rscale>
<asrwt>0</asrwt>
<pdfrwt beam="2">  1        4 0.15816282E+00 0.89367437E+02</pdfrwt>
<pdfrwt beam="1">  1       -4 0.29879099E-03 0.89367437E+02</pdfrwt>
<totfact> 0.72609252E+03</totfact>
</mgrwt>
</event>
<event>
 5    1  0.3963873E+001  0.8585811E+02  0.7546771E-02  0.1313204E+00
          2   -1    0    0  501    0  0.00000000000E+00  0.00000000000E+00  0.35586115524E+02  0.35586115524E+02  0.00000000000E+00 0. -1.
         -2   -1    0    0    0  501 -0.00000000000E+00 -0.00000000000E+00 -0.51787151804E+02  0.51787151804E+02  0.00000000000E+00 0.  1.
         23    2    1    2    0    0  0.00000000000E+00  0.00000000000E+00 -0.16201036280E+02  0.87373267328E+02  0.85858105424E+02 0.  0.
          2    1    3    3  502    0  0.28728070059E+02 -0.15088510519E+02  0.20501316447E+02  0.38383188182E+02  0.00000000000E+00 0. -1.
         -2    1    3    3    0  502 -0.28728070059E+02  0.15088510519E+02 -0.36702352727E+02  0.48990079146E+02  0.00000000000E+00 0.  1.
<mgrwt>
<rscale>  0 0.85858105E+02</rscale>
<asrwt>0</asrwt>
<pdfrwt beam="1">  1        2 0.54747870E-02 0.85858105E+02</pdfrwt>
<pdfrwt beam="2">  1       -2 0.79672541E-02 0.85858105E+02</pdfrwt>
<totfact> 0.11016718E+05</totfact>
</mgrwt>
</event>
<event>
 5    1  0.3963873E+001  0.9489020E+02  0.7546771E-02  0.1291424E+00
         -1   -1    0    0    0  501 -0.00000000000E+00  0.00000000000E+00  0.14607006719E+01  0.14607006719E+01  0.00000000000E+00 0.  1.
          1   -1    0    0  501    0  0.00000000000E+00 -0.00000000000E+00 -0.15410670048E+04  0.15410670048E+04  0.00000000000E+00 0. -1.
         23    2    1    2    0    0  0.00000000000E+00  0.00000000000E+00 -0.15396063041E+04  0.15425277054E+04  0.94890202007E+02 0.  0.
          2    1    3    3  502    0 -0.22585462125E+02  0.39959705173E+02 -0.57462613553E+03  0.57645648298E+03  0.00000000000E+00 0.  1.
         -2    1    3    3    0  502  0.22585462125E+02 -0.39959705173E+02 -0.96498016855E+03  0.96607122245E+03  0.00000000000E+00 0. -1.
<mgrwt>
<rscale>  0 0.94890202E+02</rscale>
<asrwt>0</asrwt>
<pdfrwt beam="2">  1        1 0.23708736E+00 0.94890202E+02</pdfrwt>
<pdfrwt beam="1">  1       -1 0.22472306E-03 0.94890202E+02</pdfrwt>
<totfact> 0.97166051E+04</totfact>
</mgrwt>
</event>
<event>
 5    1  0.3963873E+001  0.9133049E+02  0.7546771E-02  0.1299661E+00
          2   -1    0    0  501    0  0.00000000000E+00  0.00000000000E+00  0.74727874627E+03  0.74727874627E+03  0.00000000000E+00 0. -1.
         -2   -1    0    0    0  501 -0.00000000000E+00 -0.00000000000E+00 -0.27905446890E+01  0.27905446890E+01  0.00000000000E+00 0.  1.
         23    2    1    2    0    0  0.00000000000E+00  0.00000000000E+00  0.74448820158E+03  0.75006929096E+03  0.91330492971E+02 0.  0.
          2    1    3    3  502    0  0.26562259321E+02  0.14979848059E+01  0.67430675154E+02  0.72489264932E+02  0.00000000000E+00 0.  1.
         -2    1    3    3    0  502 -0.26562259321E+02 -0.14979848059E+01  0.67705752643E+03  0.67758002603E+03  0.00000000000E+00 0. -1.
<mgrwt>
<rscale>  0 0.91330493E+02</rscale>
<asrwt>0</asrwt>
<pdfrwt beam="1">  1        2 0.11496580E+00 0.91330493E+02</pdfrwt>
<pdfrwt beam="2">  1       -2 0.42931516E-03 0.91330493E+02</pdfrwt>
<totfact> 0.23951252E+05</totfact>
</mgrwt>
</event>
<event>
 5    1  0.3963873E+001  0.8464071E+02  0.7546771E-02  0.1316375E+00
          4   -1    0    0  501    0  0.00000000000E+00  0.00000000000E+00  0.32701922173E+02  0.32701922173E+02  0.00000000000E+00 0. -1.
         -4   -1    0    0    0  501 -0.00000000000E+00 -0.00000000000E+00 -0.54767805483E+02  0.54767805483E+02  0.00000000000E+00 0.  1.
         23    2    1    2    0    0  0.00000000000E+00  0.00000000000E+00 -0.22065883310E+02  0.87469727656E+02  0.84640711539E+02 0.  0.
          2    1    3    3  502    0 -0.13008989336E+02 -0.36269028952E+02  0.70545216453E+01  0.39171961150E+02  0.00000000000E+00 0. -1.
         -2    1    3    3    0  502  0.13008989336E+02  0.36269028952E+02 -0.29120404956E+02  0.48297766506E+02  0.00000000000E+00 0.  1.
<mgrwt>
<rscale>  0 0.84640712E+02</rscale>
<asrwt>0</asrwt>
<pdfrwt beam="1">  1        4 0.50310650E-02 0.84640712E+02</pdfrwt>
<pdfrwt beam="2">  1       -4 0.84258161E-02 0.84640712E+02</pdfrwt>
<totfact> 0.33315346E+04</totfact>
</mgrwt>
</event>
<event>
 5    1  0.3963873E+001  0.9178341E+02  0.7546771E-02  0.1298589E+00
         -1   -1    0    0    0  501 -0.00000000000E+00  0.00000000000E+00  0.39445981506E+02  0.39445981506E+02  0.00000000000E+00 0.  1.
          1   -1    0    0  501    0  0.00000000000E+00 -0.00000000000E+00 -0.53390696208E+02  0.53390696208E+02  0.00000000000E+00 0. -1.
         23    2    1    2    0    0  0.00000000000E+00  0.00000000000E+00 -0.13944714702E+02  0.92836677714E+02  0.91783406239E+02 0.  0.
          2    1    3    3  502    0  0.24512652940E+02  0.12254029452E+02  0.30260622460E+02  0.40825686322E+02  0.00000000000E+00 0.  1.
         -2    1    3    3    0  502 -0.24512652940E+02 -0.12254029452E+02 -0.44205337162E+02  0.52010991392E+02  0.00000000000E+00 0. -1.
<mgrwt>
<rscale>  0 0.91783406E+02</rscale>
<asrwt>0</asrwt>
<pdfrwt beam="2">  1        1 0.82139533E-02 0.91783406E+02</pdfrwt>
<pdfrwt beam="1">  1       -1 0.60686125E-02 0.91783406E+02</pdfrwt>
<totfact> 0.92955491E+04</totfact>
</mgrwt>
</event>
<event>
 5    1  0.3963873E+001  0.9204702E+02  0.7546771E-02  0.1297969E+00
         -1   -1    0    0    0  501 -0.00000000000E+00  0.00000000000E+00  0.15242377541E+03  0.15242377541E+03  0.00000000000E+00 0.  1.
          1   -1    0    0  501    0  0.00000000000E+00 -0.00000000000E+00 -0.13896540993E+02  0.13896540993E+02  0.00000000000E+00 0. -1.
         23    2    1    2    0    0  0.00000000000E+00  0.00000000000E+00  0.13852723442E+03  0.16632031640E+03  0.92047015016E+02 0.  0.
          2    1    3    3  502    0 -0.34480616561E+02 -0.20166284017E+01  0.14303260759E+02  0.37383993592E+02  0.00000000000E+00 0. -1.
         -2    1    3    3    0  502  0.34480616561E+02  0.20166284017E+01  0.12422397366E+03  0.12893632281E+03  0.00000000000E+00 0.  1.
<mgrwt>
<rscale>  0 0.92047015E+02</rscale>
<asrwt>0</asrwt>
<pdfrwt beam="2">  1        1 0.21379295E-02 0.92047015E+02</pdfrwt>
<pdfrwt beam="1">  1       -1 0.23449810E-01 0.92047015E+02</pdfrwt>
<totfact> 0.72689959E+04</totfact>
</mgrwt>
</event>
<event>
 5    1  0.3963873E+001  0.9242246E+02  0.7546771E-02  0.1297089E+00
         -3   -1    0    0    0  501 -0.00000000000E+00  0.00000000000E+00  0.79532207672E+02  0.79532207672E+02  0.00000000000E+00 0.  1.
          3   -1    0    0  501    0  0.00000000000E+00 -0.00000000000E+00 -0.26850477110E+02  0.26850477110E+02  0.00000000000E+00 0. -1.
         23    2    1    2    0    0  0.00000000000E+00  0.00000000000E+00  0.52681730562E+02  0.10638268478E+03  0.92422458778E+02 0.  0.
          2    1    3    3  502    0  0.30769608017E+02  0.22763260920E+02 -0.34653415846E+01  0.38431021552E+02  0.00000000000E+00 0. -1.
         -2    1    3    3    0  502 -0.30769608017E+02 -0.22763260920E+02  0.56147072147E+02  0.67951663231E+02  0.00000000000E+00 0.  1.
<mgrwt>
<rscale>  0 0.92422459E+02</rscale>
<asrwt>0</asrwt>
<pdfrwt beam="2">  1        3 0.41308427E-02 0.92422459E+02</pdfrwt>
<pdfrwt beam="1">  1       -3 0.12235724E-01 0.92422459E+02</pdfrwt>
<totfact> 0.32963556E+04</totfact>
</mgrwt>
</event>
<event>
 5    1  0.3963873E+001  0.9205042E+02  0.7546771E-02  0.1297961E+00
          1   -1    0    0  501    0  0.00000000000E+00  0.00000000000E+00  0.19456537390E+03  0.19456537390E+03  0.00000000000E+00 0. -1.
         -1   -1    0    0    0  501 -0.00000000000E+00 -0.00000000000E+00 -0.10887446076E+02  0.10887446076E+02  0.00000000000E+00 0.  1.
         23    2    1    2    0    0  0.00000000000E+00  0.00000000000E+00  0.18367792782E+03  0.20545281997E+03  0.92050421324E+02 0.  0.
          2    1    3    3  502    0  0.14116943207E+02 -0.39439402565E+02  0.49281314531E+02  0.64679227903E+02  0.00000000000E+00 0.  1.
         -2    1    3    3    0  502 -0.14116943207E+02  0.39439402565E+02  0.13439661329E+03  0.14077359207E+03  0.00000000000E+00 0. -1.
<mgrwt>
<rscale>  0 0.92050421E+02</rscale>
<asrwt>0</asrwt>
<pdfrwt beam="1">  1        1 0.29933132E-01 0.92050421E+02</pdfrwt>
<pdfrwt beam="2">  1       -1 0.16749918E-02 0.92050421E+02</pdfrwt>
<totfact> 0.11479696E+05</totfact>
</mgrwt>
</event>
<event>
 5    1  0.3963873E+001  0.8772516E+02  0.7546771E-02  0.1308456E+00
         -1   -1    0    0    0  501 -0.00000000000E+00  0.00000000000E+00  0.14070180638E+01  0.14070180638E+01  0.00000000000E+00 0.  1.
          1   -1    0    0  501    0  0.00000000000E+00 -0.00000000000E+00 -0.13673784220E+04  0.13673784220E+04  0.00000000000E+00 0. -1.
         23    2    1    2    0    0  0.00000000000E+00  0.00000000000E+00 -0.13659714039E+04  0.13687854400E+04  0.87725164913E+02 0.  0.
          2    1    3    3  502    0  0.29396025378E+02  0.25551309591E+02 -0.99773970091E+03  0.99849962769E+03  0.00000000000E+00 0. -1.
         -2    1    3    3    0  502 -0.29396025378E+02 -0.25551309591E+02 -0.36823170298E+03  0.37028581233E+03  0.00000000000E+00 0.  1.
<mgrwt>
<rscale>  0 0.87725165E+02</rscale>
<asrwt>0</asrwt>
<pdfrwt beam="2">  1        1 0.21036588E+00 0.87725165E+02</pdfrwt>
<pdfrwt beam="1">  1       -1 0.21646435E-03 0.87725165E+02</pdfrwt>
<totfact> 0.13100942E+05</totfact>
</mgrwt>
</event>
<event>
 5    1  0.3963873E+001  0.9476320E+02  0.7546771E-02  0.1291710E+00
          2   -1    0    0  501    0  0.00000000000E+00  0.00000000000E+00  0.36012365138E+04  0.36012365138E+04  0.00000000000E+00 0. -1.
         -2   -1    0    0    0  501 -0.00000000000E+00 -0.00000000000E+00 -0.62340140683E+00  0.62340140683E+00  0.00000000000E+00 0.  1.
         23    2    1    2    0    0  0.00000000000E+00  0.00000000000E+00  0.36006131124E+04  0.36018599152E+04  0.94763197689E+02 0.  0.
          2    1    3    3  502    0 -0.38368056907E+02 -0.15857389259E+02  0.93235797364E+03  0.93328182003E+03  0.00000000000E+00 0.  1.
         -2    1    3    3    0  502  0.38368056907E+02  0.15857389259E+02  0.26682551388E+04  0.26685780952E+04  0.00000000000E+00 0. -1.
<mgrwt>
<rscale>  0 0.94763198E+02</rscale>
<asrwt>0</asrwt>
<pdfrwt beam="1">  1        2 0.55401973E+00 0.94763198E+02</pdfrwt>
<pdfrwt beam="2">  1       -2 0.95910793E-04 0.94763198E+02</pdfrwt>
<totfact> 0.50830988E+04</totfact>
</mgrwt>
</event>
<event>
 5    1  0.3963873E+001  0.9268170E+02  0.7546771E-02  0.1296485E+00
         -2   -1    0    0    0  501 -0.00000000000E+00  0.00000000000E+00  0.26244826332E+01  0.26244826332E+01  0.00000000000E+00 0.  1.
          2   -1    0    0  501    0  0.00000000000E+00 -0.00000000000E+00 -0.81824667910E+03  0.81824667910E+03  0.00000000000E+00 0. -1.
         23    2    1    2    0    0  0.00000000000E+00  0.00000000000E+00 -0.81562219647E+03  0.82087116173E+03  0.92681696121E+02 0.  0.
          2    1    3    3  502    0  0.21983041630E+02 -0.35788917748E+02 -0.23439395008E+03  0.23812732851E+03  0.00000000000E+00 0. -1.
         -2    1    3    3    0  502 -0.21983041630E+02  0.35788917748E+02 -0.58122824639E+03  0.58274383322E+03  0.00000000000E+00 0.  1.
<mgrwt>
<rscale>  0 0.92681696E+02</rscale>
<asrwt>0</asrwt>
<pdfrwt beam="2">  1        2 0.12588439E+00 0.92681696E+02</pdfrwt>
<pdfrwt beam="1">  1       -2 0.40376566E-03 0.92681696E+02</pdfrwt>
<totfact> 0.23433705E+05</totfact>
</mgrwt>
</event>
<event>
 5    1  0.3963873E+001  0.9471821E+02  0.7546771E-02  0.1291812E+00
         -1   -1    0    0    0  501 -0.00000000000E+00  0.00000000000E+00  0.32268378306E+02  0.32268378306E+02  0.00000000000E+00 0.  1.
          1   -1    0    0  501    0  0.00000000000E+00 -0.00000000000E+00 -0.69507209401E+02  0.69507209401E+02  0.00000000000E+00 0. -1.
         23    2    1    2    0    0  0.00000000000E+00  0.00000000000E+00 -0.37238831095E+02  0.10177558771E+03  0.94718212144E+02 0.  0.
          2    1    3    3  502    0  0.41741779337E+02  0.12068912474E+01 -0.42623387679E+02  0.59670645262E+02  0.00000000000E+00 0. -1.
         -2    1    3    3    0  502 -0.41741779337E+02 -0.12068912474E+01  0.53845565842E+01  0.42104942445E+02  0.00000000000E+00 0.  1.
<mgrwt>
<rscale>  0 0.94718212E+02</rscale>
<asrwt>0</asrwt>
<pdfrwt beam="2">  1        1 0.10693417E-01 0.94718212E+02</pdfrwt>
<pdfrwt beam="1">  1       -1 0.49643659E-02 0.94718212E+02</pdfrwt>
<totfact> 0.88691347E+04</totfact>
</mgrwt>
</event>
<event>
 5    1  0.3963873E+001  0.9213909E+02  0.7546771E-02  0.1297753E+00
          1   -1    0    0  501    0  0.00000000000E+00  0.00000000000E+00  0.27470981174E+02  0.27470981174E+02  0.00000000000E+00 0. -1.
         -1   -1    0    0    0  501 -0.00000000000E+00 -0.00000000000E+00 -0.77259821529E+02  0.77259821529E+02  0.00000000000E+00 0.  1.
         23    2    1    2    0    0  0.00000000000E+00  0.00000000000E+00 -0.49788840355E+02  0.10473080270E+03  0.92139092739E+02 0.  0.
          2    1    3    3  502    0  0.64590869217E+01 -0.43649469673E+02 -0.39948495337E+02  0.59522082342E+02  0.00000000000E+00 0.  1.
         -2    1    3    3    0  502 -0.64590869217E+01  0.43649469673E+02 -0.98403450182E+01  0.45208720361E+02  0.00000000000E+00 0. -1.
<mgrwt>
<rscale>  0 0.92139093E+02</rscale>
<asrwt>0</asrwt>
<pdfrwt beam="1">  1        1 0.42263048E-02 0.92139093E+02</pdfrwt>
<pdfrwt beam="2">  1       -1 0.11886126E-01 0.92139093E+02</pdfrwt>
<totfact> 0.82889821E+04</totfact>
</mgrwt>
</event>
<event>
 5    1  0.3963873E+001  0.8993185E+02  0.7546771E-02  0.1303017E+00
         -1   -1    0    0    0  501 -0.00000000000E+00  0.00000000000E+00  0.71183976466E+00  0.71183976466E+00  0.00000000000E+00 0.  1.
          1   -1    0    0  501    0  0.00000000000E+00 -0.00000000000E+00 -0.28404347105E+04  0.28404347105E+04  0.00000000000E+00 0. -1.
         23    2    1    2    0    0  0.00000000000E+00  0.00000000000E+00 -0.28397228707E+04  0.28411465503E+04  0.89931849216E+02 0.  0.
          2    1    3    3  502    0 -0.12401444473E+02  0.39670682442E+02 -0.19619009494E+04  0.19623411768E+04  0.00000000000E+00 0. -1.
         -2    1    3    3    0  502  0.12401444473E+02 -0.39670682442E+02 -0.87782192137E+03  0.87880537351E+03  0.00000000000E+00 0.  1.
<mgrwt>
<rscale>  0 0.89931849E+02</rscale>
<asrwt>0</asrwt>
<pdfrwt beam="2">  1        1 0.43700215E+00 0.89931849E+02</pdfrwt>
<pdfrwt beam="1">  1       -1 0.10951075E-03 0.89931849E+02</pdfrwt>
<totfact> 0.38735208E+04</totfact>
</mgrwt>
</event>
<event>
 5    1  0.3963873E+001  0.7681831E+02  0.7546771E-02  0.1338331E+00
          3   -1    0    0  501    0  0.00000000000E+00  0.00000000000E+00  0.12141932864E+03  0.12141932864E+03  0.00000000000E+00 0. -1.
         -3   -1    0    0    0  501 -0.00000000000E+00 -0.00000000000E+00 -0.12150151545E+02  0.12150151545E+02  0.00000000000E+00 0.  1.
         23    2    1    2    0    0  0.00000000000E+00  0.00000000000E+00  0.10926917710E+03  0.13356948019E+03  0.76818311449E+02 0.  0.
          2    1    3    3  502    0 -0.99680434078E+01 -0.26468732026E+02  0.99819484973E+02  0.10374914575E+03  0.00000000000E+00 0. -1.
         -2    1    3    3    0  502  0.99680434078E+01  0.26468732026E+02  0.94496921246E+01  0.29820334433E+02  0.00000000000E+00 0.  1.
<mgrwt>
<rscale>  0 0.76818311E+02</rscale>
<asrwt>0</asrwt>
<pdfrwt beam="1">  1        3 0.18679896E-01 0.76818311E+02</pdfrwt>
<pdfrwt beam="2">  1       -3 0.18692542E-02 0.76818311E+02</pdfrwt>
<totfact> 0.51213514E+04</totfact>
</mgrwt>
</event>
<event>
 5    1  0.3963873E+001  0.9212724E+02  0.7546771E-02  0.1297781E+00
         -2   -1    0    0    0  501 -0.00000000000E+00  0.00000000000E+00  0.67995048284E+01  0.67995048284E+01  0.00000000000E+00 0.  1.
          2   -1    0    0  501    0  0.00000000000E+00 -0.00000000000E+00 -0.31206050736E+03  0.31206050736E+03  0.00000000000E+00 0. -1.
         23    2    1    2    0    0  0.00000000000E+00  0.00000000000E+00 -0.30526100253E+03  0.31886001219E+03  0.92127236506E+02 0.  0.
          2    1    3    3  502    0 -0.69352381141E+01  0.22844090280E+02 -0.16283732036E+02  0.28898268416E+02  0.00000000000E+00 0.  1.
         -2    1    3    3    0  502  0.69352381141E+01 -0.22844090280E+02 -0.28897727050E+03  0.28996174377E+03  0.00000000000E+00 0. -1.
<mgrwt>
<rscale>  0 0.92127237E+02</rscale>
<asrwt>0</asrwt>
<pdfrwt beam="2">  1        2 0.48009293E-01 0.92127237E+02</pdfrwt>
<pdfrwt beam="1">  1       -2 0.10460780E-02 0.92127237E+02</pdfrwt>
<totfact> 0.17733562E+05</totfact>
</mgrwt>
</event>
<event>
 5    1  0.3963873E+001  0.9457771E+02  0.7546771E-02  0.1292130E+00
         -1   -1    0    0    0  501 -0.00000000000E+00  0.00000000000E+00  0.16466974334E+01  0.16466974334E+01  0.00000000000E+00 0.  1.
          1   -1    0    0  501    0  0.00000000000E+00 -0.00000000000E+00 -0.13580125300E+04  0.13580125300E+04  0.00000000000E+00 0. -1.
         23    2    1    2    0    0  0.00000000000E+00  0.00000000000E+00 -0.13563658325E+04  0.13596592274E+04  0.94577708741E+02 0.  0.
          2    1    3    3  502    0  0.27216876707E+02  0.38649237967E+02 -0.69700285202E+03  0.69860396341E+03  0.00000000000E+00 0. -1.
         -2    1    3    3    0  502 -0.27216876707E+02 -0.38649237967E+02 -0.65936298051E+03  0.66105526399E+03  0.00000000000E+00 0.  1.
<mgrwt>
<rscale>  0 0.94577709E+02</rscale>
<asrwt>0</asrwt>
<pdfrwt beam="2">  1        1 0.20892473E+00 0.94577709E+02</pdfrwt>
<pdfrwt beam="1">  1       -1 0.25333840E-03 0.94577709E+02</pdfrwt>
<totfact> 0.10784896E+05</totfact>
</mgrwt>
</event>
<event>
 5    1  0.3963873E+001  0.9813313E+02  0.7546771E-02  0.1284271E+00
         -2   -1    0    0    0  501 -0.00000000000E+00  0.00000000000E+00  0.18318831913E+02  0.18318831913E+02  0.00000000000E+00 0.  1.
          2   -1    0    0  501    0  0.00000000000E+00 -0.00000000000E+00 -0.13142365939E+03  0.13142365939E+03  0.00000000000E+00 0. -1.
         23    2    1    2    0    0  0.00000000000E+00  0.00000000000E+00 -0.11310482747E+03  0.14974249130E+03  0.98133132542E+02 0.  0.
          2    1    3    3  502    0 -0.17832698077E+02  0.45675518195E+02 -0.53793152534E+02  0.72787095990E+02  0.00000000000E+00 0. -1.
         -2    1    3    3    0  502  0.17832698077E+02 -0.45675518195E+02 -0.59311674939E+02  0.76955395309E+02  0.00000000000E+00 0.  1.
<mgrwt>
<rscale>  0 0.98133133E+02</rscale>
<asrwt>0</asrwt>
<pdfrwt beam="2">  1        2 0.20219024E-01 0.98133133E+02</pdfrwt>
<pdfrwt beam="1">  1       -2 0.28182819E-02 0.98133133E+02</pdfrwt>
<totfact> 0.10934442E+05</totfact>
</mgrwt>
</event>
<event>
 5    1  0.3963873E+001  0.9008152E+02  0.7546771E-02  0.1302654E+00
         -1   -1    0    0    0  501 -0.00000000000E+00  0.00000000000E+00  0.16725560931E+01  0.16725560931E+01  0.00000000000E+00 0.  1.
          1   -1    0    0  501    0  0.00000000000E+00 -0.00000000000E+00 -0.12129159121E+04  0.12129159121E+04  0.00000000000E+00 0. -1.
         23    2    1    2    0    0  0.00000000000E+00  0.00000000000E+00 -0.12112433560E+04  0.12145884682E+04  0.90081516400E+02 0.  0.
          2    1    3    3  502    0 -0.16501299158E+02 -0.28270360243E+02 -0.10227662415E+04  0.10232899349E+04  0.00000000000E+00 0. -1.
         -2    1    3    3    0  502  0.16501299158E+02  0.28270360243E+02 -0.18847711449E+03  0.19129853326E+03  0.00000000000E+00 0.  1.
<mgrwt>
<rscale>  0 0.90081516E+02</rscale>
<asrwt>0</asrwt>
<pdfrwt beam="2">  1        1 0.18660127E+00 0.90081516E+02</pdfrwt>
<pdfrwt beam="1">  1       -1 0.25731795E-03 0.90081516E+02</pdfrwt>
<totfact> 0.13076567E+05</totfact>
</mgrwt>
</event>
<event>
 5    1  0.3963873E+001  0.9445507E+02  0.7546771E-02  0.1292408E+00
          1   -1    0    0  501    0  0.00000000000E+00  0.00000000000E+00  0.87892502173E+02  0.87892502173E+02  0.00000000000E+00 0. -1.
         -1   -1    0    0    0  501 -0.00000000000E+00 -0.00000000000E+00 -0.25376907842E+02  0.25376907842E+02  0.00000000000E+00 0.  1.
         23    2    1    2    0    0  0.00000000000E+00  0.00000000000E+00  0.62515594331E+02  0.11326941001E+03  0.94455067151E+02 0.  0.
          2    1    3    3  502    0  0.42566040030E+02 -0.19594016825E+02  0.38316389775E+02  0.60530479798E+02  0.00000000000E+00 0. -1.
         -2    1    3    3    0  502 -0.42566040030E+02  0.19594016825E+02  0.24199204556E+02  0.52738930216E+02  0.00000000000E+00 0.  1.
<mgrwt>
<rscale>  0 0.94455067E+02</rscale>
<asrwt>0</asrwt>
<pdfrwt beam="1">  1        1 0.13521923E-01 0.94455067E+02</pdfrwt>
<pdfrwt beam="2">  1       -1 0.39041397E-02 0.94455067E+02</pdfrwt>
<totfact> 0.92815716E+04</totfact>
</mgrwt>
</event>
<event>
 5    1  0.3963873E+001  0.8977016E+02  0.7546771E-02  0.1303409E+00
          2   -1    0    0  501    0  0.00000000000E+00  0.00000000000E+00  0.85284820984E+01  0.85284820984E+01  0.00000000000E+00 0.  1.
         -2   -1    0    0    0  501 -0.00000000000E+00 -0.00000000000E+00 -0.23622849633E+03  0.23622849633E+03  0.00000000000E+00 0. -1.
         23    2    1    2    0    0  0.00000000000E+00  0.00000000000E+00 -0.22770001423E+03  0.24475697843E+03  0.89770162128E+02 0.  0.
          2    1    3    3  502    0 -0.33614749757E+02  0.65457619814E+01 -0.19295905040E+03  0.19597447164E+03  0.00000000000E+00 0. -1.
         -2    1    3    3    0  502  0.33614749757E+02 -0.65457619814E+01 -0.34740963831E+02  0.48782506794E+02  0.00000000000E+00 0.  1.
<mgrwt>
<rscale>  0 0.89770162E+02</rscale>
<asrwt>0</asrwt>
<pdfrwt beam="1">  1        2 0.13120741E-02 0.89770162E+02</pdfrwt>
<pdfrwt beam="2">  1       -2 0.36342847E-01 0.89770162E+02</pdfrwt>
<totfact> 0.60105043E+04</totfact>
</mgrwt>
</event>
<event>
 5    1  0.3963873E+001  0.9253894E+02  0.7546771E-02  0.1296817E+00
          2   -1    0    0  501    0  0.00000000000E+00  0.00000000000E+00  0.20424559290E+03  0.20424559290E+03  0.00000000000E+00 0. -1.
         -2   -1    0    0    0  501 -0.00000000000E+00 -0.00000000000E+00 -0.10481810775E+02  0.10481810775E+02  0.00000000000E+00 0.  1.
         23    2    1    2    0    0  0.00000000000E+00  0.00000000000E+00  0.19376378213E+03  0.21472740368E+03  0.92538935730E+02 0.  0.
          2    1    3    3  502    0 -0.34240466488E+02  0.22440103145E+02  0.14691307984E+03  0.15251039572E+03  0.00000000000E+00 0. -1.
         -2    1    3    3    0  502  0.34240466488E+02 -0.22440103145E+02  0.46850702287E+02  0.62217007958E+02  0.00000000000E+00 0.  1.
<mgrwt>
<rscale>  0 0.92538936E+02</rscale>
<asrwt>0</asrwt>
<pdfrwt beam="1">  1        2 0.31422396E-01 0.92538936E+02</pdfrwt>
<pdfrwt beam="2">  1       -2 0.16125864E-02 0.92538936E+02</pdfrwt>
<totfact> 0.14975421E+05</totfact>
</mgrwt>
</event>
<event>
 5    1  0.3963873E+001  0.9250152E+02  0.7546771E-02  0.1296905E+00
         -1   -1    0    0    0  501 -0.00000000000E+00  0.00000000000E+00  0.49402794131E+03  0.49402794131E+03  0.00000000000E+00 0.  1.
          1   -1    0    0  501    0  0.00000000000E+00 -0.00000000000E+00 -0.43299831248E+01  0.43299831248E+01  0.00000000000E+00 0. -1.
         23    2    1    2    0    0  0.00000000000E+00  0.00000000000E+00  0.48969795818E+03  0.49835792443E+03  0.92501516724E+02 0.  0.
          2    1    3    3  502    0  0.42086425028E+02  0.16846633595E+02  0.19545455304E+03  0.20064286316E+03  0.00000000000E+00 0. -1.
         -2    1    3    3    0  502 -0.42086425028E+02 -0.16846633595E+02  0.29424340515E+03  0.29771506127E+03  0.00000000000E+00 0.  1.
<mgrwt>
<rscale>  0 0.92501517E+02</rscale>
<asrwt>0</asrwt>
<pdfrwt beam="2">  1        1 0.66615164E-03 0.92501517E+02</pdfrwt>
<pdfrwt beam="1">  1       -1 0.76004254E-01 0.92501517E+02</pdfrwt>
<totfact> 0.45629592E+04</totfact>
</mgrwt>
</event>
<event>
 5    1  0.3963873E+001  0.8798310E+02  0.7546771E-02  0.1307811E+00
         -1   -1    0    0    0  501 -0.00000000000E+00  0.00000000000E+00  0.80100998048E+01  0.80100998048E+01  0.00000000000E+00 0.  1.
          1   -1    0    0  501    0  0.00000000000E+00 -0.00000000000E+00 -0.24160203146E+03  0.24160203146E+03  0.00000000000E+00 0. -1.
         23    2    1    2    0    0  0.00000000000E+00  0.00000000000E+00 -0.23359193166E+03  0.24961213127E+03  0.87983098037E+02 0.  0.
          2    1    3    3  502    0 -0.24496427254E+02 -0.32275412914E+02 -0.16539806984E+03  0.17028886849E+03  0.00000000000E+00 0. -1.
         -2    1    3    3    0  502  0.24496427254E+02  0.32275412914E+02 -0.68193861818E+02  0.79323262771E+02  0.00000000000E+00 0.  1.
<mgrwt>
<rscale>  0 0.87983098E+02</rscale>
<asrwt>0</asrwt>
<pdfrwt beam="2">  1        1 0.37169539E-01 0.87983098E+02</pdfrwt>
<pdfrwt beam="1">  1       -1 0.12323232E-02 0.87983098E+02</pdfrwt>
<totfact> 0.13510142E+05</totfact>
</mgrwt>
</event>
<event>
 5    1  0.3963873E+001  0.9313136E+02  0.7546771E-02  0.1295441E+00
          2   -1    0    0  501    0  0.00000000000E+00  0.00000000000E+00  0.11357898042E+04  0.11357898042E+04  0.00000000000E+00 0.  1.
         -2   -1    0    0    0  501 -0.00000000000E+00 -0.00000000000E+00 -0.19091232638E+01  0.19091232638E+01  0.00000000000E+00 0. -1.
         23    2    1    2    0    0  0.00000000000E+00  0.00000000000E+00  0.11338806809E+04  0.11376989274E+04  0.93131363953E+02 0.  0.
          2    1    3    3  502    0  0.10233827667E+02  0.38187745522E+02  0.86749718578E+03  0.86839760621E+03  0.00000000000E+00 0. -1.
         -2    1    3    3    0  502 -0.10233827667E+02 -0.38187745522E+02  0.26638349514E+03  0.26930132124E+03  0.00000000000E+00 0.  1.
<mgrwt>
<rscale>  0 0.93131364E+02</rscale>
<asrwt>0</asrwt>
<pdfrwt beam="1">  1        2 0.17473635E+00 0.93131364E+02</pdfrwt>
<pdfrwt beam="2">  1       -2 0.29371218E-03 0.93131364E+02</pdfrwt>
<totfact> 0.23625268E+05</totfact>
</mgrwt>
</event>
<event>
 5    1  0.3963873E+001  0.9151262E+02  0.7546771E-02  0.1299229E+00
          3   -1    0    0  501    0  0.00000000000E+00  0.00000000000E+00  0.14712977017E+03  0.14712977017E+03  0.00000000000E+00 0. -1.
         -3   -1    0    0    0  501 -0.00000000000E+00 -0.00000000000E+00 -0.14229887188E+02  0.14229887188E+02  0.00000000000E+00 0.  1.
         23    2    1    2    0    0  0.00000000000E+00  0.00000000000E+00  0.13289988298E+03  0.16135965736E+03  0.91512622771E+02 0.  0.
          2    1    3    3  502    0  0.34213863266E+02 -0.16398892083E+02  0.11154669799E+03  0.11782265459E+03  0.00000000000E+00 0. -1.
         -2    1    3    3    0  502 -0.34213863266E+02  0.16398892083E+02  0.21353184992E+02  0.43537002773E+02  0.00000000000E+00 0.  1.
<mgrwt>
<rscale>  0 0.91512623E+02</rscale>
<asrwt>0</asrwt>
<pdfrwt beam="1">  1        3 0.22635348E-01 0.91512623E+02</pdfrwt>
<pdfrwt beam="2">  1       -3 0.21892135E-02 0.91512623E+02</pdfrwt>
<totfact> 0.30322590E+04</totfact>
</mgrwt>
</event>
<event>
 5    1  0.3963873E+001  0.9211901E+02  0.7546771E-02  0.1297800E+00
          1   -1    0    0  501    0  0.00000000000E+00  0.00000000000E+00  0.27837717875E+03  0.27837717875E+03  0.00000000000E+00 0. -1.
         -1   -1    0    0    0  501 -0.00000000000E+00 -0.00000000000E+00 -0.76208756950E+01  0.76208756950E+01  0.00000000000E+00 0.  1.
         23    2    1    2    0    0  0.00000000000E+00  0.00000000000E+00  0.27075630306E+03  0.28599805445E+03  0.92119007281E+02 0.  0.
          2    1    3    3  502    0 -0.35319070271E+02 -0.28543934256E+02  0.11147329594E+03  0.12036813788E+03  0.00000000000E+00 0. -1.
         -2    1    3    3    0  502  0.35319070271E+02  0.28543934256E+02  0.15928300711E+03  0.16562991657E+03  0.00000000000E+00 0.  1.
<mgrwt>
<rscale>  0 0.92119007E+02</rscale>
<asrwt>0</asrwt>
<pdfrwt beam="1">  1        1 0.42827250E-01 0.92119007E+02</pdfrwt>
<pdfrwt beam="2">  1       -1 0.11724426E-02 0.92119007E+02</pdfrwt>
<totfact> 0.12287074E+05</totfact>
</mgrwt>
</event>
<event>
 5    1  0.3963873E+001  0.9182600E+02  0.7546771E-02  0.1298489E+00
          1   -1    0    0  501    0  0.00000000000E+00  0.00000000000E+00  0.74554683454E+02  0.74554683454E+02  0.00000000000E+00 0. -1.
         -1   -1    0    0    0  501 -0.00000000000E+00 -0.00000000000E+00 -0.28274599192E+02  0.28274599192E+02  0.00000000000E+00 0.  1.
         23    2    1    2    0    0  0.00000000000E+00  0.00000000000E+00  0.46280084261E+02  0.10282928265E+03  0.91826004869E+02 0.  0.
          2    1    3    3  502    0  0.25851282682E+01 -0.33828354196E+02  0.57781708181E+02  0.67005717936E+02  0.00000000000E+00 0. -1.
         -2    1    3    3    0  502 -0.25851282682E+01  0.33828354196E+02 -0.11501623920E+02  0.35823564710E+02  0.00000000000E+00 0.  1.
<mgrwt>
<rscale>  0 0.91826005E+02</rscale>
<asrwt>0</asrwt>
<pdfrwt beam="1">  1        1 0.11469951E-01 0.91826005E+02</pdfrwt>
<pdfrwt beam="2">  1       -1 0.43499384E-02 0.91826005E+02</pdfrwt>
<totfact> 0.97707498E+04</totfact>
</mgrwt>
</event>
<event>
 5    1  0.3963873E+001  0.9264426E+02  0.7546771E-02  0.1296572E+00
         -2   -1    0    0    0  501 -0.00000000000E+00  0.00000000000E+00  0.14949272063E+01  0.14949272063E+01  0.00000000000E+00 0. -1.
          2   -1    0    0  501    0  0.00000000000E+00 -0.00000000000E+00 -0.14353473982E+04  0.14353473982E+04  0.00000000000E+00 0.  1.
         23    2    1    2    0    0  0.00000000000E+00  0.00000000000E+00 -0.14338524709E+04  0.14368423254E+04  0.92644263201E+02 0.  0.
          2    1    3    3  502    0 -0.33136514696E+02  0.30261648069E+02 -0.89507601207E+03  0.89620023618E+03  0.00000000000E+00 0. -1.
         -2    1    3    3    0  502  0.33136514696E+02 -0.30261648069E+02 -0.53877645888E+03  0.54064208918E+03  0.00000000000E+00 0.  1.
<mgrwt>
<rscale>  0 0.92644263E+02</rscale>
<asrwt>0</asrwt>
<pdfrwt beam="2">  1        2 0.22082272E+00 0.92644263E+02</pdfrwt>
<pdfrwt beam="1">  1       -2 0.22998876E-03 0.92644263E+02</pdfrwt>
<totfact> 0.22972665E+05</totfact>
</mgrwt>
</event>
<event>
 5    1  0.3963873E+001  0.1150350E+03  0.7546771E-02  0.1251520E+00
         -1   -1    0    0    0  501 -0.00000000000E+00  0.00000000000E+00  0.47747538290E+01  0.47747538290E+01  0.00000000000E+00 0.  1.
          1   -1    0    0  501    0  0.00000000000E+00 -0.00000000000E+00 -0.69286572996E+03  0.69286572996E+03  0.00000000000E+00 0. -1.
         23    2    1    2    0    0  0.00000000000E+00  0.00000000000E+00 -0.68809097613E+03  0.69764048379E+03  0.11503500853E+03 0.  0.
          2    1    3    3  502    0 -0.28993187674E+02 -0.13144309582E+02 -0.63456958217E+03  0.63536755695E+03  0.00000000000E+00 0. -1.
         -2    1    3    3    0  502  0.28993187674E+02  0.13144309582E+02 -0.53521393962E+02  0.62272926842E+02  0.00000000000E+00 0.  1.
<mgrwt>
<rscale>  0 0.11503501E+03</rscale>
<asrwt>0</asrwt>
<pdfrwt beam="2">  1        1 0.10659471E+00 0.11503501E+03</pdfrwt>
<pdfrwt beam="1">  1       -1 0.73457763E-03 0.11503501E+03</pdfrwt>
<totfact> 0.76357682E+04</totfact>
</mgrwt>
</event>
<event>
 5    1  0.3963873E+001  0.9082999E+02  0.7546771E-02  0.1300854E+00
         -2   -1    0    0    0  501 -0.00000000000E+00  0.00000000000E+00  0.61774558640E+01  0.61774558640E+01  0.00000000000E+00 0.  1.
          2   -1    0    0  501    0  0.00000000000E+00 -0.00000000000E+00 -0.33387883963E+03  0.33387883963E+03  0.00000000000E+00 0. -1.
         23    2    1    2    0    0  0.00000000000E+00  0.00000000000E+00 -0.32770138376E+03  0.34005629549E+03  0.90829990548E+02 0.  0.
          2    1    3    3  502    0 -0.26093044046E+02  0.20605446091E+02 -0.27967455323E+03  0.28164390120E+03  0.00000000000E+00 0. -1.
         -2    1    3    3    0  502  0.26093044046E+02 -0.20605446091E+02 -0.48026830530E+02  0.58412394293E+02  0.00000000000E+00 0.  1.
<mgrwt>
<rscale>  0 0.90829991E+02</rscale>
<asrwt>0</asrwt>
<pdfrwt beam="2">  1        2 0.51365984E-01 0.90829991E+02</pdfrwt>
<pdfrwt beam="1">  1       -2 0.95037767E-03 0.90829991E+02</pdfrwt>
<totfact> 0.18883695E+05</totfact>
</mgrwt>
</event>
<event>
 5    1  0.3963873E+001  0.9150728E+02  0.7546771E-02  0.1299242E+00
          2   -1    0    0  501    0  0.00000000000E+00  0.00000000000E+00  0.21422232699E+03  0.21422232699E+03  0.00000000000E+00 0. -1.
         -2   -1    0    0    0  501 -0.00000000000E+00 -0.00000000000E+00 -0.97720697189E+01  0.97720697189E+01  0.00000000000E+00 0.  1.
         23    2    1    2    0    0  0.00000000000E+00  0.00000000000E+00  0.20445025727E+03  0.22399439671E+03  0.91507278719E+02 0.  0.
          2    1    3    3  502    0 -0.43741784367E+02  0.58048647898E+01  0.13183836206E+03  0.13902659409E+03  0.00000000000E+00 0. -1.
         -2    1    3    3    0  502  0.43741784367E+02 -0.58048647898E+01  0.72611895207E+02  0.84967802611E+02  0.00000000000E+00 0.  1.
<mgrwt>
<rscale>  0 0.91507279E+02</rscale>
<asrwt>0</asrwt>
<pdfrwt beam="1">  1        2 0.32957278E-01 0.91507279E+02</pdfrwt>
<pdfrwt beam="2">  1       -2 0.15033955E-02 0.91507279E+02</pdfrwt>
<totfact> 0.15705348E+05</totfact>
</mgrwt>
</event>
<event>
 5    1  0.3963873E+001  0.8993979E+02  0.7546771E-02  0.1302998E+00
          1   -1    0    0  501    0  0.00000000000E+00  0.00000000000E+00  0.10965504572E+03  0.10965504572E+03  0.00000000000E+00 0. -1.
         -1   -1    0    0    0  501 -0.00000000000E+00 -0.00000000000E+00 -0.18442303435E+02  0.18442303435E+02  0.00000000000E+00 0.  1.
         23    2    1    2    0    0  0.00000000000E+00  0.00000000000E+00  0.91212742289E+02  0.12809734916E+03  0.89939793784E+02 0.  0.
          2    1    3    3  502    0  0.30961683095E+02  0.14811962180E+02  0.86990073414E+02  0.93516270864E+02  0.00000000000E+00 0. -1.
         -2    1    3    3    0  502 -0.30961683095E+02 -0.14811962180E+02  0.42226688752E+01  0.34581078296E+02  0.00000000000E+00 0.  1.
<mgrwt>
<rscale>  0 0.89939794E+02</rscale>
<asrwt>0</asrwt>
<pdfrwt beam="1">  1        1 0.16870007E-01 0.89939794E+02</pdfrwt>
<pdfrwt beam="2">  1       -1 0.28372775E-02 0.89939794E+02</pdfrwt>
<totfact> 0.11009034E+05</totfact>
</mgrwt>
</event>
<event>
 5    1  0.3963873E+001  0.1185483E+03  0.7546771E-02  0.1245511E+00
          1   -1    0    0  501    0  0.00000000000E+00  0.00000000000E+00  0.30669369301E+02  0.30669369301E+02  0.00000000000E+00 0. -1.
         -1   -1    0    0    0  501 -0.00000000000E+00 -0.00000000000E+00 -0.11455816000E+03  0.11455816000E+03  0.00000000000E+00 0.  1.
         23    2    1    2    0    0  0.00000000000E+00  0.00000000000E+00 -0.83888790696E+02  0.14522752930E+03  0.11854832796E+03 0.  0.
          2    1    3    3  502    0 -0.39195525235E+02  0.10395524015E+01  0.12512541771E+02  0.41157424229E+02  0.00000000000E+00 0. -1.
         -2    1    3    3    0  502  0.39195525235E+02 -0.10395524015E+01 -0.96401332467E+02  0.10407010507E+03  0.00000000000E+00 0.  1.
<mgrwt>
<rscale>  0 0.11854833E+03</rscale>
<asrwt>0</asrwt>
<pdfrwt beam="1">  1        1 0.47183645E-02 0.11854833E+03</pdfrwt>
<pdfrwt beam="2">  1       -1 0.17624332E-01 0.11854833E+03</pdfrwt>
<totfact> 0.40119365E+04</totfact>
</mgrwt>
</event>
<event>
 5    1  0.3963873E+001  0.9171145E+02  0.7546771E-02  0.1298759E+00
         -1   -1    0    0    0  501 -0.00000000000E+00  0.00000000000E+00  0.15076542300E+04  0.15076542300E+04  0.00000000000E+00 0.  1.
          1   -1    0    0  501    0  0.00000000000E+00 -0.00000000000E+00 -0.13947147489E+01  0.13947147489E+01  0.00000000000E+00 0. -1.
         23    2    1    2    0    0  0.00000000000E+00  0.00000000000E+00  0.15062595153E+04  0.15090489448E+04  0.91711451649E+02 0.  0.
          2    1    3    3  502    0  0.11126561325E+02  0.39988551430E+02  0.43243397928E+03  0.43442149009E+03  0.00000000000E+00 0. -1.
         -2    1    3    3    0  502 -0.11126561325E+02 -0.39988551430E+02  0.10738255360E+04  0.10746274547E+04  0.00000000000E+00 0.  1.
<mgrwt>
<rscale>  0 0.91711452E+02</rscale>
<asrwt>0</asrwt>
<pdfrwt beam="2">  1        1 0.21457271E-03 0.91711452E+02</pdfrwt>
<pdfrwt beam="1">  1       -1 0.23194550E+00 0.91711452E+02</pdfrwt>
<totfact> 0.13449924E+04</totfact>
</mgrwt>
</event>
<event>
 5    1  0.3963873E+001  0.9704496E+02  0.7546771E-02  0.1286636E+00
         -2   -1    0    0    0  501 -0.00000000000E+00  0.00000000000E+00  0.96977085641E+02  0.96977085641E+02  0.00000000000E+00 0.  1.
          2   -1    0    0  501    0  0.00000000000E+00 -0.00000000000E+00 -0.24278219749E+02  0.24278219749E+02  0.00000000000E+00 0. -1.
         23    2    1    2    0    0  0.00000000000E+00  0.00000000000E+00  0.72698865892E+02  0.12125530539E+03  0.97044958567E+02 0.  0.
          2    1    3    3  502    0 -0.26473260768E+02  0.38154885372E+02  0.53922327791E+02  0.71163517675E+02  0.00000000000E+00 0.  1.
         -2    1    3    3    0  502  0.26473260768E+02 -0.38154885372E+02  0.18776538101E+02  0.50091787715E+02  0.00000000000E+00 0. -1.
<mgrwt>
<rscale>  0 0.97044959E+02</rscale>
<asrwt>0</asrwt>
<pdfrwt beam="2">  1        2 0.37351108E-02 0.97044959E+02</pdfrwt>
<pdfrwt beam="1">  1       -2 0.14919551E-01 0.97044959E+02</pdfrwt>
<totfact> 0.68976117E+04</totfact>
</mgrwt>
</event>
<event>
 5    1  0.3963873E+001  0.8816739E+02  0.7546771E-02  0.1307351E+00
          2   -1    0    0  501    0  0.00000000000E+00  0.00000000000E+00  0.24936330309E+02  0.24936330309E+02  0.00000000000E+00 0. -1.
         -2   -1    0    0    0  501 -0.00000000000E+00 -0.00000000000E+00 -0.77933373795E+02  0.77933373795E+02  0.00000000000E+00 0.  1.
         23    2    1    2    0    0  0.00000000000E+00  0.00000000000E+00 -0.52997043486E+02  0.10286970410E+03  0.88167394223E+02 0.  0.
          2    1    3    3  502    0 -0.23677012952E+02 -0.36913943491E+02 -0.21263422281E+02  0.48737801484E+02  0.00000000000E+00 0. -1.
         -2    1    3    3    0  502  0.23677012952E+02  0.36913943491E+02 -0.31733621205E+02  0.54131902620E+02  0.00000000000E+00 0.  1.
<mgrwt>
<rscale>  0 0.88167394E+02</rscale>
<asrwt>0</asrwt>
<pdfrwt beam="1">  1        2 0.38363586E-02 0.88167394E+02</pdfrwt>
<pdfrwt beam="2">  1       -2 0.11989750E-01 0.88167394E+02</pdfrwt>
<totfact> 0.93045327E+04</totfact>
</mgrwt>
</event>
<event>
 5    1  0.3963873E+001  0.9031625E+02  0.7546771E-02  0.1302088E+00
         -2   -1    0    0    0  501 -0.00000000000E+00  0.00000000000E+00  0.34538668117E+01  0.34538668117E+01  0.00000000000E+00 0.  1.
          2   -1    0    0  501    0  0.00000000000E+00 -0.00000000000E+00 -0.59042697435E+03  0.59042697435E+03  0.00000000000E+00 0. -1.
         23    2    1    2    0    0  0.00000000000E+00  0.00000000000E+00 -0.58697310754E+03  0.59388084116E+03  0.90316247297E+02 0.  0.
          2    1    3    3  502    0 -0.21327781920E+02  0.22331283385E+02 -0.76822194807E+02  0.82796196254E+02  0.00000000000E+00 0.  1.
         -2    1    3    3    0  502  0.21327781920E+02 -0.22331283385E+02 -0.51015091273E+03  0.51108464491E+03  0.00000000000E+00 0. -1.
<mgrwt>
<rscale>  0 0.90316247E+02</rscale>
<asrwt>0</asrwt>
<pdfrwt beam="2">  1        2 0.90834963E-01 0.90316247E+02</pdfrwt>
<pdfrwt beam="1">  1       -2 0.53136387E-03 0.90316247E+02</pdfrwt>
<totfact> 0.23255504E+05</totfact>
</mgrwt>
</event>
<event>
 5    1  0.3963873E+001  0.8739770E+02  0.7546771E-02  0.1309279E+00
         -1   -1    0    0    0  501 -0.00000000000E+00  0.00000000000E+00  0.35922954632E+01  0.35922954632E+01  0.00000000000E+00 0.  1.
          1   -1    0    0  501    0  0.00000000000E+00 -0.00000000000E+00 -0.53157915941E+03  0.53157915941E+03  0.00000000000E+00 0. -1.
         23    2    1    2    0    0  0.00000000000E+00  0.00000000000E+00 -0.52798686395E+03  0.53517145488E+03  0.87397697972E+02 0.  0.
          2    1    3    3  502    0  0.12475403631E+02  0.35825696531E+02 -0.39681248528E+03  0.39862170626E+03  0.00000000000E+00 0. -1.
         -2    1    3    3    0  502 -0.12475403631E+02 -0.35825696531E+02 -0.13117437867E+03  0.13654974862E+03  0.00000000000E+00 0.  1.
<mgrwt>
<rscale>  0 0.87397698E+02</rscale>
<asrwt>0</asrwt>
<pdfrwt beam="2">  1        1 0.81781406E-01 0.87397698E+02</pdfrwt>
<pdfrwt beam="1">  1       -1 0.55266086E-03 0.87397698E+02</pdfrwt>
<totfact> 0.15679720E+05</totfact>
</mgrwt>
</event>
<event>
 5    1  0.3963873E+001  0.8376648E+02  0.7546771E-02  0.1318690E+00
          1   -1    0    0  501    0  0.00000000000E+00  0.00000000000E+00  0.11456844939E+04  0.11456844939E+04  0.00000000000E+00 0. -1.
         -1   -1    0    0    0  501 -0.00000000000E+00 -0.00000000000E+00 -0.15311421617E+01  0.15311421617E+01  0.00000000000E+00 0.  1.
         23    2    1    2    0    0  0.00000000000E+00  0.00000000000E+00  0.11441533517E+04  0.11472156360E+04  0.83766480947E+02 0.  0.
          2    1    3    3  502    0  0.29181377090E+02 -0.27174362243E+02  0.39657924921E+03  0.39857884996E+03  0.00000000000E+00 0. -1.
         -2    1    3    3    0  502 -0.29181377090E+02  0.27174362243E+02  0.74757410249E+03  0.74863678607E+03  0.00000000000E+00 0.  1.
<mgrwt>
<rscale>  0 0.83766481E+02</rscale>
<asrwt>0</asrwt>
<pdfrwt beam="1">  1        1 0.17625847E+00 0.83766481E+02</pdfrwt>
<pdfrwt beam="2">  1       -1 0.23556125E-03 0.83766481E+02</pdfrwt>
<totfact> 0.16243296E+05</totfact>
</mgrwt>
</event>
<event>
 5    1  0.3963873E+001  0.9103109E+02  0.7546771E-02  0.1300374E+00
          2   -1    0    0  501    0  0.00000000000E+00  0.00000000000E+00  0.11305670863E+04  0.11305670863E+04  0.00000000000E+00 0. -1.
         -2   -1    0    0    0  501 -0.00000000000E+00 -0.00000000000E+00 -0.18324122743E+01  0.18324122743E+01  0.00000000000E+00 0.  1.
         23    2    1    2    0    0  0.00000000000E+00  0.00000000000E+00  0.11287346740E+04  0.11323994986E+04  0.91031093718E+02 0.  0.
          2    1    3    3  502    0 -0.36749586652E+01 -0.44553602738E+02  0.45798341244E+03  0.46016011877E+03  0.00000000000E+00 0.  1.
         -2    1    3    3    0  502  0.36749586652E+01  0.44553602738E+02  0.67075126160E+03  0.67223937981E+03  0.00000000000E+00 0. -1.
<mgrwt>
<rscale>  0 0.91031094E+02</rscale>
<asrwt>0</asrwt>
<pdfrwt beam="1">  1        2 0.17393284E+00 0.91031094E+02</pdfrwt>
<pdfrwt beam="2">  1       -2 0.28191049E-03 0.91031094E+02</pdfrwt>
<totfact> 0.25095284E+05</totfact>
</mgrwt>
</event>
<event>
 5    1  0.3963873E+001  0.9195685E+02  0.7546771E-02  0.1298181E+00
         -2   -1    0    0    0  501 -0.00000000000E+00  0.00000000000E+00  0.31505337644E+01  0.31505337644E+01  0.00000000000E+00 0.  1.
          2   -1    0    0  501    0  0.00000000000E+00 -0.00000000000E+00 -0.67100239279E+03  0.67100239279E+03  0.00000000000E+00 0. -1.
         23    2    1    2    0    0  0.00000000000E+00  0.00000000000E+00 -0.66785185902E+03  0.67415292655E+03  0.91956852806E+02 0.  0.
          2    1    3    3  502    0 -0.89425814170E+01  0.44734952752E+02 -0.37593173645E+03  0.37868965688E+03  0.00000000000E+00 0.  1.
         -2    1    3    3    0  502  0.89425814170E+01 -0.44734952752E+02 -0.29192012258E+03  0.29546326967E+03  0.00000000000E+00 0. -1.
<mgrwt>
<rscale>  0 0.91956853E+02</rscale>
<asrwt>0</asrwt>
<pdfrwt beam="2">  1        2 0.10323113E+00 0.91956853E+02</pdfrwt>
<pdfrwt beam="1">  1       -2 0.48469754E-03 0.91956853E+02</pdfrwt>
<totfact> 0.22951961E+05</totfact>
</mgrwt>
</event>
<event>
 5    1  0.3963873E+001  0.9190603E+02  0.7546771E-02  0.1298301E+00
         -2   -1    0    0    0  501 -0.00000000000E+00  0.00000000000E+00  0.14196405570E+01  0.14196405570E+01  0.00000000000E+00 0.  1.
          2   -1    0    0  501    0  0.00000000000E+00 -0.00000000000E+00 -0.14874747750E+04  0.14874747750E+04  0.00000000000E+00 0. -1.
         23    2    1    2    0    0  0.00000000000E+00  0.00000000000E+00 -0.14860551344E+04  0.14888944155E+04  0.91906028487E+02 0.  0.
          2    1    3    3  502    0 -0.40067944466E+02  0.10443320004E+02 -0.42016951272E+03  0.42220483480E+03  0.00000000000E+00 0.  1.
         -2    1    3    3    0  502  0.40067944466E+02 -0.10443320004E+02 -0.10658856217E+04  0.10666895807E+04  0.00000000000E+00 0. -1.
<mgrwt>
<rscale>  0 0.91906028E+02</rscale>
<asrwt>0</asrwt>
<pdfrwt beam="2">  1        2 0.22884308E+00 0.91906028E+02</pdfrwt>
<pdfrwt beam="1">  1       -2 0.21840547E-03 0.91906028E+02</pdfrwt>
<totfact> 0.23178565E+05</totfact>
</mgrwt>
</event>
<event>
 5    1  0.3963873E+001  0.9288679E+02  0.7546771E-02  0.1296008E+00
         -4   -1    0    0    0  501 -0.00000000000E+00  0.00000000000E+00  0.21047383922E+03  0.21047383922E+03  0.00000000000E+00 0.  1.
          4   -1    0    0  501    0  0.00000000000E+00 -0.00000000000E+00 -0.10248252732E+02  0.10248252732E+02  0.00000000000E+00 0. -1.
         23    2    1    2    0    0  0.00000000000E+00  0.00000000000E+00  0.20022558649E+03  0.22072209195E+03  0.92886793415E+02 0.  0.
          2    1    3    3  502    0 -0.35417942895E+02 -0.16286555568E+02  0.40124567657E+02  0.55943395507E+02  0.00000000000E+00 0. -1.
         -2    1    3    3    0  502  0.35417942895E+02  0.16286555568E+02  0.16010101883E+03  0.16477869645E+03  0.00000000000E+00 0.  1.
<mgrwt>
<rscale>  0 0.92886793E+02</rscale>
<asrwt>0</asrwt>
<pdfrwt beam="2">  1        4 0.15766544E-02 0.92886793E+02</pdfrwt>
<pdfrwt beam="1">  1       -4 0.32380587E-01 0.92886793E+02</pdfrwt>
<totfact> 0.19552248E+04</totfact>
</mgrwt>
</event>
<event>
 5    1  0.3963873E+001  0.9052493E+02  0.7546771E-02  0.1301585E+00
          2   -1    0    0  501    0  0.00000000000E+00  0.00000000000E+00  0.57940614781E+03  0.57940614781E+03  0.00000000000E+00 0. -1.
         -2   -1    0    0    0  501 -0.00000000000E+00 -0.00000000000E+00 -0.35358459086E+01  0.35358459086E+01  0.00000000000E+00 0.  1.
         23    2    1    2    0    0  0.00000000000E+00  0.00000000000E+00  0.57587030190E+03  0.58294199372E+03  0.90524932635E+02 0.  0.
          2    1    3    3  502    0 -0.36217813181E+02  0.92243700513E+01  0.45234894429E+03  0.45389028013E+03  0.00000000000E+00 0. -1.
         -2    1    3    3    0  502  0.36217813181E+02 -0.92243700513E+01  0.12352135761E+03  0.12905171359E+03  0.00000000000E+00 0.  1.
<mgrwt>
<rscale>  0 0.90524933E+02</rscale>
<asrwt>0</asrwt>
<pdfrwt beam="1">  1        2 0.89139332E-01 0.90524933E+02</pdfrwt>
<pdfrwt beam="2">  1       -2 0.54397675E-03 0.90524933E+02</pdfrwt>
<totfact> 0.22988249E+05</totfact>
</mgrwt>
</event>
<event>
 5    1  0.3963873E+001  0.9460056E+02  0.7546771E-02  0.1292078E+00
          3   -1    0    0  501    0  0.00000000000E+00  0.00000000000E+00  0.56353232615E+02  0.56353232615E+02  0.00000000000E+00 0. -1.
         -3   -1    0    0    0  501 -0.00000000000E+00 -0.00000000000E+00 -0.39701648936E+02  0.39701648936E+02  0.00000000000E+00 0.  1.
         23    2    1    2    0    0  0.00000000000E+00  0.00000000000E+00  0.16651583679E+02  0.96054881551E+02  0.94600555130E+02 0.  0.
          2    1    3    3  502    0 -0.36710487812E+02 -0.27777083384E+02  0.19359774121E+02  0.49940235590E+02  0.00000000000E+00 0. -1.
         -2    1    3    3    0  502  0.36710487812E+02  0.27777083384E+02 -0.27081904419E+01  0.46114645962E+02  0.00000000000E+00 0.  1.
<mgrwt>
<rscale>  0 0.94600555E+02</rscale>
<asrwt>0</asrwt>
<pdfrwt beam="1">  1        3 0.86697281E-02 0.94600555E+02</pdfrwt>
<pdfrwt beam="2">  1       -3 0.61079460E-02 0.94600555E+02</pdfrwt>
<totfact> 0.31616356E+04</totfact>
</mgrwt>
</event>
<event>
 5    1  0.3963873E+001  0.8990210E+02  0.7546771E-02  0.1303089E+00
         -3   -1    0    0    0  501 -0.00000000000E+00  0.00000000000E+00  0.90117947517E+03  0.90117947517E+03  0.00000000000E+00 0.  1.
          3   -1    0    0  501    0  0.00000000000E+00 -0.00000000000E+00 -0.22421692716E+01  0.22421692716E+01  0.00000000000E+00 0. -1.
         23    2    1    2    0    0  0.00000000000E+00  0.00000000000E+00  0.89893730590E+03  0.90342164444E+03  0.89902100696E+02 0.  0.
          2    1    3    3  502    0  0.11124975908E+02 -0.20779353547E+02  0.83410198754E+03  0.83443494189E+03  0.00000000000E+00 0.  1.
         -2    1    3    3    0  502 -0.11124975908E+02  0.20779353547E+02  0.64835318357E+02  0.68986702553E+02  0.00000000000E+00 0. -1.
<mgrwt>
<rscale>  0 0.89902101E+02</rscale>
<asrwt>0</asrwt>
<pdfrwt beam="2">  1        3 0.34494984E-03 0.89902101E+02</pdfrwt>
<pdfrwt beam="1">  1       -3 0.13864271E+00 0.89902101E+02</pdfrwt>
<totfact> 0.11469582E+04</totfact>
</mgrwt>
</event>
<event>
 5    1  0.3963873E+001  0.9145312E+02  0.7546771E-02  0.1299370E+00
          2   -1    0    0  501    0  0.00000000000E+00  0.00000000000E+00  0.80884827908E+03  0.80884827908E+03  0.00000000000E+00 0. -1.
         -2   -1    0    0    0  501 -0.00000000000E+00 -0.00000000000E+00 -0.25850561583E+01  0.25850561583E+01  0.00000000000E+00 0.  1.
         23    2    1    2    0    0  0.00000000000E+00  0.00000000000E+00  0.80626322292E+03  0.81143333524E+03  0.91453118591E+02 0.  0.
          2    1    3    3  502    0  0.20450823462E+02  0.33412974422E+02  0.61239408851E+03  0.61364581208E+03  0.00000000000E+00 0. -1.
         -2    1    3    3    0  502 -0.20450823462E+02 -0.33412974422E+02  0.19386913441E+03  0.19778752316E+03  0.00000000000E+00 0.  1.
<mgrwt>
<rscale>  0 0.91453119E+02</rscale>
<asrwt>0</asrwt>
<pdfrwt beam="1">  1        2 0.12443800E+00 0.91453119E+02</pdfrwt>
<pdfrwt beam="2">  1       -2 0.39770159E-03 0.91453119E+02</pdfrwt>
<totfact> 0.24226380E+05</totfact>
</mgrwt>
</event>
<event>
 5    1  0.3963873E+001  0.9575704E+02  0.7546771E-02  0.1289480E+00
         -1   -1    0    0    0  501 -0.00000000000E+00  0.00000000000E+00  0.40189662957E+02  0.40189662957E+02  0.00000000000E+00 0.  1.
          1   -1    0    0  501    0  0.00000000000E+00 -0.00000000000E+00 -0.57038370154E+02  0.57038370154E+02  0.00000000000E+00 0. -1.
         23    2    1    2    0    0  0.00000000000E+00  0.00000000000E+00 -0.16848707197E+02  0.97228033111E+02  0.95757044067E+02 0.  0.
          2    1    3    3  502    0  0.15950229236E+00 -0.35287172446E+02 -0.41281038541E+02  0.54307772218E+02  0.00000000000E+00 0. -1.
         -2    1    3    3    0  502 -0.15950229236E+00  0.35287172446E+02  0.24432331345E+02  0.42920260893E+02  0.00000000000E+00 0.  1.
<mgrwt>
<rscale>  0 0.95757044E+02</rscale>
<asrwt>0</asrwt>
<pdfrwt beam="2">  1        1 0.87751339E-02 0.95757044E+02</pdfrwt>
<pdfrwt beam="1">  1       -1 0.61830251E-02 0.95757044E+02</pdfrwt>
<totfact> 0.83405010E+04</totfact>
</mgrwt>
</event>
<event>
 5    1  0.3963873E+001  0.9136572E+02  0.7546771E-02  0.1299578E+00
         -1   -1    0    0    0  501 -0.00000000000E+00  0.00000000000E+00  0.92753972682E+00  0.92753972682E+00  0.00000000000E+00 0.  1.
          1   -1    0    0  501    0  0.00000000000E+00 -0.00000000000E+00 -0.22499559473E+04  0.22499559473E+04  0.00000000000E+00 0. -1.
         23    2    1    2    0    0  0.00000000000E+00  0.00000000000E+00 -0.22490284076E+04  0.22508834870E+04  0.91365716212E+02 0.  0.
          2    1    3    3  502    0 -0.27646275893E+02  0.33914771719E+02 -0.14479829712E+04  0.14486439221E+04  0.00000000000E+00 0. -1.
         -2    1    3    3    0  502  0.27646275893E+02 -0.33914771719E+02 -0.80104543644E+03  0.80223956494E+03  0.00000000000E+00 0.  1.
<mgrwt>
<rscale>  0 0.91365716E+02</rscale>
<asrwt>0</asrwt>
<pdfrwt beam="2">  1        1 0.34614651E+00 0.91365716E+02</pdfrwt>
<pdfrwt beam="1">  1       -1 0.14269865E-03 0.91365716E+02</pdfrwt>
<totfact> 0.64949855E+04</totfact>
</mgrwt>
</event>
<event>
 5    1  0.3963873E+001  0.8986638E+02  0.7546771E-02  0.1303176E+00
          2   -1    0    0  501    0  0.00000000000E+00  0.00000000000E+00  0.91585297090E+02  0.91585297090E+02  0.00000000000E+00 0. -1.
         -2   -1    0    0    0  501 -0.00000000000E+00 -0.00000000000E+00 -0.22044931328E+02  0.22044931328E+02  0.00000000000E+00 0.  1.
         23    2    1    2    0    0  0.00000000000E+00  0.00000000000E+00  0.69540365762E+02  0.11363022842E+03  0.89866380477E+02 0.  0.
          2    1    3    3  502    0  0.41230964684E+02 -0.10306825947E+02  0.53213977191E+02  0.68102499795E+02  0.00000000000E+00 0. -1.
         -2    1    3    3    0  502 -0.41230964684E+02  0.10306825947E+02  0.16326388571E+02  0.45527728623E+02  0.00000000000E+00 0.  1.
<mgrwt>
<rscale>  0 0.89866380E+02</rscale>
<asrwt>0</asrwt>
<pdfrwt beam="1">  1        2 0.14090046E-01 0.89866380E+02</pdfrwt>
<pdfrwt beam="2">  1       -2 0.33915279E-02 0.89866380E+02</pdfrwt>
<totfact> 0.12434160E+05</totfact>
</mgrwt>
</event>
<event>
 5    1  0.3963873E+001  0.8819891E+02  0.7546771E-02  0.1307273E+00
          3   -1    0    0  501    0  0.00000000000E+00  0.00000000000E+00  0.29389094572E+01  0.29389094572E+01  0.00000000000E+00 0. -1.
         -3   -1    0    0    0  501 -0.00000000000E+00 -0.00000000000E+00 -0.66172907842E+03  0.66172907842E+03  0.00000000000E+00 0.  1.
         23    2    1    2    0    0  0.00000000000E+00  0.00000000000E+00 -0.65879016896E+03  0.66466798788E+03  0.88198908081E+02 0.  0.
          2    1    3    3  502    0  0.10860796196E+02  0.36850351910E+02 -0.16621711209E+03  0.17059904361E+03  0.00000000000E+00 0. -1.
         -2    1    3    3    0  502 -0.10860796196E+02 -0.36850351910E+02 -0.49257305688E+03  0.49406894427E+03  0.00000000000E+00 0.  1.
<mgrwt>
<rscale>  0 0.88198908E+02</rscale>
<asrwt>0</asrwt>
<pdfrwt beam="1">  1        3 0.45213992E-03 0.88198908E+02</pdfrwt>
<pdfrwt beam="2">  1       -3 0.10180447E+00 0.88198908E+02</pdfrwt>
<totfact> 0.15828290E+04</totfact>
</mgrwt>
</event>
<event>
 5    1  0.3963873E+001  0.8887961E+02  0.7546771E-02  0.1305588E+00
         -2   -1    0    0    0  501 -0.00000000000E+00  0.00000000000E+00  0.79425565393E+00  0.79425565393E+00  0.00000000000E+00 0.  1.
          2   -1    0    0  501    0  0.00000000000E+00 -0.00000000000E+00 -0.24864741398E+04  0.24864741398E+04  0.00000000000E+00 0. -1.
         23    2    1    2    0    0  0.00000000000E+00  0.00000000000E+00 -0.24856798841E+04  0.24872683954E+04  0.88879607197E+02 0.  0.
          2    1    3    3  502    0  0.15759587358E+02  0.41326318718E+02 -0.13637484859E+04  0.13644655225E+04  0.00000000000E+00 0. -1.
         -2    1    3    3    0  502 -0.15759587358E+02 -0.41326318718E+02 -0.11219313982E+04  0.11228028730E+04  0.00000000000E+00 0.  1.
<mgrwt>
<rscale>  0 0.88879607E+02</rscale>
<asrwt>0</asrwt>
<pdfrwt beam="2">  1        2 0.38253495E+00 0.88879607E+02</pdfrwt>
<pdfrwt beam="1">  1       -2 0.12219303E-03 0.88879607E+02</pdfrwt>
<totfact> 0.16037210E+05</totfact>
</mgrwt>
</event>
<event>
 5    1  0.3963873E+001  0.8949015E+02  0.7546771E-02  0.1304091E+00
         -1   -1    0    0    0  501 -0.00000000000E+00  0.00000000000E+00  0.29770504728E+01  0.29770504728E+01  0.00000000000E+00 0.  1.
          1   -1    0    0  501    0  0.00000000000E+00 -0.00000000000E+00 -0.67251857116E+03  0.67251857116E+03  0.00000000000E+00 0. -1.
         23    2    1    2    0    0  0.00000000000E+00  0.00000000000E+00 -0.66954152069E+03  0.67549562163E+03  0.89490149854E+02 0.  0.
          2    1    3    3  502    0  0.21306169621E+02  0.30492825690E+02 -0.52247183101E+03  0.52379440574E+03  0.00000000000E+00 0. -1.
         -2    1    3    3    0  502 -0.21306169621E+02 -0.30492825690E+02 -0.14706968968E+03  0.15170121589E+03  0.00000000000E+00 0.  1.
<mgrwt>
<rscale>  0 0.89490150E+02</rscale>
<asrwt>0</asrwt>
<pdfrwt beam="2">  1        1 0.10346456E+00 0.89490150E+02</pdfrwt>
<pdfrwt beam="1">  1       -1 0.45800705E-03 0.89490150E+02</pdfrwt>
<totfact> 0.14936167E+05</totfact>
</mgrwt>
</event>
<event>
 5    1  0.3963873E+001  0.9196554E+02  0.7546771E-02  0.1298160E+00
          2   -1    0    0  501    0  0.00000000000E+00  0.00000000000E+00  0.39697462163E+02  0.39697462163E+02  0.00000000000E+00 0.  1.
         -2   -1    0    0    0  501 -0.00000000000E+00 -0.00000000000E+00 -0.53263234965E+02  0.53263234965E+02  0.00000000000E+00 0. -1.
         23    2    1    2    0    0  0.00000000000E+00  0.00000000000E+00 -0.13565772802E+02  0.92960697128E+02  0.91965542562E+02 0.  0.
          2    1    3    3  502    0 -0.47680844069E+01 -0.43601584442E+02 -0.20737431986E+02  0.48516738144E+02  0.00000000000E+00 0. -1.
         -2    1    3    3    0  502  0.47680844069E+01  0.43601584442E+02  0.71716591839E+01  0.44443958984E+02  0.00000000000E+00 0.  1.
<mgrwt>
<rscale>  0 0.91965543E+02</rscale>
<asrwt>0</asrwt>
<pdfrwt beam="1">  1        2 0.61073019E-02 0.91965543E+02</pdfrwt>
<pdfrwt beam="2">  1       -2 0.81943438E-02 0.91965543E+02</pdfrwt>
<totfact> 0.92849622E+04</totfact>
</mgrwt>
</event>
<event>
 5    1  0.3963873E+001  0.8822845E+02  0.7546771E-02  0.1307199E+00
          3   -1    0    0  501    0  0.00000000000E+00  0.00000000000E+00  0.74061123976E+01  0.74061123976E+01  0.00000000000E+00 0. -1.
         -3   -1    0    0    0  501 -0.00000000000E+00 -0.00000000000E+00 -0.26276471636E+03  0.26276471636E+03  0.00000000000E+00 0.  1.
         23    2    1    2    0    0  0.00000000000E+00  0.00000000000E+00 -0.25535860397E+03  0.27017082876E+03  0.88228453994E+02 0.  0.
          2    1    3    3  502    0 -0.30235599044E+02 -0.13396062658E+02 -0.38275422052E+02  0.50583138273E+02  0.00000000000E+00 0. -1.
         -2    1    3    3    0  502  0.30235599044E+02  0.13396062658E+02 -0.21708318191E+03  0.21958769049E+03  0.00000000000E+00 0.  1.
<mgrwt>
<rscale>  0 0.88228454E+02</rscale>
<asrwt>0</asrwt>
<pdfrwt beam="1">  1        3 0.11394021E-02 0.88228454E+02</pdfrwt>
<pdfrwt beam="2">  1       -3 0.40425335E-01 0.88228454E+02</pdfrwt>
<totfact> 0.27549721E+04</totfact>
</mgrwt>
</event>
<event>
 5    1  0.3963873E+001  0.8843381E+02  0.7546771E-02  0.1306689E+00
          1   -1    0    0  501    0  0.00000000000E+00  0.00000000000E+00  0.10265052779E+04  0.10265052779E+04  0.00000000000E+00 0. -1.
         -1   -1    0    0    0  501 -0.00000000000E+00 -0.00000000000E+00 -0.19046515671E+01  0.19046515671E+01  0.00000000000E+00 0.  1.
         23    2    1    2    0    0  0.00000000000E+00  0.00000000000E+00  0.10246006263E+04  0.10284099294E+04  0.88433814487E+02 0.  0.
          2    1    3    3  502    0  0.31253593028E+02 -0.22666395727E+02  0.26164365843E+03  0.26447675998E+03  0.00000000000E+00 0.  1.
         -2    1    3    3    0  502 -0.31253593028E+02  0.22666395727E+02  0.76295696788E+03  0.76393316947E+03  0.00000000000E+00 0. -1.
<mgrwt>
<rscale>  0 0.88433814E+02</rscale>
<asrwt>0</asrwt>
<pdfrwt beam="1">  1        1 0.15792345E+00 0.88433814E+02</pdfrwt>
<pdfrwt beam="2">  1       -1 0.29302414E-03 0.88433814E+02</pdfrwt>
<totfact> 0.14636725E+05</totfact>
</mgrwt>
</event>
<event>
 5    1  0.3963873E+001  0.1001110E+03  0.7546771E-02  0.1280063E+00
          2   -1    0    0  501    0  0.00000000000E+00  0.00000000000E+00  0.51536874050E+02  0.51536874050E+02  0.00000000000E+00 0.  1.
         -2   -1    0    0    0  501 -0.00000000000E+00 -0.00000000000E+00 -0.48616687325E+02  0.48616687325E+02  0.00000000000E+00 0. -1.
         23    2    1    2    0    0  0.00000000000E+00  0.00000000000E+00  0.29201867244E+01  0.10015356138E+03  0.10011098025E+03 0.  0.
          2    1    3    3  502    0 -0.85137009940E+01  0.33385865309E+02  0.37786045552E+02  0.51135939862E+02  0.00000000000E+00 0.  1.
         -2    1    3    3    0  502  0.85137009940E+01 -0.33385865309E+02 -0.34865858828E+02  0.49017621514E+02  0.00000000000E+00 0. -1.
<mgrwt>
<rscale>  0 0.10011098E+03</rscale>
<asrwt>0</asrwt>
<pdfrwt beam="1">  1        2 0.79287499E-02 0.10011098E+03</pdfrwt>
<pdfrwt beam="2">  1       -2 0.74794903E-02 0.10011098E+03</pdfrwt>
<totfact> 0.77869922E+04</totfact>
</mgrwt>
</event>
<event>
 5    1  0.3963873E+001  0.9070168E+02  0.7546771E-02  0.1301161E+00
         -1   -1    0    0    0  501 -0.00000000000E+00  0.00000000000E+00  0.79226597824E+02  0.79226597824E+02  0.00000000000E+00 0.  1.
          1   -1    0    0  501    0  0.00000000000E+00 -0.00000000000E+00 -0.25959698911E+02  0.25959698911E+02  0.00000000000E+00 0. -1.
         23    2    1    2    0    0  0.00000000000E+00  0.00000000000E+00  0.53266898913E+02  0.10518629674E+03  0.90701678601E+02 0.  0.
          2    1    3    3  502    0  0.38971522169E+02 -0.13725737629E+02  0.49523225305E+01  0.41613710626E+02  0.00000000000E+00 0. -1.
         -2    1    3    3    0  502 -0.38971522169E+02  0.13725737629E+02  0.48314576382E+02  0.63572586109E+02  0.00000000000E+00 0.  1.
<mgrwt>
<rscale>  0 0.90701679E+02</rscale>
<asrwt>0</asrwt>
<pdfrwt beam="2">  1        1 0.39937999E-02 0.90701679E+02</pdfrwt>
<pdfrwt beam="1">  1       -1 0.12188707E-01 0.90701679E+02</pdfrwt>
<totfact> 0.85930336E+04</totfact>
</mgrwt>
</event>
<event>
 5    1  0.3963873E+001  0.8808515E+02  0.7546771E-02  0.1307556E+00
          1   -1    0    0  501    0  0.00000000000E+00  0.00000000000E+00  0.23404736639E+03  0.23404736639E+03  0.00000000000E+00 0. -1.
         -1   -1    0    0    0  501 -0.00000000000E+00 -0.00000000000E+00 -0.82878463133E+01  0.82878463133E+01  0.00000000000E+00 0.  1.
         23    2    1    2    0    0  0.00000000000E+00  0.00000000000E+00  0.22575952008E+03  0.24233521271E+03  0.88085154316E+02 0.  0.
          2    1    3    3  502    0 -0.30434434476E+02  0.95157566742E+00  0.20042454055E+03  0.20272433685E+03  0.00000000000E+00 0. -1.
         -2    1    3    3    0  502  0.30434434476E+02 -0.95157566742E+00  0.25334979534E+02  0.39610875857E+02  0.00000000000E+00 0.  1.
<mgrwt>
<rscale>  0 0.88085154E+02</rscale>
<asrwt>0</asrwt>
<pdfrwt beam="1">  1        1 0.36007282E-01 0.88085154E+02</pdfrwt>
<pdfrwt beam="2">  1       -1 0.12750535E-02 0.88085154E+02</pdfrwt>
<totfact> 0.13385898E+05</totfact>
</mgrwt>
</event>
<event>
 5    1  0.3963873E+001  0.9050892E+02  0.7546771E-02  0.1301624E+00
         -2   -1    0    0    0  501 -0.00000000000E+00  0.00000000000E+00  0.20640168114E+01  0.20640168114E+01  0.00000000000E+00 0.  1.
          2   -1    0    0  501    0  0.00000000000E+00 -0.00000000000E+00 -0.99222367324E+03  0.99222367324E+03  0.00000000000E+00 0. -1.
         23    2    1    2    0    0  0.00000000000E+00  0.00000000000E+00 -0.99015965643E+03  0.99428769005E+03  0.90508924251E+02 0.  0.
          2    1    3    3  502    0 -0.13918875986E+02 -0.20907155716E+02 -0.90862627232E+03  0.90897334780E+03  0.00000000000E+00 0. -1.
         -2    1    3    3    0  502  0.13918875986E+02  0.20907155716E+02 -0.81533384110E+02  0.85314342249E+02  0.00000000000E+00 0.  1.
<mgrwt>
<rscale>  0 0.90508924E+02</rscale>
<asrwt>0</asrwt>
<pdfrwt beam="2">  1        2 0.15264988E+00 0.90508924E+02</pdfrwt>
<pdfrwt beam="1">  1       -2 0.31754086E-03 0.90508924E+02</pdfrwt>
<totfact> 0.25480735E+05</totfact>
</mgrwt>
</event>
<event>
 5    1  0.3963873E+001  0.8878756E+02  0.7546771E-02  0.1305815E+00
          2   -1    0    0  501    0  0.00000000000E+00  0.00000000000E+00  0.21532811658E+03  0.21532811658E+03  0.00000000000E+00 0.  1.
         -2   -1    0    0    0  501 -0.00000000000E+00 -0.00000000000E+00 -0.91525791618E+01  0.91525791618E+01  0.00000000000E+00 0. -1.
         23    2    1    2    0    0  0.00000000000E+00  0.00000000000E+00  0.20617553742E+03  0.22448069575E+03  0.88787558425E+02 0.  0.
          2    1    3    3  502    0 -0.36162542334E+02  0.32421811026E+01  0.38501640649E+02  0.52920861095E+02  0.00000000000E+00 0. -1.
         -2    1    3    3    0  502  0.36162542334E+02 -0.32421811026E+01  0.16767389677E+03  0.17155983465E+03  0.00000000000E+00 0.  1.
<mgrwt>
<rscale>  0 0.88787558E+02</rscale>
<asrwt>0</asrwt>
<pdfrwt beam="1">  1        2 0.33127399E-01 0.88787558E+02</pdfrwt>
<pdfrwt beam="2">  1       -2 0.14080893E-02 0.88787558E+02</pdfrwt>
<totfact> 0.17061453E+05</totfact>
</mgrwt>
</event>
<event>
 5    1  0.3963873E+001  0.9328826E+02  0.7546771E-02  0.1295079E+00
          1   -1    0    0  501    0  0.00000000000E+00  0.00000000000E+00  0.20538953234E+03  0.20538953234E+03  0.00000000000E+00 0. -1.
         -1   -1    0    0    0  501 -0.00000000000E+00 -0.00000000000E+00 -0.10592919623E+02  0.10592919623E+02  0.00000000000E+00 0.  1.
         23    2    1    2    0    0  0.00000000000E+00  0.00000000000E+00  0.19479661271E+03  0.21598245196E+03  0.93288258801E+02 0.  0.
          2    1    3    3  502    0 -0.39817951669E+02  0.59885858966E+01  0.15190885055E+03  0.15715480047E+03  0.00000000000E+00 0. -1.
         -2    1    3    3    0  502  0.39817951669E+02 -0.59885858966E+01  0.42887762162E+02  0.58827651486E+02  0.00000000000E+00 0.  1.
<mgrwt>
<rscale>  0 0.93288259E+02</rscale>
<asrwt>0</asrwt>
<pdfrwt beam="1">  1        1 0.31598387E-01 0.93288259E+02</pdfrwt>
<pdfrwt beam="2">  1       -1 0.16296801E-02 0.93288259E+02</pdfrwt>
<totfact> 0.11192103E+05</totfact>
</mgrwt>
</event>
<event>
 5    1  0.3963873E+001  0.9208722E+02  0.7546771E-02  0.1297874E+00
         -1   -1    0    0    0  501 -0.00000000000E+00  0.00000000000E+00  0.36385495477E+01  0.36385495477E+01  0.00000000000E+00 0.  1.
          1   -1    0    0  501    0  0.00000000000E+00 -0.00000000000E+00 -0.58265360345E+03  0.58265360345E+03  0.00000000000E+00 0. -1.
         23    2    1    2    0    0  0.00000000000E+00  0.00000000000E+00 -0.57901505390E+03  0.58629215299E+03  0.92087219640E+02 0.  0.
          2    1    3    3  502    0 -0.22841753746E+02  0.11942891745E+02 -0.53241510247E+03  0.53303866625E+03  0.00000000000E+00 0. -1.
         -2    1    3    3    0  502  0.22841753746E+02 -0.11942891745E+02 -0.46599951427E+02  0.53253486744E+02  0.00000000000E+00 0.  1.
<mgrwt>
<rscale>  0 0.92087220E+02</rscale>
<asrwt>0</asrwt>
<pdfrwt beam="2">  1        1 0.89638988E-01 0.92087220E+02</pdfrwt>
<pdfrwt beam="1">  1       -1 0.55977703E-03 0.92087220E+02</pdfrwt>
<totfact> 0.13764548E+05</totfact>
</mgrwt>
</event>
<event>
 5    1  0.3963873E+001  0.8591549E+02  0.7546771E-02  0.1313056E+00
         -1   -1    0    0    0  501 -0.00000000000E+00  0.00000000000E+00  0.59337731065E+03  0.59337731065E+03  0.00000000000E+00 0.  1.
          1   -1    0    0  501    0  0.00000000000E+00 -0.00000000000E+00 -0.31099402212E+01  0.31099402212E+01  0.00000000000E+00 0. -1.
         23    2    1    2    0    0  0.00000000000E+00  0.00000000000E+00  0.59026737043E+03  0.59648725087E+03  0.85915492544E+02 0.  0.
          2    1    3    3  502    0 -0.22651239941E+02  0.36300537959E+02  0.26864173595E+03  0.27202792140E+03  0.00000000000E+00 0. -1.
         -2    1    3    3    0  502  0.22651239941E+02 -0.36300537959E+02  0.32162563448E+03  0.32445932947E+03  0.00000000000E+00 0.  1.
<mgrwt>
<rscale>  0 0.85915493E+02</rscale>
<asrwt>0</asrwt>
<pdfrwt beam="2">  1        1 0.47845281E-03 0.85915493E+02</pdfrwt>
<pdfrwt beam="1">  1       -1 0.91288727E-01 0.85915493E+02</pdfrwt>
<totfact> 0.49017020E+04</totfact>
</mgrwt>
</event>
<event>
 5    1  0.3963873E+001  0.9297049E+02  0.7546771E-02  0.1295814E+00
          1   -1    0    0  501    0  0.00000000000E+00  0.00000000000E+00  0.12031801360E+02  0.12031801360E+02  0.00000000000E+00 0. -1.
         -1   -1    0    0    0  501 -0.00000000000E+00 -0.00000000000E+00 -0.17959721229E+03  0.17959721229E+03  0.00000000000E+00 0.  1.
         23    2    1    2    0    0  0.00000000000E+00  0.00000000000E+00 -0.16756541094E+03  0.19162901365E+03  0.92970489577E+02 0.  0.
          2    1    3    3  502    0 -0.41458454844E+02  0.77001647739E+01 -0.43456080027E+02  0.60551853042E+02  0.00000000000E+00 0. -1.
         -2    1    3    3    0  502  0.41458454844E+02 -0.77001647739E+01 -0.12410933091E+03  0.13107716061E+03  0.00000000000E+00 0.  1.
<mgrwt>
<rscale>  0 0.92970490E+02</rscale>
<asrwt>0</asrwt>
<pdfrwt beam="1">  1        1 0.18510463E-02 0.92970490E+02</pdfrwt>
<pdfrwt beam="2">  1       -1 0.27630341E-01 0.92970490E+02</pdfrwt>
<totfact> 0.67972543E+04</totfact>
</mgrwt>
</event>
<event>
 5    1  0.3963873E+001  0.9764491E+02  0.7546771E-02  0.1285328E+00
          2   -1    0    0  501    0  0.00000000000E+00  0.00000000000E+00  0.47237691820E+03  0.47237691820E+03  0.00000000000E+00 0. -1.
         -2   -1    0    0    0  501 -0.00000000000E+00 -0.00000000000E+00 -0.50460379889E+01  0.50460379889E+01  0.00000000000E+00 0.  1.
         23    2    1    2    0    0  0.00000000000E+00  0.00000000000E+00  0.46733088021E+03  0.47742295619E+03  0.97644905127E+02 0.  0.
          2    1    3    3  502    0  0.16199348545E+02 -0.34370083028E+02  0.38356381732E+03  0.38544120623E+03  0.00000000000E+00 0. -1.
         -2    1    3    3    0  502 -0.16199348545E+02  0.34370083028E+02  0.83767062893E+02  0.91981749964E+02  0.00000000000E+00 0.  1.
<mgrwt>
<rscale>  0 0.97644905E+02</rscale>
<asrwt>0</asrwt>
<pdfrwt beam="1">  1        2 0.72673337E-01 0.97644905E+02</pdfrwt>
<pdfrwt beam="2">  1       -2 0.77631391E-03 0.97644905E+02</pdfrwt>
<totfact> 0.17625663E+05</totfact>
</mgrwt>
</event>
<event>
 5    1  0.3963873E+001  0.9192508E+02  0.7546771E-02  0.1298256E+00
         -1   -1    0    0    0  501 -0.00000000000E+00  0.00000000000E+00  0.37814671511E+02  0.37814671511E+02  0.00000000000E+00 0.  1.
          1   -1    0    0  501    0  0.00000000000E+00 -0.00000000000E+00 -0.55866020558E+02  0.55866020558E+02  0.00000000000E+00 0. -1.
         23    2    1    2    0    0  0.00000000000E+00  0.00000000000E+00 -0.18051349047E+02  0.93680692068E+02  0.91925082888E+02 0.  0.
          2    1    3    3  502    0 -0.37547825645E+02  0.26294157544E+02 -0.55948859565E+01  0.46179266781E+02  0.00000000000E+00 0.  1.
         -2    1    3    3    0  502  0.37547825645E+02 -0.26294157544E+02 -0.12456463091E+02  0.47501425287E+02  0.00000000000E+00 0. -1.
<mgrwt>
<rscale>  0 0.91925083E+02</rscale>
<asrwt>0</asrwt>
<pdfrwt beam="2">  1        1 0.85947724E-02 0.91925083E+02</pdfrwt>
<pdfrwt beam="1">  1       -1 0.58176417E-02 0.91925083E+02</pdfrwt>
<totfact> 0.93192393E+04</totfact>
</mgrwt>
</event>
<event>
 5    1  0.3963873E+001  0.6656628E+02  0.7546771E-02  0.1372175E+00
         -2   -1    0    0    0  501 -0.00000000000E+00  0.00000000000E+00  0.18759751874E+02  0.18759751874E+02  0.00000000000E+00 0.  1.
          2   -1    0    0  501    0  0.00000000000E+00 -0.00000000000E+00 -0.59050220345E+02  0.59050220345E+02  0.00000000000E+00 0. -1.
         23    2    1    2    0    0  0.00000000000E+00  0.00000000000E+00 -0.40290468471E+02  0.77809972219E+02  0.66566282209E+02 0.  0.
          2    1    3    3  502    0  0.22212189345E+02 -0.23567496329E+02 -0.11169770262E+02  0.34257437243E+02  0.00000000000E+00 0.  1.
         -2    1    3    3    0  502 -0.22212189345E+02  0.23567496329E+02 -0.29120698208E+02  0.43552534976E+02  0.00000000000E+00 0. -1.
<mgrwt>
<rscale>  0 0.66566282E+02</rscale>
<asrwt>0</asrwt>
<pdfrwt beam="2">  1        2 0.90846493E-02 0.66566282E+02</pdfrwt>
<pdfrwt beam="1">  1       -2 0.28861157E-02 0.66566282E+02</pdfrwt>
<totfact> 0.25059628E+05</totfact>
</mgrwt>
</event>
<event>
 5    1  0.3963873E+001  0.9153452E+02  0.7546771E-02  0.1299178E+00
         -1   -1    0    0    0  501 -0.00000000000E+00  0.00000000000E+00  0.61184709217E+02  0.61184709217E+02  0.00000000000E+00 0.  1.
          1   -1    0    0  501    0  0.00000000000E+00 -0.00000000000E+00 -0.34234731588E+02  0.34234731588E+02  0.00000000000E+00 0. -1.
         23    2    1    2    0    0  0.00000000000E+00  0.00000000000E+00  0.26949977628E+02  0.95419440805E+02  0.91534520206E+02 0.  0.
          2    1    3    3  502    0  0.18474395711E+02 -0.15122401148E+02 -0.27229030038E+02  0.36213400699E+02  0.00000000000E+00 0. -1.
         -2    1    3    3    0  502 -0.18474395711E+02  0.15122401148E+02  0.54179007666E+02  0.59206040106E+02  0.00000000000E+00 0.  1.
<mgrwt>
<rscale>  0 0.91534520E+02</rscale>
<asrwt>0</asrwt>
<pdfrwt beam="2">  1        1 0.52668818E-02 0.91534520E+02</pdfrwt>
<pdfrwt beam="1">  1       -1 0.94130322E-02 0.91534520E+02</pdfrwt>
<totfact> 0.87535466E+04</totfact>
</mgrwt>
</event>
<event>
 5    1  0.3963873E+001  0.9108608E+02  0.7546771E-02  0.1300243E+00
          1   -1    0    0  501    0  0.00000000000E+00  0.00000000000E+00  0.19973294492E+03  0.19973294492E+03  0.00000000000E+00 0. -1.
         -1   -1    0    0    0  501 -0.00000000000E+00 -0.00000000000E+00 -0.10384709020E+02  0.10384709020E+02  0.00000000000E+00 0.  1.
         23    2    1    2    0    0  0.00000000000E+00  0.00000000000E+00  0.18934823590E+03  0.21011765394E+03  0.91086080491E+02 0.  0.
          2    1    3    3  502    0 -0.34887973799E+02 -0.28987118742E+02  0.85234600111E+02  0.96552373481E+02  0.00000000000E+00 0. -1.
         -2    1    3    3    0  502  0.34887973799E+02  0.28987118742E+02  0.10411363579E+03  0.11356528046E+03  0.00000000000E+00 0.  1.
<mgrwt>
<rscale>  0 0.91086080E+02</rscale>
<asrwt>0</asrwt>
<pdfrwt beam="1">  1        1 0.30728143E-01 0.91086080E+02</pdfrwt>
<pdfrwt beam="2">  1       -1 0.15976477E-02 0.91086080E+02</pdfrwt>
<totfact> 0.11869218E+05</totfact>
</mgrwt>
</event>
<event>
 5    1  0.3963873E+001  0.8602125E+02  0.7546771E-02  0.1312783E+00
          2   -1    0    0  501    0  0.00000000000E+00  0.00000000000E+00  0.44647376829E+02  0.44647376829E+02  0.00000000000E+00 0. -1.
         -2   -1    0    0    0  501 -0.00000000000E+00 -0.00000000000E+00 -0.41433874438E+02  0.41433874438E+02  0.00000000000E+00 0.  1.
         23    2    1    2    0    0  0.00000000000E+00  0.00000000000E+00  0.32135023911E+01  0.86081251268E+02  0.86021248667E+02 0.  0.
          2    1    3    3  502    0 -0.20313289126E+02  0.29878587663E+02 -0.21745208953E+02  0.42168872741E+02  0.00000000000E+00 0.  1.
         -2    1    3    3    0  502  0.20313289126E+02 -0.29878587663E+02  0.24958711344E+02  0.43912378526E+02  0.00000000000E+00 0. -1.
<mgrwt>
<rscale>  0 0.86021249E+02</rscale>
<asrwt>0</asrwt>
<pdfrwt beam="1">  1        2 0.68688272E-02 0.86021249E+02</pdfrwt>
<pdfrwt beam="2">  1       -2 0.63744422E-02 0.86021249E+02</pdfrwt>
<totfact> 0.11588254E+05</totfact>
</mgrwt>
</event>
<event>
 5    1  0.3963873E+001  0.9168210E+02  0.7546771E-02  0.1298829E+00
          2   -1    0    0  501    0  0.00000000000E+00  0.00000000000E+00  0.10409933297E+03  0.10409933297E+03  0.00000000000E+00 0. -1.
         -2   -1    0    0    0  501 -0.00000000000E+00 -0.00000000000E+00 -0.20186505087E+02  0.20186505087E+02  0.00000000000E+00 0.  1.
         23    2    1    2    0    0  0.00000000000E+00  0.00000000000E+00  0.83912827879E+02  0.12428583805E+03  0.91682096713E+02 0.  0.
          2    1    3    3  502    0  0.17922440323E+02 -0.39245622835E+02  0.62956187939E+02  0.76321126686E+02  0.00000000000E+00 0. -1.
         -2    1    3    3    0  502 -0.17922440323E+02  0.39245622835E+02  0.20956639940E+02  0.47964711366E+02  0.00000000000E+00 0.  1.
<mgrwt>
<rscale>  0 0.91682097E+02</rscale>
<asrwt>0</asrwt>
<pdfrwt beam="1">  1        2 0.16015282E-01 0.91682097E+02</pdfrwt>
<pdfrwt beam="2">  1       -2 0.31056162E-02 0.91682097E+02</pdfrwt>
<totfact> 0.12232006E+05</totfact>
</mgrwt>
</event>
<event>
 5    1  0.3963873E+001  0.9298639E+02  0.7546771E-02  0.1295777E+00
         -3   -1    0    0    0  501 -0.00000000000E+00  0.00000000000E+00  0.22909507449E+01  0.22909507449E+01  0.00000000000E+00 0.  1.
          3   -1    0    0  501    0  0.00000000000E+00 -0.00000000000E+00 -0.94354582488E+03  0.94354582488E+03  0.00000000000E+00 0. -1.
         23    2    1    2    0    0  0.00000000000E+00  0.00000000000E+00 -0.94125487413E+03  0.94583677562E+03  0.92986386323E+02 0.  0.
          2    1    3    3  502    0  0.38281806465E+02 -0.18385961319E+02 -0.66310711154E+03  0.66446563617E+03  0.00000000000E+00 0. -1.
         -2    1    3    3    0  502 -0.38281806465E+02  0.18385961319E+02 -0.27814776259E+03  0.28137113945E+03  0.00000000000E+00 0.  1.
<mgrwt>
<rscale>  0 0.92986386E+02</rscale>
<asrwt>0</asrwt>
<pdfrwt beam="2">  1        3 0.14516124E+00 0.92986386E+02</pdfrwt>
<pdfrwt beam="1">  1       -3 0.35245312E-03 0.92986386E+02</pdfrwt>
<totfact> 0.10059072E+04</totfact>
</mgrwt>
</event>
<event>
 5    1  0.3963873E+001  0.9531333E+02  0.7546771E-02  0.1290472E+00
          1   -1    0    0  501    0  0.00000000000E+00  0.00000000000E+00  0.50990063769E+03  0.50990063769E+03  0.00000000000E+00 0. -1.
         -1   -1    0    0    0  501 -0.00000000000E+00 -0.00000000000E+00 -0.44541181434E+01  0.44541181434E+01  0.00000000000E+00 0.  1.
         23    2    1    2    0    0  0.00000000000E+00  0.00000000000E+00  0.50544651954E+03  0.51435475583E+03  0.95313329218E+02 0.  0.
          2    1    3    3  502    0  0.20815989647E+02 -0.42569106918E+02  0.28009316201E+03  0.28407325409E+03  0.00000000000E+00 0. -1.
         -2    1    3    3    0  502 -0.20815989647E+02  0.42569106918E+02  0.22535335754E+03  0.23028150174E+03  0.00000000000E+00 0.  1.
<mgrwt>
<rscale>  0 0.95313329E+02</rscale>
<asrwt>0</asrwt>
<pdfrwt beam="1">  1        1 0.78446206E-01 0.95313329E+02</pdfrwt>
<pdfrwt beam="2">  1       -1 0.68524935E-03 0.95313329E+02</pdfrwt>
<totfact> 0.12406311E+05</totfact>
</mgrwt>
</event>
<event>
 5    1  0.3963873E+001  0.8697737E+02  0.7546771E-02  0.1310341E+00
          1   -1    0    0  501    0  0.00000000000E+00  0.00000000000E+00  0.25111963829E+04  0.25111963829E+04  0.00000000000E+00 0. -1.
         -1   -1    0    0    0  501 -0.00000000000E+00 -0.00000000000E+00 -0.75313328392E+00  0.75313328392E+00  0.00000000000E+00 0.  1.
         23    2    1    2    0    0  0.00000000000E+00  0.00000000000E+00  0.25104432496E+04  0.25119495161E+04  0.86977366674E+02 0.  0.
          2    1    3    3  502    0  0.21043197468E+02  0.23008963845E+02  0.37969138528E+03  0.38096952192E+03  0.00000000000E+00 0.  1.
         -2    1    3    3    0  502 -0.21043197468E+02 -0.23008963845E+02  0.21307518643E+04  0.21309799942E+04  0.00000000000E+00 0. -1.
<mgrwt>
<rscale>  0 0.86977367E+02</rscale>
<asrwt>0</asrwt>
<pdfrwt beam="1">  1        1 0.38633120E+00 0.86977367E+02</pdfrwt>
<pdfrwt beam="2">  1       -1 0.11586867E-03 0.86977367E+02</pdfrwt>
<totfact> 0.58695955E+04</totfact>
</mgrwt>
</event>
<event>
 5    1  0.3963873E+001  0.9221079E+02  0.7546771E-02  0.1297585E+00
          1   -1    0    0  501    0  0.00000000000E+00  0.00000000000E+00  0.16843827612E+04  0.16843827612E+04  0.00000000000E+00 0. -1.
         -1   -1    0    0    0  501 -0.00000000000E+00 -0.00000000000E+00 -0.12620096510E+01  0.12620096510E+01  0.00000000000E+00 0.  1.
         23    2    1    2    0    0  0.00000000000E+00  0.00000000000E+00  0.16831207516E+04  0.16856447709E+04  0.92210786801E+02 0.  0.
          2    1    3    3  502    0 -0.69849376994E+01 -0.27350954709E+02  0.15079392229E+04  0.15082034226E+04  0.00000000000E+00 0. -1.
         -2    1    3    3    0  502  0.69849376994E+01  0.27350954709E+02  0.17518152867E+03  0.17744134824E+03  0.00000000000E+00 0.  1.
<mgrwt>
<rscale>  0 0.92210787E+02</rscale>
<asrwt>0</asrwt>
<pdfrwt beam="1">  1        1 0.25913401E+00 0.92210787E+02</pdfrwt>
<pdfrwt beam="2">  1       -1 0.19415668E-03 0.92210787E+02</pdfrwt>
<totfact> 0.96251301E+04</totfact>
</mgrwt>
</event>
<event>
 5    1  0.3963873E+001  0.8993352E+02  0.7546771E-02  0.1303013E+00
          3   -1    0    0  501    0  0.00000000000E+00  0.00000000000E+00  0.92837250711E+02  0.92837250711E+02  0.00000000000E+00 0. -1.
         -3   -1    0    0    0  501 -0.00000000000E+00 -0.00000000000E+00 -0.21780151151E+02  0.21780151151E+02  0.00000000000E+00 0.  1.
         23    2    1    2    0    0  0.00000000000E+00  0.00000000000E+00  0.71057099560E+02  0.11461740186E+03  0.89933516620E+02 0.  0.
          2    1    3    3  502    0 -0.26543090044E+02  0.15899750152E+02  0.77113561934E+02  0.83089344192E+02  0.00000000000E+00 0. -1.
         -2    1    3    3    0  502  0.26543090044E+02 -0.15899750152E+02 -0.60564623741E+01  0.31528057670E+02  0.00000000000E+00 0.  1.
<mgrwt>
<rscale>  0 0.89933517E+02</rscale>
<asrwt>0</asrwt>
<pdfrwt beam="1">  1        3 0.14282654E-01 0.89933517E+02</pdfrwt>
<pdfrwt beam="2">  1       -3 0.33507926E-02 0.89933517E+02</pdfrwt>
<totfact> 0.34893649E+04</totfact>
</mgrwt>
</event>
<event>
 5    1  0.3963873E+001  0.7571402E+02  0.7546771E-02  0.1341674E+00
          1   -1    0    0  501    0  0.00000000000E+00  0.00000000000E+00  0.44494241307E+03  0.44494241307E+03  0.00000000000E+00 0. -1.
         -1   -1    0    0    0  501 -0.00000000000E+00 -0.00000000000E+00 -0.32209858445E+01  0.32209858445E+01  0.00000000000E+00 0.  1.
         23    2    1    2    0    0  0.00000000000E+00  0.00000000000E+00  0.44172142723E+03  0.44816339892E+03  0.75714020211E+02 0.  0.
          2    1    3    3  502    0 -0.83450479851E+01 -0.27672339155E+02  0.36557842961E+03  0.36671922008E+03  0.00000000000E+00 0. -1.
         -2    1    3    3    0  502  0.83450479851E+01  0.27672339155E+02  0.76142997621E+02  0.81444178839E+02  0.00000000000E+00 0.  1.
<mgrwt>
<rscale>  0 0.75714020E+02</rscale>
<asrwt>0</asrwt>
<pdfrwt beam="1">  1        1 0.68452630E-01 0.75714020E+02</pdfrwt>
<pdfrwt beam="2">  1       -1 0.49553664E-03 0.75714020E+02</pdfrwt>
<totfact> 0.22347159E+05</totfact>
</mgrwt>
</event>
<event>
 5    1  0.3963873E+001  0.9150853E+02  0.7546771E-02  0.1299239E+00
         -3   -1    0    0    0  501 -0.00000000000E+00  0.00000000000E+00  0.61237089032E+01  0.61237089032E+01  0.00000000000E+00 0.  1.
          3   -1    0    0  501    0  0.00000000000E+00 -0.00000000000E+00 -0.34186023305E+03  0.34186023305E+03  0.00000000000E+00 0. -1.
         23    2    1    2    0    0  0.00000000000E+00  0.00000000000E+00 -0.33573652415E+03  0.34798394196E+03  0.91508525347E+02 0.  0.
          2    1    3    3  502    0  0.86934622322E+00 -0.26885404823E+02 -0.30861476374E+03  0.30978484978E+03  0.00000000000E+00 0. -1.
         -2    1    3    3    0  502 -0.86934622322E+00  0.26885404823E+02 -0.27121760411E+02  0.38199092177E+02  0.00000000000E+00 0.  1.
<mgrwt>
<rscale>  0 0.91508525E+02</rscale>
<asrwt>0</asrwt>
<pdfrwt beam="2">  1        3 0.52593899E-01 0.91508525E+02</pdfrwt>
<pdfrwt beam="1">  1       -3 0.94210876E-03 0.91508525E+02</pdfrwt>
<totfact> 0.22070008E+04</totfact>
</mgrwt>
</event>
<event>
 5    1  0.3963873E+001  0.9053285E+02  0.7546771E-02  0.1301566E+00
          3   -1    0    0  501    0  0.00000000000E+00  0.00000000000E+00  0.34228022492E+02  0.34228022492E+02  0.00000000000E+00 0. -1.
         -3   -1    0    0    0  501 -0.00000000000E+00 -0.00000000000E+00 -0.59864670859E+02  0.59864670859E+02  0.00000000000E+00 0.  1.
         23    2    1    2    0    0  0.00000000000E+00  0.00000000000E+00 -0.25636648368E+02  0.94092693351E+02  0.90532851510E+02 0.  0.
          2    1    3    3  502    0 -0.29180512365E+02  0.13480049400E+02  0.20307092024E+02  0.38020941863E+02  0.00000000000E+00 0. -1.
         -2    1    3    3    0  502  0.29180512365E+02 -0.13480049400E+02 -0.45943740392E+02  0.56071751488E+02  0.00000000000E+00 0.  1.
<mgrwt>
<rscale>  0 0.90532852E+02</rscale>
<asrwt>0</asrwt>
<pdfrwt beam="1">  1        3 0.52658497E-02 0.90532852E+02</pdfrwt>
<pdfrwt beam="2">  1       -3 0.92099493E-02 0.90532852E+02</pdfrwt>
<totfact> 0.35799824E+04</totfact>
</mgrwt>
</event>
<event>
 5    1  0.3963873E+001  0.9843416E+02  0.7546771E-02  0.1283624E+00
         -2   -1    0    0    0  501 -0.00000000000E+00  0.00000000000E+00  0.52798267686E+02  0.52798267686E+02  0.00000000000E+00 0. -1.
          2   -1    0    0  501    0  0.00000000000E+00 -0.00000000000E+00 -0.45878798385E+02  0.45878798385E+02  0.00000000000E+00 0.  1.
         23    2    1    2    0    0  0.00000000000E+00  0.00000000000E+00  0.69194693006E+01  0.98677066071E+02  0.98434162327E+02 0.  0.
          2    1    3    3  502    0 -0.27923659654E+02  0.30530564637E+02  0.30180245588E+02  0.51212238472E+02  0.00000000000E+00 0. -1.
         -2    1    3    3    0  502  0.27923659654E+02 -0.30530564637E+02 -0.23260776287E+02  0.47464827599E+02  0.00000000000E+00 0.  1.
<mgrwt>
<rscale>  0 0.98434162E+02</rscale>
<asrwt>0</asrwt>
<pdfrwt beam="2">  1        2 0.70582767E-02 0.98434162E+02</pdfrwt>
<pdfrwt beam="1">  1       -2 0.81228104E-02 0.98434162E+02</pdfrwt>
<totfact> 0.79191459E+04</totfact>
</mgrwt>
</event>
<event>
 5    1  0.3963873E+001  0.8760673E+02  0.7546771E-02  0.1308753E+00
         -1   -1    0    0    0  501 -0.00000000000E+00  0.00000000000E+00  0.30374719510E+01  0.30374719510E+01  0.00000000000E+00 0.  1.
          1   -1    0    0  501    0  0.00000000000E+00 -0.00000000000E+00 -0.63168806201E+03  0.63168806201E+03  0.00000000000E+00 0. -1.
         23    2    1    2    0    0  0.00000000000E+00  0.00000000000E+00 -0.62865059006E+03  0.63472553396E+03  0.87606729654E+02 0.  0.
          2    1    3    3  502    0 -0.36917378000E+02 -0.11273956252E+02 -0.46434401077E+03  0.46594565694E+03  0.00000000000E+00 0. -1.
         -2    1    3    3    0  502  0.36917378000E+02  0.11273956252E+02 -0.16430657930E+03  0.16877987702E+03  0.00000000000E+00 0.  1.
<mgrwt>
<rscale>  0 0.87606730E+02</rscale>
<asrwt>0</asrwt>
<pdfrwt beam="2">  1        1 0.97182755E-01 0.87606730E+02</pdfrwt>
<pdfrwt beam="1">  1       -1 0.46730349E-03 0.87606730E+02</pdfrwt>
<totfact> 0.15773765E+05</totfact>
</mgrwt>
</event>
<event>
 5    1  0.3963873E+001  0.9180907E+02  0.7546771E-02  0.1298529E+00
          1   -1    0    0  501    0  0.00000000000E+00  0.00000000000E+00  0.66067960085E+02  0.66067960085E+02  0.00000000000E+00 0. -1.
         -1   -1    0    0    0  501 -0.00000000000E+00 -0.00000000000E+00 -0.31894828625E+02  0.31894828625E+02  0.00000000000E+00 0.  1.
         23    2    1    2    0    0  0.00000000000E+00  0.00000000000E+00  0.34173131460E+02  0.97962788711E+02  0.91809068496E+02 0.  0.
          2    1    3    3  502    0 -0.36422377592E+02 -0.14936661893E+01 -0.12683414393E+02  0.38596497624E+02  0.00000000000E+00 0.  1.
         -2    1    3    3    0  502  0.36422377592E+02  0.14936661893E+01  0.46856545853E+02  0.59366291087E+02  0.00000000000E+00 0. -1.
<mgrwt>
<rscale>  0 0.91809068E+02</rscale>
<asrwt>0</asrwt>
<pdfrwt beam="1">  1        1 0.10164302E-01 0.91809068E+02</pdfrwt>
<pdfrwt beam="2">  1       -1 0.49068967E-02 0.91809068E+02</pdfrwt>
<totfact> 0.95941611E+04</totfact>
</mgrwt>
</event>
<event>
 5    1  0.3963873E+001  0.9597208E+02  0.7546771E-02  0.1289002E+00
         -4   -1    0    0    0  501 -0.00000000000E+00  0.00000000000E+00  0.28661509825E+02  0.28661509825E+02  0.00000000000E+00 0.  1.
          4   -1    0    0  501    0  0.00000000000E+00 -0.00000000000E+00 -0.80339797210E+02  0.80339797210E+02  0.00000000000E+00 0. -1.
         23    2    1    2    0    0  0.00000000000E+00  0.00000000000E+00 -0.51678287385E+02  0.10900130704E+03  0.95972076920E+02 0.  0.
          2    1    3    3  502    0  0.18242923422E+02  0.40331786328E+02 -0.47983496922E+01  0.44525064887E+02  0.00000000000E+00 0.  1.
         -2    1    3    3    0  502 -0.18242923422E+02 -0.40331786328E+02 -0.46879937693E+02  0.64476242148E+02  0.00000000000E+00 0. -1.
<mgrwt>
<rscale>  0 0.95972077E+02</rscale>
<asrwt>0</asrwt>
<pdfrwt beam="2">  1        4 0.12359969E-01 0.95972077E+02</pdfrwt>
<pdfrwt beam="1">  1       -4 0.44094631E-02 0.95972077E+02</pdfrwt>
<totfact> 0.22539762E+04</totfact>
</mgrwt>
</event>
<event>
 5    1  0.3963873E+001  0.9212626E+02  0.7546771E-02  0.1297783E+00
          4   -1    0    0  501    0  0.00000000000E+00  0.00000000000E+00  0.39094595958E+02  0.39094595958E+02  0.00000000000E+00 0. -1.
         -4   -1    0    0    0  501 -0.00000000000E+00 -0.00000000000E+00 -0.54273791684E+02  0.54273791684E+02  0.00000000000E+00 0.  1.
         23    2    1    2    0    0  0.00000000000E+00  0.00000000000E+00 -0.15179195726E+02  0.93368387642E+02  0.92126260252E+02 0.  0.
          2    1    3    3  502    0  0.37456627292E+02  0.23077325760E+02  0.62417541160E+01  0.44435586941E+02  0.00000000000E+00 0. -1.
         -2    1    3    3    0  502 -0.37456627292E+02 -0.23077325760E+02 -0.21420949842E+02  0.48932800701E+02  0.00000000000E+00 0.  1.
<mgrwt>
<rscale>  0 0.92126260E+02</rscale>
<asrwt>0</asrwt>
<pdfrwt beam="1">  1        4 0.60145532E-02 0.92126260E+02</pdfrwt>
<pdfrwt beam="2">  1       -4 0.83498141E-02 0.92126260E+02</pdfrwt>
<totfact> 0.26129097E+04</totfact>
</mgrwt>
</event>
<event>
 5    1  0.3963873E+001  0.8876356E+02  0.7546771E-02  0.1305874E+00
          2   -1    0    0  501    0  0.00000000000E+00  0.00000000000E+00  0.23204594671E+01  0.23204594671E+01  0.00000000000E+00 0. -1.
         -2   -1    0    0    0  501 -0.00000000000E+00 -0.00000000000E+00 -0.84885877674E+03  0.84885877674E+03  0.00000000000E+00 0.  1.
         23    2    1    2    0    0  0.00000000000E+00  0.00000000000E+00 -0.84653831728E+03  0.85117923621E+03  0.88763559747E+02 0.  0.
          2    1    3    3  502    0 -0.18701056447E+02  0.40248842971E+02 -0.42126887812E+03  0.42360024379E+03  0.00000000000E+00 0. -1.
         -2    1    3    3    0  502  0.18701056447E+02 -0.40248842971E+02 -0.42526943916E+03  0.42757899242E+03  0.00000000000E+00 0.  1.
<mgrwt>
<rscale>  0 0.88763560E+02</rscale>
<asrwt>0</asrwt>
<pdfrwt beam="1">  1        2 0.35699393E-03 0.88763560E+02</pdfrwt>
<pdfrwt beam="2">  1       -2 0.13059360E+00 0.88763560E+02</pdfrwt>
<totfact> 0.24035340E+04</totfact>
</mgrwt>
</event>
<event>
 5    1  0.3963873E+001  0.9049887E+02  0.7546771E-02  0.1301648E+00
         -1   -1    0    0    0  501 -0.00000000000E+00  0.00000000000E+00  0.26282649733E+03  0.26282649733E+03  0.00000000000E+00 0.  1.
          1   -1    0    0  501    0  0.00000000000E+00 -0.00000000000E+00 -0.77903537285E+01  0.77903537285E+01  0.00000000000E+00 0. -1.
         23    2    1    2    0    0  0.00000000000E+00  0.00000000000E+00  0.25503614360E+03  0.27061685106E+03  0.90498870345E+02 0.  0.
          2    1    3    3  502    0  0.11261210740E+02  0.27646836630E+02  0.25833250097E+02  0.39478085738E+02  0.00000000000E+00 0. -1.
         -2    1    3    3    0  502 -0.11261210740E+02 -0.27646836630E+02  0.22920289351E+03  0.23113876532E+03  0.00000000000E+00 0.  1.
<mgrwt>
<rscale>  0 0.90498870E+02</rscale>
<asrwt>0</asrwt>
<pdfrwt beam="2">  1        1 0.11985162E-02 0.90498870E+02</pdfrwt>
<pdfrwt beam="1">  1       -1 0.40434839E-01 0.90498870E+02</pdfrwt>
<totfact> 0.64905273E+04</totfact>
</mgrwt>
</event>
<event>
 5    1  0.3963873E+001  0.9440368E+02  0.7546771E-02  0.1292525E+00
         -2   -1    0    0    0  501 -0.00000000000E+00  0.00000000000E+00  0.13008244889E+01  0.13008244889E+01  0.00000000000E+00 0.  1.
          2   -1    0    0  501    0  0.00000000000E+00 -0.00000000000E+00 -0.17127703893E+04  0.17127703893E+04  0.00000000000E+00 0. -1.
         23    2    1    2    0    0  0.00000000000E+00  0.00000000000E+00 -0.17114695648E+04  0.17140712138E+04  0.94403679299E+02 0.  0.
          2    1    3    3  502    0  0.45423707409E+01  0.23935298498E+02 -0.15897921709E+04  0.15899788295E+04  0.00000000000E+00 0. -1.
         -2    1    3    3    0  502 -0.45423707409E+01 -0.23935298498E+02 -0.12167739390E+03  0.12409238426E+03  0.00000000000E+00 0.  1.
<mgrwt>
<rscale>  0 0.94403679E+02</rscale>
<asrwt>0</asrwt>
<pdfrwt beam="2">  1        2 0.26350564E+00 0.94403679E+02</pdfrwt>
<pdfrwt beam="1">  1       -2 0.20012494E-03 0.94403679E+02</pdfrwt>
<totfact> 0.20188435E+05</totfact>
</mgrwt>
</event>
<event>
 5    1  0.3963873E+001  0.9289226E+02  0.7546771E-02  0.1295995E+00
          1   -1    0    0  501    0  0.00000000000E+00  0.00000000000E+00  0.36766033554E+03  0.36766033554E+03  0.00000000000E+00 0. -1.
         -1   -1    0    0    0  501 -0.00000000000E+00 -0.00000000000E+00 -0.58674890390E+01  0.58674890390E+01  0.00000000000E+00 0.  1.
         23    2    1    2    0    0  0.00000000000E+00  0.00000000000E+00  0.36179284650E+03  0.37352782458E+03  0.92892259932E+02 0.  0.
          2    1    3    3  502    0  0.13891733515E+02  0.38727053309E+02  0.26755789037E+03  0.27070276987E+03  0.00000000000E+00 0. -1.
         -2    1    3    3    0  502 -0.13891733515E+02 -0.38727053309E+02  0.94234956130E+02  0.10282505470E+03  0.00000000000E+00 0.  1.
<mgrwt>
<rscale>  0 0.92892260E+02</rscale>
<asrwt>0</asrwt>
<pdfrwt beam="1">  1        1 0.56563110E-01 0.92892260E+02</pdfrwt>
<pdfrwt beam="2">  1       -1 0.90269091E-03 0.92892260E+02</pdfrwt>
<totfact> 0.12654325E+05</totfact>
</mgrwt>
</event>
<event>
 5    1  0.3963873E+001  0.9209140E+02  0.7546771E-02  0.1297865E+00
         -2   -1    0    0    0  501 -0.00000000000E+00  0.00000000000E+00  0.13725603225E+03  0.13725603225E+03  0.00000000000E+00 0.  1.
          2   -1    0    0  501    0  0.00000000000E+00 -0.00000000000E+00 -0.15447090851E+02  0.15447090851E+02  0.00000000000E+00 0. -1.
         23    2    1    2    0    0  0.00000000000E+00  0.00000000000E+00  0.12180894139E+03  0.15270312310E+03  0.92091398077E+02 0.  0.
          2    1    3    3  502    0  0.44095300213E+02 -0.71704244607E+00  0.82858578089E+02  0.93864016608E+02  0.00000000000E+00 0. -1.
         -2    1    3    3    0  502 -0.44095300213E+02  0.71704244607E+00  0.38950363305E+02  0.58839106488E+02  0.00000000000E+00 0.  1.
<mgrwt>
<rscale>  0 0.92091398E+02</rscale>
<asrwt>0</asrwt>
<pdfrwt beam="2">  1        2 0.23764756E-02 0.92091398E+02</pdfrwt>
<pdfrwt beam="1">  1       -2 0.21116312E-01 0.92091398E+02</pdfrwt>
<totfact> 0.70300973E+04</totfact>
</mgrwt>
</event>
<event>
 5    1  0.3963873E+001  0.9071358E+02  0.7546771E-02  0.1301133E+00
          2   -1    0    0  501    0  0.00000000000E+00  0.00000000000E+00  0.15052884856E+03  0.15052884856E+03  0.00000000000E+00 0. -1.
         -2   -1    0    0    0  501 -0.00000000000E+00 -0.00000000000E+00 -0.13666737924E+02  0.13666737924E+02  0.00000000000E+00 0.  1.
         23    2    1    2    0    0  0.00000000000E+00  0.00000000000E+00  0.13686211064E+03  0.16419558649E+03  0.90713578330E+02 0.  0.
          2    1    3    3  502    0  0.13424776073E+02 -0.20601199896E+02  0.13741735321E+03  0.13960001079E+03  0.00000000000E+00 0. -1.
         -2    1    3    3    0  502 -0.13424776073E+02  0.20601199896E+02 -0.55524256488E+00  0.24595575702E+02  0.00000000000E+00 0.  1.
<mgrwt>
<rscale>  0 0.90713578E+02</rscale>
<asrwt>0</asrwt>
<pdfrwt beam="1">  1        2 0.23158283E-01 0.90713578E+02</pdfrwt>
<pdfrwt beam="2">  1       -2 0.21025752E-02 0.90713578E+02</pdfrwt>
<totfact> 0.14192442E+05</totfact>
</mgrwt>
</event>
<event>
 5    1  0.3963873E+001  0.9122463E+02  0.7546771E-02  0.1299913E+00
         -2   -1    0    0    0  501 -0.00000000000E+00  0.00000000000E+00  0.11723735425E+03  0.11723735425E+03  0.00000000000E+00 0.  1.
          2   -1    0    0  501    0  0.00000000000E+00 -0.00000000000E+00 -0.17745908224E+02  0.17745908224E+02  0.00000000000E+00 0. -1.
         23    2    1    2    0    0  0.00000000000E+00  0.00000000000E+00  0.99491446022E+02  0.13498326247E+03  0.91224631080E+02 0.  0.
          2    1    3    3  502    0 -0.36356938196E+01  0.19815087656E+02 -0.10806054454E+02  0.22861031937E+02  0.00000000000E+00 0. -1.
         -2    1    3    3    0  502  0.36356938196E+01 -0.19815087656E+02  0.11029750048E+03  0.11212223053E+03  0.00000000000E+00 0.  1.
<mgrwt>
<rscale>  0 0.91224631E+02</rscale>
<asrwt>0</asrwt>
<pdfrwt beam="2">  1        2 0.27301398E-02 0.91224631E+02</pdfrwt>
<pdfrwt beam="1">  1       -2 0.18036516E-01 0.91224631E+02</pdfrwt>
<totfact> 0.75883825E+04</totfact>
</mgrwt>
</event>
<event>
 5    1  0.3963873E+001  0.8849342E+02  0.7546771E-02  0.1306542E+00
          2   -1    0    0  501    0  0.00000000000E+00  0.00000000000E+00  0.22209871651E+02  0.22209871651E+02  0.00000000000E+00 0.  1.
         -2   -1    0    0    0  501 -0.00000000000E+00 -0.00000000000E+00 -0.88148693300E+02  0.88148693300E+02  0.00000000000E+00 0. -1.
         23    2    1    2    0    0  0.00000000000E+00  0.00000000000E+00 -0.65938821649E+02  0.11035856495E+03  0.88493415899E+02 0.  0.
          2    1    3    3  502    0  0.24806185232E+02 -0.33529337792E+02 -0.14547687048E+02  0.44172372780E+02  0.00000000000E+00 0. -1.
         -2    1    3    3    0  502 -0.24806185232E+02  0.33529337792E+02 -0.51391134600E+02  0.66186192171E+02  0.00000000000E+00 0.  1.
<mgrwt>
<rscale>  0 0.88493416E+02</rscale>
<asrwt>0</asrwt>
<pdfrwt beam="1">  1        2 0.34169034E-02 0.88493416E+02</pdfrwt>
<pdfrwt beam="2">  1       -2 0.13561337E-01 0.88493416E+02</pdfrwt>
<totfact> 0.89135671E+04</totfact>
</mgrwt>
</event>
<event>
 5    1  0.3963873E+001  0.9016414E+02  0.7546771E-02  0.1302455E+00
          1   -1    0    0  501    0  0.00000000000E+00  0.00000000000E+00  0.25752340650E+01  0.25752340650E+01  0.00000000000E+00 0. -1.
         -1   -1    0    0    0  501 -0.00000000000E+00 -0.00000000000E+00 -0.78920713753E+03  0.78920713753E+03  0.00000000000E+00 0.  1.
         23    2    1    2    0    0  0.00000000000E+00  0.00000000000E+00 -0.78663190346E+03  0.79178237160E+03  0.90164141541E+02 0.  0.
          2    1    3    3  502    0 -0.24309656785E+02  0.16501229449E+02 -0.93050189174E+02  0.97578623129E+02  0.00000000000E+00 0. -1.
         -2    1    3    3    0  502  0.24309656785E+02 -0.16501229449E+02 -0.69358171429E+03  0.69420374847E+03  0.00000000000E+00 0.  1.
<mgrwt>
<rscale>  0 0.90164142E+02</rscale>
<asrwt>0</asrwt>
<pdfrwt beam="1">  1        1 0.39618948E-03 0.90164142E+02</pdfrwt>
<pdfrwt beam="2">  1       -1 0.12141660E+00 0.90164142E+02</pdfrwt>
<totfact> 0.34066614E+04</totfact>
</mgrwt>
</event>
<event>
 5    1  0.3963873E+001  0.8943930E+02  0.7546771E-02  0.1304215E+00
          1   -1    0    0  501    0  0.00000000000E+00  0.00000000000E+00  0.13330161760E+04  0.13330161760E+04  0.00000000000E+00 0. -1.
         -1   -1    0    0    0  501 -0.00000000000E+00 -0.00000000000E+00 -0.15002421369E+01  0.15002421369E+01  0.00000000000E+00 0.  1.
         23    2    1    2    0    0  0.00000000000E+00  0.00000000000E+00  0.13315159339E+04  0.13345164182E+04  0.89439298665E+02 0.  0.
          2    1    3    3  502    0 -0.31193778034E+01 -0.44378745123E+02  0.59796460053E+03  0.59961726712E+03  0.00000000000E+00 0.  1.
         -2    1    3    3    0  502  0.31193778034E+01  0.44378745123E+02  0.73355133336E+03  0.73489915105E+03  0.00000000000E+00 0. -1.
<mgrwt>
<rscale>  0 0.89439299E+02</rscale>
<asrwt>0</asrwt>
<pdfrwt beam="1">  1        1 0.20507846E+00 0.89439299E+02</pdfrwt>
<pdfrwt beam="2">  1       -1 0.23080755E-03 0.89439299E+02</pdfrwt>
<totfact> 0.12652306E+05</totfact>
</mgrwt>
</event>
<event>
 5    1  0.3963873E+001  0.9176332E+02  0.7546771E-02  0.1298637E+00
         -1   -1    0    0    0  501 -0.00000000000E+00  0.00000000000E+00  0.10862395607E+02  0.10862395607E+02  0.00000000000E+00 0.  1.
          1   -1    0    0  501    0  0.00000000000E+00 -0.00000000000E+00 -0.19379950924E+03  0.19379950924E+03  0.00000000000E+00 0. -1.
         23    2    1    2    0    0  0.00000000000E+00  0.00000000000E+00 -0.18293711363E+03  0.20466190484E+03  0.91763324653E+02 0.  0.
          2    1    3    3  502    0 -0.32883342056E+02  0.31910633936E+02 -0.86226492223E+02  0.97645331194E+02  0.00000000000E+00 0. -1.
         -2    1    3    3    0  502  0.32883342056E+02 -0.31910633936E+02 -0.96710621407E+02  0.10701657365E+03  0.00000000000E+00 0.  1.
<mgrwt>
<rscale>  0 0.91763325E+02</rscale>
<asrwt>0</asrwt>
<pdfrwt beam="2">  1        1 0.29815307E-01 0.91763325E+02</pdfrwt>
<pdfrwt beam="1">  1       -1 0.16711379E-02 0.91763325E+02</pdfrwt>
<totfact> 0.11567642E+05</totfact>
</mgrwt>
</event>
<event>
 5    1  0.3963873E+001  0.9124422E+02  0.7546771E-02  0.1299866E+00
          2   -1    0    0  501    0  0.00000000000E+00  0.00000000000E+00  0.93733912123E+01  0.93733912123E+01  0.00000000000E+00 0.  1.
         -2   -1    0    0    0  501 -0.00000000000E+00 -0.00000000000E+00 -0.22205164414E+03  0.22205164414E+03  0.00000000000E+00 0. -1.
         23    2    1    2    0    0  0.00000000000E+00  0.00000000000E+00 -0.21267825293E+03  0.23142503536E+03  0.91244220198E+02 0.  0.
          2    1    3    3  502    0  0.29472570142E+01 -0.25921389955E+02 -0.20126590088E+03  0.20294966775E+03  0.00000000000E+00 0. -1.
         -2    1    3    3    0  502 -0.29472570142E+01  0.25921389955E+02 -0.11412352049E+02  0.28475367608E+02  0.00000000000E+00 0.  1.
<mgrwt>
<rscale>  0 0.91244220E+02</rscale>
<asrwt>0</asrwt>
<pdfrwt beam="1">  1        2 0.14420603E-02 0.91244220E+02</pdfrwt>
<pdfrwt beam="2">  1       -2 0.34161789E-01 0.91244220E+02</pdfrwt>
<totfact> 0.59357238E+04</totfact>
</mgrwt>
</event>
<event>
 5    1  0.3963873E+001  0.9187654E+02  0.7546771E-02  0.1298370E+00
          1   -1    0    0  501    0  0.00000000000E+00  0.00000000000E+00  0.10649455068E+02  0.10649455068E+02  0.00000000000E+00 0. -1.
         -1   -1    0    0    0  501 -0.00000000000E+00 -0.00000000000E+00 -0.19816270939E+03  0.19816270939E+03  0.00000000000E+00 0.  1.
         23    2    1    2    0    0  0.00000000000E+00  0.00000000000E+00 -0.18751325432E+03  0.20881216445E+03  0.91876544771E+02 0.  0.
          2    1    3    3  502    0 -0.38517181829E+02  0.95413409125E+01 -0.41152745032E+02  0.57167813551E+02  0.00000000000E+00 0. -1.
         -2    1    3    3    0  502  0.38517181829E+02 -0.95413409125E+01 -0.14636050928E+03  0.15164435090E+03  0.00000000000E+00 0.  1.
<mgrwt>
<rscale>  0 0.91876545E+02</rscale>
<asrwt>0</asrwt>
<pdfrwt beam="1">  1        1 0.16383777E-02 0.91876545E+02</pdfrwt>
<pdfrwt beam="2">  1       -1 0.30486570E-01 0.91876545E+02</pdfrwt>
<totfact> 0.68233447E+04</totfact>
</mgrwt>
</event>
<event>
 5    1  0.3963873E+001  0.9093576E+02  0.7546771E-02  0.1300601E+00
          2   -1    0    0  501    0  0.00000000000E+00  0.00000000000E+00  0.57848255418E+03  0.57848255418E+03  0.00000000000E+00 0. -1.
         -2   -1    0    0    0  501 -0.00000000000E+00 -0.00000000000E+00 -0.35737087143E+01  0.35737087143E+01  0.00000000000E+00 0.  1.
         23    2    1    2    0    0  0.00000000000E+00  0.00000000000E+00  0.57490884546E+03  0.58205626289E+03  0.90935760731E+02 0.  0.
          2    1    3    3  502    0  0.86147214126E+00  0.44239635473E+02  0.35441506672E+03  0.35716652558E+03  0.00000000000E+00 0. -1.
         -2    1    3    3    0  502 -0.86147214126E+00 -0.44239635473E+02  0.22049377875E+03  0.22488973731E+03  0.00000000000E+00 0.  1.
<mgrwt>
<rscale>  0 0.90935761E+02</rscale>
<asrwt>0</asrwt>
<pdfrwt beam="1">  1        2 0.88997242E-01 0.90935761E+02</pdfrwt>
<pdfrwt beam="2">  1       -2 0.54980180E-03 0.90935761E+02</pdfrwt>
<totfact> 0.22704480E+05</totfact>
</mgrwt>
</event>
<event>
 5    1  0.3963873E+001  0.8940452E+02  0.7546771E-02  0.1304300E+00
         -1   -1    0    0    0  501 -0.00000000000E+00  0.00000000000E+00  0.77695896701E+01  0.77695896701E+01  0.00000000000E+00 0.  1.
          1   -1    0    0  501    0  0.00000000000E+00 -0.00000000000E+00 -0.25719402575E+03  0.25719402575E+03  0.00000000000E+00 0. -1.
         23    2    1    2    0    0  0.00000000000E+00  0.00000000000E+00 -0.24942443608E+03  0.26496361542E+03  0.89404519924E+02 0.  0.
          2    1    3    3  502    0 -0.34272352245E+01 -0.26952175473E+02 -0.22991659547E+03  0.23151632032E+03  0.00000000000E+00 0. -1.
         -2    1    3    3    0  502  0.34272352245E+01  0.26952175473E+02 -0.19507840611E+02  0.33447295097E+02  0.00000000000E+00 0.  1.
<mgrwt>
<rscale>  0 0.89404520E+02</rscale>
<asrwt>0</asrwt>
<pdfrwt beam="2">  1        1 0.39568305E-01 0.89404520E+02</pdfrwt>
<pdfrwt beam="1">  1       -1 0.11953217E-02 0.89404520E+02</pdfrwt>
<totfact> 0.13103634E+05</totfact>
</mgrwt>
</event>
<event>
 5    1  0.3963873E+001  0.8612839E+02  0.7546771E-02  0.1312508E+00
          1   -1    0    0  501    0  0.00000000000E+00  0.00000000000E+00  0.10160578523E+03  0.10160578523E+03  0.00000000000E+00 0. -1.
         -1   -1    0    0    0  501 -0.00000000000E+00 -0.00000000000E+00 -0.18252156675E+02  0.18252156675E+02  0.00000000000E+00 0.  1.
         23    2    1    2    0    0  0.00000000000E+00  0.00000000000E+00  0.83353628556E+02  0.11985794191E+03  0.86128385825E+02 0.  0.
          2    1    3    3  502    0  0.21946151883E+02 -0.36950232800E+02  0.45506025414E+02  0.62591945451E+02  0.00000000000E+00 0. -1.
         -2    1    3    3    0  502 -0.21946151883E+02  0.36950232800E+02  0.37847603143E+02  0.57265996456E+02  0.00000000000E+00 0.  1.
<mgrwt>
<rscale>  0 0.86128386E+02</rscale>
<asrwt>0</asrwt>
<pdfrwt beam="1">  1        1 0.15631659E-01 0.86128386E+02</pdfrwt>
<pdfrwt beam="2">  1       -1 0.28080242E-02 0.86128386E+02</pdfrwt>
<totfact> 0.12222893E+05</totfact>
</mgrwt>
</event>
<event>
 5    1  0.3963873E+001  0.9201721E+02  0.7546771E-02  0.1298039E+00
         -4   -1    0    0    0  501 -0.00000000000E+00  0.00000000000E+00  0.11577497858E+01  0.11577497858E+01  0.00000000000E+00 0.  1.
          4   -1    0    0  501    0  0.00000000000E+00 -0.00000000000E+00 -0.18283670547E+04  0.18283670547E+04  0.00000000000E+00 0. -1.
         23    2    1    2    0    0  0.00000000000E+00  0.00000000000E+00 -0.18272093049E+04  0.18295248045E+04  0.92017206345E+02 0.  0.
          2    1    3    3  502    0 -0.25959622838E+02 -0.23486916101E+02 -0.15071721092E+04  0.15075786228E+04  0.00000000000E+00 0. -1.
         -2    1    3    3    0  502  0.25959622838E+02  0.23486916101E+02 -0.32003719569E+03  0.32194618164E+03  0.00000000000E+00 0.  1.
<mgrwt>
<rscale>  0 0.92017206E+02</rscale>
<asrwt>0</asrwt>
<pdfrwt beam="2">  1        4 0.28128516E+00 0.92017206E+02</pdfrwt>
<pdfrwt beam="1">  1       -4 0.17811667E-03 0.92017206E+02</pdfrwt>
<totfact> 0.27989521E+03</totfact>
</mgrwt>
</event>
<event>
 5    1  0.3963873E+001  0.9222786E+02  0.7546771E-02  0.1297545E+00
         -3   -1    0    0    0  501 -0.00000000000E+00  0.00000000000E+00  0.49528659703E+03  0.49528659703E+03  0.00000000000E+00 0.  1.
          3   -1    0    0  501    0  0.00000000000E+00 -0.00000000000E+00 -0.42934625739E+01  0.42934625739E+01  0.00000000000E+00 0. -1.
         23    2    1    2    0    0  0.00000000000E+00  0.00000000000E+00  0.49099313446E+03  0.49958005961E+03  0.92227858431E+02 0.  0.
          2    1    3    3  502    0 -0.26148780849E+01 -0.45927091745E+02  0.22806226822E+03  0.23265539651E+03  0.00000000000E+00 0. -1.
         -2    1    3    3    0  502  0.26148780849E+01  0.45927091745E+02  0.26293086624E+03  0.26692466309E+03  0.00000000000E+00 0.  1.
<mgrwt>
<rscale>  0 0.92227858E+02</rscale>
<asrwt>0</asrwt>
<pdfrwt beam="2">  1        3 0.66053310E-03 0.92227858E+02</pdfrwt>
<pdfrwt beam="1">  1       -3 0.76197893E-01 0.92227858E+02</pdfrwt>
<totfact> 0.17361335E+04</totfact>
</mgrwt>
</event>
<event>
 5    1  0.3963873E+001  0.9190525E+02  0.7546771E-02  0.1298302E+00
         -3   -1    0    0    0  501 -0.00000000000E+00  0.00000000000E+00  0.41159985795E+02  0.41159985795E+02  0.00000000000E+00 0.  1.
          3   -1    0    0  501    0  0.00000000000E+00 -0.00000000000E+00 -0.51303320874E+02  0.51303320874E+02  0.00000000000E+00 0. -1.
         23    2    1    2    0    0  0.00000000000E+00  0.00000000000E+00 -0.10143335079E+02  0.92463306669E+02  0.91905254657E+02 0.  0.
          2    1    3    3  502    0  0.19850318603E+02  0.27960215113E+02 -0.35848843079E+02  0.49607946218E+02  0.00000000000E+00 0. -1.
         -2    1    3    3    0  502 -0.19850318603E+02 -0.27960215113E+02  0.25705508000E+02  0.42855360451E+02  0.00000000000E+00 0.  1.
<mgrwt>
<rscale>  0 0.91905255E+02</rscale>
<asrwt>0</asrwt>
<pdfrwt beam="2">  1        3 0.78928186E-02 0.91905255E+02</pdfrwt>
<pdfrwt beam="1">  1       -3 0.63323055E-02 0.91905255E+02</pdfrwt>
<totfact> 0.34482751E+04</totfact>
</mgrwt>
</event>
<event>
 5    1  0.3963873E+001  0.9008388E+02  0.7546771E-02  0.1302649E+00
         -1   -1    0    0    0  501 -0.00000000000E+00  0.00000000000E+00  0.11396711321E+01  0.11396711321E+01  0.00000000000E+00 0.  1.
          1   -1    0    0  501    0  0.00000000000E+00 -0.00000000000E+00 -0.17801417509E+04  0.17801417509E+04  0.00000000000E+00 0. -1.
         23    2    1    2    0    0  0.00000000000E+00  0.00000000000E+00 -0.17790020798E+04  0.17812814221E+04  0.90083875684E+02 0.  0.
          2    1    3    3  502    0  0.44242064857E+02 -0.69731831875E+01 -0.98389911654E+03  0.98491799512E+03  0.00000000000E+00 0. -1.
         -2    1    3    3    0  502 -0.44242064857E+02  0.69731831875E+01 -0.79510296327E+03  0.79636342696E+03  0.00000000000E+00 0.  1.
<mgrwt>
<rscale>  0 0.90083876E+02</rscale>
<asrwt>0</asrwt>
<pdfrwt beam="2">  1        1 0.27386663E+00 0.90083876E+02</pdfrwt>
<pdfrwt beam="1">  1       -1 0.17533487E-03 0.90083876E+02</pdfrwt>
<totfact> 0.96241806E+04</totfact>
</mgrwt>
</event>
<event>
 4    1  0.3963873E+001  0.1424225E+03  0.7546771E-02  0.1210106E+00
         -1   -1    0    0    0  501 -0.00000000000E+00  0.00000000000E+00  0.41414126460E+02  0.41414126460E+02  0.00000000000E+00 0.  1.
          1   -1    0    0  501    0  0.00000000000E+00 -0.00000000000E+00 -0.12244711850E+03  0.12244711850E+03  0.00000000000E+00 0. -1.
          2    1    1    2  502    0  0.16132695077E+02  0.66127585160E+02 -0.64593067943E+02  0.93837017194E+02  0.00000000000E+00 0. -1.
         -2    1    1    2    0  502 -0.16132695077E+02 -0.66127585160E+02 -0.16439924095E+02  0.70024227763E+02  0.00000000000E+00 0.  1.
<mgrwt>
<rscale>  0 0.14242248E+03</rscale>
<asrwt>0</asrwt>
<pdfrwt beam="2">  1        1 0.18838018E-01 0.14242248E+03</pdfrwt>
<pdfrwt beam="1">  1       -1 0.63714041E-02 0.14242248E+03</pdfrwt>
<totfact> 0.31104848E+04</totfact>
</mgrwt>
</event>
<event>
 5    1  0.3963873E+001  0.9403000E+02  0.7546771E-02  0.1293376E+00
          2   -1    0    0  501    0  0.00000000000E+00  0.00000000000E+00  0.84065504973E+02  0.84065504973E+02  0.00000000000E+00 0. -1.
         -2   -1    0    0    0  501 -0.00000000000E+00 -0.00000000000E+00 -0.26293903223E+02  0.26293903223E+02  0.00000000000E+00 0.  1.
         23    2    1    2    0    0  0.00000000000E+00  0.00000000000E+00  0.57771601750E+02  0.11035940820E+03  0.94030000577E+02 0.  0.
          2    1    3    3  502    0 -0.29586125106E+02 -0.36527878662E+02  0.29926021275E+02  0.55724244882E+02  0.00000000000E+00 0. -1.
         -2    1    3    3    0  502  0.29586125106E+02  0.36527878662E+02  0.27845580475E+02  0.54635163313E+02  0.00000000000E+00 0.  1.
<mgrwt>
<rscale>  0 0.94030001E+02</rscale>
<asrwt>0</asrwt>
<pdfrwt beam="1">  1        2 0.12933154E-01 0.94030001E+02</pdfrwt>
<pdfrwt beam="2">  1       -2 0.40452159E-02 0.94030001E+02</pdfrwt>
<totfact> 0.10693503E+05</totfact>
</mgrwt>
</event>
<event>
 5    1  0.3963873E+001  0.8830540E+02  0.7546771E-02  0.1307008E+00
         -2   -1    0    0    0  501 -0.00000000000E+00  0.00000000000E+00  0.31716267492E+03  0.31716267492E+03  0.00000000000E+00 0.  1.
          2   -1    0    0  501    0  0.00000000000E+00 -0.00000000000E+00 -0.61465649913E+01  0.61465649913E+01  0.00000000000E+00 0. -1.
         23    2    1    2    0    0  0.00000000000E+00  0.00000000000E+00  0.31101610993E+03  0.32330923992E+03  0.88305401743E+02 0.  0.
          2    1    3    3  502    0  0.73715795582E+01 -0.35975128712E+02  0.24525835213E+03  0.24799235746E+03  0.00000000000E+00 0. -1.
         -2    1    3    3    0  502 -0.73715795582E+01  0.35975128712E+02  0.65757757805E+02  0.75316882453E+02  0.00000000000E+00 0.  1.
<mgrwt>
<rscale>  0 0.88305402E+02</rscale>
<asrwt>0</asrwt>
<pdfrwt beam="2">  1        2 0.94562563E-03 0.88305402E+02</pdfrwt>
<pdfrwt beam="1">  1       -2 0.48794245E-01 0.88305402E+02</pdfrwt>
<totfact> 0.53642985E+04</totfact>
</mgrwt>
</event>
<event>
 5    1  0.3963873E+001  0.9114156E+02  0.7546771E-02  0.1300111E+00
         -1   -1    0    0    0  501 -0.00000000000E+00  0.00000000000E+00  0.13068981246E+03  0.13068981246E+03  0.00000000000E+00 0.  1.
          1   -1    0    0  501    0  0.00000000000E+00 -0.00000000000E+00 -0.15890265987E+02  0.15890265987E+02  0.00000000000E+00 0. -1.
         23    2    1    2    0    0  0.00000000000E+00  0.00000000000E+00  0.11479954647E+03  0.14658007845E+03  0.91141557629E+02 0.  0.
          2    1    3    3  502    0 -0.81198194281E+01  0.44829923959E+02  0.59041729339E+02  0.74575997165E+02  0.00000000000E+00 0.  1.
         -2    1    3    3    0  502  0.81198194281E+01 -0.44829923959E+02  0.55757817134E+02  0.72004081282E+02  0.00000000000E+00 0. -1.
<mgrwt>
<rscale>  0 0.91141558E+02</rscale>
<asrwt>0</asrwt>
<pdfrwt beam="2">  1        1 0.24446564E-02 0.91141558E+02</pdfrwt>
<pdfrwt beam="1">  1       -1 0.20106124E-01 0.91141558E+02</pdfrwt>
<totfact> 0.77214491E+04</totfact>
</mgrwt>
</event>
<event>
 5    1  0.3963873E+001  0.8637279E+02  0.7546771E-02  0.1311881E+00
         -1   -1    0    0    0  501 -0.00000000000E+00  0.00000000000E+00  0.30783960231E+02  0.30783960231E+02  0.00000000000E+00 0.  1.
          1   -1    0    0  501    0  0.00000000000E+00 -0.00000000000E+00 -0.60585594794E+02  0.60585594794E+02  0.00000000000E+00 0. -1.
         23    2    1    2    0    0  0.00000000000E+00  0.00000000000E+00 -0.29801634562E+02  0.91369555025E+02  0.86372786009E+02 0.  0.
          2    1    3    3  502    0  0.20491095266E+02 -0.26314689512E+02 -0.43923686786E+02  0.55151048315E+02  0.00000000000E+00 0. -1.
         -2    1    3    3    0  502 -0.20491095266E+02  0.26314689512E+02  0.14122052224E+02  0.36218506710E+02  0.00000000000E+00 0.  1.
<mgrwt>
<rscale>  0 0.86372786E+02</rscale>
<asrwt>0</asrwt>
<pdfrwt beam="2">  1        1 0.93208606E-02 0.86372786E+02</pdfrwt>
<pdfrwt beam="1">  1       -1 0.47359939E-02 0.86372786E+02</pdfrwt>
<totfact> 0.11206055E+05</totfact>
</mgrwt>
</event>
<event>
 5    1  0.3963873E+001  0.8956220E+02  0.7546771E-02  0.1303915E+00
         -1   -1    0    0    0  501 -0.00000000000E+00  0.00000000000E+00  0.15819588296E+01  0.15819588296E+01  0.00000000000E+00 0.  1.
          1   -1    0    0  501    0  0.00000000000E+00 -0.00000000000E+00 -0.12676354281E+04  0.12676354281E+04  0.00000000000E+00 0. -1.
         23    2    1    2    0    0  0.00000000000E+00  0.00000000000E+00 -0.12660534693E+04  0.12692173869E+04  0.89562203149E+02 0.  0.
          2    1    3    3  502    0  0.44305524235E+02 -0.62518919318E+01 -0.60735574167E+03  0.60900169340E+03  0.00000000000E+00 0. -1.
         -2    1    3    3    0  502 -0.44305524235E+02  0.62518919318E+01 -0.65869772761E+03  0.66021569353E+03  0.00000000000E+00 0.  1.
<mgrwt>
<rscale>  0 0.89562203E+02</rscale>
<asrwt>0</asrwt>
<pdfrwt beam="2">  1        1 0.19502159E+00 0.89562203E+02</pdfrwt>
<pdfrwt beam="1">  1       -1 0.24337734E-03 0.89562203E+02</pdfrwt>
<totfact> 0.12980087E+05</totfact>
</mgrwt>
</event>
<event>
 5    1  0.3963873E+001  0.9206204E+02  0.7546771E-02  0.1297934E+00
         -1   -1    0    0    0  501 -0.00000000000E+00  0.00000000000E+00  0.28863127578E+03  0.28863127578E+03  0.00000000000E+00 0.  1.
          1   -1    0    0  501    0  0.00000000000E+00 -0.00000000000E+00 -0.73410429632E+01  0.73410429632E+01  0.00000000000E+00 0. -1.
         23    2    1    2    0    0  0.00000000000E+00  0.00000000000E+00  0.28129023282E+03  0.29597231875E+03  0.92062035521E+02 0.  0.
          2    1    3    3  502    0 -0.22515191215E+02 -0.19375971364E+02  0.27596236397E+02  0.40545213836E+02  0.00000000000E+00 0. -1.
         -2    1    3    3    0  502  0.22515191215E+02  0.19375971364E+02  0.25369399642E+03  0.25542710491E+03  0.00000000000E+00 0.  1.
<mgrwt>
<rscale>  0 0.92062036E+02</rscale>
<asrwt>0</asrwt>
<pdfrwt beam="2">  1        1 0.11293914E-02 0.92062036E+02</pdfrwt>
<pdfrwt beam="1">  1       -1 0.44404803E-01 0.92062036E+02</pdfrwt>
<totfact> 0.59964657E+04</totfact>
</mgrwt>
</event>
<event>
 5    1  0.3963873E+001  0.8981701E+02  0.7546771E-02  0.1303295E+00
          1   -1    0    0  501    0  0.00000000000E+00  0.00000000000E+00  0.33603119067E+03  0.33603119067E+03  0.00000000000E+00 0. -1.
         -1   -1    0    0    0  501 -0.00000000000E+00 -0.00000000000E+00 -0.60017453976E+01  0.60017453976E+01  0.00000000000E+00 0.  1.
         23    2    1    2    0    0  0.00000000000E+00  0.00000000000E+00  0.33002944527E+03  0.34203293606E+03  0.89817006230E+02 0.  0.
          2    1    3    3  502    0  0.15618609985E+01 -0.40550948134E+02  0.23826068923E+03  0.24169190064E+03  0.00000000000E+00 0. -1.
         -2    1    3    3    0  502 -0.15618609985E+01  0.40550948134E+02  0.91768756040E+02  0.10034103542E+03  0.00000000000E+00 0.  1.
<mgrwt>
<rscale>  0 0.89817006E+02</rscale>
<asrwt>0</asrwt>
<pdfrwt beam="1">  1        1 0.51697092E-01 0.89817006E+02</pdfrwt>
<pdfrwt beam="2">  1       -1 0.92334571E-03 0.89817006E+02</pdfrwt>
<totfact> 0.13619772E+05</totfact>
</mgrwt>
</event>
<event>
 5    1  0.3963873E+001  0.9026401E+02  0.7546771E-02  0.1302214E+00
         -2   -1    0    0    0  501 -0.00000000000E+00  0.00000000000E+00  0.41488969120E+03  0.41488969120E+03  0.00000000000E+00 0.  1.
          2   -1    0    0  501    0  0.00000000000E+00 -0.00000000000E+00 -0.49094928338E+01  0.49094928338E+01  0.00000000000E+00 0. -1.
         23    2    1    2    0    0  0.00000000000E+00  0.00000000000E+00  0.40998019837E+03  0.41979918404E+03  0.90264012004E+02 0.  0.
          2    1    3    3  502    0 -0.95529110994E+01 -0.26057926432E+02  0.39469949885E+02  0.48250912782E+02  0.00000000000E+00 0. -1.
         -2    1    3    3    0  502  0.95529110994E+01  0.26057926432E+02  0.37051024848E+03  0.37154827125E+03  0.00000000000E+00 0.  1.
<mgrwt>
<rscale>  0 0.90264012E+02</rscale>
<asrwt>0</asrwt>
<pdfrwt beam="2">  1        2 0.75530692E-03 0.90264012E+02</pdfrwt>
<pdfrwt beam="1">  1       -2 0.63829156E-01 0.90264012E+02</pdfrwt>
<totfact> 0.42734662E+04</totfact>
</mgrwt>
</event>
<event>
 5    1  0.3963873E+001  0.9266496E+02  0.7546771E-02  0.1296523E+00
         -3   -1    0    0    0  501 -0.00000000000E+00  0.00000000000E+00  0.63667600525E+01  0.63667600525E+01  0.00000000000E+00 0. -1.
          3   -1    0    0  501    0  0.00000000000E+00 -0.00000000000E+00 -0.33717286183E+03  0.33717286183E+03  0.00000000000E+00 0.  1.
         23    2    1    2    0    0  0.00000000000E+00  0.00000000000E+00 -0.33080610178E+03  0.34353962188E+03  0.92664960098E+02 0.  0.
          2    1    3    3  502    0 -0.48742150320E+01  0.45307387859E+02 -0.13434514851E+03  0.14186308997E+03  0.00000000000E+00 0.  1.
         -2    1    3    3    0  502  0.48742150320E+01 -0.45307387859E+02 -0.19646095327E+03  0.20167653192E+03  0.00000000000E+00 0. -1.
<mgrwt>
<rscale>  0 0.92664960E+02</rscale>
<asrwt>0</asrwt>
<pdfrwt beam="2">  1        3 0.51872750E-01 0.92664960E+02</pdfrwt>
<pdfrwt beam="1">  1       -3 0.97950151E-03 0.92664960E+02</pdfrwt>
<totfact> 0.21484279E+04</totfact>
</mgrwt>
</event>
<event>
 5    1  0.3963873E+001  0.8606029E+02  0.7546771E-02  0.1312683E+00
          2   -1    0    0  501    0  0.00000000000E+00  0.00000000000E+00  0.19161454498E+04  0.19161454498E+04  0.00000000000E+00 0. -1.
         -2   -1    0    0    0  501 -0.00000000000E+00 -0.00000000000E+00 -0.96631158193E+00  0.96631158193E+00  0.00000000000E+00 0.  1.
         23    2    1    2    0    0  0.00000000000E+00  0.00000000000E+00  0.19151791382E+04  0.19171117613E+04  0.86060293766E+02 0.  0.
          2    1    3    3  502    0  0.42658122270E+02  0.45657248523E+01  0.10315803607E+04  0.10324720828E+04  0.00000000000E+00 0.  1.
         -2    1    3    3    0  502 -0.42658122270E+02 -0.45657248523E+01  0.88359877750E+03  0.88463967854E+03  0.00000000000E+00 0. -1.
<mgrwt>
<rscale>  0 0.86060294E+02</rscale>
<asrwt>0</asrwt>
<pdfrwt beam="1">  1        2 0.29478857E+00 0.86060294E+02</pdfrwt>
<pdfrwt beam="2">  1       -2 0.14866485E-03 0.86060294E+02</pdfrwt>
<totfact> 0.23797823E+05</totfact>
</mgrwt>
</event>
<event>
 5    1  0.3963873E+001  0.8992585E+02  0.7546771E-02  0.1303031E+00
          1   -1    0    0  501    0  0.00000000000E+00  0.00000000000E+00  0.31236003946E+02  0.31236003946E+02  0.00000000000E+00 0. -1.
         -1   -1    0    0    0  501 -0.00000000000E+00 -0.00000000000E+00 -0.64722258141E+02  0.64722258141E+02  0.00000000000E+00 0.  1.
         23    2    1    2    0    0  0.00000000000E+00  0.00000000000E+00 -0.33486254195E+02  0.95958262088E+02  0.89925851916E+02 0.  0.
          2    1    3    3  502    0 -0.26579620623E-01  0.20705114937E+02  0.25846177690E+02  0.33116874735E+02  0.00000000000E+00 0. -1.
         -2    1    3    3    0  502  0.26579620623E-01 -0.20705114937E+02 -0.59332431885E+02  0.62841387353E+02  0.00000000000E+00 0.  1.
<mgrwt>
<rscale>  0 0.89925852E+02</rscale>
<asrwt>0</asrwt>
<pdfrwt beam="1">  1        1 0.48055391E-02 0.89925852E+02</pdfrwt>
<pdfrwt beam="2">  1       -1 0.99572705E-02 0.89925852E+02</pdfrwt>
<totfact> 0.90761612E+04</totfact>
</mgrwt>
</event>
<event>
 5    1  0.3963873E+001  0.7603337E+02  0.7546771E-02  0.1340701E+00
         -2   -1    0    0    0  501 -0.00000000000E+00  0.00000000000E+00  0.13751542607E+01  0.13751542607E+01  0.00000000000E+00 0.  1.
          2   -1    0    0  501    0  0.00000000000E+00 -0.00000000000E+00 -0.10509862030E+04  0.10509862030E+04  0.00000000000E+00 0. -1.
         23    2    1    2    0    0  0.00000000000E+00  0.00000000000E+00 -0.10496110488E+04  0.10523613573E+04  0.76033365178E+02 0.  0.
          2    1    3    3  502    0 -0.23826800921E+02  0.24235761994E+02 -0.76057853225E+03  0.76133750224E+03  0.00000000000E+00 0. -1.
         -2    1    3    3    0  502  0.23826800921E+02 -0.24235761994E+02 -0.28903251652E+03  0.29102385505E+03  0.00000000000E+00 0.  1.
<mgrwt>
<rscale>  0 0.76033365E+02</rscale>
<asrwt>0</asrwt>
<pdfrwt beam="2">  1        2 0.16168998E+00 0.76033365E+02</pdfrwt>
<pdfrwt beam="1">  1       -2 0.21156247E-03 0.76033365E+02</pdfrwt>
<totfact> 0.40205353E+05</totfact>
</mgrwt>
</event>
<event>
 5    1  0.3963873E+001  0.9099493E+02  0.7546771E-02  0.1300460E+00
          2   -1    0    0  501    0  0.00000000000E+00  0.00000000000E+00  0.77693813193E+01  0.77693813193E+01  0.00000000000E+00 0. -1.
         -2   -1    0    0    0  501 -0.00000000000E+00 -0.00000000000E+00 -0.26643298868E+03  0.26643298868E+03  0.00000000000E+00 0.  1.
         23    2    1    2    0    0  0.00000000000E+00  0.00000000000E+00 -0.25866360736E+03  0.27420237000E+03  0.90994933598E+02 0.  0.
          2    1    3    3  502    0 -0.35576997600E+02 -0.19900206543E+02 -0.68443727761E+02  0.79663572909E+02  0.00000000000E+00 0. -1.
         -2    1    3    3    0  502  0.35576997600E+02  0.19900206543E+02 -0.19021987960E+03  0.19453879709E+03  0.00000000000E+00 0.  1.
<mgrwt>
<rscale>  0 0.90994934E+02</rscale>
<asrwt>0</asrwt>
<pdfrwt beam="1">  1        2 0.11952895E-02 0.90994934E+02</pdfrwt>
<pdfrwt beam="2">  1       -2 0.40989689E-01 0.90994934E+02</pdfrwt>
<totfact> 0.54663345E+04</totfact>
</mgrwt>
</event>
<event>
 5    1  0.3963873E+001  0.9543662E+02  0.7546771E-02  0.1290196E+00
         -2   -1    0    0    0  501 -0.00000000000E+00  0.00000000000E+00  0.45230963577E+02  0.45230963577E+02  0.00000000000E+00 0.  1.
          2   -1    0    0  501    0  0.00000000000E+00 -0.00000000000E+00 -0.50342437314E+02  0.50342437314E+02  0.00000000000E+00 0. -1.
         23    2    1    2    0    0  0.00000000000E+00  0.00000000000E+00 -0.51114737373E+01  0.95573400891E+02  0.95436616631E+02 0.  0.
          2    1    3    3  502    0 -0.25526674558E+01 -0.46476886866E+02 -0.13078881326E+02  0.48349501141E+02  0.00000000000E+00 0. -1.
         -2    1    3    3    0  502  0.25526674558E+01  0.46476886866E+02  0.79674075883E+01  0.47223899749E+02  0.00000000000E+00 0.  1.
<mgrwt>
<rscale>  0 0.95436617E+02</rscale>
<asrwt>0</asrwt>
<pdfrwt beam="2">  1        2 0.77449903E-02 0.95436617E+02</pdfrwt>
<pdfrwt beam="1">  1       -2 0.69586098E-02 0.95436617E+02</pdfrwt>
<totfact> 0.88835665E+04</totfact>
</mgrwt>
</event>
<event>
 5    1  0.3963873E+001  0.8898772E+02  0.7546771E-02  0.1305322E+00
          1   -1    0    0  501    0  0.00000000000E+00  0.00000000000E+00  0.46915263850E+03  0.46915263850E+03  0.00000000000E+00 0. -1.
         -1   -1    0    0    0  501 -0.00000000000E+00 -0.00000000000E+00 -0.42197430699E+01  0.42197430699E+01  0.00000000000E+00 0.  1.
         23    2    1    2    0    0  0.00000000000E+00  0.00000000000E+00  0.46493289543E+03  0.47337238157E+03  0.88987720390E+02 0.  0.
          2    1    3    3  502    0 -0.25819097059E+02  0.21592348009E+02  0.38726812142E+03  0.38872799376E+03  0.00000000000E+00 0. -1.
         -2    1    3    3    0  502  0.25819097059E+02 -0.21592348009E+02  0.77664774015E+02  0.84644387813E+02  0.00000000000E+00 0.  1.
<mgrwt>
<rscale>  0 0.88987720E+02</rscale>
<asrwt>0</asrwt>
<pdfrwt beam="1">  1        1 0.72177288E-01 0.88987720E+02</pdfrwt>
<pdfrwt beam="2">  1       -1 0.64919161E-03 0.88987720E+02</pdfrwt>
<totfact> 0.14733174E+05</totfact>
</mgrwt>
</event>
<event>
 5    1  0.3963873E+001  0.8933043E+02  0.7546771E-02  0.1304481E+00
          1   -1    0    0  501    0  0.00000000000E+00  0.00000000000E+00  0.12110445044E+04  0.12110445044E+04  0.00000000000E+00 0. -1.
         -1   -1    0    0    0  501 -0.00000000000E+00 -0.00000000000E+00 -0.16473228723E+01  0.16473228723E+01  0.00000000000E+00 0.  1.
         23    2    1    2    0    0  0.00000000000E+00  0.00000000000E+00  0.12093971815E+04  0.12126918273E+04  0.89330427323E+02 0.  0.
          2    1    3    3  502    0  0.41995126546E+02 -0.45896092872E+00  0.39829075470E+03  0.40049884716E+03  0.00000000000E+00 0. -1.
         -2    1    3    3    0  502 -0.41995126546E+02  0.45896092872E+00  0.81110642682E+03  0.81219298010E+03  0.00000000000E+00 0.  1.
<mgrwt>
<rscale>  0 0.89330427E+02</rscale>
<asrwt>0</asrwt>
<pdfrwt beam="1">  1        1 0.18631383E+00 0.89330427E+02</pdfrwt>
<pdfrwt beam="2">  1       -1 0.25343526E-03 0.89330427E+02</pdfrwt>
<totfact> 0.13378959E+05</totfact>
</mgrwt>
</event>
<event>
 5    1  0.3963873E+001  0.9123717E+02  0.7546771E-02  0.1299883E+00
         -2   -1    0    0    0  501 -0.00000000000E+00  0.00000000000E+00  0.35212679134E+01  0.35212679134E+01  0.00000000000E+00 0.  1.
          2   -1    0    0  501    0  0.00000000000E+00 -0.00000000000E+00 -0.59099597441E+03  0.59099597441E+03  0.00000000000E+00 0. -1.
         23    2    1    2    0    0  0.00000000000E+00  0.00000000000E+00 -0.58747470650E+03  0.59451724232E+03  0.91237167023E+02 0.  0.
          2    1    3    3  502    0 -0.44925359317E+02 -0.78163547179E+01 -0.30216277048E+03  0.30558423254E+03  0.00000000000E+00 0. -1.
         -2    1    3    3    0  502  0.44925359317E+02  0.78163547179E+01 -0.28531193602E+03  0.28893300979E+03  0.00000000000E+00 0.  1.
<mgrwt>
<rscale>  0 0.91237167E+02</rscale>
<asrwt>0</asrwt>
<pdfrwt beam="2">  1        2 0.90922505E-01 0.91237167E+02</pdfrwt>
<pdfrwt beam="1">  1       -2 0.54173324E-03 0.91237167E+02</pdfrwt>
<totfact> 0.22647208E+05</totfact>
</mgrwt>
</event>
<event>
 5    1  0.3963873E+001  0.8980920E+02  0.7546771E-02  0.1303314E+00
         -1   -1    0    0    0  501 -0.00000000000E+00  0.00000000000E+00  0.34836784556E+03  0.34836784556E+03  0.00000000000E+00 0.  1.
          1   -1    0    0  501    0  0.00000000000E+00 -0.00000000000E+00 -0.57882011562E+01  0.57882011562E+01  0.00000000000E+00 0. -1.
         23    2    1    2    0    0  0.00000000000E+00  0.00000000000E+00  0.34257964441E+03  0.35415604672E+03  0.89809201455E+02 0.  0.
          2    1    3    3  502    0  0.99833281345E+01  0.43326822188E+02  0.19608730300E+03  0.20106494165E+03  0.00000000000E+00 0. -1.
         -2    1    3    3    0  502 -0.99833281345E+01 -0.43326822188E+02  0.14649234140E+03  0.15309110507E+03  0.00000000000E+00 0.  1.
<mgrwt>
<rscale>  0 0.89809201E+02</rscale>
<asrwt>0</asrwt>
<pdfrwt beam="2">  1        1 0.89049276E-03 0.89809201E+02</pdfrwt>
<pdfrwt beam="1">  1       -1 0.53595037E-01 0.89809201E+02</pdfrwt>
<totfact> 0.59200006E+04</totfact>
</mgrwt>
</event>
<event>
 5    1  0.3963873E+001  0.8928238E+02  0.7546771E-02  0.1304599E+00
          2   -1    0    0  501    0  0.00000000000E+00  0.00000000000E+00  0.60168592325E+03  0.60168592325E+03  0.00000000000E+00 0. -1.
         -2   -1    0    0    0  501 -0.00000000000E+00 -0.00000000000E+00 -0.33120865213E+01  0.33120865213E+01  0.00000000000E+00 0.  1.
         23    2    1    2    0    0  0.00000000000E+00  0.00000000000E+00  0.59837383673E+03  0.60499800977E+03  0.89282379817E+02 0.  0.
          2    1    3    3  502    0 -0.15253006386E+01 -0.42302821264E+02  0.39525193570E+03  0.39751219843E+03  0.00000000000E+00 0. -1.
         -2    1    3    3    0  502  0.15253006386E+01  0.42302821264E+02  0.20312190103E+03  0.20748581134E+03  0.00000000000E+00 0.  1.
<mgrwt>
<rscale>  0 0.89282380E+02</rscale>
<asrwt>0</asrwt>
<pdfrwt beam="1">  1        2 0.92566978E-01 0.89282380E+02</pdfrwt>
<pdfrwt beam="2">  1       -2 0.50955225E-03 0.89282380E+02</pdfrwt>
<totfact> 0.24101576E+05</totfact>
</mgrwt>
</event>
<event>
 5    1  0.3963873E+001  0.9072598E+02  0.7546771E-02  0.1301103E+00
          1   -1    0    0  501    0  0.00000000000E+00  0.00000000000E+00  0.50209765052E+01  0.50209765052E+01  0.00000000000E+00 0. -1.
         -1   -1    0    0    0  501 -0.00000000000E+00 -0.00000000000E+00 -0.40984072824E+03  0.40984072824E+03  0.00000000000E+00 0.  1.
         23    2    1    2    0    0  0.00000000000E+00  0.00000000000E+00 -0.40481975173E+03  0.41486170474E+03  0.90725975715E+02 0.  0.
          2    1    3    3  502    0  0.17597602790E+01 -0.41254834950E+02 -0.11652818289E+03  0.12362797244E+03  0.00000000000E+00 0. -1.
         -2    1    3    3    0  502 -0.17597602790E+01  0.41254834950E+02 -0.28829156884E+03  0.29123373230E+03  0.00000000000E+00 0.  1.
<mgrwt>
<rscale>  0 0.90725976E+02</rscale>
<asrwt>0</asrwt>
<pdfrwt beam="1">  1        1 0.77245781E-03 0.90725976E+02</pdfrwt>
<pdfrwt beam="2">  1       -1 0.63052429E-01 0.90725976E+02</pdfrwt>
<totfact> 0.53320456E+04</totfact>
</mgrwt>
</event>
<event>
 5    1  0.3963873E+001  0.9098570E+02  0.7546771E-02  0.1300482E+00
          1   -1    0    0  501    0  0.00000000000E+00  0.00000000000E+00  0.16821125201E+04  0.16821125201E+04  0.00000000000E+00 0. -1.
         -1   -1    0    0    0  501 -0.00000000000E+00 -0.00000000000E+00 -0.12303572767E+01  0.12303572767E+01  0.00000000000E+00 0.  1.
         23    2    1    2    0    0  0.00000000000E+00  0.00000000000E+00  0.16808821628E+04  0.16833428774E+04  0.90985699521E+02 0.  0.
          2    1    3    3  502    0  0.34398481450E+02 -0.19408357647E+01  0.13900778182E+04  0.13905047152E+04  0.00000000000E+00 0. -1.
         -2    1    3    3    0  502 -0.34398481450E+02  0.19408357647E+01  0.29080434466E+03  0.29283816220E+03  0.00000000000E+00 0.  1.
<mgrwt>
<rscale>  0 0.90985700E+02</rscale>
<asrwt>0</asrwt>
<pdfrwt beam="1">  1        1 0.25878470E+00 0.90985700E+02</pdfrwt>
<pdfrwt beam="2">  1       -1 0.18928708E-03 0.90985700E+02</pdfrwt>
<totfact> 0.99866273E+04</totfact>
</mgrwt>
</event>
<event>
 5    1  0.3963873E+001  0.9109332E+02  0.7546771E-02  0.1300225E+00
         -1   -1    0    0    0  501 -0.00000000000E+00  0.00000000000E+00  0.27478693013E+01  0.27478693013E+01  0.00000000000E+00 0.  1.
          1   -1    0    0  501    0  0.00000000000E+00 -0.00000000000E+00 -0.75494789209E+03  0.75494789209E+03  0.00000000000E+00 0. -1.
         23    2    1    2    0    0  0.00000000000E+00  0.00000000000E+00 -0.75220002279E+03  0.75769576139E+03  0.91093317796E+02 0.  0.
          2    1    3    3  502    0 -0.36321940705E+02 -0.19075456030E+02 -0.54064566760E+03  0.54220005007E+03  0.00000000000E+00 0. -1.
         -2    1    3    3    0  502  0.36321940705E+02  0.19075456030E+02 -0.21155435518E+03  0.21549571132E+03  0.00000000000E+00 0.  1.
<mgrwt>
<rscale>  0 0.91093318E+02</rscale>
<asrwt>0</asrwt>
<pdfrwt beam="2">  1        1 0.11614583E+00 0.91093318E+02</pdfrwt>
<pdfrwt beam="1">  1       -1 0.42274911E-03 0.91093318E+02</pdfrwt>
<totfact> 0.14220611E+05</totfact>
</mgrwt>
</event>
<event>
 5    1  0.3963873E+001  0.9241019E+02  0.7546771E-02  0.1297118E+00
          3   -1    0    0  501    0  0.00000000000E+00  0.00000000000E+00  0.16400788491E+03  0.16400788491E+03  0.00000000000E+00 0. -1.
         -3   -1    0    0    0  501 -0.00000000000E+00 -0.00000000000E+00 -0.13017121769E+02  0.13017121769E+02  0.00000000000E+00 0.  1.
         23    2    1    2    0    0  0.00000000000E+00  0.00000000000E+00  0.15099076314E+03  0.17702500668E+03  0.92410185781E+02 0.  0.
          2    1    3    3  502    0 -0.31715179066E+02 -0.32371900721E+02  0.92748737413E+02  0.10322848847E+03  0.00000000000E+00 0. -1.
         -2    1    3    3    0  502  0.31715179066E+02  0.32371900721E+02  0.58242025729E+02  0.73796518214E+02  0.00000000000E+00 0.  1.
<mgrwt>
<rscale>  0 0.92410186E+02</rscale>
<asrwt>0</asrwt>
<pdfrwt beam="1">  1        3 0.25231981E-01 0.92410186E+02</pdfrwt>
<pdfrwt beam="2">  1       -3 0.20026342E-02 0.92410186E+02</pdfrwt>
<totfact> 0.28668471E+04</totfact>
</mgrwt>
</event>
<event>
 5    1  0.3963873E+001  0.8965049E+02  0.7546771E-02  0.1303700E+00
         -2   -1    0    0    0  501 -0.00000000000E+00  0.00000000000E+00  0.12755978443E+02  0.12755978443E+02  0.00000000000E+00 0.  1.
          2   -1    0    0  501    0  0.00000000000E+00 -0.00000000000E+00 -0.15751849274E+03  0.15751849274E+03  0.00000000000E+00 0. -1.
         23    2    1    2    0    0  0.00000000000E+00  0.00000000000E+00 -0.14476251430E+03  0.17027447119E+03  0.89650487958E+02 0.  0.
          2    1    3    3  502    0  0.39609475153E+02 -0.14315670281E+02 -0.10152528098E+03  0.10991465606E+03  0.00000000000E+00 0. -1.
         -2    1    3    3    0  502 -0.39609475153E+02  0.14315670281E+02 -0.43237233320E+02  0.60359815131E+02  0.00000000000E+00 0.  1.
<mgrwt>
<rscale>  0 0.89650488E+02</rscale>
<asrwt>0</asrwt>
<pdfrwt beam="2">  1        2 0.24233615E-01 0.89650488E+02</pdfrwt>
<pdfrwt beam="1">  1       -2 0.19624582E-02 0.89650488E+02</pdfrwt>
<totfact> 0.14881198E+05</totfact>
</mgrwt>
</event>
<event>
 5    1  0.3963873E+001  0.8975816E+02  0.7546771E-02  0.1303438E+00
         -1   -1    0    0    0  501 -0.00000000000E+00  0.00000000000E+00  0.55139750385E+01  0.55139750385E+01  0.00000000000E+00 0.  1.
          1   -1    0    0  501    0  0.00000000000E+00 -0.00000000000E+00 -0.36527761147E+03  0.36527761147E+03  0.00000000000E+00 0. -1.
         23    2    1    2    0    0  0.00000000000E+00  0.00000000000E+00 -0.35976363643E+03  0.37079158651E+03  0.89758155769E+02 0.  0.
          2    1    3    3  502    0  0.40631029042E+02  0.17278126723E+02 -0.21311459580E+03  0.21764017352E+03  0.00000000000E+00 0. -1.
         -2    1    3    3    0  502 -0.40631029042E+02 -0.17278126723E+02 -0.14664904063E+03  0.15315141299E+03  0.00000000000E+00 0.  1.
<mgrwt>
<rscale>  0 0.89758156E+02</rscale>
<asrwt>0</asrwt>
<pdfrwt beam="2">  1        1 0.56196567E-01 0.89758156E+02</pdfrwt>
<pdfrwt beam="1">  1       -1 0.84830368E-03 0.89758156E+02</pdfrwt>
<totfact> 0.13847570E+05</totfact>
</mgrwt>
</event>
<event>
 5    1  0.3963873E+001  0.9040096E+02  0.7546771E-02  0.1301884E+00
          1   -1    0    0  501    0  0.00000000000E+00  0.00000000000E+00  0.71516444692E+02  0.71516444692E+02  0.00000000000E+00 0. -1.
         -1   -1    0    0    0  501 -0.00000000000E+00 -0.00000000000E+00 -0.28568020925E+02  0.28568020925E+02  0.00000000000E+00 0.  1.
         23    2    1    2    0    0  0.00000000000E+00  0.00000000000E+00  0.42948423767E+02  0.10008446562E+03  0.90400957703E+02 0.  0.
          2    1    3    3  502    0 -0.21034701739E+02  0.96101561165E+01 -0.21522289569E+02  0.31591497687E+02  0.00000000000E+00 0.  1.
         -2    1    3    3    0  502  0.21034701739E+02 -0.96101561165E+01  0.64470713335E+02  0.68492967930E+02  0.00000000000E+00 0. -1.
<mgrwt>
<rscale>  0 0.90400958E+02</rscale>
<asrwt>0</asrwt>
<pdfrwt beam="1">  1        1 0.11002530E-01 0.90400958E+02</pdfrwt>
<pdfrwt beam="2">  1       -1 0.43950802E-02 0.90400958E+02</pdfrwt>
<totfact> 0.10135057E+05</totfact>
</mgrwt>
</event>
<event>
 5    1  0.3963873E+001  0.9527230E+02  0.7546771E-02  0.1290564E+00
         -1   -1    0    0    0  501 -0.00000000000E+00  0.00000000000E+00  0.40121116931E+03  0.40121116931E+03  0.00000000000E+00 0.  1.
          1   -1    0    0  501    0  0.00000000000E+00 -0.00000000000E+00 -0.56558814685E+01  0.56558814685E+01  0.00000000000E+00 0. -1.
         23    2    1    2    0    0  0.00000000000E+00  0.00000000000E+00  0.39555528784E+03  0.40686705078E+03  0.95272300643E+02 0.  0.
          2    1    3    3  502    0  0.29397197219E+02 -0.11547637120E+02  0.45487667071E+02  0.55377531391E+02  0.00000000000E+00 0. -1.
         -2    1    3    3    0  502 -0.29397197219E+02  0.11547637120E+02  0.35006762077E+03  0.35148951939E+03  0.00000000000E+00 0.  1.
<mgrwt>
<rscale>  0 0.95272301E+02</rscale>
<asrwt>0</asrwt>
<pdfrwt beam="2">  1        1 0.87013593E-03 0.95272301E+02</pdfrwt>
<pdfrwt beam="1">  1       -1 0.61724773E-01 0.95272301E+02</pdfrwt>
<totfact> 0.47411207E+04</totfact>
</mgrwt>
</event>
<event>
 5    1  0.3963873E+001  0.9227238E+02  0.7546771E-02  0.1297440E+00
          1   -1    0    0  501    0  0.00000000000E+00  0.00000000000E+00  0.45162758795E+03  0.45162758795E+03  0.00000000000E+00 0.  1.
         -1   -1    0    0    0  501 -0.00000000000E+00 -0.00000000000E+00 -0.47130601005E+01  0.47130601005E+01  0.00000000000E+00 0. -1.
         23    2    1    2    0    0  0.00000000000E+00  0.00000000000E+00  0.44691452785E+03  0.45634064805E+03  0.92272378641E+02 0.  0.
          2    1    3    3  502    0  0.14936361916E+02 -0.15025893249E+02  0.42614624711E+03  0.42667258677E+03  0.00000000000E+00 0.  1.
         -2    1    3    3    0  502 -0.14936361916E+02  0.15025893249E+02  0.20768280737E+02  0.29668061278E+02  0.00000000000E+00 0. -1.
<mgrwt>
<rscale>  0 0.92272379E+02</rscale>
<asrwt>0</asrwt>
<pdfrwt beam="1">  1        1 0.69481133E-01 0.92272379E+02</pdfrwt>
<pdfrwt beam="2">  1       -1 0.72508653E-03 0.92272379E+02</pdfrwt>
<totfact> 0.13313843E+05</totfact>
</mgrwt>
</event>
<event>
 5    1  0.3963873E+001  0.8813313E+02  0.7546771E-02  0.1307437E+00
          3   -1    0    0  501    0  0.00000000000E+00  0.00000000000E+00  0.40883898918E+02  0.40883898918E+02  0.00000000000E+00 0. -1.
         -3   -1    0    0    0  501 -0.00000000000E+00 -0.00000000000E+00 -0.47496987644E+02  0.47496987644E+02  0.00000000000E+00 0.  1.
         23    2    1    2    0    0  0.00000000000E+00  0.00000000000E+00 -0.66130887255E+01  0.88380886562E+02  0.88133127523E+02 0.  0.
          2    1    3    3  502    0 -0.34924961871E+00 -0.36356664121E+02  0.21661904523E+02  0.42322182232E+02  0.00000000000E+00 0. -1.
         -2    1    3    3    0  502  0.34924961871E+00  0.36356664121E+02 -0.28274993248E+02  0.46058704330E+02  0.00000000000E+00 0.  1.
<mgrwt>
<rscale>  0 0.88133128E+02</rscale>
<asrwt>0</asrwt>
<pdfrwt beam="1">  1        3 0.62898306E-02 0.88133128E+02</pdfrwt>
<pdfrwt beam="2">  1       -3 0.73072288E-02 0.88133128E+02</pdfrwt>
<totfact> 0.38990386E+04</totfact>
</mgrwt>
</event>
<event>
 5    1  0.3963873E+001  0.8949829E+02  0.7546771E-02  0.1304071E+00
         -1   -1    0    0    0  501 -0.00000000000E+00  0.00000000000E+00  0.78963005686E+02  0.78963005686E+02  0.00000000000E+00 0.  1.
          1   -1    0    0  501    0  0.00000000000E+00 -0.00000000000E+00 -0.25359800265E+02  0.25359800265E+02  0.00000000000E+00 0. -1.
         23    2    1    2    0    0  0.00000000000E+00  0.00000000000E+00  0.53603205421E+02  0.10432280595E+03  0.89498291659E+02 0.  0.
          2    1    3    3  502    0  0.41868806882E+02  0.41531869685E+01  0.90379154035E+01  0.43034054731E+02  0.00000000000E+00 0. -1.
         -2    1    3    3    0  502 -0.41868806882E+02 -0.41531869685E+01  0.44565290018E+02  0.61288751220E+02  0.00000000000E+00 0.  1.
<mgrwt>
<rscale>  0 0.89498292E+02</rscale>
<asrwt>0</asrwt>
<pdfrwt beam="2">  1        1 0.39015077E-02 0.89498292E+02</pdfrwt>
<pdfrwt beam="1">  1       -1 0.12148155E-01 0.89498292E+02</pdfrwt>
<totfact> 0.88963725E+04</totfact>
</mgrwt>
</event>
<event>
 5    1  0.3963873E+001  0.8997945E+02  0.7546771E-02  0.1302901E+00
         -2   -1    0    0    0  501 -0.00000000000E+00  0.00000000000E+00  0.20814834443E+01  0.20814834443E+01  0.00000000000E+00 0.  1.
          2   -1    0    0  501    0  0.00000000000E+00 -0.00000000000E+00 -0.97241961509E+03  0.97241961509E+03  0.00000000000E+00 0. -1.
         23    2    1    2    0    0  0.00000000000E+00  0.00000000000E+00 -0.97033813165E+03  0.97450109853E+03  0.89979449426E+02 0.  0.
          2    1    3    3  502    0  0.21265367120E+02  0.19895891881E+02 -0.85657176758E+03  0.85706665749E+03  0.00000000000E+00 0. -1.
         -2    1    3    3    0  502 -0.21265367120E+02 -0.19895891881E+02 -0.11376636406E+03  0.11743444105E+03  0.00000000000E+00 0.  1.
<mgrwt>
<rscale>  0 0.89979449E+02</rscale>
<asrwt>0</asrwt>
<pdfrwt beam="2">  1        2 0.14960298E+00 0.89979449E+02</pdfrwt>
<pdfrwt beam="1">  1       -2 0.32022830E-03 0.89979449E+02</pdfrwt>
<totfact> 0.25847815E+05</totfact>
</mgrwt>
</event>
<event>
 5    1  0.3963873E+001  0.9227319E+02  0.7546771E-02  0.1297438E+00
          2   -1    0    0  501    0  0.00000000000E+00  0.00000000000E+00  0.14904106301E+04  0.14904106301E+04  0.00000000000E+00 0. -1.
         -2   -1    0    0    0  501 -0.00000000000E+00 -0.00000000000E+00 -0.14281873226E+01  0.14281873226E+01  0.00000000000E+00 0.  1.
         23    2    1    2    0    0  0.00000000000E+00  0.00000000000E+00  0.14889824428E+04  0.14918388174E+04  0.92273193668E+02 0.  0.
          2    1    3    3  502    0 -0.11210294823E+02 -0.18324746203E+02  0.14046214052E+04  0.14047856630E+04  0.00000000000E+00 0. -1.
         -2    1    3    3    0  502  0.11210294823E+02  0.18324746203E+02  0.84361037613E+02  0.87053154455E+02  0.00000000000E+00 0.  1.
<mgrwt>
<rscale>  0 0.92273194E+02</rscale>
<asrwt>0</asrwt>
<pdfrwt beam="1">  1        2 0.22929270E+00 0.92273194E+02</pdfrwt>
<pdfrwt beam="2">  1       -2 0.21972232E-03 0.92273194E+02</pdfrwt>
<totfact> 0.22919630E+05</totfact>
</mgrwt>
</event>
<event>
 5    1  0.3963873E+001  0.9391631E+02  0.7546771E-02  0.1293636E+00
         -2   -1    0    0    0  501 -0.00000000000E+00  0.00000000000E+00  0.20717137733E+01  0.20717137733E+01  0.00000000000E+00 0.  1.
          2   -1    0    0  501    0  0.00000000000E+00 -0.00000000000E+00 -0.10643692497E+04  0.10643692497E+04  0.00000000000E+00 0. -1.
         23    2    1    2    0    0  0.00000000000E+00  0.00000000000E+00 -0.10622975359E+04  0.10664409635E+04  0.93916312415E+02 0.  0.
          2    1    3    3  502    0 -0.87545168982E+01 -0.45602621262E+02 -0.45180197549E+03  0.45418197420E+03  0.00000000000E+00 0. -1.
         -2    1    3    3    0  502  0.87545168982E+01  0.45602621262E+02 -0.61049556043E+03  0.61225898927E+03  0.00000000000E+00 0.  1.
<mgrwt>
<rscale>  0 0.93916312E+02</rscale>
<asrwt>0</asrwt>
<pdfrwt beam="2">  1        2 0.16374891E+00 0.93916312E+02</pdfrwt>
<pdfrwt beam="1">  1       -2 0.31872560E-03 0.93916312E+02</pdfrwt>
<totfact> 0.23153593E+05</totfact>
</mgrwt>
</event>
<event>
 5    1  0.3963873E+001  0.9158063E+02  0.7546771E-02  0.1299069E+00
         -2   -1    0    0    0  501 -0.00000000000E+00  0.00000000000E+00  0.33433755186E+01  0.33433755186E+01  0.00000000000E+00 0.  1.
          2   -1    0    0  501    0  0.00000000000E+00 -0.00000000000E+00 -0.62713650220E+03  0.62713650220E+03  0.00000000000E+00 0. -1.
         23    2    1    2    0    0  0.00000000000E+00  0.00000000000E+00 -0.62379312668E+03  0.63047987772E+03  0.91580627389E+02 0.  0.
          2    1    3    3  502    0 -0.29755297499E+02  0.22955548886E+02 -0.49200260746E+03  0.49343581213E+03  0.00000000000E+00 0. -1.
         -2    1    3    3    0  502  0.29755297499E+02 -0.22955548886E+02 -0.13179051922E+03  0.13704406558E+03  0.00000000000E+00 0.  1.
<mgrwt>
<rscale>  0 0.91580627E+02</rscale>
<asrwt>0</asrwt>
<pdfrwt beam="2">  1        2 0.96482416E-01 0.91580627E+02</pdfrwt>
<pdfrwt beam="1">  1       -2 0.51436612E-03 0.91580627E+02</pdfrwt>
<totfact> 0.22798146E+05</totfact>
</mgrwt>
</event>
<event>
 5    1  0.3963873E+001  0.9006141E+02  0.7546771E-02  0.1302703E+00
          2   -1    0    0  501    0  0.00000000000E+00  0.00000000000E+00  0.19486950155E+02  0.19486950155E+02  0.00000000000E+00 0. -1.
         -2   -1    0    0    0  501 -0.00000000000E+00 -0.00000000000E+00 -0.10405754846E+03  0.10405754846E+03  0.00000000000E+00 0.  1.
         23    2    1    2    0    0  0.00000000000E+00  0.00000000000E+00 -0.84570598304E+02  0.12354449862E+03  0.90061407054E+02 0.  0.
          2    1    3    3  502    0 -0.31882807134E+02  0.17994550539E+02 -0.63182920747E+01  0.37151555211E+02  0.00000000000E+00 0. -1.
         -2    1    3    3    0  502  0.31882807134E+02 -0.17994550539E+02 -0.78252306229E+02  0.86392943404E+02  0.00000000000E+00 0.  1.
<mgrwt>
<rscale>  0 0.90061407E+02</rscale>
<asrwt>0</asrwt>
<pdfrwt beam="1">  1        2 0.29979924E-02 0.90061407E+02</pdfrwt>
<pdfrwt beam="2">  1       -2 0.16008853E-01 0.90061407E+02</pdfrwt>
<totfact> 0.81313231E+04</totfact>
</mgrwt>
</event>
<event>
 5    1  0.3963873E+001  0.9205849E+02  0.7546771E-02  0.1297942E+00
         -3   -1    0    0    0  501 -0.00000000000E+00  0.00000000000E+00  0.47399340257E+03  0.47399340257E+03  0.00000000000E+00 0.  1.
          3   -1    0    0  501    0  0.00000000000E+00 -0.00000000000E+00 -0.44698755034E+01  0.44698755034E+01  0.00000000000E+00 0. -1.
         23    2    1    2    0    0  0.00000000000E+00  0.00000000000E+00  0.46952352706E+03  0.47846327807E+03  0.92058492251E+02 0.  0.
          2    1    3    3  502    0 -0.43710899383E+02 -0.44898606369E+01  0.16351969828E+03  0.16932068184E+03  0.00000000000E+00 0. -1.
         -2    1    3    3    0  502  0.43710899383E+02  0.44898606369E+01  0.30600382878E+03  0.30914259623E+03  0.00000000000E+00 0.  1.
<mgrwt>
<rscale>  0 0.92058492E+02</rscale>
<asrwt>0</asrwt>
<pdfrwt beam="2">  1        3 0.68767353E-03 0.92058492E+02</pdfrwt>
<pdfrwt beam="1">  1       -3 0.72922022E-01 0.92058492E+02</pdfrwt>
<totfact> 0.17957492E+04</totfact>
</mgrwt>
</event>
<event>
 5    1  0.3963873E+001  0.9131037E+02  0.7546771E-02  0.1299709E+00
         -1   -1    0    0    0  501 -0.00000000000E+00  0.00000000000E+00  0.29744180599E+01  0.29744180599E+01  0.00000000000E+00 0.  1.
          1   -1    0    0  501    0  0.00000000000E+00 -0.00000000000E+00 -0.70077430033E+03  0.70077430033E+03  0.00000000000E+00 0. -1.
         23    2    1    2    0    0  0.00000000000E+00  0.00000000000E+00 -0.69779988227E+03  0.70374871839E+03  0.91310366002E+02 0.  0.
          2    1    3    3  502    0 -0.30876207293E+02 -0.19496013194E+02 -0.56010593206E+03  0.56129501141E+03  0.00000000000E+00 0. -1.
         -2    1    3    3    0  502  0.30876207293E+02  0.19496013194E+02 -0.13769395021E+03  0.14245370697E+03  0.00000000000E+00 0.  1.
<mgrwt>
<rscale>  0 0.91310366E+02</rscale>
<asrwt>0</asrwt>
<pdfrwt beam="2">  1        1 0.10781151E+00 0.91310366E+02</pdfrwt>
<pdfrwt beam="1">  1       -1 0.45760245E-03 0.91310366E+02</pdfrwt>
<totfact> 0.14162437E+05</totfact>
</mgrwt>
</event>
<event>
 5    1  0.3963873E+001  0.9167571E+02  0.7546771E-02  0.1298844E+00
          2   -1    0    0  501    0  0.00000000000E+00  0.00000000000E+00  0.53990094404E+03  0.53990094404E+03  0.00000000000E+00 0.  1.
         -2   -1    0    0    0  501 -0.00000000000E+00 -0.00000000000E+00 -0.38916559738E+01  0.38916559738E+01  0.00000000000E+00 0. -1.
         23    2    1    2    0    0  0.00000000000E+00  0.00000000000E+00  0.53600928806E+03  0.54379260001E+03  0.91675705268E+02 0.  0.
          2    1    3    3  502    0 -0.14316545991E+02  0.40835496260E+02  0.35769056280E+03  0.36029854282E+03  0.00000000000E+00 0. -1.
         -2    1    3    3    0  502  0.14316545991E+02 -0.40835496260E+02  0.17831872526E+03  0.18349405719E+03  0.00000000000E+00 0.  1.
<mgrwt>
<rscale>  0 0.91675705E+02</rscale>
<asrwt>0</asrwt>
<pdfrwt beam="1">  1        2 0.83061625E-01 0.91675705E+02</pdfrwt>
<pdfrwt beam="2">  1       -2 0.59871673E-03 0.91675705E+02</pdfrwt>
<totfact> 0.21764578E+05</totfact>
</mgrwt>
</event>
<event>
 5    1  0.3963873E+001  0.7816451E+02  0.7546771E-02  0.1334342E+00
          2   -1    0    0  501    0  0.00000000000E+00  0.00000000000E+00  0.42038399960E+01  0.42038399960E+01  0.00000000000E+00 0.  1.
         -2   -1    0    0    0  501 -0.00000000000E+00 -0.00000000000E+00 -0.36333983047E+03  0.36333983047E+03  0.00000000000E+00 0. -1.
         23    2    1    2    0    0  0.00000000000E+00  0.00000000000E+00 -0.35913599047E+03  0.36754367047E+03  0.78164506305E+02 0.  0.
          2    1    3    3  502    0 -0.25002646437E+02  0.29327599841E+02 -0.21010759239E+03  0.21361282925E+03  0.00000000000E+00 0. -1.
         -2    1    3    3    0  502  0.25002646437E+02 -0.29327599841E+02 -0.14902839808E+03  0.15393084121E+03  0.00000000000E+00 0.  1.
<mgrwt>
<rscale>  0 0.78164506E+02</rscale>
<asrwt>0</asrwt>
<pdfrwt beam="1">  1        2 0.64674449E-03 0.78164506E+02</pdfrwt>
<pdfrwt beam="2">  1       -2 0.55898446E-01 0.78164506E+02</pdfrwt>
<totfact> 0.67546097E+04</totfact>
</mgrwt>
</event>
<event>
 5    1  0.3963873E+001  0.9203871E+02  0.7546771E-02  0.1297988E+00
         -1   -1    0    0    0  501 -0.00000000000E+00  0.00000000000E+00  0.72033098753E+01  0.72033098753E+01  0.00000000000E+00 0. -1.
          1   -1    0    0  501    0  0.00000000000E+00 -0.00000000000E+00 -0.29400107056E+03  0.29400107056E+03  0.00000000000E+00 0.  1.
         23    2    1    2    0    0  0.00000000000E+00  0.00000000000E+00 -0.28679776068E+03  0.30120438043E+03  0.92038705226E+02 0.  0.
          2    1    3    3  502    0  0.91938429392E+01 -0.44871566186E+02 -0.15795971434E+03  0.16446657883E+03  0.00000000000E+00 0. -1.
         -2    1    3    3    0  502 -0.91938429392E+01  0.44871566186E+02 -0.12883804635E+03  0.13673780160E+03  0.00000000000E+00 0.  1.
<mgrwt>
<rscale>  0 0.92038705E+02</rscale>
<asrwt>0</asrwt>
<pdfrwt beam="2">  1        1 0.45230923E-01 0.92038705E+02</pdfrwt>
<pdfrwt beam="1">  1       -1 0.11082018E-02 0.92038705E+02</pdfrwt>
<totfact> 0.12446405E+05</totfact>
</mgrwt>
</event>
<event>
 5    1  0.3963873E+001  0.9187511E+02  0.7546771E-02  0.1298373E+00
         -1   -1    0    0    0  501 -0.00000000000E+00  0.00000000000E+00  0.59777226201E+02  0.59777226201E+02  0.00000000000E+00 0.  1.
          1   -1    0    0  501    0  0.00000000000E+00 -0.00000000000E+00 -0.35302054482E+02  0.35302054482E+02  0.00000000000E+00 0. -1.
         23    2    1    2    0    0  0.00000000000E+00  0.00000000000E+00  0.24475171719E+02  0.95079280683E+02  0.91875108623E+02 0.  0.
          2    1    3    3  502    0  0.29883963800E+02  0.33802828230E+02  0.33006477393E+01  0.45239106581E+02  0.00000000000E+00 0. -1.
         -2    1    3    3    0  502 -0.29883963800E+02 -0.33802828230E+02  0.21174523979E+02  0.49840174102E+02  0.00000000000E+00 0.  1.
<mgrwt>
<rscale>  0 0.91875109E+02</rscale>
<asrwt>0</asrwt>
<pdfrwt beam="2">  1        1 0.54310853E-02 0.91875109E+02</pdfrwt>
<pdfrwt beam="1">  1       -1 0.91964963E-02 0.91875109E+02</pdfrwt>
<totfact> 0.87030468E+04</totfact>
</mgrwt>
</event>
<event>
 5    1  0.3963873E+001  0.9344258E+02  0.7546771E-02  0.1294723E+00
         -2   -1    0    0    0  501 -0.00000000000E+00  0.00000000000E+00  0.18206003688E+02  0.18206003688E+02  0.00000000000E+00 0.  1.
          2   -1    0    0  501    0  0.00000000000E+00 -0.00000000000E+00 -0.11989886300E+03  0.11989886300E+03  0.00000000000E+00 0. -1.
         23    2    1    2    0    0  0.00000000000E+00  0.00000000000E+00 -0.10169285931E+03  0.13810486669E+03  0.93442584339E+02 0.  0.
          2    1    3    3  502    0 -0.25749849949E+02  0.34801887010E+02 -0.76812092540E+02  0.88172125256E+02  0.00000000000E+00 0. -1.
         -2    1    3    3    0  502  0.25749849949E+02 -0.34801887010E+02 -0.24880766775E+02  0.49932741434E+02  0.00000000000E+00 0.  1.
<mgrwt>
<rscale>  0 0.93442584E+02</rscale>
<asrwt>0</asrwt>
<pdfrwt beam="2">  1        2 0.18445979E-01 0.93442584E+02</pdfrwt>
<pdfrwt beam="1">  1       -2 0.28009236E-02 0.93442584E+02</pdfrwt>
<totfact> 0.12138136E+05</totfact>
</mgrwt>
</event>
<event>
 5    1  0.3963873E+001  0.9231828E+02  0.7546771E-02  0.1297333E+00
          1   -1    0    0  501    0  0.00000000000E+00  0.00000000000E+00  0.19359361949E+03  0.19359361949E+03  0.00000000000E+00 0. -1.
         -1   -1    0    0    0  501 -0.00000000000E+00 -0.00000000000E+00 -0.11005869449E+02  0.11005869449E+02  0.00000000000E+00 0.  1.
         23    2    1    2    0    0  0.00000000000E+00  0.00000000000E+00  0.18258775004E+03  0.20459948894E+03  0.92318277762E+02 0.  0.
          2    1    3    3  502    0  0.38078217335E+02  0.17356610805E+02  0.48121904603E+02  0.63772409996E+02  0.00000000000E+00 0. -1.
         -2    1    3    3    0  502 -0.38078217335E+02 -0.17356610805E+02  0.13446584544E+03  0.14082707894E+03  0.00000000000E+00 0.  1.
<mgrwt>
<rscale>  0 0.92318278E+02</rscale>
<asrwt>0</asrwt>
<pdfrwt beam="1">  1        1 0.29783631E-01 0.92318278E+02</pdfrwt>
<pdfrwt beam="2">  1       -1 0.16932108E-02 0.92318278E+02</pdfrwt>
<totfact> 0.11379312E+05</totfact>
</mgrwt>
</event>
<event>
 5    1  0.3963873E+001  0.9272913E+02  0.7546771E-02  0.1296374E+00
          2   -1    0    0  501    0  0.00000000000E+00  0.00000000000E+00  0.73912525614E+03  0.73912525614E+03  0.00000000000E+00 0. -1.
         -2   -1    0    0    0  501 -0.00000000000E+00 -0.00000000000E+00 -0.29084015159E+01  0.29084015159E+01  0.00000000000E+00 0.  1.
         23    2    1    2    0    0  0.00000000000E+00  0.00000000000E+00  0.73621685462E+03  0.74203365765E+03  0.92729132755E+02 0.  0.
          2    1    3    3  502    0  0.31434408137E+02  0.37890558130E+00  0.64081757552E+03  0.64158820959E+03  0.00000000000E+00 0. -1.
         -2    1    3    3    0  502 -0.31434408137E+02 -0.37890558130E+00  0.95399279101E+02  0.10044544807E+03  0.00000000000E+00 0.  1.
<mgrwt>
<rscale>  0 0.92729133E+02</rscale>
<asrwt>0</asrwt>
<pdfrwt beam="1">  1        2 0.11371143E+00 0.92729133E+02</pdfrwt>
<pdfrwt beam="2">  1       -2 0.44744698E-03 0.92729133E+02</pdfrwt>
<totfact> 0.22956707E+05</totfact>
</mgrwt>
</event>
<event>
 5    1  0.3963873E+001  0.9040861E+02  0.7546771E-02  0.1301865E+00
          1   -1    0    0  501    0  0.00000000000E+00  0.00000000000E+00  0.34678046378E+03  0.34678046378E+03  0.00000000000E+00 0. -1.
         -1   -1    0    0    0  501 -0.00000000000E+00 -0.00000000000E+00 -0.58925734674E+01  0.58925734674E+01  0.00000000000E+00 0.  1.
         23    2    1    2    0    0  0.00000000000E+00  0.00000000000E+00  0.34088789031E+03  0.35267303724E+03  0.90408613746E+02 0.  0.
          2    1    3    3  502    0  0.19745629566E+02  0.34281685549E+02  0.25575693047E+03  0.25879863086E+03  0.00000000000E+00 0. -1.
         -2    1    3    3    0  502 -0.19745629566E+02 -0.34281685549E+02  0.85130959839E+02  0.93874406385E+02  0.00000000000E+00 0.  1.
<mgrwt>
<rscale>  0 0.90408614E+02</rscale>
<asrwt>0</asrwt>
<pdfrwt beam="1">  1        1 0.53350824E-01 0.90408614E+02</pdfrwt>
<pdfrwt beam="2">  1       -1 0.90655004E-03 0.90408614E+02</pdfrwt>
<totfact> 0.13460739E+05</totfact>
</mgrwt>
</event>
<event>
 5    1  0.3963873E+001  0.9250082E+02  0.7546771E-02  0.1296906E+00
         -1   -1    0    0    0  501 -0.00000000000E+00  0.00000000000E+00  0.32674981606E+01  0.32674981606E+01  0.00000000000E+00 0.  1.
          1   -1    0    0  501    0  0.00000000000E+00 -0.00000000000E+00 -0.65466004330E+03  0.65466004330E+03  0.00000000000E+00 0. -1.
         23    2    1    2    0    0  0.00000000000E+00  0.00000000000E+00 -0.65139254514E+03  0.65792754146E+03  0.92500821343E+02 0.  0.
          2    1    3    3  502    0 -0.35104128016E+02  0.27910285675E+02 -0.40610925522E+03  0.40857803542E+03  0.00000000000E+00 0. -1.
         -2    1    3    3    0  502  0.35104128016E+02 -0.27910285675E+02 -0.24528328992E+03  0.24934950604E+03  0.00000000000E+00 0.  1.
<mgrwt>
<rscale>  0 0.92500821E+02</rscale>
<asrwt>0</asrwt>
<pdfrwt beam="2">  1        1 0.10071689E+00 0.92500821E+02</pdfrwt>
<pdfrwt beam="1">  1       -1 0.50269221E-03 0.92500821E+02</pdfrwt>
<totfact> 0.13678431E+05</totfact>
</mgrwt>
</event>
<event>
 5    1  0.3963873E+001  0.9113797E+02  0.7546771E-02  0.1300119E+00
         -2   -1    0    0    0  501 -0.00000000000E+00  0.00000000000E+00  0.98455869336E+01  0.98455869336E+01  0.00000000000E+00 0.  1.
          2   -1    0    0  501    0  0.00000000000E+00 -0.00000000000E+00 -0.21090998632E+03  0.21090998632E+03  0.00000000000E+00 0. -1.
         23    2    1    2    0    0  0.00000000000E+00  0.00000000000E+00 -0.20106439938E+03  0.22075557325E+03  0.91137974642E+02 0.  0.
          2    1    3    3  502    0 -0.42998830218E+02  0.98283934921E+01 -0.72804909381E+02  0.85123742568E+02  0.00000000000E+00 0. -1.
         -2    1    3    3    0  502  0.42998830218E+02 -0.98283934921E+01 -0.12825949000E+03  0.13563183068E+03  0.00000000000E+00 0.  1.
<mgrwt>
<rscale>  0 0.91137975E+02</rscale>
<asrwt>0</asrwt>
<pdfrwt beam="2">  1        2 0.32447691E-01 0.91137975E+02</pdfrwt>
<pdfrwt beam="1">  1       -2 0.15147056E-02 0.91137975E+02</pdfrwt>
<totfact> 0.15787189E+05</totfact>
</mgrwt>
</event>
<event>
 5    1  0.3963873E+001  0.9012332E+02  0.7546771E-02  0.1302553E+00
          3   -1    0    0  501    0  0.00000000000E+00  0.00000000000E+00  0.17090449224E+02  0.17090449224E+02  0.00000000000E+00 0. -1.
         -3   -1    0    0    0  501 -0.00000000000E+00 -0.00000000000E+00 -0.11881215319E+03  0.11881215319E+03  0.00000000000E+00 0.  1.
         23    2    1    2    0    0  0.00000000000E+00  0.00000000000E+00 -0.10172170396E+03  0.13590260241E+03  0.90123317098E+02 0.  0.
          2    1    3    3  502    0 -0.48370595437E+01 -0.39409850456E+02 -0.18729580448E+02  0.43901374030E+02  0.00000000000E+00 0. -1.
         -2    1    3    3    0  502  0.48370595437E+01  0.39409850456E+02 -0.82992123513E+02  0.92001228379E+02  0.00000000000E+00 0.  1.
<mgrwt>
<rscale>  0 0.90123317E+02</rscale>
<asrwt>0</asrwt>
<pdfrwt beam="1">  1        3 0.26292998E-02 0.90123317E+02</pdfrwt>
<pdfrwt beam="2">  1       -3 0.18278793E-01 0.90123317E+02</pdfrwt>
<totfact> 0.33221972E+04</totfact>
</mgrwt>
</event>
<event>
 5    1  0.3963873E+001  0.9032290E+02  0.7546771E-02  0.1302072E+00
          1   -1    0    0  501    0  0.00000000000E+00  0.00000000000E+00  0.49133329121E+03  0.49133329121E+03  0.00000000000E+00 0. -1.
         -1   -1    0    0    0  501 -0.00000000000E+00 -0.00000000000E+00 -0.41510652832E+01  0.41510652832E+01  0.00000000000E+00 0.  1.
         23    2    1    2    0    0  0.00000000000E+00  0.00000000000E+00  0.48718222592E+03  0.49548435649E+03  0.90322900034E+02 0.  0.
          2    1    3    3  502    0 -0.38657939948E+02  0.22627953249E+02  0.27514985518E+03  0.27877213526E+03  0.00000000000E+00 0. -1.
         -2    1    3    3    0  502  0.38657939948E+02 -0.22627953249E+02  0.21203237074E+03  0.21671222124E+03  0.00000000000E+00 0.  1.
<mgrwt>
<rscale>  0 0.90322900E+02</rscale>
<asrwt>0</asrwt>
<pdfrwt beam="1">  1        1 0.75589691E-01 0.90322900E+02</pdfrwt>
<pdfrwt beam="2">  1       -1 0.63862582E-03 0.90322900E+02</pdfrwt>
<totfact> 0.14247922E+05</totfact>
</mgrwt>
</event>
<event>
 5    1  0.3963873E+001  0.9245177E+02  0.7546771E-02  0.1297021E+00
         -2   -1    0    0    0  501 -0.00000000000E+00  0.00000000000E+00  0.28940542009E+02  0.28940542009E+02  0.00000000000E+00 0.  1.
          2   -1    0    0  501    0  0.00000000000E+00 -0.00000000000E+00 -0.73835261828E+02  0.73835261828E+02  0.00000000000E+00 0. -1.
         23    2    1    2    0    0  0.00000000000E+00  0.00000000000E+00 -0.44894719818E+02  0.10277580384E+03  0.92451771139E+02 0.  0.
          2    1    3    3  502    0  0.38161482135E+02  0.12535047012E+02 -0.47880216967E+02  0.62497530344E+02  0.00000000000E+00 0. -1.
         -2    1    3    3    0  502 -0.38161482135E+02 -0.12535047012E+02  0.29854971486E+01  0.40278273493E+02  0.00000000000E+00 0.  1.
<mgrwt>
<rscale>  0 0.92451771E+02</rscale>
<asrwt>0</asrwt>
<pdfrwt beam="2">  1        2 0.11359271E-01 0.92451771E+02</pdfrwt>
<pdfrwt beam="1">  1       -2 0.44523912E-02 0.92451771E+02</pdfrwt>
<totfact> 0.10800086E+05</totfact>
</mgrwt>
</event>
<event>
 5    1  0.3963873E+001  0.9023630E+02  0.7546771E-02  0.1302280E+00
         -2   -1    0    0    0  501 -0.00000000000E+00  0.00000000000E+00  0.14184932258E+01  0.14184932258E+01  0.00000000000E+00 0. -1.
          2   -1    0    0  501    0  0.00000000000E+00 -0.00000000000E+00 -0.14350774183E+04  0.14350774183E+04  0.00000000000E+00 0.  1.
         23    2    1    2    0    0  0.00000000000E+00  0.00000000000E+00 -0.14336589251E+04  0.14364959115E+04  0.90236303036E+02 0.  0.
          2    1    3    3  502    0 -0.13704716047E+02 -0.42009786719E+02 -0.86186629256E+03  0.86299834743E+03  0.00000000000E+00 0. -1.
         -2    1    3    3    0  502  0.13704716047E+02  0.42009786719E+02 -0.57179263251E+03  0.57349756409E+03  0.00000000000E+00 0.  1.
<mgrwt>
<rscale>  0 0.90236303E+02</rscale>
<asrwt>0</asrwt>
<pdfrwt beam="2">  1        2 0.22078243E+00 0.90236303E+02</pdfrwt>
<pdfrwt beam="1">  1       -2 0.21822845E-03 0.90236303E+02</pdfrwt>
<totfact> 0.24624808E+05</totfact>
</mgrwt>
</event>
<event>
 5    1  0.3963873E+001  0.9085278E+02  0.7546771E-02  0.1300800E+00
         -3   -1    0    0    0  501 -0.00000000000E+00  0.00000000000E+00  0.17784178525E+01  0.17784178525E+01  0.00000000000E+00 0.  1.
          3   -1    0    0  501    0  0.00000000000E+00 -0.00000000000E+00 -0.11603328725E+04  0.11603328725E+04  0.00000000000E+00 0. -1.
         23    2    1    2    0    0  0.00000000000E+00  0.00000000000E+00 -0.11585544547E+04  0.11621112904E+04  0.90852775311E+02 0.  0.
          2    1    3    3  502    0 -0.10716458718E+02 -0.37736342161E+02 -0.87227066255E+03  0.87315232506E+03  0.00000000000E+00 0. -1.
         -2    1    3    3    0  502  0.10716458718E+02  0.37736342161E+02 -0.28628379213E+03  0.28895896533E+03  0.00000000000E+00 0.  1.
<mgrwt>
<rscale>  0 0.90852775E+02</rscale>
<asrwt>0</asrwt>
<pdfrwt beam="2">  1        3 0.17851214E+00 0.90852775E+02</pdfrwt>
<pdfrwt beam="1">  1       -3 0.27360369E-03 0.90852775E+02</pdfrwt>
<totfact> 0.85878835E+03</totfact>
</mgrwt>
</event>
<event>
 5    1  0.3963873E+001  0.7996055E+02  0.7546771E-02  0.1329163E+00
          2   -1    0    0  501    0  0.00000000000E+00  0.00000000000E+00  0.10977775075E+04  0.10977775075E+04  0.00000000000E+00 0. -1.
         -2   -1    0    0    0  501 -0.00000000000E+00 -0.00000000000E+00 -0.14560532103E+01  0.14560532103E+01  0.00000000000E+00 0.  1.
         23    2    1    2    0    0  0.00000000000E+00  0.00000000000E+00  0.10963214542E+04  0.10992335607E+04  0.79960551871E+02 0.  0.
          2    1    3    3  502    0 -0.12117457373E+02  0.34603066407E+02  0.76734879389E+03  0.76822417071E+03  0.00000000000E+00 0. -1.
         -2    1    3    3    0  502  0.12117457373E+02 -0.34603066407E+02  0.32897266035E+03  0.33100938995E+03  0.00000000000E+00 0.  1.
<mgrwt>
<rscale>  0 0.79960552E+02</rscale>
<asrwt>0</asrwt>
<pdfrwt beam="1">  1        2 0.16888819E+00 0.79960552E+02</pdfrwt>
<pdfrwt beam="2">  1       -2 0.22400906E-03 0.79960552E+02</pdfrwt>
<totfact> 0.35269768E+05</totfact>
</mgrwt>
</event>
<event>
 5    1  0.3963873E+001  0.9056468E+02  0.7546771E-02  0.1301490E+00
          1   -1    0    0  501    0  0.00000000000E+00  0.00000000000E+00  0.37804848198E+02  0.37804848198E+02  0.00000000000E+00 0. -1.
         -1   -1    0    0    0  501 -0.00000000000E+00 -0.00000000000E+00 -0.54238820533E+02  0.54238820533E+02  0.00000000000E+00 0.  1.
         23    2    1    2    0    0  0.00000000000E+00  0.00000000000E+00 -0.16433972336E+02  0.92043668731E+02  0.90564681343E+02 0.  0.
          2    1    3    3  502    0  0.30715573929E+02  0.25141762100E+02  0.13931929128E+02  0.42067247741E+02  0.00000000000E+00 0. -1.
         -2    1    3    3    0  502 -0.30715573929E+02 -0.25141762100E+02 -0.30365901464E+02  0.49976420990E+02  0.00000000000E+00 0.  1.
<mgrwt>
<rscale>  0 0.90564681E+02</rscale>
<asrwt>0</asrwt>
<pdfrwt beam="1">  1        1 0.58161305E-02 0.90564681E+02</pdfrwt>
<pdfrwt beam="2">  1       -1 0.83444339E-02 0.90564681E+02</pdfrwt>
<totfact> 0.91616280E+04</totfact>
</mgrwt>
</event>
<event>
 5    1  0.3963873E+001  0.8863944E+02  0.7546771E-02  0.1306180E+00
          2   -1    0    0  501    0  0.00000000000E+00  0.00000000000E+00  0.12062926814E+03  0.12062926814E+03  0.00000000000E+00 0.  1.
         -2   -1    0    0    0  501 -0.00000000000E+00 -0.00000000000E+00 -0.16283257169E+02  0.16283257169E+02  0.00000000000E+00 0. -1.
         23    2    1    2    0    0  0.00000000000E+00  0.00000000000E+00  0.10434601097E+03  0.13691252531E+03  0.88639435811E+02 0.  0.
          2    1    3    3  502    0 -0.42177079249E+02 -0.13066215639E+02  0.58076005425E+02  0.72955153425E+02  0.00000000000E+00 0. -1.
         -2    1    3    3    0  502  0.42177079249E+02  0.13066215639E+02  0.46270005545E+02  0.63957371883E+02  0.00000000000E+00 0.  1.
<mgrwt>
<rscale>  0 0.88639436E+02</rscale>
<asrwt>0</asrwt>
<pdfrwt beam="1">  1        2 0.18558348E-01 0.88639436E+02</pdfrwt>
<pdfrwt beam="2">  1       -2 0.25051166E-02 0.88639436E+02</pdfrwt>
<totfact> 0.14048570E+05</totfact>
</mgrwt>
</event>
<event>
 5    1  0.3963873E+001  0.9204164E+02  0.7546771E-02  0.1297982E+00
          2   -1    0    0  501    0  0.00000000000E+00  0.00000000000E+00  0.31837493996E+03  0.31837493996E+03  0.00000000000E+00 0. -1.
         -2   -1    0    0    0  501 -0.00000000000E+00 -0.00000000000E+00 -0.66522701183E+01  0.66522701183E+01  0.00000000000E+00 0.  1.
         23    2    1    2    0    0  0.00000000000E+00  0.00000000000E+00  0.31172266985E+03  0.32502721008E+03  0.92041644913E+02 0.  0.
          2    1    3    3  502    0 -0.37235571098E+02 -0.22745284046E+02  0.20752959066E+03  0.21206689204E+03  0.00000000000E+00 0. -1.
         -2    1    3    3    0  502  0.37235571098E+02  0.22745284046E+02  0.10419307918E+03  0.11296031804E+03  0.00000000000E+00 0.  1.
<mgrwt>
<rscale>  0 0.92041645E+02</rscale>
<asrwt>0</asrwt>
<pdfrwt beam="1">  1        2 0.48980748E-01 0.92041645E+02</pdfrwt>
<pdfrwt beam="2">  1       -2 0.10234264E-02 0.92041645E+02</pdfrwt>
<totfact> 0.17910438E+05</totfact>
</mgrwt>
</event>
<event>
 5    1  0.3963873E+001  0.9233610E+02  0.7546771E-02  0.1297291E+00
         -1   -1    0    0    0  501 -0.00000000000E+00  0.00000000000E+00  0.14920022208E+02  0.14920022208E+02  0.00000000000E+00 0.  1.
          1   -1    0    0  501    0  0.00000000000E+00 -0.00000000000E+00 -0.14286096271E+03  0.14286096271E+03  0.00000000000E+00 0. -1.
         23    2    1    2    0    0  0.00000000000E+00  0.00000000000E+00 -0.12794094050E+03  0.15778098492E+03  0.92336097739E+02 0.  0.
          2    1    3    3  502    0 -0.56279187357E+00 -0.40062475558E+02 -0.10316687284E+03  0.11067394605E+03  0.00000000000E+00 0. -1.
         -2    1    3    3    0  502  0.56279187357E+00  0.40062475558E+02 -0.24774067661E+02  0.47107038869E+02  0.00000000000E+00 0.  1.
<mgrwt>
<rscale>  0 0.92336098E+02</rscale>
<asrwt>0</asrwt>
<pdfrwt beam="2">  1        1 0.21978609E-01 0.92336098E+02</pdfrwt>
<pdfrwt beam="1">  1       -1 0.22953880E-02 0.92336098E+02</pdfrwt>
<totfact> 0.10740310E+05</totfact>
</mgrwt>
</event>
<event>
 5    1  0.3963873E+001  0.9160513E+02  0.7546771E-02  0.1299011E+00
         -1   -1    0    0    0  501 -0.00000000000E+00  0.00000000000E+00  0.18038182352E+01  0.18038182352E+01  0.00000000000E+00 0.  1.
          1   -1    0    0  501    0  0.00000000000E+00 -0.00000000000E+00 -0.11630190508E+04  0.11630190508E+04  0.00000000000E+00 0. -1.
         23    2    1    2    0    0  0.00000000000E+00  0.00000000000E+00 -0.11612152325E+04  0.11648228690E+04  0.91605130241E+02 0.  0.
          2    1    3    3  502    0 -0.33583572163E+02 -0.30903226268E+01 -0.97468514254E+03  0.97526844177E+03  0.00000000000E+00 0. -1.
         -2    1    3    3    0  502  0.33583572163E+02  0.30903226268E+01 -0.18653009000E+03  0.18955442725E+03  0.00000000000E+00 0.  1.
<mgrwt>
<rscale>  0 0.91605130E+02</rscale>
<asrwt>0</asrwt>
<pdfrwt beam="2">  1        1 0.17892607E+00 0.91605130E+02</pdfrwt>
<pdfrwt beam="1">  1       -1 0.27751039E-03 0.91605130E+02</pdfrwt>
<totfact> 0.12751940E+05</totfact>
</mgrwt>
</event>
<event>
 5    1  0.3963873E+001  0.9076036E+02  0.7546771E-02  0.1301021E+00
          1   -1    0    0  501    0  0.00000000000E+00  0.00000000000E+00  0.56564339426E+01  0.56564339426E+01  0.00000000000E+00 0.  1.
         -1   -1    0    0    0  501 -0.00000000000E+00 -0.00000000000E+00 -0.36407402226E+03  0.36407402226E+03  0.00000000000E+00 0. -1.
         23    2    1    2    0    0  0.00000000000E+00  0.00000000000E+00 -0.35841758831E+03  0.36973045620E+03  0.90760358243E+02 0.  0.
          2    1    3    3  502    0  0.10316097687E+02 -0.35192078892E+02 -0.28809600695E+03  0.29042075254E+03  0.00000000000E+00 0. -1.
         -2    1    3    3    0  502 -0.10316097687E+02  0.35192078892E+02 -0.70321581367E+02  0.79309703657E+02  0.00000000000E+00 0.  1.
<mgrwt>
<rscale>  0 0.90760358E+02</rscale>
<asrwt>0</asrwt>
<pdfrwt beam="1">  1        1 0.87022030E-03 0.90760358E+02</pdfrwt>
<pdfrwt beam="2">  1       -1 0.56011408E-01 0.90760358E+02</pdfrwt>
<totfact> 0.56448248E+04</totfact>
</mgrwt>
</event>
<event>
 5    1  0.3963873E+001  0.9176796E+02  0.7546771E-02  0.1298626E+00
          1   -1    0    0  501    0  0.00000000000E+00  0.00000000000E+00  0.79944556902E+02  0.79944556902E+02  0.00000000000E+00 0. -1.
         -1   -1    0    0    0  501 -0.00000000000E+00 -0.00000000000E+00 -0.26334996041E+02  0.26334996041E+02  0.00000000000E+00 0.  1.
         23    2    1    2    0    0  0.00000000000E+00  0.00000000000E+00  0.53609560862E+02  0.10627955294E+03  0.91767959321E+02 0.  0.
          2    1    3    3  502    0  0.57585764134E+01 -0.27991482961E+02 -0.14769718298E+02  0.32168756570E+02  0.00000000000E+00 0.  1.
         -2    1    3    3    0  502 -0.57585764134E+01  0.27991482961E+02  0.68379279159E+02  0.74110796373E+02  0.00000000000E+00 0. -1.
<mgrwt>
<rscale>  0 0.91767959E+02</rscale>
<asrwt>0</asrwt>
<pdfrwt beam="1">  1        1 0.12299162E-01 0.91767959E+02</pdfrwt>
<pdfrwt beam="2">  1       -1 0.40515379E-02 0.91767959E+02</pdfrwt>
<totfact> 0.98959602E+04</totfact>
</mgrwt>
</event>
<event>
 5    1  0.3963873E+001  0.9068948E+02  0.7546771E-02  0.1301191E+00
          1   -1    0    0  501    0  0.00000000000E+00  0.00000000000E+00  0.76841674170E+03  0.76841674170E+03  0.00000000000E+00 0. -1.
         -1   -1    0    0    0  501 -0.00000000000E+00 -0.00000000000E+00 -0.26758209055E+01  0.26758209055E+01  0.00000000000E+00 0.  1.
         23    2    1    2    0    0  0.00000000000E+00  0.00000000000E+00  0.76574092079E+03  0.77109256260E+03  0.90689482997E+02 0.  0.
          2    1    3    3  502    0  0.38746020882E+02  0.16326081766E+02  0.52725142658E+03  0.52892519501E+03  0.00000000000E+00 0. -1.
         -2    1    3    3    0  502 -0.38746020882E+02 -0.16326081766E+02  0.23848949421E+03  0.24216736760E+03  0.00000000000E+00 0.  1.
<mgrwt>
<rscale>  0 0.90689483E+02</rscale>
<asrwt>0</asrwt>
<pdfrwt beam="1">  1        1 0.11821778E+00 0.90689483E+02</pdfrwt>
<pdfrwt beam="2">  1       -1 0.41166537E-03 0.90689483E+02</pdfrwt>
<totfact> 0.14374482E+05</totfact>
</mgrwt>
</event>
<event>
 5    1  0.3963873E+001  0.8995997E+02  0.7546771E-02  0.1302949E+00
         -3   -1    0    0    0  501 -0.00000000000E+00  0.00000000000E+00  0.77152433015E+01  0.77152433015E+01  0.00000000000E+00 0. -1.
          3   -1    0    0  501    0  0.00000000000E+00 -0.00000000000E+00 -0.26223401096E+03  0.26223401096E+03  0.00000000000E+00 0.  1.
         23    2    1    2    0    0  0.00000000000E+00  0.00000000000E+00 -0.25451876766E+03  0.26994925426E+03  0.89959973243E+02 0.  0.
          2    1    3    3  502    0  0.91266164594E+01  0.39946658956E+02 -0.18292901939E+03  0.18746214771E+03  0.00000000000E+00 0. -1.
         -2    1    3    3    0  502 -0.91266164594E+01 -0.39946658956E+02 -0.71589748269E+02  0.82487106550E+02  0.00000000000E+00 0.  1.
<mgrwt>
<rscale>  0 0.89959973E+02</rscale>
<asrwt>0</asrwt>
<pdfrwt beam="2">  1        3 0.40343695E-01 0.89959973E+02</pdfrwt>
<pdfrwt beam="1">  1       -3 0.11869605E-02 0.89959973E+02</pdfrwt>
<totfact> 0.26168717E+04</totfact>
</mgrwt>
</event>
<event>
 5    1  0.3963873E+001  0.8968377E+02  0.7546771E-02  0.1303619E+00
         -2   -1    0    0    0  501 -0.00000000000E+00  0.00000000000E+00  0.23367371873E+01  0.23367371873E+01  0.00000000000E+00 0.  1.
          2   -1    0    0  501    0  0.00000000000E+00 -0.00000000000E+00 -0.86051390859E+03  0.86051390859E+03  0.00000000000E+00 0. -1.
         23    2    1    2    0    0  0.00000000000E+00  0.00000000000E+00 -0.85817717141E+03  0.86285064578E+03  0.89683774461E+02 0.  0.
          2    1    3    3  502    0 -0.43326703397E+02 -0.11212545073E+02 -0.45607975511E+03  0.45827029951E+03  0.00000000000E+00 0. -1.
         -2    1    3    3    0  502  0.43326703397E+02  0.11212545073E+02 -0.40209741630E+03  0.40458034627E+03  0.00000000000E+00 0.  1.
<mgrwt>
<rscale>  0 0.89683774E+02</rscale>
<asrwt>0</asrwt>
<pdfrwt beam="2">  1        2 0.13238680E+00 0.89683774E+02</pdfrwt>
<pdfrwt beam="1">  1       -2 0.35949792E-03 0.89683774E+02</pdfrwt>
<totfact> 0.25750076E+05</totfact>
</mgrwt>
</event>
<event>
 5    1  0.3963873E+001  0.9069270E+02  0.7546771E-02  0.1301183E+00
          2   -1    0    0  501    0  0.00000000000E+00  0.00000000000E+00  0.86194750367E+02  0.86194750367E+02  0.00000000000E+00 0. -1.
         -2   -1    0    0    0  501 -0.00000000000E+00 -0.00000000000E+00 -0.23856341683E+02  0.23856341683E+02  0.00000000000E+00 0.  1.
         23    2    1    2    0    0  0.00000000000E+00  0.00000000000E+00  0.62338408684E+02  0.11005109205E+03  0.90692699068E+02 0.  0.
          2    1    3    3  502    0 -0.22805639466E+02  0.20212675648E+02  0.71917330764E+02  0.78107310237E+02  0.00000000000E+00 0. -1.
         -2    1    3    3    0  502  0.22805639466E+02 -0.20212675648E+02 -0.95789220798E+01  0.31943781813E+02  0.00000000000E+00 0.  1.
<mgrwt>
<rscale>  0 0.90692699E+02</rscale>
<asrwt>0</asrwt>
<pdfrwt beam="1">  1        2 0.13260731E-01 0.90692699E+02</pdfrwt>
<pdfrwt beam="2">  1       -2 0.36702064E-02 0.90692699E+02</pdfrwt>
<totfact> 0.11910070E+05</totfact>
</mgrwt>
</event>
<event>
 5    1  0.3963873E+001  0.9193042E+02  0.7546771E-02  0.1298243E+00
         -2   -1    0    0    0  501 -0.00000000000E+00  0.00000000000E+00  0.10477477861E+03  0.10477477861E+03  0.00000000000E+00 0. -1.
          2   -1    0    0  501    0  0.00000000000E+00 -0.00000000000E+00 -0.20165165398E+02  0.20165165398E+02  0.00000000000E+00 0.  1.
         23    2    1    2    0    0  0.00000000000E+00  0.00000000000E+00  0.84609613215E+02  0.12493994401E+03  0.91930424568E+02 0.  0.
          2    1    3    3  502    0 -0.50683715598E+01  0.40923683416E+02  0.69903128059E+02  0.81159617834E+02  0.00000000000E+00 0. -1.
         -2    1    3    3    0  502  0.50683715598E+01 -0.40923683416E+02  0.14706485156E+02  0.43780326178E+02  0.00000000000E+00 0.  1.
<mgrwt>
<rscale>  0 0.91930425E+02</rscale>
<asrwt>0</asrwt>
<pdfrwt beam="2">  1        2 0.31023332E-02 0.91930425E+02</pdfrwt>
<pdfrwt beam="1">  1       -2 0.16119196E-01 0.91930425E+02</pdfrwt>
<totfact> 0.77092309E+04</totfact>
</mgrwt>
</event>
<event>
 5    1  0.3963873E+001  0.9079292E+02  0.7546771E-02  0.1300943E+00
          2   -1    0    0  501    0  0.00000000000E+00  0.00000000000E+00  0.32577934432E+04  0.32577934432E+04  0.00000000000E+00 0. -1.
         -2   -1    0    0    0  501 -0.00000000000E+00 -0.00000000000E+00 -0.63258724553E+00  0.63258724553E+00  0.00000000000E+00 0.  1.
         23    2    1    2    0    0  0.00000000000E+00  0.00000000000E+00  0.32571608559E+04  0.32584260304E+04  0.90792920004E+02 0.  0.
          2    1    3    3  502    0  0.92703215131E+01  0.43473816531E+02  0.19593143676E+04  0.19598185382E+04  0.00000000000E+00 0. -1.
         -2    1    3    3    0  502 -0.92703215131E+01 -0.43473816531E+02  0.12978464883E+04  0.12986074922E+04  0.00000000000E+00 0.  1.
<mgrwt>
<rscale>  0 0.90792920E+02</rscale>
<asrwt>0</asrwt>
<pdfrwt beam="1">  1        2 0.50118556E+00 0.90792920E+02</pdfrwt>
<pdfrwt beam="2">  1       -2 0.97323724E-04 0.90792920E+02</pdfrwt>
<totfact> 0.81594001E+04</totfact>
</mgrwt>
</event>
<event>
 5    1  0.3963873E+001  0.8852597E+02  0.7546771E-02  0.1306461E+00
         -1   -1    0    0    0  501 -0.00000000000E+00  0.00000000000E+00  0.43196469103E+01  0.43196469103E+01  0.00000000000E+00 0.  1.
          1   -1    0    0  501    0  0.00000000000E+00 -0.00000000000E+00 -0.45355834976E+03  0.45355834976E+03  0.00000000000E+00 0. -1.
         23    2    1    2    0    0  0.00000000000E+00  0.00000000000E+00 -0.44923870285E+03  0.45787799667E+03  0.88525971877E+02 0.  0.
          2    1    3    3  502    0  0.21312872023E+02 -0.12070670949E+01 -0.42517419517E+03  0.42570975061E+03  0.00000000000E+00 0. -1.
         -2    1    3    3    0  502 -0.21312872023E+02  0.12070670949E+01 -0.24064507682E+02  0.32168246064E+02  0.00000000000E+00 0.  1.
<mgrwt>
<rscale>  0 0.88525972E+02</rscale>
<asrwt>0</asrwt>
<pdfrwt beam="2">  1        1 0.69778215E-01 0.88525972E+02</pdfrwt>
<pdfrwt beam="1">  1       -1 0.66456100E-03 0.88525972E+02</pdfrwt>
<totfact> 0.14868266E+05</totfact>
</mgrwt>
</event>
<event>
 5    1  0.3963873E+001  0.9319276E+02  0.7546771E-02  0.1295299E+00
          2   -1    0    0  501    0  0.00000000000E+00  0.00000000000E+00  0.20311872284E+03  0.20311872284E+03  0.00000000000E+00 0. -1.
         -2   -1    0    0    0  501 -0.00000000000E+00 -0.00000000000E+00 -0.10689426415E+02  0.10689426415E+02  0.00000000000E+00 0.  1.
         23    2    1    2    0    0  0.00000000000E+00  0.00000000000E+00  0.19242929643E+03  0.21380814926E+03  0.93192760264E+02 0.  0.
          2    1    3    3  502    0  0.22485419989E+01 -0.24307461838E+02  0.18727422871E+03  0.18885853272E+03  0.00000000000E+00 0. -1.
         -2    1    3    3    0  502 -0.22485419989E+01  0.24307461838E+02  0.51550677148E+01  0.24949616536E+02  0.00000000000E+00 0.  1.
<mgrwt>
<rscale>  0 0.93192760E+02</rscale>
<asrwt>0</asrwt>
<pdfrwt beam="1">  1        2 0.31249031E-01 0.93192760E+02</pdfrwt>
<pdfrwt beam="2">  1       -2 0.16445273E-02 0.93192760E+02</pdfrwt>
<totfact> 0.14663997E+05</totfact>
</mgrwt>
</event>
<event>
 5    1  0.3963873E+001  0.9083320E+02  0.7546771E-02  0.1300846E+00
         -1   -1    0    0    0  501 -0.00000000000E+00  0.00000000000E+00  0.81441296160E+00  0.81441296160E+00  0.00000000000E+00 0.  1.
          1   -1    0    0  501    0  0.00000000000E+00 -0.00000000000E+00 -0.25327048364E+04  0.25327048364E+04  0.00000000000E+00 0. -1.
         23    2    1    2    0    0  0.00000000000E+00  0.00000000000E+00 -0.25318904235E+04  0.25335192494E+04  0.90833202007E+02 0.  0.
          2    1    3    3  502    0  0.17362635383E+02 -0.36558566527E+02 -0.18407353915E+04  0.18411802659E+04  0.00000000000E+00 0. -1.
         -2    1    3    3    0  502 -0.17362635383E+02  0.36558566527E+02 -0.69115503198E+03  0.69233898353E+03  0.00000000000E+00 0.  1.
<mgrwt>
<rscale>  0 0.90833202E+02</rscale>
<asrwt>0</asrwt>
<pdfrwt beam="2">  1        1 0.38965128E+00 0.90833202E+02</pdfrwt>
<pdfrwt beam="1">  1       -1 0.12529289E-03 0.90833202E+02</pdfrwt>
<totfact> 0.51239655E+04</totfact>
</mgrwt>
</event>
<event>
 5    1  0.3963873E+001  0.9001823E+02  0.7546771E-02  0.1302808E+00
         -2   -1    0    0    0  501 -0.00000000000E+00  0.00000000000E+00  0.26136579314E+01  0.26136579314E+01  0.00000000000E+00 0.  1.
          2   -1    0    0  501    0  0.00000000000E+00 -0.00000000000E+00 -0.77509018994E+03  0.77509018994E+03  0.00000000000E+00 0. -1.
         23    2    1    2    0    0  0.00000000000E+00  0.00000000000E+00 -0.77247653201E+03  0.77770384787E+03  0.90018234208E+02 0.  0.
          2    1    3    3  502    0  0.30161864928E+02  0.11233258296E+02 -0.11441999970E+03  0.11886067692E+03  0.00000000000E+00 0.  1.
         -2    1    3    3    0  502 -0.30161864928E+02 -0.11233258296E+02 -0.65805653231E+03  0.65884317095E+03  0.00000000000E+00 0. -1.
<mgrwt>
<rscale>  0 0.90018234E+02</rscale>
<asrwt>0</asrwt>
<pdfrwt beam="2">  1        2 0.11924471E+00 0.90018234E+02</pdfrwt>
<pdfrwt beam="1">  1       -2 0.40210101E-03 0.90018234E+02</pdfrwt>
<totfact> 0.25063291E+05</totfact>
</mgrwt>
</event>
<event>
 5    1  0.3963873E+001  0.9304299E+02  0.7546771E-02  0.1295646E+00
         -2   -1    0    0    0  501 -0.00000000000E+00  0.00000000000E+00  0.73491870857E+01  0.73491870857E+01  0.00000000000E+00 0.  1.
          2   -1    0    0  501    0  0.00000000000E+00 -0.00000000000E+00 -0.29448830062E+03  0.29448830062E+03  0.00000000000E+00 0. -1.
         23    2    1    2    0    0  0.00000000000E+00  0.00000000000E+00 -0.28713911354E+03  0.30183748771E+03  0.93042992553E+02 0.  0.
          2    1    3    3  502    0 -0.43712014418E+02 -0.42183721253E+01 -0.19337569679E+03  0.19829950826E+03  0.00000000000E+00 0. -1.
         -2    1    3    3    0  502  0.43712014418E+02  0.42183721253E+01 -0.93763416749E+02  0.10353797945E+03  0.00000000000E+00 0.  1.
<mgrwt>
<rscale>  0 0.93042993E+02</rscale>
<asrwt>0</asrwt>
<pdfrwt beam="2">  1        2 0.45305895E-01 0.93042993E+02</pdfrwt>
<pdfrwt beam="1">  1       -2 0.11306441E-02 0.93042993E+02</pdfrwt>
<totfact> 0.16901465E+05</totfact>
</mgrwt>
</event>
<event>
 5    1  0.3963873E+001  0.9136093E+02  0.7546771E-02  0.1299589E+00
         -2   -1    0    0    0  501 -0.00000000000E+00  0.00000000000E+00  0.39405985445E+01  0.39405985445E+01  0.00000000000E+00 0.  1.
          2   -1    0    0  501    0  0.00000000000E+00 -0.00000000000E+00 -0.52954010302E+03  0.52954010302E+03  0.00000000000E+00 0. -1.
         23    2    1    2    0    0  0.00000000000E+00  0.00000000000E+00 -0.52559950447E+03  0.53348070156E+03  0.91360931677E+02 0.  0.
          2    1    3    3  502    0 -0.13074381203E+02 -0.29788132599E+02 -0.45006022970E+03  0.45123439878E+03  0.00000000000E+00 0. -1.
         -2    1    3    3    0  502  0.13074381203E+02  0.29788132599E+02 -0.75539274773E+02  0.82246302779E+02  0.00000000000E+00 0.  1.
<mgrwt>
<rscale>  0 0.91360932E+02</rscale>
<asrwt>0</asrwt>
<pdfrwt beam="2">  1        2 0.81467726E-01 0.91360932E+02</pdfrwt>
<pdfrwt beam="1">  1       -2 0.60624580E-03 0.91360932E+02</pdfrwt>
<totfact> 0.21831452E+05</totfact>
</mgrwt>
</event>
<event>
 5    1  0.3963873E+001  0.9103550E+02  0.7546771E-02  0.1300363E+00
          3   -1    0    0  501    0  0.00000000000E+00  0.00000000000E+00  0.98959691187E+01  0.98959691187E+01  0.00000000000E+00 0. -1.
         -3   -1    0    0    0  501 -0.00000000000E+00 -0.00000000000E+00 -0.20936461622E+03  0.20936461622E+03  0.00000000000E+00 0.  1.
         23    2    1    2    0    0  0.00000000000E+00  0.00000000000E+00 -0.19946864710E+03  0.21926058533E+03  0.91035504648E+02 0.  0.
          2    1    3    3  502    0  0.30368757205E+02 -0.25801087321E+02 -0.46751965801E+02  0.61430479629E+02  0.00000000000E+00 0. -1.
         -2    1    3    3    0  502 -0.30368757205E+02  0.25801087321E+02 -0.15271668130E+03  0.15783010571E+03  0.00000000000E+00 0.  1.
<mgrwt>
<rscale>  0 0.91035505E+02</rscale>
<asrwt>0</asrwt>
<pdfrwt beam="1">  1        3 0.15224569E-02 0.91035505E+02</pdfrwt>
<pdfrwt beam="2">  1       -3 0.32209939E-01 0.91035505E+02</pdfrwt>
<totfact> 0.27645666E+04</totfact>
</mgrwt>
</event>
<event>
 5    1  0.3963873E+001  0.9236581E+02  0.7546771E-02  0.1297222E+00
         -2   -1    0    0    0  501 -0.00000000000E+00  0.00000000000E+00  0.43643577206E+03  0.43643577206E+03  0.00000000000E+00 0.  1.
          2   -1    0    0  501    0  0.00000000000E+00 -0.00000000000E+00 -0.48869976547E+01  0.48869976547E+01  0.00000000000E+00 0. -1.
         23    2    1    2    0    0  0.00000000000E+00  0.00000000000E+00  0.43154877440E+03  0.44132276971E+03  0.92365807406E+02 0.  0.
          2    1    3    3  502    0  0.11309093162E+02  0.32747990846E+02  0.69866937874E+02  0.77985354398E+02  0.00000000000E+00 0. -1.
         -2    1    3    3    0  502 -0.11309093162E+02 -0.32747990846E+02  0.36168183653E+03  0.36333741531E+03  0.00000000000E+00 0.  1.
<mgrwt>
<rscale>  0 0.92365807E+02</rscale>
<asrwt>0</asrwt>
<pdfrwt beam="2">  1        2 0.75184614E-03 0.92365807E+02</pdfrwt>
<pdfrwt beam="1">  1       -2 0.67143934E-01 0.92365807E+02</pdfrwt>
<totfact> 0.38854934E+04</totfact>
</mgrwt>
</event>
<event>
 5    1  0.3963873E+001  0.9147254E+02  0.7546771E-02  0.1299324E+00
         -2   -1    0    0    0  501 -0.00000000000E+00  0.00000000000E+00  0.14922157639E+03  0.14922157639E+03  0.00000000000E+00 0.  1.
          2   -1    0    0  501    0  0.00000000000E+00 -0.00000000000E+00 -0.14018121563E+02  0.14018121563E+02  0.00000000000E+00 0. -1.
         23    2    1    2    0    0  0.00000000000E+00  0.00000000000E+00  0.13520345482E+03  0.16323969795E+03  0.91472535717E+02 0.  0.
          2    1    3    3  502    0  0.40646310941E+02  0.49626422187E+01  0.10395874922E+03  0.11173259127E+03  0.00000000000E+00 0.  1.
         -2    1    3    3    0  502 -0.40646310941E+02 -0.49626422187E+01  0.31244705600E+02  0.51507106684E+02  0.00000000000E+00 0. -1.
<mgrwt>
<rscale>  0 0.91472536E+02</rscale>
<asrwt>0</asrwt>
<pdfrwt beam="2">  1        2 0.21566342E-02 0.91472536E+02</pdfrwt>
<pdfrwt beam="1">  1       -2 0.22957165E-01 0.91472536E+02</pdfrwt>
<totfact> 0.69417000E+04</totfact>
</mgrwt>
</event>
<event>
 5    1  0.3963873E+001  0.8227942E+02  0.7546771E-02  0.1322704E+00
         -2   -1    0    0    0  501 -0.00000000000E+00  0.00000000000E+00  0.79488855276E+00  0.79488855276E+00  0.00000000000E+00 0. -1.
          2   -1    0    0  501    0  0.00000000000E+00 -0.00000000000E+00 -0.21291987873E+04  0.21291987873E+04  0.00000000000E+00 0.  1.
         23    2    1    2    0    0  0.00000000000E+00  0.00000000000E+00 -0.21284038987E+04  0.21299936758E+04  0.82279420089E+02 0.  0.
          2    1    3    3  502    0  0.27464041723E+02  0.30435662956E+02 -0.11534008612E+04  0.11541291738E+04  0.00000000000E+00 0. -1.
         -2    1    3    3    0  502 -0.27464041723E+02 -0.30435662956E+02 -0.97500303752E+03  0.97586450204E+03  0.00000000000E+00 0.  1.
<mgrwt>
<rscale>  0 0.82279420E+02</rscale>
<asrwt>0</asrwt>
<pdfrwt beam="2">  1        2 0.32756234E+00 0.82279420E+02</pdfrwt>
<pdfrwt beam="1">  1       -2 0.12229305E-03 0.82279420E+02</pdfrwt>
<totfact> 0.24206142E+05</totfact>
</mgrwt>
</event>
<event>
 5    1  0.3963873E+001  0.9177748E+02  0.7546771E-02  0.1298603E+00
         -2   -1    0    0    0  501 -0.00000000000E+00  0.00000000000E+00  0.29701883932E+02  0.29701883932E+02  0.00000000000E+00 0.  1.
          2   -1    0    0  501    0  0.00000000000E+00 -0.00000000000E+00 -0.70897060695E+02  0.70897060695E+02  0.00000000000E+00 0. -1.
         23    2    1    2    0    0  0.00000000000E+00  0.00000000000E+00 -0.41195176764E+02  0.10059894463E+03  0.91777475839E+02 0.  0.
          2    1    3    3  502    0  0.80559640882E+01 -0.23510836719E+02 -0.62881585975E+02  0.67614731053E+02  0.00000000000E+00 0. -1.
         -2    1    3    3    0  502 -0.80559640882E+01  0.23510836719E+02  0.21686409212E+02  0.32984213574E+02  0.00000000000E+00 0.  1.
<mgrwt>
<rscale>  0 0.91777476E+02</rscale>
<asrwt>0</asrwt>
<pdfrwt beam="2">  1        2 0.10907240E-01 0.91777476E+02</pdfrwt>
<pdfrwt beam="1">  1       -2 0.45695207E-02 0.91777476E+02</pdfrwt>
<totfact> 0.10898865E+05</totfact>
</mgrwt>
</event>
<event>
 5    1  0.3963873E+001  0.8001255E+02  0.7546771E-02  0.1329016E+00
          2   -1    0    0  501    0  0.00000000000E+00  0.00000000000E+00  0.12099933313E+03  0.12099933313E+03  0.00000000000E+00 0.  1.
         -2   -1    0    0    0  501 -0.00000000000E+00 -0.00000000000E+00 -0.13227361054E+02  0.13227361054E+02  0.00000000000E+00 0. -1.
         23    2    1    2    0    0  0.00000000000E+00  0.00000000000E+00  0.10777197208E+03  0.13422669419E+03  0.80012545681E+02 0.  0.
          2    1    3    3  502    0  0.32481559336E+02 -0.16983107924E+02  0.80780755552E+02  0.88707429899E+02  0.00000000000E+00 0.  1.
         -2    1    3    3    0  502 -0.32481559336E+02  0.16983107924E+02  0.26991216526E+02  0.45519264287E+02  0.00000000000E+00 0. -1.
<mgrwt>
<rscale>  0 0.80012546E+02</rscale>
<asrwt>0</asrwt>
<pdfrwt beam="1">  1        2 0.18615281E-01 0.80012546E+02</pdfrwt>
<pdfrwt beam="2">  1       -2 0.20349787E-02 0.80012546E+02</pdfrwt>
<totfact> 0.18545616E+05</totfact>
</mgrwt>
</event>
<event>
 5    1  0.3963873E+001  0.9064175E+02  0.7546771E-02  0.1301305E+00
          1   -1    0    0  501    0  0.00000000000E+00  0.00000000000E+00  0.37255937376E+01  0.37255937376E+01  0.00000000000E+00 0. -1.
         -1   -1    0    0    0  501 -0.00000000000E+00 -0.00000000000E+00 -0.55131659438E+03  0.55131659438E+03  0.00000000000E+00 0.  1.
         23    2    1    2    0    0  0.00000000000E+00  0.00000000000E+00 -0.54759100064E+03  0.55504218811E+03  0.90641748691E+02 0.  0.
          2    1    3    3  502    0  0.42424482489E+02 -0.15899056083E+02 -0.26664137562E+03  0.27046301021E+03  0.00000000000E+00 0. -1.
         -2    1    3    3    0  502 -0.42424482489E+02  0.15899056083E+02 -0.28094962501E+03  0.28457917790E+03  0.00000000000E+00 0.  1.
<mgrwt>
<rscale>  0 0.90641749E+02</rscale>
<asrwt>0</asrwt>
<pdfrwt beam="1">  1        1 0.57316852E-03 0.90641749E+02</pdfrwt>
<pdfrwt beam="2">  1       -1 0.84817900E-01 0.90641749E+02</pdfrwt>
<totfact> 0.44854063E+04</totfact>
</mgrwt>
</event>
<event>
 5    1  0.3963873E+001  0.9003689E+02  0.7546771E-02  0.1302762E+00
         -2   -1    0    0    0  501 -0.00000000000E+00  0.00000000000E+00  0.96692184448E+01  0.96692184448E+01  0.00000000000E+00 0. -1.
          2   -1    0    0  501    0  0.00000000000E+00 -0.00000000000E+00 -0.20959921495E+03  0.20959921495E+03  0.00000000000E+00 0.  1.
         23    2    1    2    0    0  0.00000000000E+00  0.00000000000E+00 -0.19992999651E+03  0.21926843340E+03  0.90036894555E+02 0.  0.
          2    1    3    3  502    0 -0.41107977674E+02 -0.52915726513E+01 -0.57170291872E+02  0.70613800650E+02  0.00000000000E+00 0. -1.
         -2    1    3    3    0  502  0.41107977674E+02  0.52915726513E+01 -0.14275970464E+03  0.14865463275E+03  0.00000000000E+00 0.  1.
<mgrwt>
<rscale>  0 0.90036895E+02</rscale>
<asrwt>0</asrwt>
<pdfrwt beam="2">  1        2 0.32246034E-01 0.90036895E+02</pdfrwt>
<pdfrwt beam="1">  1       -2 0.14875720E-02 0.90036895E+02</pdfrwt>
<totfact> 0.16274032E+05</totfact>
</mgrwt>
</event>
<event>
 5    1  0.3963873E+001  0.9141064E+02  0.7546771E-02  0.1299471E+00
         -2   -1    0    0    0  501 -0.00000000000E+00  0.00000000000E+00  0.12889653024E+02  0.12889653024E+02  0.00000000000E+00 0.  1.
          2   -1    0    0  501    0  0.00000000000E+00 -0.00000000000E+00 -0.16206615267E+03  0.16206615267E+03  0.00000000000E+00 0. -1.
         23    2    1    2    0    0  0.00000000000E+00  0.00000000000E+00 -0.14917649965E+03  0.17495580570E+03  0.91410644345E+02 0.  0.
          2    1    3    3  502    0  0.37593034900E+02 -0.15875094948E+02 -0.11398604072E+03  0.12107052652E+03  0.00000000000E+00 0. -1.
         -2    1    3    3    0  502 -0.37593034900E+02  0.15875094948E+02 -0.35190458932E+02  0.53885279181E+02  0.00000000000E+00 0.  1.
<mgrwt>
<rscale>  0 0.91410644E+02</rscale>
<asrwt>0</asrwt>
<pdfrwt beam="2">  1        2 0.24933255E-01 0.91410644E+02</pdfrwt>
<pdfrwt beam="1">  1       -2 0.19830235E-02 0.91410644E+02</pdfrwt>
<totfact> 0.14257843E+05</totfact>
</mgrwt>
</event>
<event>
 5    1  0.3963873E+001  0.9060400E+02  0.7546771E-02  0.1301396E+00
         -1   -1    0    0    0  501 -0.00000000000E+00  0.00000000000E+00  0.12026976650E+01  0.12026976650E+01  0.00000000000E+00 0.  1.
          1   -1    0    0  501    0  0.00000000000E+00 -0.00000000000E+00 -0.17063899342E+04  0.17063899342E+04  0.00000000000E+00 0. -1.
         23    2    1    2    0    0  0.00000000000E+00  0.00000000000E+00 -0.17051872365E+04  0.17075926319E+04  0.90603999680E+02 0.  0.
          2    1    3    3  502    0  0.34844322803E+02  0.23017886289E+02 -0.52166170935E+03  0.52333057327E+03  0.00000000000E+00 0.  1.
         -2    1    3    3    0  502 -0.34844322803E+02 -0.23017886289E+02 -0.11835255272E+04  0.11842620586E+04  0.00000000000E+00 0. -1.
<mgrwt>
<rscale>  0 0.90604000E+02</rscale>
<asrwt>0</asrwt>
<pdfrwt beam="2">  1        1 0.26252257E+00 0.90604000E+02</pdfrwt>
<pdfrwt beam="1">  1       -1 0.18502967E-03 0.90604000E+02</pdfrwt>
<totfact> 0.99448604E+04</totfact>
</mgrwt>
</event>
<event>
 5    1  0.3963873E+001  0.8721857E+02  0.7546771E-02  0.1309731E+00
         -1   -1    0    0    0  501 -0.00000000000E+00  0.00000000000E+00  0.52690301084E+03  0.52690301084E+03  0.00000000000E+00 0.  1.
          1   -1    0    0  501    0  0.00000000000E+00 -0.00000000000E+00 -0.36093358445E+01  0.36093358445E+01  0.00000000000E+00 0. -1.
         23    2    1    2    0    0  0.00000000000E+00  0.00000000000E+00  0.52329367499E+03  0.53051234668E+03  0.87218574251E+02 0.  0.
          2    1    3    3  502    0  0.77133186941E+00 -0.26459896761E+02  0.50848662945E+02  0.57326325651E+02  0.00000000000E+00 0. -1.
         -2    1    3    3    0  502 -0.77133186941E+00  0.26459896761E+02  0.47244501205E+03  0.47318602103E+03  0.00000000000E+00 0.  1.
<mgrwt>
<rscale>  0 0.87218574E+02</rscale>
<asrwt>0</asrwt>
<pdfrwt beam="2">  1        1 0.55528286E-03 0.87218574E+02</pdfrwt>
<pdfrwt beam="1">  1       -1 0.81061941E-01 0.87218574E+02</pdfrwt>
<totfact> 0.51118064E+04</totfact>
</mgrwt>
</event>
<event>
 5    1  0.3963873E+001  0.8878063E+02  0.7546771E-02  0.1305832E+00
         -2   -1    0    0    0  501 -0.00000000000E+00  0.00000000000E+00  0.43973742170E+01  0.43973742170E+01  0.00000000000E+00 0.  1.
          2   -1    0    0  501    0  0.00000000000E+00 -0.00000000000E+00 -0.44810837089E+03  0.44810837089E+03  0.00000000000E+00 0. -1.
         23    2    1    2    0    0  0.00000000000E+00  0.00000000000E+00 -0.44371099668E+03  0.45250574511E+03  0.88780632946E+02 0.  0.
          2    1    3    3  502    0 -0.25484010075E+02 -0.26038207010E+02 -0.35110754168E+03  0.35299281695E+03  0.00000000000E+00 0. -1.
         -2    1    3    3    0  502  0.25484010075E+02  0.26038207010E+02 -0.92603454996E+02  0.99512928160E+02  0.00000000000E+00 0.  1.
<mgrwt>
<rscale>  0 0.88780633E+02</rscale>
<asrwt>0</asrwt>
<pdfrwt beam="2">  1        2 0.68939714E-01 0.88780633E+02</pdfrwt>
<pdfrwt beam="1">  1       -2 0.67651945E-03 0.88780633E+02</pdfrwt>
<totfact> 0.22290546E+05</totfact>
</mgrwt>
</event>
<event>
 5    1  0.3963873E+001  0.9051668E+02  0.7546771E-02  0.1301605E+00
         -2   -1    0    0    0  501 -0.00000000000E+00  0.00000000000E+00  0.37649748067E+03  0.37649748067E+03  0.00000000000E+00 0.  1.
          2   -1    0    0  501    0  0.00000000000E+00 -0.00000000000E+00 -0.54404540079E+01  0.54404540079E+01  0.00000000000E+00 0. -1.
         23    2    1    2    0    0  0.00000000000E+00  0.00000000000E+00  0.37105702666E+03  0.38193793468E+03  0.90516677528E+02 0.  0.
          2    1    3    3  502    0 -0.16899898622E+02 -0.34124854208E+02  0.82326254561E+02  0.90706804806E+02  0.00000000000E+00 0. -1.
         -2    1    3    3    0  502  0.16899898622E+02  0.34124854208E+02  0.28873077210E+03  0.29123112987E+03  0.00000000000E+00 0.  1.
<mgrwt>
<rscale>  0 0.90516678E+02</rscale>
<asrwt>0</asrwt>
<pdfrwt beam="2">  1        2 0.83699322E-03 0.90516678E+02</pdfrwt>
<pdfrwt beam="1">  1       -2 0.57922669E-01 0.90516678E+02</pdfrwt>
<totfact> 0.45284296E+04</totfact>
</mgrwt>
</event>
<event>
 5    1  0.3963873E+001  0.9098693E+02  0.7546771E-02  0.1300479E+00
         -3   -1    0    0    0  501 -0.00000000000E+00  0.00000000000E+00  0.32238965170E+02  0.32238965170E+02  0.00000000000E+00 0.  1.
          3   -1    0    0  501    0  0.00000000000E+00 -0.00000000000E+00 -0.64197322500E+02  0.64197322500E+02  0.00000000000E+00 0. -1.
         23    2    1    2    0    0  0.00000000000E+00  0.00000000000E+00 -0.31958357330E+02  0.96436287670E+02  0.90986927502E+02 0.  0.
          2    1    3    3  502    0 -0.30829795205E+02  0.32592816420E+02 -0.23973269982E+02  0.50867333606E+02  0.00000000000E+00 0. -1.
         -2    1    3    3    0  502  0.30829795205E+02 -0.32592816420E+02 -0.79850873477E+01  0.45568954064E+02  0.00000000000E+00 0.  1.
<mgrwt>
<rscale>  0 0.90986928E+02</rscale>
<asrwt>0</asrwt>
<pdfrwt beam="2">  1        3 0.98765112E-02 0.90986928E+02</pdfrwt>
<pdfrwt beam="1">  1       -3 0.49598408E-02 0.90986928E+02</pdfrwt>
<totfact> 0.35136547E+04</totfact>
</mgrwt>
</event>
<event>
 5    1  0.3963873E+001  0.9124549E+02  0.7546771E-02  0.1299863E+00
          2   -1    0    0  501    0  0.00000000000E+00  0.00000000000E+00  0.23146554418E+03  0.23146554418E+03  0.00000000000E+00 0. -1.
         -2   -1    0    0    0  501 -0.00000000000E+00 -0.00000000000E+00 -0.89924186656E+01  0.89924186656E+01  0.00000000000E+00 0.  1.
         23    2    1    2    0    0  0.00000000000E+00  0.00000000000E+00  0.22247312552E+03  0.24045796285E+03  0.91245494792E+02 0.  0.
          2    1    3    3  502    0  0.20501668665E+02 -0.18467412353E+02  0.20698384037E+03  0.20881492742E+03  0.00000000000E+00 0. -1.
         -2    1    3    3    0  502 -0.20501668665E+02  0.18467412353E+02  0.15489285147E+02  0.31643035433E+02  0.00000000000E+00 0.  1.
<mgrwt>
<rscale>  0 0.91245495E+02</rscale>
<asrwt>0</asrwt>
<pdfrwt beam="1">  1        2 0.35610079E-01 0.91245495E+02</pdfrwt>
<pdfrwt beam="2">  1       -2 0.13834492E-02 0.91245495E+02</pdfrwt>
<totfact> 0.16282597E+05</totfact>
</mgrwt>
</event>
<event>
 5    1  0.3963873E+001  0.9018945E+02  0.7546771E-02  0.1302394E+00
         -3   -1    0    0    0  501 -0.00000000000E+00  0.00000000000E+00  0.26259210227E+01  0.26259210227E+01  0.00000000000E+00 0.  1.
          3   -1    0    0  501    0  0.00000000000E+00 -0.00000000000E+00 -0.77440802714E+03  0.77440802714E+03  0.00000000000E+00 0. -1.
         23    2    1    2    0    0  0.00000000000E+00  0.00000000000E+00 -0.77178210611E+03  0.77703394816E+03  0.90189452123E+02 0.  0.
          2    1    3    3  502    0  0.27523464778E+02 -0.35532737516E+02 -0.35433196729E+03  0.35717119088E+03  0.00000000000E+00 0. -1.
         -2    1    3    3    0  502 -0.27523464778E+02  0.35532737516E+02 -0.41745013882E+03  0.41986275728E+03  0.00000000000E+00 0.  1.
<mgrwt>
<rscale>  0 0.90189452E+02</rscale>
<asrwt>0</asrwt>
<pdfrwt beam="2">  1        3 0.11913991E+00 0.90189452E+02</pdfrwt>
<pdfrwt beam="1">  1       -3 0.40398713E-03 0.90189452E+02</pdfrwt>
<totfact> 0.13110709E+04</totfact>
</mgrwt>
</event>
<event>
 5    1  0.3963873E+001  0.1120230E+03  0.7546771E-02  0.1256869E+00
         -1   -1    0    0    0  501 -0.00000000000E+00  0.00000000000E+00  0.31551187014E+03  0.31551187014E+03  0.00000000000E+00 0.  1.
          1   -1    0    0  501    0  0.00000000000E+00 -0.00000000000E+00 -0.99434797237E+01  0.99434797237E+01  0.00000000000E+00 0. -1.
         23    2    1    2    0    0  0.00000000000E+00  0.00000000000E+00  0.30556839041E+03  0.32545534986E+03  0.11202295985E+03 0.  0.
          2    1    3    3  502    0  0.41048596390E+02  0.39886391813E+01  0.26289259817E+03  0.26610790045E+03  0.00000000000E+00 0.  1.
         -2    1    3    3    0  502 -0.41048596390E+02 -0.39886391813E+01  0.42675792240E+02  0.59347449410E+02  0.00000000000E+00 0. -1.
<mgrwt>
<rscale>  0 0.11202296E+03</rscale>
<asrwt>0</asrwt>
<pdfrwt beam="2">  1        1 0.15297664E-02 0.11202296E+03</pdfrwt>
<pdfrwt beam="1">  1       -1 0.48540280E-01 0.11202296E+03</pdfrwt>
<totfact> 0.34514450E+04</totfact>
</mgrwt>
</event>
<event>
 5    1  0.3963873E+001  0.9148705E+02  0.7546771E-02  0.1299290E+00
          1   -1    0    0  501    0  0.00000000000E+00  0.00000000000E+00  0.23243521733E+04  0.23243521733E+04  0.00000000000E+00 0. -1.
         -1   -1    0    0    0  501 -0.00000000000E+00 -0.00000000000E+00 -0.90023791656E+00  0.90023791656E+00  0.00000000000E+00 0.  1.
         23    2    1    2    0    0  0.00000000000E+00  0.00000000000E+00  0.23234519354E+04  0.23252524112E+04  0.91487047342E+02 0.  0.
          2    1    3    3  502    0 -0.36967226076E+02 -0.22583104571E+02  0.15351775819E+04  0.15357886510E+04  0.00000000000E+00 0. -1.
         -2    1    3    3    0  502  0.36967226076E+02  0.22583104571E+02  0.78827435348E+03  0.78946376026E+03  0.00000000000E+00 0.  1.
<mgrwt>
<rscale>  0 0.91487047E+02</rscale>
<asrwt>0</asrwt>
<pdfrwt beam="1">  1        1 0.35758784E+00 0.91487047E+02</pdfrwt>
<pdfrwt beam="2">  1       -1 0.13850000E-03 0.91487047E+02</pdfrwt>
<totfact> 0.60724188E+04</totfact>
</mgrwt>
</event>
<event>
 5    1  0.3963873E+001  0.9151634E+02  0.7546771E-02  0.1299221E+00
         -1   -1    0    0    0  501 -0.00000000000E+00  0.00000000000E+00  0.46476919999E+02  0.46476919999E+02  0.00000000000E+00 0.  1.
          1   -1    0    0  501    0  0.00000000000E+00 -0.00000000000E+00 -0.45050532476E+02  0.45050532476E+02  0.00000000000E+00 0. -1.
         23    2    1    2    0    0  0.00000000000E+00  0.00000000000E+00  0.14263875229E+01  0.91527452474E+02  0.91516337203E+02 0.  0.
          2    1    3    3  502    0 -0.24459678669E+02  0.37384611296E+02 -0.91837118230E+01  0.45609490298E+02  0.00000000000E+00 0. -1.
         -2    1    3    3    0  502  0.24459678669E+02 -0.37384611296E+02  0.10610099346E+02  0.45917962177E+02  0.00000000000E+00 0.  1.
<mgrwt>
<rscale>  0 0.91516337E+02</rscale>
<asrwt>0</asrwt>
<pdfrwt beam="2">  1        1 0.69308512E-02 0.91516337E+02</pdfrwt>
<pdfrwt beam="1">  1       -1 0.71502954E-02 0.91516337E+02</pdfrwt>
<totfact> 0.91347620E+04</totfact>
</mgrwt>
</event>
<event>
 5    1  0.3963873E+001  0.9056177E+02  0.7546771E-02  0.1301497E+00
          2   -1    0    0  501    0  0.00000000000E+00  0.00000000000E+00  0.29811356219E+04  0.29811356219E+04  0.00000000000E+00 0. -1.
         -2   -1    0    0    0  501 -0.00000000000E+00 -0.00000000000E+00 -0.68777774088E+00  0.68777774088E+00  0.00000000000E+00 0.  1.
         23    2    1    2    0    0  0.00000000000E+00  0.00000000000E+00  0.29804478441E+04  0.29818233996E+04  0.90561773906E+02 0.  0.
          2    1    3    3  502    0 -0.25797856674E+02  0.31470902832E+02  0.83632317808E+03  0.83731260908E+03  0.00000000000E+00 0.  1.
         -2    1    3    3    0  502  0.25797856674E+02 -0.31470902832E+02  0.21441246660E+04  0.21445107905E+04  0.00000000000E+00 0. -1.
<mgrwt>
<rscale>  0 0.90561774E+02</rscale>
<asrwt>0</asrwt>
<pdfrwt beam="1">  1        2 0.45862590E+00 0.90561774E+02</pdfrwt>
<pdfrwt beam="2">  1       -2 0.10581435E-03 0.90561774E+02</pdfrwt>
<totfact> 0.10545206E+05</totfact>
</mgrwt>
</event>
<event>
 5    1  0.3963873E+001  0.9363431E+02  0.7546771E-02  0.1294282E+00
         -1   -1    0    0    0  501 -0.00000000000E+00  0.00000000000E+00  0.73473596066E+03  0.73473596066E+03  0.00000000000E+00 0.  1.
          1   -1    0    0  501    0  0.00000000000E+00 -0.00000000000E+00 -0.29831752263E+01  0.29831752263E+01  0.00000000000E+00 0. -1.
         23    2    1    2    0    0  0.00000000000E+00  0.00000000000E+00  0.73175278544E+03  0.73771913589E+03  0.93634312423E+02 0.  0.
          2    1    3    3  502    0 -0.27114524920E+02 -0.20283163147E+01  0.65601331378E+02  0.71013000269E+02  0.00000000000E+00 0. -1.
         -2    1    3    3    0  502  0.27114524920E+02  0.20283163147E+01  0.66615145406E+03  0.66670613562E+03  0.00000000000E+00 0.  1.
<mgrwt>
<rscale>  0 0.93634312E+02</rscale>
<asrwt>0</asrwt>
<pdfrwt beam="2">  1        1 0.45895062E-03 0.93634312E+02</pdfrwt>
<pdfrwt beam="1">  1       -1 0.11303616E+00 0.93634312E+02</pdfrwt>
<totfact> 0.32942133E+04</totfact>
</mgrwt>
</event>
<event>
 5    1  0.3963873E+001  0.9145506E+02  0.7546771E-02  0.1299366E+00
          2   -1    0    0  501    0  0.00000000000E+00  0.00000000000E+00  0.13643911264E+04  0.13643911264E+04  0.00000000000E+00 0. -1.
         -2   -1    0    0    0  501 -0.00000000000E+00 -0.00000000000E+00 -0.15325568869E+01  0.15325568869E+01  0.00000000000E+00 0.  1.
         23    2    1    2    0    0  0.00000000000E+00  0.00000000000E+00  0.13628585695E+04  0.13659236833E+04  0.91455060378E+02 0.  0.
          2    1    3    3  502    0 -0.13832033237E+02  0.23386248866E+02  0.12307549770E+04  0.12310548546E+04  0.00000000000E+00 0. -1.
         -2    1    3    3    0  502  0.13832033237E+02 -0.23386248866E+02  0.13210359252E+03  0.13486882863E+03  0.00000000000E+00 0.  1.
<mgrwt>
<rscale>  0 0.91455060E+02</rscale>
<asrwt>0</asrwt>
<pdfrwt beam="1">  1        2 0.20990536E+00 0.91455060E+02</pdfrwt>
<pdfrwt beam="2">  1       -2 0.23577907E-03 0.91455060E+02</pdfrwt>
<totfact> 0.24112465E+05</totfact>
</mgrwt>
</event>
<event>
 5    1  0.3963873E+001  0.9134423E+02  0.7546771E-02  0.1299629E+00
         -2   -1    0    0    0  501 -0.00000000000E+00  0.00000000000E+00  0.70558530538E+01  0.70558530538E+01  0.00000000000E+00 0.  1.
          2   -1    0    0  501    0  0.00000000000E+00 -0.00000000000E+00 -0.29563290018E+03  0.29563290018E+03  0.00000000000E+00 0. -1.
         23    2    1    2    0    0  0.00000000000E+00  0.00000000000E+00 -0.28857704713E+03  0.30268875324E+03  0.91344234664E+02 0.  0.
          2    1    3    3  502    0  0.44180503390E+02  0.18373480301E+01 -0.18216496263E+03  0.18745497149E+03  0.00000000000E+00 0. -1.
         -2    1    3    3    0  502 -0.44180503390E+02 -0.18373480301E+01 -0.10641208450E+03  0.11523378175E+03  0.00000000000E+00 0.  1.
<mgrwt>
<rscale>  0 0.91344235E+02</rscale>
<asrwt>0</asrwt>
<pdfrwt beam="2">  1        2 0.45481987E-01 0.91344235E+02</pdfrwt>
<pdfrwt beam="1">  1       -2 0.10855158E-02 0.91344235E+02</pdfrwt>
<totfact> 0.17780817E+05</totfact>
</mgrwt>
</event>
<event>
 5    1  0.3963873E+001  0.7658845E+02  0.7546771E-02  0.1339022E+00
         -1   -1    0    0    0  501 -0.00000000000E+00  0.00000000000E+00  0.78149993041E+00  0.78149993041E+00  0.00000000000E+00 0.  1.
          1   -1    0    0  501    0  0.00000000000E+00 -0.00000000000E+00 -0.18764527057E+04  0.18764527057E+04  0.00000000000E+00 0. -1.
         23    2    1    2    0    0  0.00000000000E+00  0.00000000000E+00 -0.18756712058E+04  0.18772342056E+04  0.76588449754E+02 0.  0.
          2    1    3    3  502    0 -0.14680503770E+02  0.34979692538E+02 -0.10660233081E+04  0.10666980780E+04  0.00000000000E+00 0. -1.
         -2    1    3    3    0  502  0.14680503770E+02 -0.34979692538E+02 -0.80964789764E+03  0.81053612765E+03  0.00000000000E+00 0.  1.
<mgrwt>
<rscale>  0 0.76588450E+02</rscale>
<asrwt>0</asrwt>
<pdfrwt beam="2">  1        1 0.28868315E+00 0.76588450E+02</pdfrwt>
<pdfrwt beam="1">  1       -1 0.12023154E-03 0.76588450E+02</pdfrwt>
<totfact> 0.13807812E+05</totfact>
</mgrwt>
</event>
<event>
 5    1  0.3963873E+001  0.9181614E+02  0.7546771E-02  0.1298512E+00
         -3   -1    0    0    0  501 -0.00000000000E+00  0.00000000000E+00  0.23487815172E+03  0.23487815172E+03  0.00000000000E+00 0.  1.
          3   -1    0    0  501    0  0.00000000000E+00 -0.00000000000E+00 -0.89729534093E+01  0.89729534093E+01  0.00000000000E+00 0. -1.
         23    2    1    2    0    0  0.00000000000E+00  0.00000000000E+00  0.22590519831E+03  0.24385110512E+03  0.91816136103E+02 0.  0.
          2    1    3    3  502    0 -0.47262064679E+00  0.31444459157E+02  0.24127040840E+02  0.39636996376E+02  0.00000000000E+00 0. -1.
         -2    1    3    3    0  502  0.47262064679E+00 -0.31444459157E+02  0.20177815747E+03  0.20421410875E+03  0.00000000000E+00 0.  1.
<mgrwt>
<rscale>  0 0.91816136E+02</rscale>
<asrwt>0</asrwt>
<pdfrwt beam="2">  1        3 0.13804545E-02 0.91816136E+02</pdfrwt>
<pdfrwt beam="1">  1       -3 0.36135096E-01 0.91816136E+02</pdfrwt>
<totfact> 0.25883291E+04</totfact>
</mgrwt>
</event>
<event>
 5    1  0.3963873E+001  0.9050911E+02  0.7546771E-02  0.1301623E+00
          4   -1    0    0  501    0  0.00000000000E+00  0.00000000000E+00  0.19524743157E+01  0.19524743157E+01  0.00000000000E+00 0. -1.
         -4   -1    0    0    0  501 -0.00000000000E+00 -0.00000000000E+00 -0.10489124872E+04  0.10489124872E+04  0.00000000000E+00 0.  1.
         23    2    1    2    0    0  0.00000000000E+00  0.00000000000E+00 -0.10469600129E+04  0.10508649615E+04  0.90509108728E+02 0.  0.
          2    1    3    3  502    0  0.20297679359E+02  0.29024875271E+02 -0.19641219202E+03  0.19958002992E+03  0.00000000000E+00 0. -1.
         -2    1    3    3    0  502 -0.20297679359E+02 -0.29024875271E+02 -0.85054782084E+03  0.85128493157E+03  0.00000000000E+00 0.  1.
<mgrwt>
<rscale>  0 0.90509109E+02</rscale>
<asrwt>0</asrwt>
<pdfrwt beam="1">  1        4 0.30038104E-03 0.90509109E+02</pdfrwt>
<pdfrwt beam="2">  1       -4 0.16137095E+00 0.90509109E+02</pdfrwt>
<totfact> 0.68676295E+03</totfact>
</mgrwt>
</event>
<event>
 5    1  0.3963873E+001  0.9275981E+02  0.7546771E-02  0.1296303E+00
         -1   -1    0    0    0  501 -0.00000000000E+00  0.00000000000E+00  0.11917946920E+03  0.11917946920E+03  0.00000000000E+00 0.  1.
          1   -1    0    0  501    0  0.00000000000E+00 -0.00000000000E+00 -0.18049213380E+02  0.18049213380E+02  0.00000000000E+00 0. -1.
         23    2    1    2    0    0  0.00000000000E+00  0.00000000000E+00  0.10113025583E+03  0.13722868258E+03  0.92759811775E+02 0.  0.
          2    1    3    3  502    0  0.28791799044E+02  0.16054004747E+02  0.22996247730E+01  0.33045227109E+02  0.00000000000E+00 0. -1.
         -2    1    3    3    0  502 -0.28791799044E+02 -0.16054004747E+02  0.98830631052E+02  0.10418345548E+03  0.00000000000E+00 0.  1.
<mgrwt>
<rscale>  0 0.92759812E+02</rscale>
<asrwt>0</asrwt>
<pdfrwt beam="2">  1        1 0.27768021E-02 0.92759812E+02</pdfrwt>
<pdfrwt beam="1">  1       -1 0.18335303E-01 0.92759812E+02</pdfrwt>
<totfact> 0.75214299E+04</totfact>
</mgrwt>
</event>
<event>
 5    1  0.3963873E+001  0.6865489E+02  0.7546771E-02  0.1364728E+00
          1   -1    0    0  501    0  0.00000000000E+00  0.00000000000E+00  0.33798139786E+01  0.33798139786E+01  0.00000000000E+00 0. -1.
         -1   -1    0    0    0  501 -0.00000000000E+00 -0.00000000000E+00 -0.34865040690E+03  0.34865040690E+03  0.00000000000E+00 0.  1.
         23    2    1    2    0    0  0.00000000000E+00  0.00000000000E+00 -0.34527059292E+03  0.35203022088E+03  0.68654891126E+02 0.  0.
          2    1    3    3  502    0  0.19000387449E+02 -0.11158153927E+02 -0.37667718636E+02  0.43639158442E+02  0.00000000000E+00 0. -1.
         -2    1    3    3    0  502 -0.19000387449E+02  0.11158153927E+02 -0.30760287428E+03  0.30839106244E+03  0.00000000000E+00 0.  1.
<mgrwt>
<rscale>  0 0.68654891E+02</rscale>
<asrwt>0</asrwt>
<pdfrwt beam="1">  1        1 0.51997150E-03 0.68654891E+02</pdfrwt>
<pdfrwt beam="2">  1       -1 0.53638512E-01 0.68654891E+02</pdfrwt>
<totfact> 0.11856088E+05</totfact>
</mgrwt>
</event>
<event>
 5    1  0.3963873E+001  0.9026727E+02  0.7546771E-02  0.1302206E+00
          3   -1    0    0  501    0  0.00000000000E+00  0.00000000000E+00  0.90479966298E+02  0.90479966298E+02  0.00000000000E+00 0. -1.
         -3   -1    0    0    0  501 -0.00000000000E+00 -0.00000000000E+00 -0.22513769800E+02  0.22513769800E+02  0.00000000000E+00 0.  1.
         23    2    1    2    0    0  0.00000000000E+00  0.00000000000E+00  0.67966196498E+02  0.11299373610E+03  0.90267272757E+02 0.  0.
          2    1    3    3  502    0  0.30398636992E+02 -0.11906148604E+02  0.72993550386E+02  0.79961815284E+02  0.00000000000E+00 0. -1.
         -2    1    3    3    0  502 -0.30398636992E+02  0.11906148604E+02 -0.50273538876E+01  0.33031920814E+02  0.00000000000E+00 0.  1.
<mgrwt>
<rscale>  0 0.90267273E+02</rscale>
<asrwt>0</asrwt>
<pdfrwt beam="1">  1        3 0.13919995E-01 0.90267273E+02</pdfrwt>
<pdfrwt beam="2">  1       -3 0.34636570E-02 0.90267273E+02</pdfrwt>
<totfact> 0.34662516E+04</totfact>
</mgrwt>
</event>
<event>
 5    1  0.3963873E+001  0.8694867E+02  0.7546771E-02  0.1310414E+00
         -1   -1    0    0    0  501 -0.00000000000E+00  0.00000000000E+00  0.67148677909E+01  0.67148677909E+01  0.00000000000E+00 0.  1.
          1   -1    0    0  501    0  0.00000000000E+00 -0.00000000000E+00 -0.28146758714E+03  0.28146758714E+03  0.00000000000E+00 0. -1.
         23    2    1    2    0    0  0.00000000000E+00  0.00000000000E+00 -0.27475271935E+03  0.28818245493E+03  0.86948666121E+02 0.  0.
          2    1    3    3  502    0  0.18459192308E+02 -0.22292071200E+02 -0.24489469495E+03  0.24659904670E+03  0.00000000000E+00 0. -1.
         -2    1    3    3    0  502 -0.18459192308E+02  0.22292071200E+02 -0.29858024400E+02  0.41583408231E+02  0.00000000000E+00 0.  1.
<mgrwt>
<rscale>  0 0.86948666E+02</rscale>
<asrwt>0</asrwt>
<pdfrwt beam="2">  1        1 0.43302703E-01 0.86948666E+02</pdfrwt>
<pdfrwt beam="1">  1       -1 0.10330567E-02 0.86948666E+02</pdfrwt>
<totfact> 0.14359207E+05</totfact>
</mgrwt>
</event>
<event>
 5    1  0.3963873E+001  0.9073234E+02  0.7546771E-02  0.1301088E+00
         -2   -1    0    0    0  501 -0.00000000000E+00  0.00000000000E+00  0.79956309683E+01  0.79956309683E+01  0.00000000000E+00 0.  1.
          2   -1    0    0  501    0  0.00000000000E+00 -0.00000000000E+00 -0.25740173316E+03  0.25740173316E+03  0.00000000000E+00 0. -1.
         23    2    1    2    0    0  0.00000000000E+00  0.00000000000E+00 -0.24940610219E+03  0.26539736413E+03  0.90732337542E+02 0.  0.
          2    1    3    3  502    0  0.38972012420E+01  0.45194957278E+02 -0.12305634972E+03  0.13115120109E+03  0.00000000000E+00 0. -1.
         -2    1    3    3    0  502 -0.38972012420E+01 -0.45194957278E+02 -0.12634975247E+03  0.13424616304E+03  0.00000000000E+00 0.  1.
<mgrwt>
<rscale>  0 0.90732338E+02</rscale>
<asrwt>0</asrwt>
<pdfrwt beam="2">  1        2 0.39600265E-01 0.90732338E+02</pdfrwt>
<pdfrwt beam="1">  1       -2 0.12300971E-02 0.90732338E+02</pdfrwt>
<totfact> 0.17191835E+05</totfact>
</mgrwt>
</event>
<event>
 5    1  0.3963873E+001  0.6034425E+02  0.7546771E-02  0.1396393E+00
          4   -1    0    0  501    0  0.00000000000E+00  0.00000000000E+00  0.14448754742E+01  0.14448754742E+01  0.00000000000E+00 0. -1.
         -4   -1    0    0    0  501 -0.00000000000E+00 -0.00000000000E+00 -0.63005923179E+03  0.63005923179E+03  0.00000000000E+00 0.  1.
         23    2    1    2    0    0  0.00000000000E+00  0.00000000000E+00 -0.62861435632E+03  0.63150410727E+03  0.60344250143E+02 0.  0.
          2    1    3    3  502    0  0.16376771531E+02  0.11864577515E+02 -0.79976989418E+02  0.82494155440E+02  0.00000000000E+00 0. -1.
         -2    1    3    3    0  502 -0.16376771531E+02 -0.11864577515E+02 -0.54863736690E+03  0.54900995183E+03  0.00000000000E+00 0.  1.
<mgrwt>
<rscale>  0 0.60344250E+02</rscale>
<asrwt>0</asrwt>
<pdfrwt beam="1">  1        4 0.22228827E-03 0.60344250E+02</pdfrwt>
<pdfrwt beam="2">  1       -4 0.96932304E-01 0.60344250E+02</pdfrwt>
<totfact> 0.31408956E+04</totfact>
</mgrwt>
</event>
<event>
 5    1  0.3963873E+001  0.9046323E+02  0.7546771E-02  0.1301734E+00
         -1   -1    0    0    0  501 -0.00000000000E+00  0.00000000000E+00  0.24548375932E+02  0.24548375932E+02  0.00000000000E+00 0.  1.
          1   -1    0    0  501    0  0.00000000000E+00 -0.00000000000E+00 -0.83341516587E+02  0.83341516587E+02  0.00000000000E+00 0. -1.
         23    2    1    2    0    0  0.00000000000E+00  0.00000000000E+00 -0.58793140655E+02  0.10788989252E+03  0.90463227445E+02 0.  0.
          2    1    3    3  502    0  0.43458763488E+02  0.94330488039E+01 -0.39249547471E+02  0.59314193161E+02  0.00000000000E+00 0.  1.
         -2    1    3    3    0  502 -0.43458763488E+02 -0.94330488039E+01 -0.19543593184E+02  0.48575699359E+02  0.00000000000E+00 0. -1.
<mgrwt>
<rscale>  0 0.90463227E+02</rscale>
<asrwt>0</asrwt>
<pdfrwt beam="2">  1        1 0.12821772E-01 0.90463227E+02</pdfrwt>
<pdfrwt beam="1">  1       -1 0.37766733E-02 0.90463227E+02</pdfrwt>
<totfact> 0.10360489E+05</totfact>
</mgrwt>
</event>
<event>
 5    1  0.3963873E+001  0.9342123E+02  0.7546771E-02  0.1294772E+00
          3   -1    0    0  501    0  0.00000000000E+00  0.00000000000E+00  0.57773438196E+02  0.57773438196E+02  0.00000000000E+00 0. -1.
         -3   -1    0    0    0  501 -0.00000000000E+00 -0.00000000000E+00 -0.37766173279E+02  0.37766173279E+02  0.00000000000E+00 0.  1.
         23    2    1    2    0    0  0.00000000000E+00  0.00000000000E+00  0.20007264917E+02  0.95539611474E+02  0.93421232657E+02 0.  0.
          2    1    3    3  502    0  0.21575557885E+02 -0.28819887962E+02  0.40440749786E+02  0.54143742791E+02  0.00000000000E+00 0. -1.
         -2    1    3    3    0  502 -0.21575557885E+02  0.28819887962E+02 -0.20433484869E+02  0.41395868684E+02  0.00000000000E+00 0.  1.
<mgrwt>
<rscale>  0 0.93421233E+02</rscale>
<asrwt>0</asrwt>
<pdfrwt beam="1">  1        3 0.88882213E-02 0.93421233E+02</pdfrwt>
<pdfrwt beam="2">  1       -3 0.58101805E-02 0.93421233E+02</pdfrwt>
<totfact> 0.32756715E+04</totfact>
</mgrwt>
</event>
<event>
 5    1  0.3963873E+001  0.9156476E+02  0.7546771E-02  0.1299106E+00
         -1   -1    0    0    0  501 -0.00000000000E+00  0.00000000000E+00  0.39884391578E+03  0.39884391578E+03  0.00000000000E+00 0.  1.
          1   -1    0    0  501    0  0.00000000000E+00 -0.00000000000E+00 -0.52552541123E+01  0.52552541123E+01  0.00000000000E+00 0. -1.
         23    2    1    2    0    0  0.00000000000E+00  0.00000000000E+00  0.39358866167E+03  0.40409916990E+03  0.91564755853E+02 0.  0.
          2    1    3    3  502    0  0.30101788486E+02 -0.22149973575E+02  0.31349877217E+03  0.31571857588E+03  0.00000000000E+00 0.  1.
         -2    1    3    3    0  502 -0.30101788486E+02  0.22149973575E+02  0.80089889500E+02  0.88380594021E+02  0.00000000000E+00 0. -1.
<mgrwt>
<rscale>  0 0.91564756E+02</rscale>
<asrwt>0</asrwt>
<pdfrwt beam="2">  1        1 0.80850095E-03 0.91564756E+02</pdfrwt>
<pdfrwt beam="1">  1       -1 0.61360579E-01 0.91564756E+02</pdfrwt>
<totfact> 0.52776960E+04</totfact>
</mgrwt>
</event>
<event>
 5    1  0.3963873E+001  0.9169698E+02  0.7546771E-02  0.1298793E+00
         -2   -1    0    0    0  501 -0.00000000000E+00  0.00000000000E+00  0.41632143389E+01  0.41632143389E+01  0.00000000000E+00 0.  1.
          2   -1    0    0  501    0  0.00000000000E+00 -0.00000000000E+00 -0.50491851900E+03  0.50491851900E+03  0.00000000000E+00 0. -1.
         23    2    1    2    0    0  0.00000000000E+00  0.00000000000E+00 -0.50075530466E+03  0.50908173334E+03  0.91696979630E+02 0.  0.
          2    1    3    3  502    0 -0.43498860760E+02 -0.54833295372E+01 -0.17592035005E+03  0.18130137163E+03  0.00000000000E+00 0.  1.
         -2    1    3    3    0  502  0.43498860760E+02  0.54833295372E+01 -0.32483495461E+03  0.32778036172E+03  0.00000000000E+00 0. -1.
<mgrwt>
<rscale>  0 0.91696980E+02</rscale>
<asrwt>0</asrwt>
<pdfrwt beam="2">  1        2 0.77679758E-01 0.91696980E+02</pdfrwt>
<pdfrwt beam="1">  1       -2 0.64049463E-03 0.91696980E+02</pdfrwt>
<totfact> 0.21294923E+05</totfact>
</mgrwt>
</event>
<event>
 5    1  0.3963873E+001  0.8489904E+02  0.7546771E-02  0.1315697E+00
          2   -1    0    0  501    0  0.00000000000E+00  0.00000000000E+00  0.10677823284E+03  0.10677823284E+03  0.00000000000E+00 0.  1.
         -2   -1    0    0    0  501 -0.00000000000E+00 -0.00000000000E+00 -0.16875738587E+02  0.16875738587E+02  0.00000000000E+00 0. -1.
         23    2    1    2    0    0  0.00000000000E+00  0.00000000000E+00  0.89902494256E+02  0.12365397143E+03  0.84899035194E+02 0.  0.
          2    1    3    3  502    0 -0.28292707133E+02 -0.23679086113E+02  0.14372563135E+02  0.39594784595E+02  0.00000000000E+00 0. -1.
         -2    1    3    3    0  502  0.28292707133E+02  0.23679086113E+02  0.75529931121E+02  0.84059186834E+02  0.00000000000E+00 0.  1.
<mgrwt>
<rscale>  0 0.84899035E+02</rscale>
<asrwt>0</asrwt>
<pdfrwt beam="1">  1        2 0.16427420E-01 0.84899035E+02</pdfrwt>
<pdfrwt beam="2">  1       -2 0.25962675E-02 0.84899035E+02</pdfrwt>
<totfact> 0.15208576E+05</totfact>
</mgrwt>
</event>
<event>
 5    1  0.3963873E+001  0.9121621E+02  0.7546771E-02  0.1299933E+00
         -2   -1    0    0    0  501 -0.00000000000E+00  0.00000000000E+00  0.44025921857E+03  0.44025921857E+03  0.00000000000E+00 0.  1.
          2   -1    0    0  501    0  0.00000000000E+00 -0.00000000000E+00 -0.47247145006E+01  0.47247145006E+01  0.00000000000E+00 0. -1.
         23    2    1    2    0    0  0.00000000000E+00  0.00000000000E+00  0.43553450407E+03  0.44498393307E+03  0.91216207201E+02 0.  0.
          2    1    3    3  502    0 -0.17616321576E+02  0.16461405273E+02  0.28906288391E+02  0.37641548294E+02  0.00000000000E+00 0. -1.
         -2    1    3    3    0  502  0.17616321576E+02 -0.16461405273E+02  0.40662821568E+03  0.40734238478E+03  0.00000000000E+00 0.  1.
<mgrwt>
<rscale>  0 0.91216207E+02</rscale>
<asrwt>0</asrwt>
<pdfrwt beam="2">  1        2 0.72687950E-03 0.91216207E+02</pdfrwt>
<pdfrwt beam="1">  1       -2 0.67732155E-01 0.91216207E+02</pdfrwt>
<totfact> 0.39885718E+04</totfact>
</mgrwt>
</event>
<event>
 5    1  0.3963873E+001  0.9245801E+02  0.7546771E-02  0.1297006E+00
         -3   -1    0    0    0  501 -0.00000000000E+00  0.00000000000E+00  0.33961580814E+01  0.33961580814E+01  0.00000000000E+00 0.  1.
          3   -1    0    0  501    0  0.00000000000E+00 -0.00000000000E+00 -0.62927603828E+03  0.62927603828E+03  0.00000000000E+00 0. -1.
         23    2    1    2    0    0  0.00000000000E+00  0.00000000000E+00 -0.62587988020E+03  0.63267219636E+03  0.92458009991E+02 0.  0.
          2    1    3    3  502    0 -0.50696500215E+01  0.34144297446E+02 -0.52335888563E+03  0.52449600339E+03  0.00000000000E+00 0. -1.
         -2    1    3    3    0  502  0.50696500215E+01 -0.34144297446E+02 -0.10252099457E+03  0.10817619297E+03  0.00000000000E+00 0.  1.
<mgrwt>
<rscale>  0 0.92458010E+02</rscale>
<asrwt>0</asrwt>
<pdfrwt beam="2">  1        3 0.96811742E-01 0.92458010E+02</pdfrwt>
<pdfrwt beam="1">  1       -3 0.52248562E-03 0.92458010E+02</pdfrwt>
<totfact> 0.14549965E+04</totfact>
</mgrwt>
</event>
<event>
 5    1  0.3963873E+001  0.9130454E+02  0.7546771E-02  0.1299723E+00
          3   -1    0    0  501    0  0.00000000000E+00  0.00000000000E+00  0.26546877892E+03  0.26546877892E+03  0.00000000000E+00 0. -1.
         -3   -1    0    0    0  501 -0.00000000000E+00 -0.00000000000E+00 -0.78507532311E+01  0.78507532311E+01  0.00000000000E+00 0.  1.
         23    2    1    2    0    0  0.00000000000E+00  0.00000000000E+00  0.25761802569E+03  0.27331953216E+03  0.91304542579E+02 0.  0.
          2    1    3    3  502    0 -0.30256734305E+02  0.21289931958E+02  0.20887579173E+03  0.21212691376E+03  0.00000000000E+00 0. -1.
         -2    1    3    3    0  502  0.30256734305E+02 -0.21289931958E+02  0.48742233967E+02  0.61192618392E+02  0.00000000000E+00 0.  1.
<mgrwt>
<rscale>  0 0.91304543E+02</rscale>
<asrwt>0</asrwt>
<pdfrwt beam="1">  1        3 0.40841344E-01 0.91304543E+02</pdfrwt>
<pdfrwt beam="2">  1       -3 0.12078084E-02 0.91304543E+02</pdfrwt>
<totfact> 0.25007203E+04</totfact>
</mgrwt>
</event>
<event>
 5    1  0.3963873E+001  0.9050916E+02  0.7546771E-02  0.1301623E+00
         -2   -1    0    0    0  501 -0.00000000000E+00  0.00000000000E+00  0.62422505432E+01  0.62422505432E+01  0.00000000000E+00 0.  1.
          2   -1    0    0  501    0  0.00000000000E+00 -0.00000000000E+00 -0.32808312512E+03  0.32808312512E+03  0.00000000000E+00 0. -1.
         23    2    1    2    0    0  0.00000000000E+00  0.00000000000E+00 -0.32184087458E+03  0.33432537567E+03  0.90509161217E+02 0.  0.
          2    1    3    3  502    0  0.30194502628E+02 -0.26796070656E+01 -0.28504017456E+03  0.28664750024E+03  0.00000000000E+00 0. -1.
         -2    1    3    3    0  502 -0.30194502628E+02  0.26796070656E+01 -0.36800700026E+02  0.47677875428E+02  0.00000000000E+00 0.  1.
<mgrwt>
<rscale>  0 0.90509161E+02</rscale>
<asrwt>0</asrwt>
<pdfrwt beam="2">  1        2 0.50474326E-01 0.90509161E+02</pdfrwt>
<pdfrwt beam="1">  1       -2 0.96034625E-03 0.90509161E+02</pdfrwt>
<totfact> 0.18939564E+05</totfact>
</mgrwt>
</event>
<event>
 5    1  0.3963873E+001  0.9453780E+02  0.7546771E-02  0.1292220E+00
          1   -1    0    0  501    0  0.00000000000E+00  0.00000000000E+00  0.40633574378E+03  0.40633574378E+03  0.00000000000E+00 0. -1.
         -1   -1    0    0    0  501 -0.00000000000E+00 -0.00000000000E+00 -0.54987748733E+01  0.54987748733E+01  0.00000000000E+00 0.  1.
         23    2    1    2    0    0  0.00000000000E+00  0.00000000000E+00  0.40083696891E+03  0.41183451865E+03  0.94537797267E+02 0.  0.
          2    1    3    3  502    0 -0.40049643969E+02  0.12010956667E+02  0.29646581746E+03  0.29939976283E+03  0.00000000000E+00 0. -1.
         -2    1    3    3    0  502  0.40049643969E+02 -0.12010956667E+02  0.10437115145E+03  0.11243475582E+03  0.00000000000E+00 0.  1.
<mgrwt>
<rscale>  0 0.94537797E+02</rscale>
<asrwt>0</asrwt>
<pdfrwt beam="1">  1        1 0.62513168E-01 0.94537797E+02</pdfrwt>
<pdfrwt beam="2">  1       -1 0.84596568E-03 0.94537797E+02</pdfrwt>
<totfact> 0.12281819E+05</totfact>
</mgrwt>
</event>
<event>
 5    1  0.3963873E+001  0.9707890E+02  0.7546771E-02  0.1286561E+00
         -2   -1    0    0    0  501 -0.00000000000E+00  0.00000000000E+00  0.43005246001E+02  0.43005246001E+02  0.00000000000E+00 0.  1.
          2   -1    0    0  501    0  0.00000000000E+00 -0.00000000000E+00 -0.54785833977E+02  0.54785833977E+02  0.00000000000E+00 0. -1.
         23    2    1    2    0    0  0.00000000000E+00  0.00000000000E+00 -0.11780587976E+02  0.97791079978E+02  0.97078901262E+02 0.  0.
          2    1    3    3  502    0 -0.15211234447E+02 -0.28565156461E+02  0.30551450763E+02  0.44505516071E+02  0.00000000000E+00 0. -1.
         -2    1    3    3    0  502  0.15211234447E+02  0.28565156461E+02 -0.42332038739E+02  0.53285563907E+02  0.00000000000E+00 0.  1.
<mgrwt>
<rscale>  0 0.97078901E+02</rscale>
<asrwt>0</asrwt>
<pdfrwt beam="2">  1        2 0.84285899E-02 0.97078901E+02</pdfrwt>
<pdfrwt beam="1">  1       -2 0.66161917E-02 0.97078901E+02</pdfrwt>
<totfact> 0.86557743E+04</totfact>
</mgrwt>
</event>
<event>
 5    1  0.3963873E+001  0.8497337E+02  0.7546771E-02  0.1315502E+00
          1   -1    0    0  501    0  0.00000000000E+00  0.00000000000E+00  0.16336568542E+03  0.16336568542E+03  0.00000000000E+00 0.  1.
         -1   -1    0    0    0  501 -0.00000000000E+00 -0.00000000000E+00 -0.11049556645E+02  0.11049556645E+02  0.00000000000E+00 0. -1.
         23    2    1    2    0    0  0.00000000000E+00  0.00000000000E+00  0.15231612877E+03  0.17441524206E+03  0.84973369824E+02 0.  0.
          2    1    3    3  502    0 -0.24964599838E+02 -0.33085389950E+02  0.56985964607E+02  0.70464703472E+02  0.00000000000E+00 0.  1.
         -2    1    3    3    0  502  0.24964599838E+02  0.33085389950E+02  0.95330164165E+02  0.10395053859E+03  0.00000000000E+00 0. -1.
<mgrwt>
<rscale>  0 0.84973370E+02</rscale>
<asrwt>0</asrwt>
<pdfrwt beam="1">  1        1 0.25133181E-01 0.84973370E+02</pdfrwt>
<pdfrwt beam="2">  1       -1 0.16999319E-02 0.84973370E+02</pdfrwt>
<totfact> 0.13759905E+05</totfact>
</mgrwt>
</event>
<event>
 5    1  0.3963873E+001  0.9187160E+02  0.7546771E-02  0.1298382E+00
          1   -1    0    0  501    0  0.00000000000E+00  0.00000000000E+00  0.15996323061E+02  0.15996323061E+02  0.00000000000E+00 0. -1.
         -1   -1    0    0    0  501 -0.00000000000E+00 -0.00000000000E+00 -0.13191142837E+03  0.13191142837E+03  0.00000000000E+00 0.  1.
         23    2    1    2    0    0  0.00000000000E+00  0.00000000000E+00 -0.11591510531E+03  0.14790775143E+03  0.91871602222E+02 0.  0.
          2    1    3    3  502    0 -0.25586365455E+02 -0.35389626807E+02 -0.35018873668E+02  0.55976863933E+02  0.00000000000E+00 0. -1.
         -2    1    3    3    0  502  0.25586365455E+02  0.35389626807E+02 -0.80896231642E+02  0.91930887500E+02  0.00000000000E+00 0.  1.
<mgrwt>
<rscale>  0 0.91871602E+02</rscale>
<asrwt>0</asrwt>
<pdfrwt beam="1">  1        1 0.24609727E-02 0.91871602E+02</pdfrwt>
<pdfrwt beam="2">  1       -1 0.20294067E-01 0.91871602E+02</pdfrwt>
<totfact> 0.75482052E+04</totfact>
</mgrwt>
</event>
<event>
 5    1  0.3963873E+001  0.9120220E+02  0.7546771E-02  0.1299966E+00
          2   -1    0    0  501    0  0.00000000000E+00  0.00000000000E+00  0.46480054884E+03  0.46480054884E+03  0.00000000000E+00 0. -1.
         -2   -1    0    0    0  501 -0.00000000000E+00 -0.00000000000E+00 -0.44738770751E+01  0.44738770751E+01  0.00000000000E+00 0.  1.
         23    2    1    2    0    0  0.00000000000E+00  0.00000000000E+00  0.46032667176E+03  0.46927442591E+03  0.91202204357E+02 0.  0.
          2    1    3    3  502    0 -0.36164931551E+02  0.20257398374E+02  0.32795302197E+03  0.33056232254E+03  0.00000000000E+00 0. -1.
         -2    1    3    3    0  502  0.36164931551E+02 -0.20257398374E+02  0.13237364979E+03  0.13871210337E+03  0.00000000000E+00 0.  1.
<mgrwt>
<rscale>  0 0.91202204E+02</rscale>
<asrwt>0</asrwt>
<pdfrwt beam="1">  1        2 0.71507739E-01 0.91202204E+02</pdfrwt>
<pdfrwt beam="2">  1       -2 0.68828915E-03 0.91202204E+02</pdfrwt>
<totfact> 0.21018875E+05</totfact>
</mgrwt>
</event>
<event>
 5    1  0.3963873E+001  0.8947294E+02  0.7546771E-02  0.1304133E+00
          3   -1    0    0  501    0  0.00000000000E+00  0.00000000000E+00  0.63340555929E+02  0.63340555929E+02  0.00000000000E+00 0. -1.
         -3   -1    0    0    0  501 -0.00000000000E+00 -0.00000000000E+00 -0.31596689931E+02  0.31596689931E+02  0.00000000000E+00 0.  1.
         23    2    1    2    0    0  0.00000000000E+00  0.00000000000E+00  0.31743865998E+02  0.94937245860E+02  0.89472943525E+02 0.  0.
          2    1    3    3  502    0  0.16523836939E+02  0.35682280008E+02  0.38507603558E+02  0.55037240352E+02  0.00000000000E+00 0. -1.
         -2    1    3    3    0  502 -0.16523836939E+02 -0.35682280008E+02 -0.67637375597E+01  0.39900005508E+02  0.00000000000E+00 0.  1.
<mgrwt>
<rscale>  0 0.89472944E+02</rscale>
<asrwt>0</asrwt>
<pdfrwt beam="1">  1        3 0.97447009E-02 0.89472944E+02</pdfrwt>
<pdfrwt beam="2">  1       -3 0.48610292E-02 0.89472944E+02</pdfrwt>
<totfact> 0.36893702E+04</totfact>
</mgrwt>
</event>
<event>
 5    1  0.3963873E+001  0.8670762E+02  0.7546771E-02  0.1311026E+00
         -1   -1    0    0    0  501 -0.00000000000E+00  0.00000000000E+00  0.18607737389E+01  0.18607737389E+01  0.00000000000E+00 0.  1.
          1   -1    0    0  501    0  0.00000000000E+00 -0.00000000000E+00 -0.10100921915E+04  0.10100921915E+04  0.00000000000E+00 0. -1.
         23    2    1    2    0    0  0.00000000000E+00  0.00000000000E+00 -0.10082314178E+04  0.10119529652E+04  0.86707624205E+02 0.  0.
          2    1    3    3  502    0  0.30531785349E+02 -0.14135282212E+02 -0.18501691035E+03  0.18805119844E+03  0.00000000000E+00 0.  1.
         -2    1    3    3    0  502 -0.30531785349E+02  0.14135282212E+02 -0.82321450741E+03  0.82390176679E+03  0.00000000000E+00 0. -1.
<mgrwt>
<rscale>  0 0.86707624E+02</rscale>
<asrwt>0</asrwt>
<pdfrwt beam="2">  1        1 0.15539880E+00 0.86707624E+02</pdfrwt>
<pdfrwt beam="1">  1       -1 0.28627288E-03 0.86707624E+02</pdfrwt>
<totfact> 0.15487230E+05</totfact>
</mgrwt>
</event>
<event>
 5    1  0.3963873E+001  0.9123620E+02  0.7546771E-02  0.1299885E+00
          1   -1    0    0  501    0  0.00000000000E+00  0.00000000000E+00  0.67191173404E+03  0.67191173404E+03  0.00000000000E+00 0. -1.
         -1   -1    0    0    0  501 -0.00000000000E+00 -0.00000000000E+00 -0.30971493132E+01  0.30971493132E+01  0.00000000000E+00 0.  1.
         23    2    1    2    0    0  0.00000000000E+00  0.00000000000E+00  0.66881458472E+03  0.67500888335E+03  0.91236198202E+02 0.  0.
          2    1    3    3  502    0 -0.17000072148E+01  0.43497992180E+02  0.43532143396E+03  0.43749253275E+03  0.00000000000E+00 0. -1.
         -2    1    3    3    0  502  0.17000072148E+01 -0.43497992180E+02  0.23349315077E+03  0.23751635060E+03  0.00000000000E+00 0.  1.
<mgrwt>
<rscale>  0 0.91236198E+02</rscale>
<asrwt>0</asrwt>
<pdfrwt beam="1">  1        1 0.10337092E+00 0.91236198E+02</pdfrwt>
<pdfrwt beam="2">  1       -1 0.47648504E-03 0.91236198E+02</pdfrwt>
<totfact> 0.14192483E+05</totfact>
</mgrwt>
</event>
<event>
 5    1  0.3963873E+001  0.9060718E+02  0.7546771E-02  0.1301388E+00
          2   -1    0    0  501    0  0.00000000000E+00  0.00000000000E+00  0.43109712609E+02  0.43109712609E+02  0.00000000000E+00 0.  1.
         -2   -1    0    0    0  501 -0.00000000000E+00 -0.00000000000E+00 -0.47609110481E+02  0.47609110481E+02  0.00000000000E+00 0. -1.
         23    2    1    2    0    0  0.00000000000E+00  0.00000000000E+00 -0.44993978721E+01  0.90718823090E+02  0.90607175663E+02 0.  0.
          2    1    3    3  502    0 -0.33756460776E+02  0.18352414637E+02 -0.26281468492E+02  0.46551319565E+02  0.00000000000E+00 0. -1.
         -2    1    3    3    0  502  0.33756460776E+02 -0.18352414637E+02  0.21782070619E+02  0.44167503525E+02  0.00000000000E+00 0.  1.
<mgrwt>
<rscale>  0 0.90607176E+02</rscale>
<asrwt>0</asrwt>
<pdfrwt beam="1">  1        2 0.66322635E-02 0.90607176E+02</pdfrwt>
<pdfrwt beam="2">  1       -2 0.73244785E-02 0.90607176E+02</pdfrwt>
<totfact> 0.99024871E+04</totfact>
</mgrwt>
</event>
<event>
 5    1  0.3963873E+001  0.8940887E+02  0.7546771E-02  0.1304290E+00
         -3   -1    0    0    0  501 -0.00000000000E+00  0.00000000000E+00  0.13482654057E+04  0.13482654057E+04  0.00000000000E+00 0.  1.
          3   -1    0    0  501    0  0.00000000000E+00 -0.00000000000E+00 -0.14822648821E+01  0.14822648821E+01  0.00000000000E+00 0. -1.
         23    2    1    2    0    0  0.00000000000E+00  0.00000000000E+00  0.13467831408E+04  0.13497476706E+04  0.89408868969E+02 0.  0.
          2    1    3    3  502    0 -0.21975644620E+02  0.27703022142E+00  0.85703061285E+02  0.88476100817E+02  0.00000000000E+00 0. -1.
         -2    1    3    3    0  502  0.21975644620E+02 -0.27703022142E+00  0.12610800795E+04  0.12612715698E+04  0.00000000000E+00 0.  1.
<mgrwt>
<rscale>  0 0.89408869E+02</rscale>
<asrwt>0</asrwt>
<pdfrwt beam="2">  1        3 0.22804183E-03 0.89408869E+02</pdfrwt>
<pdfrwt beam="1">  1       -3 0.20742447E+00 0.89408869E+02</pdfrwt>
<totfact> 0.74054822E+03</totfact>
</mgrwt>
</event>
<event>
 5    1  0.3963873E+001  0.9073800E+02  0.7546771E-02  0.1301074E+00
         -1   -1    0    0    0  501 -0.00000000000E+00  0.00000000000E+00  0.15330057228E+02  0.15330057228E+02  0.00000000000E+00 0.  1.
          1   -1    0    0  501    0  0.00000000000E+00 -0.00000000000E+00 -0.13426865132E+03  0.13426865132E+03  0.00000000000E+00 0. -1.
         23    2    1    2    0    0  0.00000000000E+00  0.00000000000E+00 -0.11893859410E+03  0.14959870855E+03  0.90737998849E+02 0.  0.
          2    1    3    3  502    0  0.14584668935E+02 -0.40000360476E+02 -0.85307183563E+02  0.95341790279E+02  0.00000000000E+00 0. -1.
         -2    1    3    3    0  502 -0.14584668935E+02  0.40000360476E+02 -0.33631410533E+02  0.54256918274E+02  0.00000000000E+00 0.  1.
<mgrwt>
<rscale>  0 0.90737999E+02</rscale>
<asrwt>0</asrwt>
<pdfrwt beam="2">  1        1 0.20656715E-01 0.90737999E+02</pdfrwt>
<pdfrwt beam="1">  1       -1 0.23584704E-02 0.90737999E+02</pdfrwt>
<totfact> 0.11134194E+05</totfact>
</mgrwt>
</event>
<event>
 5    1  0.3963873E+001  0.9372050E+02  0.7546771E-02  0.1294084E+00
         -3   -1    0    0    0  501 -0.00000000000E+00  0.00000000000E+00  0.11141362092E+02  0.11141362092E+02  0.00000000000E+00 0.  1.
          3   -1    0    0  501    0  0.00000000000E+00 -0.00000000000E+00 -0.19709288911E+03  0.19709288911E+03  0.00000000000E+00 0. -1.
         23    2    1    2    0    0  0.00000000000E+00  0.00000000000E+00 -0.18595152701E+03  0.20823425120E+03  0.93720504552E+02 0.  0.
          2    1    3    3  502    0 -0.43066971583E+02  0.73258320402E+01 -0.13064612187E+03  0.13775645545E+03  0.00000000000E+00 0. -1.
         -2    1    3    3    0  502  0.43066971583E+02 -0.73258320402E+01 -0.55305405141E+02  0.70477795753E+02  0.00000000000E+00 0.  1.
<mgrwt>
<rscale>  0 0.93720505E+02</rscale>
<asrwt>0</asrwt>
<pdfrwt beam="2">  1        3 0.30321982E-01 0.93720505E+02</pdfrwt>
<pdfrwt beam="1">  1       -3 0.17140558E-02 0.93720505E+02</pdfrwt>
<totfact> 0.26064657E+04</totfact>
</mgrwt>
</event>
<event>
 5    1  0.3963873E+001  0.9260211E+02  0.7546771E-02  0.1296670E+00
         -1   -1    0    0    0  501 -0.00000000000E+00  0.00000000000E+00  0.19040045733E+02  0.19040045733E+02  0.00000000000E+00 0.  1.
          1   -1    0    0  501    0  0.00000000000E+00 -0.00000000000E+00 -0.11259360900E+03  0.11259360900E+03  0.00000000000E+00 0. -1.
         23    2    1    2    0    0  0.00000000000E+00  0.00000000000E+00 -0.93553563264E+02  0.13163365473E+03  0.92602105043E+02 0.  0.
          2    1    3    3  502    0 -0.42769474816E+02 -0.13100479470E+02 -0.63771669345E+02  0.77895290932E+02  0.00000000000E+00 0. -1.
         -2    1    3    3    0  502  0.42769474816E+02  0.13100479470E+02 -0.29781893919E+02  0.53738363798E+02  0.00000000000E+00 0.  1.
<mgrwt>
<rscale>  0 0.92602105E+02</rscale>
<asrwt>0</asrwt>
<pdfrwt beam="2">  1        1 0.17322094E-01 0.92602105E+02</pdfrwt>
<pdfrwt beam="1">  1       -1 0.29292378E-02 0.92602105E+02</pdfrwt>
<totfact> 0.10215711E+05</totfact>
</mgrwt>
</event>
<event>
 5    1  0.3963873E+001  0.8831321E+02  0.7546771E-02  0.1306989E+00
          1   -1    0    0  501    0  0.00000000000E+00  0.00000000000E+00  0.22469979333E+03  0.22469979333E+03  0.00000000000E+00 0. -1.
         -1   -1    0    0    0  501 -0.00000000000E+00 -0.00000000000E+00 -0.86773802342E+01  0.86773802342E+01  0.00000000000E+00 0.  1.
         23    2    1    2    0    0  0.00000000000E+00  0.00000000000E+00  0.21602241310E+03  0.23337717357E+03  0.88313205021E+02 0.  0.
          2    1    3    3  502    0  0.40514522583E+02  0.74845016208E+00  0.61647268236E+02  0.73772436578E+02  0.00000000000E+00 0.  1.
         -2    1    3    3    0  502 -0.40514522583E+02 -0.74845016208E+00  0.15437514486E+03  0.15960473699E+03  0.00000000000E+00 0. -1.
<mgrwt>
<rscale>  0 0.88313205E+02</rscale>
<asrwt>0</asrwt>
<pdfrwt beam="1">  1        1 0.34569195E-01 0.88313205E+02</pdfrwt>
<pdfrwt beam="2">  1       -1 0.13349817E-02 0.88313205E+02</pdfrwt>
<totfact> 0.13189431E+05</totfact>
</mgrwt>
</event>
<event>
 5    1  0.3963873E+001  0.8782593E+02  0.7546771E-02  0.1308204E+00
          1   -1    0    0  501    0  0.00000000000E+00  0.00000000000E+00  0.16527059620E+04  0.16527059620E+04  0.00000000000E+00 0. -1.
         -1   -1    0    0    0  501 -0.00000000000E+00 -0.00000000000E+00 -0.11667824500E+01  0.11667824500E+01  0.00000000000E+00 0.  1.
         23    2    1    2    0    0  0.00000000000E+00  0.00000000000E+00  0.16515391795E+04  0.16538727444E+04  0.87825925817E+02 0.  0.
          2    1    3    3  502    0  0.19633419569E+02  0.23486862041E+02  0.23288557675E+03  0.23488890078E+03  0.00000000000E+00 0.  1.
         -2    1    3    3    0  502 -0.19633419569E+02 -0.23486862041E+02  0.14186536028E+04  0.14189838436E+04  0.00000000000E+00 0. -1.
<mgrwt>
<rscale>  0 0.87825926E+02</rscale>
<asrwt>0</asrwt>
<pdfrwt beam="1">  1        1 0.25426058E+00 0.87825926E+02</pdfrwt>
<pdfrwt beam="2">  1       -1 0.17950632E-03 0.87825926E+02</pdfrwt>
<totfact> 0.11167905E+05</totfact>
</mgrwt>
</event>
<event>
 5    1  0.3963873E+001  0.9040006E+02  0.7546771E-02  0.1301886E+00
          4   -1    0    0  501    0  0.00000000000E+00  0.00000000000E+00  0.53901557667E+03  0.53901557667E+03  0.00000000000E+00 0. -1.
         -4   -1    0    0    0  501 -0.00000000000E+00 -0.00000000000E+00 -0.37903224380E+01  0.37903224380E+01  0.00000000000E+00 0.  1.
         23    2    1    2    0    0  0.00000000000E+00  0.00000000000E+00  0.53522525423E+03  0.54280589910E+03  0.90400062714E+02 0.  0.
          2    1    3    3  502    0 -0.21849628566E+02  0.41873692725E+01  0.50386473047E+03  0.50435563538E+03  0.00000000000E+00 0. -1.
         -2    1    3    3    0  502  0.21849628566E+02 -0.41873692725E+01  0.31360523756E+02  0.38450263721E+02  0.00000000000E+00 0.  1.
<mgrwt>
<rscale>  0 0.90400063E+02</rscale>
<asrwt>0</asrwt>
<pdfrwt beam="1">  1        4 0.82925413E-01 0.90400063E+02</pdfrwt>
<pdfrwt beam="2">  1       -4 0.58312696E-03 0.90400063E+02</pdfrwt>
<totfact> 0.12594801E+04</totfact>
</mgrwt>
</event>
<event>
 5    1  0.3963873E+001  0.8823041E+02  0.7546771E-02  0.1307194E+00
         -2   -1    0    0    0  501 -0.00000000000E+00  0.00000000000E+00  0.49949305758E+01  0.49949305758E+01  0.00000000000E+00 0. -1.
          2   -1    0    0  501    0  0.00000000000E+00 -0.00000000000E+00 -0.38962528073E+03  0.38962528073E+03  0.00000000000E+00 0.  1.
         23    2    1    2    0    0  0.00000000000E+00  0.00000000000E+00 -0.38463035016E+03  0.39462021131E+03  0.88230408088E+02 0.  0.
          2    1    3    3  502    0 -0.30318148902E+02 -0.23089072729E+02 -0.29170939148E+03  0.29418814475E+03  0.00000000000E+00 0.  1.
         -2    1    3    3    0  502  0.30318148902E+02  0.23089072729E+02 -0.92920958676E+02  0.10043206656E+03  0.00000000000E+00 0. -1.
<mgrwt>
<rscale>  0 0.88230408E+02</rscale>
<asrwt>0</asrwt>
<pdfrwt beam="2">  1        2 0.59942335E-01 0.88230408E+02</pdfrwt>
<pdfrwt beam="1">  1       -2 0.76845107E-03 0.88230408E+02</pdfrwt>
<totfact> 0.21573774E+05</totfact>
</mgrwt>
</event>
<event>
 5    1  0.3963873E+001  0.9935446E+02  0.7546771E-02  0.1281659E+00
          2   -1    0    0  501    0  0.00000000000E+00  0.00000000000E+00  0.49197316463E+03  0.49197316463E+03  0.00000000000E+00 0. -1.
         -2   -1    0    0    0  501 -0.00000000000E+00 -0.00000000000E+00 -0.50161820813E+01  0.50161820813E+01  0.00000000000E+00 0.  1.
         23    2    1    2    0    0  0.00000000000E+00  0.00000000000E+00  0.48695698255E+03  0.49698934672E+03  0.99354455822E+02 0.  0.
          2    1    3    3  502    0 -0.24579895481E+02  0.13518461466E+02  0.44856238851E+03  0.44943869042E+03  0.00000000000E+00 0. -1.
         -2    1    3    3    0  502  0.24579895481E+02 -0.13518461466E+02  0.38394594044E+02  0.47550656295E+02  0.00000000000E+00 0.  1.
<mgrwt>
<rscale>  0 0.99354456E+02</rscale>
<asrwt>0</asrwt>
<pdfrwt beam="1">  1        2 0.75688141E-01 0.99354456E+02</pdfrwt>
<pdfrwt beam="2">  1       -2 0.77172071E-03 0.99354456E+02</pdfrwt>
<totfact> 0.17057887E+05</totfact>
</mgrwt>
</event>
<event>
 5    1  0.3963873E+001  0.8782055E+02  0.7546771E-02  0.1308217E+00
          1   -1    0    0  501    0  0.00000000000E+00  0.00000000000E+00  0.23026995050E+02  0.23026995050E+02  0.00000000000E+00 0. -1.
         -1   -1    0    0    0  501 -0.00000000000E+00 -0.00000000000E+00 -0.83732682341E+02  0.83732682341E+02  0.00000000000E+00 0.  1.
         23    2    1    2    0    0  0.00000000000E+00  0.00000000000E+00 -0.60705687291E+02  0.10675967739E+03  0.87820545701E+02 0.  0.
          2    1    3    3  502    0  0.15965124132E+02  0.29149465647E+02  0.45332458535E+01  0.33542910637E+02  0.00000000000E+00 0. -1.
         -2    1    3    3    0  502 -0.15965124132E+02 -0.29149465647E+02 -0.65238933144E+02  0.73216766754E+02  0.00000000000E+00 0.  1.
<mgrwt>
<rscale>  0 0.87820546E+02</rscale>
<asrwt>0</asrwt>
<pdfrwt beam="1">  1        1 0.35426147E-02 0.87820546E+02</pdfrwt>
<pdfrwt beam="2">  1       -1 0.12881951E-01 0.87820546E+02</pdfrwt>
<totfact> 0.92458488E+04</totfact>
</mgrwt>
</event>
<event>
 5    1  0.3963873E+001  0.8979537E+02  0.7546771E-02  0.1303348E+00
         -1   -1    0    0    0  501 -0.00000000000E+00  0.00000000000E+00  0.20734212239E+01  0.20734212239E+01  0.00000000000E+00 0.  1.
          1   -1    0    0  501    0  0.00000000000E+00 -0.00000000000E+00 -0.97221062135E+03  0.97221062135E+03  0.00000000000E+00 0. -1.
         23    2    1    2    0    0  0.00000000000E+00  0.00000000000E+00 -0.97013720012E+03  0.97428404257E+03  0.89795370403E+02 0.  0.
          2    1    3    3  502    0  0.37869078492E+02 -0.17531376483E+02 -0.66479526440E+03  0.66610371552E+03  0.00000000000E+00 0. -1.
         -2    1    3    3    0  502 -0.37869078492E+02  0.17531376483E+02 -0.30534193573E+03  0.30818032705E+03  0.00000000000E+00 0.  1.
<mgrwt>
<rscale>  0 0.89795370E+02</rscale>
<asrwt>0</asrwt>
<pdfrwt beam="2">  1        1 0.14957097E+00 0.89795370E+02</pdfrwt>
<pdfrwt beam="1">  1       -1 0.31898766E-03 0.89795370E+02</pdfrwt>
<totfact> 0.14262422E+05</totfact>
</mgrwt>
</event>
<event>
 4    1  0.3963873E+001  0.1306675E+03  0.7546771E-02  0.1226469E+00
         -2   -1    0    0    0  501 -0.00000000000E+00  0.00000000000E+00  0.34024911786E+02  0.34024911786E+02  0.00000000000E+00 0.  1.
          2   -1    0    0  501    0  0.00000000000E+00 -0.00000000000E+00 -0.12545226019E+03  0.12545226019E+03  0.00000000000E+00 0. -1.
          2    1    1    2  502    0 -0.36121475277E+02  0.49611457462E+02 -0.18356276401E+02  0.64054746670E+02  0.00000000000E+00 0. -1.
         -2    1    1    2    0  502  0.36121475277E+02 -0.49611457462E+02 -0.73071072002E+02  0.95422425306E+02  0.00000000000E+00 0.  1.
<mgrwt>
<rscale>  0 0.13066755E+03</rscale>
<asrwt>0</asrwt>
<pdfrwt beam="2">  1        2 0.19300348E-01 0.13066755E+03</pdfrwt>
<pdfrwt beam="1">  1       -2 0.52346018E-02 0.13066755E+03</pdfrwt>
<totfact> 0.48015303E+04</totfact>
</mgrwt>
</event>
<event>
 5    1  0.3963873E+001  0.9163083E+02  0.7546771E-02  0.1298950E+00
          2   -1    0    0  501    0  0.00000000000E+00  0.00000000000E+00  0.12272717660E+04  0.12272717660E+04  0.00000000000E+00 0.  1.
         -2   -1    0    0    0  501 -0.00000000000E+00 -0.00000000000E+00 -0.17103403023E+01  0.17103403023E+01  0.00000000000E+00 0. -1.
         23    2    1    2    0    0  0.00000000000E+00  0.00000000000E+00  0.12255614257E+04  0.12289821063E+04  0.91630832436E+02 0.  0.
          2    1    3    3  502    0  0.13684262820E+02 -0.23538112341E+02  0.11856798440E+03  0.12165388899E+03  0.00000000000E+00 0. -1.
         -2    1    3    3    0  502 -0.13684262820E+02  0.23538112341E+02  0.11069934413E+04  0.11073282173E+04  0.00000000000E+00 0.  1.
<mgrwt>
<rscale>  0 0.91630832E+02</rscale>
<asrwt>0</asrwt>
<pdfrwt beam="1">  1        2 0.18881034E+00 0.91630832E+02</pdfrwt>
<pdfrwt beam="2">  1       -2 0.26313026E-03 0.91630832E+02</pdfrwt>
<totfact> 0.24478574E+05</totfact>
</mgrwt>
</event>
<event>
 5    1  0.3963873E+001  0.9341734E+02  0.7546771E-02  0.1294781E+00
          1   -1    0    0  501    0  0.00000000000E+00  0.00000000000E+00  0.14890563004E+04  0.14890563004E+04  0.00000000000E+00 0. -1.
         -1   -1    0    0    0  501 -0.00000000000E+00 -0.00000000000E+00 -0.14651560697E+01  0.14651560697E+01  0.00000000000E+00 0.  1.
         23    2    1    2    0    0  0.00000000000E+00  0.00000000000E+00  0.14875911443E+04  0.14905214565E+04  0.93417340502E+02 0.  0.
          2    1    3    3  502    0  0.50715840359E+01 -0.32284359255E+02  0.12762649779E+04  0.12766833181E+04  0.00000000000E+00 0. -1.
         -2    1    3    3    0  502 -0.50715840359E+01  0.32284359255E+02  0.21132616640E+03  0.21383813837E+03  0.00000000000E+00 0.  1.
<mgrwt>
<rscale>  0 0.93417341E+02</rscale>
<asrwt>0</asrwt>
<pdfrwt beam="1">  1        1 0.22908437E+00 0.93417341E+02</pdfrwt>
<pdfrwt beam="2">  1       -1 0.22540982E-03 0.93417341E+02</pdfrwt>
<totfact> 0.10424329E+05</totfact>
</mgrwt>
</event>
<event>
 5    1  0.3963873E+001  0.8422275E+02  0.7546771E-02  0.1317478E+00
         -2   -1    0    0    0  501 -0.00000000000E+00  0.00000000000E+00  0.46134283467E+02  0.46134283467E+02  0.00000000000E+00 0.  1.
          2   -1    0    0  501    0  0.00000000000E+00 -0.00000000000E+00 -0.38439263078E+02  0.38439263078E+02  0.00000000000E+00 0. -1.
         23    2    1    2    0    0  0.00000000000E+00  0.00000000000E+00  0.76950203885E+01  0.84573546545E+02  0.84222748925E+02 0.  0.
          2    1    3    3  502    0 -0.27788957203E+02 -0.26900632130E+02 -0.12880135867E+02  0.40764789357E+02  0.00000000000E+00 0. -1.
         -2    1    3    3    0  502  0.27788957203E+02  0.26900632130E+02  0.20575156256E+02  0.43808757188E+02  0.00000000000E+00 0.  1.
<mgrwt>
<rscale>  0 0.84222749E+02</rscale>
<asrwt>0</asrwt>
<pdfrwt beam="2">  1        2 0.59137328E-02 0.84222749E+02</pdfrwt>
<pdfrwt beam="1">  1       -2 0.70975821E-02 0.84222749E+02</pdfrwt>
<totfact> 0.11863087E+05</totfact>
</mgrwt>
</event>
<event>
 5    1  0.3963873E+001  0.9123233E+02  0.7546771E-02  0.1299895E+00
         -1   -1    0    0    0  501 -0.00000000000E+00  0.00000000000E+00  0.63389931054E+03  0.63389931054E+03  0.00000000000E+00 0. -1.
          1   -1    0    0  501    0  0.00000000000E+00 -0.00000000000E+00 -0.32825945211E+01  0.32825945211E+01  0.00000000000E+00 0.  1.
         23    2    1    2    0    0  0.00000000000E+00  0.00000000000E+00  0.63061671602E+03  0.63718190507E+03  0.91232327686E+02 0.  0.
          2    1    3    3  502    0 -0.20224136686E+02  0.50884986078E+01  0.59865613887E+03  0.59901926607E+03  0.00000000000E+00 0. -1.
         -2    1    3    3    0  502  0.20224136686E+02 -0.50884986078E+01  0.31960577158E+02  0.38162638995E+02  0.00000000000E+00 0.  1.
<mgrwt>
<rscale>  0 0.91232328E+02</rscale>
<asrwt>0</asrwt>
<pdfrwt beam="2">  1        1 0.50501505E-03 0.91232328E+02</pdfrwt>
<pdfrwt beam="1">  1       -1 0.97522873E-01 0.91232328E+02</pdfrwt>
<totfact> 0.39869769E+04</totfact>
</mgrwt>
</event>
<event>
 5    1  0.3963873E+001  0.9003496E+02  0.7546771E-02  0.1302767E+00
          1   -1    0    0  501    0  0.00000000000E+00  0.00000000000E+00  0.17943248703E+04  0.17943248703E+04  0.00000000000E+00 0. -1.
         -1   -1    0    0    0  501 -0.00000000000E+00 -0.00000000000E+00 -0.11294352145E+01  0.11294352145E+01  0.00000000000E+00 0.  1.
         23    2    1    2    0    0  0.00000000000E+00  0.00000000000E+00  0.17931954351E+04  0.17954543055E+04  0.90034964201E+02 0.  0.
          2    1    3    3  502    0 -0.12571574080E+02  0.22074972578E+02  0.16377293419E+04  0.16379263555E+04  0.00000000000E+00 0. -1.
         -2    1    3    3    0  502  0.12571574080E+02 -0.22074972578E+02  0.15546609317E+03  0.15752794994E+03  0.00000000000E+00 0.  1.
<mgrwt>
<rscale>  0 0.90034964E+02</rscale>
<asrwt>0</asrwt>
<pdfrwt beam="1">  1        1 0.27604770E+00 0.90034964E+02</pdfrwt>
<pdfrwt beam="2">  1       -1 0.17376070E-03 0.90034964E+02</pdfrwt>
<totfact> 0.95470099E+04</totfact>
</mgrwt>
</event>
<event>
 5    1  0.3963873E+001  0.9107250E+02  0.7546771E-02  0.1300275E+00
          2   -1    0    0  501    0  0.00000000000E+00  0.00000000000E+00  0.10454030193E+04  0.10454030193E+04  0.00000000000E+00 0. -1.
         -2   -1    0    0    0  501 -0.00000000000E+00 -0.00000000000E+00 -0.19834932853E+01  0.19834932853E+01  0.00000000000E+00 0.  1.
         23    2    1    2    0    0  0.00000000000E+00  0.00000000000E+00  0.10434195260E+04  0.10473865126E+04  0.91072495721E+02 0.  0.
          2    1    3    3  502    0  0.39169509140E+02  0.22131713836E+02  0.60261261563E+03  0.60428968857E+03  0.00000000000E+00 0.  1.
         -2    1    3    3    0  502 -0.39169509140E+02 -0.22131713836E+02  0.44080691039E+03  0.44309682402E+03  0.00000000000E+00 0. -1.
<mgrwt>
<rscale>  0 0.91072496E+02</rscale>
<asrwt>0</asrwt>
<pdfrwt beam="1">  1        2 0.16083079E+00 0.91072496E+02</pdfrwt>
<pdfrwt beam="2">  1       -2 0.30515365E-03 0.91072496E+02</pdfrwt>
<totfact> 0.25107142E+05</totfact>
</mgrwt>
</event>
<event>
 5    1  0.3963873E+001  0.8904573E+02  0.7546771E-02  0.1305179E+00
          1   -1    0    0  501    0  0.00000000000E+00  0.00000000000E+00  0.15031665041E+02  0.15031665041E+02  0.00000000000E+00 0. -1.
         -1   -1    0    0    0  501 -0.00000000000E+00 -0.00000000000E+00 -0.13187397035E+03  0.13187397035E+03  0.00000000000E+00 0.  1.
         23    2    1    2    0    0  0.00000000000E+00  0.00000000000E+00 -0.11684230531E+03  0.14690563539E+03  0.89045726455E+02 0.  0.
          2    1    3    3  502    0 -0.20197766065E+02 -0.84168095173E+01  0.55488056002E+01  0.22573915922E+02  0.00000000000E+00 0. -1.
         -2    1    3    3    0  502  0.20197766065E+02  0.84168095173E+01 -0.12239111091E+03  0.12433171947E+03  0.00000000000E+00 0.  1.
<mgrwt>
<rscale>  0 0.89045726E+02</rscale>
<asrwt>0</asrwt>
<pdfrwt beam="1">  1        1 0.23125638E-02 0.89045726E+02</pdfrwt>
<pdfrwt beam="2">  1       -1 0.20288303E-01 0.89045726E+02</pdfrwt>
<totfact> 0.81843427E+04</totfact>
</mgrwt>
</event>
<event>
 5    1  0.3963873E+001  0.9081086E+02  0.7546771E-02  0.1300900E+00
          3   -1    0    0  501    0  0.00000000000E+00  0.00000000000E+00  0.31462881463E+02  0.31462881463E+02  0.00000000000E+00 0. -1.
         -3   -1    0    0    0  501 -0.00000000000E+00 -0.00000000000E+00 -0.65526520940E+02  0.65526520940E+02  0.00000000000E+00 0.  1.
         23    2    1    2    0    0  0.00000000000E+00  0.00000000000E+00 -0.34063639478E+02  0.96989402403E+02  0.90810861928E+02 0.  0.
          2    1    3    3  502    0  0.18383361493E+02 -0.31729926821E+02  0.11565208378E+02  0.38451141475E+02  0.00000000000E+00 0. -1.
         -2    1    3    3    0  502 -0.18383361493E+02  0.31729926821E+02 -0.45628847856E+02  0.58538260928E+02  0.00000000000E+00 0.  1.
<mgrwt>
<rscale>  0 0.90810862E+02</rscale>
<asrwt>0</asrwt>
<pdfrwt beam="1">  1        3 0.48404433E-02 0.90810862E+02</pdfrwt>
<pdfrwt beam="2">  1       -3 0.10081003E-01 0.90810862E+02</pdfrwt>
<totfact> 0.35280955E+04</totfact>
</mgrwt>
</event>
<event>
 5    1  0.3963873E+001  0.9153074E+02  0.7546771E-02  0.1299187E+00
          4   -1    0    0  501    0  0.00000000000E+00  0.00000000000E+00  0.10592915328E+01  0.10592915328E+01  0.00000000000E+00 0. -1.
         -4   -1    0    0    0  501 -0.00000000000E+00 -0.00000000000E+00 -0.19772358902E+04  0.19772358902E+04  0.00000000000E+00 0.  1.
         23    2    1    2    0    0  0.00000000000E+00  0.00000000000E+00 -0.19761765987E+04  0.19782951817E+04  0.91530743182E+02 0.  0.
          2    1    3    3  502    0 -0.28259357736E+02 -0.30917803625E+02 -0.58957509710E+03  0.59106116181E+03  0.00000000000E+00 0. -1.
         -2    1    3    3    0  502  0.28259357736E+02  0.30917803625E+02 -0.13866015015E+04  0.13872340199E+04  0.00000000000E+00 0.  1.
<mgrwt>
<rscale>  0 0.91530743E+02</rscale>
<asrwt>0</asrwt>
<pdfrwt beam="1">  1        4 0.16296594E-03 0.91530743E+02</pdfrwt>
<pdfrwt beam="2">  1       -4 0.30419385E+00 0.91530743E+02</pdfrwt>
<totfact> 0.23550968E+03</totfact>
</mgrwt>
</event>
<event>
 5    1  0.3963873E+001  0.9192144E+02  0.7546771E-02  0.1298264E+00
         -2   -1    0    0    0  501 -0.00000000000E+00  0.00000000000E+00  0.82846910025E+00  0.82846910025E+00  0.00000000000E+00 0.  1.
          2   -1    0    0  501    0  0.00000000000E+00 -0.00000000000E+00 -0.25497483632E+04  0.25497483632E+04  0.00000000000E+00 0. -1.
         23    2    1    2    0    0  0.00000000000E+00  0.00000000000E+00 -0.25489198941E+04  0.25505768323E+04  0.91921438899E+02 0.  0.
          2    1    3    3  502    0 -0.15552738937E+02  0.40439942490E+02 -0.16999193819E+04  0.17004714587E+04  0.00000000000E+00 0.  1.
         -2    1    3    3    0  502  0.15552738937E+02 -0.40439942490E+02 -0.84900051216E+03  0.85010537363E+03  0.00000000000E+00 0. -1.
<mgrwt>
<rscale>  0 0.91921439E+02</rscale>
<asrwt>0</asrwt>
<pdfrwt beam="2">  1        2 0.39226641E+00 0.91921439E+02</pdfrwt>
<pdfrwt beam="1">  1       -2 0.12745762E-03 0.91921439E+02</pdfrwt>
<totfact> 0.14063390E+05</totfact>
</mgrwt>
</event>
<event>
 5    1  0.3963873E+001  0.9057611E+02  0.7546771E-02  0.1301463E+00
         -3   -1    0    0    0  501 -0.00000000000E+00  0.00000000000E+00  0.16982102144E+02  0.16982102144E+02  0.00000000000E+00 0.  1.
          3   -1    0    0  501    0  0.00000000000E+00 -0.00000000000E+00 -0.12077466719E+03  0.12077466719E+03  0.00000000000E+00 0. -1.
         23    2    1    2    0    0  0.00000000000E+00  0.00000000000E+00 -0.10379256505E+03  0.13775676934E+03  0.90576105781E+02 0.  0.
          2    1    3    3  502    0  0.82846933401E+00  0.40960802818E+02 -0.22541270302E+02  0.46760908842E+02  0.00000000000E+00 0. -1.
         -2    1    3    3    0  502 -0.82846933401E+00 -0.40960802818E+02 -0.81251294748E+02  0.90995860494E+02  0.00000000000E+00 0.  1.
<mgrwt>
<rscale>  0 0.90576106E+02</rscale>
<asrwt>0</asrwt>
<pdfrwt beam="2">  1        3 0.18580718E-01 0.90576106E+02</pdfrwt>
<pdfrwt beam="1">  1       -3 0.26126311E-02 0.90576106E+02</pdfrwt>
<totfact> 0.32652200E+04</totfact>
</mgrwt>
</event>
<event>
 5    1  0.3963873E+001  0.9043589E+02  0.7546771E-02  0.1301800E+00
         -2   -1    0    0    0  501 -0.00000000000E+00  0.00000000000E+00  0.13098793607E+01  0.13098793607E+01  0.00000000000E+00 0.  1.
          2   -1    0    0  501    0  0.00000000000E+00 -0.00000000000E+00 -0.15609548879E+04  0.15609548879E+04  0.00000000000E+00 0. -1.
         23    2    1    2    0    0  0.00000000000E+00  0.00000000000E+00 -0.15596450085E+04  0.15622647673E+04  0.90435890900E+02 0.  0.
          2    1    3    3  502    0  0.20495533547E+02 -0.40096996099E+02 -0.70896073501E+03  0.71038944233E+03  0.00000000000E+00 0. -1.
         -2    1    3    3    0  502 -0.20495533547E+02  0.40096996099E+02 -0.85068427354E+03  0.85187532494E+03  0.00000000000E+00 0.  1.
<mgrwt>
<rscale>  0 0.90435891E+02</rscale>
<asrwt>0</asrwt>
<pdfrwt beam="2">  1        2 0.24014678E+00 0.90435891E+02</pdfrwt>
<pdfrwt beam="1">  1       -2 0.20152001E-03 0.90435891E+02</pdfrwt>
<totfact> 0.23720619E+05</totfact>
</mgrwt>
</event>
<event>
 5    1  0.3963873E+001  0.9057610E+02  0.7546771E-02  0.1301463E+00
         -2   -1    0    0    0  501 -0.00000000000E+00  0.00000000000E+00  0.39665255546E+01  0.39665255546E+01  0.00000000000E+00 0.  1.
          2   -1    0    0  501    0  0.00000000000E+00 -0.00000000000E+00 -0.51707905608E+03  0.51707905608E+03  0.00000000000E+00 0. -1.
         23    2    1    2    0    0  0.00000000000E+00  0.00000000000E+00 -0.51311253053E+03  0.52104558164E+03  0.90576095957E+02 0.  0.
          2    1    3    3  502    0 -0.11007230484E+02 -0.40371209162E+02 -0.35619601274E+03  0.35864549788E+03  0.00000000000E+00 0. -1.
         -2    1    3    3    0  502  0.11007230484E+02  0.40371209162E+02 -0.15691651778E+03  0.16240008376E+03  0.00000000000E+00 0.  1.
<mgrwt>
<rscale>  0 0.90576096E+02</rscale>
<asrwt>0</asrwt>
<pdfrwt beam="2">  1        2 0.79550613E-01 0.90576096E+02</pdfrwt>
<pdfrwt beam="1">  1       -2 0.61023478E-03 0.90576096E+02</pdfrwt>
<totfact> 0.22167882E+05</totfact>
</mgrwt>
</event>
<event>
 5    1  0.3963873E+001  0.8688281E+02  0.7546771E-02  0.1310581E+00
         -4   -1    0    0    0  501 -0.00000000000E+00  0.00000000000E+00  0.84014380849E+00  0.84014380849E+00  0.00000000000E+00 0. -1.
          4   -1    0    0  501    0  0.00000000000E+00 -0.00000000000E+00 -0.22462294635E+04  0.22462294635E+04  0.00000000000E+00 0.  1.
         23    2    1    2    0    0  0.00000000000E+00  0.00000000000E+00 -0.22453893197E+04  0.22470696073E+04  0.86882812483E+02 0.  0.
          2    1    3    3  502    0 -0.22356723674E+02 -0.37238602169E+02 -0.11023432230E+04  0.11031985849E+04  0.00000000000E+00 0. -1.
         -2    1    3    3    0  502  0.22356723674E+02  0.37238602169E+02 -0.11430460967E+04  0.11438710224E+04  0.00000000000E+00 0.  1.
<mgrwt>
<rscale>  0 0.86882812E+02</rscale>
<asrwt>0</asrwt>
<pdfrwt beam="2">  1        4 0.34557405E+00 0.86882812E+02</pdfrwt>
<pdfrwt beam="1">  1       -4 0.12925279E-03 0.86882812E+02</pdfrwt>
<totfact> 0.18655649E+03</totfact>
</mgrwt>
</event>
<event>
 5    1  0.3963873E+001  0.9045460E+02  0.7546771E-02  0.1301755E+00
         -3   -1    0    0    0  501 -0.00000000000E+00  0.00000000000E+00  0.19424698915E+01  0.19424698915E+01  0.00000000000E+00 0.  1.
          3   -1    0    0  501    0  0.00000000000E+00 -0.00000000000E+00 -0.10530453179E+04  0.10530453179E+04  0.00000000000E+00 0. -1.
         23    2    1    2    0    0  0.00000000000E+00  0.00000000000E+00 -0.10511028480E+04  0.10549877878E+04  0.90454603520E+02 0.  0.
          2    1    3    3  502    0  0.24710246965E+02  0.38272760021E+01 -0.96509442658E+03  0.96541830134E+03  0.00000000000E+00 0. -1.
         -2    1    3    3    0  502 -0.24710246965E+02 -0.38272760021E+01 -0.86008421443E+02  0.89569486466E+02  0.00000000000E+00 0.  1.
<mgrwt>
<rscale>  0 0.90454604E+02</rscale>
<asrwt>0</asrwt>
<pdfrwt beam="2">  1        3 0.16200715E+00 0.90454604E+02</pdfrwt>
<pdfrwt beam="1">  1       -3 0.29884119E-03 0.90454604E+02</pdfrwt>
<totfact> 0.96736889E+03</totfact>
</mgrwt>
</event>
<event>
 5    1  0.3963873E+001  0.9511317E+02  0.7546771E-02  0.1290921E+00
         -1   -1    0    0    0  501 -0.00000000000E+00  0.00000000000E+00  0.58130925815E+01  0.58130925815E+01  0.00000000000E+00 0.  1.
          1   -1    0    0  501    0  0.00000000000E+00 -0.00000000000E+00 -0.38905777636E+03  0.38905777636E+03  0.00000000000E+00 0. -1.
         23    2    1    2    0    0  0.00000000000E+00  0.00000000000E+00 -0.38324468378E+03  0.39487086894E+03  0.95113172033E+02 0.  0.
          2    1    3    3  502    0 -0.46884020411E+02  0.58223348312E+01 -0.16902841532E+03  0.17550674101E+03  0.00000000000E+00 0. -1.
         -2    1    3    3    0  502  0.46884020411E+02 -0.58223348312E+01 -0.21421626846E+03  0.21936412794E+03  0.00000000000E+00 0.  1.
<mgrwt>
<rscale>  0 0.95113172E+02</rscale>
<asrwt>0</asrwt>
<pdfrwt beam="2">  1        1 0.59855054E-01 0.95113172E+02</pdfrwt>
<pdfrwt beam="1">  1       -1 0.89432176E-03 0.95113172E+02</pdfrwt>
<totfact> 0.11997964E+05</totfact>
</mgrwt>
</event>
<event>
 5    1  0.3963873E+001  0.9012956E+02  0.7546771E-02  0.1302538E+00
         -2   -1    0    0    0  501 -0.00000000000E+00  0.00000000000E+00  0.35625922696E+01  0.35625922696E+01  0.00000000000E+00 0.  1.
          2   -1    0    0  501    0  0.00000000000E+00 -0.00000000000E+00 -0.57004404952E+03  0.57004404952E+03  0.00000000000E+00 0. -1.
         23    2    1    2    0    0  0.00000000000E+00  0.00000000000E+00 -0.56648145725E+03  0.57360664179E+03  0.90129562834E+02 0.  0.
          2    1    3    3  502    0  0.19950669320E+02  0.39298560906E+02 -0.34308779414E+03  0.34590698256E+03  0.00000000000E+00 0. -1.
         -2    1    3    3    0  502 -0.19950669320E+02 -0.39298560906E+02 -0.22339366312E+03  0.22769965923E+03  0.00000000000E+00 0.  1.
<mgrwt>
<rscale>  0 0.90129563E+02</rscale>
<asrwt>0</asrwt>
<pdfrwt beam="2">  1        2 0.87699171E-01 0.90129563E+02</pdfrwt>
<pdfrwt beam="1">  1       -2 0.54809058E-03 0.90129563E+02</pdfrwt>
<totfact> 0.23143913E+05</totfact>
</mgrwt>
</event>
<event>
 5    1  0.3963873E+001  0.7978374E+02  0.7546771E-02  0.1329666E+00
         -1   -1    0    0    0  501 -0.00000000000E+00  0.00000000000E+00  0.41180260275E+02  0.41180260275E+02  0.00000000000E+00 0.  1.
          1   -1    0    0  501    0  0.00000000000E+00 -0.00000000000E+00 -0.38643791972E+02  0.38643791972E+02  0.00000000000E+00 0. -1.
         23    2    1    2    0    0  0.00000000000E+00  0.00000000000E+00  0.25364683030E+01  0.79824052247E+02  0.79783742991E+02 0.  0.
          2    1    3    3  502    0  0.15408746130E+02  0.19586499388E+02 -0.29897158460E+02  0.38921722721E+02  0.00000000000E+00 0. -1.
         -2    1    3    3    0  502 -0.15408746130E+02 -0.19586499388E+02  0.32433626763E+02  0.40902329525E+02  0.00000000000E+00 0.  1.
<mgrwt>
<rscale>  0 0.79783743E+02</rscale>
<asrwt>0</asrwt>
<pdfrwt beam="2">  1        1 0.59451987E-02 0.79783743E+02</pdfrwt>
<pdfrwt beam="1">  1       -1 0.63354247E-02 0.79783743E+02</pdfrwt>
<totfact> 0.13099280E+05</totfact>
</mgrwt>
</event>
<event>
 5    1  0.3963873E+001  0.8976997E+02  0.7546771E-02  0.1303410E+00
          4   -1    0    0  501    0  0.00000000000E+00  0.00000000000E+00  0.99517955644E+01  0.99517955644E+01  0.00000000000E+00 0. -1.
         -4   -1    0    0    0  501 -0.00000000000E+00 -0.00000000000E+00 -0.20244206870E+03  0.20244206870E+03  0.00000000000E+00 0.  1.
         23    2    1    2    0    0  0.00000000000E+00  0.00000000000E+00 -0.19249027314E+03  0.21239386427E+03  0.89769974520E+02 0.  0.
          2    1    3    3  502    0  0.42533849588E+02  0.12192745788E+02 -0.78402663920E+02  0.90026491214E+02  0.00000000000E+00 0. -1.
         -2    1    3    3    0  502 -0.42533849588E+02 -0.12192745788E+02 -0.11408760922E+03  0.12236737305E+03  0.00000000000E+00 0.  1.
<mgrwt>
<rscale>  0 0.89769975E+02</rscale>
<asrwt>0</asrwt>
<pdfrwt beam="1">  1        4 0.15310455E-02 0.89769975E+02</pdfrwt>
<pdfrwt beam="2">  1       -4 0.31144932E-01 0.89769975E+02</pdfrwt>
<totfact> 0.21763612E+04</totfact>
</mgrwt>
</event>
<event>
 5    1  0.3963873E+001  0.9072839E+02  0.7546771E-02  0.1301097E+00
         -1   -1    0    0    0  501 -0.00000000000E+00  0.00000000000E+00  0.16177922508E+03  0.16177922508E+03  0.00000000000E+00 0.  1.
          1   -1    0    0  501    0  0.00000000000E+00 -0.00000000000E+00 -0.12720484315E+02  0.12720484315E+02  0.00000000000E+00 0. -1.
         23    2    1    2    0    0  0.00000000000E+00  0.00000000000E+00  0.14905874077E+03  0.17449970939E+03  0.90728387951E+02 0.  0.
          2    1    3    3  502    0 -0.41133919219E+02  0.66074448355E+01  0.40003102759E+02  0.57757301425E+02  0.00000000000E+00 0. -1.
         -2    1    3    3    0  502  0.41133919219E+02 -0.66074448355E+01  0.10905563801E+03  0.11674240797E+03  0.00000000000E+00 0.  1.
<mgrwt>
<rscale>  0 0.90728388E+02</rscale>
<asrwt>0</asrwt>
<pdfrwt beam="2">  1        1 0.19569977E-02 0.90728388E+02</pdfrwt>
<pdfrwt beam="1">  1       -1 0.24889110E-01 0.90728388E+02</pdfrwt>
<totfact> 0.74390268E+04</totfact>
</mgrwt>
</event>
<event>
 5    1  0.3963873E+001  0.9078099E+02  0.7546771E-02  0.1300971E+00
          3   -1    0    0  501    0  0.00000000000E+00  0.00000000000E+00  0.16925864622E+02  0.16925864622E+02  0.00000000000E+00 0. -1.
         -3   -1    0    0    0  501 -0.00000000000E+00 -0.00000000000E+00 -0.12172478223E+03  0.12172478223E+03  0.00000000000E+00 0.  1.
         23    2    1    2    0    0  0.00000000000E+00  0.00000000000E+00 -0.10479891761E+03  0.13865064685E+03  0.90780993281E+02 0.  0.
          2    1    3    3  502    0  0.31404184261E+02  0.28439734644E+02 -0.27524665109E+02  0.50523741796E+02  0.00000000000E+00 0. -1.
         -2    1    3    3    0  502 -0.31404184261E+02 -0.28439734644E+02 -0.77274252501E+02  0.88126905059E+02  0.00000000000E+00 0.  1.
<mgrwt>
<rscale>  0 0.90780993E+02</rscale>
<asrwt>0</asrwt>
<pdfrwt beam="1">  1        3 0.26039792E-02 0.90780993E+02</pdfrwt>
<pdfrwt beam="2">  1       -3 0.18726890E-01 0.90780993E+02</pdfrwt>
<totfact> 0.32397065E+04</totfact>
</mgrwt>
</event>
<event>
 5    1  0.3963873E+001  0.9179710E+02  0.7546771E-02  0.1298557E+00
          1   -1    0    0  501    0  0.00000000000E+00  0.00000000000E+00  0.74668991423E+01  0.74668991423E+01  0.00000000000E+00 0. -1.
         -1   -1    0    0    0  501 -0.00000000000E+00 -0.00000000000E+00 -0.28213543587E+03  0.28213543587E+03  0.00000000000E+00 0.  1.
         23    2    1    2    0    0  0.00000000000E+00  0.00000000000E+00 -0.27466853673E+03  0.28960233502E+03  0.91797098955E+02 0.  0.
          2    1    3    3  502    0  0.33069725620E+02 -0.26073539934E+02 -0.19492492908E+03  0.19942207554E+03  0.00000000000E+00 0.  1.
         -2    1    3    3    0  502 -0.33069725620E+02  0.26073539934E+02 -0.79743607652E+02  0.90180259473E+02  0.00000000000E+00 0. -1.
<mgrwt>
<rscale>  0 0.91797099E+02</rscale>
<asrwt>0</asrwt>
<pdfrwt beam="1">  1        1 0.11487536E-02 0.91797099E+02</pdfrwt>
<pdfrwt beam="2">  1       -1 0.43405456E-01 0.91797099E+02</pdfrwt>
<totfact> 0.60940935E+04</totfact>
</mgrwt>
</event>
<event>
 5    1  0.3963873E+001  0.9086671E+02  0.7546771E-02  0.1300766E+00
         -1   -1    0    0    0  501 -0.00000000000E+00  0.00000000000E+00  0.32724833951E+03  0.32724833951E+03  0.00000000000E+00 0.  1.
          1   -1    0    0  501    0  0.00000000000E+00 -0.00000000000E+00 -0.63077166297E+01  0.63077166297E+01  0.00000000000E+00 0. -1.
         23    2    1    2    0    0  0.00000000000E+00  0.00000000000E+00  0.32094062288E+03  0.33355605614E+03  0.90866711027E+02 0.  0.
          2    1    3    3  502    0  0.16414834811E+01  0.27053455146E+02  0.26618119789E+02  0.37988264036E+02  0.00000000000E+00 0. -1.
         -2    1    3    3    0  502 -0.16414834811E+01 -0.27053455146E+02  0.29432250309E+03  0.29556779211E+03  0.00000000000E+00 0.  1.
<mgrwt>
<rscale>  0 0.90866711E+02</rscale>
<asrwt>0</asrwt>
<pdfrwt beam="2">  1        1 0.97041819E-03 0.90866711E+02</pdfrwt>
<pdfrwt beam="1">  1       -1 0.50345885E-01 0.90866711E+02</pdfrwt>
<totfact> 0.58997536E+04</totfact>
</mgrwt>
</event>
<event>
 5    1  0.3963873E+001  0.9233412E+02  0.7546771E-02  0.1297296E+00
         -2   -1    0    0    0  501 -0.00000000000E+00  0.00000000000E+00  0.93919921377E+00  0.93919921377E+00  0.00000000000E+00 0.  1.
          2   -1    0    0  501    0  0.00000000000E+00 -0.00000000000E+00 -0.22693774248E+04  0.22693774248E+04  0.00000000000E+00 0. -1.
         23    2    1    2    0    0  0.00000000000E+00  0.00000000000E+00 -0.22684382256E+04  0.22703166240E+04  0.92334121388E+02 0.  0.
          2    1    3    3  502    0  0.45270425518E+02  0.34125396970E+01 -0.13404374895E+04  0.13412060692E+04  0.00000000000E+00 0. -1.
         -2    1    3    3    0  502 -0.45270425518E+02 -0.34125396970E+01 -0.92800073608E+03  0.92911055479E+03  0.00000000000E+00 0.  1.
<mgrwt>
<rscale>  0 0.92334121E+02</rscale>
<asrwt>0</asrwt>
<pdfrwt beam="2">  1        2 0.34913376E+00 0.92334121E+02</pdfrwt>
<pdfrwt beam="1">  1       -2 0.14449269E-03 0.92334121E+02</pdfrwt>
<totfact> 0.16551976E+05</totfact>
</mgrwt>
</event>
<event>
 5    1  0.3963873E+001  0.8948038E+02  0.7546771E-02  0.1304115E+00
         -1   -1    0    0    0  501 -0.00000000000E+00  0.00000000000E+00  0.24964054921E+01  0.24964054921E+01  0.00000000000E+00 0.  1.
          1   -1    0    0  501    0  0.00000000000E+00 -0.00000000000E+00 -0.80182676645E+03  0.80182676645E+03  0.00000000000E+00 0. -1.
         23    2    1    2    0    0  0.00000000000E+00  0.00000000000E+00 -0.79933036096E+03  0.80432317194E+03  0.89480383179E+02 0.  0.
          2    1    3    3  502    0 -0.34487963079E+02 -0.28481215017E+02 -0.40903055432E+03  0.41146882455E+03  0.00000000000E+00 0. -1.
         -2    1    3    3    0  502  0.34487963079E+02  0.28481215017E+02 -0.39029980664E+03  0.39285434740E+03  0.00000000000E+00 0.  1.
<mgrwt>
<rscale>  0 0.89480383E+02</rscale>
<asrwt>0</asrwt>
<pdfrwt beam="2">  1        1 0.12335822E+00 0.89480383E+02</pdfrwt>
<pdfrwt beam="1">  1       -1 0.38406160E-03 0.89480383E+02</pdfrwt>
<totfact> 0.14845496E+05</totfact>
</mgrwt>
</event>
<event>
 5    1  0.3963873E+001  0.9133126E+02  0.7546771E-02  0.1299660E+00
          1   -1    0    0  501    0  0.00000000000E+00  0.00000000000E+00  0.85149564274E+02  0.85149564274E+02  0.00000000000E+00 0. -1.
         -1   -1    0    0    0  501 -0.00000000000E+00 -0.00000000000E+00 -0.24490432363E+02  0.24490432363E+02  0.00000000000E+00 0.  1.
         23    2    1    2    0    0  0.00000000000E+00  0.00000000000E+00  0.60659131911E+02  0.10963999664E+03  0.91331257400E+02 0.  0.
          2    1    3    3  502    0  0.22848535863E+02  0.73679370177E+01  0.76962773055E+02  0.80620162014E+02  0.00000000000E+00 0. -1.
         -2    1    3    3    0  502 -0.22848535863E+02 -0.73679370177E+01 -0.16303641144E+02  0.29019834623E+02  0.00000000000E+00 0.  1.
<mgrwt>
<rscale>  0 0.91331257E+02</rscale>
<asrwt>0</asrwt>
<pdfrwt beam="1">  1        1 0.13099933E-01 0.91331257E+02</pdfrwt>
<pdfrwt beam="2">  1       -1 0.37677588E-02 0.91331257E+02</pdfrwt>
<totfact> 0.10127684E+05</totfact>
</mgrwt>
</event>
<event>
 5    1  0.3963873E+001  0.8793257E+02  0.7546771E-02  0.1307937E+00
          2   -1    0    0  501    0  0.00000000000E+00  0.00000000000E+00  0.10427697022E+04  0.10427697022E+04  0.00000000000E+00 0.  1.
         -2   -1    0    0    0  501 -0.00000000000E+00 -0.00000000000E+00 -0.18537498331E+01  0.18537498331E+01  0.00000000000E+00 0. -1.
         23    2    1    2    0    0  0.00000000000E+00  0.00000000000E+00  0.10409159524E+04  0.10446234520E+04  0.87932568742E+02 0.  0.
          2    1    3    3  502    0  0.16745358624E+02  0.26278431911E+02  0.15197824365E+03  0.15513977427E+03  0.00000000000E+00 0. -1.
         -2    1    3    3    0  502 -0.16745358624E+02 -0.26278431911E+02  0.88893770872E+03  0.88948367776E+03  0.00000000000E+00 0.  1.
<mgrwt>
<rscale>  0 0.87932569E+02</rscale>
<asrwt>0</asrwt>
<pdfrwt beam="1">  1        2 0.16042564E+00 0.87932569E+02</pdfrwt>
<pdfrwt beam="2">  1       -2 0.28519312E-03 0.87932569E+02</pdfrwt>
<totfact> 0.27531365E+05</totfact>
</mgrwt>
</event>
<event>
 5    1  0.3963873E+001  0.9466493E+02  0.7546771E-02  0.1291933E+00
          2   -1    0    0  501    0  0.00000000000E+00  0.00000000000E+00  0.11654795188E+03  0.11654795188E+03  0.00000000000E+00 0. -1.
         -2   -1    0    0    0  501 -0.00000000000E+00 -0.00000000000E+00 -0.19222664180E+02  0.19222664180E+02  0.00000000000E+00 0.  1.
         23    2    1    2    0    0  0.00000000000E+00  0.00000000000E+00  0.97325287703E+02  0.13577061606E+03  0.94664927822E+02 0.  0.
          2    1    3    3  502    0  0.16115057864E+02 -0.23561565109E+02  0.10281324623E+03  0.10670241816E+03  0.00000000000E+00 0. -1.
         -2    1    3    3    0  502 -0.16115057864E+02  0.23561565109E+02 -0.54879585315E+01  0.29068197901E+02  0.00000000000E+00 0.  1.
<mgrwt>
<rscale>  0 0.94664928E+02</rscale>
<asrwt>0</asrwt>
<pdfrwt beam="1">  1        2 0.17930454E-01 0.94664928E+02</pdfrwt>
<pdfrwt beam="2">  1       -2 0.29573330E-02 0.94664928E+02</pdfrwt>
<totfact> 0.11605641E+05</totfact>
</mgrwt>
</event>
<event>
 5    1  0.3963873E+001  0.9178824E+02  0.7546771E-02  0.1298578E+00
         -1   -1    0    0    0  501 -0.00000000000E+00  0.00000000000E+00  0.69654208102E+03  0.69654208102E+03  0.00000000000E+00 0.  1.
          1   -1    0    0  501    0  0.00000000000E+00 -0.00000000000E+00 -0.30238954306E+01  0.30238954306E+01  0.00000000000E+00 0. -1.
         23    2    1    2    0    0  0.00000000000E+00  0.00000000000E+00  0.69351818559E+03  0.69956597645E+03  0.91788243605E+02 0.  0.
          2    1    3    3  502    0  0.18597102038E+02 -0.39869204962E+02  0.44638397100E+03  0.44854660324E+03  0.00000000000E+00 0. -1.
         -2    1    3    3    0  502 -0.18597102038E+02  0.39869204962E+02  0.24713421458E+03  0.25101937321E+03  0.00000000000E+00 0.  1.
<mgrwt>
<rscale>  0 0.91788244E+02</rscale>
<asrwt>0</asrwt>
<pdfrwt beam="2">  1        1 0.46521523E-03 0.91788244E+02</pdfrwt>
<pdfrwt beam="1">  1       -1 0.10716019E+00 0.91788244E+02</pdfrwt>
<totfact> 0.36356662E+04</totfact>
</mgrwt>
</event>
<event>
 5    1  0.3963873E+001  0.9548328E+02  0.7546771E-02  0.1290091E+00
         -2   -1    0    0    0  501 -0.00000000000E+00  0.00000000000E+00  0.32554334566E+01  0.32554334566E+01  0.00000000000E+00 0. -1.
          2   -1    0    0  501    0  0.00000000000E+00 -0.00000000000E+00 -0.70014148485E+03  0.70014148485E+03  0.00000000000E+00 0.  1.
         23    2    1    2    0    0  0.00000000000E+00  0.00000000000E+00 -0.69688605139E+03  0.70339691831E+03  0.95483276319E+02 0.  0.
          2    1    3    3  502    0  0.22172454002E+01 -0.36677771628E+02 -0.12389885461E+03  0.12923274075E+03  0.00000000000E+00 0. -1.
         -2    1    3    3    0  502 -0.22172454002E+01  0.36677771628E+02 -0.57298719678E+03  0.57416417755E+03  0.00000000000E+00 0.  1.
<mgrwt>
<rscale>  0 0.95483276E+02</rscale>
<asrwt>0</asrwt>
<pdfrwt beam="2">  1        2 0.10771407E+00 0.95483276E+02</pdfrwt>
<pdfrwt beam="1">  1       -2 0.50083592E-03 0.95483276E+02</pdfrwt>
<totfact> 0.20990778E+05</totfact>
</mgrwt>
</event>
<event>
 5    1  0.3963873E+001  0.9029098E+02  0.7546771E-02  0.1302149E+00
         -1   -1    0    0    0  501 -0.00000000000E+00  0.00000000000E+00  0.12314610301E+03  0.12314610301E+03  0.00000000000E+00 0.  1.
          1   -1    0    0  501    0  0.00000000000E+00 -0.00000000000E+00 -0.16550383306E+02  0.16550383306E+02  0.00000000000E+00 0. -1.
         23    2    1    2    0    0  0.00000000000E+00  0.00000000000E+00  0.10659571971E+03  0.13969648632E+03  0.90290978673E+02 0.  0.
          2    1    3    3  502    0 -0.35425366332E+02 -0.27451694402E+02  0.44885533271E+02  0.63429198342E+02  0.00000000000E+00 0.  1.
         -2    1    3    3    0  502  0.35425366332E+02  0.27451694402E+02  0.61710186436E+02  0.76267287976E+02  0.00000000000E+00 0. -1.
<mgrwt>
<rscale>  0 0.90290979E+02</rscale>
<asrwt>0</asrwt>
<pdfrwt beam="2">  1        1 0.25462129E-02 0.90290979E+02</pdfrwt>
<pdfrwt beam="1">  1       -1 0.18945554E-01 0.90290979E+02</pdfrwt>
<totfact> 0.80108781E+04</totfact>
</mgrwt>
</event>
<event>
 5    1  0.3963873E+001  0.9006952E+02  0.7546771E-02  0.1302683E+00
          1   -1    0    0  501    0  0.00000000000E+00  0.00000000000E+00  0.47476066487E+02  0.47476066487E+02  0.00000000000E+00 0. -1.
         -1   -1    0    0    0  501 -0.00000000000E+00 -0.00000000000E+00 -0.42718989435E+02  0.42718989435E+02  0.00000000000E+00 0.  1.
         23    2    1    2    0    0  0.00000000000E+00  0.00000000000E+00  0.47570770520E+01  0.90195055922E+02  0.90069519432E+02 0.  0.
          2    1    3    3  502    0  0.27955421396E+02  0.10566258710E+01  0.37719476103E+02  0.46961483379E+02  0.00000000000E+00 0. -1.
         -2    1    3    3    0  502 -0.27955421396E+02 -0.10566258710E+01 -0.32962399051E+02  0.43233572543E+02  0.00000000000E+00 0.  1.
<mgrwt>
<rscale>  0 0.90069519E+02</rscale>
<asrwt>0</asrwt>
<pdfrwt beam="1">  1        1 0.73040102E-02 0.90069519E+02</pdfrwt>
<pdfrwt beam="2">  1       -1 0.65721522E-02 0.90069519E+02</pdfrwt>
<totfact> 0.96272197E+04</totfact>
</mgrwt>
</event>
<event>
 5    1  0.3963873E+001  0.1024340E+03  0.7546771E-02  0.1275259E+00
         -1   -1    0    0    0  501 -0.00000000000E+00  0.00000000000E+00  0.15281060077E+01  0.15281060077E+01  0.00000000000E+00 0.  1.
          1   -1    0    0  501    0  0.00000000000E+00 -0.00000000000E+00 -0.17166217497E+04  0.17166217497E+04  0.00000000000E+00 0. -1.
         23    2    1    2    0    0  0.00000000000E+00  0.00000000000E+00 -0.17150936437E+04  0.17181498557E+04  0.10243397891E+03 0.  0.
          2    1    3    3  502    0  0.49597379548E+01 -0.49396514533E+02 -0.64633357325E+03  0.64823738133E+03  0.00000000000E+00 0. -1.
         -2    1    3    3    0  502 -0.49597379548E+01  0.49396514533E+02 -0.10687600704E+04  0.10699124743E+04  0.00000000000E+00 0.  1.
<mgrwt>
<rscale>  0 0.10243398E+03</rscale>
<asrwt>0</asrwt>
<pdfrwt beam="2">  1        1 0.26409448E+00 0.10243398E+03</pdfrwt>
<pdfrwt beam="1">  1       -1 0.23509427E-03 0.10243398E+03</pdfrwt>
<totfact> 0.71246278E+04</totfact>
</mgrwt>
</event>
<event>
 5    1  0.3963873E+001  0.9078033E+02  0.7546771E-02  0.1300973E+00
         -1   -1    0    0    0  501 -0.00000000000E+00  0.00000000000E+00  0.41948119386E+02  0.41948119386E+02  0.00000000000E+00 0.  1.
          1   -1    0    0  501    0  0.00000000000E+00 -0.00000000000E+00 -0.49114649332E+02  0.49114649332E+02  0.00000000000E+00 0. -1.
         23    2    1    2    0    0  0.00000000000E+00  0.00000000000E+00 -0.71665299458E+01  0.91062768717E+02  0.90780332093E+02 0.  0.
          2    1    3    3  502    0 -0.35476029625E+02  0.49396713376E-01 -0.31985948458E+02  0.47766641255E+02  0.00000000000E+00 0. -1.
         -2    1    3    3    0  502  0.35476029625E+02 -0.49396713376E-01  0.24819418513E+02  0.43296127463E+02  0.00000000000E+00 0.  1.
<mgrwt>
<rscale>  0 0.90780332E+02</rscale>
<asrwt>0</asrwt>
<pdfrwt beam="2">  1        1 0.75560999E-02 0.90780332E+02</pdfrwt>
<pdfrwt beam="1">  1       -1 0.64535568E-02 0.90780332E+02</pdfrwt>
<totfact> 0.94659173E+04</totfact>
</mgrwt>
</event>
<event>
 5    1  0.3963873E+001  0.8298705E+02  0.7546771E-02  0.1320782E+00
          1   -1    0    0  501    0  0.00000000000E+00  0.00000000000E+00  0.11298629986E+02  0.11298629986E+02  0.00000000000E+00 0. -1.
         -1   -1    0    0    0  501 -0.00000000000E+00 -0.00000000000E+00 -0.15238243393E+03  0.15238243393E+03  0.00000000000E+00 0.  1.
         23    2    1    2    0    0  0.00000000000E+00  0.00000000000E+00 -0.14108380394E+03  0.16368106391E+03  0.82987052902E+02 0.  0.
          2    1    3    3  502    0 -0.92783209161E+01 -0.29570072761E+02 -0.16123242305E+02  0.34934730348E+02  0.00000000000E+00 0. -1.
         -2    1    3    3    0  502  0.92783209161E+01  0.29570072761E+02 -0.12496056164E+03  0.12874633356E+03  0.00000000000E+00 0.  1.
<mgrwt>
<rscale>  0 0.82987053E+02</rscale>
<asrwt>0</asrwt>
<pdfrwt beam="1">  1        1 0.17382510E-02 0.82987053E+02</pdfrwt>
<pdfrwt beam="2">  1       -1 0.23443448E-01 0.82987053E+02</pdfrwt>
<totfact> 0.95061057E+04</totfact>
</mgrwt>
</event>
<event>
 5    1  0.3963873E+001  0.9481153E+02  0.7546771E-02  0.1291601E+00
          1   -1    0    0  501    0  0.00000000000E+00  0.00000000000E+00  0.45465884468E+02  0.45465884468E+02  0.00000000000E+00 0. -1.
         -1   -1    0    0    0  501 -0.00000000000E+00 -0.00000000000E+00 -0.49428417479E+02  0.49428417479E+02  0.00000000000E+00 0.  1.
         23    2    1    2    0    0  0.00000000000E+00  0.00000000000E+00 -0.39625330110E+01  0.94894301948E+02  0.94811533445E+02 0.  0.
          2    1    3    3  502    0  0.38415988067E+02 -0.14700011272E+02 -0.25569365751E+02  0.48432127100E+02  0.00000000000E+00 0.  1.
         -2    1    3    3    0  502 -0.38415988067E+02  0.14700011272E+02  0.21606832740E+02  0.46462174848E+02  0.00000000000E+00 0. -1.
<mgrwt>
<rscale>  0 0.94811533E+02</rscale>
<asrwt>0</asrwt>
<pdfrwt beam="1">  1        1 0.69947514E-02 0.94811533E+02</pdfrwt>
<pdfrwt beam="2">  1       -1 0.76043720E-02 0.94811533E+02</pdfrwt>
<totfact> 0.82790674E+04</totfact>
</mgrwt>
</event>
<event>
 5    1  0.3963873E+001  0.8958142E+02  0.7546771E-02  0.1303869E+00
          3   -1    0    0  501    0  0.00000000000E+00  0.00000000000E+00  0.37462723222E+02  0.37462723222E+02  0.00000000000E+00 0. -1.
         -3   -1    0    0    0  501 -0.00000000000E+00 -0.00000000000E+00 -0.53552107881E+02  0.53552107881E+02  0.00000000000E+00 0.  1.
         23    2    1    2    0    0  0.00000000000E+00  0.00000000000E+00 -0.16089384659E+02  0.91014831103E+02  0.89581422081E+02 0.  0.
          2    1    3    3  502    0  0.27857205170E+02 -0.14897306082E+02  0.24216412187E+02  0.39804374478E+02  0.00000000000E+00 0. -1.
         -2    1    3    3    0  502 -0.27857205170E+02  0.14897306082E+02 -0.40305796846E+02  0.51210456625E+02  0.00000000000E+00 0.  1.
<mgrwt>
<rscale>  0 0.89581422E+02</rscale>
<asrwt>0</asrwt>
<pdfrwt beam="1">  1        3 0.57634959E-02 0.89581422E+02</pdfrwt>
<pdfrwt beam="2">  1       -3 0.82387859E-02 0.89581422E+02</pdfrwt>
<totfact> 0.37089278E+04</totfact>
</mgrwt>
</event>
<event>
 5    1  0.3963873E+001  0.9104556E+02  0.7546771E-02  0.1300339E+00
          2   -1    0    0  501    0  0.00000000000E+00  0.00000000000E+00  0.53735120532E+02  0.53735120532E+02  0.00000000000E+00 0. -1.
         -2   -1    0    0    0  501 -0.00000000000E+00 -0.00000000000E+00 -0.38565530697E+02  0.38565530697E+02  0.00000000000E+00 0.  1.
         23    2    1    2    0    0  0.00000000000E+00  0.00000000000E+00  0.15169589835E+02  0.92300651229E+02  0.91045558714E+02 0.  0.
          2    1    3    3  502    0  0.26235314314E+02 -0.18667795222E+02 -0.25038702522E+02  0.40788661655E+02  0.00000000000E+00 0.  1.
         -2    1    3    3    0  502 -0.26235314314E+02  0.18667795222E+02  0.40208292357E+02  0.51511989574E+02  0.00000000000E+00 0. -1.
<mgrwt>
<rscale>  0 0.91045559E+02</rscale>
<asrwt>0</asrwt>
<pdfrwt beam="1">  1        2 0.82669415E-02 0.91045559E+02</pdfrwt>
<pdfrwt beam="2">  1       -2 0.59331586E-02 0.91045559E+02</pdfrwt>
<totfact> 0.10342885E+05</totfact>
</mgrwt>
</event>
<event>
 5    1  0.3963873E+001  0.9436329E+02  0.7546771E-02  0.1292617E+00
          2   -1    0    0  501    0  0.00000000000E+00  0.00000000000E+00  0.10691721005E+04  0.10691721005E+04  0.00000000000E+00 0. -1.
         -2   -1    0    0    0  501 -0.00000000000E+00 -0.00000000000E+00 -0.20820852912E+01  0.20820852912E+01  0.00000000000E+00 0.  1.
         23    2    1    2    0    0  0.00000000000E+00  0.00000000000E+00  0.10670900152E+04  0.10712541858E+04  0.94363287441E+02 0.  0.
          2    1    3    3  502    0  0.19598651600E+02 -0.40153216527E+02  0.70560839134E+03  0.70702163324E+03  0.00000000000E+00 0. -1.
         -2    1    3    3    0  502 -0.19598651600E+02  0.40153216527E+02  0.36148162385E+03  0.36423255253E+03  0.00000000000E+00 0.  1.
<mgrwt>
<rscale>  0 0.94363287E+02</rscale>
<asrwt>0</asrwt>
<pdfrwt beam="1">  1        2 0.16448758E+00 0.94363287E+02</pdfrwt>
<pdfrwt beam="2">  1       -2 0.32032167E-03 0.94363287E+02</pdfrwt>
<totfact> 0.22864514E+05</totfact>
</mgrwt>
</event>
<event>
 5    1  0.3963873E+001  0.9239092E+02  0.7546771E-02  0.1297163E+00
          2   -1    0    0  501    0  0.00000000000E+00  0.00000000000E+00  0.21081202590E+02  0.21081202590E+02  0.00000000000E+00 0. -1.
         -2   -1    0    0    0  501 -0.00000000000E+00 -0.00000000000E+00 -0.10122859455E+03  0.10122859455E+03  0.00000000000E+00 0.  1.
         23    2    1    2    0    0  0.00000000000E+00  0.00000000000E+00 -0.80147391961E+02  0.12230979714E+03  0.92390919676E+02 0.  0.
          2    1    3    3  502    0 -0.26013778252E+02  0.25195673319E+02 -0.78039720992E+02  0.86033346241E+02  0.00000000000E+00 0.  1.
         -2    1    3    3    0  502  0.26013778252E+02 -0.25195673319E+02 -0.21076709693E+01  0.36276450900E+02  0.00000000000E+00 0. -1.
<mgrwt>
<rscale>  0 0.92390920E+02</rscale>
<asrwt>0</asrwt>
<pdfrwt beam="1">  1        2 0.32432619E-02 0.92390920E+02</pdfrwt>
<pdfrwt beam="2">  1       -2 0.15573630E-01 0.92390920E+02</pdfrwt>
<totfact> 0.76936807E+04</totfact>
</mgrwt>
</event>
<event>
 5    1  0.3963873E+001  0.9075036E+02  0.7546771E-02  0.1301045E+00
          2   -1    0    0  501    0  0.00000000000E+00  0.00000000000E+00  0.21928161720E+03  0.21928161720E+03  0.00000000000E+00 0. -1.
         -2   -1    0    0    0  501 -0.00000000000E+00 -0.00000000000E+00 -0.93893277791E+01  0.93893277791E+01  0.00000000000E+00 0.  1.
         23    2    1    2    0    0  0.00000000000E+00  0.00000000000E+00  0.20989228942E+03  0.22867094497E+03  0.90750360435E+02 0.  0.
          2    1    3    3  502    0  0.38763164236E+02 -0.15611952091E+02  0.14949647044E+03  0.15522728698E+03  0.00000000000E+00 0. -1.
         -2    1    3    3    0  502 -0.38763164236E+02  0.15611952091E+02  0.60395818981E+02  0.73443657998E+02  0.00000000000E+00 0.  1.
<mgrwt>
<rscale>  0 0.90750360E+02</rscale>
<asrwt>0</asrwt>
<pdfrwt beam="1">  1        2 0.33735630E-01 0.90750360E+02</pdfrwt>
<pdfrwt beam="2">  1       -2 0.14445121E-02 0.90750360E+02</pdfrwt>
<totfact> 0.16197476E+05</totfact>
</mgrwt>
</event>
<event>
 5    1  0.3963873E+001  0.9394990E+02  0.7546771E-02  0.1293559E+00
         -4   -1    0    0    0  501 -0.00000000000E+00  0.00000000000E+00  0.40078521697E+02  0.40078521697E+02  0.00000000000E+00 0.  1.
          4   -1    0    0  501    0  0.00000000000E+00 -0.00000000000E+00 -0.55058061505E+02  0.55058061505E+02  0.00000000000E+00 0. -1.
         23    2    1    2    0    0  0.00000000000E+00  0.00000000000E+00 -0.14979539808E+02  0.95136583201E+02  0.93949895425E+02 0.  0.
          2    1    3    3  502    0 -0.15696790336E+02  0.37518458001E+02 -0.31294609168E+02  0.51316434800E+02  0.00000000000E+00 0. -1.
         -2    1    3    3    0  502  0.15696790336E+02 -0.37518458001E+02  0.16315069360E+02  0.43820148401E+02  0.00000000000E+00 0.  1.
<mgrwt>
<rscale>  0 0.93949895E+02</rscale>
<asrwt>0</asrwt>
<pdfrwt beam="2">  1        4 0.84704710E-02 0.93949895E+02</pdfrwt>
<pdfrwt beam="1">  1       -4 0.61659264E-02 0.93949895E+02</pdfrwt>
<totfact> 0.24666767E+04</totfact>
</mgrwt>
</event>
<event>
 5    1  0.3963873E+001  0.8861514E+02  0.7546771E-02  0.1306240E+00
         -1   -1    0    0    0  501 -0.00000000000E+00  0.00000000000E+00  0.65223426471E+00  0.65223426471E+00  0.00000000000E+00 0.  1.
          1   -1    0    0  501    0  0.00000000000E+00 -0.00000000000E+00 -0.30099009666E+04  0.30099009666E+04  0.00000000000E+00 0. -1.
         23    2    1    2    0    0  0.00000000000E+00  0.00000000000E+00 -0.30092487323E+04  0.30105532009E+04  0.88615135136E+02 0.  0.
          2    1    3    3  502    0  0.35555548657E+02  0.13554091538E+02 -0.22757896086E+04  0.22761076980E+04  0.00000000000E+00 0. -1.
         -2    1    3    3    0  502 -0.35555548657E+02 -0.13554091538E+02 -0.73345912372E+03  0.73444550281E+03  0.00000000000E+00 0.  1.
<mgrwt>
<rscale>  0 0.88615135E+02</rscale>
<asrwt>0</asrwt>
<pdfrwt beam="2">  1        1 0.46306217E+00 0.88615135E+02</pdfrwt>
<pdfrwt beam="1">  1       -1 0.10034363E-03 0.88615135E+02</pdfrwt>
<totfact> 0.33567657E+04</totfact>
</mgrwt>
</event>
<event>
 5    1  0.3963873E+001  0.9036951E+02  0.7546771E-02  0.1301959E+00
          1   -1    0    0  501    0  0.00000000000E+00  0.00000000000E+00  0.37899141544E+02  0.37899141544E+02  0.00000000000E+00 0.  1.
         -1   -1    0    0    0  501 -0.00000000000E+00 -0.00000000000E+00 -0.53870937978E+02  0.53870937978E+02  0.00000000000E+00 0. -1.
         23    2    1    2    0    0  0.00000000000E+00  0.00000000000E+00 -0.15971796434E+02  0.91770079522E+02  0.90369514850E+02 0.  0.
          2    1    3    3  502    0 -0.12610861168E+02  0.41067401548E+02 -0.22206391051E+02  0.48359994756E+02  0.00000000000E+00 0. -1.
         -2    1    3    3    0  502  0.12610861168E+02 -0.41067401548E+02  0.62345946172E+01  0.43410084766E+02  0.00000000000E+00 0.  1.
<mgrwt>
<rscale>  0 0.90369515E+02</rscale>
<asrwt>0</asrwt>
<pdfrwt beam="1">  1        1 0.58306372E-02 0.90369515E+02</pdfrwt>
<pdfrwt beam="2">  1       -1 0.82878366E-02 0.90369515E+02</pdfrwt>
<totfact> 0.92211456E+04</totfact>
</mgrwt>
</event>
<event>
 5    1  0.3963873E+001  0.9070054E+02  0.7546771E-02  0.1301164E+00
          2   -1    0    0  501    0  0.00000000000E+00  0.00000000000E+00  0.11683722943E+03  0.11683722943E+03  0.00000000000E+00 0. -1.
         -2   -1    0    0    0  501 -0.00000000000E+00 -0.00000000000E+00 -0.17602667814E+02  0.17602667814E+02  0.00000000000E+00 0.  1.
         23    2    1    2    0    0  0.00000000000E+00  0.00000000000E+00  0.99234561620E+02  0.13443989725E+03  0.90700538874E+02 0.  0.
          2    1    3    3  502    0 -0.21214420141E+02  0.27095203754E+02  0.93398454066E+02  0.99536289414E+02  0.00000000000E+00 0. -1.
         -2    1    3    3    0  502  0.21214420141E+02 -0.27095203754E+02  0.58361075537E+01  0.34903607833E+02  0.00000000000E+00 0.  1.
<mgrwt>
<rscale>  0 0.90700539E+02</rscale>
<asrwt>0</asrwt>
<pdfrwt beam="1">  1        2 0.17974958E-01 0.90700539E+02</pdfrwt>
<pdfrwt beam="2">  1       -2 0.27081028E-02 0.90700539E+02</pdfrwt>
<totfact> 0.13061966E+05</totfact>
</mgrwt>
</event>
<event>
 5    1  0.3963873E+001  0.9027406E+02  0.7546771E-02  0.1302189E+00
          2   -1    0    0  501    0  0.00000000000E+00  0.00000000000E+00  0.97518174287E+02  0.97518174287E+02  0.00000000000E+00 0. -1.
         -2   -1    0    0    0  501 -0.00000000000E+00 -0.00000000000E+00 -0.20892019200E+02  0.20892019200E+02  0.00000000000E+00 0.  1.
         23    2    1    2    0    0  0.00000000000E+00  0.00000000000E+00  0.76626155086E+02  0.11841019349E+03  0.90274062046E+02 0.  0.
          2    1    3    3  502    0 -0.97758920231E+01  0.21868338367E+02  0.88493147814E+02  0.91677857184E+02  0.00000000000E+00 0. -1.
         -2    1    3    3    0  502  0.97758920231E+01 -0.21868338367E+02 -0.11866992728E+02  0.26732336303E+02  0.00000000000E+00 0.  1.
<mgrwt>
<rscale>  0 0.90274062E+02</rscale>
<asrwt>0</asrwt>
<pdfrwt beam="1">  1        2 0.15002796E-01 0.90274062E+02</pdfrwt>
<pdfrwt beam="2">  1       -2 0.32141569E-02 0.90274062E+02</pdfrwt>
<totfact> 0.12512412E+05</totfact>
</mgrwt>
</event>
<event>
 5    1  0.3963873E+001  0.9181284E+02  0.7546771E-02  0.1298520E+00
          4   -1    0    0  501    0  0.00000000000E+00  0.00000000000E+00  0.19737210670E+03  0.19737210670E+03  0.00000000000E+00 0.  1.
         -4   -1    0    0    0  501 -0.00000000000E+00 -0.00000000000E+00 -0.10677290140E+02  0.10677290140E+02  0.00000000000E+00 0. -1.
         23    2    1    2    0    0  0.00000000000E+00  0.00000000000E+00  0.18669481657E+03  0.20804939684E+03  0.91812836767E+02 0.  0.
          2    1    3    3  502    0 -0.97141405545E+01  0.44655976333E+02  0.10319311273E+03  0.11285982130E+03  0.00000000000E+00 0. -1.
         -2    1    3    3    0  502  0.97141405545E+01 -0.44655976333E+02  0.83501703837E+02  0.95189575546E+02  0.00000000000E+00 0.  1.
<mgrwt>
<rscale>  0 0.91812837E+02</rscale>
<asrwt>0</asrwt>
<pdfrwt beam="1">  1        4 0.30364937E-01 0.91812837E+02</pdfrwt>
<pdfrwt beam="2">  1       -4 0.16426602E-02 0.91812837E+02</pdfrwt>
<totfact> 0.20665816E+04</totfact>
</mgrwt>
</event>
<event>
 5    1  0.3963873E+001  0.9202385E+02  0.7546771E-02  0.1298023E+00
         -1   -1    0    0    0  501 -0.00000000000E+00  0.00000000000E+00  0.33557874172E+01  0.33557874172E+01  0.00000000000E+00 0.  1.
          1   -1    0    0  501    0  0.00000000000E+00 -0.00000000000E+00 -0.63087945628E+03  0.63087945628E+03  0.00000000000E+00 0. -1.
         23    2    1    2    0    0  0.00000000000E+00  0.00000000000E+00 -0.62752366886E+03  0.63423524370E+03  0.92023852150E+02 0.  0.
          2    1    3    3  502    0 -0.26958663492E+02 -0.10544096105E+02 -0.56025828680E+03  0.56100561087E+03  0.00000000000E+00 0. -1.
         -2    1    3    3    0  502  0.26958663492E+02  0.10544096105E+02 -0.67265382068E+02  0.73229632832E+02  0.00000000000E+00 0.  1.
<mgrwt>
<rscale>  0 0.92023852E+02</rscale>
<asrwt>0</asrwt>
<pdfrwt beam="2">  1        1 0.97058364E-01 0.92023852E+02</pdfrwt>
<pdfrwt beam="1">  1       -1 0.51627506E-03 0.92023852E+02</pdfrwt>
<totfact> 0.13850852E+05</totfact>
</mgrwt>
</event>
<event>
 5    1  0.3963873E+001  0.9005042E+02  0.7546771E-02  0.1302730E+00
          3   -1    0    0  501    0  0.00000000000E+00  0.00000000000E+00  0.51765484920E+02  0.51765484920E+02  0.00000000000E+00 0. -1.
         -3   -1    0    0    0  501 -0.00000000000E+00 -0.00000000000E+00 -0.39162568075E+02  0.39162568075E+02  0.00000000000E+00 0.  1.
         23    2    1    2    0    0  0.00000000000E+00  0.00000000000E+00  0.12602916845E+02  0.90928052994E+02  0.90050415370E+02 0.  0.
          2    1    3    3  502    0  0.35020805533E+01 -0.29085787568E+02  0.40825645528E+02  0.50249188446E+02  0.00000000000E+00 0. -1.
         -2    1    3    3    0  502 -0.35020805533E+01  0.29085787568E+02 -0.28222728683E+02  0.40678864549E+02  0.00000000000E+00 0.  1.
<mgrwt>
<rscale>  0 0.90050415E+02</rscale>
<asrwt>0</asrwt>
<pdfrwt beam="1">  1        3 0.79639207E-02 0.90050415E+02</pdfrwt>
<pdfrwt beam="2">  1       -3 0.60250105E-02 0.90050415E+02</pdfrwt>
<totfact> 0.36573634E+04</totfact>
</mgrwt>
</event>
<event>
 5    1  0.3963873E+001  0.9047317E+02  0.7546771E-02  0.1301710E+00
         -1   -1    0    0    0  501 -0.00000000000E+00  0.00000000000E+00  0.19712299531E+02  0.19712299531E+02  0.00000000000E+00 0.  1.
          1   -1    0    0  501    0  0.00000000000E+00 -0.00000000000E+00 -0.10381074761E+03  0.10381074761E+03  0.00000000000E+00 0. -1.
         23    2    1    2    0    0  0.00000000000E+00  0.00000000000E+00 -0.84098448079E+02  0.12352304714E+03  0.90473168430E+02 0.  0.
          2    1    3    3  502    0  0.32714927000E+02 -0.31042504247E+02 -0.46865664784E+02  0.65040710745E+02  0.00000000000E+00 0. -1.
         -2    1    3    3    0  502 -0.32714927000E+02  0.31042504247E+02 -0.37232783295E+02  0.58482336397E+02  0.00000000000E+00 0.  1.
<mgrwt>
<rscale>  0 0.90473168E+02</rscale>
<asrwt>0</asrwt>
<pdfrwt beam="2">  1        1 0.15970884E-01 0.90473168E+02</pdfrwt>
<pdfrwt beam="1">  1       -1 0.30326615E-02 0.90473168E+02</pdfrwt>
<totfact> 0.10734489E+05</totfact>
</mgrwt>
</event>
<event>
 5    1  0.3963873E+001  0.9050367E+02  0.7546771E-02  0.1301637E+00
         -1   -1    0    0    0  501 -0.00000000000E+00  0.00000000000E+00  0.32050123615E+01  0.32050123615E+01  0.00000000000E+00 0.  1.
          1   -1    0    0  501    0  0.00000000000E+00 -0.00000000000E+00 -0.63891436822E+03  0.63891436822E+03  0.00000000000E+00 0. -1.
         23    2    1    2    0    0  0.00000000000E+00  0.00000000000E+00 -0.63570935586E+03  0.64211938058E+03  0.90503667287E+02 0.  0.
          2    1    3    3  502    0 -0.12384492033E+02 -0.24123318456E+02 -0.57488581721E+03  0.57552498900E+03  0.00000000000E+00 0. -1.
         -2    1    3    3    0  502  0.12384492033E+02  0.24123318456E+02 -0.60823538655E+02  0.66594391587E+02  0.00000000000E+00 0.  1.
<mgrwt>
<rscale>  0 0.90503667E+02</rscale>
<asrwt>0</asrwt>
<pdfrwt beam="2">  1        1 0.98294506E-01 0.90503667E+02</pdfrwt>
<pdfrwt beam="1">  1       -1 0.49307889E-03 0.90503667E+02</pdfrwt>
<totfact> 0.14481850E+05</totfact>
</mgrwt>
</event>
<event>
 5    1  0.3963873E+001  0.8078463E+02  0.7546771E-02  0.1326839E+00
         -1   -1    0    0    0  501 -0.00000000000E+00  0.00000000000E+00  0.53475331528E+01  0.53475331528E+01  0.00000000000E+00 0.  1.
          1   -1    0    0  501    0  0.00000000000E+00 -0.00000000000E+00 -0.30510126623E+03  0.30510126623E+03  0.00000000000E+00 0. -1.
         23    2    1    2    0    0  0.00000000000E+00  0.00000000000E+00 -0.29975373307E+03  0.31044879938E+03  0.80784630620E+02 0.  0.
          2    1    3    3  502    0 -0.23222082683E+02  0.27485982969E+02 -0.22040199713E+03  0.22331991564E+03  0.00000000000E+00 0. -1.
         -2    1    3    3    0  502  0.23222082683E+02 -0.27485982969E+02 -0.79351735947E+02  0.87128883740E+02  0.00000000000E+00 0.  1.
<mgrwt>
<rscale>  0 0.80784631E+02</rscale>
<asrwt>0</asrwt>
<pdfrwt beam="2">  1        1 0.46938659E-01 0.80784631E+02</pdfrwt>
<pdfrwt beam="1">  1       -1 0.82269736E-03 0.80784631E+02</pdfrwt>
<totfact> 0.17704970E+05</totfact>
</mgrwt>
</event>
<event>
 5    1  0.3963873E+001  0.8927919E+02  0.7546771E-02  0.1304607E+00
          1   -1    0    0  501    0  0.00000000000E+00  0.00000000000E+00  0.30160383056E+03  0.30160383056E+03  0.00000000000E+00 0. -1.
         -1   -1    0    0    0  501 -0.00000000000E+00 -0.00000000000E+00 -0.66069896146E+01  0.66069896146E+01  0.00000000000E+00 0.  1.
         23    2    1    2    0    0  0.00000000000E+00  0.00000000000E+00  0.29499684095E+03  0.30821082018E+03  0.89279188533E+02 0.  0.
          2    1    3    3  502    0 -0.25166329267E+01  0.21882437549E+02  0.13460085541E+02  0.25813725363E+02  0.00000000000E+00 0.  1.
         -2    1    3    3    0  502  0.25166329267E+01 -0.21882437549E+02  0.28153675541E+03  0.28239709481E+03  0.00000000000E+00 0. -1.
<mgrwt>
<rscale>  0 0.89279189E+02</rscale>
<asrwt>0</asrwt>
<pdfrwt beam="1">  1        1 0.46400579E-01 0.89279189E+02</pdfrwt>
<pdfrwt beam="2">  1       -1 0.10164602E-02 0.89279189E+02</pdfrwt>
<totfact> 0.13563203E+05</totfact>
</mgrwt>
</event>
<event>
 5    1  0.3963873E+001  0.9216711E+02  0.7546771E-02  0.1297687E+00
          2   -1    0    0  501    0  0.00000000000E+00  0.00000000000E+00  0.31784208286E+02  0.31784208286E+02  0.00000000000E+00 0. -1.
         -2   -1    0    0    0  501 -0.00000000000E+00 -0.00000000000E+00 -0.66816013312E+02  0.66816013312E+02  0.00000000000E+00 0.  1.
         23    2    1    2    0    0  0.00000000000E+00  0.00000000000E+00 -0.35031805026E+02  0.98600221598E+02  0.92167110923E+02 0.  0.
          2    1    3    3  502    0 -0.20517164302E+02  0.31069826575E+02  0.11534705708E+02  0.38978681227E+02  0.00000000000E+00 0. -1.
         -2    1    3    3    0  502  0.20517164302E+02 -0.31069826575E+02 -0.46566510733E+02  0.59621540372E+02  0.00000000000E+00 0.  1.
<mgrwt>
<rscale>  0 0.92167111E+02</rscale>
<asrwt>0</asrwt>
<pdfrwt beam="1">  1        2 0.48898782E-02 0.92167111E+02</pdfrwt>
<pdfrwt beam="2">  1       -2 0.10279387E-01 0.92167111E+02</pdfrwt>
<totfact> 0.87008149E+04</totfact>
</mgrwt>
</event>
<event>
 5    1  0.3963873E+001  0.9133752E+02  0.7546771E-02  0.1299645E+00
          2   -1    0    0  501    0  0.00000000000E+00  0.00000000000E+00  0.44889757569E+03  0.44889757569E+03  0.00000000000E+00 0.  1.
         -2   -1    0    0    0  501 -0.00000000000E+00 -0.00000000000E+00 -0.46461285757E+01  0.46461285757E+01  0.00000000000E+00 0. -1.
         23    2    1    2    0    0  0.00000000000E+00  0.00000000000E+00  0.44425144711E+03  0.45354370426E+03  0.91337524687E+02 0.  0.
          2    1    3    3  502    0 -0.26274159517E+02  0.30637576795E+02  0.32823624343E+03  0.33070836710E+03  0.00000000000E+00 0. -1.
         -2    1    3    3    0  502  0.26274159517E+02 -0.30637576795E+02  0.11601520368E+03  0.12283533716E+03  0.00000000000E+00 0.  1.
<mgrwt>
<rscale>  0 0.91337525E+02</rscale>
<asrwt>0</asrwt>
<pdfrwt beam="1">  1        2 0.69061131E-01 0.91337525E+02</pdfrwt>
<pdfrwt beam="2">  1       -2 0.71478937E-03 0.91337525E+02</pdfrwt>
<totfact> 0.20689675E+05</totfact>
</mgrwt>
</event>
<event>
 5    1  0.3963873E+001  0.8989374E+02  0.7546771E-02  0.1303109E+00
          2   -1    0    0  501    0  0.00000000000E+00  0.00000000000E+00  0.25712218659E+02  0.25712218659E+02  0.00000000000E+00 0. -1.
         -2   -1    0    0    0  501 -0.00000000000E+00 -0.00000000000E+00 -0.78570467119E+02  0.78570467119E+02  0.00000000000E+00 0.  1.
         23    2    1    2    0    0  0.00000000000E+00  0.00000000000E+00 -0.52858248461E+02  0.10428268578E+03  0.89893737951E+02 0.  0.
          2    1    3    3  502    0  0.22813860953E+02 -0.15595392110E+02  0.14692440840E+02  0.31297864536E+02  0.00000000000E+00 0. -1.
         -2    1    3    3    0  502 -0.22813860953E+02  0.15595392110E+02 -0.67550689301E+02  0.72984821242E+02  0.00000000000E+00 0.  1.
<mgrwt>
<rscale>  0 0.89893738E+02</rscale>
<asrwt>0</asrwt>
<pdfrwt beam="1">  1        2 0.39557260E-02 0.89893738E+02</pdfrwt>
<pdfrwt beam="2">  1       -2 0.12087764E-01 0.89893738E+02</pdfrwt>
<totfact> 0.88526822E+04</totfact>
</mgrwt>
</event>
<event>
 5    1  0.3963873E+001  0.6608270E+02  0.7546771E-02  0.1373944E+00
         -3   -1    0    0    0  501 -0.00000000000E+00  0.00000000000E+00  0.77621972921E+01  0.77621972921E+01  0.00000000000E+00 0.  1.
          3   -1    0    0  501    0  0.00000000000E+00 -0.00000000000E+00 -0.14064714703E+03  0.14064714703E+03  0.00000000000E+00 0. -1.
         23    2    1    2    0    0  0.00000000000E+00  0.00000000000E+00 -0.13288494974E+03  0.14840934432E+03  0.66082702844E+02 0.  0.
          2    1    3    3  502    0 -0.26292624113E+02 -0.13793354580E+02 -0.99000726394E+02  0.10335716008E+03  0.00000000000E+00 0. -1.
         -2    1    3    3    0  502  0.26292624113E+02  0.13793354580E+02 -0.33884223341E+02  0.45052184239E+02  0.00000000000E+00 0.  1.
<mgrwt>
<rscale>  0 0.66082703E+02</rscale>
<asrwt>0</asrwt>
<pdfrwt beam="2">  1        3 0.21638024E-01 0.66082703E+02</pdfrwt>
<pdfrwt beam="1">  1       -3 0.11941841E-02 0.66082703E+02</pdfrwt>
<totfact> 0.73761550E+04</totfact>
</mgrwt>
</event>
<event>
 5    1  0.3963873E+001  0.8789411E+02  0.7546771E-02  0.1308033E+00
          2   -1    0    0  501    0  0.00000000000E+00  0.00000000000E+00  0.13465613378E+04  0.13465613378E+04  0.00000000000E+00 0. -1.
         -2   -1    0    0    0  501 -0.00000000000E+00 -0.00000000000E+00 -0.14342783774E+01  0.14342783774E+01  0.00000000000E+00 0.  1.
         23    2    1    2    0    0  0.00000000000E+00  0.00000000000E+00  0.13451270594E+04  0.13479956162E+04  0.87894113809E+02 0.  0.
          2    1    3    3  502    0  0.29417614088E+02 -0.30487487598E+02  0.85172012104E+03  0.85277315125E+03  0.00000000000E+00 0. -1.
         -2    1    3    3    0  502 -0.29417614088E+02  0.30487487598E+02  0.49340693838E+03  0.49522246492E+03  0.00000000000E+00 0.  1.
<mgrwt>
<rscale>  0 0.87894114E+02</rscale>
<asrwt>0</asrwt>
<pdfrwt beam="1">  1        2 0.20716227E+00 0.87894114E+02</pdfrwt>
<pdfrwt beam="2">  1       -2 0.22065929E-03 0.87894114E+02</pdfrwt>
<totfact> 0.26852845E+05</totfact>
</mgrwt>
</event>
<event>
 5    1  0.3963873E+001  0.9111673E+02  0.7546771E-02  0.1300170E+00
          1   -1    0    0  501    0  0.00000000000E+00  0.00000000000E+00  0.10805324172E+04  0.10805324172E+04  0.00000000000E+00 0. -1.
         -1   -1    0    0    0  501 -0.00000000000E+00 -0.00000000000E+00 -0.19208720313E+01  0.19208720313E+01  0.00000000000E+00 0.  1.
         23    2    1    2    0    0  0.00000000000E+00  0.00000000000E+00  0.10786115452E+04  0.10824532893E+04  0.91116727315E+02 0.  0.
          2    1    3    3  502    0  0.38821504486E+02 -0.10461641160E+02  0.79382571676E+03  0.79484326992E+03  0.00000000000E+00 0. -1.
         -2    1    3    3    0  502 -0.38821504486E+02  0.10461641160E+02  0.28478582843E+03  0.28761001933E+03  0.00000000000E+00 0.  1.
<mgrwt>
<rscale>  0 0.91116727E+02</rscale>
<asrwt>0</asrwt>
<pdfrwt beam="1">  1        1 0.16623527E+00 0.91116727E+02</pdfrwt>
<pdfrwt beam="2">  1       -1 0.29551964E-03 0.91116727E+02</pdfrwt>
<totfact> 0.13307281E+05</totfact>
</mgrwt>
</event>
<event>
 5    1  0.3963873E+001  0.8918950E+02  0.7546771E-02  0.1304826E+00
         -2   -1    0    0    0  501 -0.00000000000E+00  0.00000000000E+00  0.73127150346E+00  0.73127150346E+00  0.00000000000E+00 0.  1.
          2   -1    0    0  501    0  0.00000000000E+00 -0.00000000000E+00 -0.27194983280E+04  0.27194983280E+04  0.00000000000E+00 0. -1.
         23    2    1    2    0    0  0.00000000000E+00  0.00000000000E+00 -0.27187670565E+04  0.27202295995E+04  0.89189497834E+02 0.  0.
          2    1    3    3  502    0 -0.65906769234E+01  0.42078138820E+02 -0.17624897062E+04  0.17630042459E+04  0.00000000000E+00 0. -1.
         -2    1    3    3    0  502  0.65906769234E+01 -0.42078138820E+02 -0.95627735032E+03  0.95722535357E+03  0.00000000000E+00 0.  1.
<mgrwt>
<rscale>  0 0.89189498E+02</rscale>
<asrwt>0</asrwt>
<pdfrwt beam="2">  1        2 0.41839370E+00 0.89189498E+02</pdfrwt>
<pdfrwt beam="1">  1       -2 0.11250080E-03 0.89189498E+02</pdfrwt>
<totfact> 0.13510754E+05</totfact>
</mgrwt>
</event>
<event>
 5    1  0.3963873E+001  0.9164196E+02  0.7546771E-02  0.1298923E+00
         -4   -1    0    0    0  501 -0.00000000000E+00  0.00000000000E+00  0.48630440825E+02  0.48630440825E+02  0.00000000000E+00 0.  1.
          4   -1    0    0  501    0  0.00000000000E+00 -0.00000000000E+00 -0.43173827084E+02  0.43173827084E+02  0.00000000000E+00 0. -1.
         23    2    1    2    0    0  0.00000000000E+00  0.00000000000E+00  0.54566137408E+01  0.91804267909E+02  0.91641960764E+02 0.  0.
          2    1    3    3  502    0 -0.15856957300E+02 -0.42915760117E+02  0.20259537669E+00  0.45752012044E+02  0.00000000000E+00 0. -1.
         -2    1    3    3    0  502  0.15856957300E+02  0.42915760117E+02  0.52540183641E+01  0.46052255864E+02  0.00000000000E+00 0.  1.
<mgrwt>
<rscale>  0 0.91641961E+02</rscale>
<asrwt>0</asrwt>
<pdfrwt beam="2">  1        4 0.66421272E-02 0.91641961E+02</pdfrwt>
<pdfrwt beam="1">  1       -4 0.74816063E-02 0.91641961E+02</pdfrwt>
<totfact> 0.26604976E+04</totfact>
</mgrwt>
</event>
<event>
 5    1  0.3963873E+001  0.9137046E+02  0.7546771E-02  0.1299566E+00
          4   -1    0    0  501    0  0.00000000000E+00  0.00000000000E+00  0.84017735158E+02  0.84017735158E+02  0.00000000000E+00 0. -1.
         -4   -1    0    0    0  501 -0.00000000000E+00 -0.00000000000E+00 -0.24841660245E+02  0.24841660245E+02  0.00000000000E+00 0.  1.
         23    2    1    2    0    0  0.00000000000E+00  0.00000000000E+00  0.59176074913E+02  0.10885939540E+03  0.91370455429E+02 0.  0.
          2    1    3    3  502    0  0.44017036950E+02 -0.93535215126E+01  0.38980687008E+02  0.59535551279E+02  0.00000000000E+00 0. -1.
         -2    1    3    3    0  502 -0.44017036950E+02  0.93535215126E+01  0.20195387905E+02  0.49323844124E+02  0.00000000000E+00 0.  1.
<mgrwt>
<rscale>  0 0.91370455E+02</rscale>
<asrwt>0</asrwt>
<pdfrwt beam="1">  1        4 0.12925805E-01 0.91370455E+02</pdfrwt>
<pdfrwt beam="2">  1       -4 0.38217939E-02 0.91370455E+02</pdfrwt>
<totfact> 0.25771951E+04</totfact>
</mgrwt>
</event>
<event>
 5    1  0.3963873E+001  0.9091532E+02  0.7546771E-02  0.1300650E+00
          1   -1    0    0  501    0  0.00000000000E+00  0.00000000000E+00  0.81327552789E+03  0.81327552789E+03  0.00000000000E+00 0. -1.
         -1   -1    0    0    0  501 -0.00000000000E+00 -0.00000000000E+00 -0.25408347117E+01  0.25408347117E+01  0.00000000000E+00 0.  1.
         23    2    1    2    0    0  0.00000000000E+00  0.00000000000E+00  0.81073469317E+03  0.81581636260E+03  0.90915316453E+02 0.  0.
          2    1    3    3  502    0 -0.23146073497E+02 -0.18026246722E+01  0.75606508151E+03  0.75642144183E+03  0.00000000000E+00 0. -1.
         -2    1    3    3    0  502  0.23146073497E+02  0.18026246722E+01  0.54669611661E+02  0.59394920769E+02  0.00000000000E+00 0.  1.
<mgrwt>
<rscale>  0 0.90915316E+02</rscale>
<asrwt>0</asrwt>
<pdfrwt beam="1">  1        1 0.12511910E+00 0.90915316E+02</pdfrwt>
<pdfrwt beam="2">  1       -1 0.39089830E-03 0.90915316E+02</pdfrwt>
<totfact> 0.14215859E+05</totfact>
</mgrwt>
</event>
<event>
 5    1  0.3963873E+001  0.9162863E+02  0.7546771E-02  0.1298955E+00
          1   -1    0    0  501    0  0.00000000000E+00  0.00000000000E+00  0.13062918024E+04  0.13062918024E+04  0.00000000000E+00 0. -1.
         -1   -1    0    0    0  501 -0.00000000000E+00 -0.00000000000E+00 -0.16068013009E+01  0.16068013009E+01  0.00000000000E+00 0.  1.
         23    2    1    2    0    0  0.00000000000E+00  0.00000000000E+00  0.13046850011E+04  0.13078986037E+04  0.91628628003E+02 0.  0.
          2    1    3    3  502    0  0.15140880227E+02 -0.19130801410E+02  0.12058532082E+04  0.12060999932E+04  0.00000000000E+00 0. -1.
         -2    1    3    3    0  502 -0.15140880227E+02  0.19130801410E+02  0.98831792869E+02  0.10179861049E+03  0.00000000000E+00 0.  1.
<mgrwt>
<rscale>  0 0.91628628E+02</rscale>
<asrwt>0</asrwt>
<pdfrwt beam="1">  1        1 0.20096712E+00 0.91628628E+02</pdfrwt>
<pdfrwt beam="2">  1       -1 0.24720124E-03 0.91628628E+02</pdfrwt>
<totfact> 0.12014324E+05</totfact>
</mgrwt>
</event>
<event>
 5    1  0.3963873E+001  0.9332716E+02  0.7546771E-02  0.1294989E+00
         -1   -1    0    0    0  501 -0.00000000000E+00  0.00000000000E+00  0.15513196601E+01  0.15513196601E+01  0.00000000000E+00 0.  1.
          1   -1    0    0  501    0  0.00000000000E+00 -0.00000000000E+00 -0.14036370986E+04  0.14036370986E+04  0.00000000000E+00 0. -1.
         23    2    1    2    0    0  0.00000000000E+00  0.00000000000E+00 -0.14020857789E+04  0.14051884183E+04  0.93327162749E+02 0.  0.
          2    1    3    3  502    0  0.27278603529E+02 -0.34882789646E+02 -0.47947122562E+03  0.48151177288E+03  0.00000000000E+00 0.  1.
         -2    1    3    3    0  502 -0.27278603529E+02  0.34882789646E+02 -0.92261455333E+03  0.92367664539E+03  0.00000000000E+00 0. -1.
<mgrwt>
<rscale>  0 0.93327163E+02</rscale>
<asrwt>0</asrwt>
<pdfrwt beam="2">  1        1 0.21594373E+00 0.93327163E+02</pdfrwt>
<pdfrwt beam="1">  1       -1 0.23866505E-03 0.93327163E+02</pdfrwt>
<totfact> 0.10926275E+05</totfact>
</mgrwt>
</event>
<event>
 5    1  0.3963873E+001  0.8664472E+02  0.7546771E-02  0.1311187E+00
         -1   -1    0    0    0  501 -0.00000000000E+00  0.00000000000E+00  0.22506197982E+01  0.22506197982E+01  0.00000000000E+00 0.  1.
          1   -1    0    0  501    0  0.00000000000E+00 -0.00000000000E+00 -0.83391549818E+03  0.83391549818E+03  0.00000000000E+00 0. -1.
         23    2    1    2    0    0  0.00000000000E+00  0.00000000000E+00 -0.83166487838E+03  0.83616611798E+03  0.86644716636E+02 0.  0.
          2    1    3    3  502    0 -0.40814607126E+02  0.68832284717E+01 -0.53927445978E+03  0.54086056794E+03  0.00000000000E+00 0. -1.
         -2    1    3    3    0  502  0.40814607126E+02 -0.68832284717E+01 -0.29239041860E+03  0.29530555003E+03  0.00000000000E+00 0.  1.
<mgrwt>
<rscale>  0 0.86644717E+02</rscale>
<asrwt>0</asrwt>
<pdfrwt beam="2">  1        1 0.12829483E+00 0.86644717E+02</pdfrwt>
<pdfrwt beam="1">  1       -1 0.34624883E-03 0.86644717E+02</pdfrwt>
<totfact> 0.16095537E+05</totfact>
</mgrwt>
</event>
<event>
 5    1  0.3963873E+001  0.9007929E+02  0.7546771E-02  0.1302660E+00
          3   -1    0    0  501    0  0.00000000000E+00  0.00000000000E+00  0.20386766958E+03  0.20386766958E+03  0.00000000000E+00 0. -1.
         -3   -1    0    0    0  501 -0.00000000000E+00 -0.00000000000E+00 -0.99504229751E+01  0.99504229751E+01  0.00000000000E+00 0.  1.
         23    2    1    2    0    0  0.00000000000E+00  0.00000000000E+00  0.19391724660E+03  0.21381809255E+03  0.90079288257E+02 0.  0.
          2    1    3    3  502    0  0.43859634621E+02  0.10078086351E+02  0.92624379365E+02  0.10297820656E+03  0.00000000000E+00 0.  1.
         -2    1    3    3    0  502 -0.43859634621E+02 -0.10078086351E+02  0.10129286724E+03  0.11083988599E+03  0.00000000000E+00 0. -1.
<mgrwt>
<rscale>  0 0.90079288E+02</rscale>
<asrwt>0</asrwt>
<pdfrwt beam="1">  1        3 0.31364254E-01 0.90079288E+02</pdfrwt>
<pdfrwt beam="2">  1       -3 0.15308345E-02 0.90079288E+02</pdfrwt>
<totfact> 0.28720372E+04</totfact>
</mgrwt>
</event>
<event>
 5    1  0.3963873E+001  0.8751389E+02  0.7546771E-02  0.1308986E+00
         -4   -1    0    0    0  501 -0.00000000000E+00  0.00000000000E+00  0.23747582643E+03  0.23747582643E+03  0.00000000000E+00 0.  1.
          4   -1    0    0  501    0  0.00000000000E+00 -0.00000000000E+00 -0.80625903933E+01  0.80625903933E+01  0.00000000000E+00 0. -1.
         23    2    1    2    0    0  0.00000000000E+00  0.00000000000E+00  0.22941323604E+03  0.24553841683E+03  0.87513891853E+02 0.  0.
          2    1    3    3  502    0  0.17017932567E+02 -0.35719694369E+02  0.16713385989E+03  0.17175340962E+03  0.00000000000E+00 0. -1.
         -2    1    3    3    0  502 -0.17017932567E+02  0.35719694369E+02  0.62279376146E+02  0.73785007202E+02  0.00000000000E+00 0.  1.
<mgrwt>
<rscale>  0 0.87513892E+02</rscale>
<asrwt>0</asrwt>
<pdfrwt beam="2">  1        4 0.12403987E-02 0.87513892E+02</pdfrwt>
<pdfrwt beam="1">  1       -4 0.36534737E-01 0.87513892E+02</pdfrwt>
<totfact> 0.21880066E+04</totfact>
</mgrwt>
</event>
<event>
 5    1  0.3963873E+001  0.1120300E+03  0.7546771E-02  0.1256856E+00
          3   -1    0    0  501    0  0.00000000000E+00  0.00000000000E+00  0.51887632491E+02  0.51887632491E+02  0.00000000000E+00 0. -1.
         -3   -1    0    0    0  501 -0.00000000000E+00 -0.00000000000E+00 -0.60470659782E+02  0.60470659782E+02  0.00000000000E+00 0.  1.
         23    2    1    2    0    0  0.00000000000E+00  0.00000000000E+00 -0.85830272913E+01  0.11235829227E+03  0.11202998476E+03 0.  0.
          2    1    3    3  502    0  0.51660128341E+02  0.17060465173E+02  0.90836485235E+01  0.55157420195E+02  0.00000000000E+00 0. -1.
         -2    1    3    3    0  502 -0.51660128341E+02 -0.17060465173E+02 -0.17666675815E+02  0.57200872078E+02  0.00000000000E+00 0.  1.
<mgrwt>
<rscale>  0 0.11202998E+03</rscale>
<asrwt>0</asrwt>
<pdfrwt beam="1">  1        3 0.79827128E-02 0.11202998E+03</pdfrwt>
<pdfrwt beam="2">  1       -3 0.93031783E-02 0.11202998E+03</pdfrwt>
<totfact> 0.19156655E+04</totfact>
</mgrwt>
</event>
<event>
 5    1  0.3963873E+001  0.8415669E+02  0.7546771E-02  0.1317653E+00
          1   -1    0    0  501    0  0.00000000000E+00  0.00000000000E+00  0.16844870967E+04  0.16844870967E+04  0.00000000000E+00 0. -1.
         -1   -1    0    0    0  501 -0.00000000000E+00 -0.00000000000E+00 -0.10511134325E+01  0.10511134325E+01  0.00000000000E+00 0.  1.
         23    2    1    2    0    0  0.00000000000E+00  0.00000000000E+00  0.16834359833E+04  0.16855382101E+04  0.84156687536E+02 0.  0.
          2    1    3    3  502    0 -0.31638571001E+02  0.21511425637E+02  0.11925591125E+04  0.11931726520E+04  0.00000000000E+00 0. -1.
         -2    1    3    3    0  502  0.31638571001E+02 -0.21511425637E+02  0.49087687074E+03  0.49236555814E+03  0.00000000000E+00 0.  1.
<mgrwt>
<rscale>  0 0.84156688E+02</rscale>
<asrwt>0</asrwt>
<pdfrwt beam="1">  1        1 0.25914970E+00 0.84156688E+02</pdfrwt>
<pdfrwt beam="2">  1       -1 0.16171111E-03 0.84156688E+02</pdfrwt>
<totfact> 0.12254465E+05</totfact>
</mgrwt>
</event>
<event>
 5    1  0.3963873E+001  0.9074500E+02  0.7546771E-02  0.1301058E+00
         -3   -1    0    0    0  501 -0.00000000000E+00  0.00000000000E+00  0.74306909181E+02  0.74306909181E+02  0.00000000000E+00 0.  1.
          3   -1    0    0  501    0  0.00000000000E+00 -0.00000000000E+00 -0.27704878625E+02  0.27704878625E+02  0.00000000000E+00 0. -1.
         23    2    1    2    0    0  0.00000000000E+00  0.00000000000E+00  0.46602030556E+02  0.10201178781E+03  0.90745003166E+02 0.  0.
          2    1    3    3  502    0 -0.25593173279E+02  0.26351907311E+02  0.53238912876E+02  0.64682419417E+02  0.00000000000E+00 0.  1.
         -2    1    3    3    0  502  0.25593173279E+02 -0.26351907311E+02 -0.66368823208E+01  0.37329368389E+02  0.00000000000E+00 0. -1.
<mgrwt>
<rscale>  0 0.90745003E+02</rscale>
<asrwt>0</asrwt>
<pdfrwt beam="2">  1        3 0.42622890E-02 0.90745003E+02</pdfrwt>
<pdfrwt beam="1">  1       -3 0.11431832E-01 0.90745003E+02</pdfrwt>
<totfact> 0.34972670E+04</totfact>
</mgrwt>
</event>
<event>
 5    1  0.3963873E+001  0.1016069E+03  0.7546771E-02  0.1276953E+00
         -1   -1    0    0    0  501 -0.00000000000E+00  0.00000000000E+00  0.28486440505E+01  0.28486440505E+01  0.00000000000E+00 0.  1.
          1   -1    0    0  501    0  0.00000000000E+00 -0.00000000000E+00 -0.90604244644E+03  0.90604244644E+03  0.00000000000E+00 0. -1.
         23    2    1    2    0    0  0.00000000000E+00  0.00000000000E+00 -0.90319380239E+03  0.90889109049E+03  0.10160693725E+03 0.  0.
          2    1    3    3  502    0 -0.17982039337E+02 -0.35124661215E+02 -0.73782785073E+03  0.73888228621E+03  0.00000000000E+00 0. -1.
         -2    1    3    3    0  502  0.17982039337E+02  0.35124661215E+02 -0.16536595166E+03  0.17000880428E+03  0.00000000000E+00 0.  1.
<mgrwt>
<rscale>  0 0.10160694E+03</rscale>
<asrwt>0</asrwt>
<pdfrwt beam="2">  1        1 0.13939129E+00 0.10160694E+03</pdfrwt>
<pdfrwt beam="1">  1       -1 0.43825247E-03 0.10160694E+03</pdfrwt>
<totfact> 0.10424808E+05</totfact>
</mgrwt>
</event>
<event>
 5    1  0.3963873E+001  0.9508297E+02  0.7546771E-02  0.1290989E+00
          3   -1    0    0  501    0  0.00000000000E+00  0.00000000000E+00  0.68906700962E+02  0.68906700962E+02  0.00000000000E+00 0. -1.
         -3   -1    0    0    0  501 -0.00000000000E+00 -0.00000000000E+00 -0.32800765946E+02  0.32800765946E+02  0.00000000000E+00 0.  1.
         23    2    1    2    0    0  0.00000000000E+00  0.00000000000E+00  0.36105935015E+02  0.10170746691E+03  0.95082965254E+02 0.  0.
          2    1    3    3  502    0 -0.67629491336E+01 -0.33014908581E+02  0.53922377365E+02  0.63587297869E+02  0.00000000000E+00 0. -1.
         -2    1    3    3    0  502  0.67629491336E+01  0.33014908581E+02 -0.17816442350E+02  0.38120169039E+02  0.00000000000E+00 0.  1.
<mgrwt>
<rscale>  0 0.95082965E+02</rscale>
<asrwt>0</asrwt>
<pdfrwt beam="1">  1        3 0.10601031E-01 0.95082965E+02</pdfrwt>
<pdfrwt beam="2">  1       -3 0.50462717E-02 0.95082965E+02</pdfrwt>
<totfact> 0.30804156E+04</totfact>
</mgrwt>
</event>
<event>
 5    1  0.3963873E+001  0.9023330E+02  0.7546771E-02  0.1302288E+00
         -4   -1    0    0    0  501 -0.00000000000E+00  0.00000000000E+00  0.33473078304E+02  0.33473078304E+02  0.00000000000E+00 0.  1.
          4   -1    0    0  501    0  0.00000000000E+00 -0.00000000000E+00 -0.60810421115E+02  0.60810421115E+02  0.00000000000E+00 0. -1.
         23    2    1    2    0    0  0.00000000000E+00  0.00000000000E+00 -0.27337342811E+02  0.94283499419E+02  0.90233297350E+02 0.  0.
          2    1    3    3  502    0 -0.16223337264E+02  0.13771938937E+02 -0.55236866838E+02  0.59194378383E+02  0.00000000000E+00 0. -1.
         -2    1    3    3    0  502  0.16223337264E+02 -0.13771938937E+02  0.27899524028E+02  0.35089121035E+02  0.00000000000E+00 0.  1.
<mgrwt>
<rscale>  0 0.90233297E+02</rscale>
<asrwt>0</asrwt>
<pdfrwt beam="2">  1        4 0.93554492E-02 0.90233297E+02</pdfrwt>
<pdfrwt beam="1">  1       -4 0.51497044E-02 0.90233297E+02</pdfrwt>
<totfact> 0.27583145E+04</totfact>
</mgrwt>
</event>
<event>
 5    1  0.3963873E+001  0.9869430E+02  0.7546771E-02  0.1283066E+00
         -2   -1    0    0    0  501 -0.00000000000E+00  0.00000000000E+00  0.55858714335E+02  0.55858714335E+02  0.00000000000E+00 0.  1.
          2   -1    0    0  501    0  0.00000000000E+00 -0.00000000000E+00 -0.43594651256E+02  0.43594651256E+02  0.00000000000E+00 0. -1.
         23    2    1    2    0    0  0.00000000000E+00  0.00000000000E+00  0.12264063078E+02  0.99453365591E+02  0.98694299147E+02 0.  0.
          2    1    3    3  502    0 -0.80724657892E+01  0.19910713705E+02 -0.38634183649E+02  0.44206349888E+02  0.00000000000E+00 0. -1.
         -2    1    3    3    0  502  0.80724657892E+01 -0.19910713705E+02  0.50898246727E+02  0.55247015703E+02  0.00000000000E+00 0.  1.
<mgrwt>
<rscale>  0 0.98694299E+02</rscale>
<asrwt>0</asrwt>
<pdfrwt beam="2">  1        2 0.67068694E-02 0.98694299E+02</pdfrwt>
<pdfrwt beam="1">  1       -2 0.85936484E-02 0.98694299E+02</pdfrwt>
<totfact> 0.77483854E+04</totfact>
</mgrwt>
</event>
<event>
 5    1  0.3963873E+001  0.9272006E+02  0.7546771E-02  0.1296395E+00
          2   -1    0    0  501    0  0.00000000000E+00  0.00000000000E+00  0.98043545360E+03  0.98043545360E+03  0.00000000000E+00 0. -1.
         -2   -1    0    0    0  501 -0.00000000000E+00 -0.00000000000E+00 -0.21921404947E+01  0.21921404947E+01  0.00000000000E+00 0.  1.
         23    2    1    2    0    0  0.00000000000E+00  0.00000000000E+00  0.97824331311E+03  0.98262759410E+03  0.92720057383E+02 0.  0.
          2    1    3    3  502    0  0.42138057642E+02 -0.47305886986E+00  0.69391212193E+03  0.69519052975E+03  0.00000000000E+00 0. -1.
         -2    1    3    3    0  502 -0.42138057642E+02  0.47305886986E+00  0.28433119118E+03  0.28743706435E+03  0.00000000000E+00 0.  1.
<mgrwt>
<rscale>  0 0.92720057E+02</rscale>
<asrwt>0</asrwt>
<pdfrwt beam="1">  1        2 0.15083587E+00 0.92720057E+02</pdfrwt>
<pdfrwt beam="2">  1       -2 0.33725317E-03 0.92720057E+02</pdfrwt>
<totfact> 0.23895766E+05</totfact>
</mgrwt>
</event>
<event>
 5    1  0.3963873E+001  0.9026932E+02  0.7546771E-02  0.1302201E+00
          1   -1    0    0  501    0  0.00000000000E+00  0.00000000000E+00  0.50607695072E+03  0.50607695072E+03  0.00000000000E+00 0. -1.
         -1   -1    0    0    0  501 -0.00000000000E+00 -0.00000000000E+00 -0.40253510289E+01  0.40253510289E+01  0.00000000000E+00 0.  1.
         23    2    1    2    0    0  0.00000000000E+00  0.00000000000E+00  0.50205159969E+03  0.51010230175E+03  0.90269316476E+02 0.  0.
          2    1    3    3  502    0 -0.17605932819E+02  0.10278402071E+02  0.23474835812E+02  0.31091515498E+02  0.00000000000E+00 0.  1.
         -2    1    3    3    0  502  0.17605932819E+02 -0.10278402071E+02  0.47857676388E+03  0.47901078625E+03  0.00000000000E+00 0. -1.
<mgrwt>
<rscale>  0 0.90269316E+02</rscale>
<asrwt>0</asrwt>
<pdfrwt beam="1">  1        1 0.77857942E-01 0.90269316E+02</pdfrwt>
<pdfrwt beam="2">  1       -1 0.61928517E-03 0.90269316E+02</pdfrwt>
<totfact> 0.14320409E+05</totfact>
</mgrwt>
</event>
<event>
 5    1  0.3963873E+001  0.9102568E+02  0.7546771E-02  0.1300387E+00
         -4   -1    0    0    0  501 -0.00000000000E+00  0.00000000000E+00  0.27286596075E+02  0.27286596075E+02  0.00000000000E+00 0. -1.
          4   -1    0    0  501    0  0.00000000000E+00 -0.00000000000E+00 -0.75913415715E+02  0.75913415715E+02  0.00000000000E+00 0.  1.
         23    2    1    2    0    0  0.00000000000E+00  0.00000000000E+00 -0.48626819641E+02  0.10320001179E+03  0.91025682338E+02 0.  0.
          2    1    3    3  502    0 -0.29229038224E+02  0.34162032704E+02 -0.16293603983E+02  0.47821153110E+02  0.00000000000E+00 0. -1.
         -2    1    3    3    0  502  0.29229038224E+02 -0.34162032704E+02 -0.32333215657E+02  0.55378858680E+02  0.00000000000E+00 0.  1.
<mgrwt>
<rscale>  0 0.91025682E+02</rscale>
<asrwt>0</asrwt>
<pdfrwt beam="2">  1        4 0.11678987E-01 0.91025682E+02</pdfrwt>
<pdfrwt beam="1">  1       -4 0.41979379E-02 0.91025682E+02</pdfrwt>
<totfact> 0.26380225E+04</totfact>
</mgrwt>
</event>
<event>
 5    1  0.3963873E+001  0.9064828E+02  0.7546771E-02  0.1301289E+00
         -1   -1    0    0    0  501 -0.00000000000E+00  0.00000000000E+00  0.89258714054E+01  0.89258714054E+01  0.00000000000E+00 0.  1.
          1   -1    0    0  501    0  0.00000000000E+00 -0.00000000000E+00 -0.23014870834E+03  0.23014870834E+03  0.00000000000E+00 0. -1.
         23    2    1    2    0    0  0.00000000000E+00  0.00000000000E+00 -0.22122283693E+03  0.23907457974E+03  0.90648282383E+02 0.  0.
          2    1    3    3  502    0  0.79238512111E+00  0.40577513608E+02 -0.16382622999E+03  0.16877854163E+03  0.00000000000E+00 0. -1.
         -2    1    3    3    0  502 -0.79238512111E+00 -0.40577513608E+02 -0.57396606945E+02  0.70296038108E+02  0.00000000000E+00 0.  1.
<mgrwt>
<rscale>  0 0.90648282E+02</rscale>
<asrwt>0</asrwt>
<pdfrwt beam="2">  1        1 0.35407492E-01 0.90648282E+02</pdfrwt>
<pdfrwt beam="1">  1       -1 0.13732110E-02 0.90648282E+02</pdfrwt>
<totfact> 0.12359648E+05</totfact>
</mgrwt>
</event>
<event>
 5    1  0.3963873E+001  0.9024024E+02  0.7546771E-02  0.1302271E+00
          2   -1    0    0  501    0  0.00000000000E+00  0.00000000000E+00  0.55600896524E+03  0.55600896524E+03  0.00000000000E+00 0. -1.
         -2   -1    0    0    0  501 -0.00000000000E+00 -0.00000000000E+00 -0.36614970379E+01  0.36614970379E+01  0.00000000000E+00 0.  1.
         23    2    1    2    0    0  0.00000000000E+00  0.00000000000E+00  0.55234746821E+03  0.55967046228E+03  0.90240238902E+02 0.  0.
          2    1    3    3  502    0 -0.33187613734E+02 -0.23601023931E+02  0.39665862963E+03  0.39874364508E+03  0.00000000000E+00 0. -1.
         -2    1    3    3    0  502  0.33187613734E+02  0.23601023931E+02  0.15568883858E+03  0.16092681720E+03  0.00000000000E+00 0.  1.
<mgrwt>
<rscale>  0 0.90240239E+02</rscale>
<asrwt>0</asrwt>
<pdfrwt beam="1">  1        2 0.85539774E-01 0.90240239E+02</pdfrwt>
<pdfrwt beam="2">  1       -2 0.56330768E-03 0.90240239E+02</pdfrwt>
<totfact> 0.22897184E+05</totfact>
</mgrwt>
</event>
<event>
 5    1  0.3963873E+001  0.8385920E+02  0.7546771E-02  0.1318443E+00
         -2   -1    0    0    0  501 -0.00000000000E+00  0.00000000000E+00  0.13331574646E+01  0.13331574646E+01  0.00000000000E+00 0.  1.
          2   -1    0    0  501    0  0.00000000000E+00 -0.00000000000E+00 -0.13187423551E+04  0.13187423551E+04  0.00000000000E+00 0. -1.
         23    2    1    2    0    0  0.00000000000E+00  0.00000000000E+00 -0.13174091976E+04  0.13200755125E+04  0.83859196622E+02 0.  0.
          2    1    3    3  502    0  0.24092319630E+02 -0.12745033442E+01 -0.11985342335E+04  0.11987770322E+04  0.00000000000E+00 0. -1.
         -2    1    3    3    0  502 -0.24092319630E+02  0.12745033442E+01 -0.11887496415E+03  0.12129848031E+03  0.00000000000E+00 0.  1.
<mgrwt>
<rscale>  0 0.83859197E+02</rscale>
<asrwt>0</asrwt>
<pdfrwt beam="2">  1        2 0.20288402E+00 0.83859197E+02</pdfrwt>
<pdfrwt beam="1">  1       -2 0.20510056E-03 0.83859197E+02</pdfrwt>
<totfact> 0.30509642E+05</totfact>
</mgrwt>
</event>
<event>
 5    1  0.3963873E+001  0.9117298E+02  0.7546771E-02  0.1300036E+00
          2   -1    0    0  501    0  0.00000000000E+00  0.00000000000E+00  0.22616598669E+03  0.22616598669E+03  0.00000000000E+00 0.  1.
         -2   -1    0    0    0  501 -0.00000000000E+00 -0.00000000000E+00 -0.91885092621E+01  0.91885092621E+01  0.00000000000E+00 0. -1.
         23    2    1    2    0    0  0.00000000000E+00  0.00000000000E+00  0.21697747743E+03  0.23535449595E+03  0.91172984233E+02 0.  0.
          2    1    3    3  502    0 -0.22852868933E+02  0.15803182666E+02  0.15195492145E+02  0.31668551946E+02  0.00000000000E+00 0. -1.
         -2    1    3    3    0  502  0.22852868933E+02 -0.15803182666E+02  0.20178198528E+03  0.20368594401E+03  0.00000000000E+00 0.  1.
<mgrwt>
<rscale>  0 0.91172984E+02</rscale>
<asrwt>0</asrwt>
<pdfrwt beam="1">  1        2 0.34794763E-01 0.91172984E+02</pdfrwt>
<pdfrwt beam="2">  1       -2 0.14136170E-02 0.91172984E+02</pdfrwt>
<totfact> 0.16179024E+05</totfact>
</mgrwt>
</event>
<event>
 5    1  0.3963873E+001  0.8624032E+02  0.7546771E-02  0.1312220E+00
         -4   -1    0    0    0  501 -0.00000000000E+00  0.00000000000E+00  0.17757381428E+02  0.17757381428E+02  0.00000000000E+00 0.  1.
          4   -1    0    0  501    0  0.00000000000E+00 -0.00000000000E+00 -0.10470847108E+03  0.10470847108E+03  0.00000000000E+00 0. -1.
         23    2    1    2    0    0  0.00000000000E+00  0.00000000000E+00 -0.86951089647E+02  0.12246585250E+03  0.86240321419E+02 0.  0.
          2    1    3    3  502    0  0.22907048721E+02 -0.35091848858E+02 -0.29051163639E+02  0.50991576227E+02  0.00000000000E+00 0.  1.
         -2    1    3    3    0  502 -0.22907048721E+02  0.35091848858E+02 -0.57899926008E+02  0.71474276276E+02  0.00000000000E+00 0. -1.
<mgrwt>
<rscale>  0 0.86240321E+02</rscale>
<asrwt>0</asrwt>
<pdfrwt beam="2">  1        4 0.16108995E-01 0.86240321E+02</pdfrwt>
<pdfrwt beam="1">  1       -4 0.27319049E-02 0.86240321E+02</pdfrwt>
<totfact> 0.29186220E+04</totfact>
</mgrwt>
</event>
<event>
 5    1  0.3963873E+001  0.9177604E+02  0.7546771E-02  0.1298607E+00
         -2   -1    0    0    0  501 -0.00000000000E+00  0.00000000000E+00  0.16764007184E+03  0.16764007184E+03  0.00000000000E+00 0.  1.
          2   -1    0    0  501    0  0.00000000000E+00 -0.00000000000E+00 -0.12560901036E+02  0.12560901036E+02  0.00000000000E+00 0. -1.
         23    2    1    2    0    0  0.00000000000E+00  0.00000000000E+00  0.15507917080E+03  0.18020097287E+03  0.91776039400E+02 0.  0.
          2    1    3    3  502    0 -0.15687098013E+02  0.16770913046E+02 -0.46696949539E+00  0.22968818624E+02  0.00000000000E+00 0. -1.
         -2    1    3    3    0  502  0.15687098013E+02 -0.16770913046E+02  0.15554614030E+03  0.15723215425E+03  0.00000000000E+00 0.  1.
<mgrwt>
<rscale>  0 0.91776039E+02</rscale>
<asrwt>0</asrwt>
<pdfrwt beam="2">  1        2 0.19324464E-02 0.91776039E+02</pdfrwt>
<pdfrwt beam="1">  1       -2 0.25790779E-01 0.91776039E+02</pdfrwt>
<totfact> 0.65890767E+04</totfact>
</mgrwt>
</event>
<event>
 5    1  0.3963873E+001  0.9161939E+02  0.7546771E-02  0.1298977E+00
          2   -1    0    0  501    0  0.00000000000E+00  0.00000000000E+00  0.27464567026E+04  0.27464567026E+04  0.00000000000E+00 0. -1.
         -2   -1    0    0    0  501 -0.00000000000E+00 -0.00000000000E+00 -0.76408564089E+00  0.76408564089E+00  0.00000000000E+00 0.  1.
         23    2    1    2    0    0  0.00000000000E+00  0.00000000000E+00  0.27456926170E+04  0.27472207882E+04  0.91619389428E+02 0.  0.
          2    1    3    3  502    0 -0.38488890258E+02 -0.16414795959E+02  0.19319610954E+04  0.19324141674E+04  0.00000000000E+00 0. -1.
         -2    1    3    3    0  502  0.38488890258E+02  0.16414795959E+02  0.81373152158E+03  0.81480662087E+03  0.00000000000E+00 0.  1.
<mgrwt>
<rscale>  0 0.91619389E+02</rscale>
<asrwt>0</asrwt>
<pdfrwt beam="1">  1        2 0.42252390E+00 0.91619389E+02</pdfrwt>
<pdfrwt beam="2">  1       -2 0.11755384E-03 0.91619389E+02</pdfrwt>
<totfact> 0.12328515E+05</totfact>
</mgrwt>
</event>
<event>
 5    1  0.3963873E+001  0.9230271E+02  0.7546771E-02  0.1297369E+00
         -1   -1    0    0    0  501 -0.00000000000E+00  0.00000000000E+00  0.51498613231E+02  0.51498613231E+02  0.00000000000E+00 0.  1.
          1   -1    0    0  501    0  0.00000000000E+00 -0.00000000000E+00 -0.41359318734E+02  0.41359318734E+02  0.00000000000E+00 0. -1.
         23    2    1    2    0    0  0.00000000000E+00  0.00000000000E+00  0.10139294497E+02  0.92857931965E+02  0.92302709798E+02 0.  0.
          2    1    3    3  502    0 -0.16153143688E+02 -0.42805286916E+02 -0.10274126213E+01  0.45763219026E+02  0.00000000000E+00 0. -1.
         -2    1    3    3    0  502  0.16153143688E+02  0.42805286916E+02  0.11166707118E+02  0.47094712939E+02  0.00000000000E+00 0.  1.
<mgrwt>
<rscale>  0 0.92302710E+02</rscale>
<asrwt>0</asrwt>
<pdfrwt beam="2">  1        1 0.63629721E-02 0.92302710E+02</pdfrwt>
<pdfrwt beam="1">  1       -1 0.79228636E-02 0.92302710E+02</pdfrwt>
<totfact> 0.88018493E+04</totfact>
</mgrwt>
</event>
<event>
 5    1  0.3963873E+001  0.9129644E+02  0.7546771E-02  0.1299742E+00
          2   -1    0    0  501    0  0.00000000000E+00  0.00000000000E+00  0.44639727606E+03  0.44639727606E+03  0.00000000000E+00 0. -1.
         -2   -1    0    0    0  501 -0.00000000000E+00 -0.00000000000E+00 -0.46679493054E+01  0.46679493054E+01  0.00000000000E+00 0.  1.
         23    2    1    2    0    0  0.00000000000E+00  0.00000000000E+00  0.44172932676E+03  0.45106522537E+03  0.91296437054E+02 0.  0.
          2    1    3    3  502    0 -0.25531732598E+02 -0.37781338901E+02  0.23129978577E+03  0.23575175468E+03  0.00000000000E+00 0. -1.
         -2    1    3    3    0  502  0.25531732598E+02  0.37781338901E+02  0.21042954099E+03  0.21531347069E+03  0.00000000000E+00 0.  1.
<mgrwt>
<rscale>  0 0.91296437E+02</rscale>
<asrwt>0</asrwt>
<pdfrwt beam="1">  1        2 0.68676470E-01 0.91296437E+02</pdfrwt>
<pdfrwt beam="2">  1       -2 0.71814640E-03 0.91296437E+02</pdfrwt>
<totfact> 0.20674666E+05</totfact>
</mgrwt>
</event>
<event>
 5    1  0.3963873E+001  0.9197992E+02  0.7546771E-02  0.1298127E+00
          2   -1    0    0  501    0  0.00000000000E+00  0.00000000000E+00  0.28453193409E+01  0.28453193409E+01  0.00000000000E+00 0.  1.
         -2   -1    0    0    0  501 -0.00000000000E+00 -0.00000000000E+00 -0.74335292988E+03  0.74335292988E+03  0.00000000000E+00 0. -1.
         23    2    1    2    0    0  0.00000000000E+00  0.00000000000E+00 -0.74050761054E+03  0.74619824922E+03  0.91979921036E+02 0.  0.
          2    1    3    3  502    0 -0.18019818483E+01 -0.27106384150E+02 -0.67130455787E+03  0.67185401139E+03  0.00000000000E+00 0. -1.
         -2    1    3    3    0  502  0.18019818483E+01  0.27106384150E+02 -0.69203052664E+02  0.74344237828E+02  0.00000000000E+00 0.  1.
<mgrwt>
<rscale>  0 0.91979921E+02</rscale>
<asrwt>0</asrwt>
<pdfrwt beam="1">  1        2 0.43774151E-03 0.91979921E+02</pdfrwt>
<pdfrwt beam="2">  1       -2 0.11436197E+00 0.91979921E+02</pdfrwt>
<totfact> 0.25080925E+04</totfact>
</mgrwt>
</event>
<event>
 5    1  0.3963873E+001  0.9234200E+02  0.7546771E-02  0.1297277E+00
          2   -1    0    0  501    0  0.00000000000E+00  0.00000000000E+00  0.32736358250E+01  0.32736358250E+01  0.00000000000E+00 0. -1.
         -2   -1    0    0    0  501 -0.00000000000E+00 -0.00000000000E+00 -0.65119067845E+03  0.65119067845E+03  0.00000000000E+00 0.  1.
         23    2    1    2    0    0  0.00000000000E+00  0.00000000000E+00 -0.64791704262E+03  0.65446431427E+03  0.92341997680E+02 0.  0.
          2    1    3    3  502    0 -0.28548681953E+02  0.83882587229E+01 -0.73745230683E+02  0.79522004339E+02  0.00000000000E+00 0. -1.
         -2    1    3    3    0  502  0.28548681953E+02 -0.83882587229E+01 -0.57417181194E+03  0.57494230993E+03  0.00000000000E+00 0.  1.
<mgrwt>
<rscale>  0 0.92341998E+02</rscale>
<asrwt>0</asrwt>
<pdfrwt beam="1">  1        2 0.50363643E-03 0.92341998E+02</pdfrwt>
<pdfrwt beam="2">  1       -2 0.10018315E+00 0.92341998E+02</pdfrwt>
<totfact> 0.28132894E+04</totfact>
</mgrwt>
</event>
<event>
 5    1  0.3963873E+001  0.9148098E+02  0.7546771E-02  0.1299304E+00
         -3   -1    0    0    0  501 -0.00000000000E+00  0.00000000000E+00  0.56210249260E+03  0.56210249260E+03  0.00000000000E+00 0.  1.
          3   -1    0    0  501    0  0.00000000000E+00 -0.00000000000E+00 -0.37220833874E+01  0.37220833874E+01  0.00000000000E+00 0. -1.
         23    2    1    2    0    0  0.00000000000E+00  0.00000000000E+00  0.55838040921E+03  0.56582457598E+03  0.91480978345E+02 0.  0.
          2    1    3    3  502    0  0.33334675956E+02  0.22587238437E+02  0.14498384313E+03  0.15047158778E+03  0.00000000000E+00 0. -1.
         -2    1    3    3    0  502 -0.33334675956E+02 -0.22587238437E+02  0.41339656608E+03  0.41535298820E+03  0.00000000000E+00 0.  1.
<mgrwt>
<rscale>  0 0.91480978E+02</rscale>
<asrwt>0</asrwt>
<pdfrwt beam="2">  1        3 0.57262866E-03 0.91480978E+02</pdfrwt>
<pdfrwt beam="1">  1       -3 0.86477239E-01 0.91480978E+02</pdfrwt>
<totfact> 0.16254795E+04</totfact>
</mgrwt>
</event>
<event>
 5    1  0.3963873E+001  0.8777457E+02  0.7546771E-02  0.1308332E+00
         -3   -1    0    0    0  501 -0.00000000000E+00  0.00000000000E+00  0.72255937582E+01  0.72255937582E+01  0.00000000000E+00 0.  1.
          3   -1    0    0  501    0  0.00000000000E+00 -0.00000000000E+00 -0.26656549216E+03  0.26656549216E+03  0.00000000000E+00 0. -1.
         23    2    1    2    0    0  0.00000000000E+00  0.00000000000E+00 -0.25933989840E+03  0.27379108592E+03  0.87774573911E+02 0.  0.
          2    1    3    3  502    0 -0.43426975328E+01  0.29029172335E+02 -0.23144281235E+03  0.23329665077E+03  0.00000000000E+00 0. -1.
         -2    1    3    3    0  502  0.43426975328E+01 -0.29029172335E+02 -0.27897086047E+02  0.40494435151E+02  0.00000000000E+00 0.  1.
<mgrwt>
<rscale>  0 0.87774574E+02</rscale>
<asrwt>0</asrwt>
<pdfrwt beam="2">  1        3 0.41010080E-01 0.87774574E+02</pdfrwt>
<pdfrwt beam="1">  1       -3 0.11116297E-02 0.87774574E+02</pdfrwt>
<totfact> 0.27770582E+04</totfact>
</mgrwt>
</event>
<event>
 5    1  0.3963873E+001  0.8998982E+02  0.7546771E-02  0.1302876E+00
         -2   -1    0    0    0  501 -0.00000000000E+00  0.00000000000E+00  0.13632100866E+01  0.13632100866E+01  0.00000000000E+00 0.  1.
          2   -1    0    0  501    0  0.00000000000E+00 -0.00000000000E+00 -0.14851284685E+04  0.14851284685E+04  0.00000000000E+00 0. -1.
         23    2    1    2    0    0  0.00000000000E+00  0.00000000000E+00 -0.14837652584E+04  0.14864916785E+04  0.89989824050E+02 0.  0.
          2    1    3    3  502    0  0.15258810254E+01  0.44957721659E+02 -0.75854136460E+03  0.75987402039E+03  0.00000000000E+00 0. -1.
         -2    1    3    3    0  502 -0.15258810254E+01 -0.44957721659E+02 -0.72522389377E+03  0.72661765816E+03  0.00000000000E+00 0.  1.
<mgrwt>
<rscale>  0 0.89989824E+02</rscale>
<asrwt>0</asrwt>
<pdfrwt beam="2">  1        2 0.22848138E+00 0.89989824E+02</pdfrwt>
<pdfrwt beam="1">  1       -2 0.20972456E-03 0.89989824E+02</pdfrwt>
<totfact> 0.24515603E+05</totfact>
</mgrwt>
</event>
<event>
 5    1  0.3963873E+001  0.9232121E+02  0.7546771E-02  0.1297326E+00
          2   -1    0    0  501    0  0.00000000000E+00  0.00000000000E+00  0.93227803728E+03  0.93227803728E+03  0.00000000000E+00 0. -1.
         -2   -1    0    0    0  501 -0.00000000000E+00 -0.00000000000E+00 -0.22855856501E+01  0.22855856501E+01  0.00000000000E+00 0.  1.
         23    2    1    2    0    0  0.00000000000E+00  0.00000000000E+00  0.92999245163E+03  0.93456362293E+03  0.92321206749E+02 0.  0.
          2    1    3    3  502    0 -0.26206860292E+02 -0.30530666805E+02  0.23596666028E+03  0.23937248360E+03  0.00000000000E+00 0. -1.
         -2    1    3    3    0  502  0.26206860292E+02  0.30530666805E+02  0.69402579135E+03  0.69519113933E+03  0.00000000000E+00 0.  1.
<mgrwt>
<rscale>  0 0.92321207E+02</rscale>
<asrwt>0</asrwt>
<pdfrwt beam="1">  1        2 0.14342709E+00 0.92321207E+02</pdfrwt>
<pdfrwt beam="2">  1       -2 0.35162931E-03 0.92321207E+02</pdfrwt>
<totfact> 0.24078533E+05</totfact>
</mgrwt>
</event>
<event>
 5    1  0.3963873E+001  0.9079937E+02  0.7546771E-02  0.1300927E+00
          2   -1    0    0  501    0  0.00000000000E+00  0.00000000000E+00  0.14100844475E+04  0.14100844475E+04  0.00000000000E+00 0.  1.
         -2   -1    0    0    0  501 -0.00000000000E+00 -0.00000000000E+00 -0.14617076797E+01  0.14617076797E+01  0.00000000000E+00 0. -1.
         23    2    1    2    0    0  0.00000000000E+00  0.00000000000E+00  0.14086227398E+04  0.14115461552E+04  0.90799367088E+02 0.  0.
          2    1    3    3  502    0 -0.87076768571E+01 -0.19529980550E+02  0.81725568489E+02  0.84476696913E+02  0.00000000000E+00 0. -1.
         -2    1    3    3    0  502  0.87076768571E+01  0.19529980550E+02  0.13268971713E+04  0.13270694583E+04  0.00000000000E+00 0.  1.
<mgrwt>
<rscale>  0 0.90799367E+02</rscale>
<asrwt>0</asrwt>
<pdfrwt beam="1">  1        2 0.21693498E+00 0.90799367E+02</pdfrwt>
<pdfrwt beam="2">  1       -2 0.22487923E-03 0.90799367E+02</pdfrwt>
<totfact> 0.24354706E+05</totfact>
</mgrwt>
</event>
<event>
 5    1  0.3963873E+001  0.9198127E+02  0.7546771E-02  0.1298123E+00
         -1   -1    0    0    0  501 -0.00000000000E+00  0.00000000000E+00  0.17707251983E+02  0.17707251983E+02  0.00000000000E+00 0.  1.
          1   -1    0    0  501    0  0.00000000000E+00 -0.00000000000E+00 -0.11945042080E+03  0.11945042080E+03  0.00000000000E+00 0. -1.
         23    2    1    2    0    0  0.00000000000E+00  0.00000000000E+00 -0.10174316882E+03  0.13715767279E+03  0.91981274196E+02 0.  0.
          2    1    3    3  502    0 -0.26590564670E+02  0.23678185100E+02 -0.94279716414E+02  0.10077886438E+03  0.00000000000E+00 0. -1.
         -2    1    3    3    0  502  0.26590564670E+02 -0.23678185100E+02 -0.74634524058E+01  0.36378808404E+02  0.00000000000E+00 0.  1.
<mgrwt>
<rscale>  0 0.91981274E+02</rscale>
<asrwt>0</asrwt>
<pdfrwt beam="2">  1        1 0.18376987E-01 0.91981274E+02</pdfrwt>
<pdfrwt beam="1">  1       -1 0.27241927E-02 0.91981274E+02</pdfrwt>
<totfact> 0.10511462E+05</totfact>
</mgrwt>
</event>
<event>
 5    1  0.3963873E+001  0.9176453E+02  0.7546771E-02  0.1298634E+00
          2   -1    0    0  501    0  0.00000000000E+00  0.00000000000E+00  0.11474933217E+04  0.11474933217E+04  0.00000000000E+00 0. -1.
         -2   -1    0    0    0  501 -0.00000000000E+00 -0.00000000000E+00 -0.18345920699E+01  0.18345920699E+01  0.00000000000E+00 0.  1.
         23    2    1    2    0    0  0.00000000000E+00  0.00000000000E+00  0.11456587296E+04  0.11493279138E+04  0.91764527966E+02 0.  0.
          2    1    3    3  502    0  0.15282359355E+02 -0.38746779593E+02  0.81385151037E+03  0.81491664873E+03  0.00000000000E+00 0. -1.
         -2    1    3    3    0  502 -0.15282359355E+02  0.38746779593E+02  0.33180721925E+03  0.33441126504E+03  0.00000000000E+00 0.  1.
<mgrwt>
<rscale>  0 0.91764528E+02</rscale>
<asrwt>0</asrwt>
<pdfrwt beam="1">  1        2 0.17653686E+00 0.91764528E+02</pdfrwt>
<pdfrwt beam="2">  1       -2 0.28224585E-03 0.91764528E+02</pdfrwt>
<totfact> 0.24548346E+05</totfact>
</mgrwt>
</event>
<event>
 5    1  0.3963873E+001  0.8962392E+02  0.7546771E-02  0.1303765E+00
          1   -1    0    0  501    0  0.00000000000E+00  0.00000000000E+00  0.13393824378E+04  0.13393824378E+04  0.00000000000E+00 0. -1.
         -1   -1    0    0    0  501 -0.00000000000E+00 -0.00000000000E+00 -0.14992817928E+01  0.14992817928E+01  0.00000000000E+00 0.  1.
         23    2    1    2    0    0  0.00000000000E+00  0.00000000000E+00  0.13378831560E+04  0.13408817196E+04  0.89623918741E+02 0.  0.
          2    1    3    3  502    0 -0.73371291003E+01 -0.20624741743E+02  0.12539415362E+04  0.12541326045E+04  0.00000000000E+00 0. -1.
         -2    1    3    3    0  502  0.73371291003E+01  0.20624741743E+02  0.83941619813E+02  0.86749115109E+02  0.00000000000E+00 0.  1.
<mgrwt>
<rscale>  0 0.89623919E+02</rscale>
<asrwt>0</asrwt>
<pdfrwt beam="1">  1        1 0.20605788E+00 0.89623919E+02</pdfrwt>
<pdfrwt beam="2">  1       -1 0.23065981E-03 0.89623919E+02</pdfrwt>
<totfact> 0.12546309E+05</totfact>
</mgrwt>
</event>
<event>
 5    1  0.3963873E+001  0.8568259E+02  0.7546771E-02  0.1313657E+00
         -2   -1    0    0    0  501 -0.00000000000E+00  0.00000000000E+00  0.25183174104E+01  0.25183174104E+01  0.00000000000E+00 0.  1.
          2   -1    0    0  501    0  0.00000000000E+00 -0.00000000000E+00 -0.72881058031E+03  0.72881058031E+03  0.00000000000E+00 0. -1.
         23    2    1    2    0    0  0.00000000000E+00  0.00000000000E+00 -0.72629226290E+03  0.73132889772E+03  0.85682585705E+02 0.  0.
          2    1    3    3  502    0  0.42036857694E+02  0.55854778910E+01 -0.31117068094E+03  0.31404695134E+03  0.00000000000E+00 0. -1.
         -2    1    3    3    0  502 -0.42036857694E+02 -0.55854778910E+01 -0.41512158196E+03  0.41728194638E+03  0.00000000000E+00 0.  1.
<mgrwt>
<rscale>  0 0.85682586E+02</rscale>
<asrwt>0</asrwt>
<pdfrwt beam="2">  1        2 0.11212474E+00 0.85682586E+02</pdfrwt>
<pdfrwt beam="1">  1       -2 0.38743334E-03 0.85682586E+02</pdfrwt>
<totfact> 0.28176878E+05</totfact>
</mgrwt>
</event>
<event>
 5    1  0.3963873E+001  0.9114285E+02  0.7546771E-02  0.1300107E+00
          2   -1    0    0  501    0  0.00000000000E+00  0.00000000000E+00  0.37711526802E+03  0.37711526802E+03  0.00000000000E+00 0. -1.
         -2   -1    0    0    0  501 -0.00000000000E+00 -0.00000000000E+00 -0.55069491987E+01  0.55069491987E+01  0.00000000000E+00 0.  1.
         23    2    1    2    0    0  0.00000000000E+00  0.00000000000E+00  0.37160831882E+03  0.38262221722E+03  0.91142846632E+02 0.  0.
          2    1    3    3  502    0 -0.34840168935E+02  0.45764694752E+01  0.30761802468E+03  0.30961852424E+03  0.00000000000E+00 0. -1.
         -2    1    3    3    0  502  0.34840168935E+02 -0.45764694752E+01  0.63990294139E+02  0.73003692977E+02  0.00000000000E+00 0.  1.
<mgrwt>
<rscale>  0 0.91142847E+02</rscale>
<asrwt>0</asrwt>
<pdfrwt beam="1">  1        2 0.58017713E-01 0.91142847E+02</pdfrwt>
<pdfrwt beam="2">  1       -2 0.84722325E-03 0.91142847E+02</pdfrwt>
<totfact> 0.19562585E+05</totfact>
</mgrwt>
</event>
<event>
 5    1  0.3963873E+001  0.8496639E+02  0.7546771E-02  0.1315520E+00
         -4   -1    0    0    0  501 -0.00000000000E+00  0.00000000000E+00  0.18116800181E+01  0.18116800181E+01  0.00000000000E+00 0.  1.
          4   -1    0    0  501    0  0.00000000000E+00 -0.00000000000E+00 -0.99621440433E+03  0.99621440433E+03  0.00000000000E+00 0. -1.
         23    2    1    2    0    0  0.00000000000E+00  0.00000000000E+00 -0.99440272431E+03  0.99802608435E+03  0.84966387003E+02 0.  0.
          2    1    3    3  502    0  0.20349221485E+02  0.35786492739E+02 -0.37397453737E+03  0.37623359563E+03  0.00000000000E+00 0. -1.
         -2    1    3    3    0  502 -0.20349221485E+02 -0.35786492739E+02 -0.62042818694E+03  0.62179248872E+03  0.00000000000E+00 0.  1.
<mgrwt>
<rscale>  0 0.84966387E+02</rscale>
<asrwt>0</asrwt>
<pdfrwt beam="2">  1        4 0.15326337E+00 0.84966387E+02</pdfrwt>
<pdfrwt beam="1">  1       -4 0.27872070E-03 0.84966387E+02</pdfrwt>
<totfact> 0.85727073E+03</totfact>
</mgrwt>
</event>
<event>
 5    1  0.3963873E+001  0.9211431E+02  0.7546771E-02  0.1297811E+00
          3   -1    0    0  501    0  0.00000000000E+00  0.00000000000E+00  0.26466382616E+02  0.26466382616E+02  0.00000000000E+00 0. -1.
         -3   -1    0    0    0  501 -0.00000000000E+00 -0.00000000000E+00 -0.80149273428E+02  0.80149273428E+02  0.00000000000E+00 0.  1.
         23    2    1    2    0    0  0.00000000000E+00  0.00000000000E+00 -0.53682890812E+02  0.10661565604E+03  0.92114305880E+02 0.  0.
          2    1    3    3  502    0 -0.22056549432E+02 -0.37333025372E+02 -0.88727685376E+01  0.44260277651E+02  0.00000000000E+00 0. -1.
         -2    1    3    3    0  502  0.22056549432E+02  0.37333025372E+02 -0.44810122275E+02  0.62355378393E+02  0.00000000000E+00 0.  1.
<mgrwt>
<rscale>  0 0.92114306E+02</rscale>
<asrwt>0</asrwt>
<pdfrwt beam="1">  1        3 0.40717512E-02 0.92114306E+02</pdfrwt>
<pdfrwt beam="2">  1       -3 0.12330657E-01 0.92114306E+02</pdfrwt>
<totfact> 0.33248896E+04</totfact>
</mgrwt>
</event>
<event>
 5    1  0.3963873E+001  0.9887855E+02  0.7546771E-02  0.1282672E+00
         -4   -1    0    0    0  501 -0.00000000000E+00  0.00000000000E+00  0.14066354388E+03  0.14066354388E+03  0.00000000000E+00 0.  1.
          4   -1    0    0  501    0  0.00000000000E+00 -0.00000000000E+00 -0.17376513437E+02  0.17376513437E+02  0.00000000000E+00 0. -1.
         23    2    1    2    0    0  0.00000000000E+00  0.00000000000E+00  0.12328703044E+03  0.15804005731E+03  0.98878550964E+02 0.  0.
          2    1    3    3  502    0  0.37107587470E+02  0.30995760000E+02  0.78140503484E+02  0.91889327294E+02  0.00000000000E+00 0. -1.
         -2    1    3    3    0  502 -0.37107587470E+02 -0.30995760000E+02  0.45146526955E+02  0.66150730018E+02  0.00000000000E+00 0.  1.
<mgrwt>
<rscale>  0 0.98878551E+02</rscale>
<asrwt>0</asrwt>
<pdfrwt beam="2">  1        4 0.26733099E-02 0.98878551E+02</pdfrwt>
<pdfrwt beam="1">  1       -4 0.21640544E-01 0.98878551E+02</pdfrwt>
<totfact> 0.18688350E+04</totfact>
</mgrwt>
</event>
<event>
 5    1  0.3963873E+001  0.9166880E+02  0.7546771E-02  0.1298860E+00
         -2   -1    0    0    0  501 -0.00000000000E+00  0.00000000000E+00  0.14718020321E+01  0.14718020321E+01  0.00000000000E+00 0.  1.
          2   -1    0    0  501    0  0.00000000000E+00 -0.00000000000E+00 -0.14273605312E+04  0.14273605312E+04  0.00000000000E+00 0. -1.
         23    2    1    2    0    0  0.00000000000E+00  0.00000000000E+00 -0.14258887292E+04  0.14288323333E+04  0.91668797972E+02 0.  0.
          2    1    3    3  502    0  0.33104540616E+02  0.17253349961E+02 -0.11274514073E+04  0.11280692641E+04  0.00000000000E+00 0. -1.
         -2    1    3    3    0  502 -0.33104540616E+02 -0.17253349961E+02 -0.29843732191E+03  0.30076306921E+03  0.00000000000E+00 0.  1.
<mgrwt>
<rscale>  0 0.91668798E+02</rscale>
<asrwt>0</asrwt>
<pdfrwt beam="2">  1        2 0.21959321E+00 0.91668798E+02</pdfrwt>
<pdfrwt beam="1">  1       -2 0.22643182E-03 0.91668798E+02</pdfrwt>
<totfact> 0.23664073E+05</totfact>
</mgrwt>
</event>
<event>
 5    1  0.3963873E+001  0.9040307E+02  0.7546771E-02  0.1301879E+00
          1   -1    0    0  501    0  0.00000000000E+00  0.00000000000E+00  0.15417331700E+03  0.15417331700E+03  0.00000000000E+00 0. -1.
         -1   -1    0    0    0  501 -0.00000000000E+00 -0.00000000000E+00 -0.13252480524E+02  0.13252480524E+02  0.00000000000E+00 0.  1.
         23    2    1    2    0    0  0.00000000000E+00  0.00000000000E+00  0.14092083648E+03  0.16742579753E+03  0.90403072535E+02 0.  0.
          2    1    3    3  502    0  0.39173421845E+02 -0.42750743101E+01  0.29450363880E+02  0.49195092967E+02  0.00000000000E+00 0.  1.
         -2    1    3    3    0  502 -0.39173421845E+02  0.42750743101E+01  0.11147047260E+03  0.11823070456E+03  0.00000000000E+00 0. -1.
<mgrwt>
<rscale>  0 0.90403073E+02</rscale>
<asrwt>0</asrwt>
<pdfrwt beam="1">  1        1 0.23718971E-01 0.90403073E+02</pdfrwt>
<pdfrwt beam="2">  1       -1 0.20388433E-02 0.90403073E+02</pdfrwt>
<totfact> 0.11531843E+05</totfact>
</mgrwt>
</event>
<event>
 5    1  0.3963873E+001  0.9282064E+02  0.7546771E-02  0.1296161E+00
         -2   -1    0    0    0  501 -0.00000000000E+00  0.00000000000E+00  0.90865352111E+01  0.90865352111E+01  0.00000000000E+00 0.  1.
          2   -1    0    0  501    0  0.00000000000E+00 -0.00000000000E+00 -0.23704498357E+03  0.23704498357E+03  0.00000000000E+00 0. -1.
         23    2    1    2    0    0  0.00000000000E+00  0.00000000000E+00 -0.22795844836E+03  0.24613151878E+03  0.92820635417E+02 0.  0.
          2    1    3    3  502    0 -0.43256713672E+02 -0.20009534323E+01 -0.15825295288E+03  0.16407054637E+03  0.00000000000E+00 0. -1.
         -2    1    3    3    0  502  0.43256713672E+02  0.20009534323E+01 -0.69705495479E+02  0.82060972407E+02  0.00000000000E+00 0.  1.
<mgrwt>
<rscale>  0 0.92820635E+02</rscale>
<asrwt>0</asrwt>
<pdfrwt beam="2">  1        2 0.36468458E-01 0.92820635E+02</pdfrwt>
<pdfrwt beam="1">  1       -2 0.13979285E-02 0.92820635E+02</pdfrwt>
<totfact> 0.15688033E+05</totfact>
</mgrwt>
</event>
<event>
 5    1  0.3963873E+001  0.8889392E+02  0.7546771E-02  0.1305553E+00
          1   -1    0    0  501    0  0.00000000000E+00  0.00000000000E+00  0.12869479449E+04  0.12869479449E+04  0.00000000000E+00 0. -1.
         -1   -1    0    0    0  501 -0.00000000000E+00 -0.00000000000E+00 -0.15350521163E+01  0.15350521163E+01  0.00000000000E+00 0.  1.
         23    2    1    2    0    0  0.00000000000E+00  0.00000000000E+00  0.12854128928E+04  0.12884829970E+04  0.88893918046E+02 0.  0.
          2    1    3    3  502    0  0.28677127185E+02  0.16398498335E+02  0.10737217139E+04  0.10742297739E+04  0.00000000000E+00 0. -1.
         -2    1    3    3    0  502 -0.28677127185E+02 -0.16398498335E+02  0.21169117894E+03  0.21425322310E+03  0.00000000000E+00 0.  1.
<mgrwt>
<rscale>  0 0.88893918E+02</rscale>
<asrwt>0</asrwt>
<pdfrwt beam="1">  1        1 0.19799113E+00 0.88893918E+02</pdfrwt>
<pdfrwt beam="2">  1       -1 0.23616289E-03 0.88893918E+02</pdfrwt>
<totfact> 0.13128808E+05</totfact>
</mgrwt>
</event>
<event>
 5    1  0.3963873E+001  0.9618694E+02  0.7546771E-02  0.1288525E+00
          4   -1    0    0  501    0  0.00000000000E+00  0.00000000000E+00  0.24369876829E+02  0.24369876829E+02  0.00000000000E+00 0. -1.
         -4   -1    0    0    0  501 -0.00000000000E+00 -0.00000000000E+00 -0.94911521715E+02  0.94911521715E+02  0.00000000000E+00 0.  1.
         23    2    1    2    0    0  0.00000000000E+00  0.00000000000E+00 -0.70541644886E+02  0.11928139854E+03  0.96186944932E+02 0.  0.
          2    1    3    3  502    0  0.14181761076E+01  0.41215012017E+02 -0.45850916312E+01  0.41493511593E+02  0.00000000000E+00 0. -1.
         -2    1    3    3    0  502 -0.14181761076E+01 -0.41215012017E+02 -0.65956553255E+02  0.77787886951E+02  0.00000000000E+00 0.  1.
<mgrwt>
<rscale>  0 0.96186945E+02</rscale>
<asrwt>0</asrwt>
<pdfrwt beam="1">  1        4 0.37492119E-02 0.96186945E+02</pdfrwt>
<pdfrwt beam="2">  1       -4 0.14601772E-01 0.96186945E+02</pdfrwt>
<totfact> 0.21890184E+04</totfact>
</mgrwt>
</event>
<event>
 5    1  0.3963873E+001  0.9237763E+02  0.7546771E-02  0.1297194E+00
         -1   -1    0    0    0  501 -0.00000000000E+00  0.00000000000E+00  0.21169414221E+01  0.21169414221E+01  0.00000000000E+00 0.  1.
          1   -1    0    0  501    0  0.00000000000E+00 -0.00000000000E+00 -0.10077779202E+04  0.10077779202E+04  0.00000000000E+00 0. -1.
         23    2    1    2    0    0  0.00000000000E+00  0.00000000000E+00 -0.10056609788E+04  0.10098948617E+04  0.92377634169E+02 0.  0.
          2    1    3    3  502    0  0.44799401703E+02  0.93348337090E+01 -0.43431286290E+03  0.43671705760E+03  0.00000000000E+00 0. -1.
         -2    1    3    3    0  502 -0.44799401703E+02 -0.93348337090E+01 -0.57134811591E+03  0.57317780406E+03  0.00000000000E+00 0.  1.
<mgrwt>
<rscale>  0 0.92377634E+02</rscale>
<asrwt>0</asrwt>
<pdfrwt beam="2">  1        1 0.15504267E+00 0.92377634E+02</pdfrwt>
<pdfrwt beam="1">  1       -1 0.32568348E-03 0.92377634E+02</pdfrwt>
<totfact> 0.13111468E+05</totfact>
</mgrwt>
</event>
<event>
 5    1  0.3963873E+001  0.9290749E+02  0.7546771E-02  0.1295960E+00
          2   -1    0    0  501    0  0.00000000000E+00  0.00000000000E+00  0.20778582616E+04  0.20778582616E+04  0.00000000000E+00 0. -1.
         -2   -1    0    0    0  501 -0.00000000000E+00 -0.00000000000E+00 -0.10385455428E+01  0.10385455428E+01  0.00000000000E+00 0.  1.
         23    2    1    2    0    0  0.00000000000E+00  0.00000000000E+00  0.20768197160E+04  0.20788968071E+04  0.92907490251E+02 0.  0.
          2    1    3    3  502    0  0.34447685348E+02  0.30768908765E+02  0.11493497761E+04  0.11502774781E+04  0.00000000000E+00 0. -1.
         -2    1    3    3    0  502 -0.34447685348E+02 -0.30768908765E+02  0.92746993989E+03  0.92861932899E+03  0.00000000000E+00 0.  1.
<mgrwt>
<rscale>  0 0.92907490E+02</rscale>
<asrwt>0</asrwt>
<pdfrwt beam="1">  1        2 0.31966717E+00 0.92907490E+02</pdfrwt>
<pdfrwt beam="2">  1       -2 0.15977790E-03 0.92907490E+02</pdfrwt>
<totfact> 0.18036458E+05</totfact>
</mgrwt>
</event>
<event>
 5    1  0.3963873E+001  0.9158387E+02  0.7546771E-02  0.1299061E+00
          2   -1    0    0  501    0  0.00000000000E+00  0.00000000000E+00  0.40458743144E+03  0.40458743144E+03  0.00000000000E+00 0. -1.
         -2   -1    0    0    0  501 -0.00000000000E+00 -0.00000000000E+00 -0.51828134107E+01  0.51828134107E+01  0.00000000000E+00 0.  1.
         23    2    1    2    0    0  0.00000000000E+00  0.00000000000E+00  0.39940461803E+03  0.40977024485E+03  0.91583866821E+02 0.  0.
          2    1    3    3  502    0  0.22151873734E+02 -0.15399487260E+02  0.36525312567E+03  0.36624813383E+03  0.00000000000E+00 0. -1.
         -2    1    3    3    0  502 -0.22151873734E+02  0.15399487260E+02  0.34151492356E+02  0.43522111024E+02  0.00000000000E+00 0.  1.
<mgrwt>
<rscale>  0 0.91583867E+02</rscale>
<asrwt>0</asrwt>
<pdfrwt beam="1">  1        2 0.62244195E-01 0.91583867E+02</pdfrwt>
<pdfrwt beam="2">  1       -2 0.79735623E-03 0.91583867E+02</pdfrwt>
<totfact> 0.19808129E+05</totfact>
</mgrwt>
</event>
<event>
 5    1  0.3963873E+001  0.9191660E+02  0.7546771E-02  0.1298276E+00
          4   -1    0    0  501    0  0.00000000000E+00  0.00000000000E+00  0.65145747780E+01  0.65145747780E+01  0.00000000000E+00 0. -1.
         -4   -1    0    0    0  501 -0.00000000000E+00 -0.00000000000E+00 -0.32422154215E+03  0.32422154215E+03  0.00000000000E+00 0.  1.
         23    2    1    2    0    0  0.00000000000E+00  0.00000000000E+00 -0.31770696737E+03  0.33073611692E+03  0.91916603091E+02 0.  0.
          2    1    3    3  502    0  0.13838637857E+02  0.29510351185E+02 -0.42269129738E+02  0.53376474721E+02  0.00000000000E+00 0. -1.
         -2    1    3    3    0  502 -0.13838637857E+02 -0.29510351185E+02 -0.27543783763E+03  0.27735964220E+03  0.00000000000E+00 0.  1.
<mgrwt>
<rscale>  0 0.91916603E+02</rscale>
<asrwt>0</asrwt>
<pdfrwt beam="1">  1        4 0.10022424E-02 0.91916603E+02</pdfrwt>
<pdfrwt beam="2">  1       -4 0.49880230E-01 0.91916603E+02</pdfrwt>
<totfact> 0.16562200E+04</totfact>
</mgrwt>
</event>
<event>
 5    1  0.3963873E+001  0.6745318E+02  0.7546771E-02  0.1368974E+00
          1   -1    0    0  501    0  0.00000000000E+00  0.00000000000E+00  0.74349546839E+03  0.74349546839E+03  0.00000000000E+00 0. -1.
         -1   -1    0    0    0  501 -0.00000000000E+00 -0.00000000000E+00 -0.15299123750E+01  0.15299123750E+01  0.00000000000E+00 0.  1.
         23    2    1    2    0    0  0.00000000000E+00  0.00000000000E+00  0.74196555602E+03  0.74502538077E+03  0.67453181329E+02 0.  0.
          2    1    3    3  502    0  0.14834705068E+02  0.16120191230E+02  0.65420954993E+03  0.65457624785E+03  0.00000000000E+00 0. -1.
         -2    1    3    3    0  502 -0.14834705068E+02 -0.16120191230E+02  0.87756006091E+02  0.90449132914E+02  0.00000000000E+00 0.  1.
<mgrwt>
<rscale>  0 0.67453181E+02</rscale>
<asrwt>0</asrwt>
<pdfrwt beam="1">  1        1 0.11438363E+00 0.67453181E+02</pdfrwt>
<pdfrwt beam="2">  1       -1 0.23537173E-03 0.67453181E+02</pdfrwt>
<totfact> 0.31124642E+05</totfact>
</mgrwt>
</event>
<event>
 5    1  0.3963873E+001  0.1053514E+03  0.7546771E-02  0.1269429E+00
         -1   -1    0    0    0  501 -0.00000000000E+00  0.00000000000E+00  0.34164644268E+01  0.34164644268E+01  0.00000000000E+00 0.  1.
          1   -1    0    0  501    0  0.00000000000E+00 -0.00000000000E+00 -0.81216345084E+03  0.81216345084E+03  0.00000000000E+00 0. -1.
         23    2    1    2    0    0  0.00000000000E+00  0.00000000000E+00 -0.80874698641E+03  0.81557991527E+03  0.10535136522E+03 0.  0.
          2    1    3    3  502    0 -0.40351099595E+02 -0.19042375880E+02 -0.18762411728E+03  0.19285650807E+03  0.00000000000E+00 0. -1.
         -2    1    3    3    0  502  0.40351099595E+02  0.19042375880E+02 -0.62112286913E+03  0.62272340720E+03  0.00000000000E+00 0.  1.
<mgrwt>
<rscale>  0 0.10535137E+03</rscale>
<asrwt>0</asrwt>
<pdfrwt beam="2">  1        1 0.12494854E+00 0.10535137E+03</pdfrwt>
<pdfrwt beam="1">  1       -1 0.52560856E-03 0.10535137E+03</pdfrwt>
<totfact> 0.96044402E+04</totfact>
</mgrwt>
</event>
<event>
 5    1  0.3963873E+001  0.9070058E+02  0.7546771E-02  0.1301164E+00
          2   -1    0    0  501    0  0.00000000000E+00  0.00000000000E+00  0.12620204750E+04  0.12620204750E+04  0.00000000000E+00 0. -1.
         -2   -1    0    0    0  501 -0.00000000000E+00 -0.00000000000E+00 -0.16296476906E+01  0.16296476906E+01  0.00000000000E+00 0.  1.
         23    2    1    2    0    0  0.00000000000E+00  0.00000000000E+00  0.12603908273E+04  0.12636501227E+04  0.90700578887E+02 0.  0.
          2    1    3    3  502    0  0.28768942313E+02 -0.81994168091E+01  0.11050669813E+04  0.11054718068E+04  0.00000000000E+00 0. -1.
         -2    1    3    3    0  502 -0.28768942313E+02  0.81994168091E+01  0.15532384601E+03  0.15817831589E+03  0.00000000000E+00 0.  1.
<mgrwt>
<rscale>  0 0.90700579E+02</rscale>
<asrwt>0</asrwt>
<pdfrwt beam="1">  1        2 0.19415622E+00 0.90700579E+02</pdfrwt>
<pdfrwt beam="2">  1       -2 0.25071604E-03 0.90700579E+02</pdfrwt>
<totfact> 0.25042170E+05</totfact>
</mgrwt>
</event>
<event>
 5    1  0.3963873E+001  0.9589795E+02  0.7546771E-02  0.1289166E+00
         -4   -1    0    0    0  501 -0.00000000000E+00  0.00000000000E+00  0.16277357820E+02  0.16277357820E+02  0.00000000000E+00 0.  1.
          4   -1    0    0  501    0  0.00000000000E+00 -0.00000000000E+00 -0.14124553010E+03  0.14124553010E+03  0.00000000000E+00 0. -1.
         23    2    1    2    0    0  0.00000000000E+00  0.00000000000E+00 -0.12496817228E+03  0.15752288792E+03  0.95897946464E+02 0.  0.
          2    1    3    3  502    0 -0.34447100005E+02  0.20311420493E+02 -0.19026349731E+02  0.44284969067E+02  0.00000000000E+00 0. -1.
         -2    1    3    3    0  502  0.34447100005E+02 -0.20311420493E+02 -0.10594182255E+03  0.11323791886E+03  0.00000000000E+00 0.  1.
<mgrwt>
<rscale>  0 0.95897946E+02</rscale>
<asrwt>0</asrwt>
<pdfrwt beam="2">  1        4 0.21730082E-01 0.95897946E+02</pdfrwt>
<pdfrwt beam="1">  1       -4 0.25042088E-02 0.95897946E+02</pdfrwt>
<totfact> 0.20329748E+04</totfact>
</mgrwt>
</event>
<event>
 5    1  0.3963873E+001  0.8806489E+02  0.7546771E-02  0.1307607E+00
         -4   -1    0    0    0  501 -0.00000000000E+00  0.00000000000E+00  0.56266085212E+02  0.56266085212E+02  0.00000000000E+00 0.  1.
          4   -1    0    0  501    0  0.00000000000E+00 -0.00000000000E+00 -0.34458703850E+02  0.34458703850E+02  0.00000000000E+00 0. -1.
         23    2    1    2    0    0  0.00000000000E+00  0.00000000000E+00  0.21807381362E+02  0.90724789061E+02  0.88064893507E+02 0.  0.
          2    1    3    3  502    0  0.47309179898E+01  0.19458302267E+02 -0.29496185693E+02  0.35651536890E+02  0.00000000000E+00 0. -1.
         -2    1    3    3    0  502 -0.47309179898E+01 -0.19458302267E+02  0.51303567055E+02  0.55073252171E+02  0.00000000000E+00 0.  1.
<mgrwt>
<rscale>  0 0.88064894E+02</rscale>
<asrwt>0</asrwt>
<pdfrwt beam="2">  1        4 0.53013391E-02 0.88064894E+02</pdfrwt>
<pdfrwt beam="1">  1       -4 0.86563208E-02 0.88064894E+02</pdfrwt>
<totfact> 0.29707611E+04</totfact>
</mgrwt>
</event>
<event>
 5    1  0.3963873E+001  0.9041707E+02  0.7546771E-02  0.1301845E+00
         -2   -1    0    0    0  501 -0.00000000000E+00  0.00000000000E+00  0.78101775119E+02  0.78101775119E+02  0.00000000000E+00 0.  1.
          2   -1    0    0  501    0  0.00000000000E+00 -0.00000000000E+00 -0.26168568822E+02  0.26168568822E+02  0.00000000000E+00 0. -1.
         23    2    1    2    0    0  0.00000000000E+00  0.00000000000E+00  0.51933206298E+02  0.10427034394E+03  0.90417070895E+02 0.  0.
          2    1    3    3  502    0  0.37231147438E+02  0.25551154497E+02  0.23442183224E+02  0.50877851665E+02  0.00000000000E+00 0. -1.
         -2    1    3    3    0  502 -0.37231147438E+02 -0.25551154497E+02  0.28491023074E+02  0.53392492276E+02  0.00000000000E+00 0.  1.
<mgrwt>
<rscale>  0 0.90417071E+02</rscale>
<asrwt>0</asrwt>
<pdfrwt beam="2">  1        2 0.40259337E-02 0.90417071E+02</pdfrwt>
<pdfrwt beam="1">  1       -2 0.12015658E-01 0.90417071E+02</pdfrwt>
<totfact> 0.87418276E+04</totfact>
</mgrwt>
</event>
<event>
 5    1  0.3963873E+001  0.9088623E+02  0.7546771E-02  0.1300720E+00
          1   -1    0    0  501    0  0.00000000000E+00  0.00000000000E+00  0.51274474267E+03  0.51274474267E+03  0.00000000000E+00 0. -1.
         -1   -1    0    0    0  501 -0.00000000000E+00 -0.00000000000E+00 -0.40274944276E+01  0.40274944276E+01  0.00000000000E+00 0.  1.
         23    2    1    2    0    0  0.00000000000E+00  0.00000000000E+00  0.50871724824E+03  0.51677223710E+03  0.90886227645E+02 0.  0.
          2    1    3    3  502    0 -0.20888217408E+02  0.11633314173E+02  0.34626881521E+02  0.42079360131E+02  0.00000000000E+00 0.  1.
         -2    1    3    3    0  502  0.20888217408E+02 -0.11633314173E+02  0.47409036672E+03  0.47469287697E+03  0.00000000000E+00 0. -1.
<mgrwt>
<rscale>  0 0.90886228E+02</rscale>
<asrwt>0</asrwt>
<pdfrwt beam="1">  1        1 0.78883755E-01 0.90886228E+02</pdfrwt>
<pdfrwt beam="2">  1       -1 0.61961493E-03 0.90886228E+02</pdfrwt>
<totfact> 0.14085369E+05</totfact>
</mgrwt>
</event>
<event>
 5    1  0.3963873E+001  0.9217006E+02  0.7546771E-02  0.1297680E+00
         -1   -1    0    0    0  501 -0.00000000000E+00  0.00000000000E+00  0.56160565729E+03  0.56160565729E+03  0.00000000000E+00 0. -1.
          1   -1    0    0  501    0  0.00000000000E+00 -0.00000000000E+00 -0.37817105363E+01  0.37817105363E+01  0.00000000000E+00 0.  1.
         23    2    1    2    0    0  0.00000000000E+00  0.00000000000E+00  0.55782394675E+03  0.56538736782E+03  0.92170060897E+02 0.  0.
          2    1    3    3  502    0 -0.38638658562E+02 -0.11792001436E+02  0.14287249130E+03  0.14847405835E+03  0.00000000000E+00 0. -1.
         -2    1    3    3    0  502  0.38638658562E+02  0.11792001436E+02  0.41495145545E+03  0.41691330947E+03  0.00000000000E+00 0.  1.
<mgrwt>
<rscale>  0 0.92170061E+02</rscale>
<asrwt>0</asrwt>
<pdfrwt beam="2">  1        1 0.58180207E-03 0.92170061E+02</pdfrwt>
<pdfrwt beam="1">  1       -1 0.86400804E-01 0.92170061E+02</pdfrwt>
<totfact> 0.42390207E+04</totfact>
</mgrwt>
</event>
<event>
 5    1  0.3963873E+001  0.8469960E+02  0.7546771E-02  0.1316220E+00
         -2   -1    0    0    0  501 -0.00000000000E+00  0.00000000000E+00  0.24846888942E+02  0.24846888942E+02  0.00000000000E+00 0.  1.
          2   -1    0    0  501    0  0.00000000000E+00 -0.00000000000E+00 -0.72182305654E+02  0.72182305654E+02  0.00000000000E+00 0. -1.
         23    2    1    2    0    0  0.00000000000E+00  0.00000000000E+00 -0.47335416712E+02  0.97029194595E+02  0.84699604063E+02 0.  0.
          2    1    3    3  502    0  0.39765664179E+01 -0.42054317416E+02 -0.20206832805E+02  0.46826219000E+02  0.00000000000E+00 0. -1.
         -2    1    3    3    0  502 -0.39765664179E+01  0.42054317416E+02 -0.27128583907E+02  0.50202975595E+02  0.00000000000E+00 0.  1.
<mgrwt>
<rscale>  0 0.84699604E+02</rscale>
<asrwt>0</asrwt>
<pdfrwt beam="2">  1        2 0.11104970E-01 0.84699604E+02</pdfrwt>
<pdfrwt beam="1">  1       -2 0.38225984E-02 0.84699604E+02</pdfrwt>
<totfact> 0.13687346E+05</totfact>
</mgrwt>
</event>
<event>
 5    1  0.3963873E+001  0.9421713E+02  0.7546771E-02  0.1292949E+00
          3   -1    0    0  501    0  0.00000000000E+00  0.00000000000E+00  0.38322630838E+03  0.38322630838E+03  0.00000000000E+00 0. -1.
         -3   -1    0    0    0  501 -0.00000000000E+00 -0.00000000000E+00 -0.57908777155E+01  0.57908777155E+01  0.00000000000E+00 0.  1.
         23    2    1    2    0    0  0.00000000000E+00  0.00000000000E+00  0.37743543066E+03  0.38901718609E+03  0.94217125602E+02 0.  0.
          2    1    3    3  502    0 -0.16836516651E+02 -0.34803433161E+02  0.29985223371E+03  0.30233443290E+03  0.00000000000E+00 0.  1.
         -2    1    3    3    0  502  0.16836516651E+02  0.34803433161E+02  0.77583196948E+02  0.86682753194E+02  0.00000000000E+00 0. -1.
<mgrwt>
<rscale>  0 0.94217126E+02</rscale>
<asrwt>0</asrwt>
<pdfrwt beam="1">  1        3 0.58957874E-01 0.94217126E+02</pdfrwt>
<pdfrwt beam="2">  1       -3 0.89090456E-03 0.94217126E+02</pdfrwt>
<totfact> 0.19185297E+04</totfact>
</mgrwt>
</event>
<event>
 5    1  0.3963873E+001  0.9252683E+02  0.7546771E-02  0.1296845E+00
          2   -1    0    0  501    0  0.00000000000E+00  0.00000000000E+00  0.13694205280E+03  0.13694205280E+03  0.00000000000E+00 0. -1.
         -2   -1    0    0    0  501 -0.00000000000E+00 -0.00000000000E+00 -0.15629263944E+02  0.15629263944E+02  0.00000000000E+00 0.  1.
         23    2    1    2    0    0  0.00000000000E+00  0.00000000000E+00  0.12131278885E+03  0.15257131674E+03  0.92526828286E+02 0.  0.
          2    1    3    3  502    0  0.10475681095E+02  0.36467582642E+02  0.10430443707E+03  0.11099117113E+03  0.00000000000E+00 0. -1.
         -2    1    3    3    0  502 -0.10475681095E+02 -0.36467582642E+02  0.17008351787E+02  0.41580145606E+02  0.00000000000E+00 0.  1.
<mgrwt>
<rscale>  0 0.92526828E+02</rscale>
<asrwt>0</asrwt>
<pdfrwt beam="1">  1        2 0.21068007E-01 0.92526828E+02</pdfrwt>
<pdfrwt beam="2">  1       -2 0.24045022E-02 0.92526828E+02</pdfrwt>
<totfact> 0.13026411E+05</totfact>
</mgrwt>
</event>
<event>
 5    1  0.3963873E+001  0.8942869E+02  0.7546771E-02  0.1304241E+00
          1   -1    0    0  501    0  0.00000000000E+00  0.00000000000E+00  0.21030891718E+04  0.21030891718E+04  0.00000000000E+00 0. -1.
         -1   -1    0    0    0  501 -0.00000000000E+00 -0.00000000000E+00 -0.95068370093E+00  0.95068370093E+00  0.00000000000E+00 0.  1.
         23    2    1    2    0    0  0.00000000000E+00  0.00000000000E+00  0.21021384881E+04  0.21040398555E+04  0.89428688847E+02 0.  0.
          2    1    3    3  502    0 -0.44247668918E+02  0.15253610531E+01  0.11983557232E+04  0.11991733079E+04  0.00000000000E+00 0.  1.
         -2    1    3    3    0  502  0.44247668918E+02 -0.15253610531E+01  0.90378276487E+03  0.90486654762E+03  0.00000000000E+00 0. -1.
<mgrwt>
<rscale>  0 0.89428689E+02</rscale>
<asrwt>0</asrwt>
<pdfrwt beam="1">  1        1 0.32354846E+00 0.89428689E+02</pdfrwt>
<pdfrwt beam="2">  1       -1 0.14626071E-03 0.89428689E+02</pdfrwt>
<totfact> 0.77529654E+04</totfact>
</mgrwt>
</event>
<event>
 5    1  0.3963873E+001  0.9160548E+02  0.7546771E-02  0.1299010E+00
          4   -1    0    0  501    0  0.00000000000E+00  0.00000000000E+00  0.59832645910E+02  0.59832645910E+02  0.00000000000E+00 0. -1.
         -4   -1    0    0    0  501 -0.00000000000E+00 -0.00000000000E+00 -0.35062647379E+02  0.35062647379E+02  0.00000000000E+00 0.  1.
         23    2    1    2    0    0  0.00000000000E+00  0.00000000000E+00  0.24769998531E+02  0.94895293289E+02  0.91605479428E+02 0.  0.
          2    1    3    3  502    0 -0.19862883259E+01 -0.24107143605E+02  0.52676433081E+02  0.57964698880E+02  0.00000000000E+00 0. -1.
         -2    1    3    3    0  502  0.19862883259E+01  0.24107143605E+02 -0.27906434550E+02  0.36930594409E+02  0.00000000000E+00 0.  1.
<mgrwt>
<rscale>  0 0.91605479E+02</rscale>
<asrwt>0</asrwt>
<pdfrwt beam="1">  1        4 0.92050225E-02 0.91605479E+02</pdfrwt>
<pdfrwt beam="2">  1       -4 0.53942534E-02 0.91605479E+02</pdfrwt>
<totfact> 0.26439232E+04</totfact>
</mgrwt>
</event>
<event>
 5    1  0.3963873E+001  0.9383967E+02  0.7546771E-02  0.1293811E+00
          2   -1    0    0  501    0  0.00000000000E+00  0.00000000000E+00  0.73954176992E+02  0.73954176992E+02  0.00000000000E+00 0. -1.
         -2   -1    0    0    0  501 -0.00000000000E+00 -0.00000000000E+00 -0.29768037839E+02  0.29768037839E+02  0.00000000000E+00 0.  1.
         23    2    1    2    0    0  0.00000000000E+00  0.00000000000E+00  0.44186139153E+02  0.10372221483E+03  0.93839666220E+02 0.  0.
          2    1    3    3  502    0  0.31057743157E+02 -0.95685204478E+01  0.59499889341E+02  0.67796584170E+02  0.00000000000E+00 0. -1.
         -2    1    3    3    0  502 -0.31057743157E+02  0.95685204478E+01 -0.15313750188E+02  0.35925630661E+02  0.00000000000E+00 0.  1.
<mgrwt>
<rscale>  0 0.93839666E+02</rscale>
<asrwt>0</asrwt>
<pdfrwt beam="1">  1        2 0.11377566E-01 0.93839666E+02</pdfrwt>
<pdfrwt beam="2">  1       -2 0.45796982E-02 0.93839666E+02</pdfrwt>
<totfact> 0.10363110E+05</totfact>
</mgrwt>
</event>
<event>
 5    1  0.3963873E+001  0.8400956E+02  0.7546771E-02  0.1318043E+00
         -2   -1    0    0    0  501 -0.00000000000E+00  0.00000000000E+00  0.49756364022E+02  0.49756364022E+02  0.00000000000E+00 0.  1.
          2   -1    0    0  501    0  0.00000000000E+00 -0.00000000000E+00 -0.35460822680E+02  0.35460822680E+02  0.00000000000E+00 0. -1.
         23    2    1    2    0    0  0.00000000000E+00  0.00000000000E+00  0.14295541342E+02  0.85217186702E+02  0.84009561403E+02 0.  0.
          2    1    3    3  502    0 -0.14015116387E+02 -0.37225892780E+02 -0.65448253856E+01  0.40311602796E+02  0.00000000000E+00 0. -1.
         -2    1    3    3    0  502  0.14015116387E+02  0.37225892780E+02  0.20840366728E+02  0.44905583906E+02  0.00000000000E+00 0.  1.
<mgrwt>
<rscale>  0 0.84009561E+02</rscale>
<asrwt>0</asrwt>
<pdfrwt beam="2">  1        2 0.54555112E-02 0.84009561E+02</pdfrwt>
<pdfrwt beam="1">  1       -2 0.76548252E-02 0.84009561E+02</pdfrwt>
<totfact> 0.11718261E+05</totfact>
</mgrwt>
</event>
<event>
 5    1  0.3963873E+001  0.9140429E+02  0.7546771E-02  0.1299486E+00
         -1   -1    0    0    0  501 -0.00000000000E+00  0.00000000000E+00  0.16417531000E+01  0.16417531000E+01  0.00000000000E+00 0.  1.
          1   -1    0    0  501    0  0.00000000000E+00 -0.00000000000E+00 -0.12722291124E+04  0.12722291124E+04  0.00000000000E+00 0. -1.
         23    2    1    2    0    0  0.00000000000E+00  0.00000000000E+00 -0.12705873593E+04  0.12738708655E+04  0.91404290692E+02 0.  0.
          2    1    3    3  502    0 -0.44479398233E+02 -0.10484004965E+02 -0.62699156825E+03  0.62865472072E+03  0.00000000000E+00 0. -1.
         -2    1    3    3    0  502  0.44479398233E+02  0.10484004965E+02 -0.64359579108E+03  0.64521614481E+03  0.00000000000E+00 0.  1.
<mgrwt>
<rscale>  0 0.91404291E+02</rscale>
<asrwt>0</asrwt>
<pdfrwt beam="2">  1        1 0.19572692E+00 0.91404291E+02</pdfrwt>
<pdfrwt beam="1">  1       -1 0.25257822E-03 0.91404291E+02</pdfrwt>
<totfact> 0.12275588E+05</totfact>
</mgrwt>
</event>
<event>
 5    1  0.3963873E+001  0.9052396E+02  0.7546771E-02  0.1301588E+00
          2   -1    0    0  501    0  0.00000000000E+00  0.00000000000E+00  0.16835417605E+03  0.16835417605E+03  0.00000000000E+00 0. -1.
         -2   -1    0    0    0  501 -0.00000000000E+00 -0.00000000000E+00 -0.12168673682E+02  0.12168673682E+02  0.00000000000E+00 0.  1.
         23    2    1    2    0    0  0.00000000000E+00  0.00000000000E+00  0.15618550237E+03  0.18052284974E+03  0.90523964373E+02 0.  0.
          2    1    3    3  502    0  0.20901873318E+02  0.40144202114E+02  0.78988499572E+02  0.91036412145E+02  0.00000000000E+00 0.  1.
         -2    1    3    3    0  502 -0.20901873318E+02 -0.40144202114E+02  0.77197002799E+02  0.89486437590E+02  0.00000000000E+00 0. -1.
<mgrwt>
<rscale>  0 0.90523964E+02</rscale>
<asrwt>0</asrwt>
<pdfrwt beam="1">  1        2 0.25900641E-01 0.90523964E+02</pdfrwt>
<pdfrwt beam="2">  1       -2 0.18721038E-02 0.90523964E+02</pdfrwt>
<totfact> 0.14833599E+05</totfact>
</mgrwt>
</event>
<event>
 5    1  0.3963873E+001  0.9024209E+02  0.7546771E-02  0.1302266E+00
         -1   -1    0    0    0  501 -0.00000000000E+00  0.00000000000E+00  0.29644296889E+01  0.29644296889E+01  0.00000000000E+00 0.  1.
          1   -1    0    0  501    0  0.00000000000E+00 -0.00000000000E+00 -0.68677926238E+03  0.68677926238E+03  0.00000000000E+00 0. -1.
         23    2    1    2    0    0  0.00000000000E+00  0.00000000000E+00 -0.68381483269E+03  0.68974369207E+03  0.90242092953E+02 0.  0.
          2    1    3    3  502    0 -0.41958934250E+02  0.32814247408E+01 -0.21758071592E+03  0.22161382595E+03  0.00000000000E+00 0. -1.
         -2    1    3    3    0  502  0.41958934250E+02 -0.32814247408E+01 -0.46623411677E+03  0.46812986612E+03  0.00000000000E+00 0.  1.
<mgrwt>
<rscale>  0 0.90242093E+02</rscale>
<asrwt>0</asrwt>
<pdfrwt beam="2">  1        1 0.10565834E+00 0.90242093E+02</pdfrwt>
<pdfrwt beam="1">  1       -1 0.45606612E-03 0.90242093E+02</pdfrwt>
<totfact> 0.14611343E+05</totfact>
</mgrwt>
</event>
<event>
 5    1  0.3963873E+001  0.8954149E+02  0.7546771E-02  0.1303966E+00
          1   -1    0    0  501    0  0.00000000000E+00  0.00000000000E+00  0.44173421987E+03  0.44173421987E+03  0.00000000000E+00 0. -1.
         -1   -1    0    0    0  501 -0.00000000000E+00 -0.00000000000E+00 -0.45376144974E+01  0.45376144974E+01  0.00000000000E+00 0.  1.
         23    2    1    2    0    0  0.00000000000E+00  0.00000000000E+00  0.43719660537E+03  0.44627183437E+03  0.89541489826E+02 0.  0.
          2    1    3    3  502    0  0.16151135352E+02  0.22643155869E+02  0.39345302259E+03  0.39443485225E+03  0.00000000000E+00 0. -1.
         -2    1    3    3    0  502 -0.16151135352E+02 -0.22643155869E+02  0.43743582783E+02  0.51836982123E+02  0.00000000000E+00 0.  1.
<mgrwt>
<rscale>  0 0.89541490E+02</rscale>
<asrwt>0</asrwt>
<pdfrwt beam="1">  1        1 0.67959077E-01 0.89541490E+02</pdfrwt>
<pdfrwt beam="2">  1       -1 0.69809489E-03 0.89541490E+02</pdfrwt>
<totfact> 0.14371851E+05</totfact>
</mgrwt>
</event>
<event>
 5    1  0.3963873E+001  0.8940005E+02  0.7546771E-02  0.1304311E+00
         -3   -1    0    0    0  501 -0.00000000000E+00  0.00000000000E+00  0.17596026978E+03  0.17596026978E+03  0.00000000000E+00 0.  1.
          3   -1    0    0  501    0  0.00000000000E+00 -0.00000000000E+00 -0.11355360416E+02  0.11355360416E+02  0.00000000000E+00 0. -1.
         23    2    1    2    0    0  0.00000000000E+00  0.00000000000E+00  0.16460490936E+03  0.18731563019E+03  0.89400051057E+02 0.  0.
          2    1    3    3  502    0 -0.32410205289E+02  0.30035317132E+02  0.68161351122E+02  0.81231222254E+02  0.00000000000E+00 0. -1.
         -2    1    3    3    0  502  0.32410205289E+02 -0.30035317132E+02  0.96443558238E+02  0.10608440794E+03  0.00000000000E+00 0.  1.
<mgrwt>
<rscale>  0 0.89400051E+02</rscale>
<asrwt>0</asrwt>
<pdfrwt beam="2">  1        3 0.17469786E-02 0.89400051E+02</pdfrwt>
<pdfrwt beam="1">  1       -3 0.27070809E-01 0.89400051E+02</pdfrwt>
<totfact> 0.30755071E+04</totfact>
</mgrwt>
</event>
<event>
 5    1  0.3963873E+001  0.9089620E+02  0.7546771E-02  0.1300696E+00
         -1   -1    0    0    0  501 -0.00000000000E+00  0.00000000000E+00  0.27152934679E+01  0.27152934679E+01  0.00000000000E+00 0.  1.
          1   -1    0    0  501    0  0.00000000000E+00 -0.00000000000E+00 -0.76070221336E+03  0.76070221336E+03  0.00000000000E+00 0. -1.
         23    2    1    2    0    0  0.00000000000E+00  0.00000000000E+00 -0.75798691989E+03  0.76341750683E+03  0.90896199062E+02 0.  0.
          2    1    3    3  502    0  0.24629968646E+02 -0.93387916683E+01 -0.69005263178E+03  0.69055519910E+03  0.00000000000E+00 0. -1.
         -2    1    3    3    0  502 -0.24629968646E+02  0.93387916683E+01 -0.67934288114E+02  0.72862307724E+02  0.00000000000E+00 0.  1.
<mgrwt>
<rscale>  0 0.90896199E+02</rscale>
<asrwt>0</asrwt>
<pdfrwt beam="2">  1        1 0.11703127E+00 0.90896199E+02</pdfrwt>
<pdfrwt beam="1">  1       -1 0.41773688E-03 0.90896199E+02</pdfrwt>
<totfact> 0.14296579E+05</totfact>
</mgrwt>
</event>
<event>
 5    1  0.3963873E+001  0.9190383E+02  0.7546771E-02  0.1298306E+00
         -2   -1    0    0    0  501 -0.00000000000E+00  0.00000000000E+00  0.29432601629E+01  0.29432601629E+01  0.00000000000E+00 0.  1.
          2   -1    0    0  501    0  0.00000000000E+00 -0.00000000000E+00 -0.71742848381E+03  0.71742848381E+03  0.00000000000E+00 0. -1.
         23    2    1    2    0    0  0.00000000000E+00  0.00000000000E+00 -0.71448522364E+03  0.72037174397E+03  0.91903834003E+02 0.  0.
          2    1    3    3  502    0  0.35864973112E+02  0.25389542212E+02 -0.46259545523E+03  0.46467782425E+03  0.00000000000E+00 0. -1.
         -2    1    3    3    0  502 -0.35864973112E+02 -0.25389542212E+02 -0.25188976841E+03  0.25569391972E+03  0.00000000000E+00 0.  1.
<mgrwt>
<rscale>  0 0.91903834E+02</rscale>
<asrwt>0</asrwt>
<pdfrwt beam="2">  1        2 0.11037359E+00 0.91903834E+02</pdfrwt>
<pdfrwt beam="1">  1       -2 0.45280934E-03 0.91903834E+02</pdfrwt>
<totfact> 0.23353189E+05</totfact>
</mgrwt>
</event>
<event>
 5    1  0.3963873E+001  0.9215484E+02  0.7546771E-02  0.1297716E+00
          2   -1    0    0  501    0  0.00000000000E+00  0.00000000000E+00  0.15730632545E+03  0.15730632545E+03  0.00000000000E+00 0. -1.
         -2   -1    0    0    0  501 -0.00000000000E+00 -0.00000000000E+00 -0.13496778390E+02  0.13496778390E+02  0.00000000000E+00 0.  1.
         23    2    1    2    0    0  0.00000000000E+00  0.00000000000E+00  0.14380954706E+03  0.17080310384E+03  0.92154839568E+02 0.  0.
          2    1    3    3  502    0 -0.36447799420E+02 -0.18264213375E+02  0.11170426713E+03  0.11891117217E+03  0.00000000000E+00 0. -1.
         -2    1    3    3    0  502  0.36447799420E+02  0.18264213375E+02  0.32105279934E+02  0.51891931669E+02  0.00000000000E+00 0.  1.
<mgrwt>
<rscale>  0 0.92154840E+02</rscale>
<asrwt>0</asrwt>
<pdfrwt beam="1">  1        2 0.24200972E-01 0.92154840E+02</pdfrwt>
<pdfrwt beam="2">  1       -2 0.20764275E-02 0.92154840E+02</pdfrwt>
<totfact> 0.13804625E+05</totfact>
</mgrwt>
</event>
<event>
 5    1  0.3963873E+001  0.8764139E+02  0.7546771E-02  0.1308666E+00
         -2   -1    0    0    0  501 -0.00000000000E+00  0.00000000000E+00  0.11586591586E+02  0.11586591586E+02  0.00000000000E+00 0.  1.
          2   -1    0    0  501    0  0.00000000000E+00 -0.00000000000E+00 -0.16573063576E+03  0.16573063576E+03  0.00000000000E+00 0. -1.
         23    2    1    2    0    0  0.00000000000E+00  0.00000000000E+00 -0.15414404417E+03  0.17731722734E+03  0.87641387252E+02 0.  0.
          2    1    3    3  502    0  0.24460841499E+02  0.11728755348E+02 -0.14669986694E+03  0.14918695462E+03  0.00000000000E+00 0. -1.
         -2    1    3    3    0  502 -0.24460841499E+02 -0.11728755348E+02 -0.74441772326E+01  0.28130272724E+02  0.00000000000E+00 0.  1.
<mgrwt>
<rscale>  0 0.87641387E+02</rscale>
<asrwt>0</asrwt>
<pdfrwt beam="2">  1        2 0.25497019E-01 0.87641387E+02</pdfrwt>
<pdfrwt beam="1">  1       -2 0.17825527E-02 0.87641387E+02</pdfrwt>
<totfact> 0.16097710E+05</totfact>
</mgrwt>
</event>
<event>
 5    1  0.3963873E+001  0.9063442E+02  0.7546771E-02  0.1301323E+00
          2   -1    0    0  501    0  0.00000000000E+00  0.00000000000E+00  0.12439553071E+04  0.12439553071E+04  0.00000000000E+00 0. -1.
         -2   -1    0    0    0  501 -0.00000000000E+00 -0.00000000000E+00 -0.16509029848E+01  0.16509029848E+01  0.00000000000E+00 0.  1.
         23    2    1    2    0    0  0.00000000000E+00  0.00000000000E+00  0.12423044041E+04  0.12456062100E+04  0.90634420159E+02 0.  0.
          2    1    3    3  502    0  0.13723350504E+02  0.42800460260E+02  0.70062514977E+03  0.70206538886E+03  0.00000000000E+00 0. -1.
         -2    1    3    3    0  502 -0.13723350504E+02 -0.42800460260E+02  0.54167925431E+03  0.54354082118E+03  0.00000000000E+00 0.  1.
<mgrwt>
<rscale>  0 0.90634420E+02</rscale>
<asrwt>0</asrwt>
<pdfrwt beam="1">  1        2 0.19137699E+00 0.90634420E+02</pdfrwt>
<pdfrwt beam="2">  1       -2 0.25398607E-03 0.90634420E+02</pdfrwt>
<totfact> 0.25146049E+05</totfact>
</mgrwt>
</event>
<event>
 5    1  0.3963873E+001  0.9214469E+02  0.7546771E-02  0.1297740E+00
          1   -1    0    0  501    0  0.00000000000E+00  0.00000000000E+00  0.20732075663E+04  0.20732075663E+04  0.00000000000E+00 0. -1.
         -1   -1    0    0    0  501 -0.00000000000E+00 -0.00000000000E+00 -0.10238535971E+01  0.10238535971E+01  0.00000000000E+00 0.  1.
         23    2    1    2    0    0  0.00000000000E+00  0.00000000000E+00  0.20721837127E+04  0.20742314199E+04  0.92144691096E+02 0.  0.
          2    1    3    3  502    0  0.27242187558E+02 -0.13202033341E+01  0.18719538589E+04  0.18721525390E+04  0.00000000000E+00 0. -1.
         -2    1    3    3    0  502 -0.27242187558E+02  0.13202033341E+01  0.20022985379E+03  0.20207888081E+03  0.00000000000E+00 0.  1.
<mgrwt>
<rscale>  0 0.92144691E+02</rscale>
<asrwt>0</asrwt>
<pdfrwt beam="1">  1        1 0.31895165E+00 0.92144691E+02</pdfrwt>
<pdfrwt beam="2">  1       -1 0.15751760E-03 0.92144691E+02</pdfrwt>
<totfact> 0.73302682E+04</totfact>
</mgrwt>
</event>
<event>
 5    1  0.3963873E+001  0.9093366E+02  0.7546771E-02  0.1300606E+00
          2   -1    0    0  501    0  0.00000000000E+00  0.00000000000E+00  0.50414117930E+01  0.50414117930E+01  0.00000000000E+00 0. -1.
         -2   -1    0    0    0  501 -0.00000000000E+00 -0.00000000000E+00 -0.41005038562E+03  0.41005038562E+03  0.00000000000E+00 0.  1.
         23    2    1    2    0    0  0.00000000000E+00  0.00000000000E+00 -0.40500897383E+03  0.41509179741E+03  0.90933664829E+02 0.  0.
          2    1    3    3  502    0 -0.13468744657E+02  0.32201260406E+02 -0.69505326551E+02  0.77777366073E+02  0.00000000000E+00 0. -1.
         -2    1    3    3    0  502  0.13468744657E+02 -0.32201260406E+02 -0.33550364728E+03  0.33731443134E+03  0.00000000000E+00 0.  1.
<mgrwt>
<rscale>  0 0.90933665E+02</rscale>
<asrwt>0</asrwt>
<pdfrwt beam="1">  1        2 0.77560165E-03 0.90933665E+02</pdfrwt>
<pdfrwt beam="2">  1       -2 0.63084688E-01 0.90933665E+02</pdfrwt>
<totfact> 0.42267045E+04</totfact>
</mgrwt>
</event>
<event>
 5    1  0.3963873E+001  0.9139247E+02  0.7546771E-02  0.1299514E+00
         -2   -1    0    0    0  501 -0.00000000000E+00  0.00000000000E+00  0.16021246893E+03  0.16021246893E+03  0.00000000000E+00 0.  1.
          2   -1    0    0  501    0  0.00000000000E+00 -0.00000000000E+00 -0.13033604985E+02  0.13033604985E+02  0.00000000000E+00 0. -1.
         23    2    1    2    0    0  0.00000000000E+00  0.00000000000E+00  0.14717886395E+03  0.17324607392E+03  0.91392473077E+02 0.  0.
          2    1    3    3  502    0 -0.77613686965E+01  0.20958252117E+02  0.14914531687E+03  0.15081051926E+03  0.00000000000E+00 0.  1.
         -2    1    3    3    0  502  0.77613686965E+01 -0.20958252117E+02 -0.19664529180E+01  0.22435554661E+02  0.00000000000E+00 0. -1.
<mgrwt>
<rscale>  0 0.91392473E+02</rscale>
<asrwt>0</asrwt>
<pdfrwt beam="2">  1        2 0.20051701E-02 0.91392473E+02</pdfrwt>
<pdfrwt beam="1">  1       -2 0.24648071E-01 0.91392473E+02</pdfrwt>
<totfact> 0.67763026E+04</totfact>
</mgrwt>
</event>
<event>
 5    1  0.3963873E+001  0.8822867E+02  0.7546771E-02  0.1307199E+00
          2   -1    0    0  501    0  0.00000000000E+00  0.00000000000E+00  0.77661560727E+03  0.77661560727E+03  0.00000000000E+00 0. -1.
         -2   -1    0    0    0  501 -0.00000000000E+00 -0.00000000000E+00 -0.25058401677E+01  0.25058401677E+01  0.00000000000E+00 0.  1.
         23    2    1    2    0    0  0.00000000000E+00  0.00000000000E+00  0.77410976710E+03  0.77912144743E+03  0.88228670704E+02 0.  0.
          2    1    3    3  502    0 -0.59129235585E+01 -0.43186153480E+02  0.44699194056E+03  0.44911223702E+03  0.00000000000E+00 0. -1.
         -2    1    3    3    0  502  0.59129235585E+01  0.43186153480E+02  0.32711782654E+03  0.33000921041E+03  0.00000000000E+00 0.  1.
<mgrwt>
<rscale>  0 0.88228671E+02</rscale>
<asrwt>0</asrwt>
<pdfrwt beam="1">  1        2 0.11947913E+00 0.88228671E+02</pdfrwt>
<pdfrwt beam="2">  1       -2 0.38551449E-03 0.88228671E+02</pdfrwt>
<totfact> 0.26431962E+05</totfact>
</mgrwt>
</event>
<event>
 5    1  0.3963873E+001  0.9196655E+02  0.7546771E-02  0.1298158E+00
         -3   -1    0    0    0  501 -0.00000000000E+00  0.00000000000E+00  0.12197888970E+03  0.12197888970E+03  0.00000000000E+00 0.  1.
          3   -1    0    0  501    0  0.00000000000E+00 -0.00000000000E+00 -0.17334652752E+02  0.17334652752E+02  0.00000000000E+00 0. -1.
         23    2    1    2    0    0  0.00000000000E+00  0.00000000000E+00  0.10464423695E+03  0.13931354245E+03  0.91966552528E+02 0.  0.
          2    1    3    3  502    0  0.33568217257E+02 -0.22855335488E+02  0.84997149821E+02  0.94200355879E+02  0.00000000000E+00 0.  1.
         -2    1    3    3    0  502 -0.33568217257E+02  0.22855335488E+02  0.19647087126E+02  0.45113186571E+02  0.00000000000E+00 0. -1.
<mgrwt>
<rscale>  0 0.91966553E+02</rscale>
<asrwt>0</asrwt>
<pdfrwt beam="2">  1        3 0.26668697E-02 0.91966553E+02</pdfrwt>
<pdfrwt beam="1">  1       -3 0.18765982E-01 0.91966553E+02</pdfrwt>
<totfact> 0.31234969E+04</totfact>
</mgrwt>
</event>
<event>
 5    1  0.3963873E+001  0.9495175E+02  0.7546771E-02  0.1291285E+00
         -2   -1    0    0    0  501 -0.00000000000E+00  0.00000000000E+00  0.75121038304E+02  0.75121038304E+02  0.00000000000E+00 0.  1.
          2   -1    0    0  501    0  0.00000000000E+00 -0.00000000000E+00 -0.30004362948E+02  0.30004362948E+02  0.00000000000E+00 0. -1.
         23    2    1    2    0    0  0.00000000000E+00  0.00000000000E+00  0.45116675356E+02  0.10512540125E+03  0.94951754030E+02 0.  0.
          2    1    3    3  502    0  0.32089777133E+02  0.21261766942E+02 -0.82064106273E+01  0.39359391577E+02  0.00000000000E+00 0. -1.
         -2    1    3    3    0  502 -0.32089777133E+02 -0.21261766942E+02  0.53323085983E+02  0.65766009676E+02  0.00000000000E+00 0.  1.
<mgrwt>
<rscale>  0 0.94951754E+02</rscale>
<asrwt>0</asrwt>
<pdfrwt beam="2">  1        2 0.46160559E-02 0.94951754E+02</pdfrwt>
<pdfrwt beam="1">  1       -2 0.11557083E-01 0.94951754E+02</pdfrwt>
<totfact> 0.78378152E+04</totfact>
</mgrwt>
</event>
<event>
 5    1  0.3963873E+001  0.8767644E+02  0.7546771E-02  0.1308578E+00
          2   -1    0    0  501    0  0.00000000000E+00  0.00000000000E+00  0.18754477799E+04  0.18754477799E+04  0.00000000000E+00 0. -1.
         -2   -1    0    0    0  501 -0.00000000000E+00 -0.00000000000E+00 -0.10247097853E+01  0.10247097853E+01  0.00000000000E+00 0.  1.
         23    2    1    2    0    0  0.00000000000E+00  0.00000000000E+00  0.18744230701E+04  0.18764724897E+04  0.87676443631E+02 0.  0.
          2    1    3    3  502    0  0.15040697949E+02  0.36725228396E+02  0.13357904162E+04  0.13363798116E+04  0.00000000000E+00 0. -1.
         -2    1    3    3    0  502 -0.15040697949E+02 -0.36725228396E+02  0.53863265393E+03  0.54009267804E+03  0.00000000000E+00 0.  1.
<mgrwt>
<rscale>  0 0.87676444E+02</rscale>
<asrwt>0</asrwt>
<pdfrwt beam="1">  1        2 0.28852768E+00 0.87676444E+02</pdfrwt>
<pdfrwt beam="2">  1       -2 0.15764916E-03 0.87676444E+02</pdfrwt>
<totfact> 0.23055665E+05</totfact>
</mgrwt>
</event>
<event>
 5    1  0.3963873E+001  0.9192633E+02  0.7546771E-02  0.1298253E+00
         -2   -1    0    0    0  501 -0.00000000000E+00  0.00000000000E+00  0.45389596140E+03  0.45389596140E+03  0.00000000000E+00 0. -1.
          2   -1    0    0  501    0  0.00000000000E+00 -0.00000000000E+00 -0.46543985523E+01  0.46543985523E+01  0.00000000000E+00 0.  1.
         23    2    1    2    0    0  0.00000000000E+00  0.00000000000E+00  0.44924156285E+03  0.45855035995E+03  0.91926333673E+02 0.  0.
          2    1    3    3  502    0  0.38431367947E+02  0.71230845533E+01  0.34526027834E+03  0.34746563597E+03  0.00000000000E+00 0. -1.
         -2    1    3    3    0  502 -0.38431367947E+02 -0.71230845533E+01  0.10398128450E+03  0.11108472399E+03  0.00000000000E+00 0.  1.
<mgrwt>
<rscale>  0 0.91926334E+02</rscale>
<asrwt>0</asrwt>
<pdfrwt beam="2">  1        2 0.71606167E-03 0.91926334E+02</pdfrwt>
<pdfrwt beam="1">  1       -2 0.69830113E-01 0.91926334E+02</pdfrwt>
<totfact> 0.38236515E+04</totfact>
</mgrwt>
</event>
<event>
 5    1  0.3963873E+001  0.9897024E+02  0.7546771E-02  0.1282476E+00
          1   -1    0    0  501    0  0.00000000000E+00  0.00000000000E+00  0.22545337841E+03  0.22545337841E+03  0.00000000000E+00 0. -1.
         -1   -1    0    0    0  501 -0.00000000000E+00 -0.00000000000E+00 -0.10861567507E+02  0.10861567507E+02  0.00000000000E+00 0.  1.
         23    2    1    2    0    0  0.00000000000E+00  0.00000000000E+00  0.21459181090E+03  0.23631494591E+03  0.98970239756E+02 0.  0.
          2    1    3    3  502    0 -0.48642809121E+02  0.22155901401E+01  0.86242428159E+02  0.99039326197E+02  0.00000000000E+00 0. -1.
         -2    1    3    3    0  502  0.48642809121E+02 -0.22155901401E+01  0.12834938274E+03  0.13727561972E+03  0.00000000000E+00 0.  1.
<mgrwt>
<rscale>  0 0.98970240E+02</rscale>
<asrwt>0</asrwt>
<pdfrwt beam="1">  1        1 0.34685132E-01 0.98970240E+02</pdfrwt>
<pdfrwt beam="2">  1       -1 0.16710106E-02 0.98970240E+02</pdfrwt>
<totfact> 0.97208159E+04</totfact>
</mgrwt>
</event>
<event>
 5    1  0.3963873E+001  0.9484705E+02  0.7546771E-02  0.1291521E+00
         -1   -1    0    0    0  501 -0.00000000000E+00  0.00000000000E+00  0.37462858108E+02  0.37462858108E+02  0.00000000000E+00 0.  1.
          1   -1    0    0  501    0  0.00000000000E+00 -0.00000000000E+00 -0.60032549521E+02  0.60032549521E+02  0.00000000000E+00 0. -1.
         23    2    1    2    0    0  0.00000000000E+00  0.00000000000E+00 -0.22569691413E+02  0.97495407630E+02  0.94847053399E+02 0.  0.
          2    1    3    3  502    0 -0.42060104736E+01  0.46925278866E+02 -0.16850697815E+02  0.50036170294E+02  0.00000000000E+00 0. -1.
         -2    1    3    3    0  502  0.42060104736E+01 -0.46925278866E+02 -0.57189935977E+01  0.47459237336E+02  0.00000000000E+00 0.  1.
<mgrwt>
<rscale>  0 0.94847053E+02</rscale>
<asrwt>0</asrwt>
<pdfrwt beam="2">  1        1 0.92357768E-02 0.94847053E+02</pdfrwt>
<pdfrwt beam="1">  1       -1 0.57635167E-02 0.94847053E+02</pdfrwt>
<totfact> 0.86349533E+04</totfact>
</mgrwt>
</event>
<event>
 5    1  0.3963873E+001  0.9461997E+02  0.7546771E-02  0.1292034E+00
         -1   -1    0    0    0  501 -0.00000000000E+00  0.00000000000E+00  0.17726643745E+01  0.17726643745E+01  0.00000000000E+00 0.  1.
          1   -1    0    0  501    0  0.00000000000E+00 -0.00000000000E+00 -0.12626387046E+04  0.12626387046E+04  0.00000000000E+00 0. -1.
         23    2    1    2    0    0  0.00000000000E+00  0.00000000000E+00 -0.12608660402E+04  0.12644113689E+04  0.94619969340E+02 0.  0.
          2    1    3    3  502    0 -0.28586390375E+02  0.29681304417E+02 -0.94098325603E+03  0.94188515737E+03  0.00000000000E+00 0. -1.
         -2    1    3    3    0  502  0.28586390375E+02 -0.29681304417E+02 -0.31988278416E+03  0.32252621156E+03  0.00000000000E+00 0.  1.
<mgrwt>
<rscale>  0 0.94619969E+02</rscale>
<asrwt>0</asrwt>
<pdfrwt beam="2">  1        1 0.19425266E+00 0.94619969E+02</pdfrwt>
<pdfrwt beam="1">  1       -1 0.27271682E-03 0.94619969E+02</pdfrwt>
<totfact> 0.11247203E+05</totfact>
</mgrwt>
</event>
<event>
 5    1  0.3963873E+001  0.8908248E+02  0.7546771E-02  0.1305089E+00
         -4   -1    0    0    0  501 -0.00000000000E+00  0.00000000000E+00  0.92495072172E+02  0.92495072172E+02  0.00000000000E+00 0.  1.
          4   -1    0    0  501    0  0.00000000000E+00 -0.00000000000E+00 -0.21448948203E+02  0.21448948203E+02  0.00000000000E+00 0. -1.
         23    2    1    2    0    0  0.00000000000E+00  0.00000000000E+00  0.71046123969E+02  0.11394402037E+03  0.89082478906E+02 0.  0.
          2    1    3    3  502    0  0.37206640969E+01 -0.22993613739E+02 -0.13037907197E+02  0.26693381917E+02  0.00000000000E+00 0. -1.
         -2    1    3    3    0  502 -0.37206640969E+01  0.22993613739E+02  0.84084031166E+02  0.87250638458E+02  0.00000000000E+00 0.  1.
<mgrwt>
<rscale>  0 0.89082479E+02</rscale>
<asrwt>0</asrwt>
<pdfrwt beam="2">  1        4 0.32998382E-02 0.89082479E+02</pdfrwt>
<pdfrwt beam="1">  1       -4 0.14230011E-01 0.89082479E+02</pdfrwt>
<totfact> 0.27276597E+04</totfact>
</mgrwt>
</event>
<event>
 5    1  0.3963873E+001  0.8982504E+02  0.7546771E-02  0.1303276E+00
          1   -1    0    0  501    0  0.00000000000E+00  0.00000000000E+00  0.11255743845E+02  0.11255743845E+02  0.00000000000E+00 0. -1.
         -1   -1    0    0    0  501 -0.00000000000E+00 -0.00000000000E+00 -0.17920933457E+03  0.17920933457E+03  0.00000000000E+00 0.  1.
         23    2    1    2    0    0  0.00000000000E+00  0.00000000000E+00 -0.16795359072E+03  0.19046507841E+03  0.89825038036E+02 0.  0.
          2    1    3    3  502    0 -0.38194100760E+02  0.93104212941E+01 -0.37926441282E+02  0.54624978040E+02  0.00000000000E+00 0. -1.
         -2    1    3    3    0  502  0.38194100760E+02 -0.93104212941E+01 -0.13002714944E+03  0.13584010037E+03  0.00000000000E+00 0.  1.
<mgrwt>
<rscale>  0 0.89825038E+02</rscale>
<asrwt>0</asrwt>
<pdfrwt beam="1">  1        1 0.17316530E-02 0.89825038E+02</pdfrwt>
<pdfrwt beam="2">  1       -1 0.27570666E-01 0.89825038E+02</pdfrwt>
<totfact> 0.74385158E+04</totfact>
</mgrwt>
</event>
<event>
 5    1  0.3963873E+001  0.9113636E+02  0.7546771E-02  0.1300123E+00
          2   -1    0    0  501    0  0.00000000000E+00  0.00000000000E+00  0.92992592605E+02  0.92992592605E+02  0.00000000000E+00 0.  1.
         -2   -1    0    0    0  501 -0.00000000000E+00 -0.00000000000E+00 -0.22329292510E+02  0.22329292510E+02  0.00000000000E+00 0. -1.
         23    2    1    2    0    0  0.00000000000E+00  0.00000000000E+00  0.70663300095E+02  0.11532188512E+03  0.91136355019E+02 0.  0.
          2    1    3    3  502    0  0.50649175580E+01  0.22476686292E+02 -0.14415613026E+02  0.27178386918E+02  0.00000000000E+00 0. -1.
         -2    1    3    3    0  502 -0.50649175580E+01 -0.22476686292E+02  0.85078913122E+02  0.88143498198E+02  0.00000000000E+00 0.  1.
<mgrwt>
<rscale>  0 0.91136355E+02</rscale>
<asrwt>0</asrwt>
<pdfrwt beam="1">  1        2 0.14306552E-01 0.91136355E+02</pdfrwt>
<pdfrwt beam="2">  1       -2 0.34352758E-02 0.91136355E+02</pdfrwt>
<totfact> 0.12016625E+05</totfact>
</mgrwt>
</event>
<event>
 5    1  0.3963873E+001  0.9069129E+02  0.7546771E-02  0.1301186E+00
          2   -1    0    0  501    0  0.00000000000E+00  0.00000000000E+00  0.77967786231E+03  0.77967786231E+03  0.00000000000E+00 0. -1.
         -2   -1    0    0    0  501 -0.00000000000E+00 -0.00000000000E+00 -0.26372782021E+01  0.26372782021E+01  0.00000000000E+00 0.  1.
         23    2    1    2    0    0  0.00000000000E+00  0.00000000000E+00  0.77704058411E+03  0.78231514052E+03  0.90691288027E+02 0.  0.
          2    1    3    3  502    0  0.29590460157E+02  0.34353849155E+02  0.38276499360E+03  0.38544107541E+03  0.00000000000E+00 0. -1.
         -2    1    3    3    0  502 -0.29590460157E+02 -0.34353849155E+02  0.39427559051E+03  0.39687406511E+03  0.00000000000E+00 0.  1.
<mgrwt>
<rscale>  0 0.90691288E+02</rscale>
<asrwt>0</asrwt>
<pdfrwt beam="1">  1        2 0.11995026E+00 0.90691288E+02</pdfrwt>
<pdfrwt beam="2">  1       -2 0.40573573E-03 0.90691288E+02</pdfrwt>
<totfact> 0.24603951E+05</totfact>
</mgrwt>
</event>
<event>
 5    1  0.3963873E+001  0.8589130E+02  0.7546771E-02  0.1313118E+00
         -4   -1    0    0    0  501 -0.00000000000E+00  0.00000000000E+00  0.45821522990E+01  0.45821522990E+01  0.00000000000E+00 0.  1.
          4   -1    0    0  501    0  0.00000000000E+00 -0.00000000000E+00 -0.40250270340E+03  0.40250270340E+03  0.00000000000E+00 0. -1.
         23    2    1    2    0    0  0.00000000000E+00  0.00000000000E+00 -0.39792055110E+03  0.40708485569E+03  0.85891296130E+02 0.  0.
          2    1    3    3  502    0  0.41594605336E+01  0.42671638229E+02 -0.18719813971E+03  0.19204508151E+03  0.00000000000E+00 0.  1.
         -2    1    3    3    0  502 -0.41594605336E+01 -0.42671638229E+02 -0.21072241139E+03  0.21503977419E+03  0.00000000000E+00 0. -1.
<mgrwt>
<rscale>  0 0.85891296E+02</rscale>
<asrwt>0</asrwt>
<pdfrwt beam="2">  1        4 0.61923523E-01 0.85891296E+02</pdfrwt>
<pdfrwt beam="1">  1       -4 0.70494617E-03 0.85891296E+02</pdfrwt>
<totfact> 0.17535065E+04</totfact>
</mgrwt>
</event>
<event>
 5    1  0.3963873E+001  0.9097901E+02  0.7546771E-02  0.1300498E+00
         -2   -1    0    0    0  501 -0.00000000000E+00  0.00000000000E+00  0.16686939762E+01  0.16686939762E+01  0.00000000000E+00 0.  1.
          2   -1    0    0  501    0  0.00000000000E+00 -0.00000000000E+00 -0.12400687043E+04  0.12400687043E+04  0.00000000000E+00 0. -1.
         23    2    1    2    0    0  0.00000000000E+00  0.00000000000E+00 -0.12384000103E+04  0.12417373982E+04  0.90979012457E+02 0.  0.
          2    1    3    3  502    0 -0.19740056961E+02 -0.50204999280E+01 -0.11743513761E+04  0.11745280030E+04  0.00000000000E+00 0. -1.
         -2    1    3    3    0  502  0.19740056961E+02  0.50204999280E+01 -0.64048634230E+02  0.67209395289E+02  0.00000000000E+00 0.  1.
<mgrwt>
<rscale>  0 0.90979012E+02</rscale>
<asrwt>0</asrwt>
<pdfrwt beam="2">  1        2 0.19077883E+00 0.90979012E+02</pdfrwt>
<pdfrwt beam="1">  1       -2 0.25672346E-03 0.90979012E+02</pdfrwt>
<totfact> 0.24907391E+05</totfact>
</mgrwt>
</event>
<event>
 5    1  0.3963873E+001  0.9226429E+02  0.7546771E-02  0.1297459E+00
         -1   -1    0    0    0  501 -0.00000000000E+00  0.00000000000E+00  0.12690234681E+03  0.12690234681E+03  0.00000000000E+00 0.  1.
          1   -1    0    0  501    0  0.00000000000E+00 -0.00000000000E+00 -0.16770176902E+02  0.16770176902E+02  0.00000000000E+00 0. -1.
         23    2    1    2    0    0  0.00000000000E+00  0.00000000000E+00  0.11013216991E+03  0.14367252372E+03  0.92264290066E+02 0.  0.
          2    1    3    3  502    0  0.35131582794E+02 -0.25749788029E+02  0.31404303116E+02  0.53698323506E+02  0.00000000000E+00 0. -1.
         -2    1    3    3    0  502 -0.35131582794E+02  0.25749788029E+02  0.78727866795E+02  0.89974200209E+02  0.00000000000E+00 0.  1.
<mgrwt>
<rscale>  0 0.92264290E+02</rscale>
<asrwt>0</asrwt>
<pdfrwt beam="2">  1        1 0.25800273E-02 0.92264290E+02</pdfrwt>
<pdfrwt beam="1">  1       -1 0.19523437E-01 0.92264290E+02</pdfrwt>
<totfact> 0.75274030E+04</totfact>
</mgrwt>
</event>
<event>
 5    1  0.3963873E+001  0.9417713E+02  0.7546771E-02  0.1293040E+00
         -2   -1    0    0    0  501 -0.00000000000E+00  0.00000000000E+00  0.11089246405E+01  0.11089246405E+01  0.00000000000E+00 0.  1.
          2   -1    0    0  501    0  0.00000000000E+00 -0.00000000000E+00 -0.19995342436E+04  0.19995342436E+04  0.00000000000E+00 0. -1.
         23    2    1    2    0    0  0.00000000000E+00  0.00000000000E+00 -0.19984253189E+04  0.20006431682E+04  0.94177126570E+02 0.  0.
          2    1    3    3  502    0  0.30235679670E+02 -0.30289409777E+02 -0.58201454960E+03  0.58358596677E+03  0.00000000000E+00 0.  1.
         -2    1    3    3    0  502 -0.30235679670E+02  0.30289409777E+02 -0.14164107693E+04  0.14170572014E+04  0.00000000000E+00 0. -1.
<mgrwt>
<rscale>  0 0.94177127E+02</rscale>
<asrwt>0</asrwt>
<pdfrwt beam="2">  1        2 0.30761894E+00 0.94177127E+02</pdfrwt>
<pdfrwt beam="1">  1       -2 0.17060474E-03 0.94177127E+02</pdfrwt>
<totfact> 0.18069050E+05</totfact>
</mgrwt>
</event>
<event>
 5    1  0.3963873E+001  0.8516199E+02  0.7546771E-02  0.1315009E+00
          2   -1    0    0  501    0  0.00000000000E+00  0.00000000000E+00  0.20049900395E+03  0.20049900395E+03  0.00000000000E+00 0. -1.
         -2   -1    0    0    0  501 -0.00000000000E+00 -0.00000000000E+00 -0.90431432366E+01  0.90431432366E+01  0.00000000000E+00 0.  1.
         23    2    1    2    0    0  0.00000000000E+00  0.00000000000E+00  0.19145586071E+03  0.20954214718E+03  0.85161991792E+02 0.  0.
          2    1    3    3  502    0  0.96668432064E+01 -0.31178657835E+02  0.16300324958E+03  0.16623963407E+03  0.00000000000E+00 0. -1.
         -2    1    3    3    0  502 -0.96668432064E+01  0.31178657835E+02  0.28452611134E+02  0.43302513118E+02  0.00000000000E+00 0.  1.
<mgrwt>
<rscale>  0 0.85161992E+02</rscale>
<asrwt>0</asrwt>
<pdfrwt beam="1">  1        2 0.30845997E-01 0.85161992E+02</pdfrwt>
<pdfrwt beam="2">  1       -2 0.13912530E-02 0.85161992E+02</pdfrwt>
<totfact> 0.18588571E+05</totfact>
</mgrwt>
</event>
<event>
 5    1  0.3963873E+001  0.8903944E+02  0.7546771E-02  0.1305195E+00
          2   -1    0    0  501    0  0.00000000000E+00  0.00000000000E+00  0.32105695466E+03  0.32105695466E+03  0.00000000000E+00 0. -1.
         -2   -1    0    0    0  501 -0.00000000000E+00 -0.00000000000E+00 -0.61733759602E+01  0.61733759602E+01  0.00000000000E+00 0.  1.
         23    2    1    2    0    0  0.00000000000E+00  0.00000000000E+00  0.31488357870E+03  0.32723033062E+03  0.89039435886E+02 0.  0.
          2    1    3    3  502    0 -0.93375164073E+01 -0.37492079368E+02  0.23872421306E+03  0.24183071585E+03  0.00000000000E+00 0. -1.
         -2    1    3    3    0  502  0.93375164073E+01  0.37492079368E+02  0.76159365635E+02  0.85399614765E+02  0.00000000000E+00 0.  1.
<mgrwt>
<rscale>  0 0.89039436E+02</rscale>
<asrwt>0</asrwt>
<pdfrwt beam="1">  1        2 0.49393365E-01 0.89039436E+02</pdfrwt>
<pdfrwt beam="2">  1       -2 0.94975040E-03 0.89039436E+02</pdfrwt>
<totfact> 0.19624497E+05</totfact>
</mgrwt>
</event>
<event>
 5    1  0.3963873E+001  0.8978512E+02  0.7546771E-02  0.1303373E+00
          2   -1    0    0  501    0  0.00000000000E+00  0.00000000000E+00  0.10374062218E+04  0.10374062218E+04  0.00000000000E+00 0. -1.
         -2   -1    0    0    0  501 -0.00000000000E+00 -0.00000000000E+00 -0.19426739660E+01  0.19426739660E+01  0.00000000000E+00 0.  1.
         23    2    1    2    0    0  0.00000000000E+00  0.00000000000E+00  0.10354635479E+04  0.10393488958E+04  0.89785122584E+02 0.  0.
          2    1    3    3  502    0  0.17176037576E+02  0.11888876630E+02  0.97771855295E+03  0.97794168048E+03  0.00000000000E+00 0. -1.
         -2    1    3    3    0  502 -0.17176037576E+02 -0.11888876630E+02  0.57744994933E+02  0.61407215327E+02  0.00000000000E+00 0.  1.
<mgrwt>
<rscale>  0 0.89785123E+02</rscale>
<asrwt>0</asrwt>
<pdfrwt beam="1">  1        2 0.15960052E+00 0.89785123E+02</pdfrwt>
<pdfrwt beam="2">  1       -2 0.29887375E-03 0.89785123E+02</pdfrwt>
<totfact> 0.26062593E+05</totfact>
</mgrwt>
</event>
<event>
 5    1  0.3963873E+001  0.9194200E+02  0.7546771E-02  0.1298216E+00
         -2   -1    0    0    0  501 -0.00000000000E+00  0.00000000000E+00  0.29845782305E+01  0.29845782305E+01  0.00000000000E+00 0.  1.
          2   -1    0    0  501    0  0.00000000000E+00 -0.00000000000E+00 -0.70808425903E+03  0.70808425903E+03  0.00000000000E+00 0. -1.
         23    2    1    2    0    0  0.00000000000E+00  0.00000000000E+00 -0.70509968080E+03  0.71106883726E+03  0.91942000520E+02 0.  0.
          2    1    3    3  502    0  0.59662156608E+00  0.30597593295E+02 -0.61785299822E+03  0.61861045584E+03  0.00000000000E+00 0. -1.
         -2    1    3    3    0  502 -0.59662156608E+00 -0.30597593295E+02 -0.87246682587E+02  0.92458381422E+02  0.00000000000E+00 0.  1.
<mgrwt>
<rscale>  0 0.91942001E+02</rscale>
<asrwt>0</asrwt>
<pdfrwt beam="2">  1        2 0.10893616E+00 0.91942001E+02</pdfrwt>
<pdfrwt beam="1">  1       -2 0.45916539E-03 0.91942001E+02</pdfrwt>
<totfact> 0.23258541E+05</totfact>
</mgrwt>
</event>
<event>
 5    1  0.3963873E+001  0.9169505E+02  0.7546771E-02  0.1298798E+00
         -3   -1    0    0    0  501 -0.00000000000E+00  0.00000000000E+00  0.12364875857E+03  0.12364875857E+03  0.00000000000E+00 0.  1.
          3   -1    0    0  501    0  0.00000000000E+00 -0.00000000000E+00 -0.16999731447E+02  0.16999731447E+02  0.00000000000E+00 0. -1.
         23    2    1    2    0    0  0.00000000000E+00  0.00000000000E+00  0.10664902712E+03  0.14064849001E+03  0.91695053070E+02 0.  0.
          2    1    3    3  502    0 -0.72899598709E+01  0.41194884672E+02  0.24553321542E+02  0.48508016212E+02  0.00000000000E+00 0. -1.
         -2    1    3    3    0  502  0.72899598709E+01 -0.41194884672E+02  0.82095705579E+02  0.92140473803E+02  0.00000000000E+00 0.  1.
<mgrwt>
<rscale>  0 0.91695053E+02</rscale>
<asrwt>0</asrwt>
<pdfrwt beam="2">  1        3 0.26153434E-02 0.91695053E+02</pdfrwt>
<pdfrwt beam="1">  1       -3 0.19022885E-01 0.91695053E+02</pdfrwt>
<totfact> 0.31403433E+04</totfact>
</mgrwt>
</event>
<event>
 5    1  0.3963873E+001  0.9141753E+02  0.7546771E-02  0.1299455E+00
          4   -1    0    0  501    0  0.00000000000E+00  0.00000000000E+00  0.77294324490E+02  0.77294324490E+02  0.00000000000E+00 0. -1.
         -4   -1    0    0    0  501 -0.00000000000E+00 -0.00000000000E+00 -0.27030333515E+02  0.27030333515E+02  0.00000000000E+00 0.  1.
         23    2    1    2    0    0  0.00000000000E+00  0.00000000000E+00  0.50263990975E+02  0.10432465800E+03  0.91417533762E+02 0.  0.
          2    1    3    3  502    0 -0.41862084679E+02 -0.18317572248E+02  0.26444998956E+02  0.52794938740E+02  0.00000000000E+00 0. -1.
         -2    1    3    3    0  502  0.41862084679E+02  0.18317572248E+02  0.23818992019E+02  0.51529719265E+02  0.00000000000E+00 0.  1.
<mgrwt>
<rscale>  0 0.91417534E+02</rscale>
<asrwt>0</asrwt>
<pdfrwt beam="1">  1        4 0.11891434E-01 0.91417534E+02</pdfrwt>
<pdfrwt beam="2">  1       -4 0.41585129E-02 0.91417534E+02</pdfrwt>
<totfact> 0.26006479E+04</totfact>
</mgrwt>
</event>
<event>
 5    1  0.3963873E+001  0.9045266E+02  0.7546771E-02  0.1301759E+00
         -1   -1    0    0    0  501 -0.00000000000E+00  0.00000000000E+00  0.20444374926E+02  0.20444374926E+02  0.00000000000E+00 0.  1.
          1   -1    0    0  501    0  0.00000000000E+00 -0.00000000000E+00 -0.10004810772E+03  0.10004810772E+03  0.00000000000E+00 0. -1.
         23    2    1    2    0    0  0.00000000000E+00  0.00000000000E+00 -0.79603732790E+02  0.12049248264E+03  0.90452662200E+02 0.  0.
          2    1    3    3  502    0  0.24545095438E+02 -0.19400291539E+02 -0.83306643349E+02  0.88987807299E+02  0.00000000000E+00 0. -1.
         -2    1    3    3    0  502 -0.24545095438E+02  0.19400291539E+02  0.37029105590E+01  0.31504675343E+02  0.00000000000E+00 0.  1.
<mgrwt>
<rscale>  0 0.90452662E+02</rscale>
<asrwt>0</asrwt>
<pdfrwt beam="2">  1        1 0.15392017E-01 0.90452662E+02</pdfrwt>
<pdfrwt beam="1">  1       -1 0.31452884E-02 0.90452662E+02</pdfrwt>
<totfact> 0.10675315E+05</totfact>
</mgrwt>
</event>
<event>
 5    1  0.3963873E+001  0.9431697E+02  0.7546771E-02  0.1292722E+00
         -1   -1    0    0    0  501 -0.00000000000E+00  0.00000000000E+00  0.59747993236E+03  0.59747993236E+03  0.00000000000E+00 0.  1.
          1   -1    0    0  501    0  0.00000000000E+00 -0.00000000000E+00 -0.37221716357E+01  0.37221716357E+01  0.00000000000E+00 0. -1.
         23    2    1    2    0    0  0.00000000000E+00  0.00000000000E+00  0.59375776073E+03  0.60120210400E+03  0.94316973174E+02 0.  0.
          2    1    3    3  502    0 -0.27769976460E+02 -0.35242044703E+02  0.20434218959E+03  0.20921019036E+03  0.00000000000E+00 0. -1.
         -2    1    3    3    0  502  0.27769976460E+02  0.35242044703E+02  0.38941557114E+03  0.39199191363E+03  0.00000000000E+00 0.  1.
<mgrwt>
<rscale>  0 0.94316973E+02</rscale>
<asrwt>0</asrwt>
<pdfrwt beam="2">  1        1 0.57264226E-03 0.94316973E+02</pdfrwt>
<pdfrwt beam="1">  1       -1 0.91919914E-01 0.94316973E+02</pdfrwt>
<totfact> 0.38187979E+04</totfact>
</mgrwt>
</event>
<event>
 5    1  0.3963873E+001  0.9151514E+02  0.7546771E-02  0.1299223E+00
         -2   -1    0    0    0  501 -0.00000000000E+00  0.00000000000E+00  0.18832736919E+01  0.18832736919E+01  0.00000000000E+00 0.  1.
          2   -1    0    0  501    0  0.00000000000E+00 -0.00000000000E+00 -0.11117637577E+04  0.11117637577E+04  0.00000000000E+00 0. -1.
         23    2    1    2    0    0  0.00000000000E+00  0.00000000000E+00 -0.11098804841E+04  0.11136470314E+04  0.91515144901E+02 0.  0.
          2    1    3    3  502    0 -0.11271701159E+02  0.44096187933E+02 -0.49756451204E+03  0.49964184040E+03  0.00000000000E+00 0. -1.
         -2    1    3    3    0  502  0.11271701159E+02 -0.44096187933E+02 -0.61231597201E+03  0.61400519103E+03  0.00000000000E+00 0.  1.
<mgrwt>
<rscale>  0 0.91515145E+02</rscale>
<asrwt>0</asrwt>
<pdfrwt beam="2">  1        2 0.17104012E+00 0.91515145E+02</pdfrwt>
<pdfrwt beam="1">  1       -2 0.28973519E-03 0.91515145E+02</pdfrwt>
<totfact> 0.24766902E+05</totfact>
</mgrwt>
</event>
<event>
 5    1  0.3963873E+001  0.9276948E+02  0.7546771E-02  0.1296280E+00
          1   -1    0    0  501    0  0.00000000000E+00  0.00000000000E+00  0.13297979336E+03  0.13297979336E+03  0.00000000000E+00 0. -1.
         -1   -1    0    0    0  501 -0.00000000000E+00 -0.00000000000E+00 -0.16179482575E+02  0.16179482575E+02  0.00000000000E+00 0.  1.
         23    2    1    2    0    0  0.00000000000E+00  0.00000000000E+00  0.11680031078E+03  0.14915927593E+03  0.92769483118E+02 0.  0.
          2    1    3    3  502    0  0.22283547217E+02 -0.38797612693E+02  0.38725645393E+02  0.59173362574E+02  0.00000000000E+00 0.  1.
         -2    1    3    3    0  502 -0.22283547217E+02  0.38797612693E+02  0.78074665390E+02  0.89985913359E+02  0.00000000000E+00 0. -1.
<mgrwt>
<rscale>  0 0.92769483E+02</rscale>
<asrwt>0</asrwt>
<pdfrwt beam="1">  1        1 0.20458429E-01 0.92769483E+02</pdfrwt>
<pdfrwt beam="2">  1       -1 0.24891513E-02 0.92769483E+02</pdfrwt>
<totfact> 0.10467936E+05</totfact>
</mgrwt>
</event>
<event>
 5    1  0.3963873E+001  0.8911684E+02  0.7546771E-02  0.1305005E+00
          2   -1    0    0  501    0  0.00000000000E+00  0.00000000000E+00  0.18152617479E+04  0.18152617479E+04  0.00000000000E+00 0. -1.
         -2   -1    0    0    0  501 -0.00000000000E+00 -0.00000000000E+00 -0.10937555305E+01  0.10937555305E+01  0.00000000000E+00 0.  1.
         23    2    1    2    0    0  0.00000000000E+00  0.00000000000E+00  0.18141679924E+04  0.18163555034E+04  0.89116835132E+02 0.  0.
          2    1    3    3  502    0  0.36377076052E+02  0.23219072662E+02  0.68100695667E+03  0.68237298601E+03  0.00000000000E+00 0. -1.
         -2    1    3    3    0  502 -0.36377076052E+02 -0.23219072662E+02  0.11331610357E+04  0.11339825174E+04  0.00000000000E+00 0.  1.
<mgrwt>
<rscale>  0 0.89116835E+02</rscale>
<asrwt>0</asrwt>
<pdfrwt beam="1">  1        2 0.27926863E+00 0.89116835E+02</pdfrwt>
<pdfrwt beam="2">  1       -2 0.16827153E-03 0.89116835E+02</pdfrwt>
<totfact> 0.22630382E+05</totfact>
</mgrwt>
</event>
<event>
 5    1  0.3963873E+001  0.6060870E+02  0.7546771E-02  0.1395295E+00
          2   -1    0    0  501    0  0.00000000000E+00  0.00000000000E+00  0.20923998044E+03  0.20923998044E+03  0.00000000000E+00 0. -1.
         -2   -1    0    0    0  501 -0.00000000000E+00 -0.00000000000E+00 -0.43889967806E+01  0.43889967806E+01  0.00000000000E+00 0.  1.
         23    2    1    2    0    0  0.00000000000E+00  0.00000000000E+00  0.20485098366E+03  0.21362897722E+03  0.60608699063E+02 0.  0.
          2    1    3    3  502    0  0.88202929661E+01  0.18127211705E+02  0.18217780917E+03  0.18328979111E+03  0.00000000000E+00 0. -1.
         -2    1    3    3    0  502 -0.88202929661E+01 -0.18127211705E+02  0.22673174487E+02  0.30339186105E+02  0.00000000000E+00 0.  1.
<mgrwt>
<rscale>  0 0.60608699E+02</rscale>
<asrwt>0</asrwt>
<pdfrwt beam="1">  1        2 0.32190759E-01 0.60608699E+02</pdfrwt>
<pdfrwt beam="2">  1       -2 0.67523044E-03 0.60608699E+02</pdfrwt>
<totfact> 0.45916770E+05</totfact>
</mgrwt>
</event>
<event>
 5    1  0.3963873E+001  0.8201094E+02  0.7546771E-02  0.1323440E+00
          2   -1    0    0  501    0  0.00000000000E+00  0.00000000000E+00  0.62449910780E+03  0.62449910780E+03  0.00000000000E+00 0. -1.
         -2   -1    0    0    0  501 -0.00000000000E+00 -0.00000000000E+00 -0.26924752904E+01  0.26924752904E+01  0.00000000000E+00 0.  1.
         23    2    1    2    0    0  0.00000000000E+00  0.00000000000E+00  0.62180663251E+03  0.62719158309E+03  0.82010936262E+02 0.  0.
          2    1    3    3  502    0  0.76662457694E+00  0.25529921347E+02  0.55623510558E+03  0.55682120764E+03  0.00000000000E+00 0. -1.
         -2    1    3    3    0  502 -0.76662457694E+00 -0.25529921347E+02  0.65571526927E+02  0.70370375449E+02  0.00000000000E+00 0.  1.
<mgrwt>
<rscale>  0 0.82010936E+02</rscale>
<asrwt>0</asrwt>
<pdfrwt beam="1">  1        2 0.96076671E-01 0.82010936E+02</pdfrwt>
<pdfrwt beam="2">  1       -2 0.41422746E-03 0.82010936E+02</pdfrwt>
<totfact> 0.30428564E+05</totfact>
</mgrwt>
</event>
<event>
 5    1  0.3963873E+001  0.9115982E+02  0.7546771E-02  0.1300067E+00
         -3   -1    0    0    0  501 -0.00000000000E+00  0.00000000000E+00  0.14685048094E+03  0.14685048094E+03  0.00000000000E+00 0.  1.
          3   -1    0    0  501    0  0.00000000000E+00 -0.00000000000E+00 -0.14147233797E+02  0.14147233797E+02  0.00000000000E+00 0. -1.
         23    2    1    2    0    0  0.00000000000E+00  0.00000000000E+00  0.13270324714E+03  0.16099771474E+03  0.91159817619E+02 0.  0.
          2    1    3    3  502    0 -0.34544474389E+02  0.22962141850E+02  0.99718717683E+02  0.10800186723E+03  0.00000000000E+00 0. -1.
         -2    1    3    3    0  502  0.34544474389E+02 -0.22962141850E+02  0.32984529459E+02  0.52995847505E+02  0.00000000000E+00 0.  1.
<mgrwt>
<rscale>  0 0.91159818E+02</rscale>
<asrwt>0</asrwt>
<pdfrwt beam="2">  1        3 0.21764976E-02 0.91159818E+02</pdfrwt>
<pdfrwt beam="1">  1       -3 0.22592381E-01 0.91159818E+02</pdfrwt>
<totfact> 0.30663696E+04</totfact>
</mgrwt>
</event>
<event>
 5    1  0.3963873E+001  0.9279964E+02  0.7546771E-02  0.1296210E+00
          3   -1    0    0  501    0  0.00000000000E+00  0.00000000000E+00  0.24688268410E+02  0.24688268410E+02  0.00000000000E+00 0. -1.
         -3   -1    0    0    0  501 -0.00000000000E+00 -0.00000000000E+00 -0.87205107729E+02  0.87205107729E+02  0.00000000000E+00 0.  1.
         23    2    1    2    0    0  0.00000000000E+00  0.00000000000E+00 -0.62516839319E+02  0.11189337614E+03  0.92799635911E+02 0.  0.
          2    1    3    3  502    0 -0.22857455237E+02 -0.39336981424E+02 -0.42248753747E+02  0.62087185156E+02  0.00000000000E+00 0. -1.
         -2    1    3    3    0  502  0.22857455237E+02  0.39336981424E+02 -0.20268085572E+02  0.49806190982E+02  0.00000000000E+00 0.  1.
<mgrwt>
<rscale>  0 0.92799636E+02</rscale>
<asrwt>0</asrwt>
<pdfrwt beam="1">  1        3 0.37981951E-02 0.92799636E+02</pdfrwt>
<pdfrwt beam="2">  1       -3 0.13416171E-01 0.92799636E+02</pdfrwt>
<totfact> 0.32224871E+04</totfact>
</mgrwt>
</event>
<event>
 5    1  0.3963873E+001  0.9319062E+02  0.7546771E-02  0.1295304E+00
          3   -1    0    0  501    0  0.00000000000E+00  0.00000000000E+00  0.11188015965E+03  0.11188015965E+03  0.00000000000E+00 0.  1.
         -3   -1    0    0    0  501 -0.00000000000E+00 -0.00000000000E+00 -0.19405792244E+02  0.19405792244E+02  0.00000000000E+00 0. -1.
         23    2    1    2    0    0  0.00000000000E+00  0.00000000000E+00  0.92474367409E+02  0.13128595190E+03  0.93190624730E+02 0.  0.
          2    1    3    3  502    0  0.41172760909E+02  0.14216504425E+02  0.69549044890E+02  0.82063237104E+02  0.00000000000E+00 0.  1.
         -2    1    3    3    0  502 -0.41172760909E+02 -0.14216504425E+02  0.22925322519E+02  0.49222714792E+02  0.00000000000E+00 0. -1.
<mgrwt>
<rscale>  0 0.93190625E+02</rscale>
<asrwt>0</asrwt>
<pdfrwt beam="1">  1        3 0.17212332E-01 0.93190625E+02</pdfrwt>
<pdfrwt beam="2">  1       -3 0.29855066E-02 0.93190625E+02</pdfrwt>
<totfact> 0.30616745E+04</totfact>
</mgrwt>
</event>
<event>
 5    1  0.3963873E+001  0.9230955E+02  0.7546771E-02  0.1297353E+00
         -1   -1    0    0    0  501 -0.00000000000E+00  0.00000000000E+00  0.41050383244E+02  0.41050383244E+02  0.00000000000E+00 0.  1.
          1   -1    0    0  501    0  0.00000000000E+00 -0.00000000000E+00 -0.51893873655E+02  0.51893873655E+02  0.00000000000E+00 0. -1.
         23    2    1    2    0    0  0.00000000000E+00  0.00000000000E+00 -0.10843490411E+02  0.92944256899E+02  0.92309553168E+02 0.  0.
          2    1    3    3  502    0  0.19944816293E+02  0.22648161832E+02 -0.40583608615E+02  0.50574343491E+02  0.00000000000E+00 0. -1.
         -2    1    3    3    0  502 -0.19944816293E+02 -0.22648161832E+02  0.29740118205E+02  0.42369913407E+02  0.00000000000E+00 0.  1.
<mgrwt>
<rscale>  0 0.92309553E+02</rscale>
<asrwt>0</asrwt>
<pdfrwt beam="2">  1        1 0.79836729E-02 0.92309553E+02</pdfrwt>
<pdfrwt beam="1">  1       -1 0.63154436E-02 0.92309553E+02</pdfrwt>
<totfact> 0.91089042E+04</totfact>
</mgrwt>
</event>
<event>
 5    1  0.3963873E+001  0.9040805E+02  0.7546771E-02  0.1301867E+00
          2   -1    0    0  501    0  0.00000000000E+00  0.00000000000E+00  0.20887659682E+02  0.20887659682E+02  0.00000000000E+00 0. -1.
         -2   -1    0    0    0  501 -0.00000000000E+00 -0.00000000000E+00 -0.97828290214E+02  0.97828290214E+02  0.00000000000E+00 0.  1.
         23    2    1    2    0    0  0.00000000000E+00  0.00000000000E+00 -0.76940630532E+02  0.11871594990E+03  0.90408053475E+02 0.  0.
          2    1    3    3  502    0  0.42080524893E+01 -0.30061365402E+02  0.55142638154E+01  0.30851264172E+02  0.00000000000E+00 0. -1.
         -2    1    3    3    0  502 -0.42080524893E+01  0.30061365402E+02 -0.82454894347E+02  0.87864685724E+02  0.00000000000E+00 0.  1.
<mgrwt>
<rscale>  0 0.90408053E+02</rscale>
<asrwt>0</asrwt>
<pdfrwt beam="1">  1        2 0.32134861E-02 0.90408053E+02</pdfrwt>
<pdfrwt beam="2">  1       -2 0.15050506E-01 0.90408053E+02</pdfrwt>
<totfact> 0.82036055E+04</totfact>
</mgrwt>
</event>
<event>
 5    1  0.3963873E+001  0.8502117E+02  0.7546771E-02  0.1315377E+00
         -2   -1    0    0    0  501 -0.00000000000E+00  0.00000000000E+00  0.11462456686E+02  0.11462456686E+02  0.00000000000E+00 0. -1.
          2   -1    0    0  501    0  0.00000000000E+00 -0.00000000000E+00 -0.15765816040E+03  0.15765816040E+03  0.00000000000E+00 0.  1.
         23    2    1    2    0    0  0.00000000000E+00  0.00000000000E+00 -0.14619570371E+03  0.16912061709E+03  0.85021169945E+02 0.  0.
          2    1    3    3  502    0 -0.28444744983E+02 -0.10759004566E+02 -0.14013130700E+02  0.33484735752E+02  0.00000000000E+00 0. -1.
         -2    1    3    3    0  502  0.28444744983E+02  0.10759004566E+02 -0.13218257301E+03  0.13563588133E+03  0.00000000000E+00 0.  1.
<mgrwt>
<rscale>  0 0.85021170E+02</rscale>
<asrwt>0</asrwt>
<pdfrwt beam="2">  1        2 0.24255102E-01 0.85021170E+02</pdfrwt>
<pdfrwt beam="1">  1       -2 0.17634549E-02 0.85021170E+02</pdfrwt>
<totfact> 0.17170506E+05</totfact>
</mgrwt>
</event>
<event>
 5    1  0.3963873E+001  0.9130356E+02  0.7546771E-02  0.1299725E+00
          1   -1    0    0  501    0  0.00000000000E+00  0.00000000000E+00  0.29502993027E+03  0.29502993027E+03  0.00000000000E+00 0. -1.
         -1   -1    0    0    0  501 -0.00000000000E+00 -0.00000000000E+00 -0.70639780671E+01  0.70639780671E+01  0.00000000000E+00 0.  1.
         23    2    1    2    0    0  0.00000000000E+00  0.00000000000E+00  0.28796595220E+03  0.30209390833E+03  0.91303558672E+02 0.  0.
          2    1    3    3  502    0  0.24675644346E+02 -0.23697744491E+02  0.24399120591E+03  0.24637812216E+03  0.00000000000E+00 0. -1.
         -2    1    3    3    0  502 -0.24675644346E+02  0.23697744491E+02  0.43974746295E+02  0.55715786179E+02  0.00000000000E+00 0.  1.
<mgrwt>
<rscale>  0 0.91303559E+02</rscale>
<asrwt>0</asrwt>
<pdfrwt beam="1">  1        1 0.45389210E-01 0.91303559E+02</pdfrwt>
<pdfrwt beam="2">  1       -1 0.10867661E-02 0.91303559E+02</pdfrwt>
<totfact> 0.12724137E+05</totfact>
</mgrwt>
</event>
<event>
 5    1  0.3963873E+001  0.8706751E+02  0.7546771E-02  0.1310113E+00
          2   -1    0    0  501    0  0.00000000000E+00  0.00000000000E+00  0.12169784347E+04  0.12169784347E+04  0.00000000000E+00 0.  1.
         -2   -1    0    0    0  501 -0.00000000000E+00 -0.00000000000E+00 -0.15572895207E+01  0.15572895207E+01  0.00000000000E+00 0. -1.
         23    2    1    2    0    0  0.00000000000E+00  0.00000000000E+00  0.12154211451E+04  0.12185357242E+04  0.87067508594E+02 0.  0.
          2    1    3    3  502    0 -0.15961530603E+02 -0.24197775665E+02  0.15315739489E+03  0.15587652298E+03  0.00000000000E+00 0. -1.
         -2    1    3    3    0  502  0.15961530603E+02  0.24197775665E+02  0.10622637503E+04  0.10626592012E+04  0.00000000000E+00 0.  1.
<mgrwt>
<rscale>  0 0.87067509E+02</rscale>
<asrwt>0</asrwt>
<pdfrwt beam="1">  1        2 0.18722669E+00 0.87067509E+02</pdfrwt>
<pdfrwt beam="2">  1       -2 0.23958398E-03 0.87067509E+02</pdfrwt>
<totfact> 0.28025575E+05</totfact>
</mgrwt>
</event>
<event>
 5    1  0.3963873E+001  0.9618252E+02  0.7546771E-02  0.1288535E+00
          1   -1    0    0  501    0  0.00000000000E+00  0.00000000000E+00  0.32586742182E+03  0.32586742182E+03  0.00000000000E+00 0. -1.
         -1   -1    0    0    0  501 -0.00000000000E+00 -0.00000000000E+00 -0.70972708134E+01  0.70972708134E+01  0.00000000000E+00 0.  1.
         23    2    1    2    0    0  0.00000000000E+00  0.00000000000E+00  0.31877015101E+03  0.33296469263E+03  0.96182521113E+02 0.  0.
          2    1    3    3  502    0  0.25952035266E+02 -0.11319478143E+02  0.29395655599E+03  0.29531694081E+03  0.00000000000E+00 0. -1.
         -2    1    3    3    0  502 -0.25952035266E+02  0.11319478143E+02  0.24813595022E+02  0.37647751829E+02  0.00000000000E+00 0.  1.
<mgrwt>
<rscale>  0 0.96182521E+02</rscale>
<asrwt>0</asrwt>
<pdfrwt beam="1">  1        1 0.50133438E-01 0.96182521E+02</pdfrwt>
<pdfrwt beam="2">  1       -1 0.10918881E-02 0.96182521E+02</pdfrwt>
<totfact> 0.11282236E+05</totfact>
</mgrwt>
</event>
<event>
 5    1  0.3963873E+001  0.9012359E+02  0.7546771E-02  0.1302553E+00
          2   -1    0    0  501    0  0.00000000000E+00  0.00000000000E+00  0.17190839767E+04  0.17190839767E+04  0.00000000000E+00 0. -1.
         -2   -1    0    0    0  501 -0.00000000000E+00 -0.00000000000E+00 -0.11811902757E+01  0.11811902757E+01  0.00000000000E+00 0.  1.
         23    2    1    2    0    0  0.00000000000E+00  0.00000000000E+00  0.17179027864E+04  0.17202651670E+04  0.90123587953E+02 0.  0.
          2    1    3    3  502    0 -0.34776388178E+02 -0.28647025316E+02  0.87266335299E+03  0.87382571311E+03  0.00000000000E+00 0. -1.
         -2    1    3    3    0  502  0.34776388178E+02  0.28647025316E+02  0.84523943343E+03  0.84643945386E+03  0.00000000000E+00 0.  1.
<mgrwt>
<rscale>  0 0.90123588E+02</rscale>
<asrwt>0</asrwt>
<pdfrwt beam="1">  1        2 0.26447246E+00 0.90123588E+02</pdfrwt>
<pdfrwt beam="2">  1       -2 0.18172296E-03 0.90123588E+02</pdfrwt>
<totfact> 0.22769297E+05</totfact>
</mgrwt>
</event>
<event>
 5    1  0.3963873E+001  0.8884277E+02  0.7546771E-02  0.1305679E+00
         -1   -1    0    0    0  501 -0.00000000000E+00  0.00000000000E+00  0.20305641439E+01  0.20305641439E+01  0.00000000000E+00 0. -1.
          1   -1    0    0  501    0  0.00000000000E+00 -0.00000000000E+00 -0.97177886575E+03  0.97177886575E+03  0.00000000000E+00 0.  1.
         23    2    1    2    0    0  0.00000000000E+00  0.00000000000E+00 -0.96974830160E+03  0.97380942989E+03  0.88842767192E+02 0.  0.
          2    1    3    3  502    0 -0.40712090067E+02  0.28268146727E+01 -0.29257290953E+03  0.29540543757E+03  0.00000000000E+00 0. -1.
         -2    1    3    3    0  502  0.40712090067E+02 -0.28268146727E+01 -0.67717539208E+03  0.67840399232E+03  0.00000000000E+00 0.  1.
<mgrwt>
<rscale>  0 0.88842767E+02</rscale>
<asrwt>0</asrwt>
<pdfrwt beam="2">  1        1 0.14950458E+00 0.88842767E+02</pdfrwt>
<pdfrwt beam="1">  1       -1 0.31239419E-03 0.88842767E+02</pdfrwt>
<totfact> 0.14671028E+05</totfact>
</mgrwt>
</event>
<event>
 5    1  0.3963873E+001  0.8741360E+02  0.7546771E-02  0.1309239E+00
          2   -1    0    0  501    0  0.00000000000E+00  0.00000000000E+00  0.40045161806E+02  0.40045161806E+02  0.00000000000E+00 0. -1.
         -2   -1    0    0    0  501 -0.00000000000E+00 -0.00000000000E+00 -0.47703252031E+02  0.47703252031E+02  0.00000000000E+00 0.  1.
         23    2    1    2    0    0  0.00000000000E+00  0.00000000000E+00 -0.76580902254E+01  0.87748413836E+02  0.87413601830E+02 0.  0.
          2    1    3    3  502    0  0.23858987773E+02 -0.34767826469E+02  0.77141900406E+01  0.42866791144E+02  0.00000000000E+00 0. -1.
         -2    1    3    3    0  502 -0.23858987773E+02  0.34767826469E+02 -0.15372280266E+02  0.44881622693E+02  0.00000000000E+00 0.  1.
<mgrwt>
<rscale>  0 0.87413602E+02</rscale>
<asrwt>0</asrwt>
<pdfrwt beam="1">  1        2 0.61607942E-02 0.87413602E+02</pdfrwt>
<pdfrwt beam="2">  1       -2 0.73389618E-02 0.87413602E+02</pdfrwt>
<totfact> 0.10773600E+05</totfact>
</mgrwt>
</event>
<event>
 5    1  0.3963873E+001  0.8840621E+02  0.7546771E-02  0.1306758E+00
          2   -1    0    0  501    0  0.00000000000E+00  0.00000000000E+00  0.47098673950E+02  0.47098673950E+02  0.00000000000E+00 0. -1.
         -2   -1    0    0    0  501 -0.00000000000E+00 -0.00000000000E+00 -0.41485549147E+02  0.41485549147E+02  0.00000000000E+00 0.  1.
         23    2    1    2    0    0  0.00000000000E+00  0.00000000000E+00  0.56131248023E+01  0.88584223097E+02  0.88406206862E+02 0.  0.
          2    1    3    3  502    0 -0.13008388345E+02 -0.15965373263E+02  0.41998017077E+02  0.46775471662E+02  0.00000000000E+00 0. -1.
         -2    1    3    3    0  502  0.13008388345E+02  0.15965373263E+02 -0.36384892275E+02  0.41808751436E+02  0.00000000000E+00 0.  1.
<mgrwt>
<rscale>  0 0.88406207E+02</rscale>
<asrwt>0</asrwt>
<pdfrwt beam="1">  1        2 0.72459499E-02 0.88406207E+02</pdfrwt>
<pdfrwt beam="2">  1       -2 0.63823922E-02 0.88406207E+02</pdfrwt>
<totfact> 0.10866974E+05</totfact>
</mgrwt>
</event>
<event>
 5    1  0.3963873E+001  0.9101333E+02  0.7546771E-02  0.1300416E+00
          1   -1    0    0  501    0  0.00000000000E+00  0.00000000000E+00  0.13661701534E+04  0.13661701534E+04  0.00000000000E+00 0. -1.
         -1   -1    0    0    0  501 -0.00000000000E+00 -0.00000000000E+00 -0.15158115251E+01  0.15158115251E+01  0.00000000000E+00 0.  1.
         23    2    1    2    0    0  0.00000000000E+00  0.00000000000E+00  0.13646543419E+04  0.13676859649E+04  0.91013327898E+02 0.  0.
          2    1    3    3  502    0  0.12511269290E+02 -0.30004395664E+02  0.11608618351E+04  0.11613169231E+04  0.00000000000E+00 0. -1.
         -2    1    3    3    0  502 -0.12511269290E+02  0.30004395664E+02  0.20379250680E+03  0.20636904188E+03  0.00000000000E+00 0.  1.
<mgrwt>
<rscale>  0 0.91013328E+02</rscale>
<asrwt>0</asrwt>
<pdfrwt beam="1">  1        1 0.21017904E+00 0.91013328E+02</pdfrwt>
<pdfrwt beam="2">  1       -1 0.23320286E-03 0.91013328E+02</pdfrwt>
<totfact> 0.11893992E+05</totfact>
</mgrwt>
</event>
<event>
 5    1  0.3963873E+001  0.9559478E+02  0.7546771E-02  0.1289842E+00
         -2   -1    0    0    0  501 -0.00000000000E+00  0.00000000000E+00  0.61782853799E+01  0.61782853799E+01  0.00000000000E+00 0.  1.
          2   -1    0    0  501    0  0.00000000000E+00 -0.00000000000E+00 -0.36977739466E+03  0.36977739466E+03  0.00000000000E+00 0. -1.
         23    2    1    2    0    0  0.00000000000E+00  0.00000000000E+00 -0.36359910928E+03  0.37595568004E+03  0.95594775406E+02 0.  0.
          2    1    3    3  502    0 -0.29812726678E+02 -0.77273160204E+01 -0.32555316318E+03  0.32700668516E+03  0.00000000000E+00 0. -1.
         -2    1    3    3    0  502  0.29812726678E+02  0.77273160204E+01 -0.38045946102E+02  0.48948994879E+02  0.00000000000E+00 0.  1.
<mgrwt>
<rscale>  0 0.95594775E+02</rscale>
<asrwt>0</asrwt>
<pdfrwt beam="2">  1        2 0.56888849E-01 0.95594775E+02</pdfrwt>
<pdfrwt beam="1">  1       -2 0.95050513E-03 0.95594775E+02</pdfrwt>
<totfact> 0.17104449E+05</totfact>
</mgrwt>
</event>
<event>
 5    1  0.3963873E+001  0.1256835E+03  0.7546771E-02  0.1234005E+00
          2   -1    0    0  501    0  0.00000000000E+00  0.00000000000E+00  0.38549882445E+03  0.38549882445E+03  0.00000000000E+00 0.  1.
         -2   -1    0    0    0  501 -0.00000000000E+00 -0.00000000000E+00 -0.10244096151E+02  0.10244096151E+02  0.00000000000E+00 0. -1.
         23    2    1    2    0    0  0.00000000000E+00  0.00000000000E+00  0.37525472830E+03  0.39574292060E+03  0.12568352356E+03 0.  0.
          2    1    3    3  502    0  0.20531608548E+02 -0.29775810931E+02  0.25814081166E+02  0.44435488662E+02  0.00000000000E+00 0. -1.
         -2    1    3    3    0  502 -0.20531608548E+02  0.29775810931E+02  0.34944064713E+03  0.35130743193E+03  0.00000000000E+00 0.  1.
<mgrwt>
<rscale>  0 0.12568352E+03</rscale>
<asrwt>0</asrwt>
<pdfrwt beam="1">  1        2 0.59307500E-01 0.12568352E+03</pdfrwt>
<pdfrwt beam="2">  1       -2 0.15760151E-02 0.12568352E+03</pdfrwt>
<totfact> 0.82708129E+04</totfact>
</mgrwt>
</event>
<event>
 5    1  0.3963873E+001  0.1031165E+03  0.7546771E-02  0.1273876E+00
         -1   -1    0    0    0  501 -0.00000000000E+00  0.00000000000E+00  0.39397761492E+01  0.39397761492E+01  0.00000000000E+00 0.  1.
          1   -1    0    0  501    0  0.00000000000E+00 -0.00000000000E+00 -0.67472161797E+03  0.67472161797E+03  0.00000000000E+00 0. -1.
         23    2    1    2    0    0  0.00000000000E+00  0.00000000000E+00 -0.67078184182E+03  0.67866139412E+03  0.10311648050E+03 0.  0.
          2    1    3    3  502    0  0.10275367024E+02  0.25545507405E+02 -0.62227922133E+03  0.62288810024E+03  0.00000000000E+00 0. -1.
         -2    1    3    3    0  502 -0.10275367024E+02 -0.25545507405E+02 -0.48502620485E+02  0.55773293878E+02  0.00000000000E+00 0.  1.
<mgrwt>
<rscale>  0 0.10311648E+03</rscale>
<asrwt>0</asrwt>
<pdfrwt beam="2">  1        1 0.10380315E+00 0.10311648E+03</pdfrwt>
<pdfrwt beam="1">  1       -1 0.60612041E-03 0.10311648E+03</pdfrwt>
<totfact> 0.10247061E+05</totfact>
</mgrwt>
</event>
<event>
 5    1  0.3963873E+001  0.9001673E+02  0.7546771E-02  0.1302811E+00
          2   -1    0    0  501    0  0.00000000000E+00  0.00000000000E+00  0.12768127424E+04  0.12768127424E+04  0.00000000000E+00 0.  1.
         -2   -1    0    0    0  501 -0.00000000000E+00 -0.00000000000E+00 -0.15865699290E+01  0.15865699290E+01  0.00000000000E+00 0. -1.
         23    2    1    2    0    0  0.00000000000E+00  0.00000000000E+00  0.12752261724E+04  0.12783993123E+04  0.90016725156E+02 0.  0.
          2    1    3    3  502    0 -0.34078951311E+02  0.28888861603E+02  0.71515471228E+03  0.71654881463E+03  0.00000000000E+00 0. -1.
         -2    1    3    3    0  502  0.34078951311E+02 -0.28888861603E+02  0.56007146015E+03  0.56185049766E+03  0.00000000000E+00 0.  1.
<mgrwt>
<rscale>  0 0.90016725E+02</rscale>
<asrwt>0</asrwt>
<pdfrwt beam="1">  1        2 0.19643191E+00 0.90016725E+02</pdfrwt>
<pdfrwt beam="2">  1       -2 0.24408870E-03 0.90016725E+02</pdfrwt>
<totfact> 0.25495976E+05</totfact>
</mgrwt>
</event>
<event>
 5    1  0.3963873E+001  0.8975365E+02  0.7546771E-02  0.1303449E+00
         -1   -1    0    0    0  501 -0.00000000000E+00  0.00000000000E+00  0.65657936251E+01  0.65657936251E+01  0.00000000000E+00 0.  1.
          1   -1    0    0  501    0  0.00000000000E+00 -0.00000000000E+00 -0.30673055429E+03  0.30673055429E+03  0.00000000000E+00 0. -1.
         23    2    1    2    0    0  0.00000000000E+00  0.00000000000E+00 -0.30016476066E+03  0.31329634791E+03  0.89753652137E+02 0.  0.
          2    1    3    3  502    0 -0.28371442448E+02  0.19698789360E+02 -0.25009646202E+03  0.25247023857E+03  0.00000000000E+00 0. -1.
         -2    1    3    3    0  502  0.28371442448E+02 -0.19698789360E+02 -0.50068298647E+02  0.60826109346E+02  0.00000000000E+00 0.  1.
<mgrwt>
<rscale>  0 0.89753652E+02</rscale>
<asrwt>0</asrwt>
<pdfrwt beam="2">  1        1 0.47189310E-01 0.89753652E+02</pdfrwt>
<pdfrwt beam="1">  1       -1 0.10101222E-02 0.89753652E+02</pdfrwt>
<totfact> 0.13416221E+05</totfact>
</mgrwt>
</event>
<event>
 5    1  0.3963873E+001  0.8786751E+02  0.7546771E-02  0.1308100E+00
          4   -1    0    0  501    0  0.00000000000E+00  0.00000000000E+00  0.10122407491E+03  0.10122407491E+03  0.00000000000E+00 0. -1.
         -4   -1    0    0    0  501 -0.00000000000E+00 -0.00000000000E+00 -0.19068336525E+02  0.19068336525E+02  0.00000000000E+00 0.  1.
         23    2    1    2    0    0  0.00000000000E+00  0.00000000000E+00  0.82155738384E+02  0.12029241143E+03  0.87867507641E+02 0.  0.
          2    1    3    3  502    0  0.25963003532E+02 -0.99180499368E+01  0.87659368731E+02  0.91959829237E+02  0.00000000000E+00 0. -1.
         -2    1    3    3    0  502 -0.25963003532E+02  0.99180499368E+01 -0.55036303469E+01  0.28332582197E+02  0.00000000000E+00 0.  1.
<mgrwt>
<rscale>  0 0.87867508E+02</rscale>
<asrwt>0</asrwt>
<pdfrwt beam="1">  1        4 0.15572934E-01 0.87867508E+02</pdfrwt>
<pdfrwt beam="2">  1       -4 0.29335903E-02 0.87867508E+02</pdfrwt>
<totfact> 0.27897068E+04</totfact>
</mgrwt>
</event>
<event>
 5    1  0.3963873E+001  0.9121940E+02  0.7546771E-02  0.1299925E+00
         -2   -1    0    0    0  501 -0.00000000000E+00  0.00000000000E+00  0.36384160923E+01  0.36384160923E+01  0.00000000000E+00 0.  1.
          2   -1    0    0  501    0  0.00000000000E+00 -0.00000000000E+00 -0.57174457454E+03  0.57174457454E+03  0.00000000000E+00 0. -1.
         23    2    1    2    0    0  0.00000000000E+00  0.00000000000E+00 -0.56810615845E+03  0.57538299063E+03  0.91219398390E+02 0.  0.
          2    1    3    3  502    0  0.32869998673E+02 -0.26055889932E+02 -0.39704662150E+03  0.39925601543E+03  0.00000000000E+00 0. -1.
         -2    1    3    3    0  502 -0.32869998673E+02  0.26055889932E+02 -0.17105953695E+03  0.17612697520E+03  0.00000000000E+00 0.  1.
<mgrwt>
<rscale>  0 0.91219398E+02</rscale>
<asrwt>0</asrwt>
<pdfrwt beam="2">  1        2 0.87960723E-01 0.91219398E+02</pdfrwt>
<pdfrwt beam="1">  1       -2 0.55975620E-03 0.91219398E+02</pdfrwt>
<totfact> 0.22440756E+05</totfact>
</mgrwt>
</event>
<event>
 5    1  0.3963873E+001  0.9032089E+02  0.7546771E-02  0.1302076E+00
         -1   -1    0    0    0  501 -0.00000000000E+00  0.00000000000E+00  0.46887137477E+01  0.46887137477E+01  0.00000000000E+00 0.  1.
          1   -1    0    0  501    0  0.00000000000E+00 -0.00000000000E+00 -0.43497339940E+03  0.43497339940E+03  0.00000000000E+00 0. -1.
         23    2    1    2    0    0  0.00000000000E+00  0.00000000000E+00 -0.43028468566E+03  0.43966211315E+03  0.90320889227E+02 0.  0.
          2    1    3    3  502    0 -0.25287148461E+02 -0.17574863709E+02 -0.37593754125E+03  0.37719670018E+03  0.00000000000E+00 0. -1.
         -2    1    3    3    0  502  0.25287148461E+02  0.17574863709E+02 -0.54347144410E+02  0.62465412967E+02  0.00000000000E+00 0.  1.
<mgrwt>
<rscale>  0 0.90320889E+02</rscale>
<asrwt>0</asrwt>
<pdfrwt beam="2">  1        1 0.66918997E-01 0.90320889E+02</pdfrwt>
<pdfrwt beam="1">  1       -1 0.72134044E-03 0.90320889E+02</pdfrwt>
<totfact> 0.14013797E+05</totfact>
</mgrwt>
</event>
<event>
 5    1  0.3963873E+001  0.9164881E+02  0.7546771E-02  0.1298907E+00
         -2   -1    0    0    0  501 -0.00000000000E+00  0.00000000000E+00  0.12422219785E+02  0.12422219785E+02  0.00000000000E+00 0.  1.
          2   -1    0    0  501    0  0.00000000000E+00 -0.00000000000E+00 -0.16904193136E+03  0.16904193136E+03  0.00000000000E+00 0. -1.
         23    2    1    2    0    0  0.00000000000E+00  0.00000000000E+00 -0.15661971157E+03  0.18146415114E+03  0.91648808484E+02 0.  0.
          2    1    3    3  502    0  0.45586376645E+02 -0.39953779178E+01 -0.73543352759E+02  0.86618159270E+02  0.00000000000E+00 0. -1.
         -2    1    3    3    0  502 -0.45586376645E+02  0.39953779178E+01 -0.83076358812E+02  0.94845991870E+02  0.00000000000E+00 0.  1.
<mgrwt>
<rscale>  0 0.91648808E+02</rscale>
<asrwt>0</asrwt>
<pdfrwt beam="2">  1        2 0.26006449E-01 0.91648808E+02</pdfrwt>
<pdfrwt beam="1">  1       -2 0.19111109E-02 0.91648808E+02</pdfrwt>
<totfact> 0.14366804E+05</totfact>
</mgrwt>
</event>
<event>
 5    1  0.3963873E+001  0.8451959E+02  0.7546771E-02  0.1316694E+00
          1   -1    0    0  501    0  0.00000000000E+00  0.00000000000E+00  0.55411866846E+01  0.55411866846E+01  0.00000000000E+00 0. -1.
         -1   -1    0    0    0  501 -0.00000000000E+00 -0.00000000000E+00 -0.32229383557E+03  0.32229383557E+03  0.00000000000E+00 0.  1.
         23    2    1    2    0    0  0.00000000000E+00  0.00000000000E+00 -0.31675264889E+03  0.32783502226E+03  0.84519590870E+02 0.  0.
          2    1    3    3  502    0 -0.22527943994E+01 -0.32480071560E+02 -0.26287828699E+03  0.26488681337E+03  0.00000000000E+00 0.  1.
         -2    1    3    3    0  502  0.22527943994E+01  0.32480071560E+02 -0.53874361901E+02  0.62948208881E+02  0.00000000000E+00 0. -1.
<mgrwt>
<rscale>  0 0.84519591E+02</rscale>
<asrwt>0</asrwt>
<pdfrwt beam="1">  1        1 0.85249014E-03 0.84519591E+02</pdfrwt>
<pdfrwt beam="2">  1       -1 0.49583674E-01 0.84519591E+02</pdfrwt>
<totfact> 0.71718022E+04</totfact>
</mgrwt>
</event>
<event>
 5    1  0.3963873E+001  0.9075710E+02  0.7546771E-02  0.1301029E+00
         -1   -1    0    0    0  501 -0.00000000000E+00  0.00000000000E+00  0.64666520054E+01  0.64666520054E+01  0.00000000000E+00 0.  1.
          1   -1    0    0  501    0  0.00000000000E+00 -0.00000000000E+00 -0.31843570743E+03  0.31843570743E+03  0.00000000000E+00 0. -1.
         23    2    1    2    0    0  0.00000000000E+00  0.00000000000E+00 -0.31196905542E+03  0.32490235943E+03  0.90757102334E+02 0.  0.
          2    1    3    3  502    0 -0.11009090598E+02 -0.18121468980E+02 -0.12358012272E+02  0.24541967751E+02  0.00000000000E+00 0.  1.
         -2    1    3    3    0  502  0.11009090598E+02  0.18121468980E+02 -0.29961104315E+03  0.30036039168E+03  0.00000000000E+00 0. -1.
<mgrwt>
<rscale>  0 0.90757102E+02</rscale>
<asrwt>0</asrwt>
<pdfrwt beam="2">  1        1 0.48990115E-01 0.90757102E+02</pdfrwt>
<pdfrwt beam="1">  1       -1 0.99486941E-03 0.90757102E+02</pdfrwt>
<totfact> 0.13117374E+05</totfact>
</mgrwt>
</event>
<event>
 5    1  0.3963873E+001  0.9242937E+02  0.7546771E-02  0.1297073E+00
          1   -1    0    0  501    0  0.00000000000E+00  0.00000000000E+00  0.11514150723E+04  0.11514150723E+04  0.00000000000E+00 0. -1.
         -1   -1    0    0    0  501 -0.00000000000E+00 -0.00000000000E+00 -0.18549323988E+01  0.18549323988E+01  0.00000000000E+00 0.  1.
         23    2    1    2    0    0  0.00000000000E+00  0.00000000000E+00  0.11495601399E+04  0.11532700047E+04  0.92429370270E+02 0.  0.
          2    1    3    3  502    0  0.44331059345E+02 -0.35083926751E+01  0.73173922782E+03  0.73308925048E+03  0.00000000000E+00 0. -1.
         -2    1    3    3    0  502 -0.44331059345E+02  0.35083926751E+01  0.41782091210E+03  0.42018075424E+03  0.00000000000E+00 0.  1.
<mgrwt>
<rscale>  0 0.92429370E+02</rscale>
<asrwt>0</asrwt>
<pdfrwt beam="1">  1        1 0.17714021E+00 0.92429370E+02</pdfrwt>
<pdfrwt beam="2">  1       -1 0.28537514E-03 0.92429370E+02</pdfrwt>
<totfact> 0.12506430E+05</totfact>
</mgrwt>
</event>
<event>
 5    1  0.3963873E+001  0.8165444E+02  0.7546771E-02  0.1324421E+00
         -3   -1    0    0    0  501 -0.00000000000E+00  0.00000000000E+00  0.33272077231E+03  0.33272077231E+03  0.00000000000E+00 0.  1.
          3   -1    0    0  501    0  0.00000000000E+00 -0.00000000000E+00 -0.50097925926E+01  0.50097925926E+01  0.00000000000E+00 0. -1.
         23    2    1    2    0    0  0.00000000000E+00  0.00000000000E+00  0.32771097972E+03  0.33773056490E+03  0.81654444104E+02 0.  0.
          2    1    3    3  502    0 -0.32960931509E+02 -0.15084836683E+02  0.24155320006E+03  0.24425790420E+03  0.00000000000E+00 0.  1.
         -2    1    3    3    0  502  0.32960931509E+02  0.15084836683E+02  0.86157779652E+02  0.93472660699E+02  0.00000000000E+00 0. -1.
<mgrwt>
<rscale>  0 0.81654444E+02</rscale>
<asrwt>0</asrwt>
<pdfrwt beam="2">  1        3 0.77073758E-03 0.81654444E+02</pdfrwt>
<pdfrwt beam="1">  1       -3 0.51187794E-01 0.81654444E+02</pdfrwt>
<totfact> 0.30349723E+04</totfact>
</mgrwt>
</event>
<event>
 5    1  0.3963873E+001  0.9102821E+02  0.7546771E-02  0.1300381E+00
          2   -1    0    0  501    0  0.00000000000E+00  0.00000000000E+00  0.17843738477E+03  0.17843738477E+03  0.00000000000E+00 0. -1.
         -2   -1    0    0    0  501 -0.00000000000E+00 -0.00000000000E+00 -0.11609304059E+02  0.11609304059E+02  0.00000000000E+00 0.  1.
         23    2    1    2    0    0  0.00000000000E+00  0.00000000000E+00  0.16682808071E+03  0.19004668883E+03  0.91028212227E+02 0.  0.
          2    1    3    3  502    0  0.18313860141E+02  0.17296552032E+02  0.16255612584E+03  0.16449638973E+03  0.00000000000E+00 0. -1.
         -2    1    3    3    0  502 -0.18313860141E+02 -0.17296552032E+02  0.42719548638E+01  0.25550299095E+02  0.00000000000E+00 0.  1.
<mgrwt>
<rscale>  0 0.91028212E+02</rscale>
<asrwt>0</asrwt>
<pdfrwt beam="1">  1        2 0.27451903E-01 0.91028212E+02</pdfrwt>
<pdfrwt beam="2">  1       -2 0.17860469E-02 0.91028212E+02</pdfrwt>
<totfact> 0.14914255E+05</totfact>
</mgrwt>
</event>
<event>
 5    1  0.3963873E+001  0.9225097E+02  0.7546771E-02  0.1297490E+00
          2   -1    0    0  501    0  0.00000000000E+00  0.00000000000E+00  0.29290360453E+02  0.29290360453E+02  0.00000000000E+00 0. -1.
         -2   -1    0    0    0  501 -0.00000000000E+00 -0.00000000000E+00 -0.72636878212E+02  0.72636878212E+02  0.00000000000E+00 0.  1.
         23    2    1    2    0    0  0.00000000000E+00  0.00000000000E+00 -0.43346517759E+02  0.10192723867E+03  0.92250969535E+02 0.  0.
          2    1    3    3  502    0  0.17085150159E+02 -0.41934028789E+02 -0.11965599705E+02  0.46835250642E+02  0.00000000000E+00 0. -1.
         -2    1    3    3    0  502 -0.17085150159E+02  0.41934028789E+02 -0.31380918054E+02  0.55091988023E+02  0.00000000000E+00 0.  1.
<mgrwt>
<rscale>  0 0.92250970E+02</rscale>
<asrwt>0</asrwt>
<pdfrwt beam="1">  1        2 0.45062093E-02 0.92250970E+02</pdfrwt>
<pdfrwt beam="2">  1       -2 0.11174904E-01 0.92250970E+02</pdfrwt>
<totfact> 0.84884657E+04</totfact>
</mgrwt>
</event>
<event>
 5    1  0.3963873E+001  0.9310788E+02  0.7546771E-02  0.1295495E+00
          2   -1    0    0  501    0  0.00000000000E+00  0.00000000000E+00  0.43779871090E+03  0.43779871090E+03  0.00000000000E+00 0. -1.
         -2   -1    0    0    0  501 -0.00000000000E+00 -0.00000000000E+00 -0.49503787019E+01  0.49503787019E+01  0.00000000000E+00 0.  1.
         23    2    1    2    0    0  0.00000000000E+00  0.00000000000E+00  0.43284833220E+03  0.44274908961E+03  0.93107881818E+02 0.  0.
          2    1    3    3  502    0 -0.64014409762E+01  0.39133698973E+02  0.33240146285E+03  0.33475835665E+03  0.00000000000E+00 0. -1.
         -2    1    3    3    0  502  0.64014409762E+01 -0.39133698973E+02  0.10044686936E+03  0.10799073296E+03  0.00000000000E+00 0.  1.
<mgrwt>
<rscale>  0 0.93107882E+02</rscale>
<asrwt>0</asrwt>
<pdfrwt beam="1">  1        2 0.67353617E-01 0.93107882E+02</pdfrwt>
<pdfrwt beam="2">  1       -2 0.76159707E-03 0.93107882E+02</pdfrwt>
<totfact> 0.19492200E+05</totfact>
</mgrwt>
</event>
<event>
 5    1  0.3963873E+001  0.8913245E+02  0.7546771E-02  0.1304966E+00
         -4   -1    0    0    0  501 -0.00000000000E+00  0.00000000000E+00  0.11090817592E+01  0.11090817592E+01  0.00000000000E+00 0.  1.
          4   -1    0    0  501    0  0.00000000000E+00 -0.00000000000E+00 -0.17908044321E+04  0.17908044321E+04  0.00000000000E+00 0. -1.
         23    2    1    2    0    0  0.00000000000E+00  0.00000000000E+00 -0.17896953504E+04  0.17919135139E+04  0.89132452678E+02 0.  0.
          2    1    3    3  502    0  0.32721787482E+02 -0.20094358423E+02 -0.13495923689E+04  0.13501385339E+04  0.00000000000E+00 0. -1.
         -2    1    3    3    0  502 -0.32721787482E+02  0.20094358423E+02 -0.44010298154E+03  0.44177498002E+03  0.00000000000E+00 0.  1.
<mgrwt>
<rscale>  0 0.89132453E+02</rscale>
<asrwt>0</asrwt>
<pdfrwt beam="2">  1        4 0.27550782E+00 0.89132453E+02</pdfrwt>
<pdfrwt beam="1">  1       -4 0.17062831E-03 0.89132453E+02</pdfrwt>
<totfact> 0.31856061E+03</totfact>
</mgrwt>
</event>
<event>
 5    1  0.3963873E+001  0.8752268E+02  0.7546771E-02  0.1308964E+00
          1   -1    0    0  501    0  0.00000000000E+00  0.00000000000E+00  0.85459524755E+01  0.85459524755E+01  0.00000000000E+00 0. -1.
         -1   -1    0    0    0  501 -0.00000000000E+00 -0.00000000000E+00 -0.22408913342E+03  0.22408913342E+03  0.00000000000E+00 0.  1.
         23    2    1    2    0    0  0.00000000000E+00  0.00000000000E+00 -0.21554318095E+03  0.23263508590E+03  0.87522684705E+02 0.  0.
          2    1    3    3  502    0  0.23676208280E+02  0.38623874515E+00 -0.99535567398E+01  0.25686286432E+02  0.00000000000E+00 0. -1.
         -2    1    3    3    0  502 -0.23676208280E+02 -0.38623874515E+00 -0.20558962421E+03  0.20694879947E+03  0.00000000000E+00 0.  1.
<mgrwt>
<rscale>  0 0.87522685E+02</rscale>
<asrwt>0</asrwt>
<pdfrwt beam="1">  1        1 0.13147620E-02 0.87522685E+02</pdfrwt>
<pdfrwt beam="2">  1       -1 0.34475249E-01 0.87522685E+02</pdfrwt>
<totfact> 0.74648764E+04</totfact>
</mgrwt>
</event>
<event>
 5    1  0.3963873E+001  0.9075835E+02  0.7546771E-02  0.1301026E+00
         -1   -1    0    0    0  501 -0.00000000000E+00  0.00000000000E+00  0.71500234329E+02  0.71500234329E+02  0.00000000000E+00 0.  1.
          1   -1    0    0  501    0  0.00000000000E+00 -0.00000000000E+00 -0.28800875790E+02  0.28800875790E+02  0.00000000000E+00 0. -1.
         23    2    1    2    0    0  0.00000000000E+00  0.00000000000E+00  0.42699358538E+02  0.10030111012E+03  0.90758346567E+02 0.  0.
          2    1    3    3  502    0  0.14153512565E+02  0.19935000060E+02 -0.20900153679E+02  0.32164305824E+02  0.00000000000E+00 0. -1.
         -2    1    3    3    0  502 -0.14153512565E+02 -0.19935000060E+02  0.63599512217E+02  0.68136804295E+02  0.00000000000E+00 0.  1.
<mgrwt>
<rscale>  0 0.90758347E+02</rscale>
<asrwt>0</asrwt>
<pdfrwt beam="2">  1        1 0.44309040E-02 0.90758347E+02</pdfrwt>
<pdfrwt beam="1">  1       -1 0.11000036E-01 0.90758347E+02</pdfrwt>
<totfact> 0.87259775E+04</totfact>
</mgrwt>
</event>
<event>
 5    1  0.3963873E+001  0.9447474E+02  0.7546771E-02  0.1292364E+00
          2   -1    0    0  501    0  0.00000000000E+00  0.00000000000E+00  0.14711626209E+03  0.14711626209E+03  0.00000000000E+00 0. -1.
         -2   -1    0    0    0  501 -0.00000000000E+00 -0.00000000000E+00 -0.15167385735E+02  0.15167385735E+02  0.00000000000E+00 0.  1.
         23    2    1    2    0    0  0.00000000000E+00  0.00000000000E+00  0.13194887635E+03  0.16228364782E+03  0.94474739374E+02 0.  0.
          2    1    3    3  502    0  0.13117293754E+02 -0.45274373701E+02  0.71279128855E+02  0.85454938534E+02  0.00000000000E+00 0. -1.
         -2    1    3    3    0  502 -0.13117293754E+02  0.45274373701E+02  0.60669747496E+02  0.76828709287E+02  0.00000000000E+00 0.  1.
<mgrwt>
<rscale>  0 0.94474739E+02</rscale>
<asrwt>0</asrwt>
<pdfrwt beam="1">  1        2 0.22633270E-01 0.94474739E+02</pdfrwt>
<pdfrwt beam="2">  1       -2 0.23334441E-02 0.94474739E+02</pdfrwt>
<totfact> 0.12607772E+05</totfact>
</mgrwt>
</event>
<event>
 5    1  0.3963873E+001  0.8719475E+02  0.7546771E-02  0.1309791E+00
          1   -1    0    0  501    0  0.00000000000E+00  0.00000000000E+00  0.92775526794E+00  0.92775526794E+00  0.00000000000E+00 0. -1.
         -1   -1    0    0    0  501 -0.00000000000E+00 -0.00000000000E+00 -0.20487418153E+04  0.20487418153E+04  0.00000000000E+00 0.  1.
         23    2    1    2    0    0  0.00000000000E+00  0.00000000000E+00 -0.20478140600E+04  0.20496695705E+04  0.87194747818E+02 0.  0.
          2    1    3    3  502    0 -0.14595418788E+02  0.28354525054E+02 -0.32510804888E+03  0.32666840800E+03  0.00000000000E+00 0. -1.
         -2    1    3    3    0  502  0.14595418788E+02 -0.28354525054E+02 -0.17227060111E+04  0.17230011625E+04  0.00000000000E+00 0.  1.
<mgrwt>
<rscale>  0 0.87194748E+02</rscale>
<asrwt>0</asrwt>
<pdfrwt beam="1">  1        1 0.14273259E-03 0.87194748E+02</pdfrwt>
<pdfrwt beam="2">  1       -1 0.31518881E+00 0.87194748E+02</pdfrwt>
<totfact> 0.72902661E+03</totfact>
</mgrwt>
</event>
<event>
 5    1  0.3963873E+001  0.8939859E+02  0.7546771E-02  0.1304315E+00
          1   -1    0    0  501    0  0.00000000000E+00  0.00000000000E+00  0.17271640588E+02  0.17271640588E+02  0.00000000000E+00 0. -1.
         -1   -1    0    0    0  501 -0.00000000000E+00 -0.00000000000E+00 -0.11568253581E+03  0.11568253581E+03  0.00000000000E+00 0.  1.
         23    2    1    2    0    0  0.00000000000E+00  0.00000000000E+00 -0.98410895225E+02  0.13295417640E+03  0.89398594639E+02 0.  0.
          2    1    3    3  502    0  0.38450802641E+02 -0.71224497571E+01 -0.17003607624E+02  0.42641718850E+02  0.00000000000E+00 0. -1.
         -2    1    3    3    0  502 -0.38450802641E+02  0.71224497571E+01 -0.81407287601E+02  0.90312457551E+02  0.00000000000E+00 0.  1.
<mgrwt>
<rscale>  0 0.89398595E+02</rscale>
<asrwt>0</asrwt>
<pdfrwt beam="1">  1        1 0.26571754E-02 0.89398595E+02</pdfrwt>
<pdfrwt beam="2">  1       -1 0.17797314E-01 0.89398595E+02</pdfrwt>
<totfact> 0.83239732E+04</totfact>
</mgrwt>
</event>
<event>
 5    1  0.3963873E+001  0.9405212E+02  0.7546771E-02  0.1293325E+00
          1   -1    0    0  501    0  0.00000000000E+00  0.00000000000E+00  0.76559517628E+03  0.76559517628E+03  0.00000000000E+00 0. -1.
         -1   -1    0    0    0  501 -0.00000000000E+00 -0.00000000000E+00 -0.28885373032E+01  0.28885373032E+01  0.00000000000E+00 0.  1.
         23    2    1    2    0    0  0.00000000000E+00  0.00000000000E+00  0.76270663898E+03  0.76848371358E+03  0.94052118017E+02 0.  0.
          2    1    3    3  502    0  0.14607735639E+02  0.34677410956E+02  0.61181434783E+03  0.61297039486E+03  0.00000000000E+00 0. -1.
         -2    1    3    3    0  502 -0.14607735639E+02 -0.34677410956E+02  0.15089229115E+03  0.15551331872E+03  0.00000000000E+00 0.  1.
<mgrwt>
<rscale>  0 0.94052118E+02</rscale>
<asrwt>0</asrwt>
<pdfrwt beam="1">  1        1 0.11778371E+00 0.94052118E+02</pdfrwt>
<pdfrwt beam="2">  1       -1 0.44439096E-03 0.94052118E+02</pdfrwt>
<totfact> 0.13056469E+05</totfact>
</mgrwt>
</event>
<event>
 5    1  0.3963873E+001  0.9058543E+02  0.7546771E-02  0.1301440E+00
         -1   -1    0    0    0  501 -0.00000000000E+00  0.00000000000E+00  0.86570023083E+02  0.86570023083E+02  0.00000000000E+00 0.  1.
          1   -1    0    0  501    0  0.00000000000E+00 -0.00000000000E+00 -0.23696768939E+02  0.23696768939E+02  0.00000000000E+00 0. -1.
         23    2    1    2    0    0  0.00000000000E+00  0.00000000000E+00  0.62873254144E+02  0.11026679202E+03  0.90585425628E+02 0.  0.
          2    1    3    3  502    0  0.40466365007E+02  0.10306170796E+02  0.10084543286E+02  0.42958606433E+02  0.00000000000E+00 0. -1.
         -2    1    3    3    0  502 -0.40466365007E+02 -0.10306170796E+02  0.52788710857E+02  0.67308185589E+02  0.00000000000E+00 0.  1.
<mgrwt>
<rscale>  0 0.90585426E+02</rscale>
<asrwt>0</asrwt>
<pdfrwt beam="2">  1        1 0.36456568E-02 0.90585426E+02</pdfrwt>
<pdfrwt beam="1">  1       -1 0.13318465E-01 0.90585426E+02</pdfrwt>
<totfact> 0.84916136E+04</totfact>
</mgrwt>
</event>
<event>
 5    1  0.3963873E+001  0.1035843E+03  0.7546771E-02  0.1272934E+00
          2   -1    0    0  501    0  0.00000000000E+00  0.00000000000E+00  0.96329226354E+03  0.96329226354E+03  0.00000000000E+00 0.  1.
         -2   -1    0    0    0  501 -0.00000000000E+00 -0.00000000000E+00 -0.27846467073E+01  0.27846467073E+01  0.00000000000E+00 0. -1.
         23    2    1    2    0    0  0.00000000000E+00  0.00000000000E+00  0.96050761683E+03  0.96607691024E+03  0.10358433530E+03 0.  0.
          2    1    3    3  502    0  0.40793096060E+02 -0.29323393975E+02  0.36283997983E+03  0.36630150024E+03  0.00000000000E+00 0. -1.
         -2    1    3    3    0  502 -0.40793096060E+02  0.29323393975E+02  0.59766763700E+03  0.59977541000E+03  0.00000000000E+00 0.  1.
<mgrwt>
<rscale>  0 0.10358434E+03</rscale>
<asrwt>0</asrwt>
<pdfrwt beam="1">  1        2 0.14819854E+00 0.10358434E+03</pdfrwt>
<pdfrwt beam="2">  1       -2 0.42840795E-03 0.10358434E+03</pdfrwt>
<totfact> 0.17791507E+05</totfact>
</mgrwt>
</event>
<event>
 5    1  0.3963873E+001  0.7406287E+02  0.7546771E-02  0.1346798E+00
         -4   -1    0    0    0  501 -0.00000000000E+00  0.00000000000E+00  0.11629868397E+02  0.11629868397E+02  0.00000000000E+00 0.  1.
          4   -1    0    0  501    0  0.00000000000E+00 -0.00000000000E+00 -0.11791424262E+03  0.11791424262E+03  0.00000000000E+00 0. -1.
         23    2    1    2    0    0  0.00000000000E+00  0.00000000000E+00 -0.10628437423E+03  0.12954411102E+03  0.74062868532E+02 0.  0.
          2    1    3    3  502    0  0.10076108213E+02 -0.33345166149E+02 -0.75121136090E+02  0.82804668647E+02  0.00000000000E+00 0. -1.
         -2    1    3    3    0  502 -0.10076108213E+02  0.33345166149E+02 -0.31163238138E+02  0.46739442374E+02  0.00000000000E+00 0.  1.
<mgrwt>
<rscale>  0 0.74062869E+02</rscale>
<asrwt>0</asrwt>
<pdfrwt beam="2">  1        4 0.18140653E-01 0.74062869E+02</pdfrwt>
<pdfrwt beam="1">  1       -4 0.17892105E-02 0.74062869E+02</pdfrwt>
<totfact> 0.42977868E+04</totfact>
</mgrwt>
</event>
<event>
 5    1  0.3963873E+001  0.8927136E+02  0.7546771E-02  0.1304626E+00
          4   -1    0    0  501    0  0.00000000000E+00  0.00000000000E+00  0.59505587117E+01  0.59505587117E+01  0.00000000000E+00 0. -1.
         -4   -1    0    0    0  501 -0.00000000000E+00 -0.00000000000E+00 -0.33481627954E+03  0.33481627954E+03  0.00000000000E+00 0.  1.
         23    2    1    2    0    0  0.00000000000E+00  0.00000000000E+00 -0.32886572083E+03  0.34076683825E+03  0.89271360000E+02 0.  0.
          2    1    3    3  502    0 -0.33117010874E+01  0.27090103438E+02 -0.29925646957E+03  0.30049837878E+03  0.00000000000E+00 0.  1.
         -2    1    3    3    0  502  0.33117010874E+01 -0.27090103438E+02 -0.29609251260E+02  0.40268459476E+02  0.00000000000E+00 0. -1.
<mgrwt>
<rscale>  0 0.89271360E+02</rscale>
<asrwt>0</asrwt>
<pdfrwt beam="1">  1        4 0.91547037E-03 0.89271360E+02</pdfrwt>
<pdfrwt beam="2">  1       -4 0.51510208E-01 0.89271360E+02</pdfrwt>
<totfact> 0.17601133E+04</totfact>
</mgrwt>
</event>
<event>
 5    1  0.3963873E+001  0.9201228E+02  0.7546771E-02  0.1298051E+00
         -2   -1    0    0    0  501 -0.00000000000E+00  0.00000000000E+00  0.98908121519E+03  0.98908121519E+03  0.00000000000E+00 0.  1.
          2   -1    0    0  501    0  0.00000000000E+00 -0.00000000000E+00 -0.21399302273E+01  0.21399302273E+01  0.00000000000E+00 0. -1.
         23    2    1    2    0    0  0.00000000000E+00  0.00000000000E+00  0.98694128497E+03  0.99122114542E+03  0.92012277216E+02 0.  0.
          2    1    3    3  502    0  0.25475955070E+02  0.19715404044E+02  0.13963304901E+03  0.14330076699E+03  0.00000000000E+00 0. -1.
         -2    1    3    3    0  502 -0.25475955070E+02 -0.19715404044E+02  0.84730823595E+03  0.84792037843E+03  0.00000000000E+00 0.  1.
<mgrwt>
<rscale>  0 0.92012277E+02</rscale>
<asrwt>0</asrwt>
<pdfrwt beam="2">  1        2 0.32922083E-03 0.92012277E+02</pdfrwt>
<pdfrwt beam="1">  1       -2 0.15216598E+00 0.92012277E+02</pdfrwt>
<totfact> 0.18482235E+04</totfact>
</mgrwt>
</event>
<event>
 5    1  0.3963873E+001  0.8983931E+02  0.7546771E-02  0.1303241E+00
          2   -1    0    0  501    0  0.00000000000E+00  0.00000000000E+00  0.59625010388E+03  0.59625010388E+03  0.00000000000E+00 0.  1.
         -2   -1    0    0    0  501 -0.00000000000E+00 -0.00000000000E+00 -0.33841090053E+01  0.33841090053E+01  0.00000000000E+00 0. -1.
         23    2    1    2    0    0  0.00000000000E+00  0.00000000000E+00  0.59286599488E+03  0.59963421289E+03  0.89839308679E+02 0.  0.
          2    1    3    3  502    0  0.37090144179E+02 -0.17124906637E+02  0.42109367514E+03  0.42307070859E+03  0.00000000000E+00 0. -1.
         -2    1    3    3    0  502 -0.37090144179E+02  0.17124906637E+02  0.17177231973E+03  0.17656350429E+03  0.00000000000E+00 0.  1.
<mgrwt>
<rscale>  0 0.89839309E+02</rscale>
<asrwt>0</asrwt>
<pdfrwt beam="1">  1        2 0.91730701E-01 0.89839309E+02</pdfrwt>
<pdfrwt beam="2">  1       -2 0.52063263E-03 0.89839309E+02</pdfrwt>
<totfact> 0.23648860E+05</totfact>
</mgrwt>
</event>
<event>
 4    1  0.3963873E+001  0.4057723E+02  0.7546771E-02  0.1504006E+00
          2   -1    0    0  501    0  0.00000000000E+00  0.00000000000E+00  0.50387261216E+00  0.50387261216E+00  0.00000000000E+00 0. -1.
         -2   -1    0    0    0  501 -0.00000000000E+00 -0.00000000000E+00 -0.81692859297E+03  0.81692859297E+03  0.00000000000E+00 0.  1.
          2    1    1    2  502    0  0.17493819768E+02 -0.10198806675E+02 -0.43352278965E+03  0.43399545911E+03  0.00000000000E+00 0. -1.
         -2    1    1    2    0  502 -0.17493819768E+02  0.10198806675E+02 -0.38290193072E+03  0.38343700647E+03  0.00000000000E+00 0.  1.
<mgrwt>
<rscale>  0 0.40577232E+02</rscale>
<asrwt>0</asrwt>
<pdfrwt beam="1">  1        2 0.77518275E-04 0.40577232E+02</pdfrwt>
<pdfrwt beam="2">  1       -2 0.12568228E+00 0.40577232E+02</pdfrwt>
<totfact> 0.17666956E+05</totfact>
</mgrwt>
</event>
<event>
 5    1  0.3963873E+001  0.9384650E+02  0.7546771E-02  0.1293795E+00
         -2   -1    0    0    0  501 -0.00000000000E+00  0.00000000000E+00  0.69815023806E+03  0.69815023806E+03  0.00000000000E+00 0.  1.
          2   -1    0    0  501    0  0.00000000000E+00 -0.00000000000E+00 -0.31537500309E+01  0.31537500309E+01  0.00000000000E+00 0. -1.
         23    2    1    2    0    0  0.00000000000E+00  0.00000000000E+00  0.69499648803E+03  0.70130398809E+03  0.93846498813E+02 0.  0.
          2    1    3    3  502    0  0.45086386731E+02 -0.48759395293E+01  0.25744013949E+03  0.26140386851E+03  0.00000000000E+00 0. -1.
         -2    1    3    3    0  502 -0.45086386731E+02  0.48759395293E+01  0.43755634854E+03  0.43990011958E+03  0.00000000000E+00 0.  1.
<mgrwt>
<rscale>  0 0.93846499E+02</rscale>
<asrwt>0</asrwt>
<pdfrwt beam="2">  1        2 0.48519287E-03 0.93846499E+02</pdfrwt>
<pdfrwt beam="1">  1       -2 0.10740761E+00 0.93846499E+02</pdfrwt>
<totfact> 0.25281796E+04</totfact>
</mgrwt>
</event>
<event>
 5    1  0.3963873E+001  0.9061402E+02  0.7546771E-02  0.1301372E+00
          2   -1    0    0  501    0  0.00000000000E+00  0.00000000000E+00  0.45473168708E+03  0.45473168708E+03  0.00000000000E+00 0.  1.
         -2   -1    0    0    0  501 -0.00000000000E+00 -0.00000000000E+00 -0.45141461317E+01  0.45141461317E+01  0.00000000000E+00 0. -1.
         23    2    1    2    0    0  0.00000000000E+00  0.00000000000E+00  0.45021754095E+03  0.45924583321E+03  0.90614022892E+02 0.  0.
          2    1    3    3  502    0  0.13191574562E+02  0.38790480763E+02  0.12709451572E+03  0.13353551948E+03  0.00000000000E+00 0. -1.
         -2    1    3    3    0  502 -0.13191574562E+02 -0.38790480763E+02  0.32312302522E+03  0.32571031373E+03  0.00000000000E+00 0.  1.
<mgrwt>
<rscale>  0 0.90614023E+02</rscale>
<asrwt>0</asrwt>
<pdfrwt beam="1">  1        2 0.69958685E-01 0.90614023E+02</pdfrwt>
<pdfrwt beam="2">  1       -2 0.69448438E-03 0.90614023E+02</pdfrwt>
<totfact> 0.21223772E+05</totfact>
</mgrwt>
</event>
<event>
 5    1  0.3963873E+001  0.9384904E+02  0.7546771E-02  0.1293790E+00
         -1   -1    0    0    0  501 -0.00000000000E+00  0.00000000000E+00  0.26518453770E+03  0.26518453770E+03  0.00000000000E+00 0.  1.
          1   -1    0    0  501    0  0.00000000000E+00 -0.00000000000E+00 -0.83033144556E+01  0.83033144556E+01  0.00000000000E+00 0. -1.
         23    2    1    2    0    0  0.00000000000E+00  0.00000000000E+00  0.25688122324E+03  0.27348785215E+03  0.93849040598E+02 0.  0.
          2    1    3    3  502    0 -0.23723116680E+02 -0.40114276292E+02  0.11248749214E+03  0.12175950606E+03  0.00000000000E+00 0. -1.
         -2    1    3    3    0  502  0.23723116680E+02  0.40114276292E+02  0.14439373110E+03  0.15172834610E+03  0.00000000000E+00 0.  1.
<mgrwt>
<rscale>  0 0.93849041E+02</rscale>
<asrwt>0</asrwt>
<pdfrwt beam="2">  1        1 0.12774332E-02 0.93849041E+02</pdfrwt>
<pdfrwt beam="1">  1       -1 0.40797615E-01 0.93849041E+02</pdfrwt>
<totfact> 0.58831888E+04</totfact>
</mgrwt>
</event>
<event>
 5    1  0.3963873E+001  0.8997422E+02  0.7546771E-02  0.1302914E+00
          2   -1    0    0  501    0  0.00000000000E+00  0.00000000000E+00  0.69219625002E+02  0.69219625002E+02  0.00000000000E+00 0. -1.
         -2   -1    0    0    0  501 -0.00000000000E+00 -0.00000000000E+00 -0.29237955107E+02  0.29237955107E+02  0.00000000000E+00 0.  1.
         23    2    1    2    0    0  0.00000000000E+00  0.00000000000E+00  0.39981669895E+02  0.98457580110E+02  0.89974224939E+02 0.  0.
          2    1    3    3  502    0 -0.44192549516E+02 -0.30982630030E+01  0.11426015745E+02  0.45750786902E+02  0.00000000000E+00 0.  1.
         -2    1    3    3    0  502  0.44192549516E+02  0.30982630030E+01  0.28555654150E+02  0.52706793208E+02  0.00000000000E+00 0. -1.
<mgrwt>
<rscale>  0 0.89974225E+02</rscale>
<asrwt>0</asrwt>
<pdfrwt beam="1">  1        2 0.10649173E-01 0.89974225E+02</pdfrwt>
<pdfrwt beam="2">  1       -2 0.44981470E-02 0.89974225E+02</pdfrwt>
<totfact> 0.11444483E+05</totfact>
</mgrwt>
</event>
<event>
 5    1  0.3963873E+001  0.9296553E+02  0.7546771E-02  0.1295825E+00
         -2   -1    0    0    0  501 -0.00000000000E+00  0.00000000000E+00  0.29602942708E+01  0.29602942708E+01  0.00000000000E+00 0.  1.
          2   -1    0    0  501    0  0.00000000000E+00 -0.00000000000E+00 -0.72987582994E+03  0.72987582994E+03  0.00000000000E+00 0. -1.
         23    2    1    2    0    0  0.00000000000E+00  0.00000000000E+00 -0.72691553567E+03  0.73283612421E+03  0.92965525606E+02 0.  0.
          2    1    3    3  502    0 -0.24468411590E+02 -0.33162889606E+02 -0.19399108674E+03  0.19832050360E+03  0.00000000000E+00 0.  1.
         -2    1    3    3    0  502  0.24468411590E+02  0.33162889606E+02 -0.53292444893E+03  0.53451562062E+03  0.00000000000E+00 0. -1.
<mgrwt>
<rscale>  0 0.92965526E+02</rscale>
<asrwt>0</asrwt>
<pdfrwt beam="2">  1        2 0.11228858E+00 0.92965526E+02</pdfrwt>
<pdfrwt beam="1">  1       -2 0.45542991E-03 0.92965526E+02</pdfrwt>
<totfact> 0.22741351E+05</totfact>
</mgrwt>
</event>
<event>
 5    1  0.3963873E+001  0.8886320E+02  0.7546771E-02  0.1305628E+00
          2   -1    0    0  501    0  0.00000000000E+00  0.00000000000E+00  0.38368092098E+03  0.38368092098E+03  0.00000000000E+00 0. -1.
         -2   -1    0    0    0  501 -0.00000000000E+00 -0.00000000000E+00 -0.51453351306E+01  0.51453351306E+01  0.00000000000E+00 0.  1.
         23    2    1    2    0    0  0.00000000000E+00  0.00000000000E+00  0.37853558585E+03  0.38882625611E+03  0.88863196469E+02 0.  0.
          2    1    3    3  502    0  0.11504310561E+02  0.42012018428E+02  0.15092029146E+03  0.15708053103E+03  0.00000000000E+00 0. -1.
         -2    1    3    3    0  502 -0.11504310561E+02 -0.42012018428E+02  0.22761529439E+03  0.23174572509E+03  0.00000000000E+00 0.  1.
<mgrwt>
<rscale>  0 0.88863196E+02</rscale>
<asrwt>0</asrwt>
<pdfrwt beam="1">  1        2 0.59027811E-01 0.88863196E+02</pdfrwt>
<pdfrwt beam="2">  1       -2 0.79159032E-03 0.88863196E+02</pdfrwt>
<totfact> 0.21052824E+05</totfact>
</mgrwt>
</event>
<event>
 5    1  0.3963873E+001  0.7642564E+02  0.7546771E-02  0.1339512E+00
         -1   -1    0    0    0  501 -0.00000000000E+00  0.00000000000E+00  0.23662866121E+01  0.23662866121E+01  0.00000000000E+00 0.  1.
          1   -1    0    0  501    0  0.00000000000E+00 -0.00000000000E+00 -0.61709335678E+03  0.61709335678E+03  0.00000000000E+00 0. -1.
         23    2    1    2    0    0  0.00000000000E+00  0.00000000000E+00 -0.61472707017E+03  0.61945964339E+03  0.76425643565E+02 0.  0.
          2    1    3    3  502    0  0.30683521718E+02 -0.19505733789E+01 -0.49129276606E+03  0.49225386258E+03  0.00000000000E+00 0. -1.
         -2    1    3    3    0  502 -0.30683521718E+02  0.19505733789E+01 -0.12343430411E+03  0.12720578081E+03  0.00000000000E+00 0.  1.
<mgrwt>
<rscale>  0 0.76425644E+02</rscale>
<asrwt>0</asrwt>
<pdfrwt beam="2">  1        1 0.94937526E-01 0.76425644E+02</pdfrwt>
<pdfrwt beam="1">  1       -1 0.36404376E-03 0.76425644E+02</pdfrwt>
<totfact> 0.22529195E+05</totfact>
</mgrwt>
</event>
<event>
 5    1  0.3963873E+001  0.9176953E+02  0.7546771E-02  0.1298622E+00
          2   -1    0    0  501    0  0.00000000000E+00  0.00000000000E+00  0.18682611631E+02  0.18682611631E+02  0.00000000000E+00 0.  1.
         -2   -1    0    0    0  501 -0.00000000000E+00 -0.00000000000E+00 -0.11269364098E+03  0.11269364098E+03  0.00000000000E+00 0. -1.
         23    2    1    2    0    0  0.00000000000E+00  0.00000000000E+00 -0.94011029349E+02  0.13137625261E+03  0.91769527137E+02 0.  0.
          2    1    3    3  502    0 -0.45708248535E+02 -0.11069977665E+01 -0.52539323979E+02  0.69648043708E+02  0.00000000000E+00 0. -1.
         -2    1    3    3    0  502  0.45708248535E+02  0.11069977665E+01 -0.41471705370E+02  0.61728208903E+02  0.00000000000E+00 0.  1.
<mgrwt>
<rscale>  0 0.91769527E+02</rscale>
<asrwt>0</asrwt>
<pdfrwt beam="1">  1        2 0.28742479E-02 0.91769527E+02</pdfrwt>
<pdfrwt beam="2">  1       -2 0.17337483E-01 0.91769527E+02</pdfrwt>
<totfact> 0.75702680E+04</totfact>
</mgrwt>
</event>
<event>
 5    1  0.3963873E+001  0.8664810E+02  0.7546771E-02  0.1311178E+00
          2   -1    0    0  501    0  0.00000000000E+00  0.00000000000E+00  0.46482348644E+03  0.46482348644E+03  0.00000000000E+00 0. -1.
         -2   -1    0    0    0  501 -0.00000000000E+00 -0.00000000000E+00 -0.40380345909E+01  0.40380345909E+01  0.00000000000E+00 0.  1.
         23    2    1    2    0    0  0.00000000000E+00  0.00000000000E+00  0.46078545185E+03  0.46886152103E+03  0.86648100196E+02 0.  0.
          2    1    3    3  502    0 -0.21920480565E+02  0.30882498243E+02  0.11653604219E+03  0.12253524103E+03  0.00000000000E+00 0.  1.
         -2    1    3    3    0  502  0.21920480565E+02 -0.30882498243E+02  0.34424940966E+03  0.34632628000E+03  0.00000000000E+00 0. -1.
<mgrwt>
<rscale>  0 0.86648100E+02</rscale>
<asrwt>0</asrwt>
<pdfrwt beam="1">  1        2 0.71511263E-01 0.86648100E+02</pdfrwt>
<pdfrwt beam="2">  1       -2 0.62123646E-03 0.86648100E+02</pdfrwt>
<totfact> 0.24064255E+05</totfact>
</mgrwt>
</event>
<event>
 5    1  0.3963873E+001  0.9235558E+02  0.7546771E-02  0.1297246E+00
         -1   -1    0    0    0  501 -0.00000000000E+00  0.00000000000E+00  0.76484401410E+02  0.76484401410E+02  0.00000000000E+00 0.  1.
          1   -1    0    0  501    0  0.00000000000E+00 -0.00000000000E+00 -0.27880043307E+02  0.27880043307E+02  0.00000000000E+00 0. -1.
         23    2    1    2    0    0  0.00000000000E+00  0.00000000000E+00  0.48604358103E+02  0.10436444472E+03  0.92355582909E+02 0.  0.
          2    1    3    3  502    0 -0.12954597067E+02 -0.22429579665E+02 -0.18898042024E+02  0.32063119335E+02  0.00000000000E+00 0. -1.
         -2    1    3    3    0  502  0.12954597067E+02  0.22429579665E+02  0.67502400127E+02  0.72301325383E+02  0.00000000000E+00 0.  1.
<mgrwt>
<rscale>  0 0.92355583E+02</rscale>
<asrwt>0</asrwt>
<pdfrwt beam="2">  1        1 0.42892375E-02 0.92355583E+02</pdfrwt>
<pdfrwt beam="1">  1       -1 0.11766831E-01 0.92355583E+02</pdfrwt>
<totfact> 0.82532666E+04</totfact>
</mgrwt>
</event>
<event>
 5    1  0.3963873E+001  0.8760807E+02  0.7546771E-02  0.1308750E+00
          2   -1    0    0  501    0  0.00000000000E+00  0.00000000000E+00  0.17064268646E+03  0.17064268646E+03  0.00000000000E+00 0. -1.
         -2   -1    0    0    0  501 -0.00000000000E+00 -0.00000000000E+00 -0.11244511310E+02  0.11244511310E+02  0.00000000000E+00 0.  1.
         23    2    1    2    0    0  0.00000000000E+00  0.00000000000E+00  0.15939817515E+03  0.18188719777E+03  0.87608073098E+02 0.  0.
          2    1    3    3  502    0 -0.19286624285E+01 -0.34068106387E+02  0.13672467704E+03  0.14091839100E+03  0.00000000000E+00 0. -1.
         -2    1    3    3    0  502  0.19286624285E+01  0.34068106387E+02  0.22673498117E+02  0.40968806774E+02  0.00000000000E+00 0.  1.
<mgrwt>
<rscale>  0 0.87608073E+02</rscale>
<asrwt>0</asrwt>
<pdfrwt beam="1">  1        2 0.26252719E-01 0.87608073E+02</pdfrwt>
<pdfrwt beam="2">  1       -2 0.17299249E-02 0.87608073E+02</pdfrwt>
<totfact> 0.16277820E+05</totfact>
</mgrwt>
</event>
<event>
 5    1  0.3963873E+001  0.9065676E+02  0.7546771E-02  0.1301269E+00
          1   -1    0    0  501    0  0.00000000000E+00  0.00000000000E+00  0.11497104767E+03  0.11497104767E+03  0.00000000000E+00 0. -1.
         -1   -1    0    0    0  501 -0.00000000000E+00 -0.00000000000E+00 -0.17871125928E+02  0.17871125928E+02  0.00000000000E+00 0.  1.
         23    2    1    2    0    0  0.00000000000E+00  0.00000000000E+00  0.97099921739E+02  0.13284217360E+03  0.90656760827E+02 0.  0.
          2    1    3    3  502    0 -0.25769797784E+02  0.34119464518E+02  0.70600235937E+02  0.82538558572E+02  0.00000000000E+00 0. -1.
         -2    1    3    3    0  502  0.25769797784E+02 -0.34119464518E+02  0.26499685803E+02  0.50303615023E+02  0.00000000000E+00 0.  1.
<mgrwt>
<rscale>  0 0.90656761E+02</rscale>
<asrwt>0</asrwt>
<pdfrwt beam="1">  1        1 0.17687853E-01 0.90656761E+02</pdfrwt>
<pdfrwt beam="2">  1       -1 0.27494041E-02 0.90656761E+02</pdfrwt>
<totfact> 0.10861732E+05</totfact>
</mgrwt>
</event>
<event>
 5    1  0.3963873E+001  0.9181274E+02  0.7546771E-02  0.1298520E+00
          2   -1    0    0  501    0  0.00000000000E+00  0.00000000000E+00  0.19522149986E+04  0.19522149986E+04  0.00000000000E+00 0.  1.
         -2   -1    0    0    0  501 -0.00000000000E+00 -0.00000000000E+00 -0.10794891777E+01  0.10794891777E+01  0.00000000000E+00 0. -1.
         23    2    1    2    0    0  0.00000000000E+00  0.00000000000E+00  0.19511355095E+04  0.19532944878E+04  0.91812743422E+02 0.  0.
          2    1    3    3  502    0  0.36484701519E+02 -0.35629936571E+01  0.38768838477E+03  0.38941765761E+03  0.00000000000E+00 0. -1.
         -2    1    3    3    0  502 -0.36484701519E+02  0.35629936571E+01  0.15634471247E+04  0.15638768302E+04  0.00000000000E+00 0.  1.
<mgrwt>
<rscale>  0 0.91812743E+02</rscale>
<asrwt>0</asrwt>
<pdfrwt beam="1">  1        2 0.30033794E+00 0.91812743E+02</pdfrwt>
<pdfrwt beam="2">  1       -2 0.16607682E-03 0.91812743E+02</pdfrwt>
<totfact> 0.19749434E+05</totfact>
</mgrwt>
</event>
<event>
 5    1  0.3963873E+001  0.9931402E+02  0.7546771E-02  0.1281745E+00
          1   -1    0    0  501    0  0.00000000000E+00  0.00000000000E+00  0.31725241761E+03  0.31725241761E+03  0.00000000000E+00 0. -1.
         -1   -1    0    0    0  501 -0.00000000000E+00 -0.00000000000E+00 -0.77724188937E+01  0.77724188937E+01  0.00000000000E+00 0.  1.
         23    2    1    2    0    0  0.00000000000E+00  0.00000000000E+00  0.30947999871E+03  0.32502483650E+03  0.99314020857E+02 0.  0.
          2    1    3    3  502    0 -0.62568285129E+01 -0.48405425356E+02  0.12481930569E+03  0.13402273009E+03  0.00000000000E+00 0. -1.
         -2    1    3    3    0  502  0.62568285129E+01  0.48405425356E+02  0.18466069302E+03  0.19100210641E+03  0.00000000000E+00 0.  1.
<mgrwt>
<rscale>  0 0.99314021E+02</rscale>
<asrwt>0</asrwt>
<pdfrwt beam="1">  1        1 0.48808054E-01 0.99314021E+02</pdfrwt>
<pdfrwt beam="2">  1       -1 0.11957570E-02 0.99314021E+02</pdfrwt>
<totfact> 0.10301081E+05</totfact>
</mgrwt>
</event>
<event>
 5    1  0.3963873E+001  0.8662105E+02  0.7546771E-02  0.1311247E+00
          4   -1    0    0  501    0  0.00000000000E+00  0.00000000000E+00  0.45175207068E+02  0.45175207068E+02  0.00000000000E+00 0. -1.
         -4   -1    0    0    0  501 -0.00000000000E+00 -0.00000000000E+00 -0.41522808462E+02  0.41522808462E+02  0.00000000000E+00 0.  1.
         23    2    1    2    0    0  0.00000000000E+00  0.00000000000E+00  0.36523986062E+01  0.86698015530E+02  0.86621047565E+02 0.  0.
          2    1    3    3  502    0  0.19417680535E+02  0.70544500237E+01  0.39925622654E+02  0.44954053508E+02  0.00000000000E+00 0. -1.
         -2    1    3    3    0  502 -0.19417680535E+02 -0.70544500237E+01 -0.36273224048E+02  0.41743962022E+02  0.00000000000E+00 0.  1.
<mgrwt>
<rscale>  0 0.86621048E+02</rscale>
<asrwt>0</asrwt>
<pdfrwt beam="1">  1        4 0.69500319E-02 0.86621048E+02</pdfrwt>
<pdfrwt beam="2">  1       -4 0.63881243E-02 0.86621048E+02</pdfrwt>
<totfact> 0.31365864E+04</totfact>
</mgrwt>
</event>
<event>
 5    1  0.3963873E+001  0.9317478E+02  0.7546771E-02  0.1295341E+00
          2   -1    0    0  501    0  0.00000000000E+00  0.00000000000E+00  0.37232768218E+02  0.37232768218E+02  0.00000000000E+00 0. -1.
         -2   -1    0    0    0  501 -0.00000000000E+00 -0.00000000000E+00 -0.58292328983E+02  0.58292328983E+02  0.00000000000E+00 0.  1.
         23    2    1    2    0    0  0.00000000000E+00  0.00000000000E+00 -0.21059560765E+02  0.95525097202E+02  0.93174777144E+02 0.  0.
          2    1    3    3  502    0 -0.14412108494E+02  0.38393151057E+02 -0.33192626895E+02  0.52758822954E+02  0.00000000000E+00 0.  1.
         -2    1    3    3    0  502  0.14412108494E+02 -0.38393151057E+02  0.12133066130E+02  0.42766274248E+02  0.00000000000E+00 0. -1.
<mgrwt>
<rscale>  0 0.93174777E+02</rscale>
<asrwt>0</asrwt>
<pdfrwt beam="1">  1        2 0.57281182E-02 0.93174777E+02</pdfrwt>
<pdfrwt beam="2">  1       -2 0.89680505E-02 0.93174777E+02</pdfrwt>
<totfact> 0.87885023E+04</totfact>
</mgrwt>
</event>
<event>
 5    1  0.3963873E+001  0.9228609E+02  0.7546771E-02  0.1297408E+00
         -1   -1    0    0    0  501 -0.00000000000E+00  0.00000000000E+00  0.43830036919E+02  0.43830036919E+02  0.00000000000E+00 0.  1.
          1   -1    0    0  501    0  0.00000000000E+00 -0.00000000000E+00 -0.48578111815E+02  0.48578111815E+02  0.00000000000E+00 0. -1.
         23    2    1    2    0    0  0.00000000000E+00  0.00000000000E+00 -0.47480748962E+01  0.92408148734E+02  0.92286086369E+02 0.  0.
          2    1    3    3  502    0 -0.63037814660E+01 -0.33892544882E+02 -0.33086060484E+02  0.47782106041E+02  0.00000000000E+00 0. -1.
         -2    1    3    3    0  502  0.63037814660E+01  0.33892544882E+02  0.28337985588E+02  0.44626042694E+02  0.00000000000E+00 0.  1.
<mgrwt>
<rscale>  0 0.92286086E+02</rscale>
<asrwt>0</asrwt>
<pdfrwt beam="2">  1        1 0.74735556E-02 0.92286086E+02</pdfrwt>
<pdfrwt beam="1">  1       -1 0.67430826E-02 0.92286086E+02</pdfrwt>
<totfact> 0.90246000E+04</totfact>
</mgrwt>
</event>
<event>
 5    1  0.3963873E+001  0.8860648E+02  0.7546771E-02  0.1306262E+00
          2   -1    0    0  501    0  0.00000000000E+00  0.00000000000E+00  0.11238492847E+02  0.11238492847E+02  0.00000000000E+00 0. -1.
         -2   -1    0    0    0  501 -0.00000000000E+00 -0.00000000000E+00 -0.17464771858E+03  0.17464771858E+03  0.00000000000E+00 0.  1.
         23    2    1    2    0    0  0.00000000000E+00  0.00000000000E+00 -0.16340922573E+03  0.18588621142E+03  0.88606481389E+02 0.  0.
          2    1    3    3  502    0 -0.10147401524E+02 -0.28158032900E+02 -0.15022979050E+03  0.15318235710E+03  0.00000000000E+00 0.  1.
         -2    1    3    3    0  502  0.10147401524E+02  0.28158032900E+02 -0.13179435232E+02  0.32703854322E+02  0.00000000000E+00 0. -1.
<mgrwt>
<rscale>  0 0.88606481E+02</rscale>
<asrwt>0</asrwt>
<pdfrwt beam="1">  1        2 0.17289990E-02 0.88606481E+02</pdfrwt>
<pdfrwt beam="2">  1       -2 0.26868878E-01 0.88606481E+02</pdfrwt>
<totfact> 0.70897476E+04</totfact>
</mgrwt>
</event>
<event>
 5    1  0.3963873E+001  0.8995100E+02  0.7546771E-02  0.1302970E+00
          2   -1    0    0  501    0  0.00000000000E+00  0.00000000000E+00  0.17364135623E+04  0.17364135623E+04  0.00000000000E+00 0. -1.
         -2   -1    0    0    0  501 -0.00000000000E+00 -0.00000000000E+00 -0.11649272189E+01  0.11649272189E+01  0.00000000000E+00 0.  1.
         23    2    1    2    0    0  0.00000000000E+00  0.00000000000E+00  0.17352486351E+04  0.17375784896E+04  0.89950996039E+02 0.  0.
          2    1    3    3  502    0 -0.36619510421E+02  0.65138066371E+01  0.13560708470E+04  0.13565808344E+04  0.00000000000E+00 0. -1.
         -2    1    3    3    0  502  0.36619510421E+02 -0.65138066371E+01  0.37917778812E+03  0.38099765514E+03  0.00000000000E+00 0.  1.
<mgrwt>
<rscale>  0 0.89950996E+02</rscale>
<asrwt>0</asrwt>
<pdfrwt beam="1">  1        2 0.26713848E+00 0.89950996E+02</pdfrwt>
<pdfrwt beam="2">  1       -2 0.17922096E-03 0.89950996E+02</pdfrwt>
<totfact> 0.22744336E+05</totfact>
</mgrwt>
</event>
<event>
 5    1  0.3963873E+001  0.9188685E+02  0.7546771E-02  0.1298346E+00
          3   -1    0    0  501    0  0.00000000000E+00  0.00000000000E+00  0.21146132046E+03  0.21146132046E+03  0.00000000000E+00 0. -1.
         -3   -1    0    0    0  501 -0.00000000000E+00 -0.00000000000E+00 -0.99819597328E+01  0.99819597328E+01  0.00000000000E+00 0.  1.
         23    2    1    2    0    0  0.00000000000E+00  0.00000000000E+00  0.20147936073E+03  0.22144328019E+03  0.91886851853E+02 0.  0.
          2    1    3    3  502    0  0.29111418084E+02  0.31226560567E+02  0.14165400985E+03  0.14794739354E+03  0.00000000000E+00 0. -1.
         -2    1    3    3    0  502 -0.29111418084E+02 -0.31226560567E+02  0.59825350875E+02  0.73495886654E+02  0.00000000000E+00 0.  1.
<mgrwt>
<rscale>  0 0.91886852E+02</rscale>
<asrwt>0</asrwt>
<pdfrwt beam="1">  1        3 0.32532508E-01 0.91886852E+02</pdfrwt>
<pdfrwt beam="2">  1       -3 0.15356863E-02 0.91886852E+02</pdfrwt>
<totfact> 0.26858315E+04</totfact>
</mgrwt>
</event>
<event>
 5    1  0.3963873E+001  0.9196027E+02  0.7546771E-02  0.1298173E+00
          1   -1    0    0  501    0  0.00000000000E+00  0.00000000000E+00  0.88033708573E+02  0.88033708573E+02  0.00000000000E+00 0. -1.
         -1   -1    0    0    0  501 -0.00000000000E+00 -0.00000000000E+00 -0.24015491123E+02  0.24015491123E+02  0.00000000000E+00 0.  1.
         23    2    1    2    0    0  0.00000000000E+00  0.00000000000E+00  0.64018217450E+02  0.11204919970E+03  0.91960268524E+02 0.  0.
          2    1    3    3  502    0 -0.12342955878E+01  0.33563631019E+02  0.70271846341E+02  0.77885641815E+02  0.00000000000E+00 0. -1.
         -2    1    3    3    0  502  0.12342955878E+01 -0.33563631019E+02 -0.62536288906E+01  0.34163557881E+02  0.00000000000E+00 0.  1.
<mgrwt>
<rscale>  0 0.91960269E+02</rscale>
<asrwt>0</asrwt>
<pdfrwt beam="1">  1        1 0.13543647E-01 0.91960269E+02</pdfrwt>
<pdfrwt beam="2">  1       -1 0.36946910E-02 0.91960269E+02</pdfrwt>
<totfact> 0.99923527E+04</totfact>
</mgrwt>
</event>
<event>
 5    1  0.3963873E+001  0.8993509E+02  0.7546771E-02  0.1303009E+00
          2   -1    0    0  501    0  0.00000000000E+00  0.00000000000E+00  0.41571360841E+01  0.41571360841E+01  0.00000000000E+00 0. -1.
         -2   -1    0    0    0  501 -0.00000000000E+00 -0.00000000000E+00 -0.48641184512E+03  0.48641184512E+03  0.00000000000E+00 0.  1.
         23    2    1    2    0    0  0.00000000000E+00  0.00000000000E+00 -0.48225470903E+03  0.49056898120E+03  0.89935092886E+02 0.  0.
          2    1    3    3  502    0  0.21598098978E+02  0.25417366052E+02 -0.76619537687E+02  0.83564788828E+02  0.00000000000E+00 0. -1.
         -2    1    3    3    0  502 -0.21598098978E+02 -0.25417366052E+02 -0.40563517135E+03  0.40700419237E+03  0.00000000000E+00 0.  1.
<mgrwt>
<rscale>  0 0.89935093E+02</rscale>
<asrwt>0</asrwt>
<pdfrwt beam="1">  1        2 0.63955984E-03 0.89935093E+02</pdfrwt>
<pdfrwt beam="2">  1       -2 0.74832540E-01 0.89935093E+02</pdfrwt>
<totfact> 0.38423801E+04</totfact>
</mgrwt>
</event>
<event>
 5    1  0.3963873E+001  0.8944020E+02  0.7546771E-02  0.1304213E+00
         -1   -1    0    0    0  501 -0.00000000000E+00  0.00000000000E+00  0.12435369877E+01  0.12435369877E+01  0.00000000000E+00 0.  1.
          1   -1    0    0  501    0  0.00000000000E+00 -0.00000000000E+00 -0.16082249979E+04  0.16082249979E+04  0.00000000000E+00 0. -1.
         23    2    1    2    0    0  0.00000000000E+00  0.00000000000E+00 -0.16069814609E+04  0.16094685349E+04  0.89440198332E+02 0.  0.
          2    1    3    3  502    0 -0.98390023115E+01  0.26164476330E+02 -0.17534159293E+03  0.17755579405E+03  0.00000000000E+00 0. -1.
         -2    1    3    3    0  502  0.98390023115E+01 -0.26164476330E+02 -0.14316398680E+04  0.14319127409E+04  0.00000000000E+00 0.  1.
<mgrwt>
<rscale>  0 0.89440198E+02</rscale>
<asrwt>0</asrwt>
<pdfrwt beam="2">  1        1 0.24742038E+00 0.89440198E+02</pdfrwt>
<pdfrwt beam="1">  1       -1 0.19131250E-03 0.89440198E+02</pdfrwt>
<totfact> 0.10932265E+05</totfact>
</mgrwt>
</event>
<event>
 5    1  0.3963873E+001  0.9136964E+02  0.7546771E-02  0.1299568E+00
         -2   -1    0    0    0  501 -0.00000000000E+00  0.00000000000E+00  0.17725063047E+01  0.17725063047E+01  0.00000000000E+00 0.  1.
          2   -1    0    0  501    0  0.00000000000E+00 -0.00000000000E+00 -0.11774867332E+04  0.11774867332E+04  0.00000000000E+00 0. -1.
         23    2    1    2    0    0  0.00000000000E+00  0.00000000000E+00 -0.11757142269E+04  0.11792592395E+04  0.91369637369E+02 0.  0.
          2    1    3    3  502    0 -0.38501851336E+02 -0.19720916970E+02 -0.77745287063E+03  0.77865542647E+03  0.00000000000E+00 0. -1.
         -2    1    3    3    0  502  0.38501851336E+02  0.19720916970E+02 -0.39826135624E+03  0.40060381301E+03  0.00000000000E+00 0.  1.
<mgrwt>
<rscale>  0 0.91369637E+02</rscale>
<asrwt>0</asrwt>
<pdfrwt beam="2">  1        2 0.18115218E+00 0.91369637E+02</pdfrwt>
<pdfrwt beam="1">  1       -2 0.27269272E-03 0.91369637E+02</pdfrwt>
<totfact> 0.24777780E+05</totfact>
</mgrwt>
</event>
<event>
 4    1  0.3963873E+001  0.5140328E+02  0.7546771E-02  0.1437916E+00
          3   -1    0    0  501    0  0.00000000000E+00  0.00000000000E+00  0.35585418251E+00  0.35585418251E+00  0.00000000000E+00 0. -1.
         -3   -1    0    0    0  501 -0.00000000000E+00 -0.00000000000E+00 -0.18563059887E+04  0.18563059887E+04  0.00000000000E+00 0.  1.
          2    1    1    2  502    0  0.60658110765E+01  0.20027744887E+02 -0.38899527701E+03  0.38955773663E+03  0.00000000000E+00 0. -1.
         -2    1    1    2    0  502 -0.60658110765E+01 -0.20027744887E+02 -0.14669548575E+04  0.14671041062E+04  0.00000000000E+00 0.  1.
<mgrwt>
<rscale>  0 0.51403278E+02</rscale>
<asrwt>0</asrwt>
<pdfrwt beam="1">  1        3 0.54745529E-04 0.51403278E+02</pdfrwt>
<pdfrwt beam="2">  1       -3 0.28559215E+00 0.51403278E+02</pdfrwt>
<totfact> 0.18674747E+04</totfact>
</mgrwt>
</event>
<event>
 5    1  0.3963873E+001  0.9143929E+02  0.7546771E-02  0.1299403E+00
          2   -1    0    0  501    0  0.00000000000E+00  0.00000000000E+00  0.46623760551E+01  0.46623760551E+01  0.00000000000E+00 0. -1.
         -2   -1    0    0    0  501 -0.00000000000E+00 -0.00000000000E+00 -0.44833056966E+03  0.44833056966E+03  0.00000000000E+00 0.  1.
         23    2    1    2    0    0  0.00000000000E+00  0.00000000000E+00 -0.44366819361E+03  0.45299294572E+03  0.91439285053E+02 0.  0.
          2    1    3    3  502    0 -0.44626467765E+02 -0.37269552568E+01 -0.26747410108E+03  0.27119698849E+03  0.00000000000E+00 0. -1.
         -2    1    3    3    0  502  0.44626467765E+02  0.37269552568E+01 -0.17619409253E+03  0.18179595722E+03  0.00000000000E+00 0.  1.
<mgrwt>
<rscale>  0 0.91439285E+02</rscale>
<asrwt>0</asrwt>
<pdfrwt beam="1">  1        2 0.71728873E-03 0.91439285E+02</pdfrwt>
<pdfrwt beam="2">  1       -2 0.68973924E-01 0.91439285E+02</pdfrwt>
<totfact> 0.39117048E+04</totfact>
</mgrwt>
</event>
<event>
 5    1  0.3963873E+001  0.8601784E+02  0.7546771E-02  0.1312792E+00
          1   -1    0    0  501    0  0.00000000000E+00  0.00000000000E+00  0.42382888017E+02  0.42382888017E+02  0.00000000000E+00 0. -1.
         -1   -1    0    0    0  501 -0.00000000000E+00 -0.00000000000E+00 -0.43644203809E+02  0.43644203809E+02  0.00000000000E+00 0.  1.
         23    2    1    2    0    0  0.00000000000E+00  0.00000000000E+00 -0.12613157922E+01  0.86027091825E+02  0.86017844721E+02 0.  0.
          2    1    3    3  502    0  0.17389316302E+02 -0.10053116712E+02  0.37403864659E+02  0.42455889680E+02  0.00000000000E+00 0. -1.
         -2    1    3    3    0  502 -0.17389316302E+02  0.10053116712E+02 -0.38665180451E+02  0.43571202146E+02  0.00000000000E+00 0.  1.
<mgrwt>
<rscale>  0 0.86017845E+02</rscale>
<asrwt>0</asrwt>
<pdfrwt beam="1">  1        1 0.65204443E-02 0.86017845E+02</pdfrwt>
<pdfrwt beam="2">  1       -1 0.67144929E-02 0.86017845E+02</pdfrwt>
<totfact> 0.10766837E+05</totfact>
</mgrwt>
</event>
<event>
 5    1  0.3963873E+001  0.8987253E+02  0.7546771E-02  0.1303161E+00
         -1   -1    0    0    0  501 -0.00000000000E+00  0.00000000000E+00  0.14064116989E+02  0.14064116989E+02  0.00000000000E+00 0.  1.
          1   -1    0    0  501    0  0.00000000000E+00 -0.00000000000E+00 -0.14357588561E+03  0.14357588561E+03  0.00000000000E+00 0. -1.
         23    2    1    2    0    0  0.00000000000E+00  0.00000000000E+00 -0.12951176862E+03  0.15764000259E+03  0.89872533110E+02 0.  0.
          2    1    3    3  502    0  0.34806817850E+02  0.49351925827E+01 -0.11385011983E+03  0.11915418784E+03  0.00000000000E+00 0. -1.
         -2    1    3    3    0  502 -0.34806817850E+02 -0.49351925827E+01 -0.15661648790E+02  0.38485814756E+02  0.00000000000E+00 0.  1.
<mgrwt>
<rscale>  0 0.89872533E+02</rscale>
<asrwt>0</asrwt>
<pdfrwt beam="2">  1        1 0.22088597E-01 0.89872533E+02</pdfrwt>
<pdfrwt beam="1">  1       -1 0.21637104E-02 0.89872533E+02</pdfrwt>
<totfact> 0.11564486E+05</totfact>
</mgrwt>
</event>
<event>
 5    1  0.3963873E+001  0.9132201E+02  0.7546771E-02  0.1299681E+00
         -3   -1    0    0    0  501 -0.00000000000E+00  0.00000000000E+00  0.39006732360E+01  0.39006732360E+01  0.00000000000E+00 0.  1.
          3   -1    0    0  501    0  0.00000000000E+00 -0.00000000000E+00 -0.53450452578E+03  0.53450452578E+03  0.00000000000E+00 0. -1.
         23    2    1    2    0    0  0.00000000000E+00  0.00000000000E+00 -0.53060385255E+03  0.53840519902E+03  0.91322012642E+02 0.  0.
          2    1    3    3  502    0 -0.60700272195E+01 -0.34368772821E+02 -0.43888632436E+03  0.44027180637E+03  0.00000000000E+00 0. -1.
         -2    1    3    3    0  502  0.60700272195E+01  0.34368772821E+02 -0.91717528184E+02  0.98133392644E+02  0.00000000000E+00 0.  1.
<mgrwt>
<rscale>  0 0.91322013E+02</rscale>
<asrwt>0</asrwt>
<pdfrwt beam="2">  1        3 0.82231445E-01 0.91322013E+02</pdfrwt>
<pdfrwt beam="1">  1       -3 0.60010372E-03 0.91322013E+02</pdfrwt>
<totfact> 0.16947208E+04</totfact>
</mgrwt>
</event>
<event>
 5    1  0.3963873E+001  0.8154376E+02  0.7546771E-02  0.1324727E+00
          3   -1    0    0  501    0  0.00000000000E+00  0.00000000000E+00  0.18326956000E+01  0.18326956000E+01  0.00000000000E+00 0. -1.
         -3   -1    0    0    0  501 -0.00000000000E+00 -0.00000000000E+00 -0.90704984184E+03  0.90704984184E+03  0.00000000000E+00 0.  1.
         23    2    1    2    0    0  0.00000000000E+00  0.00000000000E+00 -0.90521714624E+03  0.90888253744E+03  0.81543761359E+02 0.  0.
          2    1    3    3  502    0 -0.39522146490E+02  0.63265277711E+01 -0.36604161845E+03  0.36822342600E+03  0.00000000000E+00 0. -1.
         -2    1    3    3    0  502  0.39522146490E+02 -0.63265277711E+01 -0.53917552780E+03  0.54065911145E+03  0.00000000000E+00 0.  1.
<mgrwt>
<rscale>  0 0.81543761E+02</rscale>
<asrwt>0</asrwt>
<pdfrwt beam="1">  1        3 0.28195392E-03 0.81543761E+02</pdfrwt>
<pdfrwt beam="2">  1       -3 0.13954576E+00 0.81543761E+02</pdfrwt>
<totfact> 0.14749088E+04</totfact>
</mgrwt>
</event>
<event>
 5    1  0.3963873E+001  0.8926990E+02  0.7546771E-02  0.1304629E+00
          4   -1    0    0  501    0  0.00000000000E+00  0.00000000000E+00  0.18535600960E+03  0.18535600960E+03  0.00000000000E+00 0. -1.
         -4   -1    0    0    0  501 -0.00000000000E+00 -0.00000000000E+00 -0.10748390974E+02  0.10748390974E+02  0.00000000000E+00 0.  1.
         23    2    1    2    0    0  0.00000000000E+00  0.00000000000E+00  0.17460761863E+03  0.19610440058E+03  0.89269902222E+02 0.  0.
          2    1    3    3  502    0 -0.42644919157E+02 -0.10033595064E+02  0.10607506751E+03  0.11476577062E+03  0.00000000000E+00 0. -1.
         -2    1    3    3    0  502  0.42644919157E+02  0.10033595064E+02  0.68532551124E+02  0.81338629958E+02  0.00000000000E+00 0.  1.
<mgrwt>
<rscale>  0 0.89269902E+02</rscale>
<asrwt>0</asrwt>
<pdfrwt beam="1">  1        4 0.28516307E-01 0.89269902E+02</pdfrwt>
<pdfrwt beam="2">  1       -4 0.16535987E-02 0.89269902E+02</pdfrwt>
<totfact> 0.22800956E+04</totfact>
</mgrwt>
</event>
<event>
 5    1  0.3963873E+001  0.9260589E+02  0.7546771E-02  0.1296661E+00
         -2   -1    0    0    0  501 -0.00000000000E+00  0.00000000000E+00  0.11001239248E+02  0.11001239248E+02  0.00000000000E+00 0.  1.
          2   -1    0    0  501    0  0.00000000000E+00 -0.00000000000E+00 -0.19488375828E+03  0.19488375828E+03  0.00000000000E+00 0. -1.
         23    2    1    2    0    0  0.00000000000E+00  0.00000000000E+00 -0.18388251903E+03  0.20588499753E+03  0.92605892907E+02 0.  0.
          2    1    3    3  502    0 -0.23925065279E+02 -0.23309900290E+02 -0.20651781075E+02  0.39271570655E+02  0.00000000000E+00 0.  1.
         -2    1    3    3    0  502  0.23925065279E+02  0.23309900290E+02 -0.16323073796E+03  0.16661342687E+03  0.00000000000E+00 0. -1.
<mgrwt>
<rscale>  0 0.92605893E+02</rscale>
<asrwt>0</asrwt>
<pdfrwt beam="2">  1        2 0.29982116E-01 0.92605893E+02</pdfrwt>
<pdfrwt beam="1">  1       -2 0.16924984E-02 0.92605893E+02</pdfrwt>
<totfact> 0.14694139E+05</totfact>
</mgrwt>
</event>
<event>
 5    1  0.3963873E+001  0.8994199E+02  0.7546771E-02  0.1302992E+00
         -2   -1    0    0    0  501 -0.00000000000E+00  0.00000000000E+00  0.13346162936E+02  0.13346162936E+02  0.00000000000E+00 0. -1.
          2   -1    0    0  501    0  0.00000000000E+00 -0.00000000000E+00 -0.15153346967E+03  0.15153346967E+03  0.00000000000E+00 0.  1.
         23    2    1    2    0    0  0.00000000000E+00  0.00000000000E+00 -0.13818730674E+03  0.16487963261E+03  0.89941989671E+02 0.  0.
          2    1    3    3  502    0 -0.33334618459E+02  0.15055788567E+02 -0.11705557578E+03  0.12263719411E+03  0.00000000000E+00 0.  1.
         -2    1    3    3    0  502  0.33334618459E+02 -0.15055788567E+02 -0.21131730952E+02  0.42242438498E+02  0.00000000000E+00 0. -1.
<mgrwt>
<rscale>  0 0.89941990E+02</rscale>
<asrwt>0</asrwt>
<pdfrwt beam="2">  1        2 0.23312842E-01 0.89941990E+02</pdfrwt>
<pdfrwt beam="1">  1       -2 0.20532558E-02 0.89941990E+02</pdfrwt>
<totfact> 0.14557454E+05</totfact>
</mgrwt>
</event>
<event>
 5    1  0.3963873E+001  0.9122089E+02  0.7546771E-02  0.1299922E+00
          3   -1    0    0  501    0  0.00000000000E+00  0.00000000000E+00  0.12886346508E+02  0.12886346508E+02  0.00000000000E+00 0. -1.
         -3   -1    0    0    0  501 -0.00000000000E+00 -0.00000000000E+00 -0.16143543150E+03  0.16143543150E+03  0.00000000000E+00 0.  1.
         23    2    1    2    0    0  0.00000000000E+00  0.00000000000E+00 -0.14854908499E+03  0.17432177801E+03  0.91220894733E+02 0.  0.
          2    1    3    3  502    0  0.34900234785E-01 -0.44513414726E+02 -0.55273198691E+02  0.70968808656E+02  0.00000000000E+00 0. -1.
         -2    1    3    3    0  502 -0.34900234785E-01  0.44513414726E+02 -0.93275886303E+02  0.10335296935E+03  0.00000000000E+00 0.  1.
<mgrwt>
<rscale>  0 0.91220895E+02</rscale>
<asrwt>0</asrwt>
<pdfrwt beam="1">  1        3 0.19825149E-02 0.91220895E+02</pdfrwt>
<pdfrwt beam="2">  1       -3 0.24836220E-01 0.91220895E+02</pdfrwt>
<totfact> 0.29843088E+04</totfact>
</mgrwt>
</event>
<event>
 5    1  0.3963873E+001  0.9088719E+02  0.7546771E-02  0.1300717E+00
         -2   -1    0    0    0  501 -0.00000000000E+00  0.00000000000E+00  0.82039877049E+02  0.82039877049E+02  0.00000000000E+00 0.  1.
          2   -1    0    0  501    0  0.00000000000E+00 -0.00000000000E+00 -0.25172150983E+02  0.25172150983E+02  0.00000000000E+00 0. -1.
         23    2    1    2    0    0  0.00000000000E+00  0.00000000000E+00  0.56867726066E+02  0.10721202803E+03  0.90887186594E+02 0.  0.
          2    1    3    3  502    0  0.31150404059E+02  0.15127418580E+02 -0.62784196170E+01  0.35193820748E+02  0.00000000000E+00 0. -1.
         -2    1    3    3    0  502 -0.31150404059E+02 -0.15127418580E+02  0.63146145683E+02  0.72018207285E+02  0.00000000000E+00 0.  1.
<mgrwt>
<rscale>  0 0.90887187E+02</rscale>
<asrwt>0</asrwt>
<pdfrwt beam="2">  1        2 0.38726386E-02 0.90887187E+02</pdfrwt>
<pdfrwt beam="1">  1       -2 0.12621519E-01 0.90887187E+02</pdfrwt>
<totfact> 0.85151173E+04</totfact>
</mgrwt>
</event>
<event>
 5    1  0.3963873E+001  0.9092235E+02  0.7546771E-02  0.1300633E+00
         -3   -1    0    0    0  501 -0.00000000000E+00  0.00000000000E+00  0.21162744230E+02  0.21162744230E+02  0.00000000000E+00 0.  1.
          3   -1    0    0  501    0  0.00000000000E+00 -0.00000000000E+00 -0.97658327448E+02  0.97658327448E+02  0.00000000000E+00 0. -1.
         23    2    1    2    0    0  0.00000000000E+00  0.00000000000E+00 -0.76495583219E+02  0.11882107168E+03  0.90922345013E+02 0.  0.
          2    1    3    3  502    0 -0.16303797085E+02 -0.30602095680E+02 -0.76670172417E+02  0.84146404545E+02  0.00000000000E+00 0. -1.
         -2    1    3    3    0  502  0.16303797085E+02  0.30602095680E+02  0.17458919892E+00  0.34674667133E+02  0.00000000000E+00 0.  1.
<mgrwt>
<rscale>  0 0.90922345E+02</rscale>
<asrwt>0</asrwt>
<pdfrwt beam="2">  1        3 0.15024358E-01 0.90922345E+02</pdfrwt>
<pdfrwt beam="1">  1       -3 0.32558068E-02 0.90922345E+02</pdfrwt>
<totfact> 0.33581087E+04</totfact>
</mgrwt>
</event>
<event>
 5    1  0.3963873E+001  0.9076902E+02  0.7546771E-02  0.1301000E+00
         -2   -1    0    0    0  501 -0.00000000000E+00  0.00000000000E+00  0.64625653363E+02  0.64625653363E+02  0.00000000000E+00 0.  1.
          2   -1    0    0  501    0  0.00000000000E+00 -0.00000000000E+00 -0.31872079209E+02  0.31872079209E+02  0.00000000000E+00 0. -1.
         23    2    1    2    0    0  0.00000000000E+00  0.00000000000E+00  0.32753574155E+02  0.96497732572E+02  0.90769024296E+02 0.  0.
          2    1    3    3  502    0 -0.33300572228E+02  0.64942756591E+01  0.48423080782E+02  0.59126123495E+02  0.00000000000E+00 0.  1.
         -2    1    3    3    0  502  0.33300572228E+02 -0.64942756591E+01 -0.15669506628E+02  0.37371609077E+02  0.00000000000E+00 0. -1.
<mgrwt>
<rscale>  0 0.90769024E+02</rscale>
<asrwt>0</asrwt>
<pdfrwt beam="2">  1        2 0.49033968E-02 0.90769024E+02</pdfrwt>
<pdfrwt beam="1">  1       -2 0.99424082E-02 0.90769024E+02</pdfrwt>
<totfact> 0.91096276E+04</totfact>
</mgrwt>
</event>
<event>
 5    1  0.3963873E+001  0.8975911E+02  0.7546771E-02  0.1303436E+00
          1   -1    0    0  501    0  0.00000000000E+00  0.00000000000E+00  0.50675992507E+02  0.50675992507E+02  0.00000000000E+00 0. -1.
         -1   -1    0    0    0  501 -0.00000000000E+00 -0.00000000000E+00 -0.39746127521E+02  0.39746127521E+02  0.00000000000E+00 0.  1.
         23    2    1    2    0    0  0.00000000000E+00  0.00000000000E+00  0.10929864986E+02  0.90422120027E+02  0.89759110076E+02 0.  0.
          2    1    3    3  502    0 -0.54850296873E+00 -0.41181730466E+02  0.23427475918E+02  0.47382300573E+02  0.00000000000E+00 0. -1.
         -2    1    3    3    0  502  0.54850296873E+00  0.41181730466E+02 -0.12497610931E+02  0.43039819455E+02  0.00000000000E+00 0.  1.
<mgrwt>
<rscale>  0 0.89759110E+02</rscale>
<asrwt>0</asrwt>
<pdfrwt beam="1">  1        1 0.77963066E-02 0.89759110E+02</pdfrwt>
<pdfrwt beam="2">  1       -1 0.61147888E-02 0.89759110E+02</pdfrwt>
<totfact> 0.98148810E+04</totfact>
</mgrwt>
</event>
<event>
 5    1  0.3963873E+001  0.9229136E+02  0.7546771E-02  0.1297396E+00
         -1   -1    0    0    0  501 -0.00000000000E+00  0.00000000000E+00  0.66858591175E+01  0.66858591175E+01  0.00000000000E+00 0.  1.
          1   -1    0    0  501    0  0.00000000000E+00 -0.00000000000E+00 -0.31849664153E+03  0.31849664153E+03  0.00000000000E+00 0. -1.
         23    2    1    2    0    0  0.00000000000E+00  0.00000000000E+00 -0.31181078241E+03  0.32518250064E+03  0.92291357659E+02 0.  0.
          2    1    3    3  502    0  0.11558664805E+02 -0.39826606590E+02 -0.84590675092E+02  0.94209042225E+02  0.00000000000E+00 0. -1.
         -2    1    3    3    0  502 -0.11558664805E+02  0.39826606590E+02 -0.22722010732E+03  0.23097345842E+03  0.00000000000E+00 0.  1.
<mgrwt>
<rscale>  0 0.92291358E+02</rscale>
<asrwt>0</asrwt>
<pdfrwt beam="2">  1        1 0.48999476E-01 0.92291358E+02</pdfrwt>
<pdfrwt beam="1">  1       -1 0.10285939E-02 0.92291358E+02</pdfrwt>
<totfact> 0.12544800E+05</totfact>
</mgrwt>
</event>
<event>
 5    1  0.3963873E+001  0.9175195E+02  0.7546771E-02  0.1298664E+00
         -2   -1    0    0    0  501 -0.00000000000E+00  0.00000000000E+00  0.29107112626E+01  0.29107112626E+01  0.00000000000E+00 0.  1.
          2   -1    0    0  501    0  0.00000000000E+00 -0.00000000000E+00 -0.72305530155E+03  0.72305530155E+03  0.00000000000E+00 0. -1.
         23    2    1    2    0    0  0.00000000000E+00  0.00000000000E+00 -0.72014459029E+03  0.72596601281E+03  0.91751952779E+02 0.  0.
          2    1    3    3  502    0  0.41313865294E+02 -0.12371814323E+02 -0.23629955200E+03  0.24020278002E+03  0.00000000000E+00 0. -1.
         -2    1    3    3    0  502 -0.41313865294E+02  0.12371814323E+02 -0.48384503829E+03  0.48576323279E+03  0.00000000000E+00 0.  1.
<mgrwt>
<rscale>  0 0.91751953E+02</rscale>
<asrwt>0</asrwt>
<pdfrwt beam="2">  1        2 0.11123926E+00 0.91751953E+02</pdfrwt>
<pdfrwt beam="1">  1       -2 0.44780180E-03 0.91751953E+02</pdfrwt>
<totfact> 0.23496082E+05</totfact>
</mgrwt>
</event>
<event>
 5    1  0.3963873E+001  0.9117175E+02  0.7546771E-02  0.1300039E+00
          3   -1    0    0  501    0  0.00000000000E+00  0.00000000000E+00  0.85507897976E+03  0.85507897976E+03  0.00000000000E+00 0. -1.
         -3   -1    0    0    0  501 -0.00000000000E+00 -0.00000000000E+00 -0.24302691456E+01  0.24302691456E+01  0.00000000000E+00 0.  1.
         23    2    1    2    0    0  0.00000000000E+00  0.00000000000E+00  0.85264871062E+03  0.85750924891E+03  0.91171751361E+02 0.  0.
          2    1    3    3  502    0  0.26553024053E+02  0.14048999887E+01  0.77458373566E+03  0.77503999922E+03  0.00000000000E+00 0. -1.
         -2    1    3    3    0  502 -0.26553024053E+02 -0.14048999887E+01  0.78064974955E+02  0.82469249693E+02  0.00000000000E+00 0.  1.
<mgrwt>
<rscale>  0 0.91171751E+02</rscale>
<asrwt>0</asrwt>
<pdfrwt beam="1">  1        3 0.13155037E+00 0.91171751E+02</pdfrwt>
<pdfrwt beam="2">  1       -3 0.37388824E-03 0.91171751E+02</pdfrwt>
<totfact> 0.11648983E+04</totfact>
</mgrwt>
</event>
<event>
 5    1  0.3963873E+001  0.9005845E+02  0.7546771E-02  0.1302710E+00
          2   -1    0    0  501    0  0.00000000000E+00  0.00000000000E+00  0.13728031527E+04  0.13728031527E+04  0.00000000000E+00 0. -1.
         -2   -1    0    0    0  501 -0.00000000000E+00 -0.00000000000E+00 -0.14770007269E+01  0.14770007269E+01  0.00000000000E+00 0.  1.
         23    2    1    2    0    0  0.00000000000E+00  0.00000000000E+00  0.13713261520E+04  0.13742801534E+04  0.90058453338E+02 0.  0.
          2    1    3    3  502    0 -0.21212045705E+02  0.25728042093E+02  0.11474470241E+04  0.11479314248E+04  0.00000000000E+00 0. -1.
         -2    1    3    3    0  502  0.21212045705E+02 -0.25728042093E+02  0.22387912787E+03  0.22634872857E+03  0.00000000000E+00 0.  1.
<mgrwt>
<rscale>  0 0.90058453E+02</rscale>
<asrwt>0</asrwt>
<pdfrwt beam="1">  1        2 0.21119946E+00 0.90058453E+02</pdfrwt>
<pdfrwt beam="2">  1       -2 0.22723198E-03 0.90058453E+02</pdfrwt>
<totfact> 0.25070206E+05</totfact>
</mgrwt>
</event>
<event>
 5    1  0.3963873E+001  0.9006738E+02  0.7546771E-02  0.1302689E+00
          3   -1    0    0  501    0  0.00000000000E+00  0.00000000000E+00  0.11595276273E+02  0.11595276273E+02  0.00000000000E+00 0. -1.
         -3   -1    0    0    0  501 -0.00000000000E+00 -0.00000000000E+00 -0.17490165586E+03  0.17490165586E+03  0.00000000000E+00 0.  1.
         23    2    1    2    0    0  0.00000000000E+00  0.00000000000E+00 -0.16330637958E+03  0.18649693213E+03  0.90067375232E+02 0.  0.
          2    1    3    3  502    0  0.28931094864E+02  0.13100918932E+02 -0.15542069340E+02  0.35358142573E+02  0.00000000000E+00 0. -1.
         -2    1    3    3    0  502 -0.28931094864E+02 -0.13100918932E+02 -0.14776431024E+03  0.15113878955E+03  0.00000000000E+00 0.  1.
<mgrwt>
<rscale>  0 0.90067375E+02</rscale>
<asrwt>0</asrwt>
<pdfrwt beam="1">  1        3 0.17838888E-02 0.90067375E+02</pdfrwt>
<pdfrwt beam="2">  1       -3 0.26907945E-01 0.90067375E+02</pdfrwt>
<totfact> 0.30191375E+04</totfact>
</mgrwt>
</event>
<event>
 5    1  0.3963873E+001  0.9151258E+02  0.7546771E-02  0.1299230E+00
         -2   -1    0    0    0  501 -0.00000000000E+00  0.00000000000E+00  0.12649469148E+04  0.12649469148E+04  0.00000000000E+00 0.  1.
          2   -1    0    0  501    0  0.00000000000E+00 -0.00000000000E+00 -0.16551191421E+01  0.16551191421E+01  0.00000000000E+00 0. -1.
         23    2    1    2    0    0  0.00000000000E+00  0.00000000000E+00  0.12632917956E+04  0.12666020339E+04  0.91512575143E+02 0.  0.
          2    1    3    3  502    0 -0.22393216791E+02  0.14978202364E+02  0.11975632364E+03  0.12274925562E+03  0.00000000000E+00 0. -1.
         -2    1    3    3    0  502  0.22393216791E+02 -0.14978202364E+02  0.11435354720E+04  0.11438527783E+04  0.00000000000E+00 0.  1.
<mgrwt>
<rscale>  0 0.91512575E+02</rscale>
<asrwt>0</asrwt>
<pdfrwt beam="2">  1        2 0.25463473E-03 0.91512575E+02</pdfrwt>
<pdfrwt beam="1">  1       -2 0.19460644E+00 0.91512575E+02</pdfrwt>
<totfact> 0.13681222E+04</totfact>
</mgrwt>
</event>
<event>
 5    1  0.3963873E+001  0.9184925E+02  0.7546771E-02  0.1298434E+00
         -2   -1    0    0    0  501 -0.00000000000E+00  0.00000000000E+00  0.44372598830E+03  0.44372598830E+03  0.00000000000E+00 0. -1.
          2   -1    0    0  501    0  0.00000000000E+00 -0.00000000000E+00 -0.47530931983E+01  0.47530931983E+01  0.00000000000E+00 0.  1.
         23    2    1    2    0    0  0.00000000000E+00  0.00000000000E+00  0.43897289510E+03  0.44847908150E+03  0.91849245547E+02 0.  0.
          2    1    3    3  502    0  0.10847443641E+02 -0.23815418799E+02  0.40375729257E+03  0.40460448899E+03  0.00000000000E+00 0. -1.
         -2    1    3    3    0  502 -0.10847443641E+02  0.23815418799E+02  0.35215602526E+02  0.43874592504E+02  0.00000000000E+00 0.  1.
<mgrwt>
<rscale>  0 0.91849246E+02</rscale>
<asrwt>0</asrwt>
<pdfrwt beam="2">  1        2 0.73124545E-03 0.91849246E+02</pdfrwt>
<pdfrwt beam="1">  1       -2 0.68265504E-01 0.91849246E+02</pdfrwt>
<totfact> 0.38956856E+04</totfact>
</mgrwt>
</event>
<event>
 5    1  0.3963873E+001  0.9281225E+02  0.7546771E-02  0.1296181E+00
          1   -1    0    0  501    0  0.00000000000E+00  0.00000000000E+00  0.10669124227E+02  0.10669124227E+02  0.00000000000E+00 0. -1.
         -1   -1    0    0    0  501 -0.00000000000E+00 -0.00000000000E+00 -0.20184678226E+03  0.20184678226E+03  0.00000000000E+00 0.  1.
         23    2    1    2    0    0  0.00000000000E+00  0.00000000000E+00 -0.19117765803E+03  0.21251590649E+03  0.92812249080E+02 0.  0.
          2    1    3    3  502    0 -0.34048439309E+02 -0.67389409411E+01 -0.25058193484E+02  0.42809141606E+02  0.00000000000E+00 0. -1.
         -2    1    3    3    0  502  0.34048439309E+02  0.67389409411E+01 -0.16611946455E+03  0.16970676488E+03  0.00000000000E+00 0.  1.
<mgrwt>
<rscale>  0 0.92812249E+02</rscale>
<asrwt>0</asrwt>
<pdfrwt beam="1">  1        1 0.16414036E-02 0.92812249E+02</pdfrwt>
<pdfrwt beam="2">  1       -1 0.31053353E-01 0.92812249E+02</pdfrwt>
<totfact> 0.66103226E+04</totfact>
</mgrwt>
</event>
<event>
 5    1  0.3963873E+001  0.9298836E+02  0.7546771E-02  0.1295772E+00
          1   -1    0    0  501    0  0.00000000000E+00  0.00000000000E+00  0.71860282964E+02  0.71860282964E+02  0.00000000000E+00 0. -1.
         -1   -1    0    0    0  501 -0.00000000000E+00 -0.00000000000E+00 -0.30082107861E+02  0.30082107861E+02  0.00000000000E+00 0.  1.
         23    2    1    2    0    0  0.00000000000E+00  0.00000000000E+00  0.41778175103E+02  0.10194239083E+03  0.92988360198E+02 0.  0.
          2    1    3    3  502    0  0.23956308657E+02 -0.36280078410E+02  0.28232083969E+01  0.43567411211E+02  0.00000000000E+00 0. -1.
         -2    1    3    3    0  502 -0.23956308657E+02  0.36280078410E+02  0.38954966706E+02  0.58374979615E+02  0.00000000000E+00 0.  1.
<mgrwt>
<rscale>  0 0.92988360E+02</rscale>
<asrwt>0</asrwt>
<pdfrwt beam="1">  1        1 0.11055428E-01 0.92988360E+02</pdfrwt>
<pdfrwt beam="2">  1       -1 0.46280166E-02 0.92988360E+02</pdfrwt>
<totfact> 0.93828952E+04</totfact>
</mgrwt>
</event>
<event>
 5    1  0.3963873E+001  0.9422722E+02  0.7546771E-02  0.1292926E+00
          2   -1    0    0  501    0  0.00000000000E+00  0.00000000000E+00  0.13927334920E+03  0.13927334920E+03  0.00000000000E+00 0. -1.
         -2   -1    0    0    0  501 -0.00000000000E+00 -0.00000000000E+00 -0.15937665739E+02  0.15937665739E+02  0.00000000000E+00 0.  1.
         23    2    1    2    0    0  0.00000000000E+00  0.00000000000E+00  0.12333568346E+03  0.15521101494E+03  0.94227216575E+02 0.  0.
          2    1    3    3  502    0  0.36684931917E+02  0.16287072386E+02  0.21030423266E+02  0.45313702778E+02  0.00000000000E+00 0.  1.
         -2    1    3    3    0  502 -0.36684931917E+02 -0.16287072386E+02  0.10230526019E+03  0.10989731216E+03  0.00000000000E+00 0. -1.
<mgrwt>
<rscale>  0 0.94227217E+02</rscale>
<asrwt>0</asrwt>
<pdfrwt beam="1">  1        2 0.21426668E-01 0.94227217E+02</pdfrwt>
<pdfrwt beam="2">  1       -2 0.24519487E-02 0.94227217E+02</pdfrwt>
<totfact> 0.12464605E+05</totfact>
</mgrwt>
</event>
<event>
 5    1  0.3963873E+001  0.6625313E+02  0.7546771E-02  0.1373319E+00
          1   -1    0    0  501    0  0.00000000000E+00  0.00000000000E+00  0.18368408665E+04  0.18368408665E+04  0.00000000000E+00 0. -1.
         -1   -1    0    0    0  501 -0.00000000000E+00 -0.00000000000E+00 -0.59742217723E+00  0.59742217723E+00  0.00000000000E+00 0.  1.
         23    2    1    2    0    0  0.00000000000E+00  0.00000000000E+00  0.18362434444E+04  0.18374382887E+04  0.66253134861E+02 0.  0.
          2    1    3    3  502    0  0.27864746787E+02  0.15639101427E+02  0.67579941535E+03  0.67655441421E+03  0.00000000000E+00 0.  1.
         -2    1    3    3    0  502 -0.27864746787E+02 -0.15639101427E+02  0.11604440290E+04  0.11608838745E+04  0.00000000000E+00 0. -1.
<mgrwt>
<rscale>  0 0.66253135E+02</rscale>
<asrwt>0</asrwt>
<pdfrwt beam="1">  1        1 0.28258638E+00 0.66253135E+02</pdfrwt>
<pdfrwt beam="2">  1       -1 0.91912575E-04 0.66253135E+02</pdfrwt>
<totfact> 0.20666814E+05</totfact>
</mgrwt>
</event>
<event>
 5    1  0.3963873E+001  0.9168266E+02  0.7546771E-02  0.1298827E+00
          3   -1    0    0  501    0  0.00000000000E+00  0.00000000000E+00  0.95092127645E+03  0.95092127645E+03  0.00000000000E+00 0. -1.
         -3   -1    0    0    0  501 -0.00000000000E+00 -0.00000000000E+00 -0.22098857994E+01  0.22098857994E+01  0.00000000000E+00 0.  1.
         23    2    1    2    0    0  0.00000000000E+00  0.00000000000E+00  0.94871139065E+03  0.95313116225E+03  0.91682657578E+02 0.  0.
          2    1    3    3  502    0  0.32385322269E+02 -0.66930350442E+01  0.14432274013E+03  0.14806302420E+03  0.00000000000E+00 0.  1.
         -2    1    3    3    0  502 -0.32385322269E+02  0.66930350442E+01  0.80438865052E+03  0.80506813805E+03  0.00000000000E+00 0. -1.
<mgrwt>
<rscale>  0 0.91682658E+02</rscale>
<asrwt>0</asrwt>
<pdfrwt beam="1">  1        3 0.14629525E+00 0.91682658E+02</pdfrwt>
<pdfrwt beam="2">  1       -3 0.33998319E-03 0.91682658E+02</pdfrwt>
<totfact> 0.10364934E+04</totfact>
</mgrwt>
</event>
<event>
 5    1  0.3963873E+001  0.9047983E+02  0.7546771E-02  0.1301694E+00
         -2   -1    0    0    0  501 -0.00000000000E+00  0.00000000000E+00  0.11698914761E+01  0.11698914761E+01  0.00000000000E+00 0.  1.
          2   -1    0    0  501    0  0.00000000000E+00 -0.00000000000E+00 -0.17494355546E+04  0.17494355546E+04  0.00000000000E+00 0. -1.
         23    2    1    2    0    0  0.00000000000E+00  0.00000000000E+00 -0.17482656631E+04  0.17506054460E+04  0.90479826331E+02 0.  0.
          2    1    3    3  502    0  0.38396698045E+02 -0.22495549539E+02 -0.71659958202E+03  0.71798002557E+03  0.00000000000E+00 0. -1.
         -2    1    3    3    0  502 -0.38396698045E+02  0.22495549539E+02 -0.10316660811E+04  0.10326254205E+04  0.00000000000E+00 0.  1.
<mgrwt>
<rscale>  0 0.90479826E+02</rscale>
<asrwt>0</asrwt>
<pdfrwt beam="2">  1        2 0.26914398E+00 0.90479826E+02</pdfrwt>
<pdfrwt beam="1">  1       -2 0.17998327E-03 0.90479826E+02</pdfrwt>
<totfact> 0.22290153E+05</totfact>
</mgrwt>
</event>
<event>
 5    1  0.3963873E+001  0.9017770E+02  0.7546771E-02  0.1302422E+00
          2   -1    0    0  501    0  0.00000000000E+00  0.00000000000E+00  0.27138321628E+03  0.27138321628E+03  0.00000000000E+00 0. -1.
         -2   -1    0    0    0  501 -0.00000000000E+00 -0.00000000000E+00 -0.74912671534E+01  0.74912671534E+01  0.00000000000E+00 0.  1.
         23    2    1    2    0    0  0.00000000000E+00  0.00000000000E+00  0.26389194913E+03  0.27887448344E+03  0.90177695117E+02 0.  0.
          2    1    3    3  502    0  0.25198687812E+02 -0.29575719277E+02  0.20268970815E+03  0.20638026753E+03  0.00000000000E+00 0. -1.
         -2    1    3    3    0  502 -0.25198687812E+02  0.29575719277E+02  0.61202240982E+02  0.72494215903E+02  0.00000000000E+00 0.  1.
<mgrwt>
<rscale>  0 0.90177695E+02</rscale>
<asrwt>0</asrwt>
<pdfrwt beam="1">  1        2 0.41751256E-01 0.90177695E+02</pdfrwt>
<pdfrwt beam="2">  1       -2 0.11525029E-02 0.90177695E+02</pdfrwt>
<totfact> 0.17823440E+05</totfact>
</mgrwt>
</event>
<event>
 5    1  0.3963873E+001  0.8744477E+02  0.7546771E-02  0.1309160E+00
          1   -1    0    0  501    0  0.00000000000E+00  0.00000000000E+00  0.22238057338E+02  0.22238057338E+02  0.00000000000E+00 0. -1.
         -1   -1    0    0    0  501 -0.00000000000E+00 -0.00000000000E+00 -0.85962851025E+02  0.85962851025E+02  0.00000000000E+00 0.  1.
         23    2    1    2    0    0  0.00000000000E+00  0.00000000000E+00 -0.63724793687E+02  0.10820090836E+03  0.87444766796E+02 0.  0.
          2    1    3    3  502    0 -0.10146834742E+02 -0.27158683808E+02  0.86334949208E+01  0.30250447865E+02  0.00000000000E+00 0. -1.
         -2    1    3    3    0  502  0.10146834742E+02  0.27158683808E+02 -0.72358288608E+02  0.77950460497E+02  0.00000000000E+00 0.  1.
<mgrwt>
<rscale>  0 0.87444767E+02</rscale>
<asrwt>0</asrwt>
<pdfrwt beam="1">  1        1 0.34212396E-02 0.87444767E+02</pdfrwt>
<pdfrwt beam="2">  1       -1 0.13225054E-01 0.87444767E+02</pdfrwt>
<totfact> 0.93061175E+04</totfact>
</mgrwt>
</event>
<event>
 5    1  0.3963873E+001  0.9416623E+02  0.7546771E-02  0.1293065E+00
          1   -1    0    0  501    0  0.00000000000E+00  0.00000000000E+00  0.53195713892E+03  0.53195713892E+03  0.00000000000E+00 0. -1.
         -1   -1    0    0    0  501 -0.00000000000E+00 -0.00000000000E+00 -0.41672899729E+01  0.41672899729E+01  0.00000000000E+00 0.  1.
         23    2    1    2    0    0  0.00000000000E+00  0.00000000000E+00  0.52778984895E+03  0.53612442889E+03  0.94166228576E+02 0.  0.
          2    1    3    3  502    0  0.30879943559E+02 -0.28636263260E+02  0.38375560657E+03  0.38605954471E+03  0.00000000000E+00 0. -1.
         -2    1    3    3    0  502 -0.30879943559E+02  0.28636263260E+02  0.14403424238E+03  0.15006488418E+03  0.00000000000E+00 0.  1.
<mgrwt>
<rscale>  0 0.94166229E+02</rscale>
<asrwt>0</asrwt>
<pdfrwt beam="1">  1        1 0.81839506E-01 0.94166229E+02</pdfrwt>
<pdfrwt beam="2">  1       -1 0.64112196E-03 0.94166229E+02</pdfrwt>
<totfact> 0.12870887E+05</totfact>
</mgrwt>
</event>
<event>
 5    1  0.3963873E+001  0.9068334E+02  0.7546771E-02  0.1301205E+00
          3   -1    0    0  501    0  0.00000000000E+00  0.00000000000E+00  0.18933950025E+03  0.18933950025E+03  0.00000000000E+00 0. -1.
         -3   -1    0    0    0  501 -0.00000000000E+00 -0.00000000000E+00 -0.10858099225E+02  0.10858099225E+02  0.00000000000E+00 0.  1.
         23    2    1    2    0    0  0.00000000000E+00  0.00000000000E+00  0.17848140103E+03  0.20019759948E+03  0.90683340941E+02 0.  0.
          2    1    3    3  502    0 -0.29493309872E+02 -0.34438518817E+02  0.89211455719E+02  0.10007272724E+03  0.00000000000E+00 0.  1.
         -2    1    3    3    0  502  0.29493309872E+02  0.34438518817E+02  0.89269945309E+02  0.10012487224E+03  0.00000000000E+00 0. -1.
<mgrwt>
<rscale>  0 0.90683341E+02</rscale>
<asrwt>0</asrwt>
<pdfrwt beam="1">  1        3 0.29129151E-01 0.90683341E+02</pdfrwt>
<pdfrwt beam="2">  1       -3 0.16704769E-02 0.90683341E+02</pdfrwt>
<totfact> 0.28908087E+04</totfact>
</mgrwt>
</event>
<event>
 5    1  0.3963873E+001  0.9144717E+02  0.7546771E-02  0.1299385E+00
         -2   -1    0    0    0  501 -0.00000000000E+00  0.00000000000E+00  0.21899092505E+01  0.21899092505E+01  0.00000000000E+00 0.  1.
          2   -1    0    0  501    0  0.00000000000E+00 -0.00000000000E+00 -0.95467253044E+03  0.95467253044E+03  0.00000000000E+00 0. -1.
         23    2    1    2    0    0  0.00000000000E+00  0.00000000000E+00 -0.95248262119E+03  0.95686243969E+03  0.91447169571E+02 0.  0.
          2    1    3    3  502    0  0.18026450722E+01 -0.45296028339E+02 -0.53873115513E+03  0.54063503144E+03  0.00000000000E+00 0. -1.
         -2    1    3    3    0  502 -0.18026450722E+01  0.45296028339E+02 -0.41375146606E+03  0.41622740825E+03  0.00000000000E+00 0.  1.
<mgrwt>
<rscale>  0 0.91447170E+02</rscale>
<asrwt>0</asrwt>
<pdfrwt beam="2">  1        2 0.14687291E+00 0.91447170E+02</pdfrwt>
<pdfrwt beam="1">  1       -2 0.33690863E-03 0.91447170E+02</pdfrwt>
<totfact> 0.24738656E+05</totfact>
</mgrwt>
</event>
<event>
 5    1  0.3963873E+001  0.9208264E+02  0.7546771E-02  0.1297885E+00
          1   -1    0    0  501    0  0.00000000000E+00  0.00000000000E+00  0.73886767585E+03  0.73886767585E+03  0.00000000000E+00 0. -1.
         -1   -1    0    0    0  501 -0.00000000000E+00 -0.00000000000E+00 -0.28689891148E+01  0.28689891148E+01  0.00000000000E+00 0.  1.
         23    2    1    2    0    0  0.00000000000E+00  0.00000000000E+00  0.73599868673E+03  0.74173666496E+03  0.92082643734E+02 0.  0.
          2    1    3    3  502    0 -0.23105962419E+02 -0.14926248323E+02  0.70600141867E+02  0.75769772468E+02  0.00000000000E+00 0.  1.
         -2    1    3    3    0  502  0.23105962419E+02  0.14926248323E+02  0.66539854487E+03  0.66596689250E+03  0.00000000000E+00 0. -1.
<mgrwt>
<rscale>  0 0.92082644E+02</rscale>
<asrwt>0</asrwt>
<pdfrwt beam="1">  1        1 0.11367180E+00 0.92082644E+02</pdfrwt>
<pdfrwt beam="2">  1       -1 0.44138353E-03 0.92082644E+02</pdfrwt>
<totfact> 0.13833048E+05</totfact>
</mgrwt>
</event>
<event>
 5    1  0.3963873E+001  0.9029664E+02  0.7546771E-02  0.1302135E+00
         -2   -1    0    0    0  501 -0.00000000000E+00  0.00000000000E+00  0.29006988699E+01  0.29006988699E+01  0.00000000000E+00 0.  1.
          2   -1    0    0  501    0  0.00000000000E+00 -0.00000000000E+00 -0.70271709509E+03  0.70271709509E+03  0.00000000000E+00 0. -1.
         23    2    1    2    0    0  0.00000000000E+00  0.00000000000E+00 -0.69981639622E+03  0.70561779396E+03  0.90296637448E+02 0.  0.
          2    1    3    3  502    0 -0.34132956671E+02  0.11229112083E+02 -0.13629804184E+03  0.14095498536E+03  0.00000000000E+00 0. -1.
         -2    1    3    3    0  502  0.34132956671E+02 -0.11229112083E+02 -0.56351835438E+03  0.56466280860E+03  0.00000000000E+00 0.  1.
<mgrwt>
<rscale>  0 0.90296637E+02</rscale>
<asrwt>0</asrwt>
<pdfrwt beam="2">  1        2 0.10811040E+00 0.90296637E+02</pdfrwt>
<pdfrwt beam="1">  1       -2 0.44626103E-03 0.90296637E+02</pdfrwt>
<totfact> 0.24350399E+05</totfact>
</mgrwt>
</event>
<event>
 5    1  0.3963873E+001  0.9291703E+02  0.7546771E-02  0.1295938E+00
         -1   -1    0    0    0  501 -0.00000000000E+00  0.00000000000E+00  0.83579734663E+02  0.83579734663E+02  0.00000000000E+00 0.  1.
          1   -1    0    0  501    0  0.00000000000E+00 -0.00000000000E+00 -0.25824362931E+02  0.25824362931E+02  0.00000000000E+00 0. -1.
         23    2    1    2    0    0  0.00000000000E+00  0.00000000000E+00  0.57755371732E+02  0.10940409759E+03  0.92917025386E+02 0.  0.
          2    1    3    3  502    0  0.30061248715E+02  0.70542915204E+01 -0.11994052477E+02  0.33125503739E+02  0.00000000000E+00 0. -1.
         -2    1    3    3    0  502 -0.30061248715E+02 -0.70542915204E+01  0.69749424209E+02  0.76278593856E+02  0.00000000000E+00 0.  1.
<mgrwt>
<rscale>  0 0.92917025E+02</rscale>
<asrwt>0</asrwt>
<pdfrwt beam="2">  1        1 0.39729790E-02 0.92917025E+02</pdfrwt>
<pdfrwt beam="1">  1       -1 0.12858421E-01 0.92917025E+02</pdfrwt>
<totfact> 0.80042190E+04</totfact>
</mgrwt>
</event>
