<event>
 4    1  0.2245608E+006  0.2079856E+02  0.7546771E-02  0.1729899E+00
         21   -1    0    0  503  502  0.00000000000E+00  0.00000000000E+00  0.11767665426E+03  0.11767665426E+03  0.00000000000E+00 0.  1.
         -3   -1    0    0    0  501 -0.00000000000E+00 -0.00000000000E+00 -0.42547268010E+01  0.42547268010E+01  0.00000000000E+00 0. -1.
         21    1    1    2  503  501  0.13003307284E+02  0.16232507540E+02  0.79195478566E+02  0.81881036429E+02  0.00000000000E+00 0.  1.
         -3    1    1    2    0  502 -0.13003307284E+02 -0.16232507540E+02  0.34226448894E+02  0.40050344633E+02  0.00000000000E+00 0. -1.
<mgrwt>
<rscale>  2 0.20798565E+02</rscale>
<asrwt>0</asrwt>
<pdfrwt beam="1">  1       21 0.18104098E-01 0.20798565E+02</pdfrwt>
<pdfrwt beam="2">  1       -3 0.65457344E-03 0.20798565E+02</pdfrwt>
<totfact> 0.38893925E+06</totfact>
</mgrwt>
</event>
<event>
 4    1  0.2245608E+006  0.2500854E+02  0.7546771E-02  0.1660879E+00
         21   -1    0    0  503  502  0.00000000000E+00  0.00000000000E+00  0.31844649183E+01  0.31844649183E+01  0.00000000000E+00 0. -1.
         -1   -1    0    0    0  501 -0.00000000000E+00 -0.00000000000E+00 -0.62037415528E+03  0.62037415528E+03  0.00000000000E+00 0. -1.
         21    1    1    2  503  501  0.24700743360E+02 -0.39115909944E+01 -0.50849756030E+02  0.56666788818E+02  0.00000000000E+00 0. -1.
         -1    1    1    2    0  502 -0.24700743360E+02  0.39115909944E+01 -0.56633993434E+03  0.56689183138E+03  0.00000000000E+00 0. -1.
<mgrwt>
<rscale>  2 0.25008544E+02</rscale>
<asrwt>0</asrwt>
<pdfrwt beam="1">  1       21 0.48991818E-03 0.25008544E+02</pdfrwt>
<pdfrwt beam="2">  1       -1 0.95442079E-01 0.25008544E+02</pdfrwt>
<totfact> 0.90805127E+05</totfact>
</mgrwt>
</event>
<event>
 4    1  0.2245608E+006  0.2698431E+02  0.7546771E-02  0.1634034E+00
         21   -1    0    0  503  502  0.00000000000E+00  0.00000000000E+00  0.40775222011E+02  0.40775222011E+02  0.00000000000E+00 0. -1.
         -1   -1    0    0    0  501 -0.00000000000E+00 -0.00000000000E+00 -0.27185426844E+03  0.27185426844E+03  0.00000000000E+00 0. -1.
         21    1    1    2  503  501 -0.23372894600E+02  0.13485570692E+02  0.35553972680E+02  0.44634491061E+02  0.00000000000E+00 0. -1.
         -1    1    1    2    0  502  0.23372894600E+02 -0.13485570692E+02 -0.26663301911E+03  0.26799499939E+03  0.00000000000E+00 0. -1.
<mgrwt>
<rscale>  2 0.26984307E+02</rscale>
<asrwt>0</asrwt>
<pdfrwt beam="1">  1       21 0.62731112E-02 0.26984307E+02</pdfrwt>
<pdfrwt beam="2">  1       -1 0.41823733E-01 0.26984307E+02</pdfrwt>
<totfact> 0.83172702E+04</totfact>
</mgrwt>
</event>
<event>
 4    1  0.2245608E+006  0.2225919E+02  0.7546771E-02  0.1703808E+00
          1   -1    0    0  502    0 -0.00000000000E+00  0.00000000000E+00  0.16246099575E+04  0.16246099575E+04  0.00000000000E+00 0. -1.
         21   -1    0    0  503  502  0.00000000000E+00 -0.00000000000E+00 -0.20124086447E+01  0.20124086447E+01  0.00000000000E+00 0.  1.
         21    1    1    2  503  501  0.13346162462E+02 -0.17814359019E+02  0.62146498705E+02  0.66012565024E+02  0.00000000000E+00 0.  1.
          1    1    1    2  501    0 -0.13346162462E+02  0.17814359019E+02  0.15604510502E+04  0.15606098011E+04  0.00000000000E+00 0. -1.
<mgrwt>
<rscale>  2 0.22259188E+02</rscale>
<asrwt>0</asrwt>
<pdfrwt beam="2">  1       21 0.30960263E-03 0.22259188E+02</pdfrwt>
<pdfrwt beam="1">  1        1 0.24993895E+00 0.22259188E+02</pdfrwt>
<totfact> 0.12973555E+06</totfact>
</mgrwt>
</event>
<event>
 4    1  0.2245608E+006  0.3378655E+02  0.7546771E-02  0.1559648E+00
         21   -1    0    0  503  502  0.00000000000E+00  0.00000000000E+00  0.65785613539E+02  0.65785613539E+02  0.00000000000E+00 0.  1.
         -2   -1    0    0    0  501 -0.00000000000E+00 -0.00000000000E+00 -0.70043420894E+02  0.70043420894E+02  0.00000000000E+00 0.  1.
         21    1    1    2  503  501  0.27273745793E+02  0.19941758390E+02  0.56775492712E+02  0.66068052112E+02  0.00000000000E+00 0.  1.
         -2    1    1    2    0  502 -0.27273745793E+02 -0.19941758390E+02 -0.61033300067E+02  0.69760982321E+02  0.00000000000E+00 0.  1.
<mgrwt>
<rscale>  2 0.33786550E+02</rscale>
<asrwt>0</asrwt>
<pdfrwt beam="1">  1       21 0.10120864E-01 0.33786550E+02</pdfrwt>
<pdfrwt beam="2">  1       -2 0.10775911E-01 0.33786550E+02</pdfrwt>
<totfact> 0.30471371E+05</totfact>
</mgrwt>
</event>
<event>
 4    1  0.2245608E+006  0.2215131E+02  0.7546771E-02  0.1705648E+00
          2   -1    0    0  502    0 -0.00000000000E+00  0.00000000000E+00  0.14503437476E+02  0.14503437476E+02  0.00000000000E+00 0.  1.
         21   -1    0    0  503  502  0.00000000000E+00 -0.00000000000E+00 -0.49926750197E+02  0.49926750197E+02  0.00000000000E+00 0.  1.
         21    1    1    2  503  501 -0.21688702454E+02  0.45034106211E+01 -0.36002538988E+02  0.42271306284E+02  0.00000000000E+00 0.  1.
          2    1    1    2  501    0  0.21688702454E+02 -0.45034106211E+01  0.57922626784E+00  0.22158881389E+02  0.00000000000E+00 0.  1.
<mgrwt>
<rscale>  2 0.22151310E+02</rscale>
<asrwt>0</asrwt>
<pdfrwt beam="2">  1       21 0.76810383E-02 0.22151310E+02</pdfrwt>
<pdfrwt beam="1">  1        2 0.22312981E-02 0.22151310E+02</pdfrwt>
<totfact> 0.46918923E+06</totfact>
</mgrwt>
</event>
<event>
 4    1  0.2245608E+006  0.2339393E+02  0.7546771E-02  0.1685203E+00
          1   -1    0    0  503    0 -0.00000000000E+00  0.00000000000E+00  0.12780671911E+04  0.12780671911E+04  0.00000000000E+00 0.  1.
         21   -1    0    0  501  502  0.00000000000E+00 -0.00000000000E+00 -0.58069874119E+00  0.58069874119E+00  0.00000000000E+00 0. -1.
         21    1    1    2  503  502  0.23331238899E+02 -0.17114379925E+01  0.31112320502E+03  0.31200148145E+03  0.00000000000E+00 0. -1.
          1    1    1    2  501    0 -0.23331238899E+02  0.17114379925E+01  0.96636328731E+03  0.96664640836E+03  0.00000000000E+00 0.  1.
<mgrwt>
<rscale>  2 0.23393925E+02</rscale>
<asrwt>0</asrwt>
<pdfrwt beam="2">  1       21 0.89339291E-04 0.23393925E+02</pdfrwt>
<pdfrwt beam="1">  1        1 0.19662347E+00 0.23393925E+02</pdfrwt>
<totfact> 0.12657743E+07</totfact>
</mgrwt>
</event>
<event>
 4    1  0.2245608E+006  0.5171719E+02  0.7546771E-02  0.1436294E+00
          2   -1    0    0  502    0 -0.00000000000E+00  0.00000000000E+00  0.23314509087E+02  0.23314509087E+02  0.00000000000E+00 0. -1.
         21   -1    0    0  503  502  0.00000000000E+00 -0.00000000000E+00 -0.36288851260E+03  0.36288851260E+03  0.00000000000E+00 0. -1.
         21    1    1    2  503  501  0.38895124316E+02 -0.34085732987E+02 -0.32947466719E+03  0.33350895672E+03  0.00000000000E+00 0. -1.
          2    1    1    2  501    0 -0.38895124316E+02  0.34085732987E+02 -0.10099336318E+02  0.52694064968E+02  0.00000000000E+00 0. -1.
<mgrwt>
<rscale>  2 0.51717191E+02</rscale>
<asrwt>0</asrwt>
<pdfrwt beam="2">  1       21 0.55828998E-01 0.51717191E+02</pdfrwt>
<pdfrwt beam="1">  1        2 0.35868478E-02 0.51717191E+02</pdfrwt>
<totfact> 0.83606577E+04</totfact>
</mgrwt>
</event>
<event>
 4    1  0.2245608E+006  0.2208859E+02  0.7546771E-02  0.1706724E+00
         21   -1    0    0  501  502  0.00000000000E+00  0.00000000000E+00  0.15551627810E+02  0.15551627810E+02  0.00000000000E+00 0. -1.
          1   -1    0    0  503    0 -0.00000000000E+00 -0.00000000000E+00 -0.10062484503E+04  0.10062484503E+04  0.00000000000E+00 0.  1.
         21    1    1    2  503  502  0.96304695692E+01 -0.19878630559E+02  0.75240158972E+01  0.23334881878E+02  0.00000000000E+00 0. -1.
          1    1    1    2  501    0 -0.96304695692E+01  0.19878630559E+02 -0.99822083834E+03  0.99846519619E+03  0.00000000000E+00 0.  1.
<mgrwt>
<rscale>  2 0.22088592E+02</rscale>
<asrwt>0</asrwt>
<pdfrwt beam="1">  1       21 0.23925580E-02 0.22088592E+02</pdfrwt>
<pdfrwt beam="2">  1        1 0.15480746E+00 0.22088592E+02</pdfrwt>
<totfact> 0.14673017E+05</totfact>
</mgrwt>
</event>
<event>
 4    1  0.2245608E+006  0.4314854E+02  0.7546771E-02  0.1486242E+00
         21   -1    0    0  501  502  0.00000000000E+00  0.00000000000E+00  0.42944975851E+02  0.42944975851E+02  0.00000000000E+00 0.  1.
          2   -1    0    0  503    0 -0.00000000000E+00 -0.00000000000E+00 -0.15485258833E+04  0.15485258833E+04  0.00000000000E+00 0.  1.
         21    1    1    2  503  502  0.42968671258E+02  0.39356535608E+01  0.31727063018E+02  0.53557470127E+02  0.00000000000E+00 0.  1.
          2    1    1    2  501    0 -0.42968671258E+02 -0.39356535608E+01 -0.15373079705E+04  0.15379133890E+04  0.00000000000E+00 0.  1.
<mgrwt>
<rscale>  2 0.43148535E+02</rscale>
<asrwt>0</asrwt>
<pdfrwt beam="1">  1       21 0.66069195E-02 0.43148535E+02</pdfrwt>
<pdfrwt beam="2">  1        2 0.23823474E+00 0.43148535E+02</pdfrwt>
<totfact> 0.28884452E+04</totfact>
</mgrwt>
</event>
<event>
 4    1  0.2245608E+006  0.2611671E+02  0.7546771E-02  0.1645461E+00
         21   -1    0    0  501  502  0.00000000000E+00  0.00000000000E+00  0.37293028800E+02  0.37293028800E+02  0.00000000000E+00 0. -1.
          2   -1    0    0  503    0 -0.00000000000E+00 -0.00000000000E+00 -0.38181301040E+03  0.38181301040E+03  0.00000000000E+00 0.  1.
         21    1    1    2  503  502 -0.25725780770E+02 -0.45018872112E+01  0.32212375207E+02  0.41469505678E+02  0.00000000000E+00 0. -1.
          2    1    1    2  501    0  0.25725780770E+02  0.45018872112E+01 -0.37673235680E+03  0.37763653352E+03  0.00000000000E+00 0.  1.
<mgrwt>
<rscale>  2 0.26116715E+02</rscale>
<asrwt>0</asrwt>
<pdfrwt beam="1">  1       21 0.57373889E-02 0.26116715E+02</pdfrwt>
<pdfrwt beam="2">  1        2 0.58740465E-01 0.26116715E+02</pdfrwt>
<totfact> 0.19334896E+05</totfact>
</mgrwt>
</event>
<event>
 4    1  0.2245608E+006  0.2006030E+02  0.7546771E-02  0.1744132E+00
         21   -1    0    0  503  502  0.00000000000E+00  0.00000000000E+00  0.62805980145E+01  0.62805980145E+01  0.00000000000E+00 0.  1.
          2   -1    0    0  502    0 -0.00000000000E+00 -0.00000000000E+00 -0.12054080498E+04  0.12054080498E+04  0.00000000000E+00 0. -1.
         21    1    1    2  503  501 -0.20059694380E+02 -0.15532304076E+00 -0.10040912568E+02  0.22432908617E+02  0.00000000000E+00 0.  1.
          2    1    1    2  501    0  0.20059694380E+02  0.15532304076E+00 -0.11890865392E+04  0.11892557392E+04  0.00000000000E+00 0. -1.
<mgrwt>
<rscale>  2 0.20060296E+02</rscale>
<asrwt>0</asrwt>
<pdfrwt beam="1">  1       21 0.96624738E-03 0.20060296E+02</pdfrwt>
<pdfrwt beam="2">  1        2 0.18544710E+00 0.20060296E+02</pdfrwt>
<totfact> 0.81527534E+05</totfact>
</mgrwt>
</event>
<event>
 4    1  0.2245608E+006  0.2397834E+02  0.7546771E-02  0.1676125E+00
          1   -1    0    0  503    0 -0.00000000000E+00  0.00000000000E+00  0.15095735158E+04  0.15095735158E+04  0.00000000000E+00 0.  1.
         21   -1    0    0  501  502  0.00000000000E+00 -0.00000000000E+00 -0.10782990983E+01  0.10782990983E+01  0.00000000000E+00 0.  1.
         21    1    1    2  503  502 -0.23288933714E+02  0.57084272924E+01  0.14679434250E+03  0.14873983853E+03  0.00000000000E+00 0.  1.
          1    1    1    2  501    0  0.23288933714E+02 -0.57084272924E+01  0.13617008742E+04  0.13619119764E+04  0.00000000000E+00 0.  1.
<mgrwt>
<rscale>  2 0.23978336E+02</rscale>
<asrwt>0</asrwt>
<pdfrwt beam="2">  1       21 0.16589338E-03 0.23978336E+02</pdfrwt>
<pdfrwt beam="1">  1        1 0.23224039E+00 0.23978336E+02</pdfrwt>
<totfact> 0.37984221E+06</totfact>
</mgrwt>
</event>
<event>
 4    1  0.2245608E+006  0.2035473E+02  0.7546771E-02  0.1738364E+00
         21   -1    0    0  501  502  0.00000000000E+00  0.00000000000E+00  0.52247022966E+02  0.52247022966E+02  0.00000000000E+00 0. -1.
         -2   -1    0    0    0  501 -0.00000000000E+00 -0.00000000000E+00 -0.92259481172E+02  0.92259481172E+02  0.00000000000E+00 0. -1.
         21    1    1    2  503  502  0.16347495811E+00  0.20354078314E+02  0.49072094564E+02  0.53126130039E+02  0.00000000000E+00 0. -1.
         -2    1    1    2    0  503 -0.16347495811E+00 -0.20354078314E+02 -0.89084552770E+02  0.91380374098E+02  0.00000000000E+00 0. -1.
<mgrwt>
<rscale>  2 0.20354735E+02</rscale>
<asrwt>0</asrwt>
<pdfrwt beam="1">  1       21 0.80380036E-02 0.20354735E+02</pdfrwt>
<pdfrwt beam="2">  1       -2 0.14193766E-01 0.20354735E+02</pdfrwt>
<totfact> 0.26808983E+05</totfact>
</mgrwt>
</event>
<event>
 4    1  0.2245608E+006  0.2922309E+02  0.7546771E-02  0.1606839E+00
          1   -1    0    0  502    0 -0.00000000000E+00  0.00000000000E+00  0.10518309234E+04  0.10518309234E+04  0.00000000000E+00 0. -1.
         21   -1    0    0  503  502  0.00000000000E+00 -0.00000000000E+00 -0.55681326151E+02  0.55681326151E+02  0.00000000000E+00 0. -1.
         21    1    1    2  503  501  0.20826528707E+02 -0.20499869163E+02 -0.51629254102E+02  0.59325953956E+02  0.00000000000E+00 0. -1.
          1    1    1    2  501    0 -0.20826528707E+02  0.20499869163E+02  0.10477788514E+04  0.10481862956E+04  0.00000000000E+00 0. -1.
<mgrwt>
<rscale>  2 0.29223089E+02</rscale>
<asrwt>0</asrwt>
<pdfrwt beam="2">  1       21 0.85663586E-02 0.29223089E+02</pdfrwt>
<pdfrwt beam="1">  1        1 0.16182013E+00 0.29223089E+02</pdfrwt>
<totfact> 0.18208595E+04</totfact>
</mgrwt>
</event>
<event>
 4    1  0.2245608E+006  0.2298494E+02  0.7546771E-02  0.1691754E+00
         21   -1    0    0  501  502  0.00000000000E+00  0.00000000000E+00  0.16578847124E+03  0.16578847124E+03  0.00000000000E+00 0.  1.
         -2   -1    0    0    0  501 -0.00000000000E+00 -0.00000000000E+00 -0.14711344362E+02  0.14711344362E+02  0.00000000000E+00 0.  1.
         21    1    1    2  503  502 -0.41675529293E+01  0.22603958943E+02  0.15541810511E+03  0.15710854481E+03  0.00000000000E+00 0.  1.
         -2    1    1    2    0  503  0.41675529293E+01 -0.22603958943E+02 -0.43409782293E+01  0.23391270793E+02  0.00000000000E+00 0.  1.
<mgrwt>
<rscale>  2 0.22984940E+02</rscale>
<asrwt>0</asrwt>
<pdfrwt beam="1">  1       21 0.25505917E-01 0.22984940E+02</pdfrwt>
<pdfrwt beam="2">  1       -2 0.22632839E-02 0.22984940E+02</pdfrwt>
<totfact> 0.54123611E+05</totfact>
</mgrwt>
</event>
<event>
 4    1  0.2245608E+006  0.2015065E+02  0.7546771E-02  0.1742349E+00
         21   -1    0    0  501  502  0.00000000000E+00  0.00000000000E+00  0.15315964078E+01  0.15315964078E+01  0.00000000000E+00 0. -1.
         -2   -1    0    0    0  501 -0.00000000000E+00 -0.00000000000E+00 -0.31795252074E+03  0.31795252074E+03  0.00000000000E+00 0.  1.
         21    1    1    2  503  502 -0.17978736711E+02  0.91002108601E+01 -0.93091068261E+02  0.95247025158E+02  0.00000000000E+00 0. -1.
         -2    1    1    2    0  503  0.17978736711E+02 -0.91002108601E+01 -0.22332985607E+03  0.22423709199E+03  0.00000000000E+00 0.  1.
<mgrwt>
<rscale>  2 0.20150653E+02</rscale>
<asrwt>0</asrwt>
<pdfrwt beam="1">  1       21 0.23562998E-03 0.20150653E+02</pdfrwt>
<pdfrwt beam="2">  1       -2 0.48915822E-01 0.20150653E+02</pdfrwt>
<totfact> 0.70204807E+06</totfact>
</mgrwt>
</event>
<event>
 4    1  0.2245608E+006  0.2648609E+02  0.7546771E-02  0.1640530E+00
          4   -1    0    0  502    0 -0.00000000000E+00  0.00000000000E+00  0.23498420855E+03  0.23498420855E+03  0.00000000000E+00 0. -1.
         21   -1    0    0  503  502  0.00000000000E+00 -0.00000000000E+00 -0.34845096211E+03  0.34845096211E+03  0.00000000000E+00 0.  1.
         21    1    1    2  503  501 -0.15088954365E+02 -0.21767789435E+02 -0.34719862478E+03  0.34820740694E+03  0.00000000000E+00 0.  1.
          4    1    1    2  501    0  0.15088954365E+02  0.21767789435E+02  0.23373187122E+03  0.23522776372E+03  0.00000000000E+00 0. -1.
<mgrwt>
<rscale>  2 0.26486094E+02</rscale>
<asrwt>0</asrwt>
<pdfrwt beam="2">  1       21 0.53607840E-01 0.26486094E+02</pdfrwt>
<pdfrwt beam="1">  1        4 0.36151417E-01 0.26486094E+02</pdfrwt>
<totfact> 0.91694069E+02</totfact>
</mgrwt>
</event>
<event>
 4    1  0.2245608E+006  0.2342589E+02  0.7546771E-02  0.1684698E+00
         21   -1    0    0  503  502  0.00000000000E+00  0.00000000000E+00  0.70582162852E+01  0.70582162852E+01  0.00000000000E+00 0. -1.
         -2   -1    0    0    0  501 -0.00000000000E+00 -0.00000000000E+00 -0.99748416188E+03  0.99748416188E+03  0.00000000000E+00 0.  1.
         21    1    1    2  503  501  0.72807704199E+01  0.22265730037E+02 -0.12913758526E+02  0.26749532916E+02  0.00000000000E+00 0. -1.
         -2    1    1    2    0  502 -0.72807704199E+01 -0.22265730037E+02 -0.97751218707E+03  0.97779284525E+03  0.00000000000E+00 0.  1.
<mgrwt>
<rscale>  2 0.23425891E+02</rscale>
<asrwt>0</asrwt>
<pdfrwt beam="1">  1       21 0.10858800E-02 0.23425891E+02</pdfrwt>
<pdfrwt beam="2">  1       -2 0.15345902E+00 0.23425891E+02</pdfrwt>
<totfact> 0.65605256E+04</totfact>
</mgrwt>
</event>
<event>
 4    1  0.2245608E+006  0.4237864E+02  0.7546771E-02  0.1491403E+00
         21   -1    0    0  501  502  0.00000000000E+00  0.00000000000E+00  0.55102277091E+02  0.55102277091E+02  0.00000000000E+00 0. -1.
         -2   -1    0    0    0  501 -0.00000000000E+00 -0.00000000000E+00 -0.13030809009E+03  0.13030809009E+03  0.00000000000E+00 0.  1.
         21    1    1    2  503  502  0.39155557731E+02 -0.16210836099E+02  0.42675571704E+02  0.60142774533E+02  0.00000000000E+00 0. -1.
         -2    1    1    2    0  503 -0.39155557731E+02  0.16210836099E+02 -0.11788138471E+03  0.12526759265E+03  0.00000000000E+00 0.  1.
<mgrwt>
<rscale>  2 0.42378637E+02</rscale>
<asrwt>0</asrwt>
<pdfrwt beam="1">  1       21 0.84772734E-02 0.42378637E+02</pdfrwt>
<pdfrwt beam="2">  1       -2 0.20047399E-01 0.42378637E+02</pdfrwt>
<totfact> 0.15902749E+05</totfact>
</mgrwt>
</event>
<event>
 4    1  0.2245608E+006  0.4373833E+02  0.7546771E-02  0.1482375E+00
          1   -1    0    0  503    0 -0.00000000000E+00  0.00000000000E+00  0.84123162335E+01  0.84123162335E+01  0.00000000000E+00 0. -1.
         21   -1    0    0  501  502  0.00000000000E+00 -0.00000000000E+00 -0.22757077811E+03  0.22757077811E+03  0.00000000000E+00 0. -1.
         21    1    1    2  503  502 -0.12611358298E+02  0.41880727927E+02 -0.11271904566E+03  0.12090750590E+03  0.00000000000E+00 0. -1.
          1    1    1    2  501    0  0.12611358298E+02 -0.41880727927E+02 -0.10643941622E+03  0.11507558844E+03  0.00000000000E+00 0. -1.
<mgrwt>
<rscale>  2 0.43738332E+02</rscale>
<asrwt>0</asrwt>
<pdfrwt beam="2">  1       21 0.35010886E-01 0.43738332E+02</pdfrwt>
<pdfrwt beam="1">  1        1 0.12942026E-02 0.43738332E+02</pdfrwt>
<totfact> 0.76593265E+05</totfact>
</mgrwt>
</event>
<event>
 4    1  0.2245608E+006  0.4187906E+02  0.7546771E-02  0.1494822E+00
         21   -1    0    0  501  502  0.00000000000E+00  0.00000000000E+00  0.62090191535E+00  0.62090191535E+00  0.00000000000E+00 0. -1.
          1   -1    0    0  503    0 -0.00000000000E+00 -0.00000000000E+00 -0.33566535001E+04  0.33566535001E+04  0.00000000000E+00 0. -1.
         21    1    1    2  503  502 -0.15805711573E+02 -0.38781895986E+02 -0.10097583284E+04  0.10106264086E+04  0.00000000000E+00 0. -1.
          1    1    1    2  501    0  0.15805711573E+02  0.38781895986E+02 -0.23462742698E+04  0.23466479934E+04  0.00000000000E+00 0. -1.
<mgrwt>
<rscale>  2 0.41879064E+02</rscale>
<asrwt>0</asrwt>
<pdfrwt beam="1">  1       21 0.95521024E-04 0.41879064E+02</pdfrwt>
<pdfrwt beam="2">  1        1 0.51642092E+00 0.41879064E+02</pdfrwt>
<totfact> 0.62966138E+05</totfact>
</mgrwt>
</event>
<event>
 4    1  0.2245608E+006  0.2047587E+02  0.7546771E-02  0.1736027E+00
         -1   -1    0    0    0  501 -0.00000000000E+00  0.00000000000E+00  0.16867951501E+03  0.16867951501E+03  0.00000000000E+00 0.  1.
         21   -1    0    0  503  502  0.00000000000E+00 -0.00000000000E+00 -0.48123267675E+01  0.48123267675E+01  0.00000000000E+00 0.  1.
         21    1    1    2  503  501  0.49113970046E+01 -0.19878113735E+02  0.21615314621E+02  0.29773865257E+02  0.00000000000E+00 0.  1.
         -1    1    1    2    0  502 -0.49113970046E+01  0.19878113735E+02  0.14225187362E+03  0.14371797652E+03  0.00000000000E+00 0.  1.
<mgrwt>
<rscale>  2 0.20475869E+02</rscale>
<asrwt>0</asrwt>
<pdfrwt beam="2">  1       21 0.74035809E-03 0.20475869E+02</pdfrwt>
<pdfrwt beam="1">  1       -1 0.25950690E-01 0.20475869E+02</pdfrwt>
<totfact> 0.45874391E+06</totfact>
</mgrwt>
</event>
<event>
 4    1  0.2245608E+006  0.3580640E+02  0.7546771E-02  0.1541554E+00
          1   -1    0    0  503    0 -0.00000000000E+00  0.00000000000E+00  0.13727265645E+03  0.13727265645E+03  0.00000000000E+00 0.  1.
         21   -1    0    0  501  502  0.00000000000E+00 -0.00000000000E+00 -0.19899961440E+02  0.19899961440E+02  0.00000000000E+00 0.  1.
         21    1    1    2  503  502  0.21795097063E+02  0.28409008161E+02  0.14388870526E+01  0.35835295404E+02  0.00000000000E+00 0.  1.
          1    1    1    2  501    0 -0.21795097063E+02 -0.28409008161E+02  0.11593380796E+03  0.12133732249E+03  0.00000000000E+00 0.  1.
<mgrwt>
<rscale>  2 0.35806396E+02</rscale>
<asrwt>0</asrwt>
<pdfrwt beam="2">  1       21 0.30615326E-02 0.35806396E+02</pdfrwt>
<pdfrwt beam="1">  1        1 0.21118870E-01 0.35806396E+02</pdfrwt>
<totfact> 0.12640292E+06</totfact>
</mgrwt>
</event>
<event>
 4    1  0.2245608E+006  0.2930241E+02  0.7546771E-02  0.1605930E+00
         21   -1    0    0  501  502  0.00000000000E+00  0.00000000000E+00  0.66821200466E+03  0.66821200466E+03  0.00000000000E+00 0. -1.
         -3   -1    0    0    0  501 -0.00000000000E+00 -0.00000000000E+00 -0.15316870077E+01  0.15316870077E+01  0.00000000000E+00 0. -1.
         21    1    1    2  503  502  0.27626286044E+02 -0.97682903474E+01  0.46773876056E+03  0.46865571511E+03  0.00000000000E+00 0. -1.
         -3    1    1    2    0  503 -0.27626286044E+02  0.97682903474E+01  0.19894155709E+03  0.20108797655E+03  0.00000000000E+00 0. -1.
<mgrwt>
<rscale>  2 0.29302409E+02</rscale>
<asrwt>0</asrwt>
<pdfrwt beam="1">  1       21 0.10280161E+00 0.29302409E+02</pdfrwt>
<pdfrwt beam="2">  1       -3 0.23564469E-03 0.29302409E+02</pdfrwt>
<totfact> 0.64067227E+05</totfact>
</mgrwt>
</event>
<event>
 4    1  0.2245608E+006  0.3153271E+02  0.7546771E-02  0.1581739E+00
         21   -1    0    0  501  502  0.00000000000E+00  0.00000000000E+00  0.35100401687E+01  0.35100401687E+01  0.00000000000E+00 0.  1.
          2   -1    0    0  503    0 -0.00000000000E+00 -0.00000000000E+00 -0.46633811882E+03  0.46633811882E+03  0.00000000000E+00 0.  1.
         21    1    1    2  503  502 -0.23501024134E+02  0.21024114412E+02 -0.84224871306E+02  0.89934089581E+02  0.00000000000E+00 0.  1.
          2    1    1    2  501    0  0.23501024134E+02 -0.21024114412E+02 -0.37860320734E+03  0.37991406940E+03  0.00000000000E+00 0.  1.
<mgrwt>
<rscale>  2 0.31532706E+02</rscale>
<asrwt>0</asrwt>
<pdfrwt beam="1">  1       21 0.54000622E-03 0.31532706E+02</pdfrwt>
<pdfrwt beam="2">  1        2 0.71744321E-01 0.31532706E+02</pdfrwt>
<totfact> 0.62758379E+06</totfact>
</mgrwt>
</event>
<event>
 4    1  0.2245608E+006  0.2048420E+02  0.7546771E-02  0.1735867E+00
          1   -1    0    0  503    0 -0.00000000000E+00  0.00000000000E+00  0.58220926659E+03  0.58220926659E+03  0.00000000000E+00 0.  1.
         21   -1    0    0  501  502  0.00000000000E+00 -0.00000000000E+00 -0.31194367978E+02  0.31194367978E+02  0.00000000000E+00 0.  1.
         21    1    1    2  503  502  0.25461484908E+01  0.20325340284E+02 -0.27630682110E+02  0.34395594539E+02  0.00000000000E+00 0.  1.
          1    1    1    2  501    0 -0.25461484908E+01 -0.20325340284E+02  0.57864558072E+03  0.57900804003E+03  0.00000000000E+00 0.  1.
<mgrwt>
<rscale>  2 0.20484197E+02</rscale>
<asrwt>0</asrwt>
<pdfrwt beam="2">  1       21 0.47991339E-02 0.20484197E+02</pdfrwt>
<pdfrwt beam="1">  1        1 0.89570649E-01 0.20484197E+02</pdfrwt>
<totfact> 0.10372180E+05</totfact>
</mgrwt>
</event>
<event>
 4    1  0.2245608E+006  0.2411032E+02  0.7546771E-02  0.1674120E+00
          1   -1    0    0  502    0 -0.00000000000E+00  0.00000000000E+00  0.56440499799E+03  0.56440499799E+03  0.00000000000E+00 0.  1.
         21   -1    0    0  503  502  0.00000000000E+00 -0.00000000000E+00 -0.13557847477E+01  0.13557847477E+01  0.00000000000E+00 0.  1.
         21    1    1    2  503  501  0.14875242789E+02  0.18974584220E+02  0.14284658838E+03  0.14486702698E+03  0.00000000000E+00 0.  1.
          1    1    1    2  501    0 -0.14875242789E+02 -0.18974584220E+02  0.42020262486E+03  0.42089375575E+03  0.00000000000E+00 0.  1.
<mgrwt>
<rscale>  2 0.24110323E+02</rscale>
<asrwt>0</asrwt>
<pdfrwt beam="2">  1       21 0.20858272E-03 0.24110323E+02</pdfrwt>
<pdfrwt beam="1">  1        1 0.86831350E-01 0.24110323E+02</pdfrwt>
<totfact> 0.12460372E+07</totfact>
</mgrwt>
</event>
<event>
 4    1  0.2245608E+006  0.2176257E+02  0.7546771E-02  0.1712391E+00
         21   -1    0    0  501  502  0.00000000000E+00  0.00000000000E+00  0.57568506190E+01  0.57568506190E+01  0.00000000000E+00 0. -1.
          1   -1    0    0  503    0 -0.00000000000E+00 -0.00000000000E+00 -0.98076594634E+02  0.98076594634E+02  0.00000000000E+00 0. -1.
         21    1    1    2  503  502  0.21100000395E+02 -0.53291194532E+01 -0.25316911083E+02  0.33384959452E+02  0.00000000000E+00 0. -1.
          1    1    1    2  501    0 -0.21100000395E+02  0.53291194532E+01 -0.67002832932E+02  0.70448485801E+02  0.00000000000E+00 0. -1.
<mgrwt>
<rscale>  2 0.21762572E+02</rscale>
<asrwt>0</asrwt>
<pdfrwt beam="1">  1       21 0.88566939E-03 0.21762572E+02</pdfrwt>
<pdfrwt beam="2">  1        1 0.15088706E-01 0.21762572E+02</pdfrwt>
<totfact> 0.11316753E+07</totfact>
</mgrwt>
</event>
<event>
 4    1  0.2245608E+006  0.2571856E+02  0.7546771E-02  0.1650890E+00
         21   -1    0    0  503  502  0.00000000000E+00  0.00000000000E+00  0.10327072346E+04  0.10327072346E+04  0.00000000000E+00 0.  1.
         -2   -1    0    0    0  501 -0.00000000000E+00 -0.00000000000E+00 -0.67864655179E+00  0.67864655179E+00  0.00000000000E+00 0.  1.
         21    1    1    2  503  501  0.20675613902E+02 -0.15295853370E+02  0.63852246135E+03  0.63904020045E+03  0.00000000000E+00 0.  1.
         -2    1    1    2    0  502 -0.20675613902E+02  0.15295853370E+02  0.39350612673E+03  0.39434568074E+03  0.00000000000E+00 0.  1.
<mgrwt>
<rscale>  2 0.25718556E+02</rscale>
<asrwt>0</asrwt>
<pdfrwt beam="1">  1       21 0.15887678E+00 0.25718556E+02</pdfrwt>
<pdfrwt beam="2">  1       -2 0.10440799E-03 0.25718556E+02</pdfrwt>
<totfact> 0.81424752E+05</totfact>
</mgrwt>
</event>
<event>
 4    1  0.2245608E+006  0.2032469E+02  0.7546771E-02  0.1738947E+00
         21   -1    0    0  503  502  0.00000000000E+00  0.00000000000E+00  0.71470670482E+02  0.71470670482E+02  0.00000000000E+00 0.  1.
          2   -1    0    0  502    0 -0.00000000000E+00 -0.00000000000E+00 -0.11059234116E+04  0.11059234116E+04  0.00000000000E+00 0.  1.
         21    1    1    2  503  501 -0.53817743035E+01 -0.19599226315E+02  0.69930298839E+02  0.72824033550E+02  0.00000000000E+00 0.  1.
          2    1    1    2  501    0  0.53817743035E+01  0.19599226315E+02 -0.11043830400E+04  0.11045700485E+04  0.00000000000E+00 0.  1.
<mgrwt>
<rscale>  2 0.20324694E+02</rscale>
<asrwt>0</asrwt>
<pdfrwt beam="1">  1       21 0.10995488E-01 0.20324694E+02</pdfrwt>
<pdfrwt beam="2">  1        2 0.17014205E+00 0.20324694E+02</pdfrwt>
<totfact> 0.20583231E+04</totfact>
</mgrwt>
</event>
<event>
 4    1  0.2245608E+006  0.5032090E+02  0.7546771E-02  0.1443618E+00
          1   -1    0    0  502    0 -0.00000000000E+00  0.00000000000E+00  0.11244596528E+04  0.11244596528E+04  0.00000000000E+00 0.  1.
         21   -1    0    0  503  502  0.00000000000E+00 -0.00000000000E+00 -0.26193104659E+01  0.26193104659E+01  0.00000000000E+00 0.  1.
         21    1    1    2  503  501  0.32843850571E+02  0.38124458212E+02  0.34986549331E+03  0.35346577804E+03  0.00000000000E+00 0.  1.
          1    1    1    2  501    0 -0.32843850571E+02 -0.38124458212E+02  0.77197484904E+03  0.77361318525E+03  0.00000000000E+00 0.  1.
<mgrwt>
<rscale>  2 0.50320899E+02</rscale>
<asrwt>0</asrwt>
<pdfrwt beam="2">  1       21 0.40297174E-03 0.50320899E+02</pdfrwt>
<pdfrwt beam="1">  1        1 0.17299341E+00 0.50320899E+02</pdfrwt>
<totfact> 0.20181453E+06</totfact>
</mgrwt>
</event>
<event>
 4    1  0.2245608E+006  0.3414061E+02  0.7546771E-02  0.1556367E+00
         21   -1    0    0  501  502  0.00000000000E+00  0.00000000000E+00  0.31781911084E+01  0.31781911084E+01  0.00000000000E+00 0.  1.
         -3   -1    0    0    0  501 -0.00000000000E+00 -0.00000000000E+00 -0.37925958865E+03  0.37925958865E+03  0.00000000000E+00 0.  1.
         21    1    1    2  503  502 -0.42805833683E+01  0.33871199265E+02 -0.15330360092E+03  0.15705914678E+03  0.00000000000E+00 0.  1.
         -3    1    1    2    0  503  0.42805833683E+01 -0.33871199265E+02 -0.22277779662E+03  0.22537863298E+03  0.00000000000E+00 0.  1.
<mgrwt>
<rscale>  2 0.34140614E+02</rscale>
<asrwt>0</asrwt>
<pdfrwt beam="1">  1       21 0.48895250E-03 0.34140614E+02</pdfrwt>
<pdfrwt beam="2">  1       -3 0.58347626E-01 0.34140614E+02</pdfrwt>
<totfact> 0.11404471E+06</totfact>
</mgrwt>
</event>
<event>
 4    1  0.2245608E+006  0.3042807E+02  0.7546771E-02  0.1593405E+00
         21   -1    0    0  501  502  0.00000000000E+00  0.00000000000E+00  0.28881341984E+02  0.28881341984E+02  0.00000000000E+00 0. -1.
          1   -1    0    0  503    0 -0.00000000000E+00 -0.00000000000E+00 -0.44702093222E+02  0.44702093222E+02  0.00000000000E+00 0.  1.
         21    1    1    2  503  502 -0.64597508136E+01  0.29734476099E+02  0.11657166973E+02  0.32584612799E+02  0.00000000000E+00 0. -1.
          1    1    1    2  501    0  0.64597508136E+01 -0.29734476099E+02 -0.27477918211E+02  0.40998822406E+02  0.00000000000E+00 0.  1.
<mgrwt>
<rscale>  2 0.30428070E+02</rscale>
<asrwt>0</asrwt>
<pdfrwt beam="1">  1       21 0.44432834E-02 0.30428070E+02</pdfrwt>
<pdfrwt beam="2">  1        1 0.68772451E-02 0.30428070E+02</pdfrwt>
<totfact> 0.27428327E+06</totfact>
</mgrwt>
</event>
<event>
 4    1  0.2245608E+006  0.3506403E+02  0.7546771E-02  0.1548033E+00
          2   -1    0    0  502    0 -0.00000000000E+00  0.00000000000E+00  0.26991122518E+04  0.26991122518E+04  0.00000000000E+00 0.  1.
         21   -1    0    0  503  502  0.00000000000E+00 -0.00000000000E+00 -0.22858326581E+01  0.22858326581E+01  0.00000000000E+00 0. -1.
         21    1    1    2  503  501  0.67678250894E+01 -0.34404694963E+02  0.13976588896E+03  0.14409715545E+03  0.00000000000E+00 0. -1.
          2    1    1    2  501    0 -0.67678250894E+01  0.34404694963E+02  0.25570605302E+04  0.25573009290E+04  0.00000000000E+00 0.  1.
<mgrwt>
<rscale>  2 0.35064034E+02</rscale>
<asrwt>0</asrwt>
<pdfrwt beam="2">  1       21 0.35166872E-03 0.35064034E+02</pdfrwt>
<pdfrwt beam="1">  1        2 0.41524549E+00 0.35064034E+02</pdfrwt>
<totfact> 0.74761598E+05</totfact>
</mgrwt>
</event>
<event>
 4    1  0.2245608E+006  0.3535345E+02  0.7546771E-02  0.1545484E+00
          2   -1    0    0  503    0 -0.00000000000E+00  0.00000000000E+00  0.18216393274E+03  0.18216393274E+03  0.00000000000E+00 0.  1.
         21   -1    0    0  501  502  0.00000000000E+00 -0.00000000000E+00 -0.10242275644E+02  0.10242275644E+02  0.00000000000E+00 0.  1.
         21    1    1    2  503  502 -0.23400506786E+02  0.26500618852E+02  0.30687308743E+02  0.46814286658E+02  0.00000000000E+00 0.  1.
          2    1    1    2  501    0  0.23400506786E+02 -0.26500618852E+02  0.14123434835E+03  0.14559192173E+03  0.00000000000E+00 0.  1.
<mgrwt>
<rscale>  2 0.35353451E+02</rscale>
<asrwt>0</asrwt>
<pdfrwt beam="2">  1       21 0.15757348E-02 0.35353451E+02</pdfrwt>
<pdfrwt beam="1">  1        2 0.28025218E-01 0.35353451E+02</pdfrwt>
<totfact> 0.32770064E+06</totfact>
</mgrwt>
</event>
<event>
 4    1  0.2245608E+006  0.2003219E+02  0.7546771E-02  0.1744689E+00
          2   -1    0    0  503    0 -0.00000000000E+00  0.00000000000E+00  0.12374739343E+04  0.12374739343E+04  0.00000000000E+00 0.  1.
         21   -1    0    0  501  502  0.00000000000E+00 -0.00000000000E+00 -0.50837027497E+01  0.50837027497E+01  0.00000000000E+00 0.  1.
         21    1    1    2  503  502 -0.19082925209E+02  0.60934912911E+01  0.15057933977E+02  0.25060527655E+02  0.00000000000E+00 0.  1.
          2    1    1    2  501    0  0.19082925209E+02 -0.60934912911E+01  0.12173322976E+04  0.12174971094E+04  0.00000000000E+00 0.  1.
<mgrwt>
<rscale>  2 0.20032191E+02</rscale>
<asrwt>0</asrwt>
<pdfrwt beam="2">  1       21 0.78210910E-03 0.20032191E+02</pdfrwt>
<pdfrwt beam="1">  1        2 0.19038037E+00 0.20032191E+02</pdfrwt>
<totfact> 0.10766485E+06</totfact>
</mgrwt>
</event>
<event>
 4    1  0.2245608E+006  0.3055514E+02  0.7546771E-02  0.1592032E+00
          2   -1    0    0  502    0 -0.00000000000E+00  0.00000000000E+00  0.70361645026E+03  0.70361645026E+03  0.00000000000E+00 0. -1.
         21   -1    0    0  503  502  0.00000000000E+00 -0.00000000000E+00 -0.19249766038E+01  0.19249766038E+01  0.00000000000E+00 0. -1.
         21    1    1    2  503  501  0.24669129267E+02 -0.18029160083E+02  0.15420909249E+03  0.15720706333E+03  0.00000000000E+00 0. -1.
          2    1    1    2  501    0 -0.24669129267E+02  0.18029160083E+02  0.54748238117E+03  0.54833436354E+03  0.00000000000E+00 0. -1.
<mgrwt>
<rscale>  2 0.30555140E+02</rscale>
<asrwt>0</asrwt>
<pdfrwt beam="2">  1       21 0.29615081E-03 0.30555140E+02</pdfrwt>
<pdfrwt beam="1">  1        2 0.10824848E+00 0.30555140E+02</pdfrwt>
<totfact> 0.98324294E+06</totfact>
</mgrwt>
</event>
<event>
 4    1  0.2245608E+006  0.3461284E+02  0.7546771E-02  0.1552066E+00
          4   -1    0    0  502    0 -0.00000000000E+00  0.00000000000E+00  0.59392049064E+03  0.59392049064E+03  0.00000000000E+00 0. -1.
         21   -1    0    0  503  502  0.00000000000E+00 -0.00000000000E+00 -0.12954016584E+02  0.12954016584E+02  0.00000000000E+00 0. -1.
         21    1    1    2  503  501  0.48445065601E+01  0.34272135865E+02  0.11670633269E+02  0.36527417394E+02  0.00000000000E+00 0. -1.
          4    1    1    2  501    0 -0.48445065601E+01 -0.34272135865E+02  0.56929584079E+03  0.57034708983E+03  0.00000000000E+00 0. -1.
<mgrwt>
<rscale>  2 0.34612838E+02</rscale>
<asrwt>0</asrwt>
<pdfrwt beam="2">  1       21 0.19929261E-02 0.34612838E+02</pdfrwt>
<pdfrwt beam="1">  1        4 0.91372362E-01 0.34612838E+02</pdfrwt>
<totfact> 0.40978297E+04</totfact>
</mgrwt>
</event>
<event>
 4    1  0.2245608E+006  0.2232730E+02  0.7546771E-02  0.1702652E+00
          1   -1    0    0  503    0 -0.00000000000E+00  0.00000000000E+00  0.31526582390E+03  0.31526582390E+03  0.00000000000E+00 0. -1.
         21   -1    0    0  501  502  0.00000000000E+00 -0.00000000000E+00 -0.27663246570E+01  0.27663246570E+01  0.00000000000E+00 0. -1.
         21    1    1    2  503  502  0.21832350512E+02 -0.46751312850E+01  0.52170147463E+02  0.56747093914E+02  0.00000000000E+00 0. -1.
          1    1    1    2  501    0 -0.21832350512E+02  0.46751312850E+01  0.26032935178E+03  0.26128505464E+03  0.00000000000E+00 0. -1.
<mgrwt>
<rscale>  2 0.22327301E+02</rscale>
<asrwt>0</asrwt>
<pdfrwt beam="2">  1       21 0.42558866E-03 0.22327301E+02</pdfrwt>
<pdfrwt beam="1">  1        1 0.48502406E-01 0.22327301E+02</pdfrwt>
<totfact> 0.85921495E+06</totfact>
</mgrwt>
</event>
<event>
 4    1  0.2245608E+006  0.2213783E+02  0.7546771E-02  0.1705879E+00
         21   -1    0    0  503  502  0.00000000000E+00  0.00000000000E+00  0.43068641824E+00  0.43068641824E+00  0.00000000000E+00 0.  1.
          2   -1    0    0  502    0 -0.00000000000E+00 -0.00000000000E+00 -0.12251720667E+04  0.12251720667E+04  0.00000000000E+00 0.  1.
         21    1    1    2  503  501  0.19011428019E+02 -0.11342360892E+02 -0.44882947809E+03  0.44937510384E+03  0.00000000000E+00 0.  1.
          2    1    1    2  501    0 -0.19011428019E+02  0.11342360892E+02 -0.77591190217E+03  0.77622764926E+03  0.00000000000E+00 0.  1.
<mgrwt>
<rscale>  2 0.22137831E+02</rscale>
<asrwt>0</asrwt>
<pdfrwt beam="1">  1       21 0.66260105E-04 0.22137831E+02</pdfrwt>
<pdfrwt beam="2">  1        2 0.18848614E+00 0.22137831E+02</pdfrwt>
<totfact> 0.39573808E+07</totfact>
</mgrwt>
</event>
<event>
 4    1  0.2245608E+006  0.2233276E+02  0.7546771E-02  0.1702560E+00
          1   -1    0    0  503    0 -0.00000000000E+00  0.00000000000E+00  0.64871718793E+02  0.64871718793E+02  0.00000000000E+00 0. -1.
         21   -1    0    0  501  502  0.00000000000E+00 -0.00000000000E+00 -0.84398183951E+01  0.84398183951E+01  0.00000000000E+00 0.  1.
         21    1    1    2  503  502 -0.11134377086E+02 -0.19359181805E+02  0.17277649119E+02  0.28235959916E+02  0.00000000000E+00 0.  1.
          1    1    1    2  501    0  0.11134377086E+02  0.19359181805E+02  0.39154251278E+02  0.45075577272E+02  0.00000000000E+00 0. -1.
<mgrwt>
<rscale>  2 0.22332762E+02</rscale>
<asrwt>0</asrwt>
<pdfrwt beam="2">  1       21 0.12984336E-02 0.22332762E+02</pdfrwt>
<pdfrwt beam="1">  1        1 0.99802641E-02 0.22332762E+02</pdfrwt>
<totfact> 0.10657365E+07</totfact>
</mgrwt>
</event>
<event>
 4    1  0.2245608E+006  0.3501569E+02  0.7546771E-02  0.1548461E+00
         21   -1    0    0  501  502  0.00000000000E+00  0.00000000000E+00  0.64215980775E+01  0.64215980775E+01  0.00000000000E+00 0.  1.
          1   -1    0    0  503    0 -0.00000000000E+00 -0.00000000000E+00 -0.79915294804E+03  0.79915294804E+03  0.00000000000E+00 0.  1.
         21    1    1    2  503  502 -0.31890604874E+02 -0.14459871954E+02 -0.44974445997E+02  0.56998240051E+02  0.00000000000E+00 0.  1.
          1    1    1    2  501    0  0.31890604874E+02  0.14459871954E+02 -0.74775690397E+03  0.74857630607E+03  0.00000000000E+00 0.  1.
<mgrwt>
<rscale>  2 0.35015690E+02</rscale>
<asrwt>0</asrwt>
<pdfrwt beam="1">  1       21 0.98793846E-03 0.35015690E+02</pdfrwt>
<pdfrwt beam="2">  1        1 0.12294657E+00 0.35015690E+02</pdfrwt>
<totfact> 0.84530445E+05</totfact>
</mgrwt>
</event>
<event>
 4    1  0.2245608E+006  0.2499340E+02  0.7546771E-02  0.1661097E+00
         21   -1    0    0  501  502  0.00000000000E+00  0.00000000000E+00  0.11021670767E+03  0.11021670767E+03  0.00000000000E+00 0. -1.
         -2   -1    0    0    0  501 -0.00000000000E+00 -0.00000000000E+00 -0.58192825550E+01  0.58192825550E+01  0.00000000000E+00 0. -1.
         21    1    1    2  503  502  0.24823326312E+02  0.29107858574E+01  0.61563932499E+02  0.66443870960E+02  0.00000000000E+00 0. -1.
         -2    1    1    2    0  503 -0.24823326312E+02 -0.29107858574E+01  0.42833492620E+02  0.49592119268E+02  0.00000000000E+00 0. -1.
<mgrwt>
<rscale>  2 0.24993403E+02</rscale>
<asrwt>0</asrwt>
<pdfrwt beam="1">  1       21 0.16956415E-01 0.24993403E+02</pdfrwt>
<pdfrwt beam="2">  1       -2 0.89527432E-03 0.24993403E+02</pdfrwt>
<totfact> 0.40058701E+06</totfact>
</mgrwt>
</event>
<event>
 4    1  0.2245608E+006  0.2218481E+02  0.7546771E-02  0.1705075E+00
          2   -1    0    0  502    0 -0.00000000000E+00  0.00000000000E+00  0.40595037152E+03  0.40595037152E+03  0.00000000000E+00 0. -1.
         21   -1    0    0  503  502  0.00000000000E+00 -0.00000000000E+00 -0.22571313968E+01  0.22571313968E+01  0.00000000000E+00 0.  1.
         21    1    1    2  503  501 -0.13246517884E+02 -0.17795937482E+02  0.62985937860E+02  0.66778694170E+02  0.00000000000E+00 0.  1.
          2    1    1    2  501    0  0.13246517884E+02  0.17795937482E+02  0.34070730227E+03  0.34142880875E+03  0.00000000000E+00 0. -1.
<mgrwt>
<rscale>  2 0.22184806E+02</rscale>
<asrwt>0</asrwt>
<pdfrwt beam="2">  1       21 0.34725131E-03 0.22184806E+02</pdfrwt>
<pdfrwt beam="1">  1        2 0.62453845E-01 0.22184806E+02</pdfrwt>
<totfact> 0.12670891E+07</totfact>
</mgrwt>
</event>
<event>
 4    1  0.2245608E+006  0.3717961E+02  0.7546771E-02  0.1530055E+00
         21   -1    0    0  503  502  0.00000000000E+00  0.00000000000E+00  0.41354371934E+02  0.41354371934E+02  0.00000000000E+00 0. -1.
         -1   -1    0    0    0  501 -0.00000000000E+00 -0.00000000000E+00 -0.26680581615E+03  0.26680581615E+03  0.00000000000E+00 0.  1.
         21    1    1    2  503  501 -0.31061980693E+02  0.20432250057E+02  0.31379679335E+02  0.48651903993E+02  0.00000000000E+00 0. -1.
         -1    1    1    2    0  502  0.31061980693E+02 -0.20432250057E+02 -0.25683112355E+03  0.25950828409E+03  0.00000000000E+00 0.  1.
<mgrwt>
<rscale>  2 0.37179611E+02</rscale>
<asrwt>0</asrwt>
<pdfrwt beam="1">  1       21 0.63622109E-02 0.37179611E+02</pdfrwt>
<pdfrwt beam="2">  1       -1 0.41047049E-01 0.37179611E+02</pdfrwt>
<totfact> 0.86955928E+04</totfact>
</mgrwt>
</event>
<event>
 4    1  0.2245608E+006  0.2056982E+02  0.7546771E-02  0.1734228E+00
          3   -1    0    0  503    0 -0.00000000000E+00  0.00000000000E+00  0.29317965191E+02  0.29317965191E+02  0.00000000000E+00 0. -1.
         21   -1    0    0  501  502  0.00000000000E+00 -0.00000000000E+00 -0.47052421008E+03  0.47052421008E+03  0.00000000000E+00 0.  1.
         21    1    1    2  503  502 -0.20508790346E+02 -0.15834003765E+01 -0.46666154190E+03  0.46711466721E+03  0.00000000000E+00 0.  1.
          3    1    1    2  501    0  0.20508790346E+02  0.15834003765E+01  0.25455297006E+02  0.32727508061E+02  0.00000000000E+00 0. -1.
<mgrwt>
<rscale>  2 0.20569823E+02</rscale>
<asrwt>0</asrwt>
<pdfrwt beam="2">  1       21 0.72388337E-01 0.20569823E+02</pdfrwt>
<pdfrwt beam="1">  1        3 0.45104564E-02 0.20569823E+02</pdfrwt>
<totfact> 0.18000431E+04</totfact>
</mgrwt>
</event>
<event>
 4    1  0.2245608E+006  0.2353217E+02  0.7546771E-02  0.1683026E+00
          2   -1    0    0  502    0 -0.00000000000E+00  0.00000000000E+00  0.74126155372E+03  0.74126155372E+03  0.00000000000E+00 0.  1.
         21   -1    0    0  503  502  0.00000000000E+00 -0.00000000000E+00 -0.77694658493E+03  0.77694658493E+03  0.00000000000E+00 0.  1.
         21    1    1    2  503  501  0.19906109483E+02 -0.12550283427E+02 -0.77658154792E+03  0.77693800485E+03  0.00000000000E+00 0.  1.
          2    1    1    2  501    0 -0.19906109483E+02  0.12550283427E+02  0.74089651670E+03  0.74127013380E+03  0.00000000000E+00 0.  1.
<mgrwt>
<rscale>  2 0.23532165E+02</rscale>
<asrwt>0</asrwt>
<pdfrwt beam="2">  1       21 0.11953024E+00 0.23532165E+02</pdfrwt>
<pdfrwt beam="1">  1        2 0.11404024E+00 0.23532165E+02</pdfrwt>
<totfact> 0.36046299E+02</totfact>
</mgrwt>
</event>
<event>
 4    1  0.2245608E+006  0.2397114E+02  0.7546771E-02  0.1676235E+00
         21   -1    0    0  503  502  0.00000000000E+00  0.00000000000E+00  0.78752397627E+01  0.78752397627E+01  0.00000000000E+00 0.  1.
         -2   -1    0    0    0  501 -0.00000000000E+00 -0.00000000000E+00 -0.11761738042E+03  0.11761738042E+03  0.00000000000E+00 0. -1.
         21    1    1    2  503  501 -0.10491483244E+02  0.21553295984E+02 -0.16209862696E+02  0.28937440057E+02  0.00000000000E+00 0.  1.
         -2    1    1    2    0  502  0.10491483244E+02 -0.21553295984E+02 -0.93532277966E+02  0.96555180130E+02  0.00000000000E+00 0. -1.
<mgrwt>
<rscale>  2 0.23971145E+02</rscale>
<asrwt>0</asrwt>
<pdfrwt beam="1">  1       21 0.12115754E-02 0.23971145E+02</pdfrwt>
<pdfrwt beam="2">  1       -2 0.18094981E-01 0.23971145E+02</pdfrwt>
<totfact> 0.36583001E+06</totfact>
</mgrwt>
</event>
<event>
 4    1  0.2245608E+006  0.2964166E+02  0.7546771E-02  0.1602084E+00
          2   -1    0    0  503    0 -0.00000000000E+00  0.00000000000E+00  0.11696005549E+04  0.11696005549E+04  0.00000000000E+00 0. -1.
         21   -1    0    0  501  502  0.00000000000E+00 -0.00000000000E+00 -0.10890992994E+01  0.10890992994E+01  0.00000000000E+00 0.  1.
         21    1    1    2  503  502  0.29344376298E+02  0.41875786628E+01  0.25822514544E+03  0.25992086098E+03  0.00000000000E+00 0.  1.
          2    1    1    2  501    0 -0.29344376298E+02 -0.41875786628E+01  0.91028631019E+03  0.91076879324E+03  0.00000000000E+00 0. -1.
<mgrwt>
<rscale>  2 0.29641664E+02</rscale>
<asrwt>0</asrwt>
<pdfrwt beam="2">  1       21 0.16755467E-03 0.29641664E+02</pdfrwt>
<pdfrwt beam="1">  1        2 0.17993754E+00 0.29641664E+02</pdfrwt>
<totfact> 0.12046047E+07</totfact>
</mgrwt>
</event>
<event>
 4    1  0.2245608E+006  0.2128871E+02  0.7546771E-02  0.1720852E+00
         21   -1    0    0  501  502  0.00000000000E+00  0.00000000000E+00  0.11210032221E+03  0.11210032221E+03  0.00000000000E+00 0. -1.
          1   -1    0    0  503    0 -0.00000000000E+00 -0.00000000000E+00 -0.14274412160E+03  0.14274412160E+03  0.00000000000E+00 0.  1.
         21    1    1    2  503  502 -0.21093253234E+02  0.28781462918E+01  0.11028289536E+03  0.11231885891E+03  0.00000000000E+00 0. -1.
          1    1    1    2  501    0  0.21093253234E+02 -0.28781462918E+01 -0.14092669475E+03  0.14252558490E+03  0.00000000000E+00 0.  1.
<mgrwt>
<rscale>  2 0.21288707E+02</rscale>
<asrwt>0</asrwt>
<pdfrwt beam="1">  1       21 0.17246204E-01 0.21288707E+02</pdfrwt>
<pdfrwt beam="2">  1        1 0.21960634E-01 0.21288707E+02</pdfrwt>
<totfact> 0.65765942E+04</totfact>
</mgrwt>
</event>
<event>
 4    1  0.2245608E+006  0.2680206E+02  0.7546771E-02  0.1636391E+00
          2   -1    0    0  503    0 -0.00000000000E+00  0.00000000000E+00  0.57904327574E+03  0.57904327574E+03  0.00000000000E+00 0.  1.
         21   -1    0    0  501  502  0.00000000000E+00 -0.00000000000E+00 -0.22250431004E+02  0.22250431004E+02  0.00000000000E+00 0.  1.
         21    1    1    2  503  502  0.17122399512E+02  0.20619742903E+02 -0.13748888392E+02  0.30122786963E+02  0.00000000000E+00 0.  1.
          2    1    1    2  501    0 -0.17122399512E+02 -0.20619742903E+02  0.57054173312E+03  0.57117091978E+03  0.00000000000E+00 0.  1.
<mgrwt>
<rscale>  2 0.26802059E+02</rscale>
<asrwt>0</asrwt>
<pdfrwt beam="2">  1       21 0.34231437E-02 0.26802059E+02</pdfrwt>
<pdfrwt beam="1">  1        2 0.89083570E-01 0.26802059E+02</pdfrwt>
<totfact> 0.28942150E+05</totfact>
</mgrwt>
</event>
<event>
 4    1  0.2245608E+006  0.4612150E+02  0.7546771E-02  0.1467459E+00
         21   -1    0    0  503  502  0.00000000000E+00  0.00000000000E+00  0.17165842211E+03  0.17165842211E+03  0.00000000000E+00 0. -1.
         -1   -1    0    0    0  501 -0.00000000000E+00 -0.00000000000E+00 -0.21084457891E+02  0.21084457891E+02  0.00000000000E+00 0. -1.
         21    1    1    2  503  501 -0.42770092916E+02  0.17260128739E+02  0.13716525386E+03  0.14471178169E+03  0.00000000000E+00 0. -1.
         -1    1    1    2    0  502  0.42770092916E+02 -0.17260128739E+02  0.13408710361E+02  0.48031098318E+02  0.00000000000E+00 0. -1.
<mgrwt>
<rscale>  2 0.46121501E+02</rscale>
<asrwt>0</asrwt>
<pdfrwt beam="1">  1       21 0.26408987E-01 0.46121501E+02</pdfrwt>
<pdfrwt beam="2">  1       -1 0.32437629E-02 0.46121501E+02</pdfrwt>
<totfact> 0.34962903E+05</totfact>
</mgrwt>
</event>
<event>
 4    1  0.2245608E+006  0.2455775E+02  0.7546771E-02  0.1667437E+00
          2   -1    0    0  503    0 -0.00000000000E+00  0.00000000000E+00  0.37821077706E+02  0.37821077706E+02  0.00000000000E+00 0.  1.
         21   -1    0    0  501  502  0.00000000000E+00 -0.00000000000E+00 -0.18048273760E+02  0.18048273760E+02  0.00000000000E+00 0.  1.
         21    1    1    2  503  502  0.21012813777E+02  0.12710021219E+02  0.19421013299E+02  0.31309083982E+02  0.00000000000E+00 0.  1.
          2    1    1    2  501    0 -0.21012813777E+02 -0.12710021219E+02  0.35179064655E+00  0.24560267484E+02  0.00000000000E+00 0.  1.
<mgrwt>
<rscale>  2 0.24557748E+02</rscale>
<asrwt>0</asrwt>
<pdfrwt beam="2">  1       21 0.27766575E-02 0.24557748E+02</pdfrwt>
<pdfrwt beam="1">  1        2 0.58186273E-02 0.24557748E+02</pdfrwt>
<totfact> 0.73575891E+06</totfact>
</mgrwt>
</event>
<event>
 4    1  0.2245608E+006  0.2196519E+02  0.7546771E-02  0.1708855E+00
         21   -1    0    0  503  502  0.00000000000E+00  0.00000000000E+00  0.48747328723E+00  0.48747328723E+00  0.00000000000E+00 0. -1.
          2   -1    0    0  502    0 -0.00000000000E+00 -0.00000000000E+00 -0.11486461659E+04  0.11486461659E+04  0.00000000000E+00 0. -1.
         21    1    1    2  503  501  0.22775095264E+01 -0.21846791848E+02 -0.36036944457E+03  0.36103823336E+03  0.00000000000E+00 0. -1.
          2    1    1    2  501    0 -0.22775095264E+01  0.21846791848E+02 -0.78778924801E+03  0.78809540580E+03  0.00000000000E+00 0. -1.
<mgrwt>
<rscale>  2 0.21965185E+02</rscale>
<asrwt>0</asrwt>
<pdfrwt beam="1">  1       21 0.74997370E-04 0.21965185E+02</pdfrwt>
<pdfrwt beam="2">  1        2 0.17671131E+00 0.21965185E+02</pdfrwt>
<totfact> 0.36208440E+07</totfact>
</mgrwt>
</event>
<event>
 4    1  0.2245608E+006  0.2725510E+02  0.7546771E-02  0.1630575E+00
         -2   -1    0    0    0  501 -0.00000000000E+00  0.00000000000E+00  0.12299498763E+03  0.12299498763E+03  0.00000000000E+00 0. -1.
         21   -1    0    0  503  502  0.00000000000E+00 -0.00000000000E+00 -0.12519746403E+02  0.12519746403E+02  0.00000000000E+00 0. -1.
         21    1    1    2  503  501 -0.21719206700E+02 -0.16465612548E+02  0.64902476301E+01  0.28017202762E+02  0.00000000000E+00 0. -1.
         -2    1    1    2    0  502  0.21719206700E+02  0.16465612548E+02  0.10398499360E+03  0.10749753127E+03  0.00000000000E+00 0. -1.
<mgrwt>
<rscale>  2 0.27255097E+02</rscale>
<asrwt>0</asrwt>
<pdfrwt beam="2">  1       21 0.19261149E-02 0.27255097E+02</pdfrwt>
<pdfrwt beam="1">  1       -2 0.18922305E-01 0.27255097E+02</pdfrwt>
<totfact> 0.17348255E+06</totfact>
</mgrwt>
</event>
<event>
 4    1  0.2245608E+006  0.2768114E+02  0.7546771E-02  0.1625232E+00
          2   -1    0    0  502    0 -0.00000000000E+00  0.00000000000E+00  0.33446873835E+01  0.33446873835E+01  0.00000000000E+00 0.  1.
         21   -1    0    0  503  502  0.00000000000E+00 -0.00000000000E+00 -0.55143611593E+03  0.55143611593E+03  0.00000000000E+00 0.  1.
         21    1    1    2  503  501 -0.27614487565E+02  0.19197825803E+01 -0.48612723078E+03  0.48691470505E+03  0.00000000000E+00 0.  1.
          2    1    1    2  501    0  0.27614487565E+02 -0.19197825803E+01 -0.61964197768E+02  0.67866098265E+02  0.00000000000E+00 0.  1.
<mgrwt>
<rscale>  2 0.27681140E+02</rscale>
<asrwt>0</asrwt>
<pdfrwt beam="2">  1       21 0.84836342E-01 0.27681140E+02</pdfrwt>
<pdfrwt beam="1">  1        2 0.51456719E-03 0.27681140E+02</pdfrwt>
<totfact> 0.41949116E+05</totfact>
</mgrwt>
</event>
<event>
 4    1  0.2245608E+006  0.3136832E+02  0.7546771E-02  0.1583438E+00
          1   -1    0    0  503    0 -0.00000000000E+00  0.00000000000E+00  0.55481398861E+03  0.55481398861E+03  0.00000000000E+00 0. -1.
         21   -1    0    0  501  502  0.00000000000E+00 -0.00000000000E+00 -0.11742545294E+02  0.11742545294E+02  0.00000000000E+00 0.  1.
         21    1    1    2  503  502  0.31357520660E+02 -0.82295772611E+00  0.10524862761E+02  0.33086917316E+02  0.00000000000E+00 0.  1.
          1    1    1    2  501    0 -0.31357520660E+02  0.82295772611E+00  0.53254658056E+03  0.53346961659E+03  0.00000000000E+00 0. -1.
<mgrwt>
<rscale>  2 0.31368318E+02</rscale>
<asrwt>0</asrwt>
<pdfrwt beam="2">  1       21 0.18065459E-02 0.31368318E+02</pdfrwt>
<pdfrwt beam="1">  1        1 0.85355978E-01 0.31368318E+02</pdfrwt>
<totfact> 0.53475693E+05</totfact>
</mgrwt>
</event>
<event>
 4    1  0.2245608E+006  0.3114115E+02  0.7546771E-02  0.1585807E+00
          1   -1    0    0  503    0 -0.00000000000E+00  0.00000000000E+00  0.13834512795E+04  0.13834512795E+04  0.00000000000E+00 0.  1.
         21   -1    0    0  501  502  0.00000000000E+00 -0.00000000000E+00 -0.45811873470E+03  0.45811873470E+03  0.00000000000E+00 0. -1.
         21    1    1    2  503  502 -0.18391637922E+02 -0.25130042280E+02 -0.45741400608E+03  0.45847283925E+03  0.00000000000E+00 0. -1.
          1    1    1    2  501    0  0.18391637922E+02  0.25130042280E+02  0.13827465509E+04  0.13830971750E+04  0.00000000000E+00 0.  1.
<mgrwt>
<rscale>  2 0.31141152E+02</rscale>
<asrwt>0</asrwt>
<pdfrwt beam="2">  1       21 0.70479806E-01 0.31141152E+02</pdfrwt>
<pdfrwt beam="1">  1        1 0.21283866E+00 0.31141152E+02</pdfrwt>
<totfact> 0.23925344E+02</totfact>
</mgrwt>
</event>
<event>
 4    1  0.2245608E+006  0.2471513E+02  0.7546771E-02  0.1665128E+00
          3   -1    0    0  502    0 -0.00000000000E+00  0.00000000000E+00  0.26195309844E+01  0.26195309844E+01  0.00000000000E+00 0.  1.
         21   -1    0    0  503  502  0.00000000000E+00 -0.00000000000E+00 -0.36987317594E+03  0.36987317594E+03  0.00000000000E+00 0. -1.
         21    1    1    2  503  501  0.22960707050E+01 -0.24608247035E+02 -0.29684739858E+03  0.29787449674E+03  0.00000000000E+00 0. -1.
          3    1    1    2  501    0 -0.22960707050E+01  0.24608247035E+02 -0.70406246375E+02  0.74618210186E+02  0.00000000000E+00 0.  1.
<mgrwt>
<rscale>  2 0.24715132E+02</rscale>
<asrwt>0</asrwt>
<pdfrwt beam="2">  1       21 0.56903543E-01 0.24715132E+02</pdfrwt>
<pdfrwt beam="1">  1        3 0.40300493E-03 0.24715132E+02</pdfrwt>
<totfact> 0.99565316E+05</totfact>
</mgrwt>
</event>
<event>
 4    1  0.2245608E+006  0.2584681E+02  0.7546771E-02  0.1649128E+00
          1   -1    0    0  503    0 -0.00000000000E+00  0.00000000000E+00  0.28130003618E+02  0.28130003618E+02  0.00000000000E+00 0.  1.
         21   -1    0    0  501  502  0.00000000000E+00 -0.00000000000E+00 -0.14692527206E+03  0.14692527206E+03  0.00000000000E+00 0. -1.
         21    1    1    2  503  502  0.15246102804E+01 -0.25801808518E+02 -0.13953971066E+03  0.14191331372E+03  0.00000000000E+00 0. -1.
          1    1    1    2  501    0 -0.15246102804E+01  0.25801808518E+02  0.20744442221E+02  0.33141961957E+02  0.00000000000E+00 0.  1.
<mgrwt>
<rscale>  2 0.25846813E+02</rscale>
<asrwt>0</asrwt>
<pdfrwt beam="2">  1       21 0.22603888E-01 0.25846813E+02</pdfrwt>
<pdfrwt beam="1">  1        1 0.43276928E-02 0.25846813E+02</pdfrwt>
<totfact> 0.31700825E+05</totfact>
</mgrwt>
</event>
<event>
 4    1  0.2245608E+006  0.4709119E+02  0.7546771E-02  0.1461694E+00
         21   -1    0    0  501  502  0.00000000000E+00  0.00000000000E+00  0.46216053401E+02  0.46216053401E+02  0.00000000000E+00 0. -1.
          1   -1    0    0  503    0 -0.00000000000E+00 -0.00000000000E+00 -0.12182969656E+03  0.12182969656E+03  0.00000000000E+00 0.  1.
         21    1    1    2  503  502  0.25288855077E+02  0.39724727116E+02  0.27609601727E+02  0.54588187761E+02  0.00000000000E+00 0. -1.
          1    1    1    2  501    0 -0.25288855077E+02 -0.39724727116E+02 -0.10322324489E+03  0.11345756220E+03  0.00000000000E+00 0.  1.
<mgrwt>
<rscale>  2 0.47091190E+02</rscale>
<asrwt>0</asrwt>
<pdfrwt beam="1">  1       21 0.71101621E-02 0.47091190E+02</pdfrwt>
<pdfrwt beam="2">  1        1 0.18743030E-01 0.47091190E+02</pdfrwt>
<totfact> 0.38833954E+05</totfact>
</mgrwt>
</event>
<event>
 4    1  0.2245608E+006  0.2645318E+02  0.7546771E-02  0.1640966E+00
         -1   -1    0    0    0  501 -0.00000000000E+00  0.00000000000E+00  0.12982942957E+04  0.12982942957E+04  0.00000000000E+00 0. -1.
         21   -1    0    0  501  502  0.00000000000E+00 -0.00000000000E+00 -0.61864655996E+00  0.61864655996E+00  0.00000000000E+00 0. -1.
         21    1    1    2  503  502 -0.26448308672E+02  0.50758977369E+00  0.41579639014E+03  0.41663702276E+03  0.00000000000E+00 0. -1.
         -1    1    1    2    0  503  0.26448308672E+02 -0.50758977369E+00  0.88187925905E+03  0.88227591955E+03  0.00000000000E+00 0. -1.
<mgrwt>
<rscale>  2 0.26453179E+02</rscale>
<asrwt>0</asrwt>
<pdfrwt beam="2">  1       21 0.95177433E-04 0.26453179E+02</pdfrwt>
<pdfrwt beam="1">  1       -1 0.19973540E+00 0.26453179E+02</pdfrwt>
<totfact> 0.16733289E+06</totfact>
</mgrwt>
</event>
<event>
 4    1  0.2245608E+006  0.2935918E+02  0.7546771E-02  0.1605282E+00
          4   -1    0    0  503    0 -0.00000000000E+00  0.00000000000E+00  0.32591742168E+03  0.32591742168E+03  0.00000000000E+00 0. -1.
         21   -1    0    0  501  502  0.00000000000E+00 -0.00000000000E+00 -0.13629199455E+02  0.13629199455E+02  0.00000000000E+00 0. -1.
         21    1    1    2  503  502  0.24520666763E+02  0.16146152915E+02  0.37304406888E+01  0.29595228335E+02  0.00000000000E+00 0. -1.
          4    1    1    2  501    0 -0.24520666763E+02 -0.16146152915E+02  0.30855778154E+03  0.30995139280E+03  0.00000000000E+00 0. -1.
<mgrwt>
<rscale>  2 0.29359178E+02</rscale>
<asrwt>0</asrwt>
<pdfrwt beam="2">  1       21 0.20968002E-02 0.29359178E+02</pdfrwt>
<pdfrwt beam="1">  1        4 0.50141136E-01 0.29359178E+02</pdfrwt>
<totfact> 0.12513470E+05</totfact>
</mgrwt>
</event>
<event>
 4    1  0.2245608E+006  0.2819048E+02  0.7546771E-02  0.1618997E+00
          2   -1    0    0  502    0 -0.00000000000E+00  0.00000000000E+00  0.21272860878E+04  0.21272860878E+04  0.00000000000E+00 0. -1.
         21   -1    0    0  503  502  0.00000000000E+00 -0.00000000000E+00 -0.39588121455E+01  0.39588121455E+01  0.00000000000E+00 0.  1.
         21    1    1    2  503  501  0.20634663369E+02 -0.19207130626E+02  0.47565949710E+02  0.55292158314E+02  0.00000000000E+00 0.  1.
          2    1    1    2  501    0 -0.20634663369E+02  0.19207130626E+02  0.20757613259E+04  0.20759527416E+04  0.00000000000E+00 0. -1.
<mgrwt>
<rscale>  2 0.28190481E+02</rscale>
<asrwt>0</asrwt>
<pdfrwt beam="2">  1       21 0.60904972E-03 0.28190481E+02</pdfrwt>
<pdfrwt beam="1">  1        2 0.32727387E+00 0.28190481E+02</pdfrwt>
<totfact> 0.62185780E+05</totfact>
</mgrwt>
</event>
<event>
 4    1  0.2245608E+006  0.2190533E+02  0.7546771E-02  0.1709894E+00
         21   -1    0    0  503  502  0.00000000000E+00  0.00000000000E+00  0.88885825417E+03  0.88885825417E+03  0.00000000000E+00 0.  1.
          3   -1    0    0  502    0 -0.00000000000E+00 -0.00000000000E+00 -0.96115263878E+00  0.96115263878E+00  0.00000000000E+00 0.  1.
         21    1    1    2  503  501 -0.69438338309E+01  0.20775624561E+02  0.73851052727E+03  0.73883532826E+03  0.00000000000E+00 0.  1.
          3    1    1    2  501    0  0.69438338309E+01 -0.20775624561E+02  0.14938657426E+03  0.15098407855E+03  0.00000000000E+00 0.  1.
<mgrwt>
<rscale>  2 0.21905328E+02</rscale>
<asrwt>0</asrwt>
<pdfrwt beam="1">  1       21 0.13674677E+00 0.21905328E+02</pdfrwt>
<pdfrwt beam="2">  1        3 0.14787035E-03 0.21905328E+02</pdfrwt>
<totfact> 0.59595637E+05</totfact>
</mgrwt>
</event>
<event>
 4    1  0.2245608E+006  0.2319042E+02  0.7546771E-02  0.1688442E+00
         21   -1    0    0  503  502  0.00000000000E+00  0.00000000000E+00  0.20830102697E+01  0.20830102697E+01  0.00000000000E+00 0. -1.
          2   -1    0    0  502    0 -0.00000000000E+00 -0.00000000000E+00 -0.76615219765E+03  0.76615219765E+03  0.00000000000E+00 0.  1.
         21    1    1    2  503  501 -0.12172067699E+02  0.19739213243E+02 -0.69264083123E+02  0.73043199426E+02  0.00000000000E+00 0. -1.
          2    1    1    2  501    0  0.12172067699E+02 -0.19739213243E+02 -0.69480510426E+03  0.69519200850E+03  0.00000000000E+00 0.  1.
<mgrwt>
<rscale>  2 0.23190424E+02</rscale>
<asrwt>0</asrwt>
<pdfrwt beam="1">  1       21 0.32046324E-03 0.23190424E+02</pdfrwt>
<pdfrwt beam="2">  1        2 0.11786952E+00 0.23190424E+02</pdfrwt>
<totfact> 0.74689979E+06</totfact>
</mgrwt>
</event>
<event>
 4    1  0.2245608E+006  0.2257411E+02  0.7546771E-02  0.1698508E+00
          3   -1    0    0  503    0 -0.00000000000E+00  0.00000000000E+00  0.36026708891E+02  0.36026708891E+02  0.00000000000E+00 0.  1.
         21   -1    0    0  501  502  0.00000000000E+00 -0.00000000000E+00 -0.45809245660E+02  0.45809245660E+02  0.00000000000E+00 0.  1.
         21    1    1    2  503  502 -0.89429145270E+00 -0.22556388947E+02 -0.38910426389E+02  0.44984572037E+02  0.00000000000E+00 0.  1.
          3    1    1    2  501    0  0.89429145270E+00  0.22556388947E+02  0.29127889619E+02  0.36851382514E+02  0.00000000000E+00 0.  1.
<mgrwt>
<rscale>  2 0.22574110E+02</rscale>
<asrwt>0</asrwt>
<pdfrwt beam="2">  1       21 0.70475763E-02 0.22574110E+02</pdfrwt>
<pdfrwt beam="1">  1        3 0.55425706E-02 0.22574110E+02</pdfrwt>
<totfact> 0.86601827E+05</totfact>
</mgrwt>
</event>
<event>
 4    1  0.2245608E+006  0.2618909E+02  0.7546771E-02  0.1644487E+00
         -1   -1    0    0    0  501 -0.00000000000E+00  0.00000000000E+00  0.20076633531E+03  0.20076633531E+03  0.00000000000E+00 0.  1.
         21   -1    0    0  501  502  0.00000000000E+00 -0.00000000000E+00 -0.17661603537E+02  0.17661603537E+02  0.00000000000E+00 0.  1.
         21    1    1    2  503  502 -0.24590297857E+02 -0.90103094637E+01 -0.65319820653E+01  0.26991391498E+02  0.00000000000E+00 0.  1.
         -1    1    1    2    0  503  0.24590297857E+02  0.90103094637E+01  0.18963671383E+03  0.19143654734E+03  0.00000000000E+00 0.  1.
<mgrwt>
<rscale>  2 0.26189090E+02</rscale>
<asrwt>0</asrwt>
<pdfrwt beam="2">  1       21 0.27171699E-02 0.26189090E+02</pdfrwt>
<pdfrwt beam="1">  1       -1 0.30887127E-01 0.26189090E+02</pdfrwt>
<totfact> 0.51382920E+05</totfact>
</mgrwt>
</event>
<event>
 4    1  0.2245608E+006  0.3156059E+02  0.7546771E-02  0.1581452E+00
         -3   -1    0    0    0  501 -0.00000000000E+00  0.00000000000E+00  0.17607253984E+03  0.17607253984E+03  0.00000000000E+00 0. -1.
         21   -1    0    0  503  502  0.00000000000E+00 -0.00000000000E+00 -0.18762249568E+02  0.18762249568E+02  0.00000000000E+00 0. -1.
         21    1    1    2  503  501  0.19698851183E+02  0.24658186727E+02 -0.27616527130E+01  0.31681187419E+02  0.00000000000E+00 0. -1.
         -3    1    1    2    0  502 -0.19698851183E+02 -0.24658186727E+02  0.16007194298E+03  0.16315360199E+03  0.00000000000E+00 0. -1.
<mgrwt>
<rscale>  2 0.31560591E+02</rscale>
<asrwt>0</asrwt>
<pdfrwt beam="2">  1       21 0.28865000E-02 0.31560591E+02</pdfrwt>
<pdfrwt beam="1">  1       -3 0.27088082E-01 0.31560591E+02</pdfrwt>
<totfact> 0.30732507E+05</totfact>
</mgrwt>
</event>
<event>
 4    1  0.2245608E+006  0.2300733E+02  0.7546771E-02  0.1691391E+00
         -3   -1    0    0    0  501 -0.00000000000E+00  0.00000000000E+00  0.43377658881E+02  0.43377658881E+02  0.00000000000E+00 0. -1.
         21   -1    0    0  501  502  0.00000000000E+00 -0.00000000000E+00 -0.38016102926E+03  0.38016102926E+03  0.00000000000E+00 0.  1.
         21    1    1    2  503  502 -0.97142816721E+00 -0.22986817372E+02 -0.37673445704E+03  0.37743633711E+03  0.00000000000E+00 0.  1.
         -3    1    1    2    0  503  0.97142816721E+00  0.22986817372E+02  0.39951086662E+02  0.46102351036E+02  0.00000000000E+00 0. -1.
<mgrwt>
<rscale>  2 0.23007335E+02</rscale>
<asrwt>0</asrwt>
<pdfrwt beam="2">  1       21 0.58486312E-01 0.23007335E+02</pdfrwt>
<pdfrwt beam="1">  1       -3 0.66734860E-02 0.23007335E+02</pdfrwt>
<totfact> 0.15646840E+04</totfact>
</mgrwt>
</event>
<event>
 4    1  0.2245608E+006  0.2226647E+02  0.7546771E-02  0.1703684E+00
         21   -1    0    0  503  502  0.00000000000E+00  0.00000000000E+00  0.11256553399E+01  0.11256553399E+01  0.00000000000E+00 0.  1.
          2   -1    0    0  502    0 -0.00000000000E+00 -0.00000000000E+00 -0.11899153402E+04  0.11899153402E+04  0.00000000000E+00 0.  1.
         21    1    1    2  503  501  0.17407150236E+02 -0.13884768076E+02 -0.12177248584E+03  0.12379149394E+03  0.00000000000E+00 0.  1.
          2    1    1    2  501    0 -0.17407150236E+02  0.13884768076E+02 -0.10670171990E+04  0.10672495016E+04  0.00000000000E+00 0.  1.
<mgrwt>
<rscale>  2 0.22266469E+02</rscale>
<asrwt>0</asrwt>
<pdfrwt beam="1">  1       21 0.17317739E-03 0.22266469E+02</pdfrwt>
<pdfrwt beam="2">  1        2 0.18306428E+00 0.22266469E+02</pdfrwt>
<totfact> 0.10504701E+07</totfact>
</mgrwt>
</event>
<event>
 4    1  0.2245608E+006  0.2099703E+02  0.7546771E-02  0.1726198E+00
         -4   -1    0    0    0  501 -0.00000000000E+00  0.00000000000E+00  0.35201679653E+03  0.35201679653E+03  0.00000000000E+00 0. -1.
         21   -1    0    0  501  502  0.00000000000E+00 -0.00000000000E+00 -0.30597543983E+01  0.30597543983E+01  0.00000000000E+00 0. -1.
         21    1    1    2  503  502 -0.24327948254E+00  0.20995621021E+02  0.38030529479E+02  0.43441874492E+02  0.00000000000E+00 0. -1.
         -4    1    1    2    0  503  0.24327948254E+00 -0.20995621021E+02  0.31092651265E+03  0.31163467643E+03  0.00000000000E+00 0. -1.
<mgrwt>
<rscale>  2 0.20997030E+02</rscale>
<asrwt>0</asrwt>
<pdfrwt beam="2">  1       21 0.47073172E-03 0.20997030E+02</pdfrwt>
<pdfrwt beam="1">  1       -4 0.54156398E-01 0.20997030E+02</pdfrwt>
<totfact> 0.89987598E+05</totfact>
</mgrwt>
</event>
<event>
 4    1  0.2245608E+006  0.6657541E+02  0.7546771E-02  0.1372142E+00
         -2   -1    0    0    0  501 -0.00000000000E+00  0.00000000000E+00  0.57057179687E+02  0.57057179687E+02  0.00000000000E+00 0. -1.
         21   -1    0    0  501  502  0.00000000000E+00 -0.00000000000E+00 -0.11422202716E+04  0.11422202716E+04  0.00000000000E+00 0. -1.
         21    1    1    2  503  502 -0.13787444145E+02 -0.65132110562E+02 -0.11214708018E+04  0.11234451676E+04  0.00000000000E+00 0. -1.
         -2    1    1    2    0  503  0.13787444145E+02  0.65132110562E+02  0.36307709891E+02  0.75832283625E+02  0.00000000000E+00 0. -1.
<mgrwt>
<rscale>  2 0.66575412E+02</rscale>
<asrwt>0</asrwt>
<pdfrwt beam="2">  1       21 0.17572618E+00 0.66575412E+02</pdfrwt>
<pdfrwt beam="1">  1       -2 0.87780286E-02 0.66575412E+02</pdfrwt>
<totfact> 0.13649966E+03</totfact>
</mgrwt>
</event>
<event>
 4    1  0.2245608E+006  0.2103508E+02  0.7546771E-02  0.1725495E+00
         -1   -1    0    0    0  501 -0.00000000000E+00  0.00000000000E+00  0.21209504955E+02  0.21209504955E+02  0.00000000000E+00 0. -1.
         21   -1    0    0  503  502  0.00000000000E+00 -0.00000000000E+00 -0.25203466086E+02  0.25203466086E+02  0.00000000000E+00 0. -1.
         21    1    1    2  503  501 -0.20910335867E+02 -0.22874307816E+01 -0.11628464756E+02  0.24035300669E+02  0.00000000000E+00 0. -1.
         -1    1    1    2    0  502  0.20910335867E+02  0.22874307816E+01  0.76345036257E+01  0.22377670372E+02  0.00000000000E+00 0. -1.
<mgrwt>
<rscale>  2 0.21035078E+02</rscale>
<asrwt>0</asrwt>
<pdfrwt beam="2">  1       21 0.38774563E-02 0.21035078E+02</pdfrwt>
<pdfrwt beam="1">  1       -1 0.32630008E-02 0.21035078E+02</pdfrwt>
<totfact> 0.73828652E+06</totfact>
</mgrwt>
</event>
<event>
 4    1  0.2245608E+006  0.2322846E+02  0.7546771E-02  0.1687833E+00
          2   -1    0    0  503    0 -0.00000000000E+00  0.00000000000E+00  0.15372274935E+03  0.15372274935E+03  0.00000000000E+00 0. -1.
         21   -1    0    0  501  502  0.00000000000E+00 -0.00000000000E+00 -0.11383325953E+02  0.11383325953E+02  0.00000000000E+00 0. -1.
         21    1    1    2  503  502 -0.21716412006E+02  0.82437093188E+01  0.25136977959E+01  0.23364074352E+02  0.00000000000E+00 0. -1.
          2    1    1    2  501    0  0.21716412006E+02 -0.82437093188E+01  0.13982572560E+03  0.14174200095E+03  0.00000000000E+00 0. -1.
<mgrwt>
<rscale>  2 0.23228459E+02</rscale>
<asrwt>0</asrwt>
<pdfrwt beam="2">  1       21 0.17512810E-02 0.23228459E+02</pdfrwt>
<pdfrwt beam="1">  1        2 0.23649652E-01 0.23228459E+02</pdfrwt>
<totfact> 0.30267216E+06</totfact>
</mgrwt>
</event>
<event>
 4    1  0.2245608E+006  0.2095229E+02  0.7546771E-02  0.1727028E+00
         21   -1    0    0  503  502  0.00000000000E+00  0.00000000000E+00  0.17849891256E+02  0.17849891256E+02  0.00000000000E+00 0. -1.
         -2   -1    0    0    0  501 -0.00000000000E+00 -0.00000000000E+00 -0.52792287541E+02  0.52792287541E+02  0.00000000000E+00 0.  1.
         21    1    1    2  503  501  0.17811313800E+02  0.11034288013E+02  0.83431403009E+01  0.22552303681E+02  0.00000000000E+00 0. -1.
         -2    1    1    2    0  502 -0.17811313800E+02 -0.11034288013E+02 -0.43285536586E+02  0.48089875117E+02  0.00000000000E+00 0.  1.
<mgrwt>
<rscale>  2 0.20952289E+02</rscale>
<asrwt>0</asrwt>
<pdfrwt beam="1">  1       21 0.27461372E-02 0.20952289E+02</pdfrwt>
<pdfrwt beam="2">  1       -2 0.81218902E-02 0.20952289E+02</pdfrwt>
<totfact> 0.34001325E+06</totfact>
</mgrwt>
</event>
<event>
 4    1  0.2245608E+006  0.8049508E+02  0.7546771E-02  0.1327652E+00
         21   -1    0    0  501  502  0.00000000000E+00  0.00000000000E+00  0.76126986417E+02  0.76126986417E+02  0.00000000000E+00 0.  1.
         -3   -1    0    0    0  501 -0.00000000000E+00 -0.00000000000E+00 -0.28225860112E+03  0.28225860112E+03  0.00000000000E+00 0.  1.
         21    1    1    2  503  502  0.35909454479E+02  0.72041433861E+02  0.46692048100E+02  0.93056995812E+02  0.00000000000E+00 0.  1.
         -3    1    1    2    0  503 -0.35909454479E+02 -0.72041433861E+02 -0.25282366280E+03  0.26532859172E+03  0.00000000000E+00 0.  1.
<mgrwt>
<rscale>  2 0.80495075E+02</rscale>
<asrwt>0</asrwt>
<pdfrwt beam="1">  1       21 0.11711844E-01 0.80495075E+02</pdfrwt>
<pdfrwt beam="2">  1       -3 0.43424400E-01 0.80495075E+02</pdfrwt>
<totfact> 0.15018796E+04</totfact>
</mgrwt>
</event>
<event>
 4    1  0.2245608E+006  0.2461938E+02  0.7546771E-02  0.1666530E+00
          1   -1    0    0  503    0 -0.00000000000E+00  0.00000000000E+00  0.31438114844E+02  0.31438114844E+02  0.00000000000E+00 0.  1.
         21   -1    0    0  501  502  0.00000000000E+00 -0.00000000000E+00 -0.30797892991E+02  0.30797892991E+02  0.00000000000E+00 0.  1.
         21    1    1    2  503  502 -0.23561827985E+02  0.71382190810E+01 -0.18710183631E+02  0.30922239265E+02  0.00000000000E+00 0.  1.
          1    1    1    2  501    0  0.23561827985E+02 -0.71382190810E+01  0.19350405484E+02  0.31313768570E+02  0.00000000000E+00 0.  1.
<mgrwt>
<rscale>  2 0.24619381E+02</rscale>
<asrwt>0</asrwt>
<pdfrwt beam="2">  1       21 0.47381374E-02 0.24619381E+02</pdfrwt>
<pdfrwt beam="1">  1        1 0.48366331E-02 0.24619381E+02</pdfrwt>
<totfact> 0.36957722E+06</totfact>
</mgrwt>
</event>
<event>
 4    1  0.2245608E+006  0.4089405E+02  0.7546771E-02  0.1501733E+00
         -2   -1    0    0    0  501 -0.00000000000E+00  0.00000000000E+00  0.36697918961E+02  0.36697918961E+02  0.00000000000E+00 0. -1.
         21   -1    0    0  501  502  0.00000000000E+00 -0.00000000000E+00 -0.53960599563E+02  0.53960599563E+02  0.00000000000E+00 0.  1.
         21    1    1    2  503  502  0.38360753241E+02 -0.14169549695E+02 -0.26505975506E+02  0.48732845857E+02  0.00000000000E+00 0.  1.
         -2    1    1    2    0  503 -0.38360753241E+02  0.14169549695E+02  0.92432949049E+01  0.41925672666E+02  0.00000000000E+00 0. -1.
<mgrwt>
<rscale>  2 0.40894052E+02</rscale>
<asrwt>0</asrwt>
<pdfrwt beam="2">  1       21 0.83016307E-02 0.40894052E+02</pdfrwt>
<pdfrwt beam="1">  1       -2 0.56458337E-02 0.40894052E+02</pdfrwt>
<totfact> 0.11468212E+06</totfact>
</mgrwt>
</event>
<event>
 4    1  0.2245608E+006  0.2330465E+02  0.7546771E-02  0.1686619E+00
          2   -1    0    0  502    0 -0.00000000000E+00  0.00000000000E+00  0.52842242108E+02  0.52842242108E+02  0.00000000000E+00 0.  1.
         21   -1    0    0  503  502  0.00000000000E+00 -0.00000000000E+00 -0.40399413349E+02  0.40399413349E+02  0.00000000000E+00 0. -1.
         21    1    1    2  503  501 -0.21455688168E+02 -0.90972632856E+01 -0.34034613130E+02  0.41248777496E+02  0.00000000000E+00 0. -1.
          2    1    1    2  501    0  0.21455688168E+02  0.90972632856E+01  0.46477441889E+02  0.51992877961E+02  0.00000000000E+00 0.  1.
<mgrwt>
<rscale>  2 0.23304651E+02</rscale>
<asrwt>0</asrwt>
<pdfrwt beam="2">  1       21 0.62152943E-02 0.23304651E+02</pdfrwt>
<pdfrwt beam="1">  1        2 0.81295757E-02 0.23304651E+02</pdfrwt>
<totfact> 0.13609484E+06</totfact>
</mgrwt>
</event>
<event>
 4    1  0.2245608E+006  0.2381781E+02  0.7546771E-02  0.1678587E+00
         21   -1    0    0  501  502  0.00000000000E+00  0.00000000000E+00  0.13310508898E+01  0.13310508898E+01  0.00000000000E+00 0. -1.
          2   -1    0    0  503    0 -0.00000000000E+00 -0.00000000000E+00 -0.70231408549E+03  0.70231408549E+03  0.00000000000E+00 0.  1.
         21    1    1    2  503  502 -0.18033438301E+02  0.15559020487E+02 -0.12989139108E+03  0.13205703878E+03  0.00000000000E+00 0. -1.
          2    1    1    2  501    0  0.18033438301E+02 -0.15559020487E+02 -0.57109164353E+03  0.57158809760E+03  0.00000000000E+00 0.  1.
<mgrwt>
<rscale>  2 0.23817809E+02</rscale>
<asrwt>0</asrwt>
<pdfrwt beam="1">  1       21 0.20477719E-03 0.23817809E+02</pdfrwt>
<pdfrwt beam="2">  1        2 0.10804825E+00 0.23817809E+02</pdfrwt>
<totfact> 0.15866312E+07</totfact>
</mgrwt>
</event>
<event>
 4    1  0.2245608E+006  0.2075346E+02  0.7546771E-02  0.1730747E+00
          1   -1    0    0  502    0 -0.00000000000E+00  0.00000000000E+00  0.86161878774E+03  0.86161878774E+03  0.00000000000E+00 0. -1.
         21   -1    0    0  503  502  0.00000000000E+00 -0.00000000000E+00 -0.17259780917E+03  0.17259780917E+03  0.00000000000E+00 0. -1.
         21    1    1    2  503  501  0.14512738707E+02  0.14835306438E+02 -0.17184843850E+03  0.17309705866E+03  0.00000000000E+00 0. -1.
          1    1    1    2  501    0 -0.14512738707E+02 -0.14835306438E+02  0.86086941707E+03  0.86111953825E+03  0.00000000000E+00 0. -1.
<mgrwt>
<rscale>  2 0.20753455E+02</rscale>
<asrwt>0</asrwt>
<pdfrwt beam="2">  1       21 0.26553509E-01 0.20753455E+02</pdfrwt>
<pdfrwt beam="1">  1        1 0.13255673E+00 0.20753455E+02</pdfrwt>
<totfact> 0.35713830E+03</totfact>
</mgrwt>
</event>
<event>
 4    1  0.2245608E+006  0.2015424E+02  0.7546771E-02  0.1742278E+00
         21   -1    0    0  503  502  0.00000000000E+00  0.00000000000E+00  0.63868492891E+02  0.63868492891E+02  0.00000000000E+00 0. -1.
         -1   -1    0    0    0  501 -0.00000000000E+00 -0.00000000000E+00 -0.69740082653E+01  0.69740082653E+01  0.00000000000E+00 0. -1.
         21    1    1    2  503  501 -0.19107787151E+02 -0.64098288769E+01  0.38958776928E+02  0.43863193406E+02  0.00000000000E+00 0. -1.
         -1    1    1    2    0  502  0.19107787151E+02  0.64098288769E+01  0.17935707697E+02  0.26979307750E+02  0.00000000000E+00 0. -1.
<mgrwt>
<rscale>  2 0.20154241E+02</rscale>
<asrwt>0</asrwt>
<pdfrwt beam="1">  1       21 0.98259216E-02 0.20154241E+02</pdfrwt>
<pdfrwt beam="2">  1       -1 0.10729244E-02 0.20154241E+02</pdfrwt>
<totfact> 0.74049691E+06</totfact>
</mgrwt>
</event>
<event>
 4    1  0.2245608E+006  0.2511863E+02  0.7546771E-02  0.1659304E+00
          1   -1    0    0  502    0 -0.00000000000E+00  0.00000000000E+00  0.45540127145E+02  0.45540127145E+02  0.00000000000E+00 0. -1.
         21   -1    0    0  503  502  0.00000000000E+00 -0.00000000000E+00 -0.43153471668E+02  0.43153471668E+02  0.00000000000E+00 0. -1.
         21    1    1    2  503  501 -0.21189170898E+02 -0.13489433382E+02 -0.35347548636E+02  0.43363521200E+02  0.00000000000E+00 0. -1.
          1    1    1    2  501    0  0.21189170898E+02  0.13489433382E+02  0.37734204113E+02  0.45330077612E+02  0.00000000000E+00 0. -1.
<mgrwt>
<rscale>  2 0.25118634E+02</rscale>
<asrwt>0</asrwt>
<pdfrwt beam="2">  1       21 0.66389956E-02 0.25118634E+02</pdfrwt>
<pdfrwt beam="1">  1        1 0.70061734E-02 0.25118634E+02</pdfrwt>
<totfact> 0.13443275E+06</totfact>
</mgrwt>
</event>
<event>
 4    1  0.2245608E+006  0.8680397E+02  0.7546771E-02  0.1310781E+00
         21   -1    0    0  501  502  0.00000000000E+00  0.00000000000E+00  0.11097661307E+03  0.11097661307E+03  0.00000000000E+00 0.  1.
          2   -1    0    0  503    0 -0.00000000000E+00 -0.00000000000E+00 -0.10587316341E+04  0.10587316341E+04  0.00000000000E+00 0. -1.
         21    1    1    2  503  502 -0.17363486746E+02 -0.85049621892E+02  0.91912532145E+02  0.12642326693E+03  0.00000000000E+00 0.  1.
          2    1    1    2  501    0  0.17363486746E+02  0.85049621892E+02 -0.10396675531E+04  0.10432849802E+04  0.00000000000E+00 0. -1.
<mgrwt>
<rscale>  2 0.86803968E+02</rscale>
<asrwt>0</asrwt>
<pdfrwt beam="1">  1       21 0.17073324E-01 0.86803968E+02</pdfrwt>
<pdfrwt beam="2">  1        2 0.16288180E+00 0.86803968E+02</pdfrwt>
<totfact> 0.99270186E+03</totfact>
</mgrwt>
</event>
<event>
 4    1  0.2245608E+006  0.2246840E+02  0.7546771E-02  0.1700275E+00
          1   -1    0    0  503    0 -0.00000000000E+00  0.00000000000E+00  0.10163884913E+04  0.10163884913E+04  0.00000000000E+00 0.  1.
         21   -1    0    0  501  502  0.00000000000E+00 -0.00000000000E+00 -0.10022671255E+01  0.10022671255E+01  0.00000000000E+00 0.  1.
         21    1    1    2  503  502 -0.19836176699E+01 -0.22380669471E+02  0.14639962222E+03  0.14811373499E+03  0.00000000000E+00 0.  1.
          1    1    1    2  501    0  0.19836176699E+01  0.22380669471E+02  0.86898660191E+03  0.86927702340E+03  0.00000000000E+00 0.  1.
<mgrwt>
<rscale>  2 0.22468402E+02</rscale>
<asrwt>0</asrwt>
<pdfrwt beam="2">  1       21 0.15419576E-03 0.22468402E+02</pdfrwt>
<pdfrwt beam="1">  1        1 0.15636664E+00 0.22468402E+02</pdfrwt>
<totfact> 0.84510490E+06</totfact>
</mgrwt>
</event>
<event>
 4    1  0.2245608E+006  0.2906816E+02  0.7546771E-02  0.1608623E+00
         -4   -1    0    0    0  501 -0.00000000000E+00  0.00000000000E+00  0.94505631511E+02  0.94505631511E+02  0.00000000000E+00 0.  1.
         21   -1    0    0  503  502  0.00000000000E+00 -0.00000000000E+00 -0.22963261993E+03  0.22963261993E+03  0.00000000000E+00 0. -1.
         21    1    1    2  503  501 -0.19836726318E+02 -0.21247633777E+02 -0.22644618974E+03  0.22830425861E+03  0.00000000000E+00 0. -1.
         -4    1    1    2    0  502  0.19836726318E+02  0.21247633777E+02  0.91319201320E+02  0.95833992831E+02  0.00000000000E+00 0.  1.
<mgrwt>
<rscale>  2 0.29068155E+02</rscale>
<asrwt>0</asrwt>
<pdfrwt beam="2">  1       21 0.35328095E-01 0.29068155E+02</pdfrwt>
<pdfrwt beam="1">  1       -4 0.14539328E-01 0.29068155E+02</pdfrwt>
<totfact> 0.10301593E+04</totfact>
</mgrwt>
</event>
<event>
 4    1  0.2245608E+006  0.2229055E+02  0.7546771E-02  0.1703275E+00
         -2   -1    0    0    0  501 -0.00000000000E+00  0.00000000000E+00  0.22953713470E+03  0.22953713470E+03  0.00000000000E+00 0. -1.
         21   -1    0    0  503  502  0.00000000000E+00 -0.00000000000E+00 -0.23174126760E+01  0.23174126760E+01  0.00000000000E+00 0. -1.
         21    1    1    2  503  501  0.18745934855E+02  0.12060622663E+02  0.83846255505E+02  0.86758649452E+02  0.00000000000E+00 0. -1.
         -2    1    1    2    0  502 -0.18745934855E+02 -0.12060622663E+02  0.14337346652E+03  0.14509589793E+03  0.00000000000E+00 0. -1.
<mgrwt>
<rscale>  2 0.22290552E+02</rscale>
<asrwt>0</asrwt>
<pdfrwt beam="2">  1       21 0.35652521E-03 0.22290552E+02</pdfrwt>
<pdfrwt beam="1">  1       -2 0.35313387E-01 0.22290552E+02</pdfrwt>
<totfact> 0.72029923E+06</totfact>
</mgrwt>
</event>
<event>
 4    1  0.2245608E+006  0.2727005E+02  0.7546771E-02  0.1630386E+00
         21   -1    0    0  503  502  0.00000000000E+00  0.00000000000E+00  0.97922470311E+02  0.97922470311E+02  0.00000000000E+00 0. -1.
          4   -1    0    0  502    0 -0.00000000000E+00 -0.00000000000E+00 -0.35398292139E+03  0.35398292139E+03  0.00000000000E+00 0. -1.
         21    1    1    2  503  501  0.26042257481E+02 -0.80905080203E+01  0.95485540889E+02  0.99303293065E+02  0.00000000000E+00 0. -1.
          4    1    1    2  501    0 -0.26042257481E+02  0.80905080203E+01 -0.35154599196E+03  0.35260209863E+03  0.00000000000E+00 0. -1.
<mgrwt>
<rscale>  2 0.27270048E+02</rscale>
<asrwt>0</asrwt>
<pdfrwt beam="1">  1       21 0.15064996E-01 0.27270048E+02</pdfrwt>
<pdfrwt beam="2">  1        4 0.54458910E-01 0.27270048E+02</pdfrwt>
<totfact> 0.42732100E+03</totfact>
</mgrwt>
</event>
<event>
 4    1  0.2245608E+006  0.2040462E+02  0.7546771E-02  0.1737399E+00
         -2   -1    0    0    0  501 -0.00000000000E+00  0.00000000000E+00  0.47845055131E+02  0.47845055131E+02  0.00000000000E+00 0. -1.
         21   -1    0    0  501  502  0.00000000000E+00 -0.00000000000E+00 -0.14540862083E+02  0.14540862083E+02  0.00000000000E+00 0.  1.
         21    1    1    2  503  502  0.19887521124E+02 -0.45645496470E+01 -0.31141801060E+01  0.20640899391E+02  0.00000000000E+00 0.  1.
         -2    1    1    2    0  503 -0.19887521124E+02  0.45645496470E+01  0.36418373153E+02  0.41745017823E+02  0.00000000000E+00 0. -1.
<mgrwt>
<rscale>  2 0.20404622E+02</rscale>
<asrwt>0</asrwt>
<pdfrwt beam="2">  1       21 0.22370557E-02 0.20404622E+02</pdfrwt>
<pdfrwt beam="1">  1       -2 0.73607776E-02 0.20404622E+02</pdfrwt>
<totfact> 0.53365009E+06</totfact>
</mgrwt>
</event>
<event>
 4    1  0.2245608E+006  0.5873532E+02  0.7546771E-02  0.1403217E+00
         -2   -1    0    0    0  501 -0.00000000000E+00  0.00000000000E+00  0.88065244757E+02  0.88065244757E+02  0.00000000000E+00 0.  1.
         21   -1    0    0  503  502  0.00000000000E+00 -0.00000000000E+00 -0.12446121124E+03  0.12446121124E+03  0.00000000000E+00 0. -1.
         21    1    1    2  503  501 -0.53961155225E+02 -0.23195517336E+02 -0.10616276016E+03  0.12132753168E+03  0.00000000000E+00 0. -1.
         -2    1    1    2    0  502  0.53961155225E+02  0.23195517336E+02  0.69766793676E+02  0.91198924322E+02  0.00000000000E+00 0.  1.
<mgrwt>
<rscale>  2 0.58735324E+02</rscale>
<asrwt>0</asrwt>
<pdfrwt beam="2">  1       21 0.19147879E-01 0.58735324E+02</pdfrwt>
<pdfrwt beam="1">  1       -2 0.13548499E-01 0.58735324E+02</pdfrwt>
<totfact> 0.75130958E+04</totfact>
</mgrwt>
</event>
<event>
 4    1  0.2245608E+006  0.2155756E+02  0.7546771E-02  0.1716018E+00
         -2   -1    0    0    0  501 -0.00000000000E+00  0.00000000000E+00  0.34168197390E+03  0.34168197390E+03  0.00000000000E+00 0. -1.
         21   -1    0    0  501  502  0.00000000000E+00 -0.00000000000E+00 -0.19762069736E+01  0.19762069736E+01  0.00000000000E+00 0.  1.
         21    1    1    2  503  502 -0.18175181692E+02 -0.11592723838E+02  0.73912488556E+02  0.76992106349E+02  0.00000000000E+00 0.  1.
         -2    1    1    2    0  503  0.18175181692E+02  0.11592723838E+02  0.26579327837E+03  0.26666607452E+03  0.00000000000E+00 0. -1.
<mgrwt>
<rscale>  2 0.21557562E+02</rscale>
<asrwt>0</asrwt>
<pdfrwt beam="2">  1       21 0.30403211E-03 0.21557562E+02</pdfrwt>
<pdfrwt beam="1">  1       -2 0.52566411E-01 0.21557562E+02</pdfrwt>
<totfact> 0.43250076E+06</totfact>
</mgrwt>
</event>
<event>
 4    1  0.2245608E+006  0.3023860E+02  0.7546771E-02  0.1595466E+00
          2   -1    0    0  503    0 -0.00000000000E+00  0.00000000000E+00  0.97624699448E+03  0.97624699448E+03  0.00000000000E+00 0. -1.
         21   -1    0    0  501  502  0.00000000000E+00 -0.00000000000E+00 -0.26344623327E+01  0.26344623327E+01  0.00000000000E+00 0. -1.
         21    1    1    2  503  502  0.26760791407E+02  0.14079515743E+02  0.93887515828E+02  0.98636901557E+02  0.00000000000E+00 0. -1.
          2    1    1    2  501    0 -0.26760791407E+02 -0.14079515743E+02  0.87972501632E+03  0.88024455525E+03  0.00000000000E+00 0. -1.
<mgrwt>
<rscale>  2 0.30238597E+02</rscale>
<asrwt>0</asrwt>
<pdfrwt beam="2">  1       21 0.40530268E-03 0.30238597E+02</pdfrwt>
<pdfrwt beam="1">  1        2 0.15019156E+00 0.30238597E+02</pdfrwt>
<totfact> 0.42073236E+06</totfact>
</mgrwt>
</event>
<event>
 4    1  0.2245608E+006  0.2100552E+02  0.7546771E-02  0.1726041E+00
          1   -1    0    0  503    0 -0.00000000000E+00  0.00000000000E+00  0.10760248606E+04  0.10760248606E+04  0.00000000000E+00 0.  1.
         21   -1    0    0  501  502  0.00000000000E+00 -0.00000000000E+00 -0.43533089429E+00  0.43533089429E+00  0.00000000000E+00 0.  1.
         21    1    1    2  503  502 -0.14980953106E+01  0.20952031306E+02  0.40810930432E+03  0.40864952732E+03  0.00000000000E+00 0.  1.
          1    1    1    2  501    0  0.14980953106E+01 -0.20952031306E+02  0.66748022536E+03  0.66781066415E+03  0.00000000000E+00 0.  1.
<mgrwt>
<rscale>  2 0.21005521E+02</rscale>
<asrwt>0</asrwt>
<pdfrwt beam="2">  1       21 0.66974845E-04 0.21005521E+02</pdfrwt>
<pdfrwt beam="1">  1        1 0.16554016E+00 0.21005521E+02</pdfrwt>
<totfact> 0.24824076E+07</totfact>
</mgrwt>
</event>
<event>
 4    1  0.2245608E+006  0.2829100E+02  0.7546771E-02  0.1617786E+00
         21   -1    0    0  503  502  0.00000000000E+00  0.00000000000E+00  0.25436135000E+02  0.25436135000E+02  0.00000000000E+00 0.  1.
          1   -1    0    0  502    0 -0.00000000000E+00 -0.00000000000E+00 -0.58648253132E+02  0.58648253132E+02  0.00000000000E+00 0. -1.
         21    1    1    2  503  501 -0.28188260477E+02  0.24088794614E+01  0.12015828020E+02  0.30736962309E+02  0.00000000000E+00 0.  1.
          1    1    1    2  501    0  0.28188260477E+02 -0.24088794614E+01 -0.45227946151E+02  0.53347425824E+02  0.00000000000E+00 0. -1.
<mgrwt>
<rscale>  2 0.28291001E+02</rscale>
<asrwt>0</asrwt>
<pdfrwt beam="1">  1       21 0.39132516E-02 0.28291001E+02</pdfrwt>
<pdfrwt beam="2">  1        1 0.90228080E-02 0.28291001E+02</pdfrwt>
<totfact> 0.23381054E+06</totfact>
</mgrwt>
</event>
<event>
 4    1  0.2245608E+006  0.2240190E+02  0.7546771E-02  0.1701393E+00
          2   -1    0    0  502    0 -0.00000000000E+00  0.00000000000E+00  0.90095175974E+03  0.90095175974E+03  0.00000000000E+00 0. -1.
         21   -1    0    0  503  502  0.00000000000E+00 -0.00000000000E+00 -0.98630809583E+01  0.98630809583E+01  0.00000000000E+00 0.  1.
         21    1    1    2  503  501  0.22280931237E+02  0.23248955492E+01  0.31833397091E+01  0.22626946056E+02  0.00000000000E+00 0.  1.
          2    1    1    2  501    0 -0.22280931237E+02 -0.23248955492E+01  0.88790533907E+03  0.88818789464E+03  0.00000000000E+00 0. -1.
<mgrwt>
<rscale>  2 0.22401898E+02</rscale>
<asrwt>0</asrwt>
<pdfrwt beam="2">  1       21 0.15173978E-02 0.22401898E+02</pdfrwt>
<pdfrwt beam="1">  1        2 0.13860790E+00 0.22401898E+02</pdfrwt>
<totfact> 0.60902783E+05</totfact>
</mgrwt>
</event>
<event>
 4    1  0.2245608E+006  0.2710069E+02  0.7546771E-02  0.1632542E+00
         21   -1    0    0  503  502  0.00000000000E+00  0.00000000000E+00  0.14890331200E+01  0.14890331200E+01  0.00000000000E+00 0. -1.
         -4   -1    0    0    0  501 -0.00000000000E+00 -0.00000000000E+00 -0.64974634443E+03  0.64974634443E+03  0.00000000000E+00 0. -1.
         21    1    1    2  503  501 -0.23354170948E+02 -0.13748828167E+02 -0.16431828918E+03  0.16653812697E+03  0.00000000000E+00 0. -1.
         -4    1    1    2    0  502  0.23354170948E+02  0.13748828167E+02 -0.48393902214E+03  0.48469725058E+03  0.00000000000E+00 0. -1.
<mgrwt>
<rscale>  2 0.27100693E+02</rscale>
<asrwt>0</asrwt>
<pdfrwt beam="1">  1       21 0.22908214E-03 0.27100693E+02</pdfrwt>
<pdfrwt beam="2">  1       -4 0.99960921E-01 0.27100693E+02</pdfrwt>
<totfact> 0.80185247E+05</totfact>
</mgrwt>
</event>
<event>
 4    1  0.2245608E+006  0.3407380E+02  0.7546771E-02  0.1556983E+00
         21   -1    0    0  501  502  0.00000000000E+00  0.00000000000E+00  0.97233314786E+01  0.97233314786E+01  0.00000000000E+00 0.  1.
         -1   -1    0    0    0  501 -0.00000000000E+00 -0.00000000000E+00 -0.14958806213E+03  0.14958806213E+03  0.00000000000E+00 0.  1.
         21    1    1    2  503  502  0.11486861720E+00  0.34073601838E+02 -0.34152124637E+02  0.48243042547E+02  0.00000000000E+00 0.  1.
         -1    1    1    2    0  503 -0.11486861720E+00 -0.34073601838E+02 -0.10571260601E+03  0.11106835106E+03  0.00000000000E+00 0.  1.
<mgrwt>
<rscale>  2 0.34073795E+02</rscale>
<asrwt>0</asrwt>
<pdfrwt beam="1">  1       21 0.14958972E-02 0.34073795E+02</pdfrwt>
<pdfrwt beam="2">  1       -1 0.23013548E-01 0.34073795E+02</pdfrwt>
<totfact> 0.21779457E+06</totfact>
</mgrwt>
</event>
<event>
 4    1  0.2245608E+006  0.2877520E+02  0.7546771E-02  0.1612036E+00
         21   -1    0    0  501  502  0.00000000000E+00  0.00000000000E+00  0.74560490885E+03  0.74560490885E+03  0.00000000000E+00 0. -1.
         -3   -1    0    0    0  501 -0.00000000000E+00 -0.00000000000E+00 -0.15427995960E+02  0.15427995960E+02  0.00000000000E+00 0. -1.
         21    1    1    2  503  502 -0.26325603035E+02 -0.11617860361E+02  0.73165418033E+03  0.73221981102E+03  0.00000000000E+00 0. -1.
         -3    1    1    2    0  503  0.26325603035E+02  0.11617860361E+02 -0.14772674431E+01  0.28813093788E+02  0.00000000000E+00 0. -1.
<mgrwt>
<rscale>  2 0.28775199E+02</rscale>
<asrwt>0</asrwt>
<pdfrwt beam="1">  1       21 0.11470842E+00 0.28775199E+02</pdfrwt>
<pdfrwt beam="2">  1       -3 0.23735384E-02 0.28775199E+02</pdfrwt>
<totfact> 0.18265376E+04</totfact>
</mgrwt>
</event>
<event>
 4    1  0.2245608E+006  0.2658469E+02  0.7546771E-02  0.1639231E+00
          1   -1    0    0  503    0 -0.00000000000E+00  0.00000000000E+00  0.80726889372E+02  0.80726889372E+02  0.00000000000E+00 0.  1.
         21   -1    0    0  501  502  0.00000000000E+00 -0.00000000000E+00 -0.17736167268E+02  0.17736167268E+02  0.00000000000E+00 0. -1.
         21    1    1    2  503  502  0.16641374687E+02  0.20731873475E+02 -0.35382746541E+01  0.26819122223E+02  0.00000000000E+00 0. -1.
          1    1    1    2  501    0 -0.16641374687E+02 -0.20731873475E+02  0.66528996758E+02  0.71643934418E+02  0.00000000000E+00 0.  1.
<mgrwt>
<rscale>  2 0.26584694E+02</rscale>
<asrwt>0</asrwt>
<pdfrwt beam="2">  1       21 0.27286412E-02 0.26584694E+02</pdfrwt>
<pdfrwt beam="1">  1        1 0.12419521E-01 0.26584694E+02</pdfrwt>
<totfact> 0.27262931E+06</totfact>
</mgrwt>
</event>
<event>
 4    1  0.2245608E+006  0.2333703E+02  0.7546771E-02  0.1686105E+00
         21   -1    0    0  503  502  0.00000000000E+00  0.00000000000E+00  0.86074753865E+01  0.86074753865E+01  0.00000000000E+00 0.  1.
          2   -1    0    0  502    0 -0.00000000000E+00 -0.00000000000E+00 -0.12668069815E+04  0.12668069815E+04  0.00000000000E+00 0. -1.
         21    1    1    2  503  501 -0.23109347418E+02  0.32519128564E+01 -0.75221230215E+01  0.24519363982E+02  0.00000000000E+00 0.  1.
          2    1    1    2  501    0  0.23109347418E+02 -0.32519128564E+01 -0.12506773831E+04  0.12508950929E+04  0.00000000000E+00 0. -1.
<mgrwt>
<rscale>  2 0.23337028E+02</rscale>
<asrwt>0</asrwt>
<pdfrwt beam="1">  1       21 0.13242262E-02 0.23337028E+02</pdfrwt>
<pdfrwt beam="2">  1        2 0.19489349E+00 0.23337028E+02</pdfrwt>
<totfact> 0.48388857E+05</totfact>
</mgrwt>
</event>
<event>
 4    1  0.2245608E+006  0.2153764E+02  0.7546771E-02  0.1716373E+00
          1   -1    0    0  502    0 -0.00000000000E+00  0.00000000000E+00  0.14278617801E+03  0.14278617801E+03  0.00000000000E+00 0.  1.
         21   -1    0    0  503  502  0.00000000000E+00 -0.00000000000E+00 -0.16966818937E+02  0.16966818937E+02  0.00000000000E+00 0. -1.
         21    1    1    2  503  501  0.21411235841E+02 -0.23299748690E+01 -0.89137352474E+01  0.23309321723E+02  0.00000000000E+00 0. -1.
          1    1    1    2  501    0 -0.21411235841E+02  0.23299748690E+01  0.13473309432E+03  0.13644367522E+03  0.00000000000E+00 0.  1.
<mgrwt>
<rscale>  2 0.21537637E+02</rscale>
<asrwt>0</asrwt>
<pdfrwt beam="2">  1       21 0.26102799E-02 0.21537637E+02</pdfrwt>
<pdfrwt beam="1">  1        1 0.21967104E-01 0.21537637E+02</pdfrwt>
<totfact> 0.13963287E+06</totfact>
</mgrwt>
</event>
<event>
 4    1  0.2245608E+006  0.2011318E+02  0.7546771E-02  0.1743087E+00
         21   -1    0    0  503  502  0.00000000000E+00  0.00000000000E+00  0.13874135725E+01  0.13874135725E+01  0.00000000000E+00 0. -1.
         -2   -1    0    0    0  501 -0.00000000000E+00 -0.00000000000E+00 -0.30051191183E+03  0.30051191183E+03  0.00000000000E+00 0.  1.
         21    1    1    2  503  501 -0.13727034868E+02 -0.14700635699E+02 -0.12353631434E+03  0.12516293836E+03  0.00000000000E+00 0. -1.
         -2    1    1    2    0  502  0.13727034868E+02  0.14700635699E+02 -0.17558818392E+03  0.17673638705E+03  0.00000000000E+00 0.  1.
<mgrwt>
<rscale>  2 0.20113184E+02</rscale>
<asrwt>0</asrwt>
<pdfrwt beam="1">  1       21 0.21344793E-03 0.20113184E+02</pdfrwt>
<pdfrwt beam="2">  1       -2 0.46232670E-01 0.20113184E+02</pdfrwt>
<totfact> 0.89916490E+06</totfact>
</mgrwt>
</event>
<event>
 4    1  0.2245608E+006  0.3141037E+02  0.7546771E-02  0.1583002E+00
          1   -1    0    0  503    0 -0.00000000000E+00  0.00000000000E+00  0.25527690946E+03  0.25527690946E+03  0.00000000000E+00 0.  1.
         21   -1    0    0  501  502  0.00000000000E+00 -0.00000000000E+00 -0.52569676815E+02  0.52569676815E+02  0.00000000000E+00 0.  1.
         21    1    1    2  503  502  0.12022664498E+02  0.29018388236E+02 -0.46803534808E+02  0.56366498808E+02  0.00000000000E+00 0.  1.
          1    1    1    2  501    0 -0.12022664498E+02 -0.29018388236E+02  0.24951076745E+03  0.25148008747E+03  0.00000000000E+00 0.  1.
<mgrwt>
<rscale>  2 0.31410370E+02</rscale>
<asrwt>0</asrwt>
<pdfrwt beam="2">  1       21 0.80876427E-02 0.31410370E+02</pdfrwt>
<pdfrwt beam="1">  1        1 0.39273370E-01 0.31410370E+02</pdfrwt>
<totfact> 0.12370239E+05</totfact>
</mgrwt>
</event>
<event>
 4    1  0.2245608E+006  0.5331040E+02  0.7546771E-02  0.1428262E+00
         -1   -1    0    0    0  501 -0.00000000000E+00  0.00000000000E+00  0.94774357536E+02  0.94774357536E+02  0.00000000000E+00 0.  1.
         21   -1    0    0  501  502  0.00000000000E+00 -0.00000000000E+00 -0.44794396454E+02  0.44794396454E+02  0.00000000000E+00 0.  1.
         21    1    1    2  503  502 -0.30359903833E+02  0.43820937828E+02 -0.15132313887E+02  0.55416471166E+02  0.00000000000E+00 0.  1.
         -1    1    1    2    0  503  0.30359903833E+02 -0.43820937828E+02  0.65112274969E+02  0.84152282824E+02  0.00000000000E+00 0.  1.
<mgrwt>
<rscale>  2 0.53310396E+02</rscale>
<asrwt>0</asrwt>
<pdfrwt beam="2">  1       21 0.68914456E-02 0.53310396E+02</pdfrwt>
<pdfrwt beam="1">  1       -1 0.14580670E-01 0.53310396E+02</pdfrwt>
<totfact> 0.41378961E+05</totfact>
</mgrwt>
</event>
<event>
 4    1  0.2245608E+006  0.3095323E+02  0.7546771E-02  0.1587785E+00
          2   -1    0    0  502    0 -0.00000000000E+00  0.00000000000E+00  0.62071784348E+03  0.62071784348E+03  0.00000000000E+00 0. -1.
         21   -1    0    0  503  502  0.00000000000E+00 -0.00000000000E+00 -0.14189381013E+02  0.14189381013E+02  0.00000000000E+00 0.  1.
         21    1    1    2  503  501  0.62145810167E+01 -0.30322950016E+02  0.35741146841E+01  0.31158892962E+02  0.00000000000E+00 0.  1.
          2    1    1    2  501    0 -0.62145810167E+01  0.30322950016E+02  0.60295434778E+03  0.60374833153E+03  0.00000000000E+00 0. -1.
<mgrwt>
<rscale>  2 0.30953228E+02</rscale>
<asrwt>0</asrwt>
<pdfrwt beam="2">  1       21 0.21829822E-02 0.30953228E+02</pdfrwt>
<pdfrwt beam="1">  1        2 0.95495032E-01 0.30953228E+02</pdfrwt>
<totfact> 0.55404036E+05</totfact>
</mgrwt>
</event>
<event>
 4    1  0.2245608E+006  0.2138639E+02  0.7546771E-02  0.1719085E+00
         21   -1    0    0  503  502  0.00000000000E+00  0.00000000000E+00  0.13012174244E+02  0.13012174244E+02  0.00000000000E+00 0. -1.
          2   -1    0    0  502    0 -0.00000000000E+00 -0.00000000000E+00 -0.58591686498E+03  0.58591686498E+03  0.00000000000E+00 0.  1.
         21    1    1    2  503  501 -0.18549901611E+02 -0.10643250046E+02  0.38906057664E+01  0.21737397143E+02  0.00000000000E+00 0. -1.
          2    1    1    2  501    0  0.18549901611E+02  0.10643250046E+02 -0.57679529651E+03  0.57719164209E+03  0.00000000000E+00 0.  1.
<mgrwt>
<rscale>  2 0.21386389E+02</rscale>
<asrwt>0</asrwt>
<pdfrwt beam="1">  1       21 0.20018734E-02 0.21386389E+02</pdfrwt>
<pdfrwt beam="2">  1        2 0.90141035E-01 0.21386389E+02</pdfrwt>
<totfact> 0.63552655E+05</totfact>
</mgrwt>
</event>
<event>
 4    1  0.2245608E+006  0.4961906E+02  0.7546771E-02  0.1447407E+00
         21   -1    0    0  503  502  0.00000000000E+00  0.00000000000E+00  0.35912068652E+01  0.35912068652E+01  0.00000000000E+00 0. -1.
          2   -1    0    0  502    0 -0.00000000000E+00 -0.00000000000E+00 -0.29755831275E+04  0.29755831275E+04  0.00000000000E+00 0.  1.
         21    1    1    2  503  501  0.23180316589E+02  0.43871678356E+02 -0.17922902528E+03  0.18597068248E+03  0.00000000000E+00 0. -1.
          2    1    1    2  501    0 -0.23180316589E+02 -0.43871678356E+02 -0.27927628953E+04  0.27932036519E+04  0.00000000000E+00 0.  1.
<mgrwt>
<rscale>  2 0.49619061E+02</rscale>
<asrwt>0</asrwt>
<pdfrwt beam="1">  1       21 0.55249105E-03 0.49619061E+02</pdfrwt>
<pdfrwt beam="2">  1        2 0.45778394E+00 0.49619061E+02</pdfrwt>
<totfact> 0.27431443E+05</totfact>
</mgrwt>
</event>
<event>
 4    1  0.2245608E+006  0.2371316E+02  0.7546771E-02  0.1680204E+00
          4   -1    0    0  502    0 -0.00000000000E+00  0.00000000000E+00  0.34238240139E+03  0.34238240139E+03  0.00000000000E+00 0. -1.
         21   -1    0    0  503  502  0.00000000000E+00 -0.00000000000E+00 -0.26415606258E+01  0.26415606258E+01  0.00000000000E+00 0. -1.
         21    1    1    2  503  501  0.11169717846E+02 -0.20917733301E+02  0.63770281366E+02  0.68036482483E+02  0.00000000000E+00 0. -1.
          4    1    1    2  501    0 -0.11169717846E+02  0.20917733301E+02  0.27597055940E+03  0.27698747954E+03  0.00000000000E+00 0. -1.
<mgrwt>
<rscale>  2 0.23713164E+02</rscale>
<asrwt>0</asrwt>
<pdfrwt beam="2">  1       21 0.40639421E-03 0.23713164E+02</pdfrwt>
<pdfrwt beam="1">  1        4 0.52674180E-01 0.23713164E+02</pdfrwt>
<totfact> 0.12439702E+06</totfact>
</mgrwt>
</event>
<event>
 4    1  0.2245608E+006  0.2163793E+02  0.7546771E-02  0.1714590E+00
         21   -1    0    0  503  502  0.00000000000E+00  0.00000000000E+00  0.15114940631E+03  0.15114940631E+03  0.00000000000E+00 0. -1.
          3   -1    0    0  502    0 -0.00000000000E+00 -0.00000000000E+00 -0.76514740737E+02  0.76514740737E+02  0.00000000000E+00 0.  1.
         21    1    1    2  503  501  0.21483954602E+02 -0.25767672864E+01  0.14882143156E+03  0.15038623118E+03  0.00000000000E+00 0. -1.
          3    1    1    2  501    0 -0.21483954602E+02  0.25767672864E+01 -0.74186765984E+02  0.77277915876E+02  0.00000000000E+00 0.  1.
<mgrwt>
<rscale>  2 0.21637930E+02</rscale>
<asrwt>0</asrwt>
<pdfrwt beam="1">  1       21 0.23253755E-01 0.21637930E+02</pdfrwt>
<pdfrwt beam="2">  1        3 0.11771499E-01 0.21637930E+02</pdfrwt>
<totfact> 0.35727575E+04</totfact>
</mgrwt>
</event>
<event>
 4    1  0.2245608E+006  0.2201496E+02  0.7546771E-02  0.1707993E+00
         21   -1    0    0  501  502  0.00000000000E+00  0.00000000000E+00  0.37459581510E+00  0.37459581510E+00  0.00000000000E+00 0. -1.
         -1   -1    0    0    0  501 -0.00000000000E+00 -0.00000000000E+00 -0.15631965722E+04  0.15631965722E+04  0.00000000000E+00 0. -1.
         21    1    1    2  503  502  0.17928941724E+02 -0.12775430868E+02 -0.45687499928E+03  0.45740509786E+03  0.00000000000E+00 0. -1.
         -1    1    1    2    0  503 -0.17928941724E+02  0.12775430868E+02 -0.11059469771E+04  0.11061660701E+04  0.00000000000E+00 0. -1.
<mgrwt>
<rscale>  2 0.22014963E+02</rscale>
<asrwt>0</asrwt>
<pdfrwt beam="1">  1       21 0.57628961E-04 0.22014963E+02</pdfrwt>
<pdfrwt beam="2">  1       -1 0.24049664E+00 0.22014963E+02</pdfrwt>
<totfact> 0.18469811E+06</totfact>
</mgrwt>
</event>
<event>
 4    1  0.2245608E+006  0.2333576E+02  0.7546771E-02  0.1686125E+00
          1   -1    0    0  502    0 -0.00000000000E+00  0.00000000000E+00  0.57099432131E+03  0.57099432131E+03  0.00000000000E+00 0. -1.
         21   -1    0    0  503  502  0.00000000000E+00 -0.00000000000E+00 -0.24026523255E+02  0.24026523255E+02  0.00000000000E+00 0. -1.
         21    1    1    2  503  501 -0.19177932777E+02  0.13295277575E+02 -0.18062099277E+02  0.29509268742E+02  0.00000000000E+00 0. -1.
          1    1    1    2  501    0  0.19177932777E+02 -0.13295277575E+02  0.56502989733E+03  0.56551157582E+03  0.00000000000E+00 0. -1.
<mgrwt>
<rscale>  2 0.23335756E+02</rscale>
<asrwt>0</asrwt>
<pdfrwt beam="2">  1       21 0.36963886E-02 0.23335756E+02</pdfrwt>
<pdfrwt beam="1">  1        1 0.87845270E-01 0.23335756E+02</pdfrwt>
<totfact> 0.16274901E+05</totfact>
</mgrwt>
</event>
<event>
 4    1  0.2245608E+006  0.2908481E+02  0.7546771E-02  0.1608431E+00
          1   -1    0    0  502    0 -0.00000000000E+00  0.00000000000E+00  0.50927045116E+03  0.50927045116E+03  0.00000000000E+00 0.  1.
         21   -1    0    0  503  502  0.00000000000E+00 -0.00000000000E+00 -0.56657958222E+02  0.56657958222E+02  0.00000000000E+00 0. -1.
         21    1    1    2  503  501 -0.25582004937E+02  0.13837893687E+02 -0.52479238164E+02  0.59999972639E+02  0.00000000000E+00 0. -1.
          1    1    1    2  501    0  0.25582004937E+02 -0.13837893687E+02  0.50509173111E+03  0.50592843675E+03  0.00000000000E+00 0.  1.
<mgrwt>
<rscale>  2 0.29084812E+02</rscale>
<asrwt>0</asrwt>
<pdfrwt beam="2">  1       21 0.87166093E-02 0.29084812E+02</pdfrwt>
<pdfrwt beam="1">  1        1 0.78349297E-01 0.29084812E+02</pdfrwt>
<totfact> 0.47983876E+04</totfact>
</mgrwt>
</event>
<event>
 4    1  0.2245608E+006  0.2799619E+02  0.7546771E-02  0.1621356E+00
          2   -1    0    0  503    0 -0.00000000000E+00  0.00000000000E+00  0.45050930451E+03  0.45050930451E+03  0.00000000000E+00 0.  1.
         21   -1    0    0  501  502  0.00000000000E+00 -0.00000000000E+00 -0.15437615110E+03  0.15437615110E+03  0.00000000000E+00 0.  1.
         21    1    1    2  503  502 -0.14747467169E+02  0.23797029438E+02 -0.15266709744E+03  0.15521285076E+03  0.00000000000E+00 0.  1.
          2    1    1    2  501    0  0.14747467169E+02 -0.23797029438E+02  0.44880025085E+03  0.44967260486E+03  0.00000000000E+00 0.  1.
<mgrwt>
<rscale>  2 0.27996185E+02</rscale>
<asrwt>0</asrwt>
<pdfrwt beam="2">  1       21 0.23750177E-01 0.27996185E+02</pdfrwt>
<pdfrwt beam="1">  1        2 0.69309123E-01 0.27996185E+02</pdfrwt>
<totfact> 0.14964555E+04</totfact>
</mgrwt>
</event>
<event>
 4    1  0.2245608E+006  0.2425182E+02  0.7546771E-02  0.1671987E+00
         21   -1    0    0  501  502  0.00000000000E+00  0.00000000000E+00  0.78861366440E+00  0.78861366440E+00  0.00000000000E+00 0. -1.
          2   -1    0    0  503    0 -0.00000000000E+00 -0.00000000000E+00 -0.75484801468E+03  0.75484801468E+03  0.00000000000E+00 0. -1.
         21    1    1    2  503  502 -0.12516885509E+02  0.20772061484E+02 -0.33567337726E+03  0.33654831326E+03  0.00000000000E+00 0. -1.
          2    1    1    2  501    0  0.12516885509E+02 -0.20772061484E+02 -0.41838602376E+03  0.41908831508E+03  0.00000000000E+00 0. -1.
<mgrwt>
<rscale>  2 0.24251824E+02</rscale>
<asrwt>0</asrwt>
<pdfrwt beam="1">  1       21 0.12132528E-03 0.24251824E+02</pdfrwt>
<pdfrwt beam="2">  1        2 0.11613037E+00 0.24251824E+02</pdfrwt>
<totfact> 0.31277541E+07</totfact>
</mgrwt>
</event>
<event>
 4    1  0.2245608E+006  0.2833535E+02  0.7546771E-02  0.1617253E+00
         -2   -1    0    0    0  501 -0.00000000000E+00  0.00000000000E+00  0.38784230893E+03  0.38784230893E+03  0.00000000000E+00 0.  1.
         21   -1    0    0  501  502  0.00000000000E+00 -0.00000000000E+00 -0.74691751690E+01  0.74691751690E+01  0.00000000000E+00 0. -1.
         21    1    1    2  503  502  0.23907951290E+02  0.15208619565E+02  0.22139576670E+02  0.35959047527E+02  0.00000000000E+00 0. -1.
         -2    1    1    2    0  503 -0.23907951290E+02 -0.15208619565E+02  0.35823355709E+03  0.35935243657E+03  0.00000000000E+00 0.  1.
<mgrwt>
<rscale>  2 0.28335353E+02</rscale>
<asrwt>0</asrwt>
<pdfrwt beam="2">  1       21 0.11491042E-02 0.28335353E+02</pdfrwt>
<pdfrwt beam="1">  1       -2 0.59668032E-01 0.28335353E+02</pdfrwt>
<totfact> 0.50274535E+05</totfact>
</mgrwt>
</event>
<event>
 4    1  0.2245608E+006  0.2601580E+02  0.7546771E-02  0.1646826E+00
         21   -1    0    0  503  502  0.00000000000E+00  0.00000000000E+00  0.39735095499E+02  0.39735095499E+02  0.00000000000E+00 0. -1.
          2   -1    0    0  502    0 -0.00000000000E+00 -0.00000000000E+00 -0.22755924741E+02  0.22755924741E+02  0.00000000000E+00 0.  1.
         21    1    1    2  503  501  0.25975937170E+02 -0.14396117731E+01  0.24158398725E+02  0.35502817112E+02  0.00000000000E+00 0. -1.
          2    1    1    2  501    0 -0.25975937170E+02  0.14396117731E+01 -0.71792279663E+01  0.26988203129E+02  0.00000000000E+00 0.  1.
<mgrwt>
<rscale>  2 0.26015799E+02</rscale>
<asrwt>0</asrwt>
<pdfrwt beam="1">  1       21 0.61130916E-02 0.26015799E+02</pdfrwt>
<pdfrwt beam="2">  1        2 0.35009115E-02 0.26015799E+02</pdfrwt>
<totfact> 0.40108007E+06</totfact>
</mgrwt>
</event>
<event>
 4    1  0.2245608E+006  0.2617518E+02  0.7546771E-02  0.1644674E+00
         -2   -1    0    0    0  501 -0.00000000000E+00  0.00000000000E+00  0.18955399341E+02  0.18955399341E+02  0.00000000000E+00 0.  1.
         21   -1    0    0  501  502  0.00000000000E+00 -0.00000000000E+00 -0.11703875143E+03  0.11703875143E+03  0.00000000000E+00 0.  1.
         21    1    1    2  503  502  0.28778189640E+01 -0.26016498769E+02 -0.10557223591E+03  0.10876873193E+03  0.00000000000E+00 0.  1.
         -2    1    1    2    0  503 -0.28778189640E+01  0.26016498769E+02  0.74888838228E+01  0.27225418841E+02  0.00000000000E+00 0.  1.
<mgrwt>
<rscale>  2 0.26175180E+02</rscale>
<asrwt>0</asrwt>
<pdfrwt beam="2">  1       21 0.18005962E-01 0.26175180E+02</pdfrwt>
<pdfrwt beam="1">  1       -2 0.29162153E-02 0.26175180E+02</pdfrwt>
<totfact> 0.72221394E+05</totfact>
</mgrwt>
</event>
<event>
 4    1  0.2245608E+006  0.2728507E+02  0.7546771E-02  0.1630196E+00
         21   -1    0    0  503  502  0.00000000000E+00  0.00000000000E+00  0.19853642452E+04  0.19853642452E+04  0.00000000000E+00 0. -1.
         -3   -1    0    0    0  501 -0.00000000000E+00 -0.00000000000E+00 -0.33797730738E+02  0.33797730738E+02  0.00000000000E+00 0. -1.
         21    1    1    2  503  501 -0.25373497360E+02 -0.10032991135E+02  0.19797480349E+04  0.19799360487E+04  0.00000000000E+00 0. -1.
         -3    1    1    2    0  502  0.25373497360E+02  0.10032991135E+02 -0.28181520390E+02  0.39225927279E+02  0.00000000000E+00 0. -1.
<mgrwt>
<rscale>  2 0.27285074E+02</rscale>
<asrwt>0</asrwt>
<pdfrwt beam="1">  1       21 0.30544056E+00 0.27285074E+02</pdfrwt>
<pdfrwt beam="2">  1       -3 0.51996524E-02 0.27285074E+02</pdfrwt>
<totfact> 0.42342216E+02</totfact>
</mgrwt>
</event>
<event>
 4    1  0.2245608E+006  0.2382436E+02  0.7546771E-02  0.1678486E+00
          2   -1    0    0  502    0 -0.00000000000E+00  0.00000000000E+00  0.50589457703E+03  0.50589457703E+03  0.00000000000E+00 0. -1.
         21   -1    0    0  503  502  0.00000000000E+00 -0.00000000000E+00 -0.23717976336E+02  0.23717976336E+02  0.00000000000E+00 0.  1.
         21    1    1    2  503  501  0.10877437537E+02  0.21196257492E+02 -0.17378803055E+02  0.29489367146E+02  0.00000000000E+00 0.  1.
          2    1    1    2  501    0 -0.10877437537E+02 -0.21196257492E+02  0.49955540375E+03  0.50012318622E+03  0.00000000000E+00 0. -1.
<mgrwt>
<rscale>  2 0.23824357E+02</rscale>
<asrwt>0</asrwt>
<pdfrwt beam="2">  1       21 0.36489198E-02 0.23824357E+02</pdfrwt>
<pdfrwt beam="1">  1        2 0.77829927E-01 0.23824357E+02</pdfrwt>
<totfact> 0.29616451E+05</totfact>
</mgrwt>
</event>
<event>
 4    1  0.2245608E+006  0.2019594E+02  0.7546771E-02  0.1741459E+00
          1   -1    0    0  502    0 -0.00000000000E+00  0.00000000000E+00  0.54729602933E+03  0.54729602933E+03  0.00000000000E+00 0. -1.
         21   -1    0    0  503  502  0.00000000000E+00 -0.00000000000E+00 -0.25143010991E+01  0.25143010991E+01  0.00000000000E+00 0. -1.
         21    1    1    2  503  501 -0.19412242629E+02 -0.55714417615E+01  0.41799200502E+02  0.46422508439E+02  0.00000000000E+00 0. -1.
          1    1    1    2  501    0  0.19412242629E+02  0.55714417615E+01  0.50298252773E+03  0.50338782199E+03  0.00000000000E+00 0. -1.
<mgrwt>
<rscale>  2 0.20195943E+02</rscale>
<asrwt>0</asrwt>
<pdfrwt beam="2">  1       21 0.38681599E-03 0.20195943E+02</pdfrwt>
<pdfrwt beam="1">  1        1 0.84199294E-01 0.20195943E+02</pdfrwt>
<totfact> 0.50321966E+06</totfact>
</mgrwt>
</event>
<event>
 4    1  0.2245608E+006  0.2204693E+02  0.7546771E-02  0.1707442E+00
         21   -1    0    0  503  502  0.00000000000E+00  0.00000000000E+00  0.13964565375E+03  0.13964565375E+03  0.00000000000E+00 0.  1.
         -2   -1    0    0    0  501 -0.00000000000E+00 -0.00000000000E+00 -0.41857797781E+01  0.41857797781E+01  0.00000000000E+00 0. -1.
         21    1    1    2  503  501 -0.21894099936E+02 -0.25914041276E+01  0.97245396531E+02  0.99713259569E+02  0.00000000000E+00 0.  1.
         -2    1    1    2    0  502  0.21894099936E+02  0.25914041276E+01  0.38214477437E+02  0.44118173955E+02  0.00000000000E+00 0. -1.
<mgrwt>
<rscale>  2 0.22046927E+02</rscale>
<asrwt>0</asrwt>
<pdfrwt beam="1">  1       21 0.21483943E-01 0.22046927E+02</pdfrwt>
<pdfrwt beam="2">  1       -2 0.64396623E-03 0.22046927E+02</pdfrwt>
<totfact> 0.39944183E+06</totfact>
</mgrwt>
</event>
<event>
 4    1  0.2245608E+006  0.2089386E+02  0.7546771E-02  0.1728115E+00
          1   -1    0    0  503    0 -0.00000000000E+00  0.00000000000E+00  0.10455331435E+04  0.10455331435E+04  0.00000000000E+00 0. -1.
         21   -1    0    0  501  502  0.00000000000E+00 -0.00000000000E+00 -0.64135235994E+00  0.64135235994E+00  0.00000000000E+00 0. -1.
         21    1    1    2  503  502  0.98536932742E+01  0.18424388896E+02  0.21344022116E+03  0.21446044247E+03  0.00000000000E+00 0. -1.
          1    1    1    2  501    0 -0.98536932742E+01 -0.18424388896E+02  0.83145157003E+03  0.83171405343E+03  0.00000000000E+00 0. -1.
<mgrwt>
<rscale>  2 0.20893860E+02</rscale>
<asrwt>0</asrwt>
<pdfrwt beam="2">  1       21 0.98670430E-04 0.20893860E+02</pdfrwt>
<pdfrwt beam="1">  1        1 0.16084989E+00 0.20893860E+02</pdfrwt>
<totfact> 0.15000887E+07</totfact>
</mgrwt>
</event>
<event>
 4    1  0.2245608E+006  0.2221847E+02  0.7546771E-02  0.1704501E+00
         21   -1    0    0  503  502  0.00000000000E+00  0.00000000000E+00  0.42698553537E+00  0.42698553537E+00  0.00000000000E+00 0. -1.
          1   -1    0    0  502    0 -0.00000000000E+00 -0.00000000000E+00 -0.13960171803E+04  0.13960171803E+04  0.00000000000E+00 0. -1.
         21    1    1    2  503  501 -0.20538666938E+02 -0.84748891041E+01 -0.40837349335E+03  0.40897746962E+03  0.00000000000E+00 0. -1.
          1    1    1    2  501    0  0.20538666938E+02  0.84748891041E+01 -0.98721670144E+03  0.98746669624E+03  0.00000000000E+00 0. -1.
<mgrwt>
<rscale>  2 0.22218474E+02</rscale>
<asrwt>0</asrwt>
<pdfrwt beam="1">  1       21 0.65689753E-04 0.22218474E+02</pdfrwt>
<pdfrwt beam="2">  1        1 0.21477295E+00 0.22218474E+02</pdfrwt>
<totfact> 0.16367584E+07</totfact>
</mgrwt>
</event>
<event>
 4    1  0.2245608E+006  0.2177570E+02  0.7546771E-02  0.1712160E+00
         -1   -1    0    0    0  501 -0.00000000000E+00  0.00000000000E+00  0.32013585454E+03  0.32013585454E+03  0.00000000000E+00 0.  1.
         21   -1    0    0  503  502  0.00000000000E+00 -0.00000000000E+00 -0.40597551343E+01  0.40597551343E+01  0.00000000000E+00 0.  1.
         21    1    1    2  503  501 -0.13931607795E+02 -0.16735935993E+02  0.28851746335E+02  0.36146984880E+02  0.00000000000E+00 0.  1.
         -1    1    1    2    0  502  0.13931607795E+02  0.16735935993E+02  0.28722435307E+03  0.28804862480E+03  0.00000000000E+00 0.  1.
<mgrwt>
<rscale>  2 0.21775703E+02</rscale>
<asrwt>0</asrwt>
<pdfrwt beam="2">  1       21 0.62457796E-03 0.21775703E+02</pdfrwt>
<pdfrwt beam="1">  1       -1 0.49251650E-01 0.21775703E+02</pdfrwt>
<totfact> 0.21152453E+06</totfact>
</mgrwt>
</event>
<event>
 4    1  0.2245608E+006  0.2479306E+02  0.7546771E-02  0.1663992E+00
          1   -1    0    0  503    0 -0.00000000000E+00  0.00000000000E+00  0.25014906436E+02  0.25014906436E+02  0.00000000000E+00 0.  1.
         21   -1    0    0  501  502  0.00000000000E+00 -0.00000000000E+00 -0.27957099424E+02  0.27957099424E+02  0.00000000000E+00 0. -1.
         21    1    1    2  503  502  0.11393687786E+01  0.24766863604E+02 -0.10685784645E+02  0.26997808938E+02  0.00000000000E+00 0. -1.
          1    1    1    2  501    0 -0.11393687786E+01 -0.24766863604E+02  0.77435916571E+01  0.25974196922E+02  0.00000000000E+00 0.  1.
<mgrwt>
<rscale>  2 0.24793057E+02</rscale>
<asrwt>0</asrwt>
<pdfrwt beam="2">  1       21 0.43010922E-02 0.24793057E+02</pdfrwt>
<pdfrwt beam="1">  1        1 0.38484472E-02 0.24793057E+02</pdfrwt>
<totfact> 0.58030785E+06</totfact>
</mgrwt>
</event>
<event>
 4    1  0.2245608E+006  0.3075238E+02  0.7546771E-02  0.1589918E+00
          2   -1    0    0  502    0 -0.00000000000E+00  0.00000000000E+00  0.31996887300E+03  0.31996887300E+03  0.00000000000E+00 0. -1.
         21   -1    0    0  503  502  0.00000000000E+00 -0.00000000000E+00 -0.82412112413E+02  0.82412112413E+02  0.00000000000E+00 0. -1.
         21    1    1    2  503  501  0.17752353990E+02  0.25111008434E+02 -0.78771424601E+02  0.84561493308E+02  0.00000000000E+00 0. -1.
          2    1    1    2  501    0 -0.17752353990E+02 -0.25111008434E+02  0.31632818519E+03  0.31781949210E+03  0.00000000000E+00 0. -1.
<mgrwt>
<rscale>  2 0.30752379E+02</rscale>
<asrwt>0</asrwt>
<pdfrwt beam="2">  1       21 0.12678787E-01 0.30752379E+02</pdfrwt>
<pdfrwt beam="1">  1        2 0.49225980E-01 0.30752379E+02</pdfrwt>
<totfact> 0.63125922E+04</totfact>
</mgrwt>
</event>
<event>
 4    1  0.2245608E+006  0.2076173E+02  0.7546771E-02  0.1730591E+00
          2   -1    0    0  502    0 -0.00000000000E+00  0.00000000000E+00  0.46963202105E+03  0.46963202105E+03  0.00000000000E+00 0. -1.
         21   -1    0    0  503  502  0.00000000000E+00 -0.00000000000E+00 -0.29254567464E+01  0.29254567464E+01  0.00000000000E+00 0. -1.
         21    1    1    2  503  501 -0.19987954652E+02  0.56152400388E+01  0.37618637284E+02  0.42967558960E+02  0.00000000000E+00 0. -1.
          2    1    1    2  501    0  0.19987954652E+02 -0.56152400388E+01  0.42908792702E+03  0.42958991884E+03  0.00000000000E+00 0. -1.
<mgrwt>
<rscale>  2 0.20761726E+02</rscale>
<asrwt>0</asrwt>
<pdfrwt beam="2">  1       21 0.45007064E-03 0.20761726E+02</pdfrwt>
<pdfrwt beam="1">  1        2 0.72251021E-01 0.20761726E+02</pdfrwt>
<totfact> 0.73668615E+06</totfact>
</mgrwt>
</event>
<event>
 4    1  0.2245608E+006  0.2263260E+02  0.7546771E-02  0.1697536E+00
          3   -1    0    0  502    0 -0.00000000000E+00  0.00000000000E+00  0.67577291249E+01  0.67577291249E+01  0.00000000000E+00 0.  1.
         21   -1    0    0  503  502  0.00000000000E+00 -0.00000000000E+00 -0.27663337673E+03  0.27663337673E+03  0.00000000000E+00 0.  1.
         21    1    1    2  503  501 -0.20372088464E+02 -0.98596419669E+01 -0.25566973921E+03  0.25666953476E+03  0.00000000000E+00 0.  1.
          3    1    1    2  501    0  0.20372088464E+02  0.98596419669E+01 -0.14205908390E+02  0.26721571086E+02  0.00000000000E+00 0.  1.
<mgrwt>
<rscale>  2 0.22632599E+02</rscale>
<asrwt>0</asrwt>
<pdfrwt beam="2">  1       21 0.42558970E-01 0.22632599E+02</pdfrwt>
<pdfrwt beam="1">  1        3 0.10396509E-02 0.22632599E+02</pdfrwt>
<totfact> 0.44481012E+05</totfact>
</mgrwt>
</event>
<event>
 4    1  0.2245608E+006  0.4542743E+02  0.7546771E-02  0.1471691E+00
          2   -1    0    0  503    0 -0.00000000000E+00  0.00000000000E+00  0.39306012057E+03  0.39306012057E+03  0.00000000000E+00 0.  1.
         21   -1    0    0  501  502  0.00000000000E+00 -0.00000000000E+00 -0.26789094830E+02  0.26789094830E+02  0.00000000000E+00 0.  1.
         21    1    1    2  503  502  0.45410178024E+02  0.12516872833E+01 -0.50975310749E+01  0.45712534520E+02  0.00000000000E+00 0.  1.
          2    1    1    2  501    0 -0.45410178024E+02 -0.12516872833E+01  0.37136855682E+03  0.37413668088E+03  0.00000000000E+00 0.  1.
<mgrwt>
<rscale>  2 0.45427426E+02</rscale>
<asrwt>0</asrwt>
<pdfrwt beam="2">  1       21 0.41213995E-02 0.45427426E+02</pdfrwt>
<pdfrwt beam="1">  1        2 0.60470783E-01 0.45427426E+02</pdfrwt>
<totfact> 0.34049200E+05</totfact>
</mgrwt>
</event>
<event>
 4    1  0.2245608E+006  0.2295035E+02  0.7546771E-02  0.1692316E+00
         21   -1    0    0  503  502  0.00000000000E+00  0.00000000000E+00  0.22783508030E+02  0.22783508030E+02  0.00000000000E+00 0. -1.
          2   -1    0    0  502    0 -0.00000000000E+00 -0.00000000000E+00 -0.28185788639E+03  0.28185788639E+03  0.00000000000E+00 0.  1.
         21    1    1    2  503  501 -0.63963978938E+00  0.22941436971E+02  0.16403087059E+02  0.28209571681E+02  0.00000000000E+00 0. -1.
          2    1    1    2  501    0  0.63963978938E+00 -0.22941436971E+02 -0.27547746542E+03  0.27643182274E+03  0.00000000000E+00 0.  1.
<mgrwt>
<rscale>  2 0.22950352E+02</rscale>
<asrwt>0</asrwt>
<pdfrwt beam="1">  1       21 0.35051548E-02 0.22950352E+02</pdfrwt>
<pdfrwt beam="2">  1        2 0.43362755E-01 0.22950352E+02</pdfrwt>
<totfact> 0.56004387E+05</totfact>
</mgrwt>
</event>
<event>
 4    1  0.2245608E+006  0.2233348E+02  0.7546771E-02  0.1702548E+00
         -1   -1    0    0    0  501 -0.00000000000E+00  0.00000000000E+00  0.10490759208E+03  0.10490759208E+03  0.00000000000E+00 0.  1.
         21   -1    0    0  503  502  0.00000000000E+00 -0.00000000000E+00 -0.72228886729E+01  0.72228886729E+01  0.00000000000E+00 0. -1.
         21    1    1    2  503  501 -0.59586269450E+01 -0.21523915795E+02  0.16067243922E+02  0.27512551926E+02  0.00000000000E+00 0. -1.
         -1    1    1    2    0  502  0.59586269450E+01  0.21523915795E+02  0.81617459485E+02  0.84617928828E+02  0.00000000000E+00 0.  1.
<mgrwt>
<rscale>  2 0.22333477E+02</rscale>
<asrwt>0</asrwt>
<pdfrwt beam="2">  1       21 0.11112137E-02 0.22333477E+02</pdfrwt>
<pdfrwt beam="1">  1       -1 0.16139628E-01 0.22333477E+02</pdfrwt>
<totfact> 0.52788327E+06</totfact>
</mgrwt>
</event>
<event>
 4    1  0.2245608E+006  0.2182378E+02  0.7546771E-02  0.1711317E+00
         21   -1    0    0  503  502  0.00000000000E+00  0.00000000000E+00  0.15354273982E+03  0.15354273982E+03  0.00000000000E+00 0. -1.
         -2   -1    0    0    0  501 -0.00000000000E+00 -0.00000000000E+00 -0.27425157405E+02  0.27425157405E+02  0.00000000000E+00 0. -1.
         21    1    1    2  503  501  0.17573341790E+02  0.12940447753E+02  0.14827214447E+03  0.14986963120E+03  0.00000000000E+00 0. -1.
         -2    1    1    2    0  502 -0.17573341790E+02 -0.12940447753E+02 -0.22154562058E+02  0.31098266024E+02  0.00000000000E+00 0. -1.
<mgrwt>
<rscale>  2 0.21823784E+02</rscale>
<asrwt>0</asrwt>
<pdfrwt beam="1">  1       21 0.23621960E-01 0.21823784E+02</pdfrwt>
<pdfrwt beam="2">  1       -2 0.42192551E-02 0.21823784E+02</pdfrwt>
<totfact> 0.25842892E+05</totfact>
</mgrwt>
</event>
<event>
 4    1  0.2245608E+006  0.5351916E+02  0.7546771E-02  0.1427235E+00
         21   -1    0    0  503  502  0.00000000000E+00  0.00000000000E+00  0.77636544744E+01  0.77636544744E+01  0.00000000000E+00 0. -1.
          2   -1    0    0  502    0 -0.00000000000E+00 -0.00000000000E+00 -0.14004260517E+04  0.14004260517E+04  0.00000000000E+00 0. -1.
         21    1    1    2  503  501  0.38100607329E+02  0.37585159683E+02 -0.92057961393E+02  0.10648459402E+03  0.00000000000E+00 0. -1.
          2    1    1    2  501    0 -0.38100607329E+02 -0.37585159683E+02 -0.13006044358E+04  0.13017051121E+04  0.00000000000E+00 0. -1.
<mgrwt>
<rscale>  2 0.53519160E+02</rscale>
<asrwt>0</asrwt>
<pdfrwt beam="1">  1       21 0.11944086E-02 0.53519160E+02</pdfrwt>
<pdfrwt beam="2">  1        2 0.21545013E+00 0.53519160E+02</pdfrwt>
<totfact> 0.52765729E+05</totfact>
</mgrwt>
</event>
<event>
 4    1  0.2245608E+006  0.2755377E+02  0.7546771E-02  0.1626817E+00
         21   -1    0    0  503  502  0.00000000000E+00  0.00000000000E+00  0.69057016870E+02  0.69057016870E+02  0.00000000000E+00 0.  1.
          3   -1    0    0  502    0 -0.00000000000E+00 -0.00000000000E+00 -0.31367780842E+02  0.31367780842E+02  0.00000000000E+00 0. -1.
         21    1    1    2  503  501  0.43270981299E+01  0.27211881513E+02  0.59312016332E+02  0.65399736659E+02  0.00000000000E+00 0.  1.
          3    1    1    2  501    0 -0.43270981299E+01 -0.27211881513E+02 -0.21622780304E+02  0.35025061053E+02  0.00000000000E+00 0. -1.
<mgrwt>
<rscale>  2 0.27553771E+02</rscale>
<asrwt>0</asrwt>
<pdfrwt beam="1">  1       21 0.10624156E-01 0.27553771E+02</pdfrwt>
<pdfrwt beam="2">  1        3 0.48258124E-02 0.27553771E+02</pdfrwt>
<totfact> 0.57994032E+05</totfact>
</mgrwt>
</event>
<event>
 4    1  0.2245608E+006  0.2359592E+02  0.7546771E-02  0.1682029E+00
         21   -1    0    0  503  502  0.00000000000E+00  0.00000000000E+00  0.24390964482E+00  0.24390964482E+00  0.00000000000E+00 0. -1.
          2   -1    0    0  502    0 -0.00000000000E+00 -0.00000000000E+00 -0.22835498226E+04  0.22835498226E+04  0.00000000000E+00 0. -1.
         21    1    1    2  503  501 -0.21562378143E+02 -0.95828753288E+01 -0.11193657989E+04  0.11196144691E+04  0.00000000000E+00 0. -1.
          2    1    1    2  501    0  0.21562378143E+02  0.95828753288E+01 -0.11639401140E+04  0.11641792631E+04  0.00000000000E+00 0. -1.
<mgrwt>
<rscale>  2 0.23595924E+02</rscale>
<asrwt>0</asrwt>
<pdfrwt beam="1">  1       21 0.37526022E-04 0.23595924E+02</pdfrwt>
<pdfrwt beam="2">  1        2 0.35130168E+00 0.23595924E+02</pdfrwt>
<totfact> 0.28422730E+07</totfact>
</mgrwt>
</event>
<event>
 4    1  0.2245608E+006  0.3408709E+02  0.7546771E-02  0.1556860E+00
         -2   -1    0    0    0  501 -0.00000000000E+00  0.00000000000E+00  0.12730241243E+03  0.12730241243E+03  0.00000000000E+00 0. -1.
         21   -1    0    0  501  502  0.00000000000E+00 -0.00000000000E+00 -0.97540650071E+02  0.97540650071E+02  0.00000000000E+00 0. -1.
         21    1    1    2  503  502  0.20979124405E+02 -0.26866454414E+02 -0.92151587963E+02  0.98253983114E+02  0.00000000000E+00 0. -1.
         -2    1    1    2    0  503 -0.20979124405E+02  0.26866454414E+02  0.12191335032E+03  0.12658907939E+03  0.00000000000E+00 0. -1.
<mgrwt>
<rscale>  2 0.34087095E+02</rscale>
<asrwt>0</asrwt>
<pdfrwt beam="2">  1       21 0.15006254E-01 0.34087095E+02</pdfrwt>
<pdfrwt beam="1">  1       -2 0.19584987E-01 0.34087095E+02</pdfrwt>
<totfact> 0.61067810E+04</totfact>
</mgrwt>
</event>
<event>
 4    1  0.2245608E+006  0.3079688E+02  0.7546771E-02  0.1589444E+00
         21   -1    0    0  501  502  0.00000000000E+00  0.00000000000E+00  0.41248905333E+01  0.41248905333E+01  0.00000000000E+00 0. -1.
          2   -1    0    0  503    0 -0.00000000000E+00 -0.00000000000E+00 -0.81439511351E+03  0.81439511351E+03  0.00000000000E+00 0.  1.
         21    1    1    2  503  502  0.27414069412E+02  0.14032701308E+02 -0.58430232033E+02  0.66049526290E+02  0.00000000000E+00 0. -1.
          2    1    1    2  501    0 -0.27414069412E+02 -0.14032701308E+02 -0.75183999095E+03  0.75247047776E+03  0.00000000000E+00 0.  1.
<mgrwt>
<rscale>  2 0.30796881E+02</rscale>
<asrwt>0</asrwt>
<pdfrwt beam="1">  1       21 0.63459849E-03 0.30796881E+02</pdfrwt>
<pdfrwt beam="2">  1        2 0.12529157E+00 0.30796881E+02</pdfrwt>
<totfact> 0.26941162E+06</totfact>
</mgrwt>
</event>
<event>
 4    1  0.2245608E+006  0.2111869E+02  0.7546771E-02  0.1723955E+00
          3   -1    0    0  502    0 -0.00000000000E+00  0.00000000000E+00  0.90291408012E+01  0.90291408012E+01  0.00000000000E+00 0.  1.
         21   -1    0    0  503  502  0.00000000000E+00 -0.00000000000E+00 -0.41829105227E+03  0.41829105227E+03  0.00000000000E+00 0.  1.
         21    1    1    2  503  501  0.20092148464E+01 -0.21022894242E+02 -0.40527941805E+03  0.40582928150E+03  0.00000000000E+00 0.  1.
          3    1    1    2  501    0 -0.20092148464E+01  0.21022894242E+02 -0.39824934249E+01  0.21490911579E+02  0.00000000000E+00 0.  1.
<mgrwt>
<rscale>  2 0.21118689E+02</rscale>
<asrwt>0</asrwt>
<pdfrwt beam="2">  1       21 0.64352468E-01 0.21118689E+02</pdfrwt>
<pdfrwt beam="1">  1        3 0.13890986E-02 0.21118689E+02</pdfrwt>
<totfact> 0.12845990E+05</totfact>
</mgrwt>
</event>
<event>
 4    1  0.2245608E+006  0.2193490E+02  0.7546771E-02  0.1709380E+00
          2   -1    0    0  503    0 -0.00000000000E+00  0.00000000000E+00  0.70780416585E+03  0.70780416585E+03  0.00000000000E+00 0. -1.
         21   -1    0    0  501  502  0.00000000000E+00 -0.00000000000E+00 -0.89122463180E+00  0.89122463180E+00  0.00000000000E+00 0. -1.
         21    1    1    2  503  502  0.11257446039E+02 -0.18825773545E+02  0.18085252780E+03  0.18217787091E+03  0.00000000000E+00 0. -1.
          2    1    1    2  501    0 -0.11257446039E+02  0.18825773545E+02  0.52606041342E+03  0.52651751957E+03  0.00000000000E+00 0. -1.
<mgrwt>
<rscale>  2 0.21934900E+02</rscale>
<asrwt>0</asrwt>
<pdfrwt beam="2">  1       21 0.13711205E-03 0.21934900E+02</pdfrwt>
<pdfrwt beam="1">  1        2 0.10889250E+00 0.21934900E+02</pdfrwt>
<totfact> 0.27362451E+07</totfact>
</mgrwt>
</event>
<event>
 4    1  0.2245608E+006  0.2953395E+02  0.7546771E-02  0.1603298E+00
         -4   -1    0    0    0  501 -0.00000000000E+00  0.00000000000E+00  0.52140165165E+01  0.52140165165E+01  0.00000000000E+00 0. -1.
         21   -1    0    0  503  502  0.00000000000E+00 -0.00000000000E+00 -0.18454234249E+03  0.18454234249E+03  0.00000000000E+00 0. -1.
         21    1    1    2  503  501 -0.19276108019E+02 -0.22376017355E+02 -0.11867353535E+03  0.12229334604E+03  0.00000000000E+00 0. -1.
         -4    1    1    2    0  502  0.19276108019E+02  0.22376017355E+02 -0.60654790623E+02  0.67463012966E+02  0.00000000000E+00 0. -1.
<mgrwt>
<rscale>  2 0.29533955E+02</rscale>
<asrwt>0</asrwt>
<pdfrwt beam="2">  1       21 0.28391131E-01 0.29533955E+02</pdfrwt>
<pdfrwt beam="1">  1       -4 0.80215635E-03 0.29533955E+02</pdfrwt>
<totfact> 0.13036342E+06</totfact>
</mgrwt>
</event>
<event>
 4    1  0.2245608E+006  0.2427428E+02  0.7546771E-02  0.1671650E+00
          2   -1    0    0  502    0 -0.00000000000E+00  0.00000000000E+00  0.13073275384E+04  0.13073275384E+04  0.00000000000E+00 0.  1.
         21   -1    0    0  503  502  0.00000000000E+00 -0.00000000000E+00 -0.40132970527E+01  0.40132970527E+01  0.00000000000E+00 0.  1.
         21    1    1    2  503  501  0.53888474611E+01 -0.23668568116E+02  0.33901122811E+02  0.41695646313E+02  0.00000000000E+00 0.  1.
          2    1    1    2  501    0 -0.53888474611E+01  0.23668568116E+02  0.12694131185E+04  0.12696451891E+04  0.00000000000E+00 0.  1.
<mgrwt>
<rscale>  2 0.24274283E+02</rscale>
<asrwt>0</asrwt>
<pdfrwt beam="2">  1       21 0.61743136E-03 0.24274283E+02</pdfrwt>
<pdfrwt beam="1">  1        2 0.20112697E+00 0.24274283E+02</pdfrwt>
<totfact> 0.14600622E+06</totfact>
</mgrwt>
</event>
<event>
 4    1  0.2245608E+006  0.2565887E+02  0.7546771E-02  0.1651715E+00
         -1   -1    0    0    0  501 -0.00000000000E+00  0.00000000000E+00  0.21147538240E+02  0.21147538240E+02  0.00000000000E+00 0.  1.
         21   -1    0    0  503  502  0.00000000000E+00 -0.00000000000E+00 -0.85090993292E+02  0.85090993292E+02  0.00000000000E+00 0.  1.
         21    1    1    2  503  501 -0.13027118811E+02  0.22105922272E+02 -0.74271673649E+02  0.78578999298E+02  0.00000000000E+00 0.  1.
         -1    1    1    2    0  502  0.13027118811E+02 -0.22105922272E+02  0.10328218597E+02  0.27659532234E+02  0.00000000000E+00 0.  1.
<mgrwt>
<rscale>  2 0.25658870E+02</rscale>
<asrwt>0</asrwt>
<pdfrwt beam="2">  1       21 0.13090922E-01 0.25658870E+02</pdfrwt>
<pdfrwt beam="1">  1       -1 0.32534675E-02 0.25658870E+02</pdfrwt>
<totfact> 0.10837303E+06</totfact>
</mgrwt>
</event>
<event>
 4    1  0.2245608E+006  0.3166765E+02  0.7546771E-02  0.1580354E+00
          3   -1    0    0  502    0 -0.00000000000E+00  0.00000000000E+00  0.10022118697E+03  0.10022118697E+03  0.00000000000E+00 0.  1.
         21   -1    0    0  503  502  0.00000000000E+00 -0.00000000000E+00 -0.68550856062E+02  0.68550856062E+02  0.00000000000E+00 0. -1.
         21    1    1    2  503  501 -0.26547935731E+02  0.17264039236E+02 -0.62149183741E+02  0.69752139623E+02  0.00000000000E+00 0. -1.
          3    1    1    2  501    0  0.26547935731E+02 -0.17264039236E+02  0.93819514653E+02  0.99019903413E+02  0.00000000000E+00 0.  1.
<mgrwt>
<rscale>  2 0.31667648E+02</rscale>
<asrwt>0</asrwt>
<pdfrwt beam="2">  1       21 0.10546286E-01 0.31667648E+02</pdfrwt>
<pdfrwt beam="1">  1        3 0.15418644E-01 0.31667648E+02</pdfrwt>
<totfact> 0.97989211E+04</totfact>
</mgrwt>
</event>
<event>
 4    1  0.2245608E+006  0.2069882E+02  0.7546771E-02  0.1731778E+00
         21   -1    0    0  503  502  0.00000000000E+00  0.00000000000E+00  0.51064423012E+03  0.51064423012E+03  0.00000000000E+00 0. -1.
          1   -1    0    0  502    0 -0.00000000000E+00 -0.00000000000E+00 -0.50966715321E+02  0.50966715321E+02  0.00000000000E+00 0. -1.
         21    1    1    2  503  501  0.17162634613E+02 -0.11570869841E+02  0.50832331068E+03  0.50874456187E+03  0.00000000000E+00 0. -1.
          1    1    1    2  501    0 -0.17162634613E+02  0.11570869841E+02 -0.48645795875E+02  0.52866383573E+02  0.00000000000E+00 0. -1.
<mgrwt>
<rscale>  2 0.20698818E+02</rscale>
<asrwt>0</asrwt>
<pdfrwt beam="1">  1       21 0.78560647E-01 0.20698818E+02</pdfrwt>
<pdfrwt beam="2">  1        1 0.78410335E-02 0.20698818E+02</pdfrwt>
<totfact> 0.13488334E+04</totfact>
</mgrwt>
</event>
<event>
 4    1  0.2245608E+006  0.2128799E+02  0.7546771E-02  0.1720865E+00
         21   -1    0    0  501  502  0.00000000000E+00  0.00000000000E+00  0.24624311153E+03  0.24624311153E+03  0.00000000000E+00 0. -1.
         -1   -1    0    0    0  501 -0.00000000000E+00 -0.00000000000E+00 -0.22138611068E+02  0.22138611068E+02  0.00000000000E+00 0. -1.
         21    1    1    2  503  502  0.18765785860E+02 -0.10051067883E+02  0.24054450415E+03  0.24148465202E+03  0.00000000000E+00 0. -1.
         -1    1    1    2    0  503 -0.18765785860E+02  0.10051067883E+02 -0.16440003687E+02  0.26897070580E+02  0.00000000000E+00 0. -1.
<mgrwt>
<rscale>  2 0.21287994E+02</rscale>
<asrwt>0</asrwt>
<pdfrwt beam="1">  1       21 0.37883554E-01 0.21287994E+02</pdfrwt>
<pdfrwt beam="2">  1       -1 0.34059403E-02 0.21287994E+02</pdfrwt>
<totfact> 0.14996311E+05</totfact>
</mgrwt>
</event>
<event>
 4    1  0.2245608E+006  0.2228264E+02  0.7546771E-02  0.1703409E+00
         21   -1    0    0  501  502  0.00000000000E+00  0.00000000000E+00  0.90713898196E+02  0.90713898196E+02  0.00000000000E+00 0.  1.
          2   -1    0    0  503    0 -0.00000000000E+00 -0.00000000000E+00 -0.51037967553E+02  0.51037967553E+02  0.00000000000E+00 0. -1.
         21    1    1    2  503  502 -0.17743532947E+02  0.13478991863E+02  0.86805696450E+02  0.89620004013E+02  0.00000000000E+00 0.  1.
          2    1    1    2  501    0  0.17743532947E+02 -0.13478991863E+02 -0.47129765807E+02  0.52131861737E+02  0.00000000000E+00 0. -1.
<mgrwt>
<rscale>  2 0.22282643E+02</rscale>
<asrwt>0</asrwt>
<pdfrwt beam="1">  1       21 0.13955984E-01 0.22282643E+02</pdfrwt>
<pdfrwt beam="2">  1        2 0.78519950E-02 0.22282643E+02</pdfrwt>
<totfact> 0.37063810E+05</totfact>
</mgrwt>
</event>
<event>
 4    1  0.2245608E+006  0.3842243E+02  0.7546771E-02  0.1520152E+00
         -3   -1    0    0    0  501 -0.00000000000E+00  0.00000000000E+00  0.55930170328E+03  0.55930170328E+03  0.00000000000E+00 0. -1.
         21   -1    0    0  501  502  0.00000000000E+00 -0.00000000000E+00 -0.61447698222E+01  0.61447698222E+01  0.00000000000E+00 0.  1.
         21    1    1    2  503  502  0.19723061411E+02  0.32973989038E+02  0.63043634554E+02  0.73829418000E+02  0.00000000000E+00 0.  1.
         -3    1    1    2    0  503 -0.19723061411E+02 -0.32973989038E+02  0.49011329891E+03  0.49161705510E+03  0.00000000000E+00 0. -1.
<mgrwt>
<rscale>  2 0.38422430E+02</rscale>
<asrwt>0</asrwt>
<pdfrwt beam="2">  1       21 0.94534965E-03 0.38422430E+02</pdfrwt>
<pdfrwt beam="1">  1       -3 0.86046376E-01 0.38422430E+02</pdfrwt>
<totfact> 0.19608053E+05</totfact>
</mgrwt>
</event>
<event>
 4    1  0.2245608E+006  0.2191393E+02  0.7546771E-02  0.1709745E+00
         21   -1    0    0  501  502  0.00000000000E+00  0.00000000000E+00  0.53003603558E+03  0.53003603558E+03  0.00000000000E+00 0. -1.
          2   -1    0    0  503    0 -0.00000000000E+00 -0.00000000000E+00 -0.33872998884E+01  0.33872998884E+01  0.00000000000E+00 0.  1.
         21    1    1    2  503  502 -0.10176610549E+01  0.21890290928E+02  0.49159683230E+03  0.49208501907E+03  0.00000000000E+00 0. -1.
          2    1    1    2  501    0  0.10176610549E+01 -0.21890290928E+02  0.35051903398E+02  0.41338316399E+02  0.00000000000E+00 0.  1.
<mgrwt>
<rscale>  2 0.21913933E+02</rscale>
<asrwt>0</asrwt>
<pdfrwt beam="1">  1       21 0.81543940E-01 0.21913933E+02</pdfrwt>
<pdfrwt beam="2">  1        2 0.52112348E-03 0.21913933E+02</pdfrwt>
<totfact> 0.43092740E+05</totfact>
</mgrwt>
</event>
<event>
 4    1  0.2245608E+006  0.2164407E+02  0.7546771E-02  0.1714481E+00
          1   -1    0    0  503    0 -0.00000000000E+00  0.00000000000E+00  0.67116431277E+03  0.67116431277E+03  0.00000000000E+00 0.  1.
         21   -1    0    0  501  502  0.00000000000E+00 -0.00000000000E+00 -0.78054810989E+00  0.78054810989E+00  0.00000000000E+00 0.  1.
         21    1    1    2  503  502  0.20715545323E+02 -0.62715263996E+01  0.22592611166E+03  0.22696051152E+03  0.00000000000E+00 0.  1.
          1    1    1    2  501    0 -0.20715545323E+02  0.62715263996E+01  0.44445765301E+03  0.44498434936E+03  0.00000000000E+00 0.  1.
<mgrwt>
<rscale>  2 0.21644072E+02</rscale>
<asrwt>0</asrwt>
<pdfrwt beam="2">  1       21 0.12008486E-03 0.21644072E+02</pdfrwt>
<pdfrwt beam="1">  1        1 0.10325559E+00 0.21644072E+02</pdfrwt>
<totfact> 0.21462267E+07</totfact>
</mgrwt>
</event>
<event>
 4    1  0.2245608E+006  0.3134541E+02  0.7546771E-02  0.1583676E+00
          2   -1    0    0  503    0 -0.00000000000E+00  0.00000000000E+00  0.13347197074E+04  0.13347197074E+04  0.00000000000E+00 0. -1.
         21   -1    0    0  501  502  0.00000000000E+00 -0.00000000000E+00 -0.12647730200E+01  0.12647730200E+01  0.00000000000E+00 0. -1.
         21    1    1    2  503  502 -0.12178276908E+02 -0.28882941948E+02  0.23486640356E+03  0.23694886007E+03  0.00000000000E+00 0. -1.
          2    1    1    2  501    0  0.12178276908E+02  0.28882941948E+02  0.10985885308E+04  0.10990356203E+04  0.00000000000E+00 0. -1.
<mgrwt>
<rscale>  2 0.31345411E+02</rscale>
<asrwt>0</asrwt>
<pdfrwt beam="2">  1       21 0.19458153E-03 0.31345411E+02</pdfrwt>
<pdfrwt beam="1">  1        2 0.20534037E+00 0.31345411E+02</pdfrwt>
<totfact> 0.80943896E+06</totfact>
</mgrwt>
</event>
<event>
 4    1  0.2245608E+006  0.3045010E+02  0.7546771E-02  0.1593166E+00
         -2   -1    0    0    0  501 -0.00000000000E+00  0.00000000000E+00  0.48580872795E+03  0.48580872795E+03  0.00000000000E+00 0.  1.
         21   -1    0    0  503  502  0.00000000000E+00 -0.00000000000E+00 -0.71162063462E+01  0.71162063462E+01  0.00000000000E+00 0. -1.
         21    1    1    2  503  501  0.19470457631E+02 -0.23411747268E+02  0.28509611280E+02  0.41713385931E+02  0.00000000000E+00 0. -1.
         -2    1    1    2    0  502 -0.19470457631E+02  0.23411747268E+02  0.45018291033E+03  0.45121154837E+03  0.00000000000E+00 0.  1.
<mgrwt>
<rscale>  2 0.30450101E+02</rscale>
<asrwt>0</asrwt>
<pdfrwt beam="2">  1       21 0.10948014E-02 0.30450101E+02</pdfrwt>
<pdfrwt beam="1">  1       -2 0.74739778E-01 0.30450101E+02</pdfrwt>
<totfact> 0.34688753E+05</totfact>
</mgrwt>
</event>
<event>
 4    1  0.2245608E+006  0.2585385E+02  0.7546771E-02  0.1649032E+00
          1   -1    0    0  503    0 -0.00000000000E+00  0.00000000000E+00  0.76818604690E+03  0.76818604690E+03  0.00000000000E+00 0. -1.
         21   -1    0    0  501  502  0.00000000000E+00 -0.00000000000E+00 -0.90066193511E+00  0.90066193511E+00  0.00000000000E+00 0. -1.
         21    1    1    2  503  502  0.45296618427E+01  0.25453955650E+02  0.31284129129E+03  0.31390778141E+03  0.00000000000E+00 0. -1.
          1    1    1    2  501    0 -0.45296618427E+01 -0.25453955650E+02  0.45444409368E+03  0.45517892743E+03  0.00000000000E+00 0. -1.
<mgrwt>
<rscale>  2 0.25853853E+02</rscale>
<asrwt>0</asrwt>
<pdfrwt beam="2">  1       21 0.13856399E-03 0.25853853E+02</pdfrwt>
<pdfrwt beam="1">  1        1 0.11818194E+00 0.25853853E+02</pdfrwt>
<totfact> 0.15346826E+07</totfact>
</mgrwt>
</event>
<event>
 4    1  0.2245608E+006  0.2313590E+02  0.7546771E-02  0.1689317E+00
          1   -1    0    0  502    0 -0.00000000000E+00  0.00000000000E+00  0.54984916775E+03  0.54984916775E+03  0.00000000000E+00 0.  1.
         21   -1    0    0  503  502  0.00000000000E+00 -0.00000000000E+00 -0.17793744917E+03  0.17793744917E+03  0.00000000000E+00 0.  1.
         21    1    1    2  503  501  0.13076800114E+02 -0.19085788205E+02 -0.17694066467E+03  0.17844682352E+03  0.00000000000E+00 0.  1.
          1    1    1    2  501    0 -0.13076800114E+02  0.19085788205E+02  0.54885238324E+03  0.54933979339E+03  0.00000000000E+00 0.  1.
<mgrwt>
<rscale>  2 0.23135903E+02</rscale>
<asrwt>0</asrwt>
<pdfrwt beam="2">  1       21 0.27374992E-01 0.23135903E+02</pdfrwt>
<pdfrwt beam="1">  1        1 0.84592179E-01 0.23135903E+02</pdfrwt>
<totfact> 0.60717892E+03</totfact>
</mgrwt>
</event>
<event>
 4    1  0.2245608E+006  0.2915290E+02  0.7546771E-02  0.1607645E+00
         21   -1    0    0  501  502  0.00000000000E+00  0.00000000000E+00  0.16605235194E+01  0.16605235194E+01  0.00000000000E+00 0. -1.
          2   -1    0    0  503    0 -0.00000000000E+00 -0.00000000000E+00 -0.82916844385E+03  0.82916844385E+03  0.00000000000E+00 0. -1.
         21    1    1    2  503  502 -0.47997261004E+01  0.28755070731E+02 -0.15675729734E+03  0.15944510570E+03  0.00000000000E+00 0. -1.
          2    1    1    2  501    0  0.47997261004E+01 -0.28755070731E+02 -0.67075062299E+03  0.67138386167E+03  0.00000000000E+00 0. -1.
<mgrwt>
<rscale>  2 0.29152898E+02</rscale>
<asrwt>0</asrwt>
<pdfrwt beam="1">  1       21 0.25546514E-03 0.29152898E+02</pdfrwt>
<pdfrwt beam="2">  1        2 0.12756438E+00 0.29152898E+02</pdfrwt>
<totfact> 0.10031406E+07</totfact>
</mgrwt>
</event>
<event>
 4    1  0.2245608E+006  0.2055971E+02  0.7546771E-02  0.1734421E+00
         21   -1    0    0  501  502  0.00000000000E+00  0.00000000000E+00  0.95611438351E+02  0.95611438351E+02  0.00000000000E+00 0. -1.
          1   -1    0    0  503    0 -0.00000000000E+00 -0.00000000000E+00 -0.16054537710E+03  0.16054537710E+03  0.00000000000E+00 0.  1.
         21    1    1    2  503  502  0.54798235309E+01 -0.19815979330E+02  0.93835641535E+02  0.96061590269E+02  0.00000000000E+00 0. -1.
          1    1    1    2  501    0 -0.54798235309E+01  0.19815979330E+02 -0.15876958029E+03  0.16009522519E+03  0.00000000000E+00 0.  1.
<mgrwt>
<rscale>  2 0.20559706E+02</rscale>
<asrwt>0</asrwt>
<pdfrwt beam="1">  1       21 0.14709452E-01 0.20559706E+02</pdfrwt>
<pdfrwt beam="2">  1        1 0.24699289E-01 0.20559706E+02</pdfrwt>
<totfact> 0.74853198E+04</totfact>
</mgrwt>
</event>
<event>
 4    1  0.2245608E+006  0.2737202E+02  0.7546771E-02  0.1629097E+00
         21   -1    0    0  501  502  0.00000000000E+00  0.00000000000E+00  0.11443484674E+03  0.11443484674E+03  0.00000000000E+00 0.  1.
         -1   -1    0    0    0  501 -0.00000000000E+00 -0.00000000000E+00 -0.93623435829E+02  0.93623435829E+02  0.00000000000E+00 0. -1.
         21    1    1    2  503  502 -0.26843195683E+02  0.53544505792E+01  0.11073148921E+03  0.11406441162E+03  0.00000000000E+00 0.  1.
         -1    1    1    2    0  503  0.26843195683E+02 -0.53544505792E+01 -0.89920078297E+02  0.93993870951E+02  0.00000000000E+00 0. -1.
<mgrwt>
<rscale>  2 0.27372017E+02</rscale>
<asrwt>0</asrwt>
<pdfrwt beam="1">  1       21 0.17605361E-01 0.27372017E+02</pdfrwt>
<pdfrwt beam="2">  1       -1 0.14403606E-01 0.27372017E+02</pdfrwt>
<totfact> 0.78859765E+04</totfact>
</mgrwt>
</event>
<event>
 4    1  0.2245608E+006  0.3162148E+02  0.7546771E-02  0.1580827E+00
         21   -1    0    0  501  502  0.00000000000E+00  0.00000000000E+00  0.37934530067E+02  0.37934530067E+02  0.00000000000E+00 0.  1.
          2   -1    0    0  503    0 -0.00000000000E+00 -0.00000000000E+00 -0.19624424716E+03  0.19624424716E+03  0.00000000000E+00 0. -1.
         21    1    1    2  503  502  0.23053605258E+02 -0.21643695552E+02  0.29787516006E+02  0.43442080778E+02  0.00000000000E+00 0.  1.
          2    1    1    2  501    0 -0.23053605258E+02  0.21643695552E+02 -0.18809723310E+03  0.19073669645E+03  0.00000000000E+00 0. -1.
<mgrwt>
<rscale>  2 0.31621484E+02</rscale>
<asrwt>0</asrwt>
<pdfrwt beam="1">  1       21 0.58360815E-02 0.31621484E+02</pdfrwt>
<pdfrwt beam="2">  1        2 0.30191423E-01 0.31621484E+02</pdfrwt>
<totfact> 0.37568264E+05</totfact>
</mgrwt>
</event>
<event>
 4    1  0.2245608E+006  0.2053453E+02  0.7546771E-02  0.1734903E+00
         21   -1    0    0  503  502  0.00000000000E+00  0.00000000000E+00  0.77046097671E+02  0.77046097671E+02  0.00000000000E+00 0. -1.
          1   -1    0    0  502    0 -0.00000000000E+00 -0.00000000000E+00 -0.68432728788E+01  0.68432728788E+01  0.00000000000E+00 0. -1.
         21    1    1    2  503  501  0.96125131116E+01 -0.18145699226E+02  0.53871308891E+02  0.57652274286E+02  0.00000000000E+00 0. -1.
          1    1    1    2  501    0 -0.96125131116E+01  0.18145699226E+02  0.16331515902E+02  0.26237096264E+02  0.00000000000E+00 0. -1.
<mgrwt>
<rscale>  2 0.20534527E+02</rscale>
<asrwt>0</asrwt>
<pdfrwt beam="1">  1       21 0.11853245E-01 0.20534527E+02</pdfrwt>
<pdfrwt beam="2">  1        1 0.10528113E-02 0.20534527E+02</pdfrwt>
<totfact> 0.57811189E+06</totfact>
</mgrwt>
</event>
<event>
 4    1  0.2245608E+006  0.2099610E+02  0.7546771E-02  0.1726215E+00
          1   -1    0    0  503    0 -0.00000000000E+00  0.00000000000E+00  0.44636761225E+03  0.44636761225E+03  0.00000000000E+00 0.  1.
         21   -1    0    0  501  502  0.00000000000E+00 -0.00000000000E+00 -0.13966432231E+01  0.13966432231E+01  0.00000000000E+00 0.  1.
         21    1    1    2  503  502  0.13645990629E+02  0.15956920630E+02  0.10132615528E+03  0.10347862639E+03  0.00000000000E+00 0.  1.
          1    1    1    2  501    0 -0.13645990629E+02 -0.15956920630E+02  0.34364481375E+03  0.34428562908E+03  0.00000000000E+00 0.  1.
<mgrwt>
<rscale>  2 0.20996104E+02</rscale>
<asrwt>0</asrwt>
<pdfrwt beam="2">  1       21 0.21486854E-03 0.20996104E+02</pdfrwt>
<pdfrwt beam="1">  1        1 0.68671827E-01 0.20996104E+02</pdfrwt>
<totfact> 0.15229402E+07</totfact>
</mgrwt>
</event>
<event>
 4    1  0.2245608E+006  0.5263186E+02  0.7546771E-02  0.1431642E+00
         21   -1    0    0  503  502  0.00000000000E+00  0.00000000000E+00  0.24903080110E+02  0.24903080110E+02  0.00000000000E+00 0. -1.
          2   -1    0    0  502    0 -0.00000000000E+00 -0.00000000000E+00 -0.15667830482E+03  0.15667830482E+03  0.00000000000E+00 0. -1.
         21    1    1    2  503  501 -0.33557468979E+02  0.40546383420E+02 -0.16992185750E+02  0.55306846857E+02  0.00000000000E+00 0. -1.
          2    1    1    2  501    0  0.33557468979E+02 -0.40546383420E+02 -0.11478303896E+03  0.12627453807E+03  0.00000000000E+00 0. -1.
<mgrwt>
<rscale>  2 0.52631862E+02</rscale>
<asrwt>0</asrwt>
<pdfrwt beam="1">  1       21 0.38312430E-02 0.52631862E+02</pdfrwt>
<pdfrwt beam="2">  1        2 0.24104355E-01 0.52631862E+02</pdfrwt>
<totfact> 0.10094884E+06</totfact>
</mgrwt>
</event>
<event>
 4    1  0.2245608E+006  0.2637561E+02  0.7546771E-02  0.1641995E+00
         21   -1    0    0  501  502  0.00000000000E+00  0.00000000000E+00  0.67459593291E+01  0.67459593291E+01  0.00000000000E+00 0. -1.
          1   -1    0    0  503    0 -0.00000000000E+00 -0.00000000000E+00 -0.32210654433E+03  0.32210654433E+03  0.00000000000E+00 0. -1.
         21    1    1    2  503  502  0.12743729270E+02 -0.23092646662E+02 -0.22106501254E+02  0.34414682379E+02  0.00000000000E+00 0. -1.
          1    1    1    2  501    0 -0.12743729270E+02  0.23092646662E+02 -0.29325408375E+03  0.29443782128E+03  0.00000000000E+00 0. -1.
<mgrwt>
<rscale>  2 0.26375613E+02</rscale>
<asrwt>0</asrwt>
<pdfrwt beam="1">  1       21 0.10378400E-02 0.26375613E+02</pdfrwt>
<pdfrwt beam="2">  1        1 0.49554846E-01 0.26375613E+02</pdfrwt>
<totfact> 0.23170375E+06</totfact>
</mgrwt>
</event>
<event>
 4    1  0.2245608E+006  0.3108114E+02  0.7546771E-02  0.1586437E+00
         -2   -1    0    0    0  501 -0.00000000000E+00  0.00000000000E+00  0.14638713082E+02  0.14638713082E+02  0.00000000000E+00 0. -1.
         21   -1    0    0  501  502  0.00000000000E+00 -0.00000000000E+00 -0.83349129486E+02  0.83349129486E+02  0.00000000000E+00 0. -1.
         21    1    1    2  503  502 -0.30789061178E+02 -0.42510214383E+01 -0.56713109251E+02  0.64671587521E+02  0.00000000000E+00 0. -1.
         -2    1    1    2    0  503  0.30789061178E+02  0.42510214383E+01 -0.11997307153E+02  0.33316255048E+02  0.00000000000E+00 0. -1.
<mgrwt>
<rscale>  2 0.31081143E+02</rscale>
<asrwt>0</asrwt>
<pdfrwt beam="2">  1       21 0.12822943E-01 0.31081143E+02</pdfrwt>
<pdfrwt beam="1">  1       -2 0.22521097E-02 0.31081143E+02</pdfrwt>
<totfact> 0.19258452E+06</totfact>
</mgrwt>
</event>
<event>
 4    1  0.2245608E+006  0.2224123E+02  0.7546771E-02  0.1704113E+00
         21   -1    0    0  501  502  0.00000000000E+00  0.00000000000E+00  0.11545175441E+03  0.11545175441E+03  0.00000000000E+00 0.  1.
         -4   -1    0    0    0  501 -0.00000000000E+00 -0.00000000000E+00 -0.21660546082E+02  0.21660546082E+02  0.00000000000E+00 0. -1.
         21    1    1    2  503  502  0.69432440506E+01 -0.21129686370E+02  0.10829797188E+03  0.11055823352E+03  0.00000000000E+00 0.  1.
         -4    1    1    2    0  503 -0.69432440506E+01  0.21129686370E+02 -0.14506763556E+02  0.26554066975E+02  0.00000000000E+00 0. -1.
<mgrwt>
<rscale>  2 0.22241229E+02</rscale>
<asrwt>0</asrwt>
<pdfrwt beam="1">  1       21 0.17761808E-01 0.22241229E+02</pdfrwt>
<pdfrwt beam="2">  1       -4 0.33323918E-02 0.22241229E+02</pdfrwt>
<totfact> 0.33392128E+05</totfact>
</mgrwt>
</event>
<event>
 4    1  0.2245608E+006  0.2589016E+02  0.7546771E-02  0.1648536E+00
         21   -1    0    0  503  502  0.00000000000E+00  0.00000000000E+00  0.14115286727E+01  0.14115286727E+01  0.00000000000E+00 0. -1.
          2   -1    0    0  502    0 -0.00000000000E+00 -0.00000000000E+00 -0.47947731056E+03  0.47947731056E+03  0.00000000000E+00 0. -1.
         21    1    1    2  503  501  0.19321075008E+02  0.17233590927E+02 -0.21547762719E+03  0.21702743701E+03  0.00000000000E+00 0. -1.
          2    1    1    2  501    0 -0.19321075008E+02 -0.17233590927E+02 -0.26258815470E+03  0.26386140222E+03  0.00000000000E+00 0. -1.
<mgrwt>
<rscale>  2 0.25890164E+02</rscale>
<asrwt>0</asrwt>
<pdfrwt beam="1">  1       21 0.21715797E-03 0.25890164E+02</pdfrwt>
<pdfrwt beam="2">  1        2 0.73765836E-01 0.25890164E+02</pdfrwt>
<totfact> 0.22205684E+07</totfact>
</mgrwt>
</event>
<event>
 4    1  0.2245608E+006  0.2731027E+02  0.7546771E-02  0.1629877E+00
         21   -1    0    0  503  502  0.00000000000E+00  0.00000000000E+00  0.25720279265E+03  0.25720279265E+03  0.00000000000E+00 0.  1.
         -2   -1    0    0    0  501 -0.00000000000E+00 -0.00000000000E+00 -0.53155717184E+01  0.53155717184E+01  0.00000000000E+00 0. -1.
         21    1    1    2  503  501 -0.27053465425E+02 -0.37364334806E+01  0.21443024196E+03  0.21616239172E+03  0.00000000000E+00 0.  1.
         -2    1    1    2    0  502  0.27053465425E+02  0.37364334806E+01  0.37456978974E+02  0.46355972652E+02  0.00000000000E+00 0. -1.
<mgrwt>
<rscale>  2 0.27310271E+02</rscale>
<asrwt>0</asrwt>
<pdfrwt beam="1">  1       21 0.39569651E-01 0.27310271E+02</pdfrwt>
<pdfrwt beam="2">  1       -2 0.81778047E-03 0.27310271E+02</pdfrwt>
<totfact> 0.10038497E+06</totfact>
</mgrwt>
</event>
<event>
 4    1  0.2245608E+006  0.2169089E+02  0.7546771E-02  0.1713653E+00
         21   -1    0    0  503  502  0.00000000000E+00  0.00000000000E+00  0.46690326426E+00  0.46690326426E+00  0.00000000000E+00 0.  1.
          1   -1    0    0  502    0 -0.00000000000E+00 -0.00000000000E+00 -0.11959560500E+04  0.11959560500E+04  0.00000000000E+00 0.  1.
         21    1    1    2  503  501  0.13970027426E+02  0.16593162104E+02 -0.36039918230E+03  0.36105133333E+03  0.00000000000E+00 0.  1.
          1    1    1    2  501    0 -0.13970027426E+02 -0.16593162104E+02 -0.83508996445E+03  0.83537161995E+03  0.00000000000E+00 0.  1.
<mgrwt>
<rscale>  2 0.21690890E+02</rscale>
<asrwt>0</asrwt>
<pdfrwt beam="1">  1       21 0.71831039E-04 0.21690890E+02</pdfrwt>
<pdfrwt beam="2">  1        1 0.18399383E+00 0.21690890E+02</pdfrwt>
<totfact> 0.19026780E+07</totfact>
</mgrwt>
</event>
<event>
 4    1  0.2245608E+006  0.2493390E+02  0.7546771E-02  0.1661953E+00
         21   -1    0    0  501  502  0.00000000000E+00  0.00000000000E+00  0.22206774124E+02  0.22206774124E+02  0.00000000000E+00 0.  1.
         -2   -1    0    0    0  501 -0.00000000000E+00 -0.00000000000E+00 -0.12263647893E+04  0.12263647893E+04  0.00000000000E+00 0.  1.
         21    1    1    2  503  502 -0.22031200170E+02 -0.11675856894E+02  0.15039915931E+02  0.29118696508E+02  0.00000000000E+00 0.  1.
         -2    1    1    2    0  503  0.22031200170E+02  0.11675856894E+02 -0.12191979311E+04  0.12194528669E+04  0.00000000000E+00 0.  1.
<mgrwt>
<rscale>  2 0.24933901E+02</rscale>
<asrwt>0</asrwt>
<pdfrwt beam="1">  1       21 0.34164257E-02 0.24933901E+02</pdfrwt>
<pdfrwt beam="2">  1       -2 0.18867157E+00 0.24933901E+02</pdfrwt>
<totfact> 0.67249508E+03</totfact>
</mgrwt>
</event>
<event>
 4    1  0.2245608E+006  0.2399779E+02  0.7546771E-02  0.1675829E+00
         21   -1    0    0  503  502  0.00000000000E+00  0.00000000000E+00  0.36399249222E+02  0.36399249222E+02  0.00000000000E+00 0. -1.
         -4   -1    0    0    0  501 -0.00000000000E+00 -0.00000000000E+00 -0.39177470019E+02  0.39177470019E+02  0.00000000000E+00 0. -1.
         21    1    1    2  503  501  0.10304773509E+02 -0.21672688723E+02  0.27787713637E+02  0.36715811617E+02  0.00000000000E+00 0. -1.
         -4    1    1    2    0  502 -0.10304773509E+02  0.21672688723E+02 -0.30565934434E+02  0.38860907624E+02  0.00000000000E+00 0. -1.
<mgrwt>
<rscale>  2 0.23997787E+02</rscale>
<asrwt>0</asrwt>
<pdfrwt beam="1">  1       21 0.55998845E-02 0.23997787E+02</pdfrwt>
<pdfrwt beam="2">  1       -4 0.60273031E-02 0.23997787E+02</pdfrwt>
<totfact> 0.94356862E+05</totfact>
</mgrwt>
</event>
<event>
 4    1  0.2245608E+006  0.2196171E+02  0.7546771E-02  0.1708915E+00
         21   -1    0    0  501  502  0.00000000000E+00  0.00000000000E+00  0.26460781284E+01  0.26460781284E+01  0.00000000000E+00 0.  1.
          2   -1    0    0  503    0 -0.00000000000E+00 -0.00000000000E+00 -0.62218145281E+03  0.62218145281E+03  0.00000000000E+00 0. -1.
         21    1    1    2  503  502  0.21858281094E+02  0.21288687175E+01 -0.47072991351E+02  0.51944037667E+02  0.00000000000E+00 0.  1.
          2    1    1    2  501    0 -0.21858281094E+02 -0.21288687175E+01 -0.57246238333E+03  0.57288349327E+03  0.00000000000E+00 0. -1.
<mgrwt>
<rscale>  2 0.21961706E+02</rscale>
<asrwt>0</asrwt>
<pdfrwt beam="1">  1       21 0.40708891E-03 0.21961706E+02</pdfrwt>
<pdfrwt beam="2">  1        2 0.95720232E-01 0.21961706E+02</pdfrwt>
<totfact> 0.65014619E+06</totfact>
</mgrwt>
</event>
<event>
 4    1  0.2245608E+006  0.2061144E+02  0.7546771E-02  0.1733435E+00
         21   -1    0    0  501  502  0.00000000000E+00  0.00000000000E+00  0.58421520370E+01  0.58421520370E+01  0.00000000000E+00 0. -1.
         -1   -1    0    0    0  501 -0.00000000000E+00 -0.00000000000E+00 -0.18328525480E+03  0.18328525480E+03  0.00000000000E+00 0.  1.
         21    1    1    2  503  502 -0.12061136657E+02 -0.16714082743E+02 -0.15274678378E+02  0.25654383231E+02  0.00000000000E+00 0. -1.
         -1    1    1    2    0  503  0.12061136657E+02  0.16714082743E+02 -0.16216842438E+03  0.16347302361E+03  0.00000000000E+00 0.  1.
<mgrwt>
<rscale>  2 0.20611443E+02</rscale>
<asrwt>0</asrwt>
<pdfrwt beam="1">  1       21 0.89879255E-03 0.20611443E+02</pdfrwt>
<pdfrwt beam="2">  1       -1 0.28197734E-01 0.20611443E+02</pdfrwt>
<totfact> 0.30255060E+06</totfact>
</mgrwt>
</event>
<event>
 4    1  0.2245608E+006  0.4299290E+02  0.7546771E-02  0.1487275E+00
          2   -1    0    0  502    0 -0.00000000000E+00  0.00000000000E+00  0.21095627024E+04  0.21095627024E+04  0.00000000000E+00 0.  1.
         21   -1    0    0  503  502  0.00000000000E+00 -0.00000000000E+00 -0.36180643542E+01  0.36180643542E+01  0.00000000000E+00 0.  1.
         21    1    1    2  503  501  0.38699193284E+02  0.18728633925E+02  0.13317561027E+03  0.13994331874E+03  0.00000000000E+00 0.  1.
          2    1    1    2  501    0 -0.38699193284E+02 -0.18728633925E+02  0.19727690278E+04  0.19732374480E+04  0.00000000000E+00 0.  1.
<mgrwt>
<rscale>  2 0.42992898E+02</rscale>
<asrwt>0</asrwt>
<pdfrwt beam="2">  1       21 0.55662697E-03 0.42992898E+02</pdfrwt>
<pdfrwt beam="1">  1        2 0.32454712E+00 0.42992898E+02</pdfrwt>
<totfact> 0.75133596E+05</totfact>
</mgrwt>
</event>
<event>
 4    1  0.2245608E+006  0.3377416E+02  0.7546771E-02  0.1559764E+00
         21   -1    0    0  501  502  0.00000000000E+00  0.00000000000E+00  0.89267166518E+02  0.89267166518E+02  0.00000000000E+00 0.  1.
         -4   -1    0    0    0  501 -0.00000000000E+00 -0.00000000000E+00 -0.17944111880E+02  0.17944111880E+02  0.00000000000E+00 0.  1.
         21    1    1    2  503  502 -0.29878464336E+02  0.15747098798E+02  0.64423161142E+02  0.72739517754E+02  0.00000000000E+00 0.  1.
         -4    1    1    2    0  503  0.29878464336E+02 -0.15747098798E+02  0.68998934960E+01  0.34471760644E+02  0.00000000000E+00 0.  1.
<mgrwt>
<rscale>  2 0.33774158E+02</rscale>
<asrwt>0</asrwt>
<pdfrwt beam="1">  1       21 0.13733410E-01 0.33774158E+02</pdfrwt>
<pdfrwt beam="2">  1       -4 0.27606327E-02 0.33774158E+02</pdfrwt>
<totfact> 0.79780748E+05</totfact>
</mgrwt>
</event>
<event>
 4    1  0.2245608E+006  0.3273896E+02  0.7546771E-02  0.1569647E+00
          2   -1    0    0  502    0 -0.00000000000E+00  0.00000000000E+00  0.71552829502E+03  0.71552829502E+03  0.00000000000E+00 0.  1.
         21   -1    0    0  503  502  0.00000000000E+00 -0.00000000000E+00 -0.33328142003E+01  0.33328142003E+01  0.00000000000E+00 0.  1.
         21    1    1    2  503  501 -0.10023337021E+02  0.31166844287E+02  0.89406277879E+02  0.95211984498E+02  0.00000000000E+00 0.  1.
          2    1    1    2  501    0  0.10023337021E+02 -0.31166844287E+02  0.62278920294E+03  0.62364912473E+03  0.00000000000E+00 0.  1.
<mgrwt>
<rscale>  2 0.32738959E+02</rscale>
<asrwt>0</asrwt>
<pdfrwt beam="2">  1       21 0.51274122E-03 0.32738959E+02</pdfrwt>
<pdfrwt beam="1">  1        2 0.11008115E+00 0.32738959E+02</pdfrwt>
<totfact> 0.43425069E+06</totfact>
</mgrwt>
</event>
<event>
 4    1  0.2245608E+006  0.2628641E+02  0.7546771E-02  0.1643184E+00
         21   -1    0    0  501  502  0.00000000000E+00  0.00000000000E+00  0.18927428702E+01  0.18927428702E+01  0.00000000000E+00 0.  1.
          2   -1    0    0  503    0 -0.00000000000E+00 -0.00000000000E+00 -0.11093013322E+04  0.11093013322E+04  0.00000000000E+00 0. -1.
         21    1    1    2  503  502 -0.25835303613E+02 -0.48489375819E+01 -0.98621470912E+02  0.10206453661E+03  0.00000000000E+00 0.  1.
          2    1    1    2  501    0  0.25835303613E+02  0.48489375819E+01 -0.10087871184E+04  0.10091295385E+04  0.00000000000E+00 0. -1.
<mgrwt>
<rscale>  2 0.26286405E+02</rscale>
<asrwt>0</asrwt>
<pdfrwt beam="1">  1       21 0.29119155E-03 0.26286405E+02</pdfrwt>
<pdfrwt beam="2">  1        2 0.17066154E+00 0.26286405E+02</pdfrwt>
<totfact> 0.56433834E+06</totfact>
</mgrwt>
</event>
<event>
 4    1  0.2245608E+006  0.4183895E+02  0.7546771E-02  0.1495099E+00
         -2   -1    0    0    0  501 -0.00000000000E+00  0.00000000000E+00  0.25414255985E+03  0.25414255985E+03  0.00000000000E+00 0. -1.
         21   -1    0    0  503  502  0.00000000000E+00 -0.00000000000E+00 -0.49318840698E+02  0.49318840698E+02  0.00000000000E+00 0.  1.
         21    1    1    2  503  501 -0.36535540398E+02  0.20387545339E+02 -0.38325234822E+02  0.56739063627E+02  0.00000000000E+00 0.  1.
         -2    1    1    2    0  502  0.36535540398E+02 -0.20387545339E+02  0.24314895397E+03  0.24672233692E+03  0.00000000000E+00 0. -1.
<mgrwt>
<rscale>  2 0.41838950E+02</rscale>
<asrwt>0</asrwt>
<pdfrwt beam="2">  1       21 0.75875141E-02 0.41838950E+02</pdfrwt>
<pdfrwt beam="1">  1       -2 0.39098855E-01 0.41838950E+02</pdfrwt>
<totfact> 0.60118916E+04</totfact>
</mgrwt>
</event>
<event>
 4    1  0.2245608E+006  0.2302856E+02  0.7546771E-02  0.1691048E+00
         21   -1    0    0  501  502  0.00000000000E+00  0.00000000000E+00  0.13712642071E+01  0.13712642071E+01  0.00000000000E+00 0.  1.
          3   -1    0    0  503    0 -0.00000000000E+00 -0.00000000000E+00 -0.42148830882E+03  0.42148830882E+03  0.00000000000E+00 0. -1.
         21    1    1    2  503  502 -0.16713881340E+02 -0.15841740064E+02 -0.14934611786E+03  0.15111114280E+03  0.00000000000E+00 0.  1.
          3    1    1    2  501    0  0.16713881340E+02  0.15841740064E+02 -0.27077092675E+03  0.27174843023E+03  0.00000000000E+00 0. -1.
<mgrwt>
<rscale>  2 0.23028560E+02</rscale>
<asrwt>0</asrwt>
<pdfrwt beam="1">  1       21 0.21096365E-03 0.23028560E+02</pdfrwt>
<pdfrwt beam="2">  1        3 0.64844377E-01 0.23028560E+02</pdfrwt>
<totfact> 0.27737291E+06</totfact>
</mgrwt>
</event>
<event>
 4    1  0.2245608E+006  0.4045616E+02  0.7546771E-02  0.1504881E+00
         21   -1    0    0  501  502  0.00000000000E+00  0.00000000000E+00  0.10538055195E+01  0.10538055195E+01  0.00000000000E+00 0. -1.
          2   -1    0    0  503    0 -0.00000000000E+00 -0.00000000000E+00 -0.24209040776E+04  0.24209040776E+04  0.00000000000E+00 0.  1.
         21    1    1    2  503  502  0.16551279664E+02  0.36915524984E+02 -0.48490475408E+03  0.48658947931E+03  0.00000000000E+00 0. -1.
          2    1    1    2  501    0 -0.16551279664E+02 -0.36915524984E+02 -0.19349455180E+04  0.19353684038E+04  0.00000000000E+00 0.  1.
<mgrwt>
<rscale>  2 0.40456160E+02</rscale>
<asrwt>0</asrwt>
<pdfrwt beam="1">  1       21 0.16212398E-03 0.40456160E+02</pdfrwt>
<pdfrwt beam="2">  1        2 0.37244665E+00 0.40456160E+02</pdfrwt>
<totfact> 0.32750651E+06</totfact>
</mgrwt>
</event>
<event>
 4    1  0.2245608E+006  0.2684497E+02  0.7546771E-02  0.1635834E+00
          2   -1    0    0  502    0 -0.00000000000E+00  0.00000000000E+00  0.11773555744E+03  0.11773555744E+03  0.00000000000E+00 0. -1.
         21   -1    0    0  503  502  0.00000000000E+00 -0.00000000000E+00 -0.18936019620E+02  0.18936019620E+02  0.00000000000E+00 0. -1.
         21    1    1    2  503  501  0.14588184028E+02  0.22535243618E+02 -0.68168228347E+01  0.27696956362E+02  0.00000000000E+00 0. -1.
          2    1    1    2  501    0 -0.14588184028E+02 -0.22535243618E+02  0.10561636065E+03  0.10897462069E+03  0.00000000000E+00 0. -1.
<mgrwt>
<rscale>  2 0.26844968E+02</rscale>
<asrwt>0</asrwt>
<pdfrwt beam="2">  1       21 0.29132339E-02 0.26844968E+02</pdfrwt>
<pdfrwt beam="1">  1        2 0.18113162E-01 0.26844968E+02</pdfrwt>
<totfact> 0.18893592E+06</totfact>
</mgrwt>
</event>
<event>
 4    1  0.2245608E+006  0.2116733E+02  0.7546771E-02  0.1723063E+00
         21   -1    0    0  501  502  0.00000000000E+00  0.00000000000E+00  0.76437763576E+00  0.76437763576E+00  0.00000000000E+00 0.  1.
         -3   -1    0    0    0  501 -0.00000000000E+00 -0.00000000000E+00 -0.61658110930E+03  0.61658110930E+03  0.00000000000E+00 0.  1.
         21    1    1    2  503  502  0.15274234188E+02 -0.14654481352E+02 -0.23935769765E+03  0.24029182981E+03  0.00000000000E+00 0.  1.
         -3    1    1    2    0  503 -0.15274234188E+02  0.14654481352E+02 -0.37645903402E+03  0.37705365713E+03  0.00000000000E+00 0.  1.
<mgrwt>
<rscale>  2 0.21167335E+02</rscale>
<asrwt>0</asrwt>
<pdfrwt beam="1">  1       21 0.11759610E-03 0.21167335E+02</pdfrwt>
<pdfrwt beam="2">  1       -3 0.94859000E-01 0.21167335E+02</pdfrwt>
<totfact> 0.28281954E+06</totfact>
</mgrwt>
</event>
<event>
 4    1  0.2245608E+006  0.2046506E+02  0.7546771E-02  0.1736235E+00
         21   -1    0    0  503  502  0.00000000000E+00  0.00000000000E+00  0.54034828652E+01  0.54034828652E+01  0.00000000000E+00 0.  1.
          2   -1    0    0  502    0 -0.00000000000E+00 -0.00000000000E+00 -0.73362655328E+03  0.73362655328E+03  0.00000000000E+00 0. -1.
         21    1    1    2  503  501 -0.24391424638E+00 -0.20463608002E+02 -0.14661257880E+02  0.25174813391E+02  0.00000000000E+00 0.  1.
          2    1    1    2  501    0  0.24391424638E+00  0.20463608002E+02 -0.71356181253E+03  0.71385522275E+03  0.00000000000E+00 0. -1.
<mgrwt>
<rscale>  2 0.20465062E+02</rscale>
<asrwt>0</asrwt>
<pdfrwt beam="1">  1       21 0.83130523E-03 0.20465062E+02</pdfrwt>
<pdfrwt beam="2">  1        2 0.11286560E+00 0.20465062E+02</pdfrwt>
<totfact> 0.18691757E+06</totfact>
</mgrwt>
</event>
<event>
 4    1  0.2245608E+006  0.2007424E+02  0.7546771E-02  0.1743856E+00
          2   -1    0    0  502    0 -0.00000000000E+00  0.00000000000E+00  0.89903204373E+02  0.89903204373E+02  0.00000000000E+00 0. -1.
         21   -1    0    0  503  502  0.00000000000E+00 -0.00000000000E+00 -0.33956144901E+03  0.33956144901E+03  0.00000000000E+00 0.  1.
         21    1    1    2  503  501 -0.17713633946E+02  0.94446920524E+01 -0.33813947264E+03  0.33873481957E+03  0.00000000000E+00 0.  1.
          2    1    1    2  501    0  0.17713633946E+02 -0.94446920524E+01  0.88481227998E+02  0.90729833812E+02  0.00000000000E+00 0. -1.
<mgrwt>
<rscale>  2 0.20074238E+02</rscale>
<asrwt>0</asrwt>
<pdfrwt beam="2">  1       21 0.52240224E-01 0.20074238E+02</pdfrwt>
<pdfrwt beam="1">  1        2 0.13831262E-01 0.20074238E+02</pdfrwt>
<totfact> 0.17864713E+04</totfact>
</mgrwt>
</event>
<event>
 4    1  0.2245608E+006  0.3863278E+02  0.7546771E-02  0.1518521E+00
         21   -1    0    0  501  502  0.00000000000E+00  0.00000000000E+00  0.17340959962E+03  0.17340959962E+03  0.00000000000E+00 0.  1.
          1   -1    0    0  503    0 -0.00000000000E+00 -0.00000000000E+00 -0.16955424151E+03  0.16955424151E+03  0.00000000000E+00 0. -1.
         21    1    1    2  503  502  0.20300327958E+02 -0.32869267215E+02  0.16900062245E+03  0.17336003700E+03  0.00000000000E+00 0.  1.
          1    1    1    2  501    0 -0.20300327958E+02  0.32869267215E+02 -0.16514526433E+03  0.16960380413E+03  0.00000000000E+00 0. -1.
<mgrwt>
<rscale>  2 0.38632785E+02</rscale>
<asrwt>0</asrwt>
<pdfrwt beam="1">  1       21 0.26678400E-01 0.38632785E+02</pdfrwt>
<pdfrwt beam="2">  1        1 0.26085268E-01 0.38632785E+02</pdfrwt>
<totfact> 0.25723820E+04</totfact>
</mgrwt>
</event>
<event>
 4    1  0.2245608E+006  0.2389737E+02  0.7546771E-02  0.1677364E+00
          3   -1    0    0  503    0 -0.00000000000E+00  0.00000000000E+00  0.60180289448E+01  0.60180289448E+01  0.00000000000E+00 0.  1.
         21   -1    0    0  501  502  0.00000000000E+00 -0.00000000000E+00 -0.12902387739E+03  0.12902387739E+03  0.00000000000E+00 0. -1.
         21    1    1    2  503  502  0.20717810518E+01  0.23807395159E+02 -0.96229410121E+02  0.99152325808E+02  0.00000000000E+00 0. -1.
          3    1    1    2  501    0 -0.20717810518E+01 -0.23807395159E+02 -0.26776438321E+02  0.35889580523E+02  0.00000000000E+00 0.  1.
<mgrwt>
<rscale>  2 0.23897371E+02</rscale>
<asrwt>0</asrwt>
<pdfrwt beam="2">  1       21 0.19849826E-01 0.23897371E+02</pdfrwt>
<pdfrwt beam="1">  1        3 0.92585069E-03 0.23897371E+02</pdfrwt>
<totfact> 0.21352609E+06</totfact>
</mgrwt>
</event>
<event>
 4    1  0.2245608E+006  0.2061542E+02  0.7546771E-02  0.1733360E+00
         21   -1    0    0  503  502  0.00000000000E+00  0.00000000000E+00  0.11233391687E+03  0.11233391687E+03  0.00000000000E+00 0.  1.
          3   -1    0    0  502    0 -0.00000000000E+00 -0.00000000000E+00 -0.60068305672E+01  0.60068305672E+01  0.00000000000E+00 0. -1.
         21    1    1    2  503  501 -0.19772620555E+02 -0.58342867447E+01  0.89163417454E+02  0.91515629471E+02  0.00000000000E+00 0.  1.
          3    1    1    2  501    0  0.19772620555E+02  0.58342867447E+01  0.17163668844E+02  0.26825117961E+02  0.00000000000E+00 0. -1.
<mgrwt>
<rscale>  2 0.20615417E+02</rscale>
<asrwt>0</asrwt>
<pdfrwt beam="1">  1       21 0.17282140E-01 0.20615417E+02</pdfrwt>
<pdfrwt beam="2">  1        3 0.92412786E-03 0.20615417E+02</pdfrwt>
<totfact> 0.25754955E+06</totfact>
</mgrwt>
</event>
<event>
 4    1  0.2245608E+006  0.2506652E+02  0.7546771E-02  0.1660048E+00
          2   -1    0    0  502    0 -0.00000000000E+00  0.00000000000E+00  0.17565032439E+03  0.17565032439E+03  0.00000000000E+00 0. -1.
         21   -1    0    0  503  502  0.00000000000E+00 -0.00000000000E+00 -0.49362613264E+02  0.49362613264E+02  0.00000000000E+00 0. -1.
         21    1    1    2  503  501 -0.13554645478E+02  0.21085589838E+02 -0.45209445997E+02  0.51693563624E+02  0.00000000000E+00 0. -1.
          2    1    1    2  501    0  0.13554645478E+02 -0.21085589838E+02  0.17149715712E+03  0.17331937403E+03  0.00000000000E+00 0. -1.
<mgrwt>
<rscale>  2 0.25066522E+02</rscale>
<asrwt>0</asrwt>
<pdfrwt beam="2">  1       21 0.75942483E-02 0.25066522E+02</pdfrwt>
<pdfrwt beam="1">  1        2 0.27023127E-01 0.25066522E+02</pdfrwt>
<totfact> 0.26548061E+05</totfact>
</mgrwt>
</event>
<event>
 4    1  0.2245608E+006  0.6631335E+02  0.7546771E-02  0.1373098E+00
         -2   -1    0    0    0  501 -0.00000000000E+00  0.00000000000E+00  0.28683155462E+02  0.28683155462E+02  0.00000000000E+00 0.  1.
         21   -1    0    0  503  502  0.00000000000E+00 -0.00000000000E+00 -0.24506812462E+03  0.24506812462E+03  0.00000000000E+00 0. -1.
         21    1    1    2  503  501  0.88588810046E+01  0.65718948811E+02 -0.19194565664E+03  0.20307780555E+03  0.00000000000E+00 0. -1.
         -2    1    1    2    0  502 -0.88588810046E+01 -0.65718948811E+02 -0.24439312517E+02  0.70673474528E+02  0.00000000000E+00 0.  1.
<mgrwt>
<rscale>  2 0.66313347E+02</rscale>
<asrwt>0</asrwt>
<pdfrwt beam="2">  1       21 0.37702787E-01 0.66313347E+02</pdfrwt>
<pdfrwt beam="1">  1       -2 0.44127933E-02 0.66313347E+02</pdfrwt>
<totfact> 0.11684782E+05</totfact>
</mgrwt>
</event>
<event>
 4    1  0.2245608E+006  0.2422004E+02  0.7546771E-02  0.1672464E+00
         -2   -1    0    0    0  501 -0.00000000000E+00  0.00000000000E+00  0.52080068676E+02  0.52080068676E+02  0.00000000000E+00 0.  1.
         21   -1    0    0  503  502  0.00000000000E+00 -0.00000000000E+00 -0.12556943444E+02  0.12556943444E+02  0.00000000000E+00 0.  1.
         21    1    1    2  503  501  0.10168814432E-02  0.24220038123E+02  0.93895647933E+01  0.25976415740E+02  0.00000000000E+00 0.  1.
         -2    1    1    2    0  502 -0.10168814432E-02 -0.24220038123E+02  0.30133560438E+02  0.38660596379E+02  0.00000000000E+00 0.  1.
<mgrwt>
<rscale>  2 0.24220038E+02</rscale>
<asrwt>0</asrwt>
<pdfrwt beam="2">  1       21 0.19318375E-02 0.24220038E+02</pdfrwt>
<pdfrwt beam="1">  1       -2 0.80123181E-02 0.24220038E+02</pdfrwt>
<totfact> 0.62259822E+06</totfact>
</mgrwt>
</event>
<event>
 4    1  0.2245608E+006  0.2680383E+02  0.7546771E-02  0.1636367E+00
          2   -1    0    0  503    0 -0.00000000000E+00  0.00000000000E+00  0.61296894242E+01  0.61296894242E+01  0.00000000000E+00 0.  1.
         21   -1    0    0  501  502  0.00000000000E+00 -0.00000000000E+00 -0.54908021906E+03  0.54908021906E+03  0.00000000000E+00 0.  1.
         21    1    1    2  503  502  0.28849389760E+00 -0.26802279902E+02 -0.51767478941E+03  0.51836824076E+03  0.00000000000E+00 0.  1.
          2    1    1    2  501    0 -0.28849389760E+00  0.26802279902E+02 -0.25275740220E+02  0.36841667719E+02  0.00000000000E+00 0.  1.
<mgrwt>
<rscale>  2 0.26803832E+02</rscale>
<asrwt>0</asrwt>
<pdfrwt beam="2">  1       21 0.84473926E-01 0.26803832E+02</pdfrwt>
<pdfrwt beam="1">  1        2 0.94302863E-03 0.26803832E+02</pdfrwt>
<totfact> 0.18961750E+05</totfact>
</mgrwt>
</event>
<event>
 4    1  0.2245608E+006  0.2225184E+02  0.7546771E-02  0.1703933E+00
          2   -1    0    0  503    0 -0.00000000000E+00  0.00000000000E+00  0.11165766653E+02  0.11165766653E+02  0.00000000000E+00 0.  1.
         21   -1    0    0  501  502  0.00000000000E+00 -0.00000000000E+00 -0.62188003847E+02  0.62188003847E+02  0.00000000000E+00 0. -1.
         21    1    1    2  503  502 -0.22184832397E+02  0.17256063279E+01 -0.45157142433E+02  0.50341950880E+02  0.00000000000E+00 0. -1.
          2    1    1    2  501    0  0.22184832397E+02 -0.17256063279E+01 -0.58650947606E+01  0.23011819620E+02  0.00000000000E+00 0.  1.
<mgrwt>
<rscale>  2 0.22251843E+02</rscale>
<asrwt>0</asrwt>
<pdfrwt beam="2">  1       21 0.95673854E-02 0.22251843E+02</pdfrwt>
<pdfrwt beam="1">  1        2 0.17178102E-02 0.22251843E+02</pdfrwt>
<totfact> 0.45835295E+06</totfact>
</mgrwt>
</event>
<event>
 4    1  0.2245608E+006  0.2893020E+02  0.7546771E-02  0.1610224E+00
         -2   -1    0    0    0  501 -0.00000000000E+00  0.00000000000E+00  0.47193890923E+02  0.47193890923E+02  0.00000000000E+00 0. -1.
         21   -1    0    0  503  502  0.00000000000E+00 -0.00000000000E+00 -0.18637606360E+02  0.18637606360E+02  0.00000000000E+00 0.  1.
         21    1    1    2  503  501  0.17142077461E+02 -0.23304629049E+02  0.70321816445E+01  0.29772607099E+02  0.00000000000E+00 0.  1.
         -2    1    1    2    0  502 -0.17142077461E+02  0.23304629049E+02  0.21524102919E+02  0.36058890184E+02  0.00000000000E+00 0. -1.
<mgrwt>
<rscale>  2 0.28930201E+02</rscale>
<asrwt>0</asrwt>
<pdfrwt beam="2">  1       21 0.28673241E-02 0.28930201E+02</pdfrwt>
<pdfrwt beam="1">  1       -2 0.72605986E-02 0.28930201E+02</pdfrwt>
<totfact> 0.40965217E+06</totfact>
</mgrwt>
</event>
<event>
 4    1  0.2245608E+006  0.2828027E+02  0.7546771E-02  0.1617915E+00
         21   -1    0    0  501  502  0.00000000000E+00  0.00000000000E+00  0.10182072543E+01  0.10182072543E+01  0.00000000000E+00 0.  1.
          2   -1    0    0  503    0 -0.00000000000E+00 -0.00000000000E+00 -0.81252104927E+03  0.81252104927E+03  0.00000000000E+00 0.  1.
         21    1    1    2  503  502 -0.21457175823E+02 -0.18421817240E+02 -0.33153438371E+03  0.33273836768E+03  0.00000000000E+00 0.  1.
          2    1    1    2  501    0  0.21457175823E+02  0.18421817240E+02 -0.47996845830E+03  0.48080088884E+03  0.00000000000E+00 0.  1.
<mgrwt>
<rscale>  2 0.28280271E+02</rscale>
<asrwt>0</asrwt>
<pdfrwt beam="1">  1       21 0.15664613E-03 0.28280271E+02</pdfrwt>
<pdfrwt beam="2">  1        2 0.12500415E+00 0.28280271E+02</pdfrwt>
<totfact> 0.20762857E+07</totfact>
</mgrwt>
</event>
<event>
 4    1  0.2245608E+006  0.2557079E+02  0.7546771E-02  0.1652936E+00
         21   -1    0    0  503  502  0.00000000000E+00  0.00000000000E+00  0.48385146702E+02  0.48385146702E+02  0.00000000000E+00 0. -1.
         -1   -1    0    0    0  501 -0.00000000000E+00 -0.00000000000E+00 -0.46222716110E+02  0.46222716110E+02  0.00000000000E+00 0. -1.
         21    1    1    2  503  501 -0.60949581480E+01 -0.24833786371E+02  0.40873861441E+02  0.48213462948E+02  0.00000000000E+00 0. -1.
         -1    1    1    2    0  502  0.60949581480E+01  0.24833786371E+02 -0.38711430849E+02  0.46394399863E+02  0.00000000000E+00 0. -1.
<mgrwt>
<rscale>  2 0.25570793E+02</rscale>
<asrwt>0</asrwt>
<pdfrwt beam="1">  1       21 0.74438687E-02 0.25570793E+02</pdfrwt>
<pdfrwt beam="2">  1       -1 0.71111871E-02 0.25570793E+02</pdfrwt>
<totfact> 0.92386614E+05</totfact>
</mgrwt>
</event>
<event>
 4    1  0.2245608E+006  0.3999811E+02  0.7546771E-02  0.1508225E+00
         21   -1    0    0  503  502  0.00000000000E+00  0.00000000000E+00  0.11944587017E+03  0.11944587017E+03  0.00000000000E+00 0.  1.
          2   -1    0    0  502    0 -0.00000000000E+00 -0.00000000000E+00 -0.21822177424E+03  0.21822177424E+03  0.00000000000E+00 0. -1.
         21    1    1    2  503  501  0.18324858436E+02 -0.35553462620E+02  0.11418252214E+03  0.12098552601E+03  0.00000000000E+00 0.  1.
          2    1    1    2  501    0 -0.18324858436E+02  0.35553462620E+02 -0.21295842621E+03  0.21668211840E+03  0.00000000000E+00 0. -1.
<mgrwt>
<rscale>  2 0.39998114E+02</rscale>
<asrwt>0</asrwt>
<pdfrwt beam="1">  1       21 0.18376288E-01 0.39998114E+02</pdfrwt>
<pdfrwt beam="2">  1        2 0.33572580E-01 0.39998114E+02</pdfrwt>
<totfact> 0.49581936E+04</totfact>
</mgrwt>
</event>
<event>
 4    1  0.2245608E+006  0.2337219E+02  0.7546771E-02  0.1685547E+00
         21   -1    0    0  503  502  0.00000000000E+00  0.00000000000E+00  0.18843638630E+03  0.18843638630E+03  0.00000000000E+00 0.  1.
          1   -1    0    0  502    0 -0.00000000000E+00 -0.00000000000E+00 -0.42317525160E+01  0.42317525160E+01  0.00000000000E+00 0.  1.
         21    1    1    2  503  501  0.22579650772E+02  0.60347737167E+01  0.14616655174E+03  0.14802337643E+03  0.00000000000E+00 0.  1.
          1    1    1    2  501    0 -0.22579650772E+02 -0.60347737167E+01  0.38038082050E+02  0.44644762390E+02  0.00000000000E+00 0.  1.
<mgrwt>
<rscale>  2 0.23372187E+02</rscale>
<asrwt>0</asrwt>
<pdfrwt beam="1">  1       21 0.28990207E-01 0.23372187E+02</pdfrwt>
<pdfrwt beam="2">  1        1 0.65103900E-03 0.23372187E+02</pdfrwt>
<totfact> 0.23995376E+06</totfact>
</mgrwt>
</event>
<event>
 4    1  0.2245608E+006  0.2367452E+02  0.7546771E-02  0.1680804E+00
         21   -1    0    0  503  502  0.00000000000E+00  0.00000000000E+00  0.42775318937E+01  0.42775318937E+01  0.00000000000E+00 0. -1.
          1   -1    0    0  502    0 -0.00000000000E+00 -0.00000000000E+00 -0.15104285671E+03  0.15104285671E+03  0.00000000000E+00 0. -1.
         21    1    1    2  503  501 -0.21412492974E+02  0.10098907068E+02 -0.45113784942E+02  0.50948369661E+02  0.00000000000E+00 0. -1.
          1    1    1    2  501    0  0.21412492974E+02 -0.10098907068E+02 -0.10165153987E+03  0.10437201894E+03  0.00000000000E+00 0. -1.
<mgrwt>
<rscale>  2 0.23674518E+02</rscale>
<asrwt>0</asrwt>
<pdfrwt beam="1">  1       21 0.65808179E-03 0.23674518E+02</pdfrwt>
<pdfrwt beam="2">  1        1 0.23237364E-01 0.23674518E+02</pdfrwt>
<totfact> 0.10784823E+07</totfact>
</mgrwt>
</event>
<event>
 4    1  0.2245608E+006  0.4511371E+02  0.7546771E-02  0.1473633E+00
         21   -1    0    0  503  502  0.00000000000E+00  0.00000000000E+00  0.26223821223E+03  0.26223821223E+03  0.00000000000E+00 0. -1.
         -2   -1    0    0    0  501 -0.00000000000E+00 -0.00000000000E+00 -0.89993483972E+01  0.89993483972E+01  0.00000000000E+00 0. -1.
         21    1    1    2  503  501 -0.97138102623E+01  0.44055519460E+02  0.17692602798E+03  0.18258714709E+03  0.00000000000E+00 0. -1.
         -2    1    1    2    0  502  0.97138102623E+01 -0.44055519460E+02  0.76312835843E+02  0.88650413531E+02  0.00000000000E+00 0. -1.
<mgrwt>
<rscale>  2 0.45113711E+02</rscale>
<asrwt>0</asrwt>
<pdfrwt beam="1">  1       21 0.40344335E-01 0.45113711E+02</pdfrwt>
<pdfrwt beam="2">  1       -2 0.13845153E-02 0.45113711E+02</pdfrwt>
<totfact> 0.51199781E+05</totfact>
</mgrwt>
</event>
<event>
 4    1  0.2245608E+006  0.2856631E+02  0.7546771E-02  0.1614499E+00
          2   -1    0    0  502    0 -0.00000000000E+00  0.00000000000E+00  0.62794684669E+03  0.62794684669E+03  0.00000000000E+00 0. -1.
         21   -1    0    0  503  502  0.00000000000E+00 -0.00000000000E+00 -0.14757448437E+01  0.14757448437E+01  0.00000000000E+00 0. -1.
         21    1    1    2  503  501  0.67715281749E+01  0.27752123819E+02  0.20448500103E+03  0.20647069918E+03  0.00000000000E+00 0. -1.
          2    1    1    2  501    0 -0.67715281749E+01 -0.27752123819E+02  0.42198610081E+03  0.42295189236E+03  0.00000000000E+00 0. -1.
<mgrwt>
<rscale>  2 0.28566308E+02</rscale>
<asrwt>0</asrwt>
<pdfrwt beam="2">  1       21 0.22703817E-03 0.28566308E+02</pdfrwt>
<pdfrwt beam="1">  1        2 0.96606994E-01 0.28566308E+02</pdfrwt>
<totfact> 0.16154421E+07</totfact>
</mgrwt>
</event>
<event>
 4    1  0.2245608E+006  0.3658012E+02  0.7546771E-02  0.1535000E+00
         21   -1    0    0  501  502  0.00000000000E+00  0.00000000000E+00  0.10862944121E+03  0.10862944121E+03  0.00000000000E+00 0. -1.
          1   -1    0    0  503    0 -0.00000000000E+00 -0.00000000000E+00 -0.13426679364E+02  0.13426679364E+02  0.00000000000E+00 0. -1.
         21    1    1    2  503  502 -0.11922219645E+02  0.34582739465E+02  0.65137532700E+02  0.74706113247E+02  0.00000000000E+00 0. -1.
          1    1    1    2  501    0  0.11922219645E+02 -0.34582739465E+02  0.30065229142E+02  0.47350007324E+02  0.00000000000E+00 0. -1.
<mgrwt>
<rscale>  2 0.36580120E+02</rscale>
<asrwt>0</asrwt>
<pdfrwt beam="1">  1       21 0.16712221E-01 0.36580120E+02</pdfrwt>
<pdfrwt beam="2">  1        1 0.20656430E-02 0.36580120E+02</pdfrwt>
<totfact> 0.15203736E+06</totfact>
</mgrwt>
</event>
<event>
 4    1  0.2245608E+006  0.3122094E+02  0.7546771E-02  0.1584972E+00
          1   -1    0    0  502    0 -0.00000000000E+00  0.00000000000E+00  0.75525576702E+02  0.75525576702E+02  0.00000000000E+00 0.  1.
         21   -1    0    0  503  502  0.00000000000E+00 -0.00000000000E+00 -0.33826350341E+02  0.33826350341E+02  0.00000000000E+00 0. -1.
         21    1    1    2  503  501 -0.27164029095E+02  0.15390333871E+02 -0.22148704024E+02  0.38279393194E+02  0.00000000000E+00 0. -1.
          1    1    1    2  501    0  0.27164029095E+02 -0.15390333871E+02  0.63847930385E+02  0.71072533850E+02  0.00000000000E+00 0.  1.
<mgrwt>
<rscale>  2 0.31220936E+02</rscale>
<asrwt>0</asrwt>
<pdfrwt beam="2">  1       21 0.52040539E-02 0.31220936E+02</pdfrwt>
<pdfrwt beam="1">  1        1 0.11619319E-01 0.31220936E+02</pdfrwt>
<totfact> 0.11008469E+06</totfact>
</mgrwt>
</event>
<event>
 4    1  0.2245608E+006  0.2879281E+02  0.7546771E-02  0.1611829E+00
          1   -1    0    0  503    0 -0.00000000000E+00  0.00000000000E+00  0.32269226884E+02  0.32269226884E+02  0.00000000000E+00 0. -1.
         21   -1    0    0  501  502  0.00000000000E+00 -0.00000000000E+00 -0.56494255005E+02  0.56494255005E+02  0.00000000000E+00 0.  1.
         21    1    1    2  503  502  0.25077795238E+02 -0.14146728183E+02 -0.44884378278E+02  0.53325726865E+02  0.00000000000E+00 0.  1.
          1    1    1    2  501    0 -0.25077795238E+02  0.14146728183E+02  0.20659350157E+02  0.35437755024E+02  0.00000000000E+00 0. -1.
<mgrwt>
<rscale>  2 0.28792807E+02</rscale>
<asrwt>0</asrwt>
<pdfrwt beam="2">  1       21 0.86914237E-02 0.28792807E+02</pdfrwt>
<pdfrwt beam="1">  1        1 0.49644965E-02 0.28792807E+02</pdfrwt>
<totfact> 0.13859003E+06</totfact>
</mgrwt>
</event>
<event>
 4    1  0.2245608E+006  0.2053822E+02  0.7546771E-02  0.1734832E+00
          1   -1    0    0  502    0 -0.00000000000E+00  0.00000000000E+00  0.78291371747E+02  0.78291371747E+02  0.00000000000E+00 0.  1.
         21   -1    0    0  503  502  0.00000000000E+00 -0.00000000000E+00 -0.13356051751E+02  0.13356051751E+02  0.00000000000E+00 0. -1.
         21    1    1    2  503  501  0.10674345246E+02 -0.17546415448E+02 -0.29265896935E+01  0.20745680725E+02  0.00000000000E+00 0. -1.
          1    1    1    2  501    0 -0.10674345246E+02  0.17546415448E+02  0.67861909690E+02  0.70901742773E+02  0.00000000000E+00 0.  1.
<mgrwt>
<rscale>  2 0.20538217E+02</rscale>
<asrwt>0</asrwt>
<pdfrwt beam="2">  1       21 0.20547772E-02 0.20538217E+02</pdfrwt>
<pdfrwt beam="1">  1        1 0.12044826E-01 0.20538217E+02</pdfrwt>
<totfact> 0.41042591E+06</totfact>
</mgrwt>
</event>
<event>
 4    1  0.2245608E+006  0.2047061E+02  0.7546771E-02  0.1736128E+00
          2   -1    0    0  503    0 -0.00000000000E+00  0.00000000000E+00  0.46027823291E+02  0.46027823291E+02  0.00000000000E+00 0. -1.
         21   -1    0    0  501  502  0.00000000000E+00 -0.00000000000E+00 -0.33314042813E+02  0.33314042813E+02  0.00000000000E+00 0. -1.
         21    1    1    2  503  502  0.29139066090E+01  0.20262159620E+02 -0.27461648347E+02  0.34251833442E+02  0.00000000000E+00 0. -1.
          2    1    1    2  501    0 -0.29139066090E+01 -0.20262159620E+02  0.40175428825E+02  0.45090032662E+02  0.00000000000E+00 0. -1.
<mgrwt>
<rscale>  2 0.20470612E+02</rscale>
<asrwt>0</asrwt>
<pdfrwt beam="2">  1       21 0.51252373E-02 0.20470612E+02</pdfrwt>
<pdfrwt beam="1">  1        2 0.70812036E-02 0.20470612E+02</pdfrwt>
<totfact> 0.21139467E+06</totfact>
</mgrwt>
</event>
<event>
 4    1  0.2245608E+006  0.3588339E+02  0.7546771E-02  0.1540893E+00
          1   -1    0    0  502    0 -0.00000000000E+00  0.00000000000E+00  0.54356281254E+02  0.54356281254E+02  0.00000000000E+00 0.  1.
         21   -1    0    0  503  502  0.00000000000E+00 -0.00000000000E+00 -0.24308754413E+03  0.24308754413E+03  0.00000000000E+00 0. -1.
         21    1    1    2  503  501 -0.13378898882E+02 -0.33295990999E+02 -0.23565548975E+03  0.23837182677E+03  0.00000000000E+00 0. -1.
          1    1    1    2  501    0  0.13378898882E+02  0.33295990999E+02  0.46924226873E+02  0.59071998608E+02  0.00000000000E+00 0.  1.
<mgrwt>
<rscale>  2 0.35883394E+02</rscale>
<asrwt>0</asrwt>
<pdfrwt beam="2">  1       21 0.37398085E-01 0.35883394E+02</pdfrwt>
<pdfrwt beam="1">  1        1 0.83625045E-02 0.35883394E+02</pdfrwt>
<totfact> 0.55890621E+04</totfact>
</mgrwt>
</event>
<event>
 4    1  0.2245608E+006  0.2374192E+02  0.7546771E-02  0.1679759E+00
          1   -1    0    0  503    0 -0.00000000000E+00  0.00000000000E+00  0.57511475503E+02  0.57511475503E+02  0.00000000000E+00 0. -1.
         21   -1    0    0  501  502  0.00000000000E+00 -0.00000000000E+00 -0.41522938479E+02  0.41522938479E+02  0.00000000000E+00 0.  1.
         21    1    1    2  503  502 -0.72878527635E+01  0.22595707647E+02 -0.35286095886E+02  0.42529840875E+02  0.00000000000E+00 0.  1.
          1    1    1    2  501    0  0.72878527635E+01 -0.22595707647E+02  0.51274632911E+02  0.56504573108E+02  0.00000000000E+00 0. -1.
<mgrwt>
<rscale>  2 0.23741921E+02</rscale>
<asrwt>0</asrwt>
<pdfrwt beam="2">  1       21 0.63881443E-02 0.23741921E+02</pdfrwt>
<pdfrwt beam="1">  1        1 0.88479194E-02 0.23741921E+02</pdfrwt>
<totfact> 0.10526773E+06</totfact>
</mgrwt>
</event>
<event>
 4    1  0.2245608E+006  0.3172032E+02  0.7546771E-02  0.1579816E+00
          2   -1    0    0  503    0 -0.00000000000E+00  0.00000000000E+00  0.44696463205E+03  0.44696463205E+03  0.00000000000E+00 0. -1.
         21   -1    0    0  501  502  0.00000000000E+00 -0.00000000000E+00 -0.29456408709E+01  0.29456408709E+01  0.00000000000E+00 0. -1.
         21    1    1    2  503  502 -0.12424078662E+02 -0.29185975273E+02  0.11277918532E+03  0.11715512590E+03  0.00000000000E+00 0. -1.
          2    1    1    2  501    0  0.12424078662E+02  0.29185975273E+02  0.33123980585E+03  0.33275514701E+03  0.00000000000E+00 0. -1.
<mgrwt>
<rscale>  2 0.31720323E+02</rscale>
<asrwt>0</asrwt>
<pdfrwt beam="2">  1       21 0.45317587E-03 0.31720323E+02</pdfrwt>
<pdfrwt beam="1">  1        2 0.68763736E-01 0.31720323E+02</pdfrwt>
<totfact> 0.85193713E+06</totfact>
</mgrwt>
</event>
<event>
 4    1  0.2245608E+006  0.3429565E+02  0.7546771E-02  0.1554946E+00
          4   -1    0    0  503    0 -0.00000000000E+00  0.00000000000E+00  0.57459187883E+01  0.57459187883E+01  0.00000000000E+00 0.  1.
         21   -1    0    0  501  502  0.00000000000E+00 -0.00000000000E+00 -0.26619084603E+03  0.26619084603E+03  0.00000000000E+00 0.  1.
         21    1    1    2  503  502 -0.10913628221E+01  0.34278284939E+02 -0.19557240222E+03  0.19855668309E+03  0.00000000000E+00 0.  1.
          4    1    1    2  501    0  0.10913628221E+01 -0.34278284939E+02 -0.64872525024E+02  0.73380081726E+02  0.00000000000E+00 0.  1.
<mgrwt>
<rscale>  2 0.34295654E+02</rscale>
<asrwt>0</asrwt>
<pdfrwt beam="2">  1       21 0.40952431E-01 0.34295654E+02</pdfrwt>
<pdfrwt beam="1">  1        4 0.88398766E-03 0.34295654E+02</pdfrwt>
<totfact> 0.59870064E+05</totfact>
</mgrwt>
</event>
<event>
 4    1  0.2245608E+006  0.3367800E+02  0.7546771E-02  0.1560664E+00
          1   -1    0    0  502    0 -0.00000000000E+00  0.00000000000E+00  0.20846123920E+04  0.20846123920E+04  0.00000000000E+00 0. -1.
         21   -1    0    0  503  502  0.00000000000E+00 -0.00000000000E+00 -0.13006436936E+01  0.13006436936E+01  0.00000000000E+00 0. -1.
         21    1    1    2  503  501 -0.32819122846E+02 -0.75573079997E+01  0.24621454206E+03  0.24850715976E+03  0.00000000000E+00 0. -1.
          1    1    1    2  501    0  0.32819122846E+02  0.75573079997E+01  0.18370972062E+04  0.18374058759E+04  0.00000000000E+00 0. -1.
<mgrwt>
<rscale>  2 0.33678001E+02</rscale>
<asrwt>0</asrwt>
<pdfrwt beam="2">  1       21 0.20010070E-03 0.33678001E+02</pdfrwt>
<pdfrwt beam="1">  1        1 0.32070692E+00 0.33678001E+02</pdfrwt>
<totfact> 0.13815233E+06</totfact>
</mgrwt>
</event>
<event>
 4    1  0.2245608E+006  0.5141793E+02  0.7546771E-02  0.1437840E+00
          1   -1    0    0  503    0 -0.00000000000E+00  0.00000000000E+00  0.16495416676E+03  0.16495416676E+03  0.00000000000E+00 0.  1.
         21   -1    0    0  501  502  0.00000000000E+00 -0.00000000000E+00 -0.27897129635E+02  0.27897129635E+02  0.00000000000E+00 0.  1.
         21    1    1    2  503  502  0.16525928481E+02  0.48689801004E+02  0.56313092413E+01  0.51725377502E+02  0.00000000000E+00 0.  1.
          1    1    1    2  501    0 -0.16525928481E+02 -0.48689801004E+02  0.13142572789E+03  0.14112591890E+03  0.00000000000E+00 0.  1.
<mgrwt>
<rscale>  2 0.51417925E+02</rscale>
<asrwt>0</asrwt>
<pdfrwt beam="2">  1       21 0.42918662E-02 0.51417925E+02</pdfrwt>
<pdfrwt beam="1">  1        1 0.25377564E-01 0.51417925E+02</pdfrwt>
<totfact> 0.62157504E+05</totfact>
</mgrwt>
</event>
<event>
 4    1  0.2245608E+006  0.3939542E+02  0.7546771E-02  0.1512708E+00
         21   -1    0    0  501  502  0.00000000000E+00  0.00000000000E+00  0.18180816558E+01  0.18180816558E+01  0.00000000000E+00 0.  1.
          1   -1    0    0  503    0 -0.00000000000E+00 -0.00000000000E+00 -0.10204155157E+04  0.10204155157E+04  0.00000000000E+00 0.  1.
         21    1    1    2  503  502  0.24321366490E+02 -0.30991451255E+02 -0.30267060891E+03  0.30522368259E+03  0.00000000000E+00 0.  1.
          1    1    1    2  501    0 -0.24321366490E+02  0.30991451255E+02 -0.71592682516E+03  0.71700991479E+03  0.00000000000E+00 0.  1.
<mgrwt>
<rscale>  2 0.39395417E+02</rscale>
<asrwt>0</asrwt>
<pdfrwt beam="1">  1       21 0.27970483E-03 0.39395417E+02</pdfrwt>
<pdfrwt beam="2">  1        1 0.15698703E+00 0.39395417E+02</pdfrwt>
<totfact> 0.39494359E+06</totfact>
</mgrwt>
</event>
<event>
 4    1  0.2245608E+006  0.2443652E+02  0.7546771E-02  0.1669230E+00
         21   -1    0    0  501  502  0.00000000000E+00  0.00000000000E+00  0.85354003099E+02  0.85354003099E+02  0.00000000000E+00 0.  1.
          2   -1    0    0  503    0 -0.00000000000E+00 -0.00000000000E+00 -0.13260369381E+03  0.13260369381E+03  0.00000000000E+00 0. -1.
         21    1    1    2  503  502 -0.21808670052E+02 -0.11023863977E+02  0.82440224301E+02  0.85985663045E+02  0.00000000000E+00 0.  1.
          2    1    1    2  501    0  0.21808670052E+02  0.11023863977E+02 -0.12968991501E+03  0.13197203386E+03  0.00000000000E+00 0. -1.
<mgrwt>
<rscale>  2 0.24436523E+02</rscale>
<asrwt>0</asrwt>
<pdfrwt beam="1">  1       21 0.13131385E-01 0.24436523E+02</pdfrwt>
<pdfrwt beam="2">  1        2 0.20400568E-01 0.24436523E+02</pdfrwt>
<totfact> 0.14298490E+05</totfact>
</mgrwt>
</event>
<event>
 4    1  0.2245608E+006  0.2218565E+02  0.7546771E-02  0.1705061E+00
          2   -1    0    0  503    0 -0.00000000000E+00  0.00000000000E+00  0.24074140852E+03  0.24074140852E+03  0.00000000000E+00 0. -1.
         21   -1    0    0  501  502  0.00000000000E+00 -0.00000000000E+00 -0.20630891493E+01  0.20630891493E+01  0.00000000000E+00 0.  1.
         21    1    1    2  503  502  0.19628219912E+02 -0.10340981977E+02  0.10782447743E+03  0.11008324513E+03  0.00000000000E+00 0.  1.
          2    1    1    2  501    0 -0.19628219912E+02  0.10340981977E+02  0.13085384193E+03  0.13272125253E+03  0.00000000000E+00 0. -1.
<mgrwt>
<rscale>  2 0.22185647E+02</rscale>
<asrwt>0</asrwt>
<pdfrwt beam="2">  1       21 0.31739852E-03 0.22185647E+02</pdfrwt>
<pdfrwt beam="1">  1        2 0.37037118E-01 0.22185647E+02</pdfrwt>
<totfact> 0.24169972E+07</totfact>
</mgrwt>
</event>
<event>
 4    1  0.2245608E+006  0.4120946E+02  0.7546771E-02  0.1499495E+00
         21   -1    0    0  501  502  0.00000000000E+00  0.00000000000E+00  0.29296858988E+02  0.29296858988E+02  0.00000000000E+00 0. -1.
          1   -1    0    0  503    0 -0.00000000000E+00 -0.00000000000E+00 -0.11866824944E+04  0.11866824944E+04  0.00000000000E+00 0. -1.
         21    1    1    2  503  502 -0.40538204269E+02 -0.74076560202E+01  0.14261708658E+02  0.43607518926E+02  0.00000000000E+00 0. -1.
          1    1    1    2  501    0  0.40538204269E+02  0.74076560202E+01 -0.11716473441E+04  0.11723718345E+04  0.00000000000E+00 0. -1.
<mgrwt>
<rscale>  2 0.41209457E+02</rscale>
<asrwt>0</asrwt>
<pdfrwt beam="1">  1       21 0.45072103E-02 0.41209457E+02</pdfrwt>
<pdfrwt beam="2">  1        1 0.18256649E+00 0.41209457E+02</pdfrwt>
<totfact> 0.42587077E+04</totfact>
</mgrwt>
</event>
<event>
 4    1  0.2245608E+006  0.2152250E+02  0.7546771E-02  0.1716643E+00
          2   -1    0    0  502    0 -0.00000000000E+00  0.00000000000E+00  0.62327549698E+02  0.62327549698E+02  0.00000000000E+00 0. -1.
         21   -1    0    0  503  502  0.00000000000E+00 -0.00000000000E+00 -0.19415924587E+02  0.19415924587E+02  0.00000000000E+00 0. -1.
         21    1    1    2  503  501 -0.12923182383E+02 -0.17210731732E+02 -0.10654439458E+02  0.24015307823E+02  0.00000000000E+00 0. -1.
          2    1    1    2  501    0  0.12923182383E+02  0.17210731732E+02  0.53566064569E+02  0.57728166462E+02  0.00000000000E+00 0. -1.
<mgrwt>
<rscale>  2 0.21522498E+02</rscale>
<asrwt>0</asrwt>
<pdfrwt beam="2">  1       21 0.29870653E-02 0.21522498E+02</pdfrwt>
<pdfrwt beam="1">  1        2 0.95888537E-02 0.21522498E+02</pdfrwt>
<totfact> 0.35056067E+06</totfact>
</mgrwt>
</event>
<event>
 4    1  0.2245608E+006  0.2149385E+02  0.7546771E-02  0.1717156E+00
         21   -1    0    0  503  502  0.00000000000E+00  0.00000000000E+00  0.14965582051E+03  0.14965582051E+03  0.00000000000E+00 0. -1.
          2   -1    0    0  502    0 -0.00000000000E+00 -0.00000000000E+00 -0.62271340985E+02  0.62271340985E+02  0.00000000000E+00 0. -1.
         21    1    1    2  503  501  0.21168172485E+02  0.37274518845E+01  0.14699596335E+03  0.14855907467E+03  0.00000000000E+00 0. -1.
          2    1    1    2  501    0 -0.21168172485E+02 -0.37274518845E+01 -0.59611483829E+02  0.63368086827E+02  0.00000000000E+00 0. -1.
<mgrwt>
<rscale>  2 0.21493846E+02</rscale>
<asrwt>0</asrwt>
<pdfrwt beam="1">  1       21 0.23023972E-01 0.21493846E+02</pdfrwt>
<pdfrwt beam="2">  1        2 0.95802063E-02 0.21493846E+02</pdfrwt>
<totfact> 0.12330178E+05</totfact>
</mgrwt>
</event>
<event>
 4    1  0.2245608E+006  0.2701400E+02  0.7546771E-02  0.1633653E+00
          2   -1    0    0  503    0 -0.00000000000E+00  0.00000000000E+00  0.10709715553E+04  0.10709715553E+04  0.00000000000E+00 0.  1.
         21   -1    0    0  501  502  0.00000000000E+00 -0.00000000000E+00 -0.35887819616E+01  0.35887819616E+01  0.00000000000E+00 0. -1.
         21    1    1    2  503  502 -0.10179362188E+02 -0.25022724202E+02  0.50099962929E+02  0.56918910975E+02  0.00000000000E+00 0. -1.
          2    1    1    2  501    0  0.10179362188E+02  0.25022724202E+02  0.10172828104E+04  0.10176414263E+04  0.00000000000E+00 0.  1.
<mgrwt>
<rscale>  2 0.27013999E+02</rscale>
<asrwt>0</asrwt>
<pdfrwt beam="2">  1       21 0.55212116E-03 0.27013999E+02</pdfrwt>
<pdfrwt beam="1">  1        2 0.16476460E+00 0.27013999E+02</pdfrwt>
<totfact> 0.23138881E+06</totfact>
</mgrwt>
</event>
<event>
 4    1  0.2245608E+006  0.2935499E+02  0.7546771E-02  0.1605330E+00
         21   -1    0    0  503  502  0.00000000000E+00  0.00000000000E+00  0.12939773218E+02  0.12939773218E+02  0.00000000000E+00 0.  1.
         -4   -1    0    0    0  501 -0.00000000000E+00 -0.00000000000E+00 -0.33611341471E+03  0.33611341471E+03  0.00000000000E+00 0.  1.
         21    1    1    2  503  501  0.16426106901E+02 -0.24328960686E+02 -0.53031998036E+01  0.29830173384E+02  0.00000000000E+00 0.  1.
         -4    1    1    2    0  502 -0.16426106901E+02  0.24328960686E+02 -0.31787044169E+03  0.31922301454E+03  0.00000000000E+00 0.  1.
<mgrwt>
<rscale>  2 0.29354988E+02</rscale>
<asrwt>0</asrwt>
<pdfrwt beam="1">  1       21 0.19907338E-02 0.29354988E+02</pdfrwt>
<pdfrwt beam="2">  1       -4 0.51709769E-01 0.29354988E+02</pdfrwt>
<totfact> 0.12763832E+05</totfact>
</mgrwt>
</event>
<event>
 4    1  0.2245608E+006  0.2234760E+02  0.7546771E-02  0.1702309E+00
          2   -1    0    0  503    0 -0.00000000000E+00  0.00000000000E+00  0.99612619604E+03  0.99612619604E+03  0.00000000000E+00 0. -1.
         21   -1    0    0  501  502  0.00000000000E+00 -0.00000000000E+00 -0.54519137491E+00  0.54519137491E+00  0.00000000000E+00 0. -1.
         21    1    1    2  503  502  0.15957619998E+02 -0.15645110394E+02  0.35648679608E+03  0.35718657715E+03  0.00000000000E+00 0. -1.
          2    1    1    2  501    0 -0.15957619998E+02  0.15645110394E+02  0.63909420858E+03  0.63948481026E+03  0.00000000000E+00 0. -1.
<mgrwt>
<rscale>  2 0.22347598E+02</rscale>
<asrwt>0</asrwt>
<pdfrwt beam="2">  1       21 0.83876393E-04 0.22347598E+02</pdfrwt>
<pdfrwt beam="1">  1        2 0.15324873E+00 0.22347598E+02</pdfrwt>
<totfact> 0.37327786E+07</totfact>
</mgrwt>
</event>
<event>
 4    1  0.2245608E+006  0.2299088E+02  0.7546771E-02  0.1691658E+00
          2   -1    0    0  502    0 -0.00000000000E+00  0.00000000000E+00  0.11895099705E+02  0.11895099705E+02  0.00000000000E+00 0.  1.
         21   -1    0    0  503  502  0.00000000000E+00 -0.00000000000E+00 -0.96301733250E+02  0.96301733250E+02  0.00000000000E+00 0.  1.
         21    1    1    2  503  501 -0.19644400178E+02  0.11944784806E+02 -0.81904582322E+02  0.85070211871E+02  0.00000000000E+00 0.  1.
          2    1    1    2  501    0  0.19644400178E+02 -0.11944784806E+02 -0.25020512228E+01  0.23126621083E+02  0.00000000000E+00 0.  1.
<mgrwt>
<rscale>  2 0.22990875E+02</rscale>
<asrwt>0</asrwt>
<pdfrwt beam="2">  1       21 0.14815651E-01 0.22990875E+02</pdfrwt>
<pdfrwt beam="1">  1        2 0.18300154E-02 0.22990875E+02</pdfrwt>
<totfact> 0.20509047E+06</totfact>
</mgrwt>
</event>
<event>
 4    1  0.2245608E+006  0.2183070E+02  0.7546771E-02  0.1711197E+00
         -2   -1    0    0    0  501 -0.00000000000E+00  0.00000000000E+00  0.27685136593E+03  0.27685136593E+03  0.00000000000E+00 0.  1.
         21   -1    0    0  503  502  0.00000000000E+00 -0.00000000000E+00 -0.14166420777E+02  0.14166420777E+02  0.00000000000E+00 0. -1.
         21    1    1    2  503  501 -0.82582066032E+01  0.20208445523E+02 -0.50394541801E+01  0.22404806297E+02  0.00000000000E+00 0. -1.
         -2    1    1    2    0  502  0.82582066032E+01 -0.20208445523E+02  0.26772439933E+03  0.26861298041E+03  0.00000000000E+00 0.  1.
<mgrwt>
<rscale>  2 0.21830695E+02</rscale>
<asrwt>0</asrwt>
<pdfrwt beam="2">  1       21 0.21794496E-02 0.21830695E+02</pdfrwt>
<pdfrwt beam="1">  1       -2 0.42592514E-01 0.21830695E+02</pdfrwt>
<totfact> 0.34077748E+05</totfact>
</mgrwt>
</event>
<event>
 4    1  0.2245608E+006  0.2052301E+02  0.7546771E-02  0.1735123E+00
          2   -1    0    0  502    0 -0.00000000000E+00  0.00000000000E+00  0.25343121059E+03  0.25343121059E+03  0.00000000000E+00 0. -1.
         21   -1    0    0  503  502  0.00000000000E+00 -0.00000000000E+00 -0.12993431471E+03  0.12993431471E+03  0.00000000000E+00 0. -1.
         21    1    1    2  503  501  0.19688872413E+02  0.57915667092E+01 -0.12870448020E+03  0.13033049207E+03  0.00000000000E+00 0. -1.
          2    1    1    2  501    0 -0.19688872413E+02 -0.57915667092E+01  0.25220137608E+03  0.25303503322E+03  0.00000000000E+00 0. -1.
<mgrwt>
<rscale>  2 0.20523010E+02</rscale>
<asrwt>0</asrwt>
<pdfrwt beam="2">  1       21 0.19989895E-01 0.20523010E+02</pdfrwt>
<pdfrwt beam="1">  1        2 0.38989417E-01 0.20523010E+02</pdfrwt>
<totfact> 0.35394155E+04</totfact>
</mgrwt>
</event>
<event>
 4    1  0.2245608E+006  0.2134111E+02  0.7546771E-02  0.1719903E+00
         -4   -1    0    0    0  501 -0.00000000000E+00  0.00000000000E+00  0.38580215999E+02  0.38580215999E+02  0.00000000000E+00 0. -1.
         21   -1    0    0  503  502  0.00000000000E+00 -0.00000000000E+00 -0.38776686645E+02  0.38776686645E+02  0.00000000000E+00 0.  1.
         21    1    1    2  503  501  0.18881673579E+02 -0.99461303443E+01 -0.32356204150E+02  0.38760379938E+02  0.00000000000E+00 0.  1.
         -4    1    1    2    0  502 -0.18881673579E+02  0.99461303443E+01  0.32159733503E+02  0.38596522706E+02  0.00000000000E+00 0. -1.
<mgrwt>
<rscale>  2 0.21341113E+02</rscale>
<asrwt>0</asrwt>
<pdfrwt beam="2">  1       21 0.59656441E-02 0.21341113E+02</pdfrwt>
<pdfrwt beam="1">  1       -4 0.59354178E-02 0.21341113E+02</pdfrwt>
<totfact> 0.83143995E+05</totfact>
</mgrwt>
</event>
<event>
 4    1  0.2245608E+006  0.2386823E+02  0.7546771E-02  0.1677811E+00
          2   -1    0    0  503    0 -0.00000000000E+00  0.00000000000E+00  0.30647029575E+03  0.30647029575E+03  0.00000000000E+00 0.  1.
         21   -1    0    0  501  502  0.00000000000E+00 -0.00000000000E+00 -0.25223975375E+01  0.25223975375E+01  0.00000000000E+00 0.  1.
         21    1    1    2  503  502  0.20972918231E+02 -0.11394267733E+02  0.72735413542E+02  0.76551505664E+02  0.00000000000E+00 0.  1.
          2    1    1    2  501    0 -0.20972918231E+02  0.11394267733E+02  0.23121248467E+03  0.23244118762E+03  0.00000000000E+00 0.  1.
<mgrwt>
<rscale>  2 0.23868235E+02</rscale>
<asrwt>0</asrwt>
<pdfrwt beam="2">  1       21 0.38806140E-03 0.23868235E+02</pdfrwt>
<pdfrwt beam="1">  1        2 0.47149247E-01 0.23868235E+02</pdfrwt>
<totfact> 0.14507911E+07</totfact>
</mgrwt>
</event>
<event>
 4    1  0.2245608E+006  0.2854544E+02  0.7546771E-02  0.1614747E+00
         21   -1    0    0  503  502  0.00000000000E+00  0.00000000000E+00  0.32600945947E+02  0.32600945947E+02  0.00000000000E+00 0.  1.
          1   -1    0    0  502    0 -0.00000000000E+00 -0.00000000000E+00 -0.15916967917E+04  0.15916967917E+04  0.00000000000E+00 0.  1.
         21    1    1    2  503  501 -0.23192411293E+02  0.16641939083E+02  0.26199123661E+02  0.38745788915E+02  0.00000000000E+00 0.  1.
          1    1    1    2  501    0  0.23192411293E+02 -0.16641939083E+02 -0.15852949694E+04  0.15855519487E+04  0.00000000000E+00 0.  1.
<mgrwt>
<rscale>  2 0.28545439E+02</rscale>
<asrwt>0</asrwt>
<pdfrwt beam="1">  1       21 0.50155303E-02 0.28545439E+02</pdfrwt>
<pdfrwt beam="2">  1        1 0.24487642E+00 0.28545439E+02</pdfrwt>
<totfact> 0.20023570E+04</totfact>
</mgrwt>
</event>
<event>
 4    1  0.2245608E+006  0.6171576E+02  0.7546771E-02  0.1390769E+00
         -3   -1    0    0    0  501 -0.00000000000E+00  0.00000000000E+00  0.13595446590E+02  0.13595446590E+02  0.00000000000E+00 0.  1.
         21   -1    0    0  503  502  0.00000000000E+00 -0.00000000000E+00 -0.37922307307E+03  0.37922307307E+03  0.00000000000E+00 0. -1.
         21    1    1    2  503  501  0.39722683971E+02 -0.47232859499E+02 -0.28320164395E+03  0.28984824612E+03  0.00000000000E+00 0. -1.
         -3    1    1    2    0  502 -0.39722683971E+02  0.47232859499E+02 -0.82425982527E+02  0.10297027354E+03  0.00000000000E+00 0.  1.
<mgrwt>
<rscale>  2 0.61715757E+02</rscale>
<asrwt>0</asrwt>
<pdfrwt beam="2">  1       21 0.58342006E-01 0.61715757E+02</pdfrwt>
<pdfrwt beam="1">  1       -3 0.20916074E-02 0.61715757E+02</pdfrwt>
<totfact> 0.10618087E+05</totfact>
</mgrwt>
</event>
<event>
 4    1  0.2245608E+006  0.2134657E+02  0.7546771E-02  0.1719804E+00
         21   -1    0    0  501  502  0.00000000000E+00  0.00000000000E+00  0.28363710861E+02  0.28363710861E+02  0.00000000000E+00 0.  1.
         -1   -1    0    0    0  501 -0.00000000000E+00 -0.00000000000E+00 -0.22554252170E+03  0.22554252170E+03  0.00000000000E+00 0.  1.
         21    1    1    2  503  502 -0.21346385388E+02 -0.89131062831E-01  0.23758738369E+02  0.31939845998E+02  0.00000000000E+00 0.  1.
         -1    1    1    2    0  503  0.21346385388E+02  0.89131062831E-01 -0.22093754921E+03  0.22196638657E+03  0.00000000000E+00 0.  1.
<mgrwt>
<rscale>  2 0.21346571E+02</rscale>
<asrwt>0</asrwt>
<pdfrwt beam="1">  1       21 0.43636479E-02 0.21346571E+02</pdfrwt>
<pdfrwt beam="2">  1       -1 0.34698849E-01 0.21346571E+02</pdfrwt>
<totfact> 0.19523680E+05</totfact>
</mgrwt>
</event>
<event>
 4    1  0.2245608E+006  0.2031001E+02  0.7546771E-02  0.1739232E+00
         -1   -1    0    0    0  501 -0.00000000000E+00  0.00000000000E+00  0.45618121892E+03  0.45618121892E+03  0.00000000000E+00 0. -1.
         21   -1    0    0  503  502  0.00000000000E+00 -0.00000000000E+00 -0.43901374429E+02  0.43901374429E+02  0.00000000000E+00 0.  1.
         21    1    1    2  503  501  0.20308527893E+02  0.24555882237E+00 -0.41312920885E+02  0.46035356372E+02  0.00000000000E+00 0.  1.
         -1    1    1    2    0  502 -0.20308527893E+02 -0.24555882237E+00  0.45359276537E+03  0.45404723697E+03  0.00000000000E+00 0. -1.
<mgrwt>
<rscale>  2 0.20310012E+02</rscale>
<asrwt>0</asrwt>
<pdfrwt beam="2">  1       21 0.67540579E-02 0.20310012E+02</pdfrwt>
<pdfrwt beam="1">  1       -1 0.70181723E-01 0.20310012E+02</pdfrwt>
<totfact> 0.28687288E+04</totfact>
</mgrwt>
</event>
<event>
 4    1  0.2245608E+006  0.2427143E+02  0.7546771E-02  0.1671693E+00
          4   -1    0    0  503    0 -0.00000000000E+00  0.00000000000E+00  0.78001450200E+03  0.78001450200E+03  0.00000000000E+00 0.  1.
         21   -1    0    0  501  502  0.00000000000E+00 -0.00000000000E+00 -0.39929946293E+01  0.39929946293E+01  0.00000000000E+00 0.  1.
         21    1    1    2  503  502  0.93743400966E+01 -0.22388031567E+02  0.35020695079E+02  0.42609286471E+02  0.00000000000E+00 0.  1.
          4    1    1    2  501    0 -0.93743400966E+01  0.22388031567E+02  0.74100081229E+03  0.74139821016E+03  0.00000000000E+00 0.  1.
<mgrwt>
<rscale>  2 0.24271428E+02</rscale>
<asrwt>0</asrwt>
<pdfrwt beam="2">  1       21 0.61430749E-03 0.24271428E+02</pdfrwt>
<pdfrwt beam="1">  1        4 0.12000211E+00 0.24271428E+02</pdfrwt>
<totfact> 0.11996091E+05</totfact>
</mgrwt>
</event>
<event>
 4    1  0.2245608E+006  0.2153138E+02  0.7546771E-02  0.1716485E+00
          3   -1    0    0  503    0 -0.00000000000E+00  0.00000000000E+00  0.38527143348E+03  0.38527143348E+03  0.00000000000E+00 0. -1.
         21   -1    0    0  501  502  0.00000000000E+00 -0.00000000000E+00 -0.15609661570E+03  0.15609661570E+03  0.00000000000E+00 0.  1.
         21    1    1    2  503  502 -0.18884253622E+02 -0.10343377158E+02 -0.15505128041E+03  0.15653913262E+03  0.00000000000E+00 0.  1.
          3    1    1    2  501    0  0.18884253622E+02  0.10343377158E+02  0.38422609819E+03  0.38482891656E+03  0.00000000000E+00 0. -1.
<mgrwt>
<rscale>  2 0.21531384E+02</rscale>
<asrwt>0</asrwt>
<pdfrwt beam="2">  1       21 0.24014864E-01 0.21531384E+02</pdfrwt>
<pdfrwt beam="1">  1        3 0.59272528E-01 0.21531384E+02</pdfrwt>
<totfact> 0.20163555E+03</totfact>
</mgrwt>
</event>
<event>
 4    1  0.2245608E+006  0.4595064E+02  0.7546771E-02  0.1468493E+00
         21   -1    0    0  501  502  0.00000000000E+00  0.00000000000E+00  0.38753716897E+01  0.38753716897E+01  0.00000000000E+00 0. -1.
          2   -1    0    0  503    0 -0.00000000000E+00 -0.00000000000E+00 -0.20126289066E+04  0.20126289066E+04  0.00000000000E+00 0.  1.
         21    1    1    2  503  502 -0.29738844737E+02 -0.35029455042E+02 -0.14334545922E+03  0.15053033676E+03  0.00000000000E+00 0. -1.
          2    1    1    2  501    0  0.29738844737E+02  0.35029455042E+02 -0.18654080757E+04  0.18659739416E+04  0.00000000000E+00 0.  1.
<mgrwt>
<rscale>  2 0.45950643E+02</rscale>
<asrwt>0</asrwt>
<pdfrwt beam="1">  1       21 0.59621060E-03 0.45950643E+02</pdfrwt>
<pdfrwt beam="2">  1        2 0.30963544E+00 0.45950643E+02</pdfrwt>
<totfact> 0.75848999E+05</totfact>
</mgrwt>
</event>
<event>
 4    1  0.2245608E+006  0.4257803E+02  0.7546771E-02  0.1490054E+00
         21   -1    0    0  501  502  0.00000000000E+00  0.00000000000E+00  0.85194672161E+03  0.85194672161E+03  0.00000000000E+00 0. -1.
         -2   -1    0    0    0  501 -0.00000000000E+00 -0.00000000000E+00 -0.29969971381E+01  0.29969971381E+01  0.00000000000E+00 0.  1.
         21    1    1    2  503  502 -0.29745316398E+02 -0.30464817425E+02  0.65466636175E+03  0.65604949063E+03  0.00000000000E+00 0. -1.
         -2    1    1    2    0  503  0.29745316398E+02  0.30464817425E+02  0.19428336273E+03  0.19889422812E+03  0.00000000000E+00 0.  1.
<mgrwt>
<rscale>  2 0.42578034E+02</rscale>
<asrwt>0</asrwt>
<pdfrwt beam="1">  1       21 0.13106853E+00 0.42578034E+02</pdfrwt>
<pdfrwt beam="2">  1       -2 0.46107716E-03 0.42578034E+02</pdfrwt>
<totfact> 0.18809412E+05</totfact>
</mgrwt>
</event>
<event>
 4    1  0.2245608E+006  0.4460074E+02  0.7546771E-02  0.1476850E+00
         21   -1    0    0  501  502  0.00000000000E+00  0.00000000000E+00  0.21597057674E+02  0.21597057674E+02  0.00000000000E+00 0. -1.
          2   -1    0    0  503    0 -0.00000000000E+00 -0.00000000000E+00 -0.10050666366E+03  0.10050666366E+03  0.00000000000E+00 0.  1.
         21    1    1    2  503  502  0.40261863538E+02  0.19188749404E+02 -0.21804600234E+02  0.49645406138E+02  0.00000000000E+00 0. -1.
          2    1    1    2  501    0 -0.40261863538E+02 -0.19188749404E+02 -0.57105005757E+02  0.72458315201E+02  0.00000000000E+00 0.  1.
<mgrwt>
<rscale>  2 0.44600737E+02</rscale>
<asrwt>0</asrwt>
<pdfrwt beam="1">  1       21 0.33226243E-02 0.44600737E+02</pdfrwt>
<pdfrwt beam="2">  1        2 0.15462564E-01 0.44600737E+02</pdfrwt>
<totfact> 0.20142390E+06</totfact>
</mgrwt>
</event>
<event>
 4    1  0.2245608E+006  0.2889656E+02  0.7546771E-02  0.1610616E+00
          2   -1    0    0  503    0 -0.00000000000E+00  0.00000000000E+00  0.61959177679E+03  0.61959177679E+03  0.00000000000E+00 0. -1.
         21   -1    0    0  501  502  0.00000000000E+00 -0.00000000000E+00 -0.13526332706E+01  0.13526332706E+01  0.00000000000E+00 0. -1.
         21    1    1    2  503  502  0.20667705981E+02 -0.20195469108E+02  0.32790872511E+03  0.32917949974E+03  0.00000000000E+00 0. -1.
          2    1    1    2  501    0 -0.20667705981E+02  0.20195469108E+02  0.29033041840E+03  0.29176491032E+03  0.00000000000E+00 0. -1.
<mgrwt>
<rscale>  2 0.28896558E+02</rscale>
<asrwt>0</asrwt>
<pdfrwt beam="2">  1       21 0.20809792E-03 0.28896558E+02</pdfrwt>
<pdfrwt beam="1">  1        2 0.95321585E-01 0.28896558E+02</pdfrwt>
<totfact> 0.18658669E+07</totfact>
</mgrwt>
</event>
<event>
 4    1  0.2245608E+006  0.2313969E+02  0.7546771E-02  0.1689256E+00
         -1   -1    0    0    0  501 -0.00000000000E+00  0.00000000000E+00  0.12278824158E+03  0.12278824158E+03  0.00000000000E+00 0.  1.
         21   -1    0    0  501  502  0.00000000000E+00 -0.00000000000E+00 -0.64294087141E+02  0.64294087141E+02  0.00000000000E+00 0.  1.
         21    1    1    2  503  502 -0.82686648426E+01 -0.21611902319E+02 -0.61066198170E+02  0.65303336049E+02  0.00000000000E+00 0.  1.
         -1    1    1    2    0  503  0.82686648426E+01  0.21611902319E+02  0.11956035261E+03  0.12177899267E+03  0.00000000000E+00 0.  1.
<mgrwt>
<rscale>  2 0.23139688E+02</rscale>
<asrwt>0</asrwt>
<pdfrwt beam="2">  1       21 0.98913980E-02 0.23139688E+02</pdfrwt>
<pdfrwt beam="1">  1       -1 0.18890499E-01 0.23139688E+02</pdfrwt>
<totfact> 0.13637180E+05</totfact>
</mgrwt>
</event>
<event>
 4    1  0.2245608E+006  0.3293954E+02  0.7546771E-02  0.1567698E+00
         21   -1    0    0  503  502  0.00000000000E+00  0.00000000000E+00  0.62186524215E+02  0.62186524215E+02  0.00000000000E+00 0. -1.
         -3   -1    0    0    0  501 -0.00000000000E+00 -0.00000000000E+00 -0.31895819926E+03  0.31895819926E+03  0.00000000000E+00 0.  1.
         21    1    1    2  503  501  0.20713377323E+02 -0.25611903342E+02  0.56900855500E+02  0.65747402606E+02  0.00000000000E+00 0. -1.
         -3    1    1    2    0  502 -0.20713377323E+02  0.25611903342E+02 -0.31367253054E+03  0.31539732087E+03  0.00000000000E+00 0.  1.
<mgrwt>
<rscale>  2 0.32939545E+02</rscale>
<asrwt>0</asrwt>
<pdfrwt beam="1">  1       21 0.95671577E-02 0.32939545E+02</pdfrwt>
<pdfrwt beam="2">  1       -3 0.49070492E-01 0.32939545E+02</pdfrwt>
<totfact> 0.15010143E+04</totfact>
</mgrwt>
</event>
<event>
 4    1  0.2245608E+006  0.2332275E+02  0.7546771E-02  0.1686331E+00
         21   -1    0    0  501  502  0.00000000000E+00  0.00000000000E+00  0.10402261287E+01  0.10402261287E+01  0.00000000000E+00 0.  1.
          1   -1    0    0  503    0 -0.00000000000E+00 -0.00000000000E+00 -0.84476879021E+03  0.84476879021E+03  0.00000000000E+00 0.  1.
         21    1    1    2  503  502 -0.87232856638E+01  0.21629957777E+02 -0.16082727062E+03  0.16250957437E+03  0.00000000000E+00 0.  1.
          1    1    1    2  501    0  0.87232856638E+01 -0.21629957777E+02 -0.68290129345E+03  0.68329944196E+03  0.00000000000E+00 0.  1.
<mgrwt>
<rscale>  2 0.23322753E+02</rscale>
<asrwt>0</asrwt>
<pdfrwt beam="1">  1       21 0.16003509E-03 0.23322753E+02</pdfrwt>
<pdfrwt beam="2">  1        1 0.12996418E+00 0.23322753E+02</pdfrwt>
<totfact> 0.10643792E+07</totfact>
</mgrwt>
</event>
<event>
 4    1  0.2245608E+006  0.2517993E+02  0.7546771E-02  0.1658431E+00
         21   -1    0    0  503  502  0.00000000000E+00  0.00000000000E+00  0.13323522897E+03  0.13323522897E+03  0.00000000000E+00 0. -1.
          2   -1    0    0  502    0 -0.00000000000E+00 -0.00000000000E+00 -0.23751036880E+02  0.23751036880E+02  0.00000000000E+00 0. -1.
         21    1    1    2  503  501 -0.19145187123E+01 -0.25107042272E+02  0.12493276269E+03  0.12744498478E+03  0.00000000000E+00 0. -1.
          2    1    1    2  501    0  0.19145187123E+01  0.25107042272E+02 -0.15448570598E+02  0.29541281066E+02  0.00000000000E+00 0. -1.
<mgrwt>
<rscale>  2 0.25179932E+02</rscale>
<asrwt>0</asrwt>
<pdfrwt beam="1">  1       21 0.20497727E-01 0.25179932E+02</pdfrwt>
<pdfrwt beam="2">  1        2 0.36540057E-02 0.25179932E+02</pdfrwt>
<totfact> 0.49578538E+05</totfact>
</mgrwt>
</event>
<event>
 4    1  0.2245608E+006  0.2428430E+02  0.7546771E-02  0.1671500E+00
         -1   -1    0    0    0  501 -0.00000000000E+00  0.00000000000E+00  0.12358160264E+02  0.12358160264E+02  0.00000000000E+00 0.  1.
         21   -1    0    0  501  502  0.00000000000E+00 -0.00000000000E+00 -0.64433875915E+02  0.64433875915E+02  0.00000000000E+00 0.  1.
         21    1    1    2  503  502 -0.10843641243E+01 -0.24260079793E+02 -0.45593493905E+02  0.51657468033E+02  0.00000000000E+00 0.  1.
         -1    1    1    2    0  503  0.10843641243E+01  0.24260079793E+02 -0.64822217460E+01  0.25134568146E+02  0.00000000000E+00 0.  1.
<mgrwt>
<rscale>  2 0.24284302E+02</rscale>
<asrwt>0</asrwt>
<pdfrwt beam="2">  1       21 0.99129038E-02 0.24284302E+02</pdfrwt>
<pdfrwt beam="1">  1       -1 0.19012555E-02 0.24284302E+02</pdfrwt>
<totfact> 0.35617020E+06</totfact>
</mgrwt>
</event>
<event>
 4    1  0.2245608E+006  0.2415621E+02  0.7546771E-02  0.1673426E+00
          2   -1    0    0  503    0 -0.00000000000E+00  0.00000000000E+00  0.21723518874E+02  0.21723518874E+02  0.00000000000E+00 0.  1.
         21   -1    0    0  501  502  0.00000000000E+00 -0.00000000000E+00 -0.50446484147E+02  0.50446484147E+02  0.00000000000E+00 0.  1.
         21    1    1    2  503  502 -0.22286202601E+02 -0.93192176369E+01 -0.39034974754E+02  0.45904813449E+02  0.00000000000E+00 0.  1.
          2    1    1    2  501    0  0.22286202601E+02  0.93192176369E+01  0.10312009481E+02  0.26265189572E+02  0.00000000000E+00 0.  1.
<mgrwt>
<rscale>  2 0.24156213E+02</rscale>
<asrwt>0</asrwt>
<pdfrwt beam="2">  1       21 0.77609975E-02 0.24156213E+02</pdfrwt>
<pdfrwt beam="1">  1        2 0.33420798E-02 0.24156213E+02</pdfrwt>
<totfact> 0.28323117E+06</totfact>
</mgrwt>
</event>
<event>
 4    1  0.2245608E+006  0.3802915E+02  0.7546771E-02  0.1523237E+00
         21   -1    0    0  501  502  0.00000000000E+00  0.00000000000E+00  0.38906199804E+03  0.38906199804E+03  0.00000000000E+00 0.  1.
          3   -1    0    0  503    0 -0.00000000000E+00 -0.00000000000E+00 -0.67760314008E+01  0.67760314008E+01  0.00000000000E+00 0. -1.
         21    1    1    2  503  502  0.51617843122E+00  0.38025642285E+02  0.32412060493E+03  0.32634396340E+03  0.00000000000E+00 0.  1.
          3    1    1    2  501    0 -0.51617843122E+00 -0.38025642285E+02  0.58165361713E+02  0.69494066038E+02  0.00000000000E+00 0. -1.
<mgrwt>
<rscale>  2 0.38029146E+02</rscale>
<asrwt>0</asrwt>
<pdfrwt beam="1">  1       21 0.59855675E-01 0.38029146E+02</pdfrwt>
<pdfrwt beam="2">  1        3 0.10424667E-02 0.38029146E+02</pdfrwt>
<totfact> 0.25806488E+05</totfact>
</mgrwt>
</event>
<event>
 4    1  0.2245608E+006  0.2503802E+02  0.7546771E-02  0.1660456E+00
         21   -1    0    0  503  502  0.00000000000E+00  0.00000000000E+00  0.82235804052E+02  0.82235804052E+02  0.00000000000E+00 0. -1.
          2   -1    0    0  502    0 -0.00000000000E+00 -0.00000000000E+00 -0.10973411457E+02  0.10973411457E+02  0.00000000000E+00 0. -1.
         21    1    1    2  503  501 -0.16309989596E+02 -0.18997019277E+02  0.61382080644E+02  0.66292249367E+02  0.00000000000E+00 0. -1.
          2    1    1    2  501    0  0.16309989596E+02  0.18997019277E+02  0.98803119516E+01  0.26916966142E+02  0.00000000000E+00 0. -1.
<mgrwt>
<rscale>  2 0.25038021E+02</rscale>
<asrwt>0</asrwt>
<pdfrwt beam="1">  1       21 0.12651662E-01 0.25038021E+02</pdfrwt>
<pdfrwt beam="2">  1        2 0.16882172E-02 0.25038021E+02</pdfrwt>
<totfact> 0.30376938E+06</totfact>
</mgrwt>
</event>
<event>
 4    1  0.2245608E+006  0.2291710E+02  0.7546771E-02  0.1692857E+00
         -4   -1    0    0    0  501 -0.00000000000E+00  0.00000000000E+00  0.10169549726E+03  0.10169549726E+03  0.00000000000E+00 0.  1.
         21   -1    0    0  503  502  0.00000000000E+00 -0.00000000000E+00 -0.29209396147E+03  0.29209396147E+03  0.00000000000E+00 0. -1.
         21    1    1    2  503  501 -0.18661039368E+02 -0.13302592226E+02 -0.29034559889E+03  0.29124862256E+03  0.00000000000E+00 0. -1.
         -4    1    1    2    0  502  0.18661039368E+02  0.13302592226E+02  0.99947134678E+02  0.10254083616E+03  0.00000000000E+00 0.  1.
<mgrwt>
<rscale>  2 0.22917097E+02</rscale>
<asrwt>0</asrwt>
<pdfrwt beam="2">  1       21 0.44937533E-01 0.22917097E+02</pdfrwt>
<pdfrwt beam="1">  1       -4 0.15645461E-01 0.22917097E+02</pdfrwt>
<totfact> 0.55022720E+03</totfact>
</mgrwt>
</event>
<event>
 4    1  0.2245608E+006  0.3052829E+02  0.7546771E-02  0.1592322E+00
          1   -1    0    0  502    0 -0.00000000000E+00  0.00000000000E+00  0.24939793920E+03  0.24939793920E+03  0.00000000000E+00 0. -1.
         21   -1    0    0  503  502  0.00000000000E+00 -0.00000000000E+00 -0.16080203554E+02  0.16080203554E+02  0.00000000000E+00 0.  1.
         21    1    1    2  503  501  0.24551630080E+02  0.18143696995E+02  0.36183624537E+00  0.30530430814E+02  0.00000000000E+00 0.  1.
          1    1    1    2  501    0 -0.24551630080E+02 -0.18143696995E+02  0.23295589940E+03  0.23494771194E+03  0.00000000000E+00 0. -1.
<mgrwt>
<rscale>  2 0.30528287E+02</rscale>
<asrwt>0</asrwt>
<pdfrwt beam="2">  1       21 0.24738777E-02 0.30528287E+02</pdfrwt>
<pdfrwt beam="1">  1        1 0.38368911E-01 0.30528287E+02</pdfrwt>
<totfact> 0.84615730E+05</totfact>
</mgrwt>
</event>
<event>
 4    1  0.2245608E+006  0.2372449E+02  0.7546771E-02  0.1680029E+00
          2   -1    0    0  503    0 -0.00000000000E+00  0.00000000000E+00  0.65707092848E+02  0.65707092848E+02  0.00000000000E+00 0. -1.
         21   -1    0    0  501  502  0.00000000000E+00 -0.00000000000E+00 -0.87470111635E+01  0.87470111635E+01  0.00000000000E+00 0. -1.
         21    1    1    2  503  502 -0.11118213681E+01  0.23698418983E+02  0.23125726713E+02  0.33130808095E+02  0.00000000000E+00 0. -1.
          2    1    1    2  501    0  0.11118213681E+01 -0.23698418983E+02  0.33834354972E+02  0.41323295917E+02  0.00000000000E+00 0. -1.
<mgrwt>
<rscale>  2 0.23724485E+02</rscale>
<asrwt>0</asrwt>
<pdfrwt beam="2">  1       21 0.13456941E-02 0.23724485E+02</pdfrwt>
<pdfrwt beam="1">  1        2 0.10108783E-01 0.23724485E+02</pdfrwt>
<totfact> 0.11523710E+07</totfact>
</mgrwt>
</event>
<event>
 4    1  0.2245608E+006  0.4741812E+02  0.7546771E-02  0.1459787E+00
         21   -1    0    0  501  502  0.00000000000E+00  0.00000000000E+00  0.39777590478E+01  0.39777590478E+01  0.00000000000E+00 0. -1.
          1   -1    0    0  503    0 -0.00000000000E+00 -0.00000000000E+00 -0.67960491549E+03  0.67960491549E+03  0.00000000000E+00 0. -1.
         21    1    1    2  503  502 -0.10409162432E+02  0.46261515810E+02 -0.19761737708E+03  0.20322673601E+03  0.00000000000E+00 0. -1.
          1    1    1    2  501    0  0.10409162432E+02 -0.46261515810E+02 -0.47800977937E+03  0.48035593853E+03  0.00000000000E+00 0. -1.
<mgrwt>
<rscale>  2 0.47418124E+02</rscale>
<asrwt>0</asrwt>
<pdfrwt beam="1">  1       21 0.61196336E-03 0.47418124E+02</pdfrwt>
<pdfrwt beam="2">  1        1 0.10455453E+00 0.47418124E+02</pdfrwt>
<totfact> 0.22851765E+06</totfact>
</mgrwt>
</event>
<event>
 4    1  0.2245608E+006  0.2043765E+02  0.7546771E-02  0.1736762E+00
         -3   -1    0    0    0  501 -0.00000000000E+00  0.00000000000E+00  0.22687025888E+03  0.22687025888E+03  0.00000000000E+00 0.  1.
         21   -1    0    0  503  502  0.00000000000E+00 -0.00000000000E+00 -0.32408136074E+01  0.32408136074E+01  0.00000000000E+00 0. -1.
         21    1    1    2  503  501  0.18655372693E+02  0.83471212458E+01  0.36201870308E+02  0.41572500252E+02  0.00000000000E+00 0. -1.
         -3    1    1    2    0  502 -0.18655372693E+02 -0.83471212458E+01  0.18742757496E+03  0.18853857223E+03  0.00000000000E+00 0.  1.
<mgrwt>
<rscale>  2 0.20437646E+02</rscale>
<asrwt>0</asrwt>
<pdfrwt beam="2">  1       21 0.49858689E-03 0.20437646E+02</pdfrwt>
<pdfrwt beam="1">  1       -3 0.34903104E-01 0.20437646E+02</pdfrwt>
<totfact> 0.24276669E+06</totfact>
</mgrwt>
</event>
<event>
 4    1  0.2245608E+006  0.2168438E+02  0.7546771E-02  0.1713768E+00
         21   -1    0    0  503  502  0.00000000000E+00  0.00000000000E+00  0.10249389649E+01  0.10249389649E+01  0.00000000000E+00 0.  1.
          2   -1    0    0  502    0 -0.00000000000E+00 -0.00000000000E+00 -0.86718811816E+03  0.86718811816E+03  0.00000000000E+00 0.  1.
         21    1    1    2  503  501 -0.45760997449E+00  0.21679546306E+02 -0.13516705070E+03  0.13689537512E+03  0.00000000000E+00 0.  1.
          2    1    1    2  501    0  0.45760997449E+00 -0.21679546306E+02 -0.73099612849E+03  0.73131768200E+03  0.00000000000E+00 0.  1.
<mgrwt>
<rscale>  2 0.21684375E+02</rscale>
<asrwt>0</asrwt>
<pdfrwt beam="1">  1       21 0.15768255E-03 0.21684375E+02</pdfrwt>
<pdfrwt beam="2">  1        2 0.13341387E+00 0.21684375E+02</pdfrwt>
<totfact> 0.17776517E+07</totfact>
</mgrwt>
</event>
<event>
 4    1  0.2245608E+006  0.5639796E+02  0.7546771E-02  0.1413601E+00
          2   -1    0    0  503    0 -0.00000000000E+00  0.00000000000E+00  0.27313358914E+03  0.27313358914E+03  0.00000000000E+00 0. -1.
         21   -1    0    0  501  502  0.00000000000E+00 -0.00000000000E+00 -0.17611185151E+02  0.17611185151E+02  0.00000000000E+00 0. -1.
         21    1    1    2  503  502  0.81193311633E+01 -0.55810454719E+02  0.43150746285E+02  0.71012092628E+02  0.00000000000E+00 0. -1.
          2    1    1    2  501    0 -0.81193311633E+01  0.55810454719E+02  0.21237165770E+03  0.21973268166E+03  0.00000000000E+00 0. -1.
<mgrwt>
<rscale>  2 0.56397964E+02</rscale>
<asrwt>0</asrwt>
<pdfrwt beam="2">  1       21 0.27094133E-02 0.56397964E+02</pdfrwt>
<pdfrwt beam="1">  1        2 0.42020549E-01 0.56397964E+02</pdfrwt>
<totfact> 0.99382979E+05</totfact>
</mgrwt>
</event>
<event>
 4    1  0.2245608E+006  0.2856580E+02  0.7546771E-02  0.1614505E+00
         21   -1    0    0  501  502  0.00000000000E+00  0.00000000000E+00  0.31827743978E+01  0.31827743978E+01  0.00000000000E+00 0. -1.
         -1   -1    0    0    0  501 -0.00000000000E+00 -0.00000000000E+00 -0.93415695958E+03  0.93415695958E+03  0.00000000000E+00 0.  1.
         21    1    1    2  503  502 -0.82867562806E+00  0.28553774619E+02 -0.66278392715E+02  0.72172225192E+02  0.00000000000E+00 0. -1.
         -1    1    1    2    0  503  0.82867562806E+00 -0.28553774619E+02 -0.86469579247E+03  0.86516750879E+03  0.00000000000E+00 0.  1.
<mgrwt>
<rscale>  2 0.28565797E+02</rscale>
<asrwt>0</asrwt>
<pdfrwt beam="1">  1       21 0.48965735E-03 0.28565797E+02</pdfrwt>
<pdfrwt beam="2">  1       -1 0.14371653E+00 0.28565797E+02</pdfrwt>
<totfact> 0.37384778E+05</totfact>
</mgrwt>
</event>
<event>
 4    1  0.2245608E+006  0.2835715E+02  0.7546771E-02  0.1616992E+00
          1   -1    0    0  503    0 -0.00000000000E+00  0.00000000000E+00  0.35543782355E+02  0.35543782355E+02  0.00000000000E+00 0.  1.
         21   -1    0    0  501  502  0.00000000000E+00 -0.00000000000E+00 -0.81517230071E+02  0.81517230071E+02  0.00000000000E+00 0. -1.
         21    1    1    2  503  502 -0.25961950416E+02 -0.11406350351E+02 -0.72736576556E+02  0.78068798293E+02  0.00000000000E+00 0. -1.
          1    1    1    2  501    0  0.25961950416E+02  0.11406350351E+02  0.26763128840E+02  0.38992214134E+02  0.00000000000E+00 0.  1.
<mgrwt>
<rscale>  2 0.28357145E+02</rscale>
<asrwt>0</asrwt>
<pdfrwt beam="2">  1       21 0.12541112E-01 0.28357145E+02</pdfrwt>
<pdfrwt beam="1">  1        1 0.54682743E-02 0.28357145E+02</pdfrwt>
<totfact> 0.66010236E+05</totfact>
</mgrwt>
</event>
<event>
 4    1  0.2245608E+006  0.2726970E+02  0.7546771E-02  0.1630390E+00
          3   -1    0    0  503    0 -0.00000000000E+00  0.00000000000E+00  0.71685628189E+02  0.71685628189E+02  0.00000000000E+00 0. -1.
         21   -1    0    0  501  502  0.00000000000E+00 -0.00000000000E+00 -0.82034290718E+02  0.82034290718E+02  0.00000000000E+00 0.  1.
         21    1    1    2  503  502  0.26919309631E+02  0.43574601409E+01 -0.77010471401E+02  0.81696079437E+02  0.00000000000E+00 0.  1.
          3    1    1    2  501    0 -0.26919309631E+02 -0.43574601409E+01  0.66661808872E+02  0.72023839470E+02  0.00000000000E+00 0. -1.
<mgrwt>
<rscale>  2 0.27269703E+02</rscale>
<asrwt>0</asrwt>
<pdfrwt beam="2">  1       21 0.12620660E-01 0.27269703E+02</pdfrwt>
<pdfrwt beam="1">  1        3 0.11028558E-01 0.27269703E+02</pdfrwt>
<totfact> 0.12027499E+05</totfact>
</mgrwt>
</event>
<event>
 4    1  0.2245608E+006  0.2615449E+02  0.7546771E-02  0.1644953E+00
         -2   -1    0    0    0  501 -0.00000000000E+00  0.00000000000E+00  0.89233597279E+01  0.89233597279E+01  0.00000000000E+00 0. -1.
         21   -1    0    0  503  502  0.00000000000E+00 -0.00000000000E+00 -0.77107179623E+02  0.77107179623E+02  0.00000000000E+00 0. -1.
         21    1    1    2  503  501  0.24593460016E+02  0.89005188161E+01 -0.37370674270E+02  0.45613866380E+02  0.00000000000E+00 0. -1.
         -2    1    1    2    0  502 -0.24593460016E+02 -0.89005188161E+01 -0.30813145626E+02  0.40416672972E+02  0.00000000000E+00 0. -1.
<mgrwt>
<rscale>  2 0.26154493E+02</rscale>
<asrwt>0</asrwt>
<pdfrwt beam="2">  1       21 0.11862643E-01 0.26154493E+02</pdfrwt>
<pdfrwt beam="1">  1       -2 0.13728246E-02 0.26154493E+02</pdfrwt>
<totfact> 0.41658396E+06</totfact>
</mgrwt>
</event>
<event>
 4    1  0.2245608E+006  0.3290077E+02  0.7546771E-02  0.1568073E+00
          1   -1    0    0  503    0 -0.00000000000E+00  0.00000000000E+00  0.16493186600E+04  0.16493186600E+04  0.00000000000E+00 0.  1.
         21   -1    0    0  501  502  0.00000000000E+00 -0.00000000000E+00 -0.12275222927E+01  0.12275222927E+01  0.00000000000E+00 0.  1.
         21    1    1    2  503  502 -0.30525924164E+02  0.12273093846E+02  0.26107906068E+03  0.26314394692E+03  0.00000000000E+00 0.  1.
          1    1    1    2  501    0  0.30525924164E+02 -0.12273093846E+02  0.13870120770E+04  0.13874022354E+04  0.00000000000E+00 0.  1.
<mgrwt>
<rscale>  2 0.32900773E+02</rscale>
<asrwt>0</asrwt>
<pdfrwt beam="2">  1       21 0.18885090E-03 0.32900773E+02</pdfrwt>
<pdfrwt beam="1">  1        1 0.25373956E+00 0.32900773E+02</pdfrwt>
<totfact> 0.27375263E+06</totfact>
</mgrwt>
</event>
<event>
 4    1  0.2245608E+006  0.2220185E+02  0.7546771E-02  0.1704784E+00
         21   -1    0    0  503  502  0.00000000000E+00  0.00000000000E+00  0.31078394125E+02  0.31078394125E+02  0.00000000000E+00 0.  1.
         -4   -1    0    0    0  501 -0.00000000000E+00 -0.00000000000E+00 -0.22579624021E+02  0.22579624021E+02  0.00000000000E+00 0.  1.
         21    1    1    2  503  501 -0.36444775430E+01 -0.21900682978E+02  0.18884603745E+02  0.29147047707E+02  0.00000000000E+00 0.  1.
         -4    1    1    2    0  502  0.36444775430E+01  0.21900682978E+02 -0.10385833641E+02  0.24510970439E+02  0.00000000000E+00 0.  1.
<mgrwt>
<rscale>  2 0.22201850E+02</rscale>
<asrwt>0</asrwt>
<pdfrwt beam="1">  1       21 0.47812914E-02 0.22201850E+02</pdfrwt>
<pdfrwt beam="2">  1       -4 0.34737883E-02 0.22201850E+02</pdfrwt>
<totfact> 0.27226308E+06</totfact>
</mgrwt>
</event>
<event>
 4    1  0.2245608E+006  0.2090792E+02  0.7546771E-02  0.1727853E+00
          2   -1    0    0  502    0 -0.00000000000E+00  0.00000000000E+00  0.48687849137E+03  0.48687849137E+03  0.00000000000E+00 0. -1.
         21   -1    0    0  503  502  0.00000000000E+00 -0.00000000000E+00 -0.66973104573E+01  0.66973104573E+01  0.00000000000E+00 0. -1.
         21    1    1    2  503  501 -0.10278963299E+02 -0.18206700360E+02  0.10439949571E+02  0.23369500883E+02  0.00000000000E+00 0. -1.
          2    1    1    2  501    0  0.10278963299E+02  0.18206700360E+02  0.46974123134E+03  0.47020630095E+03  0.00000000000E+00 0. -1.
<mgrwt>
<rscale>  2 0.20907918E+02</rscale>
<asrwt>0</asrwt>
<pdfrwt beam="2">  1       21 0.10303558E-02 0.20907918E+02</pdfrwt>
<pdfrwt beam="1">  1        2 0.74904355E-01 0.20907918E+02</pdfrwt>
<totfact> 0.20867765E+06</totfact>
</mgrwt>
</event>
<event>
 4    1  0.2245608E+006  0.2502519E+02  0.7546771E-02  0.1660640E+00
          1   -1    0    0  503    0 -0.00000000000E+00  0.00000000000E+00  0.68983489178E+01  0.68983489178E+01  0.00000000000E+00 0. -1.
         21   -1    0    0  501  502  0.00000000000E+00 -0.00000000000E+00 -0.91874321976E+02  0.91874321976E+02  0.00000000000E+00 0. -1.
         21    1    1    2  503  502 -0.22095505236E+02 -0.11749406923E+02 -0.37108000499E+02  0.44757833010E+02  0.00000000000E+00 0. -1.
          1    1    1    2  501    0  0.22095505236E+02  0.11749406923E+02 -0.47867972559E+02  0.54014837884E+02  0.00000000000E+00 0. -1.
<mgrwt>
<rscale>  2 0.25025186E+02</rscale>
<asrwt>0</asrwt>
<pdfrwt beam="2">  1       21 0.14134509E-01 0.25025186E+02</pdfrwt>
<pdfrwt beam="1">  1        1 0.10612846E-02 0.25025186E+02</pdfrwt>
<totfact> 0.45063308E+06</totfact>
</mgrwt>
</event>
<event>
 4    1  0.2245608E+006  0.3933527E+02  0.7546771E-02  0.1513161E+00
         21   -1    0    0  501  502  0.00000000000E+00  0.00000000000E+00  0.11409220218E+02  0.11409220218E+02  0.00000000000E+00 0.  1.
          4   -1    0    0  503    0 -0.00000000000E+00 -0.00000000000E+00 -0.17112616216E+03  0.17112616216E+03  0.00000000000E+00 0. -1.
         21    1    1    2  503  502 -0.57239063265E+01  0.38916578290E+02 -0.38282695984E+02  0.54889233746E+02  0.00000000000E+00 0.  1.
          4    1    1    2  501    0  0.57239063265E+01 -0.38916578290E+02 -0.12143424596E+03  0.12764614863E+03  0.00000000000E+00 0. -1.
<mgrwt>
<rscale>  2 0.39335266E+02</rscale>
<asrwt>0</asrwt>
<pdfrwt beam="1">  1       21 0.17552646E-02 0.39335266E+02</pdfrwt>
<pdfrwt beam="2">  1        4 0.26327102E-01 0.39335266E+02</pdfrwt>
<totfact> 0.60532639E+05</totfact>
</mgrwt>
</event>
<event>
 4    1  0.2245608E+006  0.2087536E+02  0.7546771E-02  0.1728461E+00
          1   -1    0    0  502    0 -0.00000000000E+00  0.00000000000E+00  0.21950805470E+03  0.21950805470E+03  0.00000000000E+00 0.  1.
         21   -1    0    0  503  502  0.00000000000E+00 -0.00000000000E+00 -0.28383656331E+01  0.28383656331E+01  0.00000000000E+00 0.  1.
         21    1    1    2  503  501  0.20863305842E+02  0.70923402827E+00  0.47385729935E+02  0.51780188731E+02  0.00000000000E+00 0.  1.
          1    1    1    2  501    0 -0.20863305842E+02 -0.70923402827E+00  0.16928395913E+03  0.17056623160E+03  0.00000000000E+00 0.  1.
<mgrwt>
<rscale>  2 0.20875357E+02</rscale>
<asrwt>0</asrwt>
<pdfrwt beam="2">  1       21 0.43667181E-03 0.20875357E+02</pdfrwt>
<pdfrwt beam="1">  1        1 0.33770457E-01 0.20875357E+02</pdfrwt>
<totfact> 0.12303032E+07</totfact>
</mgrwt>
</event>
<event>
 4    1  0.2245608E+006  0.2058142E+02  0.7546771E-02  0.1734007E+00
         21   -1    0    0  501  502  0.00000000000E+00  0.00000000000E+00  0.16442768592E+01  0.16442768592E+01  0.00000000000E+00 0. -1.
          3   -1    0    0  503    0 -0.00000000000E+00 -0.00000000000E+00 -0.34764291471E+03  0.34764291471E+03  0.00000000000E+00 0. -1.
         21    1    1    2  503  502 -0.77367711996E+01 -0.19071891446E+02 -0.84126638798E+02  0.86607655709E+02  0.00000000000E+00 0. -1.
          3    1    1    2  501    0  0.77367711996E+01  0.19071891446E+02 -0.26187199906E+03  0.26267953586E+03  0.00000000000E+00 0. -1.
<mgrwt>
<rscale>  2 0.20581416E+02</rscale>
<asrwt>0</asrwt>
<pdfrwt beam="1">  1       21 0.25296560E-03 0.20581416E+02</pdfrwt>
<pdfrwt beam="2">  1        3 0.53483540E-01 0.20581416E+02</pdfrwt>
<totfact> 0.29690046E+06</totfact>
</mgrwt>
</event>
<event>
 4    1  0.2245608E+006  0.3041308E+02  0.7546771E-02  0.1593567E+00
         21   -1    0    0  503  502  0.00000000000E+00  0.00000000000E+00  0.31025355190E+02  0.31025355190E+02  0.00000000000E+00 0.  1.
         -1   -1    0    0    0  501 -0.00000000000E+00 -0.00000000000E+00 -0.38491494710E+02  0.38491494710E+02  0.00000000000E+00 0.  1.
         21    1    1    2  503  501  0.19539659215E+02  0.23305735262E+02  0.12771438614E+02  0.32985833666E+02  0.00000000000E+00 0.  1.
         -1    1    1    2    0  502 -0.19539659215E+02 -0.23305735262E+02 -0.20237578135E+02  0.36531016234E+02  0.00000000000E+00 0.  1.
<mgrwt>
<rscale>  2 0.30413082E+02</rscale>
<asrwt>0</asrwt>
<pdfrwt beam="1">  1       21 0.47731316E-02 0.30413082E+02</pdfrwt>
<pdfrwt beam="2">  1       -1 0.59217684E-02 0.30413082E+02</pdfrwt>
<totfact> 0.25592003E+06</totfact>
</mgrwt>
</event>
<event>
 4    1  0.2245608E+006  0.2315771E+02  0.7546771E-02  0.1688966E+00
          4   -1    0    0  502    0 -0.00000000000E+00  0.00000000000E+00  0.20115681529E+03  0.20115681529E+03  0.00000000000E+00 0. -1.
         21   -1    0    0  503  502  0.00000000000E+00 -0.00000000000E+00 -0.83792294310E+01  0.83792294310E+01  0.00000000000E+00 0.  1.
         21    1    1    2  503  501  0.30722719979E+01  0.22953014217E+02  0.98783849973E+01  0.25176620246E+02  0.00000000000E+00 0.  1.
          4    1    1    2  501    0 -0.30722719979E+01 -0.22953014217E+02  0.18289920086E+03  0.18435942447E+03  0.00000000000E+00 0. -1.
<mgrwt>
<rscale>  2 0.23157714E+02</rscale>
<asrwt>0</asrwt>
<pdfrwt beam="2">  1       21 0.12891124E-02 0.23157714E+02</pdfrwt>
<pdfrwt beam="1">  1        4 0.30947199E-01 0.23157714E+02</pdfrwt>
<totfact> 0.60059299E+05</totfact>
</mgrwt>
</event>
<event>
 4    1  0.2245608E+006  0.2241756E+02  0.7546771E-02  0.1701129E+00
          4   -1    0    0  502    0 -0.00000000000E+00  0.00000000000E+00  0.85355188266E+02  0.85355188266E+02  0.00000000000E+00 0.  1.
         21   -1    0    0  503  502  0.00000000000E+00 -0.00000000000E+00 -0.14011870115E+02  0.14011870115E+02  0.00000000000E+00 0.  1.
         21    1    1    2  503  501  0.22040801222E+02  0.40926944304E+01 -0.21598334935E+01  0.22521366453E+02  0.00000000000E+00 0.  1.
          4    1    1    2  501    0 -0.22040801222E+02 -0.40926944304E+01  0.73503151644E+02  0.76845691927E+02  0.00000000000E+00 0.  1.
<mgrwt>
<rscale>  2 0.22417562E+02</rscale>
<asrwt>0</asrwt>
<pdfrwt beam="2">  1       21 0.21556724E-02 0.22417562E+02</pdfrwt>
<pdfrwt beam="1">  1        4 0.13131567E-01 0.22417562E+02</pdfrwt>
<totfact> 0.11827327E+06</totfact>
</mgrwt>
</event>
<event>
 4    1  0.2245608E+006  0.2135741E+02  0.7546771E-02  0.1719608E+00
          2   -1    0    0  502    0 -0.00000000000E+00  0.00000000000E+00  0.77553032605E+03  0.77553032605E+03  0.00000000000E+00 0.  1.
         21   -1    0    0  503  502  0.00000000000E+00 -0.00000000000E+00 -0.25352936951E+02  0.25352936951E+02  0.00000000000E+00 0.  1.
         21    1    1    2  503  501 -0.21227462210E+02 -0.23523922385E+01 -0.20680749264E+02  0.29729317033E+02  0.00000000000E+00 0.  1.
          2    1    1    2  501    0  0.21227462210E+02  0.23523922385E+01  0.77085813837E+03  0.77115394597E+03  0.00000000000E+00 0.  1.
<mgrwt>
<rscale>  2 0.21357409E+02</rscale>
<asrwt>0</asrwt>
<pdfrwt beam="2">  1       21 0.39004524E-02 0.21357409E+02</pdfrwt>
<pdfrwt beam="1">  1        2 0.11931234E+00 0.21357409E+02</pdfrwt>
<totfact> 0.16751795E+05</totfact>
</mgrwt>
</event>
<event>
 4    1  0.2245608E+006  0.2635047E+02  0.7546771E-02  0.1642329E+00
          1   -1    0    0  503    0 -0.00000000000E+00  0.00000000000E+00  0.95268234761E+03  0.95268234761E+03  0.00000000000E+00 0.  1.
         21   -1    0    0  501  502  0.00000000000E+00 -0.00000000000E+00 -0.34120513888E+02  0.34120513888E+02  0.00000000000E+00 0. -1.
         21    1    1    2  503  502 -0.12430182289E+02  0.23234415256E+02 -0.28822396330E+02  0.39052247236E+02  0.00000000000E+00 0. -1.
          1    1    1    2  501    0  0.12430182289E+02 -0.23234415256E+02  0.94738423005E+03  0.94775061426E+03  0.00000000000E+00 0.  1.
<mgrwt>
<rscale>  2 0.26350474E+02</rscale>
<asrwt>0</asrwt>
<pdfrwt beam="2">  1       21 0.52493106E-02 0.26350474E+02</pdfrwt>
<pdfrwt beam="1">  1        1 0.14656649E+00 0.26350474E+02</pdfrwt>
<totfact> 0.47054932E+04</totfact>
</mgrwt>
</event>
<event>
 4    1  0.2245608E+006  0.2183930E+02  0.7546771E-02  0.1711046E+00
         21   -1    0    0  503  502  0.00000000000E+00  0.00000000000E+00  0.17099010185E+03  0.17099010185E+03  0.00000000000E+00 0. -1.
         -3   -1    0    0    0  501 -0.00000000000E+00 -0.00000000000E+00 -0.54019874169E+01  0.54019874169E+01  0.00000000000E+00 0. -1.
         21    1    1    2  503  501  0.19569054318E+02  0.96957223512E+01  0.14412930269E+03  0.14577452045E+03  0.00000000000E+00 0. -1.
         -3    1    1    2    0  502 -0.19569054318E+02 -0.96957223512E+01  0.21458811744E+02  0.30617568817E+02  0.00000000000E+00 0. -1.
<mgrwt>
<rscale>  2 0.21839298E+02</rscale>
<asrwt>0</asrwt>
<pdfrwt beam="1">  1       21 0.26306165E-01 0.21839298E+02</pdfrwt>
<pdfrwt beam="2">  1       -3 0.83107512E-03 0.21839298E+02</pdfrwt>
<totfact> 0.14666526E+06</totfact>
</mgrwt>
</event>
<event>
 4    1  0.2245608E+006  0.2233732E+02  0.7546771E-02  0.1702483E+00
         21   -1    0    0  501  502  0.00000000000E+00  0.00000000000E+00  0.23257267356E+01  0.23257267356E+01  0.00000000000E+00 0.  1.
          2   -1    0    0  503    0 -0.00000000000E+00 -0.00000000000E+00 -0.15197740488E+04  0.15197740488E+04  0.00000000000E+00 0. -1.
         21    1    1    2  503  502 -0.21944910431E+02  0.41685402176E+01 -0.53433373215E+02  0.57914429933E+02  0.00000000000E+00 0.  1.
          2    1    1    2  501    0  0.21944910431E+02 -0.41685402176E+01 -0.14640149489E+04  0.14641853456E+04  0.00000000000E+00 0. -1.
<mgrwt>
<rscale>  2 0.22337319E+02</rscale>
<asrwt>0</asrwt>
<pdfrwt beam="1">  1       21 0.35780372E-03 0.22337319E+02</pdfrwt>
<pdfrwt beam="2">  1        2 0.23381165E+00 0.22337319E+02</pdfrwt>
<totfact> 0.25444332E+06</totfact>
</mgrwt>
</event>
<event>
 4    1  0.2245608E+006  0.2324906E+02  0.7546771E-02  0.1687504E+00
         -1   -1    0    0    0  501 -0.00000000000E+00  0.00000000000E+00  0.65568548325E+03  0.65568548325E+03  0.00000000000E+00 0. -1.
         21   -1    0    0  501  502  0.00000000000E+00 -0.00000000000E+00 -0.16554400223E+03  0.16554400223E+03  0.00000000000E+00 0. -1.
         21    1    1    2  503  502  0.23248938426E+02 -0.76710515647E-01 -0.16452036003E+03  0.16615495144E+03  0.00000000000E+00 0. -1.
         -1    1    1    2    0  503 -0.23248938426E+02  0.76710515647E-01  0.65466184105E+03  0.65507453404E+03  0.00000000000E+00 0. -1.
<mgrwt>
<rscale>  2 0.23249065E+02</rscale>
<asrwt>0</asrwt>
<pdfrwt beam="2">  1       21 0.25468308E-01 0.23249065E+02</pdfrwt>
<pdfrwt beam="1">  1       -1 0.10087469E+00 0.23249065E+02</pdfrwt>
<totfact> 0.15030475E+03</totfact>
</mgrwt>
</event>
<event>
 4    1  0.2245608E+006  0.4000545E+02  0.7546771E-02  0.1508171E+00
          1   -1    0    0  503    0 -0.00000000000E+00  0.00000000000E+00  0.59091469932E+01  0.59091469932E+01  0.00000000000E+00 0.  1.
         21   -1    0    0  501  502  0.00000000000E+00 -0.00000000000E+00 -0.16546182036E+04  0.16546182036E+04  0.00000000000E+00 0.  1.
         21    1    1    2  503  502  0.26525511037E+02  0.29947177822E+02 -0.15836316366E+04  0.15841368617E+04  0.00000000000E+00 0.  1.
          1    1    1    2  501    0 -0.26525511037E+02 -0.29947177822E+02 -0.65077419942E+02  0.76390488816E+02  0.00000000000E+00 0.  1.
<mgrwt>
<rscale>  2 0.40005452E+02</rscale>
<asrwt>0</asrwt>
<pdfrwt beam="2">  1       21 0.25455689E+00 0.40005452E+02</pdfrwt>
<pdfrwt beam="1">  1        1 0.90909868E-03 0.40005452E+02</pdfrwt>
<totfact> 0.13201142E+04</totfact>
</mgrwt>
</event>
<event>
 4    1  0.2245608E+006  0.2280472E+02  0.7546771E-02  0.1694695E+00
         21   -1    0    0  501  502  0.00000000000E+00  0.00000000000E+00  0.42431669298E+01  0.42431669298E+01  0.00000000000E+00 0. -1.
          2   -1    0    0  503    0 -0.00000000000E+00 -0.00000000000E+00 -0.13173131273E+04  0.13173131273E+04  0.00000000000E+00 0. -1.
         21    1    1    2  503  502  0.43569895062E+01  0.22384630241E+02 -0.27246596522E+02  0.35530719815E+02  0.00000000000E+00 0. -1.
          2    1    1    2  501    0 -0.43569895062E+01 -0.22384630241E+02 -0.12858233639E+04  0.12860255744E+04  0.00000000000E+00 0. -1.
<mgrwt>
<rscale>  2 0.22804715E+02</rscale>
<asrwt>0</asrwt>
<pdfrwt beam="1">  1       21 0.65279534E-03 0.22804715E+02</pdfrwt>
<pdfrwt beam="2">  1        2 0.20266343E+00 0.22804715E+02</pdfrwt>
<totfact> 0.13155430E+06</totfact>
</mgrwt>
</event>
<event>
 4    1  0.2245608E+006  0.2480988E+02  0.7546771E-02  0.1663748E+00
          1   -1    0    0  502    0 -0.00000000000E+00  0.00000000000E+00  0.20019076287E+02  0.20019076287E+02  0.00000000000E+00 0. -1.
         21   -1    0    0  503  502  0.00000000000E+00 -0.00000000000E+00 -0.31688040439E+03  0.31688040439E+03  0.00000000000E+00 0. -1.
         21    1    1    2  503  501  0.13443349464E+02 -0.20852018359E+02 -0.30849950195E+03  0.30949551372E+03  0.00000000000E+00 0. -1.
          1    1    1    2  501    0 -0.13443349464E+02  0.20852018359E+02  0.11638173842E+02  0.27403966954E+02  0.00000000000E+00 0. -1.
<mgrwt>
<rscale>  2 0.24809883E+02</rscale>
<asrwt>0</asrwt>
<pdfrwt beam="2">  1       21 0.48750830E-01 0.24809883E+02</pdfrwt>
<pdfrwt beam="1">  1        1 0.30798580E-02 0.24809883E+02</pdfrwt>
<totfact> 0.11822519E+05</totfact>
</mgrwt>
</event>
<event>
 4    1  0.2245608E+006  0.2476460E+02  0.7546771E-02  0.1664406E+00
         -2   -1    0    0    0  501 -0.00000000000E+00  0.00000000000E+00  0.66009602372E+02  0.66009602372E+02  0.00000000000E+00 0. -1.
         21   -1    0    0  501  502  0.00000000000E+00 -0.00000000000E+00 -0.20976397924E+03  0.20976397924E+03  0.00000000000E+00 0.  1.
         21    1    1    2  503  502 -0.23411377145E+02  0.80741976819E+01 -0.20667576097E+03  0.20815416263E+03  0.00000000000E+00 0.  1.
         -2    1    1    2    0  503  0.23411377145E+02 -0.80741976819E+01  0.62921384094E+02  0.67619418988E+02  0.00000000000E+00 0. -1.
<mgrwt>
<rscale>  2 0.24764597E+02</rscale>
<asrwt>0</asrwt>
<pdfrwt beam="2">  1       21 0.32271381E-01 0.24764597E+02</pdfrwt>
<pdfrwt beam="1">  1       -2 0.10155324E-01 0.24764597E+02</pdfrwt>
<totfact> 0.42081150E+04</totfact>
</mgrwt>
</event>
<event>
 4    1  0.2245608E+006  0.2195265E+02  0.7546771E-02  0.1709072E+00
         21   -1    0    0  501  502  0.00000000000E+00  0.00000000000E+00  0.10827465102E+01  0.10827465102E+01  0.00000000000E+00 0.  1.
          2   -1    0    0  503    0 -0.00000000000E+00 -0.00000000000E+00 -0.84848015771E+03  0.84848015771E+03  0.00000000000E+00 0. -1.
         21    1    1    2  503  502 -0.11774452365E+01  0.21921054318E+02 -0.13080659794E+03  0.13263591167E+03  0.00000000000E+00 0.  1.
          2    1    1    2  501    0  0.11774452365E+01 -0.21921054318E+02 -0.71659081326E+03  0.71692699255E+03  0.00000000000E+00 0. -1.
<mgrwt>
<rscale>  2 0.21952654E+02</rscale>
<asrwt>0</asrwt>
<pdfrwt beam="1">  1       21 0.16657657E-03 0.21952654E+02</pdfrwt>
<pdfrwt beam="2">  1        2 0.13053527E+00 0.21952654E+02</pdfrwt>
<totfact> 0.16908861E+07</totfact>
</mgrwt>
</event>
<event>
 4    1  0.2245608E+006  0.2314273E+02  0.7546771E-02  0.1689207E+00
          2   -1    0    0  503    0 -0.00000000000E+00  0.00000000000E+00  0.29810012220E+02  0.29810012220E+02  0.00000000000E+00 0. -1.
         21   -1    0    0  501  502  0.00000000000E+00 -0.00000000000E+00 -0.69161459825E+02  0.69161459825E+02  0.00000000000E+00 0.  1.
         21    1    1    2  503  502  0.23049655254E+02 -0.20734787213E+01 -0.62251340223E+02  0.66413969019E+02  0.00000000000E+00 0.  1.
          2    1    1    2  501    0 -0.23049655254E+02  0.20734787213E+01  0.22899892618E+02  0.32557503025E+02  0.00000000000E+00 0. -1.
<mgrwt>
<rscale>  2 0.23142729E+02</rscale>
<asrwt>0</asrwt>
<pdfrwt beam="2">  1       21 0.10640224E-01 0.23142729E+02</pdfrwt>
<pdfrwt beam="1">  1        2 0.45861558E-02 0.23142729E+02</pdfrwt>
<totfact> 0.11248461E+06</totfact>
</mgrwt>
</event>
<event>
 4    1  0.2245608E+006  0.6267538E+02  0.7546771E-02  0.1386935E+00
          2   -1    0    0  503    0 -0.00000000000E+00  0.00000000000E+00  0.65314908200E+03  0.65314908200E+03  0.00000000000E+00 0. -1.
         21   -1    0    0  501  502  0.00000000000E+00 -0.00000000000E+00 -0.18731990381E+02  0.18731990381E+02  0.00000000000E+00 0.  1.
         21    1    1    2  503  502 -0.33603234353E+02  0.52905818058E+02  0.40402610945E+02  0.74569255827E+02  0.00000000000E+00 0.  1.
          2    1    1    2  501    0  0.33603234353E+02 -0.52905818058E+02  0.59401448068E+03  0.59731181656E+03  0.00000000000E+00 0. -1.
<mgrwt>
<rscale>  2 0.62675377E+02</rscale>
<asrwt>0</asrwt>
<pdfrwt beam="2">  1       21 0.28818452E-02 0.62675377E+02</pdfrwt>
<pdfrwt beam="1">  1        2 0.10048446E+00 0.62675377E+02</pdfrwt>
<totfact> 0.36389645E+05</totfact>
</mgrwt>
</event>
<event>
 4    1  0.2245608E+006  0.2340299E+02  0.7546771E-02  0.1685060E+00
         -2   -1    0    0    0  501 -0.00000000000E+00  0.00000000000E+00  0.54352927514E+01  0.54352927514E+01  0.00000000000E+00 0. -1.
         21   -1    0    0  503  502  0.00000000000E+00 -0.00000000000E+00 -0.73413676179E+03  0.73413676179E+03  0.00000000000E+00 0. -1.
         21    1    1    2  503  501  0.23398258151E+02  0.47070010896E+00 -0.70782211371E+03  0.70820889906E+03  0.00000000000E+00 0. -1.
         -2    1    1    2    0  502 -0.23398258151E+02 -0.47070010896E+00 -0.20879355325E+02  0.31363155483E+02  0.00000000000E+00 0. -1.
<mgrwt>
<rscale>  2 0.23402992E+02</rscale>
<asrwt>0</asrwt>
<pdfrwt beam="2">  1       21 0.11294419E+00 0.23402992E+02</pdfrwt>
<pdfrwt beam="1">  1       -2 0.83619831E-03 0.23402992E+02</pdfrwt>
<totfact> 0.11040380E+05</totfact>
</mgrwt>
</event>
<event>
 4    1  0.2245608E+006  0.2259327E+02  0.7546771E-02  0.1698189E+00
         -1   -1    0    0    0  501 -0.00000000000E+00  0.00000000000E+00  0.11542666828E+02  0.11542666828E+02  0.00000000000E+00 0.  1.
         21   -1    0    0  501  502  0.00000000000E+00 -0.00000000000E+00 -0.12463309254E+03  0.12463309254E+03  0.00000000000E+00 0.  1.
         21    1    1    2  503  502 -0.20621144761E+02  0.92316869331E+01 -0.11123514687E+03  0.11350644719E+03  0.00000000000E+00 0.  1.
         -1    1    1    2    0  503  0.20621144761E+02 -0.92316869331E+01 -0.18552788403E+01  0.22669312175E+02  0.00000000000E+00 0.  1.
<mgrwt>
<rscale>  2 0.22593266E+02</rscale>
<asrwt>0</asrwt>
<pdfrwt beam="2">  1       21 0.19174323E-01 0.22593266E+02</pdfrwt>
<pdfrwt beam="1">  1       -1 0.17757948E-02 0.22593266E+02</pdfrwt>
<totfact> 0.12544609E+06</totfact>
</mgrwt>
</event>
<event>
 4    1  0.2245608E+006  0.2238159E+02  0.7546771E-02  0.1701735E+00
         21   -1    0    0  503  502  0.00000000000E+00  0.00000000000E+00  0.11259502369E+02  0.11259502369E+02  0.00000000000E+00 0. -1.
         -2   -1    0    0    0  501 -0.00000000000E+00 -0.00000000000E+00 -0.10262674486E+03  0.10262674486E+03  0.00000000000E+00 0. -1.
         21    1    1    2  503  501 -0.19648623180E+01  0.22295177309E+02 -0.28251922442E+01  0.22559196050E+02  0.00000000000E+00 0. -1.
         -2    1    1    2    0  502  0.19648623180E+01 -0.22295177309E+02 -0.88542050246E+02  0.91327051178E+02  0.00000000000E+00 0. -1.
<mgrwt>
<rscale>  2 0.22381591E+02</rscale>
<asrwt>0</asrwt>
<pdfrwt beam="1">  1       21 0.17322311E-02 0.22381591E+02</pdfrwt>
<pdfrwt beam="2">  1       -2 0.15788730E-01 0.22381591E+02</pdfrwt>
<totfact> 0.25842165E+06</totfact>
</mgrwt>
</event>
<event>
 4    1  0.2245608E+006  0.3458452E+02  0.7546771E-02  0.1552321E+00
          2   -1    0    0  502    0 -0.00000000000E+00  0.00000000000E+00  0.12361046169E+04  0.12361046169E+04  0.00000000000E+00 0. -1.
         21   -1    0    0  503  502  0.00000000000E+00 -0.00000000000E+00 -0.48127444530E+01  0.48127444530E+01  0.00000000000E+00 0. -1.
         21    1    1    2  503  501  0.13446872651E+02  0.31863309712E+02  0.61056953593E+02  0.70171507551E+02  0.00000000000E+00 0. -1.
          2    1    1    2  501    0 -0.13446872651E+02 -0.31863309712E+02  0.11702349189E+04  0.11707458538E+04  0.00000000000E+00 0. -1.
<mgrwt>
<rscale>  2 0.34584518E+02</rscale>
<asrwt>0</asrwt>
<pdfrwt beam="2">  1       21 0.74042321E-03 0.34584518E+02</pdfrwt>
<pdfrwt beam="1">  1        2 0.19016969E+00 0.34584518E+02</pdfrwt>
<totfact> 0.12711616E+06</totfact>
</mgrwt>
</event>
<event>
 4    1  0.2245608E+006  0.2520067E+02  0.7546771E-02  0.1658136E+00
         21   -1    0    0  503  502  0.00000000000E+00  0.00000000000E+00  0.18513046708E+01  0.18513046708E+01  0.00000000000E+00 0. -1.
          2   -1    0    0  502    0 -0.00000000000E+00 -0.00000000000E+00 -0.53543498427E+03  0.53543498427E+03  0.00000000000E+00 0.  1.
         21    1    1    2  503  501  0.26842484174E+01 -0.25057308875E+02 -0.10575775016E+03  0.10871879155E+03  0.00000000000E+00 0. -1.
          2    1    1    2  501    0 -0.26842484174E+01  0.25057308875E+02 -0.42782592944E+03  0.42856749739E+03  0.00000000000E+00 0.  1.
<mgrwt>
<rscale>  2 0.25200673E+02</rscale>
<asrwt>0</asrwt>
<pdfrwt beam="1">  1       21 0.28481573E-03 0.25200673E+02</pdfrwt>
<pdfrwt beam="2">  1        2 0.82374721E-01 0.25200673E+02</pdfrwt>
<totfact> 0.13272518E+07</totfact>
</mgrwt>
</event>
<event>
 4    1  0.2245608E+006  0.2797484E+02  0.7546771E-02  0.1621617E+00
         -2   -1    0    0    0  501 -0.00000000000E+00  0.00000000000E+00  0.72947826989E+02  0.72947826989E+02  0.00000000000E+00 0.  1.
         21   -1    0    0  503  502  0.00000000000E+00 -0.00000000000E+00 -0.34206635074E+02  0.34206635074E+02  0.00000000000E+00 0. -1.
         21    1    1    2  503  501  0.79450856500E+01 -0.26822888374E+02 -0.25016891970E+02  0.37529143483E+02  0.00000000000E+00 0. -1.
         -2    1    1    2    0  502 -0.79450856500E+01  0.26822888374E+02  0.63758083885E+02  0.69625318581E+02  0.00000000000E+00 0.  1.
<mgrwt>
<rscale>  2 0.27974841E+02</rscale>
<asrwt>0</asrwt>
<pdfrwt beam="2">  1       21 0.52625593E-02 0.27974841E+02</pdfrwt>
<pdfrwt beam="1">  1       -2 0.11222743E-01 0.27974841E+02</pdfrwt>
<totfact> 0.81064037E+05</totfact>
</mgrwt>
</event>
<event>
 4    1  0.2245608E+006  0.2436307E+02  0.7546771E-02  0.1670322E+00
          1   -1    0    0  503    0 -0.00000000000E+00  0.00000000000E+00  0.22896859687E+01  0.22896859687E+01  0.00000000000E+00 0. -1.
         21   -1    0    0  501  502  0.00000000000E+00 -0.00000000000E+00 -0.26437515889E+03  0.26437515889E+03  0.00000000000E+00 0. -1.
         21    1    1    2  503  502  0.24067406938E+02  0.37840680331E+01 -0.14964012436E+03  0.15161044181E+03  0.00000000000E+00 0. -1.
          1    1    1    2  501    0 -0.24067406938E+02 -0.37840680331E+01 -0.11244534856E+03  0.11505440305E+03  0.00000000000E+00 0. -1.
<mgrwt>
<rscale>  2 0.24363071E+02</rscale>
<asrwt>0</asrwt>
<pdfrwt beam="2">  1       21 0.40673078E-01 0.24363071E+02</pdfrwt>
<pdfrwt beam="1">  1        1 0.35225958E-03 0.24363071E+02</pdfrwt>
<totfact> 0.29220884E+06</totfact>
</mgrwt>
</event>
<event>
 4    1  0.2245608E+006  0.2777177E+02  0.7546771E-02  0.1624111E+00
         -4   -1    0    0    0  501 -0.00000000000E+00  0.00000000000E+00  0.14162508535E+03  0.14162508535E+03  0.00000000000E+00 0.  1.
         21   -1    0    0  501  502  0.00000000000E+00 -0.00000000000E+00 -0.89337531396E+01  0.89337531396E+01  0.00000000000E+00 0. -1.
         21    1    1    2  503  502  0.11419479799E+02  0.25315350135E+02  0.19308581610E+02  0.33824440796E+02  0.00000000000E+00 0. -1.
         -4    1    1    2    0  503 -0.11419479799E+02 -0.25315350135E+02  0.11338275061E+03  0.11673439770E+03  0.00000000000E+00 0.  1.
<mgrwt>
<rscale>  2 0.27771775E+02</rscale>
<asrwt>0</asrwt>
<pdfrwt beam="2">  1       21 0.13744237E-02 0.27771775E+02</pdfrwt>
<pdfrwt beam="1">  1       -4 0.21788473E-01 0.27771775E+02</pdfrwt>
<totfact> 0.10928478E+06</totfact>
</mgrwt>
</event>
<event>
 4    1  0.2245608E+006  0.3606885E+02  0.7546771E-02  0.1539309E+00
         21   -1    0    0  501  502  0.00000000000E+00  0.00000000000E+00  0.24827908567E+02  0.24827908567E+02  0.00000000000E+00 0. -1.
         -2   -1    0    0    0  501 -0.00000000000E+00 -0.00000000000E+00 -0.89829835708E+02  0.89829835708E+02  0.00000000000E+00 0. -1.
         21    1    1    2  503  502 -0.36058781172E+02  0.85234308318E+00  0.45054314459E+01  0.36349155435E+02  0.00000000000E+00 0. -1.
         -2    1    1    2    0  503  0.36058781172E+02 -0.85234308318E+00 -0.69507358587E+02  0.78308588840E+02  0.00000000000E+00 0. -1.
<mgrwt>
<rscale>  2 0.36068853E+02</rscale>
<asrwt>0</asrwt>
<pdfrwt beam="1">  1       21 0.38196783E-02 0.36068853E+02</pdfrwt>
<pdfrwt beam="2">  1       -2 0.13819975E-01 0.36068853E+02</pdfrwt>
<totfact> 0.10352014E+06</totfact>
</mgrwt>
</event>
<event>
 4    1  0.2245608E+006  0.2602737E+02  0.7546771E-02  0.1646669E+00
         21   -1    0    0  503  502  0.00000000000E+00  0.00000000000E+00  0.88473715418E+02  0.88473715418E+02  0.00000000000E+00 0.  1.
         -4   -1    0    0    0  501 -0.00000000000E+00 -0.00000000000E+00 -0.83233894656E+01  0.83233894656E+01  0.00000000000E+00 0. -1.
         21    1    1    2  503  501 -0.23021251190E+02  0.12142724668E+02  0.53771928609E+02  0.59739803105E+02  0.00000000000E+00 0.  1.
         -4    1    1    2    0  502  0.23021251190E+02 -0.12142724668E+02  0.26378397343E+02  0.37057301779E+02  0.00000000000E+00 0. -1.
<mgrwt>
<rscale>  2 0.26027366E+02</rscale>
<asrwt>0</asrwt>
<pdfrwt beam="1">  1       21 0.13611340E-01 0.26027366E+02</pdfrwt>
<pdfrwt beam="2">  1       -4 0.12805215E-02 0.26027366E+02</pdfrwt>
<totfact> 0.22971930E+06</totfact>
</mgrwt>
</event>
<event>
 4    1  0.2245608E+006  0.3410697E+02  0.7546771E-02  0.1556677E+00
         21   -1    0    0  501  502  0.00000000000E+00  0.00000000000E+00  0.64154142456E+00  0.64154142456E+00  0.00000000000E+00 0. -1.
          2   -1    0    0  503    0 -0.00000000000E+00 -0.00000000000E+00 -0.18144147569E+04  0.18144147569E+04  0.00000000000E+00 0. -1.
         21    1    1    2  503  502 -0.30047795737E+02  0.16137396238E+02 -0.88405651515E+03  0.88471419541E+03  0.00000000000E+00 0. -1.
          2    1    1    2  501    0  0.30047795737E+02 -0.16137396238E+02 -0.92971670035E+03  0.93034210294E+03  0.00000000000E+00 0. -1.
<mgrwt>
<rscale>  2 0.34106973E+02</rscale>
<asrwt>0</asrwt>
<pdfrwt beam="1">  1       21 0.98698737E-04 0.34106973E+02</pdfrwt>
<pdfrwt beam="2">  1        2 0.27914057E+00 0.34106973E+02</pdfrwt>
<totfact> 0.12919505E+07</totfact>
</mgrwt>
</event>
<event>
 4    1  0.2245608E+006  0.4799253E+02  0.7546771E-02  0.1456480E+00
          2   -1    0    0  502    0 -0.00000000000E+00  0.00000000000E+00  0.12056738414E+04  0.12056738414E+04  0.00000000000E+00 0. -1.
         21   -1    0    0  503  502  0.00000000000E+00 -0.00000000000E+00 -0.40911673207E+01  0.40911673207E+01  0.00000000000E+00 0.  1.
         21    1    1    2  503  501  0.40998727723E+02 -0.24947686952E+02  0.15916487732E+03  0.16624301769E+03  0.00000000000E+00 0.  1.
          2    1    1    2  501    0 -0.40998727723E+02  0.24947686952E+02  0.10424177967E+04  0.10435219910E+04  0.00000000000E+00 0. -1.
<mgrwt>
<rscale>  2 0.47992528E+02</rscale>
<asrwt>0</asrwt>
<pdfrwt beam="2">  1       21 0.62941132E-03 0.47992528E+02</pdfrwt>
<pdfrwt beam="1">  1        2 0.18548800E+00 0.47992528E+02</pdfrwt>
<totfact> 0.17553990E+06</totfact>
</mgrwt>
</event>
<event>
 4    1  0.2245608E+006  0.2295838E+02  0.7546771E-02  0.1692186E+00
         -1   -1    0    0    0  501 -0.00000000000E+00  0.00000000000E+00  0.12460461135E+02  0.12460461135E+02  0.00000000000E+00 0.  1.
         21   -1    0    0  503  502  0.00000000000E+00 -0.00000000000E+00 -0.48055330946E+02  0.48055330946E+02  0.00000000000E+00 0.  1.
         21    1    1    2  503  501  0.58690334400E+01  0.22195537353E+02 -0.28268070221E+02  0.36416633919E+02  0.00000000000E+00 0.  1.
         -1    1    1    2    0  502 -0.58690334400E+01 -0.22195537353E+02 -0.73267995896E+01  0.24099158163E+02  0.00000000000E+00 0.  1.
<mgrwt>
<rscale>  2 0.22958385E+02</rscale>
<asrwt>0</asrwt>
<pdfrwt beam="2">  1       21 0.73931278E-02 0.22958385E+02</pdfrwt>
<pdfrwt beam="1">  1       -1 0.19169940E-02 0.22958385E+02</pdfrwt>
<totfact> 0.56054535E+06</totfact>
</mgrwt>
</event>
<event>
 4    1  0.2245608E+006  0.2068909E+02  0.7546771E-02  0.1731962E+00
         21   -1    0    0  503  502  0.00000000000E+00  0.00000000000E+00  0.28450927662E+02  0.28450927662E+02  0.00000000000E+00 0.  1.
         -1   -1    0    0    0  501 -0.00000000000E+00 -0.00000000000E+00 -0.86899632853E+02  0.86899632853E+02  0.00000000000E+00 0. -1.
         21    1    1    2  503  501 -0.20577150055E+02  0.21492303938E+01  0.23221211135E+02  0.31100851150E+02  0.00000000000E+00 0.  1.
         -1    1    1    2    0  502  0.20577150055E+02 -0.21492303938E+01 -0.81669916325E+02  0.84249709365E+02  0.00000000000E+00 0. -1.
<mgrwt>
<rscale>  2 0.20689086E+02</rscale>
<asrwt>0</asrwt>
<pdfrwt beam="1">  1       21 0.43770659E-02 0.20689086E+02</pdfrwt>
<pdfrwt beam="2">  1       -1 0.13369174E-01 0.20689086E+02</pdfrwt>
<totfact> 0.83031506E+05</totfact>
</mgrwt>
</event>
<event>
 4    1  0.2245608E+006  0.2044650E+02  0.7546771E-02  0.1736592E+00
         21   -1    0    0  501  502  0.00000000000E+00  0.00000000000E+00  0.55755038366E+00  0.55755038366E+00  0.00000000000E+00 0. -1.
          2   -1    0    0  503    0 -0.00000000000E+00 -0.00000000000E+00 -0.12906283020E+04  0.12906283020E+04  0.00000000000E+00 0. -1.
         21    1    1    2  503  502  0.10593265129E+02  0.17488338579E+02 -0.22712598207E+03  0.22804444958E+03  0.00000000000E+00 0. -1.
          2    1    1    2  501    0 -0.10593265129E+02 -0.17488338579E+02 -0.10629447695E+04  0.10631414028E+04  0.00000000000E+00 0. -1.
<mgrwt>
<rscale>  2 0.20446497E+02</rscale>
<asrwt>0</asrwt>
<pdfrwt beam="1">  1       21 0.85777053E-04 0.20446497E+02</pdfrwt>
<pdfrwt beam="2">  1        2 0.19855804E+00 0.20446497E+02</pdfrwt>
<totfact> 0.24950223E+07</totfact>
</mgrwt>
</event>
<event>
 4    1  0.2245608E+006  0.5621794E+02  0.7546771E-02  0.1414425E+00
         21   -1    0    0  503  502  0.00000000000E+00  0.00000000000E+00  0.18894058790E+02  0.18894058790E+02  0.00000000000E+00 0.  1.
          2   -1    0    0  502    0 -0.00000000000E+00 -0.00000000000E+00 -0.11351906948E+04  0.11351906948E+04  0.00000000000E+00 0. -1.
         21    1    1    2  503  501 -0.54262339304E+02  0.14698828646E+02 -0.25313474576E+02  0.61654107936E+02  0.00000000000E+00 0.  1.
          2    1    1    2  501    0  0.54262339304E+02 -0.14698828646E+02 -0.10909831614E+04  0.10924306457E+04  0.00000000000E+00 0. -1.
<mgrwt>
<rscale>  2 0.56217942E+02</rscale>
<asrwt>0</asrwt>
<pdfrwt beam="1">  1       21 0.29067780E-02 0.56217942E+02</pdfrwt>
<pdfrwt beam="2">  1        2 0.17464474E+00 0.56217942E+02</pdfrwt>
<totfact> 0.17914650E+05</totfact>
</mgrwt>
</event>
<event>
 4    1  0.2245608E+006  0.2505692E+02  0.7546771E-02  0.1660186E+00
         21   -1    0    0  503  502  0.00000000000E+00  0.00000000000E+00  0.47223980774E+01  0.47223980774E+01  0.00000000000E+00 0.  1.
          1   -1    0    0  502    0 -0.00000000000E+00 -0.00000000000E+00 -0.44945125558E+03  0.44945125558E+03  0.00000000000E+00 0.  1.
         21    1    1    2  503  501 -0.24963640337E+02  0.21600186973E+01 -0.31801920142E+02  0.40487172590E+02  0.00000000000E+00 0.  1.
          1    1    1    2  501    0  0.24963640337E+02 -0.21600186973E+01 -0.41292693736E+03  0.41368648107E+03  0.00000000000E+00 0.  1.
<mgrwt>
<rscale>  2 0.25056916E+02</rscale>
<asrwt>0</asrwt>
<pdfrwt beam="1">  1       21 0.72652270E-03 0.25056916E+02</pdfrwt>
<pdfrwt beam="2">  1        1 0.69146355E-01 0.25056916E+02</pdfrwt>
<totfact> 0.26486546E+06</totfact>
</mgrwt>
</event>
<event>
 4    1  0.2245608E+006  0.2592491E+02  0.7546771E-02  0.1648062E+00
         21   -1    0    0  501  502  0.00000000000E+00  0.00000000000E+00  0.35027144451E+02  0.35027144451E+02  0.00000000000E+00 0.  1.
         -3   -1    0    0    0  501 -0.00000000000E+00 -0.00000000000E+00 -0.73714535093E+02  0.73714535093E+02  0.00000000000E+00 0.  1.
         21    1    1    2  503  502 -0.58634362855E+01  0.25253138686E+02  0.27418341576E+02  0.37734153672E+02  0.00000000000E+00 0.  1.
         -3    1    1    2    0  503  0.58634362855E+01 -0.25253138686E+02 -0.66105732218E+02  0.71007525873E+02  0.00000000000E+00 0.  1.
<mgrwt>
<rscale>  2 0.25924909E+02</rscale>
<asrwt>0</asrwt>
<pdfrwt beam="1">  1       21 0.53887915E-02 0.25924909E+02</pdfrwt>
<pdfrwt beam="2">  1       -3 0.11340698E-01 0.25924909E+02</pdfrwt>
<totfact> 0.46034858E+05</totfact>
</mgrwt>
</event>
<event>
 4    1  0.2245608E+006  0.3783376E+02  0.7546771E-02  0.1524786E+00
         -1   -1    0    0    0  501 -0.00000000000E+00  0.00000000000E+00  0.34821913836E+01  0.34821913836E+01  0.00000000000E+00 0.  1.
         21   -1    0    0  501  502  0.00000000000E+00 -0.00000000000E+00 -0.46334467828E+03  0.46334467828E+03  0.00000000000E+00 0.  1.
         21    1    1    2  503  502  0.23027757859E+02 -0.30018585747E+02 -0.30833859188E+03  0.31065105885E+03  0.00000000000E+00 0.  1.
         -1    1    1    2    0  503 -0.23027757859E+02  0.30018585747E+02 -0.15152389502E+03  0.15617581082E+03  0.00000000000E+00 0.  1.
<mgrwt>
<rscale>  2 0.37833756E+02</rscale>
<asrwt>0</asrwt>
<pdfrwt beam="2">  1       21 0.71283721E-01 0.37833756E+02</pdfrwt>
<pdfrwt beam="1">  1       -1 0.53572232E-03 0.37833756E+02</pdfrwt>
<totfact> 0.58817716E+05</totfact>
</mgrwt>
</event>
<event>
 4    1  0.2245608E+006  0.2112304E+02  0.7546771E-02  0.1723875E+00
          2   -1    0    0  502    0 -0.00000000000E+00  0.00000000000E+00  0.15323796861E+04  0.15323796861E+04  0.00000000000E+00 0. -1.
         21   -1    0    0  503  502  0.00000000000E+00 -0.00000000000E+00 -0.83854619236E+00  0.83854619236E+00  0.00000000000E+00 0.  1.
         21    1    1    2  503  501  0.60322294157E+00 -0.21114423195E+02  0.14639581476E+03  0.14791185661E+03  0.00000000000E+00 0.  1.
          2    1    1    2  501    0 -0.60322294157E+00  0.21114423195E+02  0.13851453251E+04  0.13853063757E+04  0.00000000000E+00 0. -1.
<mgrwt>
<rscale>  2 0.21123038E+02</rscale>
<asrwt>0</asrwt>
<pdfrwt beam="2">  1       21 0.12900833E-03 0.21123038E+02</pdfrwt>
<pdfrwt beam="1">  1        2 0.23574848E+00 0.21123038E+02</pdfrwt>
<totfact> 0.10818772E+07</totfact>
</mgrwt>
</event>
<event>
 4    1  0.2245608E+006  0.3447178E+02  0.7546771E-02  0.1553342E+00
         21   -1    0    0  501  502  0.00000000000E+00  0.00000000000E+00  0.12386843825E+01  0.12386843825E+01  0.00000000000E+00 0. -1.
          2   -1    0    0  503    0 -0.00000000000E+00 -0.00000000000E+00 -0.96798262110E+03  0.96798262110E+03  0.00000000000E+00 0.  1.
         21    1    1    2  503  502  0.28441534165E+01  0.34354244033E+02 -0.52919775554E+03  0.53031930736E+03  0.00000000000E+00 0. -1.
          2    1    1    2  501    0 -0.28441534165E+01 -0.34354244033E+02 -0.43754618118E+03  0.43890199812E+03  0.00000000000E+00 0.  1.
<mgrwt>
<rscale>  2 0.34471775E+02</rscale>
<asrwt>0</asrwt>
<pdfrwt beam="1">  1       21 0.19056627E-03 0.34471775E+02</pdfrwt>
<pdfrwt beam="2">  1        2 0.14892084E+00 0.34471775E+02</pdfrwt>
<totfact> 0.13239896E+07</totfact>
</mgrwt>
</event>
<event>
 4    1  0.2245608E+006  0.2768632E+02  0.7546771E-02  0.1625168E+00
         21   -1    0    0  501  502  0.00000000000E+00  0.00000000000E+00  0.44605714152E+02  0.44605714152E+02  0.00000000000E+00 0. -1.
         -3   -1    0    0    0  501 -0.00000000000E+00 -0.00000000000E+00 -0.20237022978E+03  0.20237022978E+03  0.00000000000E+00 0. -1.
         21    1    1    2  503  502  0.25606041948E+02 -0.10529135751E+02  0.39246318034E+02  0.48029215725E+02  0.00000000000E+00 0. -1.
         -3    1    1    2    0  503 -0.25606041948E+02  0.10529135751E+02 -0.19701083366E+03  0.19894672821E+03  0.00000000000E+00 0. -1.
<mgrwt>
<rscale>  2 0.27686316E+02</rscale>
<asrwt>0</asrwt>
<pdfrwt beam="1">  1       21 0.68624174E-02 0.27686316E+02</pdfrwt>
<pdfrwt beam="2">  1       -3 0.31133882E-01 0.27686316E+02</pdfrwt>
<totfact> 0.58208407E+04</totfact>
</mgrwt>
</event>
<event>
 4    1  0.2245608E+006  0.2486787E+02  0.7546771E-02  0.1662907E+00
         21   -1    0    0  503  502  0.00000000000E+00  0.00000000000E+00  0.85627207061E+02  0.85627207061E+02  0.00000000000E+00 0.  1.
          2   -1    0    0  502    0 -0.00000000000E+00 -0.00000000000E+00 -0.26312410181E+03  0.26312410181E+03  0.00000000000E+00 0.  1.
         21    1    1    2  503  501 -0.21981212975E+02  0.11629145204E+02  0.83217458624E+02  0.86853647948E+02  0.00000000000E+00 0.  1.
          2    1    1    2  501    0  0.21981212975E+02 -0.11629145204E+02 -0.26071435337E+03  0.26189766092E+03  0.00000000000E+00 0.  1.
<mgrwt>
<rscale>  2 0.24867866E+02</rscale>
<asrwt>0</asrwt>
<pdfrwt beam="1">  1       21 0.13173417E-01 0.24867866E+02</pdfrwt>
<pdfrwt beam="2">  1        2 0.40480631E-01 0.24867866E+02</pdfrwt>
<totfact> 0.70705707E+04</totfact>
</mgrwt>
</event>
<event>
 4    1  0.2245608E+006  0.2582902E+02  0.7546771E-02  0.1649372E+00
         21   -1    0    0  503  502  0.00000000000E+00  0.00000000000E+00  0.37789418736E+01  0.37789418736E+01  0.00000000000E+00 0. -1.
         -2   -1    0    0    0  501 -0.00000000000E+00 -0.00000000000E+00 -0.42076756349E+03  0.42076756349E+03  0.00000000000E+00 0.  1.
         21    1    1    2  503  501 -0.40935058267E+01 -0.25502573172E+02 -0.46771741492E+02  0.53429709250E+02  0.00000000000E+00 0. -1.
         -2    1    1    2    0  502  0.40935058267E+01  0.25502573172E+02 -0.37021688012E+03  0.37111679611E+03  0.00000000000E+00 0.  1.
<mgrwt>
<rscale>  2 0.25829015E+02</rscale>
<asrwt>0</asrwt>
<pdfrwt beam="1">  1       21 0.58137538E-03 0.25829015E+02</pdfrwt>
<pdfrwt beam="2">  1       -2 0.64733504E-01 0.25829015E+02</pdfrwt>
<totfact> 0.11641351E+06</totfact>
</mgrwt>
</event>
<event>
 4    1  0.2245608E+006  0.3746099E+02  0.7546771E-02  0.1527773E+00
         21   -1    0    0  503  502  0.00000000000E+00  0.00000000000E+00  0.12229686253E+02  0.12229686253E+02  0.00000000000E+00 0.  1.
         -2   -1    0    0    0  501 -0.00000000000E+00 -0.00000000000E+00 -0.59663563562E+03  0.59663563562E+03  0.00000000000E+00 0. -1.
         21    1    1    2  503  501 -0.31119075283E+02  0.20854947642E+02 -0.18606955116E+02  0.41827556304E+02  0.00000000000E+00 0.  1.
         -2    1    1    2    0  502  0.31119075283E+02 -0.20854947642E+02 -0.56579899425E+03  0.56703776557E+03  0.00000000000E+00 0. -1.
<mgrwt>
<rscale>  2 0.37460989E+02</rscale>
<asrwt>0</asrwt>
<pdfrwt beam="1">  1       21 0.18814903E-02 0.37460989E+02</pdfrwt>
<pdfrwt beam="2">  1       -2 0.91790093E-01 0.37460989E+02</pdfrwt>
<totfact> 0.10038099E+05</totfact>
</mgrwt>
</event>
<event>
 4    1  0.2245608E+006  0.2575649E+02  0.7546771E-02  0.1650368E+00
         21   -1    0    0  503  502  0.00000000000E+00  0.00000000000E+00  0.53875573149E+03  0.53875573149E+03  0.00000000000E+00 0. -1.
         -1   -1    0    0    0  501 -0.00000000000E+00 -0.00000000000E+00 -0.18852384344E+02  0.18852384344E+02  0.00000000000E+00 0. -1.
         21    1    1    2  503  501  0.99928908247E+01  0.23738972826E+02  0.52949690354E+03  0.53012297399E+03  0.00000000000E+00 0. -1.
         -1    1    1    2    0  502 -0.99928908247E+01 -0.23738972826E+02 -0.95935563918E+01  0.27485141842E+02  0.00000000000E+00 0. -1.
<mgrwt>
<rscale>  2 0.25756488E+02</rscale>
<asrwt>0</asrwt>
<pdfrwt beam="1">  1       21 0.82885485E-01 0.25756488E+02</pdfrwt>
<pdfrwt beam="2">  1       -1 0.29003672E-02 0.25756488E+02</pdfrwt>
<totfact> 0.40486307E+04</totfact>
</mgrwt>
</event>
<event>
 4    1  0.2245608E+006  0.2401520E+02  0.7546771E-02  0.1675564E+00
          2   -1    0    0  502    0 -0.00000000000E+00  0.00000000000E+00  0.10175201422E+02  0.10175201422E+02  0.00000000000E+00 0. -1.
         21   -1    0    0  503  502  0.00000000000E+00 -0.00000000000E+00 -0.77132050621E+02  0.77132050621E+02  0.00000000000E+00 0.  1.
         21    1    1    2  503  501 -0.22035012384E+02 -0.95492357811E+01 -0.55957171027E+02  0.60892812911E+02  0.00000000000E+00 0.  1.
          2    1    1    2  501    0  0.22035012384E+02  0.95492357811E+01 -0.10999678172E+02  0.26414439132E+02  0.00000000000E+00 0. -1.
<mgrwt>
<rscale>  2 0.24015197E+02</rscale>
<asrwt>0</asrwt>
<pdfrwt beam="2">  1       21 0.11866469E-01 0.24015197E+02</pdfrwt>
<pdfrwt beam="1">  1        2 0.15654156E-02 0.24015197E+02</pdfrwt>
<totfact> 0.36898753E+06</totfact>
</mgrwt>
</event>
<event>
 4    1  0.2245608E+006  0.2130861E+02  0.7546771E-02  0.1720491E+00
         21   -1    0    0  501  502  0.00000000000E+00  0.00000000000E+00  0.10047561978E+03  0.10047561978E+03  0.00000000000E+00 0. -1.
          4   -1    0    0  503    0 -0.00000000000E+00 -0.00000000000E+00 -0.48409205232E+01  0.48409205232E+01  0.00000000000E+00 0. -1.
         21    1    1    2  503  502 -0.11405184043E+01 -0.21278068734E+02  0.34239672521E+02  0.40328800696E+02  0.00000000000E+00 0. -1.
          4    1    1    2  501    0  0.11405184043E+01  0.21278068734E+02  0.61395026731E+02  0.64987739602E+02  0.00000000000E+00 0. -1.
<mgrwt>
<rscale>  2 0.21308613E+02</rscale>
<asrwt>0</asrwt>
<pdfrwt beam="1">  1       21 0.15457786E-01 0.21308613E+02</pdfrwt>
<pdfrwt beam="2">  1        4 0.74475707E-03 0.21308613E+02</pdfrwt>
<totfact> 0.37045784E+06</totfact>
</mgrwt>
</event>
<event>
 4    1  0.2245608E+006  0.2256128E+02  0.7546771E-02  0.1698722E+00
          2   -1    0    0  503    0 -0.00000000000E+00  0.00000000000E+00  0.30308296562E+03  0.30308296562E+03  0.00000000000E+00 0. -1.
         21   -1    0    0  501  502  0.00000000000E+00 -0.00000000000E+00 -0.17584783851E+01  0.17584783851E+01  0.00000000000E+00 0. -1.
         21    1    1    2  503  502  0.11739680114E+02  0.19266326148E+02  0.11834914526E+03  0.12048041997E+03  0.00000000000E+00 0. -1.
          2    1    1    2  501    0 -0.11739680114E+02 -0.19266326148E+02  0.18297534197E+03  0.18436102403E+03  0.00000000000E+00 0. -1.
<mgrwt>
<rscale>  2 0.22561281E+02</rscale>
<asrwt>0</asrwt>
<pdfrwt beam="2">  1       21 0.27053538E-03 0.22561281E+02</pdfrwt>
<pdfrwt beam="1">  1        2 0.46628107E-01 0.22561281E+02</pdfrwt>
<totfact> 0.24421974E+07</totfact>
</mgrwt>
</event>
<event>
 4    1  0.2245608E+006  0.2637546E+02  0.7546771E-02  0.1641997E+00
          2   -1    0    0  503    0 -0.00000000000E+00  0.00000000000E+00  0.11774999095E+03  0.11774999095E+03  0.00000000000E+00 0.  1.
         21   -1    0    0  501  502  0.00000000000E+00 -0.00000000000E+00 -0.15998276764E+02  0.15998276764E+02  0.00000000000E+00 0.  1.
         21    1    1    2  503  502 -0.14615293486E+02  0.21955816156E+02 -0.22338031684E+01  0.26469879927E+02  0.00000000000E+00 0.  1.
          2    1    1    2  501    0  0.14615293486E+02 -0.21955816156E+02  0.10398551736E+03  0.10727838779E+03  0.00000000000E+00 0.  1.
<mgrwt>
<rscale>  2 0.26375456E+02</rscale>
<asrwt>0</asrwt>
<pdfrwt beam="2">  1       21 0.24612734E-02 0.26375456E+02</pdfrwt>
<pdfrwt beam="1">  1        2 0.18115383E-01 0.26375456E+02</pdfrwt>
<totfact> 0.24474416E+06</totfact>
</mgrwt>
</event>
<event>
 4    1  0.2245608E+006  0.2025741E+02  0.7546771E-02  0.1740257E+00
         -4   -1    0    0    0  501 -0.00000000000E+00  0.00000000000E+00  0.11362770857E+04  0.11362770857E+04  0.00000000000E+00 0. -1.
         21   -1    0    0  501  502  0.00000000000E+00 -0.00000000000E+00 -0.13470831871E+01  0.13470831871E+01  0.00000000000E+00 0.  1.
         21    1    1    2  503  502  0.18690497380E+02  0.78120441067E+01  0.80838143168E+02  0.83337675251E+02  0.00000000000E+00 0.  1.
         -4    1    1    2    0  503 -0.18690497380E+02 -0.78120441067E+01  0.10540918593E+04  0.10542864936E+04  0.00000000000E+00 0. -1.
<mgrwt>
<rscale>  2 0.20257412E+02</rscale>
<asrwt>0</asrwt>
<pdfrwt beam="2">  1       21 0.20724448E-03 0.20257412E+02</pdfrwt>
<pdfrwt beam="1">  1       -4 0.17481109E+00 0.20257412E+02</pdfrwt>
<totfact> 0.22559550E+05</totfact>
</mgrwt>
</event>
<event>
 4    1  0.2245608E+006  0.6004283E+02  0.7546771E-02  0.1397652E+00
          1   -1    0    0  503    0 -0.00000000000E+00  0.00000000000E+00  0.34084787404E+03  0.34084787404E+03  0.00000000000E+00 0.  1.
         21   -1    0    0  501  502  0.00000000000E+00 -0.00000000000E+00 -0.66376543395E+02  0.66376543395E+02  0.00000000000E+00 0.  1.
         21    1    1    2  503  502 -0.53154906751E+01  0.59807079282E+02 -0.49450398478E+02  0.77784851244E+02  0.00000000000E+00 0.  1.
          1    1    1    2  501    0  0.53154906751E+01 -0.59807079282E+02  0.32392172912E+03  0.32943956619E+03  0.00000000000E+00 0.  1.
<mgrwt>
<rscale>  2 0.60042828E+02</rscale>
<asrwt>0</asrwt>
<pdfrwt beam="2">  1       21 0.10211776E-01 0.60042828E+02</pdfrwt>
<pdfrwt beam="1">  1        1 0.52438134E-01 0.60042828E+02</pdfrwt>
<totfact> 0.61982134E+04</totfact>
</mgrwt>
</event>
<event>
 4    1  0.2245608E+006  0.3275899E+02  0.7546771E-02  0.1569452E+00
          2   -1    0    0  502    0 -0.00000000000E+00  0.00000000000E+00  0.53657385465E+03  0.53657385465E+03  0.00000000000E+00 0.  1.
         21   -1    0    0  503  502  0.00000000000E+00 -0.00000000000E+00 -0.22864074026E+02  0.22864074026E+02  0.00000000000E+00 0.  1.
         21    1    1    2  503  501 -0.17385655104E+02  0.27764916322E+02 -0.10350112568E+02  0.34355151170E+02  0.00000000000E+00 0.  1.
          2    1    1    2  501    0  0.17385655104E+02 -0.27764916322E+02  0.52405989319E+03  0.52508277751E+03  0.00000000000E+00 0.  1.
<mgrwt>
<rscale>  2 0.32758992E+02</rscale>
<asrwt>0</asrwt>
<pdfrwt beam="2">  1       21 0.35175503E-02 0.32758992E+02</pdfrwt>
<pdfrwt beam="1">  1        2 0.82549814E-01 0.32758992E+02</pdfrwt>
<totfact> 0.30745275E+05</totfact>
</mgrwt>
</event>
<event>
 4    1  0.2245608E+006  0.2239207E+02  0.7546771E-02  0.1701558E+00
          1   -1    0    0  502    0 -0.00000000000E+00  0.00000000000E+00  0.31816106311E+03  0.31816106311E+03  0.00000000000E+00 0.  1.
         21   -1    0    0  503  502  0.00000000000E+00 -0.00000000000E+00 -0.12895256945E+02  0.12895256945E+02  0.00000000000E+00 0. -1.
         21    1    1    2  503  501 -0.21987122642E+02  0.42392757848E+01 -0.24510492620E+01  0.22525822154E+02  0.00000000000E+00 0. -1.
          1    1    1    2  501    0  0.21987122642E+02 -0.42392757848E+01  0.30771685542E+03  0.30853049790E+03  0.00000000000E+00 0.  1.
<mgrwt>
<rscale>  2 0.22392075E+02</rscale>
<asrwt>0</asrwt>
<pdfrwt beam="2">  1       21 0.19838859E-02 0.22392075E+02</pdfrwt>
<pdfrwt beam="1">  1        1 0.48947850E-01 0.22392075E+02</pdfrwt>
<totfact> 0.84805494E+05</totfact>
</mgrwt>
</event>
<event>
 4    1  0.2245608E+006  0.2040017E+02  0.7546771E-02  0.1737485E+00
          1   -1    0    0  502    0 -0.00000000000E+00  0.00000000000E+00  0.23380844965E+03  0.23380844965E+03  0.00000000000E+00 0. -1.
         21   -1    0    0  503  502  0.00000000000E+00 -0.00000000000E+00 -0.35293757742E+02  0.35293757742E+02  0.00000000000E+00 0.  1.
         21    1    1    2  503  501 -0.12017344209E+02  0.16484850691E+02 -0.31857000579E+02  0.37829027876E+02  0.00000000000E+00 0.  1.
          1    1    1    2  501    0  0.12017344209E+02 -0.16484850691E+02  0.23037169249E+03  0.23127317952E+03  0.00000000000E+00 0. -1.
<mgrwt>
<rscale>  2 0.20400168E+02</rscale>
<asrwt>0</asrwt>
<pdfrwt beam="2">  1       21 0.54298090E-02 0.20400168E+02</pdfrwt>
<pdfrwt beam="1">  1        1 0.35970530E-01 0.20400168E+02</pdfrwt>
<totfact> 0.24722958E+05</totfact>
</mgrwt>
</event>
<event>
 4    1  0.2245608E+006  0.2984599E+02  0.7546771E-02  0.1599797E+00
          4   -1    0    0  503    0 -0.00000000000E+00  0.00000000000E+00  0.18358709311E+01  0.18358709311E+01  0.00000000000E+00 0.  1.
         21   -1    0    0  501  502  0.00000000000E+00 -0.00000000000E+00 -0.75289041697E+03  0.75289041697E+03  0.00000000000E+00 0.  1.
         21    1    1    2  503  502  0.25336525374E+02  0.15774776731E+02 -0.60053727539E+03  0.60127847312E+03  0.00000000000E+00 0.  1.
          4    1    1    2  501    0 -0.25336525374E+02 -0.15774776731E+02 -0.15051727064E+03  0.15344781478E+03  0.00000000000E+00 0.  1.
<mgrwt>
<rscale>  2 0.29845990E+02</rscale>
<asrwt>0</asrwt>
<pdfrwt beam="2">  1       21 0.11582905E+00 0.29845990E+02</pdfrwt>
<pdfrwt beam="1">  1        4 0.28244227E-03 0.29845990E+02</pdfrwt>
<totfact> 0.33762828E+05</totfact>
</mgrwt>
</event>
<event>
 4    1  0.2245608E+006  0.3137754E+02  0.7546771E-02  0.1583343E+00
         21   -1    0    0  503  502  0.00000000000E+00  0.00000000000E+00  0.81079693039E+01  0.81079693039E+01  0.00000000000E+00 0. -1.
         -1   -1    0    0    0  501 -0.00000000000E+00 -0.00000000000E+00 -0.83073569594E+03  0.83073569594E+03  0.00000000000E+00 0. -1.
         21    1    1    2  503  501 -0.25261474119E+02  0.18612037728E+02 -0.23756183556E+02  0.39356146663E+02  0.00000000000E+00 0. -1.
         -1    1    1    2    0  502  0.25261474119E+02 -0.18612037728E+02 -0.79887154308E+03  0.79948751858E+03  0.00000000000E+00 0. -1.
<mgrwt>
<rscale>  2 0.31377540E+02</rscale>
<asrwt>0</asrwt>
<pdfrwt beam="1">  1       21 0.12473800E-02 0.31377540E+02</pdfrwt>
<pdfrwt beam="2">  1       -1 0.12780548E+00 0.31377540E+02</pdfrwt>
<totfact> 0.12255678E+05</totfact>
</mgrwt>
</event>
<event>
 4    1  0.2245608E+006  0.2408823E+02  0.7546771E-02  0.1674454E+00
          1   -1    0    0  503    0 -0.00000000000E+00  0.00000000000E+00  0.66618302775E+02  0.66618302775E+02  0.00000000000E+00 0.  1.
         21   -1    0    0  501  502  0.00000000000E+00 -0.00000000000E+00 -0.11615886073E+02  0.11615886073E+02  0.00000000000E+00 0.  1.
         21    1    1    2  503  502 -0.10328455872E+02  0.21761569654E+02  0.79360883728E+01  0.25361869276E+02  0.00000000000E+00 0.  1.
          1    1    1    2  501    0  0.10328455872E+02 -0.21761569654E+02  0.47066328330E+02  0.52872319572E+02  0.00000000000E+00 0.  1.
<mgrwt>
<rscale>  2 0.24088232E+02</rscale>
<asrwt>0</asrwt>
<pdfrwt beam="2">  1       21 0.17870594E-02 0.24088232E+02</pdfrwt>
<pdfrwt beam="1">  1        1 0.10248969E-01 0.24088232E+02</pdfrwt>
<totfact> 0.64874707E+06</totfact>
</mgrwt>
</event>
<event>
 4    1  0.2245608E+006  0.3143371E+02  0.7546771E-02  0.1582761E+00
          4   -1    0    0  503    0 -0.00000000000E+00  0.00000000000E+00  0.11719475851E+03  0.11719475851E+03  0.00000000000E+00 0.  1.
         21   -1    0    0  501  502  0.00000000000E+00 -0.00000000000E+00 -0.63859698343E+02  0.63859698343E+02  0.00000000000E+00 0. -1.
         21    1    1    2  503  502 -0.19502806475E+02  0.24651955709E+02 -0.57672319010E+02  0.65682377855E+02  0.00000000000E+00 0. -1.
          4    1    1    2  501    0  0.19502806475E+02 -0.24651955709E+02  0.11100737918E+03  0.11537207900E+03  0.00000000000E+00 0.  1.
<mgrwt>
<rscale>  2 0.31433714E+02</rscale>
<asrwt>0</asrwt>
<pdfrwt beam="2">  1       21 0.98245690E-02 0.31433714E+02</pdfrwt>
<pdfrwt beam="1">  1        4 0.18029963E-01 0.31433714E+02</pdfrwt>
<totfact> 0.69281673E+04</totfact>
</mgrwt>
</event>
<event>
 4    1  0.2245608E+006  0.2192590E+02  0.7546771E-02  0.1709537E+00
          1   -1    0    0  502    0 -0.00000000000E+00  0.00000000000E+00  0.40896180828E+02  0.40896180828E+02  0.00000000000E+00 0.  1.
         21   -1    0    0  503  502  0.00000000000E+00 -0.00000000000E+00 -0.17631977874E+02  0.17631977874E+02  0.00000000000E+00 0.  1.
         21    1    1    2  503  501  0.16422773161E+02  0.14527141123E+02 -0.52626461374E+01  0.22548630820E+02  0.00000000000E+00 0.  1.
          1    1    1    2  501    0 -0.16422773161E+02 -0.14527141123E+02  0.28526849091E+02  0.35979527882E+02  0.00000000000E+00 0.  1.
<mgrwt>
<rscale>  2 0.21925905E+02</rscale>
<asrwt>0</asrwt>
<pdfrwt beam="2">  1       21 0.27126120E-02 0.21925905E+02</pdfrwt>
<pdfrwt beam="1">  1        1 0.62917201E-02 0.21925905E+02</pdfrwt>
<totfact> 0.61320363E+06</totfact>
</mgrwt>
</event>
<event>
 4    1  0.2245608E+006  0.2099241E+02  0.7546771E-02  0.1726284E+00
         21   -1    0    0  501  502  0.00000000000E+00  0.00000000000E+00  0.41743530712E+01  0.41743530712E+01  0.00000000000E+00 0.  1.
         -1   -1    0    0    0  501 -0.00000000000E+00 -0.00000000000E+00 -0.10617492135E+04  0.10617492135E+04  0.00000000000E+00 0. -1.
         21    1    1    2  503  502  0.15840788583E+02  0.13775008237E+02 -0.23015157741E+02  0.31150905616E+02  0.00000000000E+00 0.  1.
         -1    1    1    2    0  503 -0.15840788583E+02 -0.13775008237E+02 -0.10345597027E+04  0.10347726609E+04  0.00000000000E+00 0. -1.
<mgrwt>
<rscale>  2 0.20992414E+02</rscale>
<asrwt>0</asrwt>
<pdfrwt beam="1">  1       21 0.64220805E-03 0.20992414E+02</pdfrwt>
<pdfrwt beam="2">  1       -1 0.16334606E+00 0.20992414E+02</pdfrwt>
<totfact> 0.17217426E+05</totfact>
</mgrwt>
</event>
<event>
 4    1  0.2245608E+006  0.2276201E+02  0.7546771E-02  0.1695397E+00
          2   -1    0    0  503    0 -0.00000000000E+00  0.00000000000E+00  0.57999018117E+02  0.57999018117E+02  0.00000000000E+00 0. -1.
         21   -1    0    0  501  502  0.00000000000E+00 -0.00000000000E+00 -0.15282826101E+02  0.15282826101E+02  0.00000000000E+00 0. -1.
         21    1    1    2  503  502  0.21742149289E+02 -0.67370516649E+01 -0.22599137592E+01  0.22873918139E+02  0.00000000000E+00 0. -1.
          2    1    1    2  501    0 -0.21742149289E+02  0.67370516649E+01  0.44976105776E+02  0.50407926079E+02  0.00000000000E+00 0. -1.
<mgrwt>
<rscale>  2 0.22762006E+02</rscale>
<asrwt>0</asrwt>
<pdfrwt beam="2">  1       21 0.23512041E-02 0.22762006E+02</pdfrwt>
<pdfrwt beam="1">  1        2 0.89229257E-02 0.22762006E+02</pdfrwt>
<totfact> 0.56033230E+06</totfact>
</mgrwt>
</event>
<event>
 4    1  0.2245608E+006  0.3068431E+02  0.7546771E-02  0.1590645E+00
          1   -1    0    0  502    0 -0.00000000000E+00  0.00000000000E+00  0.96192030968E+03  0.96192030968E+03  0.00000000000E+00 0.  1.
         21   -1    0    0  503  502  0.00000000000E+00 -0.00000000000E+00 -0.39635170083E+01  0.39635170083E+01  0.00000000000E+00 0.  1.
         21    1    1    2  503  501  0.23274541433E+02 -0.19995569289E+02  0.59889498982E+02  0.67292489614E+02  0.00000000000E+00 0.  1.
          1    1    1    2  501    0 -0.23274541433E+02  0.19995569289E+02  0.89806729369E+03  0.89859133708E+03  0.00000000000E+00 0.  1.
<mgrwt>
<rscale>  2 0.30684313E+02</rscale>
<asrwt>0</asrwt>
<pdfrwt beam="2">  1       21 0.60977261E-03 0.30684313E+02</pdfrwt>
<pdfrwt beam="1">  1        1 0.14798755E+00 0.30684313E+02</pdfrwt>
<totfact> 0.13069277E+06</totfact>
</mgrwt>
</event>
<event>
 4    1  0.2245608E+006  0.3814225E+02  0.7546771E-02  0.1522345E+00
          2   -1    0    0  502    0 -0.00000000000E+00  0.00000000000E+00  0.78436367161E+03  0.78436367161E+03  0.00000000000E+00 0.  1.
         21   -1    0    0  503  502  0.00000000000E+00 -0.00000000000E+00 -0.33052997423E+01  0.33052997423E+01  0.00000000000E+00 0.  1.
         21    1    1    2  503  501 -0.33067924378E+02 -0.19009044120E+02  0.12963262258E+03  0.13512752576E+03  0.00000000000E+00 0.  1.
          2    1    1    2  501    0  0.33067924378E+02  0.19009044120E+02  0.65142574929E+03  0.65254144560E+03  0.00000000000E+00 0.  1.
<mgrwt>
<rscale>  2 0.38142252E+02</rscale>
<asrwt>0</asrwt>
<pdfrwt beam="2">  1       21 0.50850828E-03 0.38142252E+02</pdfrwt>
<pdfrwt beam="1">  1        2 0.12067119E+00 0.38142252E+02</pdfrwt>
<totfact> 0.40737695E+06</totfact>
</mgrwt>
</event>
<event>
 4    1  0.2245608E+006  0.2149406E+02  0.7546771E-02  0.1717152E+00
          2   -1    0    0  502    0 -0.00000000000E+00  0.00000000000E+00  0.12475623684E+04  0.12475623684E+04  0.00000000000E+00 0.  1.
         21   -1    0    0  503  502  0.00000000000E+00 -0.00000000000E+00 -0.75856917737E+00  0.75856917737E+00  0.00000000000E+00 0.  1.
         21    1    1    2  503  501  0.59595872945E+01  0.20651342118E+02  0.17686727654E+03  0.17816853853E+03  0.00000000000E+00 0.  1.
          2    1    1    2  501    0 -0.59595872945E+01 -0.20651342118E+02  0.10699365227E+04  0.10701523991E+04  0.00000000000E+00 0.  1.
<mgrwt>
<rscale>  2 0.21494060E+02</rscale>
<asrwt>0</asrwt>
<pdfrwt beam="2">  1       21 0.11670395E-03 0.21494060E+02</pdfrwt>
<pdfrwt beam="1">  1        2 0.19193103E+00 0.21494060E+02</pdfrwt>
<totfact> 0.17146957E+07</totfact>
</mgrwt>
</event>
<event>
 4    1  0.2245608E+006  0.2167872E+02  0.7546771E-02  0.1713868E+00
         21   -1    0    0  501  502  0.00000000000E+00  0.00000000000E+00  0.45474312885E+00  0.45474312885E+00  0.00000000000E+00 0.  1.
          1   -1    0    0  503    0 -0.00000000000E+00 -0.00000000000E+00 -0.13047373761E+04  0.13047373761E+04  0.00000000000E+00 0. -1.
         21    1    1    2  503  502  0.14238782841E+02  0.16346990609E+02 -0.35458084344E+03  0.35524293317E+03  0.00000000000E+00 0.  1.
          1    1    1    2  501    0 -0.14238782841E+02 -0.16346990609E+02 -0.94970178956E+03  0.94994918608E+03  0.00000000000E+00 0. -1.
<mgrwt>
<rscale>  2 0.21678723E+02</rscale>
<asrwt>0</asrwt>
<pdfrwt beam="1">  1       21 0.69961400E-04 0.21678723E+02</pdfrwt>
<pdfrwt beam="2">  1        1 0.20072619E+00 0.21678723E+02</pdfrwt>
<totfact> 0.16908962E+07</totfact>
</mgrwt>
</event>
<event>
 4    1  0.2245608E+006  0.2528519E+02  0.7546771E-02  0.1656939E+00
         21   -1    0    0  501  502  0.00000000000E+00  0.00000000000E+00  0.57220120561E+03  0.57220120561E+03  0.00000000000E+00 0.  1.
          3   -1    0    0  503    0 -0.00000000000E+00 -0.00000000000E+00 -0.15407416689E+01  0.15407416689E+01  0.00000000000E+00 0.  1.
         21    1    1    2  503  502 -0.12795725665E+02  0.21808491748E+02  0.43571370694E+03  0.43644676115E+03  0.00000000000E+00 0.  1.
          3    1    1    2  501    0  0.12795725665E+02 -0.21808491748E+02  0.13494675700E+03  0.13729518613E+03  0.00000000000E+00 0.  1.
<mgrwt>
<rscale>  2 0.25285191E+02</rscale>
<asrwt>0</asrwt>
<pdfrwt beam="1">  1       21 0.88030786E-01 0.25285191E+02</pdfrwt>
<pdfrwt beam="2">  1        3 0.23703764E-03 0.25285191E+02</pdfrwt>
<totfact> 0.85779353E+05</totfact>
</mgrwt>
</event>
<event>
 4    1  0.2245608E+006  0.2045493E+02  0.7546771E-02  0.1736430E+00
         21   -1    0    0  501  502  0.00000000000E+00  0.00000000000E+00  0.11718035155E+01  0.11718035155E+01  0.00000000000E+00 0.  1.
          4   -1    0    0  503    0 -0.00000000000E+00 -0.00000000000E+00 -0.44937144003E+03  0.44937144003E+03  0.00000000000E+00 0.  1.
         21    1    1    2  503  502 -0.30424250574E+00 -0.20452670681E+02 -0.12199852633E+03  0.12370143381E+03  0.00000000000E+00 0.  1.
          4    1    1    2  501    0  0.30424250574E+00  0.20452670681E+02 -0.32620111019E+03  0.32684180974E+03  0.00000000000E+00 0.  1.
<mgrwt>
<rscale>  2 0.20454933E+02</rscale>
<asrwt>0</asrwt>
<pdfrwt beam="1">  1       21 0.18027741E-03 0.20454933E+02</pdfrwt>
<pdfrwt beam="2">  1        4 0.69134089E-01 0.20454933E+02</pdfrwt>
<totfact> 0.21941896E+06</totfact>
</mgrwt>
</event>
<event>
 4    1  0.2245608E+006  0.2359547E+02  0.7546771E-02  0.1682036E+00
         21   -1    0    0  501  502  0.00000000000E+00  0.00000000000E+00  0.11500826309E+02  0.11500826309E+02  0.00000000000E+00 0.  1.
          2   -1    0    0  503    0 -0.00000000000E+00 -0.00000000000E+00 -0.50001171808E+02  0.50001171808E+02  0.00000000000E+00 0.  1.
         21    1    1    2  503  502 -0.20313559509E+02  0.12004396176E+02 -0.13763213099E+02  0.27316153871E+02  0.00000000000E+00 0.  1.
          2    1    1    2  501    0  0.20313559509E+02 -0.12004396176E+02 -0.24737132400E+02  0.34185844246E+02  0.00000000000E+00 0.  1.
<mgrwt>
<rscale>  2 0.23595470E+02</rscale>
<asrwt>0</asrwt>
<pdfrwt beam="1">  1       21 0.17693579E-02 0.23595470E+02</pdfrwt>
<pdfrwt beam="2">  1        2 0.76924880E-02 0.23595470E+02</pdfrwt>
<totfact> 0.10428738E+07</totfact>
</mgrwt>
</event>
<event>
 4    1  0.2245608E+006  0.2716559E+02  0.7546771E-02  0.1631713E+00
         21   -1    0    0  503  502  0.00000000000E+00  0.00000000000E+00  0.21684479478E+02  0.21684479478E+02  0.00000000000E+00 0. -1.
         -2   -1    0    0    0  501 -0.00000000000E+00 -0.00000000000E+00 -0.68858756047E+02  0.68858756047E+02  0.00000000000E+00 0.  1.
         21    1    1    2  503  501  0.23418540590E+02 -0.13767401042E+02  0.86088698432E+01  0.28497052738E+02  0.00000000000E+00 0. -1.
         -2    1    1    2    0  502 -0.23418540590E+02  0.13767401042E+02 -0.55783146412E+02  0.62046182787E+02  0.00000000000E+00 0.  1.
<mgrwt>
<rscale>  2 0.27165592E+02</rscale>
<asrwt>0</asrwt>
<pdfrwt beam="1">  1       21 0.33360738E-02 0.27165592E+02</pdfrwt>
<pdfrwt beam="2">  1       -2 0.10593655E-01 0.27165592E+02</pdfrwt>
<totfact> 0.18139575E+06</totfact>
</mgrwt>
</event>
<event>
 4    1  0.2245608E+006  0.2217396E+02  0.7546771E-02  0.1705261E+00
         21   -1    0    0  501  502  0.00000000000E+00  0.00000000000E+00  0.47944254381E+02  0.47944254381E+02  0.00000000000E+00 0. -1.
          1   -1    0    0  503    0 -0.00000000000E+00 -0.00000000000E+00 -0.10839589654E+02  0.10839589654E+02  0.00000000000E+00 0. -1.
         21    1    1    2  503  502  0.15490387292E+02 -0.15866073795E+02  0.25376074531E+02  0.33699103174E+02  0.00000000000E+00 0. -1.
          1    1    1    2  501    0 -0.15490387292E+02  0.15866073795E+02  0.11728590196E+02  0.25084740862E+02  0.00000000000E+00 0. -1.
<mgrwt>
<rscale>  2 0.22173958E+02</rscale>
<asrwt>0</asrwt>
<pdfrwt beam="1">  1       21 0.73760390E-02 0.22173958E+02</pdfrwt>
<pdfrwt beam="2">  1        1 0.16676292E-02 0.22173958E+02</pdfrwt>
<totfact> 0.70518983E+06</totfact>
</mgrwt>
</event>
<event>
 4    1  0.2245608E+006  0.2103069E+02  0.7546771E-02  0.1725576E+00
         21   -1    0    0  503  502  0.00000000000E+00  0.00000000000E+00  0.30123645636E+01  0.30123645636E+01  0.00000000000E+00 0.  1.
          2   -1    0    0  502    0 -0.00000000000E+00 -0.00000000000E+00 -0.49477392010E+03  0.49477392010E+03  0.00000000000E+00 0.  1.
         21    1    1    2  503  501 -0.19091615716E+02 -0.88204469996E+01 -0.37159199418E+02  0.42697730353E+02  0.00000000000E+00 0.  1.
          2    1    1    2  501    0  0.19091615716E+02  0.88204469996E+01 -0.45460235612E+03  0.45508855431E+03  0.00000000000E+00 0.  1.
<mgrwt>
<rscale>  2 0.21030694E+02</rscale>
<asrwt>0</asrwt>
<pdfrwt beam="1">  1       21 0.46344110E-03 0.21030694E+02</pdfrwt>
<pdfrwt beam="2">  1        2 0.76118999E-01 0.21030694E+02</pdfrwt>
<totfact> 0.67214817E+06</totfact>
</mgrwt>
</event>
<event>
 4    1  0.2245608E+006  0.4058582E+02  0.7546771E-02  0.1503944E+00
         21   -1    0    0  501  502  0.00000000000E+00  0.00000000000E+00  0.51875035301E+01  0.51875035301E+01  0.00000000000E+00 0. -1.
          1   -1    0    0  503    0 -0.00000000000E+00 -0.00000000000E+00 -0.83597571761E+03  0.83597571761E+03  0.00000000000E+00 0.  1.
         21    1    1    2  503  502 -0.23756947142E+02 -0.32906173494E+02 -0.84184126560E+02  0.93456813322E+02  0.00000000000E+00 0. -1.
          1    1    1    2  501    0  0.23756947142E+02  0.32906173494E+02 -0.74660408752E+03  0.74770640782E+03  0.00000000000E+00 0.  1.
<mgrwt>
<rscale>  2 0.40585820E+02</rscale>
<asrwt>0</asrwt>
<pdfrwt beam="1">  1       21 0.79807735E-03 0.40585820E+02</pdfrwt>
<pdfrwt beam="2">  1        1 0.12861167E+00 0.40585820E+02</pdfrwt>
<totfact> 0.11180535E+06</totfact>
</mgrwt>
</event>
<event>
 4    1  0.2245608E+006  0.2007192E+02  0.7546771E-02  0.1743902E+00
         21   -1    0    0  501  502  0.00000000000E+00  0.00000000000E+00  0.17462028884E+02  0.17462028884E+02  0.00000000000E+00 0. -1.
          4   -1    0    0  503    0 -0.00000000000E+00 -0.00000000000E+00 -0.68364453111E+02  0.68364453111E+02  0.00000000000E+00 0. -1.
         21    1    1    2  503  502 -0.97936573554E+01  0.17520451966E+02  0.94780656598E+01  0.22197200052E+02  0.00000000000E+00 0. -1.
          4    1    1    2  501    0  0.97936573554E+01 -0.17520451966E+02 -0.60380489888E+02  0.63629281943E+02  0.00000000000E+00 0. -1.
<mgrwt>
<rscale>  2 0.20071920E+02</rscale>
<asrwt>0</asrwt>
<pdfrwt beam="1">  1       21 0.26864660E-02 0.20071920E+02</pdfrwt>
<pdfrwt beam="2">  1        4 0.10517608E-01 0.20071920E+02</pdfrwt>
<totfact> 0.11508880E+06</totfact>
</mgrwt>
</event>
<event>
 4    1  0.2245608E+006  0.4333051E+02  0.7546771E-02  0.1485041E+00
         -2   -1    0    0    0  501 -0.00000000000E+00  0.00000000000E+00  0.88958046338E+01  0.88958046338E+01  0.00000000000E+00 0. -1.
         21   -1    0    0  503  502  0.00000000000E+00 -0.00000000000E+00 -0.21127831351E+03  0.21127831351E+03  0.00000000000E+00 0. -1.
         21    1    1    2  503  501  0.33016853809E+02  0.28061011662E+02 -0.10474410543E+03  0.11335281485E+03  0.00000000000E+00 0. -1.
         -2    1    1    2    0  502 -0.33016853809E+02 -0.28061011662E+02 -0.97638403442E+02  0.10682130330E+03  0.00000000000E+00 0. -1.
<mgrwt>
<rscale>  2 0.43330509E+02</rscale>
<asrwt>0</asrwt>
<pdfrwt beam="2">  1       21 0.32504357E-01 0.43330509E+02</pdfrwt>
<pdfrwt beam="1">  1       -2 0.13685853E-02 0.43330509E+02</pdfrwt>
<totfact> 0.78111581E+05</totfact>
</mgrwt>
</event>
<event>
 4    1  0.2245608E+006  0.3507113E+02  0.7546771E-02  0.1547970E+00
          1   -1    0    0  503    0 -0.00000000000E+00  0.00000000000E+00  0.37785167017E+02  0.37785167017E+02  0.00000000000E+00 0. -1.
         21   -1    0    0  501  502  0.00000000000E+00 -0.00000000000E+00 -0.32976488148E+02  0.32976488148E+02  0.00000000000E+00 0. -1.
         21    1    1    2  503  502 -0.30220702988E+01  0.34940684769E+02 -0.16096557711E+01  0.35108052534E+02  0.00000000000E+00 0. -1.
          1    1    1    2  501    0  0.30220702988E+01 -0.34940684769E+02  0.64183346400E+01  0.35653602631E+02  0.00000000000E+00 0. -1.
<mgrwt>
<rscale>  2 0.35071133E+02</rscale>
<asrwt>0</asrwt>
<pdfrwt beam="2">  1       21 0.50733059E-02 0.35071133E+02</pdfrwt>
<pdfrwt beam="1">  1        1 0.58131026E-02 0.35071133E+02</pdfrwt>
<totfact> 0.28409238E+06</totfact>
</mgrwt>
</event>
<event>
 4    1  0.2245608E+006  0.2008026E+02  0.7546771E-02  0.1743737E+00
          2   -1    0    0  503    0 -0.00000000000E+00  0.00000000000E+00  0.81257186777E+02  0.81257186777E+02  0.00000000000E+00 0. -1.
         21   -1    0    0  501  502  0.00000000000E+00 -0.00000000000E+00 -0.67529530042E+01  0.67529530042E+01  0.00000000000E+00 0.  1.
         21    1    1    2  503  502  0.39766656914E+01 -0.19682556655E+02  0.14591591573E+02  0.24821995309E+02  0.00000000000E+00 0.  1.
          2    1    1    2  501    0 -0.39766656914E+01  0.19682556655E+02  0.59912642200E+02  0.63188144473E+02  0.00000000000E+00 0. -1.
<mgrwt>
<rscale>  2 0.20080262E+02</rscale>
<asrwt>0</asrwt>
<pdfrwt beam="2">  1       21 0.10389159E-02 0.20080262E+02</pdfrwt>
<pdfrwt beam="1">  1        2 0.12501105E-01 0.20080262E+02</pdfrwt>
<totfact> 0.12703935E+07</totfact>
</mgrwt>
</event>
<event>
 4    1  0.2245608E+006  0.2646881E+02  0.7546771E-02  0.1640759E+00
         21   -1    0    0  503  502  0.00000000000E+00  0.00000000000E+00  0.15300083323E+03  0.15300083323E+03  0.00000000000E+00 0. -1.
          1   -1    0    0  502    0 -0.00000000000E+00 -0.00000000000E+00 -0.13085022877E+03  0.13085022877E+03  0.00000000000E+00 0. -1.
         21    1    1    2  503  501  0.26468369887E+02  0.15287987532E+00  0.15049540788E+03  0.15280531983E+03  0.00000000000E+00 0. -1.
          1    1    1    2  501    0 -0.26468369887E+02 -0.15287987532E+00 -0.12834480341E+03  0.13104574217E+03  0.00000000000E+00 0. -1.
<mgrwt>
<rscale>  2 0.26468811E+02</rscale>
<asrwt>0</asrwt>
<pdfrwt beam="1">  1       21 0.23538590E-01 0.26468811E+02</pdfrwt>
<pdfrwt beam="2">  1        1 0.20130804E-01 0.26468811E+02</pdfrwt>
<totfact> 0.43144829E+04</totfact>
</mgrwt>
</event>
<event>
 4    1  0.2245608E+006  0.2183134E+02  0.7546771E-02  0.1711185E+00
          1   -1    0    0  503    0 -0.00000000000E+00  0.00000000000E+00  0.29245069824E+03  0.29245069824E+03  0.00000000000E+00 0. -1.
         21   -1    0    0  501  502  0.00000000000E+00 -0.00000000000E+00 -0.37827676779E+01  0.37827676779E+01  0.00000000000E+00 0.  1.
         21    1    1    2  503  502 -0.37928041938E+01 -0.21499351324E+02  0.32589007916E+02  0.39225640950E+02  0.00000000000E+00 0.  1.
          1    1    1    2  501    0  0.37928041938E+01  0.21499351324E+02  0.25607892265E+03  0.25700782497E+03  0.00000000000E+00 0. -1.
<mgrwt>
<rscale>  2 0.21831341E+02</rscale>
<asrwt>0</asrwt>
<pdfrwt beam="2">  1       21 0.58196449E-03 0.21831341E+02</pdfrwt>
<pdfrwt beam="1">  1        1 0.44992397E-01 0.21831341E+02</pdfrwt>
<totfact> 0.58722845E+06</totfact>
</mgrwt>
</event>
<event>
 4    1  0.2245608E+006  0.3267188E+02  0.7546771E-02  0.1570303E+00
          1   -1    0    0  503    0 -0.00000000000E+00  0.00000000000E+00  0.17038743003E+04  0.17038743003E+04  0.00000000000E+00 0.  1.
         21   -1    0    0  501  502  0.00000000000E+00 -0.00000000000E+00 -0.15192052910E+01  0.15192052910E+01  0.00000000000E+00 0. -1.
         21    1    1    2  503  502  0.19031238977E+02 -0.26556800218E+02  0.19752933253E+03  0.20021310872E+03  0.00000000000E+00 0. -1.
          1    1    1    2  501    0 -0.19031238977E+02  0.26556800218E+02  0.15048257624E+04  0.15051803968E+04  0.00000000000E+00 0.  1.
<mgrwt>
<rscale>  2 0.32671879E+02</rscale>
<asrwt>0</asrwt>
<pdfrwt beam="2">  1       21 0.23372525E-03 0.32671879E+02</pdfrwt>
<pdfrwt beam="1">  1        1 0.26213298E+00 0.32671879E+02</pdfrwt>
<totfact> 0.18568359E+06</totfact>
</mgrwt>
</event>
<event>
 4    1  0.2245608E+006  0.2015854E+02  0.7546771E-02  0.1742194E+00
          2   -1    0    0  503    0 -0.00000000000E+00  0.00000000000E+00  0.56347617599E+02  0.56347617599E+02  0.00000000000E+00 0. -1.
         21   -1    0    0  501  502  0.00000000000E+00 -0.00000000000E+00 -0.64020928827E+02  0.64020928827E+02  0.00000000000E+00 0. -1.
         21    1    1    2  503  502  0.50105000203E+01  0.19525920194E+02 -0.60529881958E+02  0.63798379915E+02  0.00000000000E+00 0. -1.
          2    1    1    2  501    0 -0.50105000203E+01 -0.19525920194E+02  0.52856570730E+02  0.56570166512E+02  0.00000000000E+00 0. -1.
<mgrwt>
<rscale>  2 0.20158538E+02</rscale>
<asrwt>0</asrwt>
<pdfrwt beam="2">  1       21 0.98493736E-02 0.20158538E+02</pdfrwt>
<pdfrwt beam="1">  1        2 0.86688643E-02 0.20158538E+02</pdfrwt>
<totfact> 0.57937603E+05</totfact>
</mgrwt>
</event>
<event>
 4    1  0.2245608E+006  0.2398645E+02  0.7546771E-02  0.1676002E+00
         21   -1    0    0  501  502  0.00000000000E+00  0.00000000000E+00  0.11105120155E+03  0.11105120155E+03  0.00000000000E+00 0. -1.
         -3   -1    0    0    0  501 -0.00000000000E+00 -0.00000000000E+00 -0.55133603896E+02  0.55133603896E+02  0.00000000000E+00 0. -1.
         21    1    1    2  503  502 -0.23954071726E+02 -0.12459168159E+01  0.10705077802E+03  0.10970514544E+03  0.00000000000E+00 0. -1.
         -3    1    1    2    0  503  0.23954071726E+02  0.12459168159E+01 -0.51133180363E+02  0.56479660011E+02  0.00000000000E+00 0. -1.
<mgrwt>
<rscale>  2 0.23986452E+02</rscale>
<asrwt>0</asrwt>
<pdfrwt beam="1">  1       21 0.17084800E-01 0.23986452E+02</pdfrwt>
<pdfrwt beam="2">  1       -3 0.84820929E-02 0.23986452E+02</pdfrwt>
<totfact> 0.10500516E+05</totfact>
</mgrwt>
</event>
<event>
 4    1  0.2245608E+006  0.2694292E+02  0.7546771E-02  0.1634567E+00
          2   -1    0    0  503    0 -0.00000000000E+00  0.00000000000E+00  0.14372654448E+04  0.14372654448E+04  0.00000000000E+00 0. -1.
         21   -1    0    0  501  502  0.00000000000E+00 -0.00000000000E+00 -0.53793777444E+01  0.53793777444E+01  0.00000000000E+00 0.  1.
         21    1    1    2  503  502  0.15503999347E+02 -0.22035133102E+02  0.29317683761E+02  0.39817680340E+02  0.00000000000E+00 0.  1.
          2    1    1    2  501    0 -0.15503999347E+02  0.22035133102E+02  0.14025683833E+04  0.14028271422E+04  0.00000000000E+00 0. -1.
<mgrwt>
<rscale>  2 0.26942923E+02</rscale>
<asrwt>0</asrwt>
<pdfrwt beam="2">  1       21 0.82759772E-03 0.26942923E+02</pdfrwt>
<pdfrwt beam="1">  1        2 0.22111745E+00 0.26942923E+02</pdfrwt>
<totfact> 0.82779286E+05</totfact>
</mgrwt>
</event>
<event>
 4    1  0.2245608E+006  0.2587057E+02  0.7546771E-02  0.1648804E+00
          2   -1    0    0  503    0 -0.00000000000E+00  0.00000000000E+00  0.71998821885E+03  0.71998821885E+03  0.00000000000E+00 0. -1.
         21   -1    0    0  501  502  0.00000000000E+00 -0.00000000000E+00 -0.36541655228E+02  0.36541655228E+02  0.00000000000E+00 0.  1.
         21    1    1    2  503  502  0.22077103653E+02  0.13486576823E+02 -0.31699339367E+02  0.40916187218E+02  0.00000000000E+00 0.  1.
          2    1    1    2  501    0 -0.22077103653E+02 -0.13486576823E+02  0.71514590299E+03  0.71561368686E+03  0.00000000000E+00 0. -1.
<mgrwt>
<rscale>  2 0.25870567E+02</rscale>
<asrwt>0</asrwt>
<pdfrwt beam="2">  1       21 0.56217937E-02 0.25870567E+02</pdfrwt>
<pdfrwt beam="1">  1        2 0.11076741E+00 0.25870567E+02</pdfrwt>
<totfact> 0.10372189E+05</totfact>
</mgrwt>
</event>
<event>
 4    1  0.2245608E+006  0.5051186E+02  0.7546771E-02  0.1442600E+00
         21   -1    0    0  501  502  0.00000000000E+00  0.00000000000E+00  0.38356618046E+01  0.38356618046E+01  0.00000000000E+00 0.  1.
          2   -1    0    0  503    0 -0.00000000000E+00 -0.00000000000E+00 -0.68133932230E+03  0.68133932230E+03  0.00000000000E+00 0.  1.
         21    1    1    2  503  502 -0.41528132602E+02 -0.28755209992E+02 -0.28601028835E+03  0.29043645250E+03  0.00000000000E+00 0.  1.
          2    1    1    2  501    0  0.41528132602E+02  0.28755209992E+02 -0.39149337214E+03  0.39473853160E+03  0.00000000000E+00 0.  1.
<mgrwt>
<rscale>  2 0.50511859E+02</rscale>
<asrwt>0</asrwt>
<pdfrwt beam="1">  1       21 0.59010165E-03 0.50511859E+02</pdfrwt>
<pdfrwt beam="2">  1        2 0.10482146E+00 0.50511859E+02</pdfrwt>
<totfact> 0.40050775E+06</totfact>
</mgrwt>
</event>
<event>
 4    1  0.2245608E+006  0.2181077E+02  0.7546771E-02  0.1711545E+00
         21   -1    0    0  501  502  0.00000000000E+00  0.00000000000E+00  0.72495877351E+00  0.72495877351E+00  0.00000000000E+00 0. -1.
          2   -1    0    0  503    0 -0.00000000000E+00 -0.00000000000E+00 -0.17873593387E+04  0.17873593387E+04  0.00000000000E+00 0.  1.
         21    1    1    2  503  502 -0.64236546297E+01 -0.20843375621E+02 -0.18207723211E+03  0.18337891945E+03  0.00000000000E+00 0. -1.
          2    1    1    2  501    0  0.64236546297E+01  0.20843375621E+02 -0.16045571478E+04  0.16047053780E+04  0.00000000000E+00 0.  1.
<mgrwt>
<rscale>  2 0.21810769E+02</rscale>
<asrwt>0</asrwt>
<pdfrwt beam="1">  1       21 0.11153334E-03 0.21810769E+02</pdfrwt>
<pdfrwt beam="2">  1        2 0.27497535E+00 0.21810769E+02</pdfrwt>
<totfact> 0.10215201E+07</totfact>
</mgrwt>
</event>
<event>
 4    1  0.2245608E+006  0.2213652E+02  0.7546771E-02  0.1705902E+00
         -2   -1    0    0    0  501 -0.00000000000E+00  0.00000000000E+00  0.61114407320E+01  0.61114407320E+01  0.00000000000E+00 0. -1.
         21   -1    0    0  503  502  0.00000000000E+00 -0.00000000000E+00 -0.90406446646E+02  0.90406446646E+02  0.00000000000E+00 0. -1.
         21    1    1    2  503  501 -0.21373076270E+02 -0.57634320749E+01 -0.58376996827E+02  0.62433158634E+02  0.00000000000E+00 0. -1.
         -2    1    1    2    0  502  0.21373076270E+02  0.57634320749E+01 -0.25918009088E+02  0.34084728744E+02  0.00000000000E+00 0. -1.
<mgrwt>
<rscale>  2 0.22136520E+02</rscale>
<asrwt>0</asrwt>
<pdfrwt beam="2">  1       21 0.13908684E-01 0.22136520E+02</pdfrwt>
<pdfrwt beam="1">  1       -2 0.94022167E-03 0.22136520E+02</pdfrwt>
<totfact> 0.50781617E+06</totfact>
</mgrwt>
</event>
<event>
 4    1  0.2245608E+006  0.2496383E+02  0.7546771E-02  0.1661522E+00
         -4   -1    0    0    0  501 -0.00000000000E+00  0.00000000000E+00  0.21433398275E+01  0.21433398275E+01  0.00000000000E+00 0. -1.
         21   -1    0    0  503  502  0.00000000000E+00 -0.00000000000E+00 -0.34994193715E+03  0.34994193715E+03  0.00000000000E+00 0. -1.
         21    1    1    2  503  501  0.19962470337E+02 -0.14989752768E+02 -0.24629658682E+03  0.24755848115E+03  0.00000000000E+00 0. -1.
         -4    1    1    2    0  502 -0.19962470337E+02  0.14989752768E+02 -0.10150201050E+03  0.10452679583E+03  0.00000000000E+00 0. -1.
<mgrwt>
<rscale>  2 0.24963832E+02</rscale>
<asrwt>0</asrwt>
<pdfrwt beam="2">  1       21 0.53837205E-01 0.24963832E+02</pdfrwt>
<pdfrwt beam="1">  1       -4 0.32974469E-03 0.24963832E+02</pdfrwt>
<totfact> 0.12952624E+06</totfact>
</mgrwt>
</event>
<event>
 4    1  0.2245608E+006  0.2267524E+02  0.7546771E-02  0.1696829E+00
         -1   -1    0    0    0  501 -0.00000000000E+00  0.00000000000E+00  0.18799143583E+02  0.18799143583E+02  0.00000000000E+00 0.  1.
         21   -1    0    0  503  502  0.00000000000E+00 -0.00000000000E+00 -0.49112948142E+02  0.49112948142E+02  0.00000000000E+00 0.  1.
         21    1    1    2  503  501  0.22381034027E+02  0.36408518860E+01 -0.37760247241E+02  0.44045462403E+02  0.00000000000E+00 0.  1.
         -1    1    1    2    0  502 -0.22381034027E+02 -0.36408518860E+01  0.74464426819E+01  0.23866629322E+02  0.00000000000E+00 0.  1.
<mgrwt>
<rscale>  2 0.22675240E+02</rscale>
<asrwt>0</asrwt>
<pdfrwt beam="2">  1       21 0.75558381E-02 0.22675240E+02</pdfrwt>
<pdfrwt beam="1">  1       -1 0.28921760E-02 0.22675240E+02</pdfrwt>
<totfact> 0.30735738E+06</totfact>
</mgrwt>
</event>
<event>
 4    1  0.2245608E+006  0.2928290E+02  0.7546771E-02  0.1606153E+00
          2   -1    0    0  503    0 -0.00000000000E+00  0.00000000000E+00  0.38906917000E+03  0.38906917000E+03  0.00000000000E+00 0.  1.
         21   -1    0    0  501  502  0.00000000000E+00 -0.00000000000E+00 -0.42826695181E+02  0.42826695181E+02  0.00000000000E+00 0. -1.
         21    1    1    2  503  502 -0.29072437447E+02 -0.35045069443E+01 -0.37196748839E+02  0.47340113141E+02  0.00000000000E+00 0. -1.
          2    1    1    2  501    0  0.29072437447E+02  0.35045069443E+01  0.38343922365E+03  0.38455575204E+03  0.00000000000E+00 0.  1.
<mgrwt>
<rscale>  2 0.29282899E+02</rscale>
<asrwt>0</asrwt>
<pdfrwt beam="2">  1       21 0.65887226E-02 0.29282899E+02</pdfrwt>
<pdfrwt beam="1">  1        2 0.59856793E-01 0.29282899E+02</pdfrwt>
<totfact> 0.15361575E+05</totfact>
</mgrwt>
</event>
<event>
 4    1  0.2245608E+006  0.2113195E+02  0.7546771E-02  0.1723712E+00
          2   -1    0    0  502    0 -0.00000000000E+00  0.00000000000E+00  0.70689514777E+03  0.70689514777E+03  0.00000000000E+00 0. -1.
         21   -1    0    0  503  502  0.00000000000E+00 -0.00000000000E+00 -0.39216895637E+01  0.39216895637E+01  0.00000000000E+00 0.  1.
         21    1    1    2  503  501  0.29521210701E+01  0.20924725345E+02  0.25959661732E+02  0.33473320523E+02  0.00000000000E+00 0.  1.
          2    1    1    2  501    0 -0.29521210701E+01 -0.20924725345E+02  0.67701379648E+03  0.67734351681E+03  0.00000000000E+00 0. -1.
<mgrwt>
<rscale>  2 0.21131946E+02</rscale>
<asrwt>0</asrwt>
<pdfrwt beam="2">  1       21 0.60333742E-03 0.21131946E+02</pdfrwt>
<pdfrwt beam="1">  1        2 0.10875300E+00 0.21131946E+02</pdfrwt>
<totfact> 0.31520763E+06</totfact>
</mgrwt>
</event>
<event>
 4    1  0.2245608E+006  0.2515604E+02  0.7546771E-02  0.1658771E+00
         21   -1    0    0  501  502  0.00000000000E+00  0.00000000000E+00  0.92883860222E+02  0.92883860222E+02  0.00000000000E+00 0. -1.
          1   -1    0    0  503    0 -0.00000000000E+00 -0.00000000000E+00 -0.34492964064E+03  0.34492964064E+03  0.00000000000E+00 0.  1.
         21    1    1    2  503  502 -0.22509446756E+02  0.11231705064E+02  0.90711141080E+02  0.94134677500E+02  0.00000000000E+00 0. -1.
          1    1    1    2  501    0  0.22509446756E+02 -0.11231705064E+02 -0.34275692149E+03  0.34367882336E+03  0.00000000000E+00 0.  1.
<mgrwt>
<rscale>  2 0.25156041E+02</rscale>
<asrwt>0</asrwt>
<pdfrwt beam="1">  1       21 0.14289825E-01 0.25156041E+02</pdfrwt>
<pdfrwt beam="2">  1        1 0.53066098E-01 0.25156041E+02</pdfrwt>
<totfact> 0.32973974E+04</totfact>
</mgrwt>
</event>
<event>
 4    1  0.2245608E+006  0.2095966E+02  0.7546771E-02  0.1726891E+00
         21   -1    0    0  501  502  0.00000000000E+00  0.00000000000E+00  0.22111447180E+03  0.22111447180E+03  0.00000000000E+00 0. -1.
          1   -1    0    0  503    0 -0.00000000000E+00 -0.00000000000E+00 -0.32927933386E+01  0.32927933386E+01  0.00000000000E+00 0. -1.
         21    1    1    2  503  502 -0.44233393426E+01 -0.20487587018E+02  0.17957471874E+03  0.18079376859E+03  0.00000000000E+00 0. -1.
          1    1    1    2  501    0  0.44233393426E+01  0.20487587018E+02  0.38246959727E+02  0.43613496548E+02  0.00000000000E+00 0. -1.
<mgrwt>
<rscale>  2 0.20959655E+02</rscale>
<asrwt>0</asrwt>
<pdfrwt beam="1">  1       21 0.34017599E-01 0.20959655E+02</pdfrwt>
<pdfrwt beam="2">  1        1 0.50658376E-03 0.20959655E+02</pdfrwt>
<totfact> 0.24257543E+06</totfact>
</mgrwt>
</event>
<event>
 4    1  0.2245608E+006  0.2262203E+02  0.7546771E-02  0.1697711E+00
         -1   -1    0    0    0  501 -0.00000000000E+00  0.00000000000E+00  0.33568240325E+03  0.33568240325E+03  0.00000000000E+00 0. -1.
         21   -1    0    0  501  502  0.00000000000E+00 -0.00000000000E+00 -0.33791200180E+01  0.33791200180E+01  0.00000000000E+00 0. -1.
         21    1    1    2  503  502 -0.26850674491E+01 -0.22462111580E+02  0.40556942752E+02  0.46439440664E+02  0.00000000000E+00 0. -1.
         -1    1    1    2    0  503  0.26850674491E+01  0.22462111580E+02  0.29174634048E+03  0.29262208260E+03  0.00000000000E+00 0. -1.
<mgrwt>
<rscale>  2 0.22622026E+02</rscale>
<asrwt>0</asrwt>
<pdfrwt beam="2">  1       21 0.51986488E-03 0.22622026E+02</pdfrwt>
<pdfrwt beam="1">  1       -1 0.51643420E-01 0.22622026E+02</pdfrwt>
<totfact> 0.25815801E+06</totfact>
</mgrwt>
</event>
<event>
 4    1  0.2245608E+006  0.2296176E+02  0.7546771E-02  0.1692131E+00
          1   -1    0    0  502    0 -0.00000000000E+00  0.00000000000E+00  0.14045817499E+03  0.14045817499E+03  0.00000000000E+00 0. -1.
         21   -1    0    0  503  502  0.00000000000E+00 -0.00000000000E+00 -0.42076432123E+01  0.42076432123E+01  0.00000000000E+00 0. -1.
         21    1    1    2  503  501 -0.61176722752E+01 -0.22131797971E+02  0.44367709657E+02  0.49957342360E+02  0.00000000000E+00 0. -1.
          1    1    1    2  501    0  0.61176722752E+01  0.22131797971E+02  0.91882822123E+02  0.94708475844E+02  0.00000000000E+00 0. -1.
<mgrwt>
<rscale>  2 0.22961759E+02</rscale>
<asrwt>0</asrwt>
<pdfrwt beam="2">  1       21 0.64732983E-03 0.22961759E+02</pdfrwt>
<pdfrwt beam="1">  1        1 0.21608946E-01 0.22961759E+02</pdfrwt>
<totfact> 0.11934615E+07</totfact>
</mgrwt>
</event>
<event>
 4    1  0.2245608E+006  0.3135004E+02  0.7546771E-02  0.1583628E+00
         -1   -1    0    0    0  501 -0.00000000000E+00  0.00000000000E+00  0.20891575795E+03  0.20891575795E+03  0.00000000000E+00 0.  1.
         21   -1    0    0  503  502  0.00000000000E+00 -0.00000000000E+00 -0.86456311629E+01  0.86456311629E+01  0.00000000000E+00 0. -1.
         21    1    1    2  503  501  0.22304950661E+02  0.22029853982E+02  0.26688935865E+02  0.41171890751E+02  0.00000000000E+00 0. -1.
         -1    1    1    2    0  502 -0.22304950661E+02 -0.22029853982E+02  0.17358119092E+03  0.17638949836E+03  0.00000000000E+00 0.  1.
<mgrwt>
<rscale>  2 0.31350045E+02</rscale>
<asrwt>0</asrwt>
<pdfrwt beam="2">  1       21 0.13300973E-02 0.31350045E+02</pdfrwt>
<pdfrwt beam="1">  1       -1 0.32140882E-01 0.31350045E+02</pdfrwt>
<totfact> 0.15060123E+06</totfact>
</mgrwt>
</event>
<event>
 4    1  0.2245608E+006  0.2436732E+02  0.7546771E-02  0.1670259E+00
         -1   -1    0    0    0  501 -0.00000000000E+00  0.00000000000E+00  0.11963081135E+03  0.11963081135E+03  0.00000000000E+00 0.  1.
         21   -1    0    0  501  502  0.00000000000E+00 -0.00000000000E+00 -0.88918002125E+01  0.88918002125E+01  0.00000000000E+00 0.  1.
         21    1    1    2  503  502  0.20541060425E+01 -0.24280586056E+02  0.12655835870E+02  0.27457902186E+02  0.00000000000E+00 0.  1.
         -1    1    1    2    0  503 -0.20541060425E+01  0.24280586056E+02  0.98083175269E+02  0.10106470938E+03  0.00000000000E+00 0.  1.
<mgrwt>
<rscale>  2 0.24367318E+02</rscale>
<asrwt>0</asrwt>
<pdfrwt beam="2">  1       21 0.13679693E-02 0.24367318E+02</pdfrwt>
<pdfrwt beam="1">  1       -1 0.18404739E-01 0.24367318E+02</pdfrwt>
<totfact> 0.32462032E+06</totfact>
</mgrwt>
</event>
<event>
 4    1  0.2245608E+006  0.2126744E+02  0.7546771E-02  0.1721238E+00
         -3   -1    0    0    0  501 -0.00000000000E+00  0.00000000000E+00  0.22756673198E+01  0.22756673198E+01  0.00000000000E+00 0.  1.
         21   -1    0    0  501  502  0.00000000000E+00 -0.00000000000E+00 -0.31836404007E+03  0.31836404007E+03  0.00000000000E+00 0. -1.
         21    1    1    2  503  502 -0.20923555272E+02  0.38090207671E+01 -0.25631045776E+03  0.25719128011E+03  0.00000000000E+00 0. -1.
         -3    1    1    2    0  503  0.20923555272E+02 -0.38090207671E+01 -0.59777914989E+02  0.63448427284E+02  0.00000000000E+00 0.  1.
<mgrwt>
<rscale>  2 0.21267435E+02</rscale>
<asrwt>0</asrwt>
<pdfrwt beam="2">  1       21 0.48979095E-01 0.21267435E+02</pdfrwt>
<pdfrwt beam="1">  1       -3 0.35010258E-03 0.21267435E+02</pdfrwt>
<totfact> 0.15510216E+06</totfact>
</mgrwt>
</event>
<event>
 4    1  0.2245608E+006  0.2171784E+02  0.7546771E-02  0.1713178E+00
         21   -1    0    0  501  502  0.00000000000E+00  0.00000000000E+00  0.65494610541E+01  0.65494610541E+01  0.00000000000E+00 0.  1.
          3   -1    0    0  503    0 -0.00000000000E+00 -0.00000000000E+00 -0.95354207334E+02  0.95354207334E+02  0.00000000000E+00 0. -1.
         21    1    1    2  503  502  0.11120566695E+02 -0.18654691409E+02 -0.19195107933E+02  0.28984766408E+02  0.00000000000E+00 0.  1.
          3    1    1    2  501    0 -0.11120566695E+02  0.18654691409E+02 -0.69609638347E+02  0.72918901980E+02  0.00000000000E+00 0. -1.
<mgrwt>
<rscale>  2 0.21717839E+02</rscale>
<asrwt>0</asrwt>
<pdfrwt beam="1">  1       21 0.10076094E-02 0.21717839E+02</pdfrwt>
<pdfrwt beam="2">  1        3 0.14669878E-01 0.21717839E+02</pdfrwt>
<totfact> 0.38186288E+06</totfact>
</mgrwt>
</event>
<event>
 4    1  0.2245608E+006  0.3098194E+02  0.7546771E-02  0.1587482E+00
         -1   -1    0    0    0  501 -0.00000000000E+00  0.00000000000E+00  0.15626391505E+03  0.15626391505E+03  0.00000000000E+00 0. -1.
         21   -1    0    0  501  502  0.00000000000E+00 -0.00000000000E+00 -0.19534235237E+02  0.19534235237E+02  0.00000000000E+00 0.  1.
         21    1    1    2  503  502  0.12786255160E+02 -0.28220421153E+02 -0.44133879053E+01  0.31294703767E+02  0.00000000000E+00 0.  1.
         -1    1    1    2    0  503 -0.12786255160E+02  0.28220421153E+02  0.14114306771E+03  0.14450344652E+03  0.00000000000E+00 0. -1.
<mgrwt>
<rscale>  2 0.30981938E+02</rscale>
<asrwt>0</asrwt>
<pdfrwt beam="2">  1       21 0.30052671E-02 0.30981938E+02</pdfrwt>
<pdfrwt beam="1">  1       -1 0.24040601E-01 0.30981938E+02</pdfrwt>
<totfact> 0.67357531E+05</totfact>
</mgrwt>
</event>
<event>
 4    1  0.2245608E+006  0.3067932E+02  0.7546771E-02  0.1590699E+00
         -1   -1    0    0    0  501 -0.00000000000E+00  0.00000000000E+00  0.45804991293E+03  0.45804991293E+03  0.00000000000E+00 0.  1.
         21   -1    0    0  501  502  0.00000000000E+00 -0.00000000000E+00 -0.12805987757E+02  0.12805987757E+02  0.00000000000E+00 0. -1.
         21    1    1    2  503  502 -0.47587277672E+01 -0.30308002659E+02  0.69077095714E+01  0.31447368199E+02  0.00000000000E+00 0. -1.
         -1    1    1    2    0  503  0.47587277672E+01  0.30308002659E+02  0.43833621561E+03  0.43940853249E+03  0.00000000000E+00 0.  1.
<mgrwt>
<rscale>  2 0.30679317E+02</rscale>
<asrwt>0</asrwt>
<pdfrwt beam="2">  1       21 0.19701523E-02 0.30679317E+02</pdfrwt>
<pdfrwt beam="1">  1       -1 0.70469205E-01 0.30679317E+02</pdfrwt>
<totfact> 0.20905323E+05</totfact>
</mgrwt>
</event>
<event>
 4    1  0.2245608E+006  0.2559881E+02  0.7546771E-02  0.1652547E+00
         -3   -1    0    0    0  501 -0.00000000000E+00  0.00000000000E+00  0.12433998116E+02  0.12433998116E+02  0.00000000000E+00 0.  1.
         21   -1    0    0  501  502  0.00000000000E+00 -0.00000000000E+00 -0.59005115254E+02  0.59005115254E+02  0.00000000000E+00 0. -1.
         21    1    1    2  503  502 -0.24613093747E+02 -0.70352627013E+01 -0.34959869907E+02  0.43330033567E+02  0.00000000000E+00 0. -1.
         -3    1    1    2    0  503  0.24613093747E+02  0.70352627013E+01 -0.11611247231E+02  0.28109079802E+02  0.00000000000E+00 0.  1.
<mgrwt>
<rscale>  2 0.25598815E+02</rscale>
<asrwt>0</asrwt>
<pdfrwt beam="2">  1       21 0.90777099E-02 0.25598815E+02</pdfrwt>
<pdfrwt beam="1">  1       -3 0.19129228E-02 0.25598815E+02</pdfrwt>
<totfact> 0.28971689E+06</totfact>
</mgrwt>
</event>
<event>
 4    1  0.2245608E+006  0.3539119E+02  0.7546771E-02  0.1545154E+00
         21   -1    0    0  503  502  0.00000000000E+00  0.00000000000E+00  0.11442388929E+01  0.11442388929E+01  0.00000000000E+00 0.  1.
          2   -1    0    0  502    0 -0.00000000000E+00 -0.00000000000E+00 -0.13559415322E+04  0.13559415322E+04  0.00000000000E+00 0.  1.
         21    1    1    2  503  501 -0.21890120827E+01 -0.35323425290E+02 -0.37953116960E+03  0.38117770770E+03  0.00000000000E+00 0.  1.
          2    1    1    2  501    0  0.21890120827E+01  0.35323425290E+02 -0.97526612372E+03  0.97590806340E+03  0.00000000000E+00 0.  1.
<mgrwt>
<rscale>  2 0.35391187E+02</rscale>
<asrwt>0</asrwt>
<pdfrwt beam="1">  1       21 0.17603698E-03 0.35391187E+02</pdfrwt>
<pdfrwt beam="2">  1        2 0.20860612E+00 0.35391187E+02</pdfrwt>
<totfact> 0.93534071E+06</totfact>
</mgrwt>
</event>
<event>
 4    1  0.2245608E+006  0.2065715E+02  0.7546771E-02  0.1732567E+00
         21   -1    0    0  501  502  0.00000000000E+00  0.00000000000E+00  0.50402007085E+00  0.50402007085E+00  0.00000000000E+00 0. -1.
          2   -1    0    0  503    0 -0.00000000000E+00 -0.00000000000E+00 -0.95859092434E+03  0.95859092434E+03  0.00000000000E+00 0. -1.
         21    1    1    2  503  502  0.18380813840E+02 -0.94267548609E+01 -0.31515435418E+03  0.31583062705E+03  0.00000000000E+00 0. -1.
          2    1    1    2  501    0 -0.18380813840E+02  0.94267548609E+01 -0.64293255009E+03  0.64326431736E+03  0.00000000000E+00 0. -1.
<mgrwt>
<rscale>  2 0.20657154E+02</rscale>
<asrwt>0</asrwt>
<pdfrwt beam="1">  1       21 0.77541518E-04 0.20657154E+02</pdfrwt>
<pdfrwt beam="2">  1        2 0.14747559E+00 0.20657154E+02</pdfrwt>
<totfact> 0.42706621E+07</totfact>
</mgrwt>
</event>
<event>
 4    1  0.2245608E+006  0.2259783E+02  0.7546771E-02  0.1698113E+00
         21   -1    0    0  503  502  0.00000000000E+00  0.00000000000E+00  0.11953589221E+01  0.11953589221E+01  0.00000000000E+00 0.  1.
         -2   -1    0    0    0  501 -0.00000000000E+00 -0.00000000000E+00 -0.72155889206E+03  0.72155889206E+03  0.00000000000E+00 0.  1.
         21    1    1    2  503  501  0.80662717776E+01 -0.21109169137E+02 -0.12936858199E+03  0.13132742199E+03  0.00000000000E+00 0.  1.
         -2    1    1    2    0  502 -0.80662717776E+01  0.21109169137E+02 -0.59099495115E+03  0.59142682899E+03  0.00000000000E+00 0.  1.
<mgrwt>
<rscale>  2 0.22597826E+02</rscale>
<asrwt>0</asrwt>
<pdfrwt beam="1">  1       21 0.18390148E-03 0.22597826E+02</pdfrwt>
<pdfrwt beam="2">  1       -2 0.11100900E+00 0.22597826E+02</pdfrwt>
<totfact> 0.19054758E+06</totfact>
</mgrwt>
</event>
<event>
 4    1  0.2245608E+006  0.2786068E+02  0.7546771E-02  0.1623016E+00
         21   -1    0    0  501  502  0.00000000000E+00  0.00000000000E+00  0.20526412252E+02  0.20526412252E+02  0.00000000000E+00 0.  1.
          4   -1    0    0  503    0 -0.00000000000E+00 -0.00000000000E+00 -0.41614998327E+02  0.41614998327E+02  0.00000000000E+00 0.  1.
         21    1    1    2  503  502 -0.26843479324E+02  0.74595577256E+01 -0.11559930660E+01  0.27884649965E+02  0.00000000000E+00 0.  1.
          4    1    1    2  501    0  0.26843479324E+02 -0.74595577256E+01 -0.19932593009E+02  0.34256760614E+02  0.00000000000E+00 0.  1.
<mgrwt>
<rscale>  2 0.27860678E+02</rscale>
<asrwt>0</asrwt>
<pdfrwt beam="1">  1       21 0.31579096E-02 0.27860678E+02</pdfrwt>
<pdfrwt beam="2">  1        4 0.64023074E-02 0.27860678E+02</pdfrwt>
<totfact> 0.22641916E+06</totfact>
</mgrwt>
</event>
<event>
 4    1  0.2245608E+006  0.3298525E+02  0.7546771E-02  0.1567256E+00
         21   -1    0    0  501  502  0.00000000000E+00  0.00000000000E+00  0.14068540503E+01  0.14068540503E+01  0.00000000000E+00 0. -1.
          1   -1    0    0  503    0 -0.00000000000E+00 -0.00000000000E+00 -0.83478954260E+03  0.83478954260E+03  0.00000000000E+00 0. -1.
         21    1    1    2  503  502  0.32389908440E+02  0.62386107751E+01 -0.30328856644E+03  0.30507700826E+03  0.00000000000E+00 0. -1.
          1    1    1    2  501    0 -0.32389908440E+02 -0.62386107751E+01 -0.53009412211E+03  0.53111938840E+03  0.00000000000E+00 0. -1.
<mgrwt>
<rscale>  2 0.32985246E+02</rscale>
<asrwt>0</asrwt>
<pdfrwt beam="1">  1       21 0.21643931E-03 0.32985246E+02</pdfrwt>
<pdfrwt beam="2">  1        1 0.12842903E+00 0.32985246E+02</pdfrwt>
<totfact> 0.75643770E+06</totfact>
</mgrwt>
</event>
<event>
 4    1  0.2245608E+006  0.2353000E+02  0.7546771E-02  0.1683060E+00
         21   -1    0    0  503  502  0.00000000000E+00  0.00000000000E+00  0.12109211172E+02  0.12109211172E+02  0.00000000000E+00 0.  1.
          2   -1    0    0  502    0 -0.00000000000E+00 -0.00000000000E+00 -0.77313205638E+03  0.77313205638E+03  0.00000000000E+00 0.  1.
         21    1    1    2  503  501 -0.23463738006E+02  0.17646504581E+01  0.32268770793E+00  0.23532214511E+02  0.00000000000E+00 0.  1.
          2    1    1    2  501    0  0.23463738006E+02 -0.17646504581E+01 -0.76134553292E+03  0.76170905304E+03  0.00000000000E+00 0.  1.
<mgrwt>
<rscale>  2 0.23530002E+02</rscale>
<asrwt>0</asrwt>
<pdfrwt beam="1">  1       21 0.18629554E-02 0.23530002E+02</pdfrwt>
<pdfrwt beam="2">  1        2 0.11894341E+00 0.23530002E+02</pdfrwt>
<totfact> 0.53524178E+05</totfact>
</mgrwt>
</event>
<event>
 4    1  0.2245608E+006  0.2011257E+02  0.7546771E-02  0.1743099E+00
          4   -1    0    0  503    0 -0.00000000000E+00  0.00000000000E+00  0.61459415909E+01  0.61459415909E+01  0.00000000000E+00 0.  1.
         21   -1    0    0  501  502  0.00000000000E+00 -0.00000000000E+00 -0.75639559279E+03  0.75639559279E+03  0.00000000000E+00 0.  1.
         21    1    1    2  503  502  0.75143390861E+01  0.18656106328E+02 -0.73942984236E+03  0.73970332389E+03  0.00000000000E+00 0.  1.
          4    1    1    2  501    0 -0.75143390861E+01 -0.18656106328E+02 -0.10819808836E+02  0.22838210492E+02  0.00000000000E+00 0.  1.
<mgrwt>
<rscale>  2 0.20112573E+02</rscale>
<asrwt>0</asrwt>
<pdfrwt beam="2">  1       21 0.11636854E+00 0.20112573E+02</pdfrwt>
<pdfrwt beam="1">  1        4 0.94552961E-03 0.20112573E+02</pdfrwt>
<totfact> 0.53800816E+04</totfact>
</mgrwt>
</event>
<event>
 4    1  0.2245608E+006  0.2533543E+02  0.7546771E-02  0.1656230E+00
         21   -1    0    0  503  502  0.00000000000E+00  0.00000000000E+00  0.31389077838E+02  0.31389077838E+02  0.00000000000E+00 0.  1.
          1   -1    0    0  502    0 -0.00000000000E+00 -0.00000000000E+00 -0.49313252713E+02  0.49313252713E+02  0.00000000000E+00 0. -1.
         21    1    1    2  503  501 -0.49962945939E+01 -0.24837894489E+02  0.21909028432E+02  0.33494618809E+02  0.00000000000E+00 0.  1.
          1    1    1    2  501    0  0.49962945939E+01  0.24837894489E+02 -0.39833203306E+02  0.47207711743E+02  0.00000000000E+00 0. -1.
<mgrwt>
<rscale>  2 0.25335429E+02</rscale>
<asrwt>0</asrwt>
<pdfrwt beam="1">  1       21 0.48290889E-02 0.25335429E+02</pdfrwt>
<pdfrwt beam="2">  1        1 0.75866543E-02 0.25335429E+02</pdfrwt>
<totfact> 0.20310038E+06</totfact>
</mgrwt>
</event>
<event>
 4    1  0.2245608E+006  0.3014198E+02  0.7546771E-02  0.1596525E+00
         21   -1    0    0  503  502  0.00000000000E+00  0.00000000000E+00  0.62242392181E+00  0.62242392181E+00  0.00000000000E+00 0.  1.
          2   -1    0    0  502    0 -0.00000000000E+00 -0.00000000000E+00 -0.15721628142E+04  0.15721628142E+04  0.00000000000E+00 0.  1.
         21    1    1    2  503  501  0.28476319361E+02 -0.98812116361E+01 -0.57542347331E+03  0.57621238510E+03  0.00000000000E+00 0.  1.
          2    1    1    2  501    0 -0.28476319361E+02  0.98812116361E+01 -0.99611691702E+03  0.99657285307E+03  0.00000000000E+00 0.  1.
<mgrwt>
<rscale>  2 0.30141982E+02</rscale>
<asrwt>0</asrwt>
<pdfrwt beam="1">  1       21 0.95758448E-04 0.30141982E+02</pdfrwt>
<pdfrwt beam="2">  1        2 0.24186887E+00 0.30141982E+02</pdfrwt>
<totfact> 0.17174220E+07</totfact>
</mgrwt>
</event>
<event>
 4    1  0.2245608E+006  0.2007975E+02  0.7546771E-02  0.1743747E+00
         21   -1    0    0  503  502  0.00000000000E+00  0.00000000000E+00  0.16214027553E+03  0.16214027553E+03  0.00000000000E+00 0. -1.
         -3   -1    0    0    0  501 -0.00000000000E+00 -0.00000000000E+00 -0.33292800204E+02  0.33292800204E+02  0.00000000000E+00 0. -1.
         21    1    1    2  503  501  0.18409081475E+02 -0.80188492825E+01  0.15842012970E+03  0.15968761292E+03  0.00000000000E+00 0. -1.
         -3    1    1    2    0  502 -0.18409081475E+02  0.80188492825E+01 -0.29572654380E+02  0.35745462812E+02  0.00000000000E+00 0. -1.
<mgrwt>
<rscale>  2 0.20079747E+02</rscale>
<asrwt>0</asrwt>
<pdfrwt beam="1">  1       21 0.24944657E-01 0.20079747E+02</pdfrwt>
<pdfrwt beam="2">  1       -3 0.51219694E-02 0.20079747E+02</pdfrwt>
<totfact> 0.11165685E+05</totfact>
</mgrwt>
</event>
<event>
 4    1  0.2245608E+006  0.2151803E+02  0.7546771E-02  0.1716723E+00
          1   -1    0    0  502    0 -0.00000000000E+00  0.00000000000E+00  0.15855970890E+04  0.15855970890E+04  0.00000000000E+00 0. -1.
         21   -1    0    0  503  502  0.00000000000E+00 -0.00000000000E+00 -0.87401866878E+00  0.87401866878E+00  0.00000000000E+00 0. -1.
         21    1    1    2  503  501  0.14362154987E+02 -0.16023555474E+02  0.14506561725E+03  0.14665285245E+03  0.00000000000E+00 0. -1.
          1    1    1    2  501    0 -0.14362154987E+02  0.16023555474E+02  0.14396574531E+04  0.14398182552E+04  0.00000000000E+00 0. -1.
<mgrwt>
<rscale>  2 0.21518035E+02</rscale>
<asrwt>0</asrwt>
<pdfrwt beam="2">  1       21 0.13446568E-03 0.21518035E+02</pdfrwt>
<pdfrwt beam="1">  1        1 0.24393571E+00 0.21518035E+02</pdfrwt>
<totfact> 0.45268551E+06</totfact>
</mgrwt>
</event>
<event>
 4    1  0.2245608E+006  0.2021899E+02  0.7546771E-02  0.1741008E+00
         21   -1    0    0  501  502  0.00000000000E+00  0.00000000000E+00  0.14790198716E+01  0.14790198716E+01  0.00000000000E+00 0.  1.
          1   -1    0    0  503    0 -0.00000000000E+00 -0.00000000000E+00 -0.55546561944E+03  0.55546561944E+03  0.00000000000E+00 0.  1.
         21    1    1    2  503  502 -0.20191916692E+02 -0.10459428664E+01 -0.79613256751E+02  0.82140599868E+02  0.00000000000E+00 0.  1.
          1    1    1    2  501    0  0.20191916692E+02  0.10459428664E+01 -0.47437334282E+03  0.47480403944E+03  0.00000000000E+00 0.  1.
<mgrwt>
<rscale>  2 0.20218989E+02</rscale>
<asrwt>0</asrwt>
<pdfrwt beam="1">  1       21 0.22754154E-03 0.20218989E+02</pdfrwt>
<pdfrwt beam="2">  1        1 0.85456243E-01 0.20218989E+02</pdfrwt>
<totfact> 0.10672433E+07</totfact>
</mgrwt>
</event>
<event>
 4    1  0.2245608E+006  0.3025535E+02  0.7546771E-02  0.1595283E+00
         21   -1    0    0  501  502  0.00000000000E+00  0.00000000000E+00  0.30324421415E+01  0.30324421415E+01  0.00000000000E+00 0.  1.
          1   -1    0    0  503    0 -0.00000000000E+00 -0.00000000000E+00 -0.61693572458E+03  0.61693572458E+03  0.00000000000E+00 0.  1.
         21    1    1    2  503  502 -0.24992005862E+01  0.30151955090E+02 -0.85426073515E+02  0.90625605849E+02  0.00000000000E+00 0.  1.
          1    1    1    2  501    0  0.24992005862E+01 -0.30151955090E+02 -0.52847720893E+03  0.52934256088E+03  0.00000000000E+00 0.  1.
<mgrwt>
<rscale>  2 0.30255353E+02</rscale>
<asrwt>0</asrwt>
<pdfrwt beam="1">  1       21 0.46652971E-03 0.30255353E+02</pdfrwt>
<pdfrwt beam="2">  1        1 0.94913159E-01 0.30255353E+02</pdfrwt>
<totfact> 0.36084821E+06</totfact>
</mgrwt>
</event>
<event>
 4    1  0.2245608E+006  0.2764826E+02  0.7546771E-02  0.1625640E+00
         21   -1    0    0  503  502  0.00000000000E+00  0.00000000000E+00  0.26657016483E+02  0.26657016483E+02  0.00000000000E+00 0. -1.
          1   -1    0    0  502    0 -0.00000000000E+00 -0.00000000000E+00 -0.89309796829E+02  0.89309796829E+02  0.00000000000E+00 0. -1.
         21    1    1    2  503  501 -0.31180967804E+00 -0.27646498696E+02  0.16449664297E+02  0.32171688966E+02  0.00000000000E+00 0. -1.
          1    1    1    2  501    0  0.31180967804E+00  0.27646498696E+02 -0.79102444644E+02  0.83795124346E+02  0.00000000000E+00 0. -1.
<mgrwt>
<rscale>  2 0.27648257E+02</rscale>
<asrwt>0</asrwt>
<pdfrwt beam="1">  1       21 0.41010794E-02 0.27648257E+02</pdfrwt>
<pdfrwt beam="2">  1        1 0.13739969E-01 0.27648257E+02</pdfrwt>
<totfact> 0.12785678E+06</totfact>
</mgrwt>
</event>
<event>
 4    1  0.2245608E+006  0.2397131E+02  0.7546771E-02  0.1676233E+00
         21   -1    0    0  501  502  0.00000000000E+00  0.00000000000E+00  0.17719252604E+02  0.17719252604E+02  0.00000000000E+00 0.  1.
          2   -1    0    0  503    0 -0.00000000000E+00 -0.00000000000E+00 -0.13500617679E+03  0.13500617679E+03  0.00000000000E+00 0. -1.
         21    1    1    2  503  502 -0.23332845596E+02 -0.54956517595E+01  0.79189676255E+01  0.25245473260E+02  0.00000000000E+00 0.  1.
          2    1    1    2  501    0  0.23332845596E+02  0.54956517595E+01 -0.12520589181E+03  0.12747995614E+03  0.00000000000E+00 0. -1.
<mgrwt>
<rscale>  2 0.23971314E+02</rscale>
<asrwt>0</asrwt>
<pdfrwt beam="1">  1       21 0.27260389E-02 0.23971314E+02</pdfrwt>
<pdfrwt beam="2">  1        2 0.20770180E-01 0.23971314E+02</pdfrwt>
<totfact> 0.17668225E+06</totfact>
</mgrwt>
</event>
<event>
 4    1  0.2245608E+006  0.2240696E+02  0.7546771E-02  0.1701307E+00
         21   -1    0    0  503  502  0.00000000000E+00  0.00000000000E+00  0.30556766145E+01  0.30556766145E+01  0.00000000000E+00 0.  1.
          2   -1    0    0  502    0 -0.00000000000E+00 -0.00000000000E+00 -0.11343031086E+04  0.11343031086E+04  0.00000000000E+00 0.  1.
         21    1    1    2  503  501  0.16048398808E+02  0.15637155291E+02 -0.39742413455E+02  0.45623800336E+02  0.00000000000E+00 0.  1.
          2    1    1    2  501    0 -0.16048398808E+02 -0.15637155291E+02 -0.10915050186E+04  0.10917349849E+04  0.00000000000E+00 0.  1.
<mgrwt>
<rscale>  2 0.22406957E+02</rscale>
<asrwt>0</asrwt>
<pdfrwt beam="1">  1       21 0.47010385E-03 0.22406957E+02</pdfrwt>
<pdfrwt beam="2">  1        2 0.17450826E+00 0.22406957E+02</pdfrwt>
<totfact> 0.26269956E+06</totfact>
</mgrwt>
</event>
<event>
 4    1  0.2245608E+006  0.2650626E+02  0.7546771E-02  0.1640264E+00
         21   -1    0    0  503  502  0.00000000000E+00  0.00000000000E+00  0.31986295966E+03  0.31986295966E+03  0.00000000000E+00 0.  1.
         -2   -1    0    0    0  501 -0.00000000000E+00 -0.00000000000E+00 -0.10823515337E+03  0.10823515337E+03  0.00000000000E+00 0. -1.
         21    1    1    2  503  501 -0.10592028967E+02 -0.24297958843E+02  0.31767988636E+03  0.31878377010E+03  0.00000000000E+00 0.  1.
         -2    1    1    2    0  502  0.10592028967E+02  0.24297958843E+02 -0.10605208008E+03  0.10931434293E+03  0.00000000000E+00 0. -1.
<mgrwt>
<rscale>  2 0.26506261E+02</rscale>
<asrwt>0</asrwt>
<pdfrwt beam="1">  1       21 0.49209686E-01 0.26506261E+02</pdfrwt>
<pdfrwt beam="2">  1       -2 0.16651562E-01 0.26506261E+02</pdfrwt>
<totfact> 0.89008778E+03</totfact>
</mgrwt>
</event>
<event>
 4    1  0.2245608E+006  0.2016210E+02  0.7546771E-02  0.1742124E+00
          2   -1    0    0  503    0 -0.00000000000E+00  0.00000000000E+00  0.12028400391E+04  0.12028400391E+04  0.00000000000E+00 0. -1.
         21   -1    0    0  501  502  0.00000000000E+00 -0.00000000000E+00 -0.19983865504E+01  0.19983865504E+01  0.00000000000E+00 0.  1.
         21    1    1    2  503  502  0.83627270306E+01 -0.18345977522E+02  0.51298518107E+02  0.55118491041E+02  0.00000000000E+00 0.  1.
          2    1    1    2  501    0 -0.83627270306E+01  0.18345977522E+02  0.11495431345E+04  0.11497199346E+04  0.00000000000E+00 0. -1.
<mgrwt>
<rscale>  2 0.20162095E+02</rscale>
<asrwt>0</asrwt>
<pdfrwt beam="2">  1       21 0.30744504E-03 0.20162095E+02</pdfrwt>
<pdfrwt beam="1">  1        2 0.18505174E+00 0.20162095E+02</pdfrwt>
<totfact> 0.44136379E+06</totfact>
</mgrwt>
</event>
<event>
 4    1  0.2245608E+006  0.2966458E+02  0.7546771E-02  0.1601826E+00
         21   -1    0    0  503  502  0.00000000000E+00  0.00000000000E+00  0.27162195040E+01  0.27162195040E+01  0.00000000000E+00 0.  1.
          1   -1    0    0  502    0 -0.00000000000E+00 -0.00000000000E+00 -0.40475291513E+03  0.40475291513E+03  0.00000000000E+00 0.  1.
         21    1    1    2  503  501 -0.28726453384E+02 -0.74012148046E+01 -0.11000268071E+03  0.11393233460E+03  0.00000000000E+00 0.  1.
          1    1    1    2  501    0  0.28726453384E+02  0.74012148046E+01 -0.29203401492E+03  0.29353680004E+03  0.00000000000E+00 0.  1.
<mgrwt>
<rscale>  2 0.29664577E+02</rscale>
<asrwt>0</asrwt>
<pdfrwt beam="1">  1       21 0.41788007E-03 0.29664577E+02</pdfrwt>
<pdfrwt beam="2">  1        1 0.62269658E-01 0.29664577E+02</pdfrwt>
<totfact> 0.70933572E+06</totfact>
</mgrwt>
</event>
<event>
 4    1  0.2245608E+006  0.2076035E+02  0.7546771E-02  0.1730617E+00
          2   -1    0    0  503    0 -0.00000000000E+00  0.00000000000E+00  0.70451083982E+03  0.70451083982E+03  0.00000000000E+00 0.  1.
         21   -1    0    0  501  502  0.00000000000E+00 -0.00000000000E+00 -0.14946700689E+01  0.14946700689E+01  0.00000000000E+00 0. -1.
         21    1    1    2  503  502  0.19346360035E+02 -0.75306461785E+01  0.80199580743E+02  0.82843014370E+02  0.00000000000E+00 0. -1.
          2    1    1    2  501    0 -0.19346360035E+02  0.75306461785E+01  0.62281658900E+03  0.62316249552E+03  0.00000000000E+00 0.  1.
<mgrwt>
<rscale>  2 0.20760354E+02</rscale>
<asrwt>0</asrwt>
<pdfrwt beam="2">  1       21 0.22994980E-03 0.20760354E+02</pdfrwt>
<pdfrwt beam="1">  1        2 0.10838602E+00 0.20760354E+02</pdfrwt>
<totfact> 0.12878284E+07</totfact>
</mgrwt>
</event>
<event>
 4    1  0.2245608E+006  0.2051469E+02  0.7546771E-02  0.1735282E+00
          2   -1    0    0  502    0 -0.00000000000E+00  0.00000000000E+00  0.78606969326E+03  0.78606969326E+03  0.00000000000E+00 0.  1.
         21   -1    0    0  503  502  0.00000000000E+00 -0.00000000000E+00 -0.10889727651E+01  0.10889727651E+01  0.00000000000E+00 0. -1.
         21    1    1    2  503  501 -0.20256901512E+02 -0.32419678839E+01  0.11187219915E+03  0.11373759870E+03  0.00000000000E+00 0. -1.
          2    1    1    2  501    0  0.20256901512E+02  0.32419678839E+01  0.67310852135E+03  0.67342106733E+03  0.00000000000E+00 0.  1.
<mgrwt>
<rscale>  2 0.20514688E+02</rscale>
<asrwt>0</asrwt>
<pdfrwt beam="2">  1       21 0.16753490E-03 0.20514688E+02</pdfrwt>
<pdfrwt beam="1">  1        2 0.12093335E+00 0.20514688E+02</pdfrwt>
<totfact> 0.17944891E+07</totfact>
</mgrwt>
</event>
<event>
 4    1  0.2245608E+006  0.2561595E+02  0.7546771E-02  0.1652309E+00
         -1   -1    0    0    0  501 -0.00000000000E+00  0.00000000000E+00  0.13188329254E+03  0.13188329254E+03  0.00000000000E+00 0.  1.
         21   -1    0    0  503  502  0.00000000000E+00 -0.00000000000E+00 -0.14204848501E+02  0.14204848501E+02  0.00000000000E+00 0. -1.
         21    1    1    2  503  501 -0.22738699039E+02  0.11795275951E+02 -0.38863067990E-01  0.25615980932E+02  0.00000000000E+00 0. -1.
         -1    1    1    2    0  502  0.22738699039E+02 -0.11795275951E+02  0.11771730711E+03  0.12047216011E+03  0.00000000000E+00 0.  1.
<mgrwt>
<rscale>  2 0.25615951E+02</rscale>
<asrwt>0</asrwt>
<pdfrwt beam="2">  1       21 0.21853614E-02 0.25615951E+02</pdfrwt>
<pdfrwt beam="1">  1       -1 0.20289736E-01 0.25615951E+02</pdfrwt>
<totfact> 0.13828578E+06</totfact>
</mgrwt>
</event>
<event>
 4    1  0.2245608E+006  0.2018981E+02  0.7546771E-02  0.1741580E+00
         -2   -1    0    0    0  501 -0.00000000000E+00  0.00000000000E+00  0.24128138638E+03  0.24128138638E+03  0.00000000000E+00 0.  1.
         21   -1    0    0  503  502  0.00000000000E+00 -0.00000000000E+00 -0.19985363402E+01  0.19985363402E+01  0.00000000000E+00 0.  1.
         21    1    1    2  503  501 -0.58236645739E+00 -0.20181405895E+02  0.71803384285E+02  0.74587896400E+02  0.00000000000E+00 0.  1.
         -2    1    1    2    0  502  0.58236645739E+00  0.20181405895E+02  0.16747946575E+03  0.16869202632E+03  0.00000000000E+00 0.  1.
<mgrwt>
<rscale>  2 0.20189807E+02</rscale>
<asrwt>0</asrwt>
<pdfrwt beam="2">  1       21 0.30746732E-03 0.20189807E+02</pdfrwt>
<pdfrwt beam="1">  1       -2 0.37120190E-01 0.20189807E+02</pdfrwt>
<totfact> 0.79212160E+06</totfact>
</mgrwt>
</event>
<event>
 4    1  0.2245608E+006  0.2141868E+02  0.7546771E-02  0.1718504E+00
         21   -1    0    0  501  502  0.00000000000E+00  0.00000000000E+00  0.49520437164E+02  0.49520437164E+02  0.00000000000E+00 0.  1.
          3   -1    0    0  503    0 -0.00000000000E+00 -0.00000000000E+00 -0.39410560610E+02  0.39410560610E+02  0.00000000000E+00 0.  1.
         21    1    1    2  503  502 -0.29641836128E+01  0.21212577742E+02  0.43944709072E+02  0.48886575809E+02  0.00000000000E+00 0.  1.
          3    1    1    2  501    0  0.29641836128E+01 -0.21212577742E+02 -0.33834832518E+02  0.40044421964E+02  0.00000000000E+00 0.  1.
<mgrwt>
<rscale>  2 0.21418680E+02</rscale>
<asrwt>0</asrwt>
<pdfrwt beam="1">  1       21 0.76185288E-02 0.21418680E+02</pdfrwt>
<pdfrwt beam="2">  1        3 0.60631631E-02 0.21418680E+02</pdfrwt>
<totfact> 0.65415934E+05</totfact>
</mgrwt>
</event>
<event>
 4    1  0.2245608E+006  0.2032853E+02  0.7546771E-02  0.1738873E+00
          2   -1    0    0  502    0 -0.00000000000E+00  0.00000000000E+00  0.27108635830E+03  0.27108635830E+03  0.00000000000E+00 0. -1.
         21   -1    0    0  503  502  0.00000000000E+00 -0.00000000000E+00 -0.37998277858E+01  0.37998277858E+01  0.00000000000E+00 0. -1.
         21    1    1    2  503  501 -0.10805792181E+01 -0.20299788950E+02  0.27285129153E+02  0.34025392809E+02  0.00000000000E+00 0. -1.
          2    1    1    2  501    0  0.10805792181E+01  0.20299788950E+02  0.24000140136E+03  0.24086079328E+03  0.00000000000E+00 0. -1.
<mgrwt>
<rscale>  2 0.20328529E+02</rscale>
<asrwt>0</asrwt>
<pdfrwt beam="2">  1       21 0.58458910E-03 0.20328529E+02</pdfrwt>
<pdfrwt beam="1">  1        2 0.41705579E-01 0.20328529E+02</pdfrwt>
<totfact> 0.85539295E+06</totfact>
</mgrwt>
</event>
<event>
 4    1  0.2245608E+006  0.3240493E+02  0.7546771E-02  0.1572932E+00
         -4   -1    0    0    0  501 -0.00000000000E+00  0.00000000000E+00  0.23606687286E+01  0.23606687286E+01  0.00000000000E+00 0.  1.
         21   -1    0    0  503  502  0.00000000000E+00 -0.00000000000E+00 -0.57973686119E+03  0.57973686119E+03  0.00000000000E+00 0.  1.
         21    1    1    2  503  501 -0.15371678619E+02  0.28527021225E+02 -0.42909187468E+03  0.43031374178E+03  0.00000000000E+00 0.  1.
         -4    1    1    2    0  502  0.15371678619E+02 -0.28527021225E+02 -0.14828431778E+03  0.15178378815E+03  0.00000000000E+00 0.  1.
<mgrwt>
<rscale>  2 0.32404929E+02</rscale>
<asrwt>0</asrwt>
<pdfrwt beam="2">  1       21 0.89190139E-01 0.32404929E+02</pdfrwt>
<pdfrwt beam="1">  1       -4 0.36318040E-03 0.32404929E+02</pdfrwt>
<totfact> 0.43279602E+05</totfact>
</mgrwt>
</event>
<event>
 4    1  0.2245608E+006  0.2244354E+02  0.7546771E-02  0.1700692E+00
         21   -1    0    0  503  502  0.00000000000E+00  0.00000000000E+00  0.18366191033E+00  0.18366191033E+00  0.00000000000E+00 0. -1.
          1   -1    0    0  502    0 -0.00000000000E+00 -0.00000000000E+00 -0.27842982117E+04  0.27842982117E+04  0.00000000000E+00 0.  1.
         21    1    1    2  503  501 -0.96019121905E+01  0.20285854938E+02 -0.12216949846E+04  0.12219011204E+04  0.00000000000E+00 0. -1.
          1    1    1    2  501    0  0.96019121905E+01 -0.20285854938E+02 -0.15624195652E+04  0.15625807532E+04  0.00000000000E+00 0.  1.
<mgrwt>
<rscale>  2 0.22443543E+02</rscale>
<asrwt>0</asrwt>
<pdfrwt beam="1">  1       21 0.28255778E-04 0.22443543E+02</pdfrwt>
<pdfrwt beam="2">  1        1 0.42835206E+00 0.22443543E+02</pdfrwt>
<totfact> 0.78941457E+06</totfact>
</mgrwt>
</event>
<event>
 4    1  0.2245608E+006  0.5148645E+02  0.7546771E-02  0.1437485E+00
         21   -1    0    0  501  502  0.00000000000E+00  0.00000000000E+00  0.56090574165E+01  0.56090574165E+01  0.00000000000E+00 0. -1.
          1   -1    0    0  503    0 -0.00000000000E+00 -0.00000000000E+00 -0.69763854660E+03  0.69763854660E+03  0.00000000000E+00 0. -1.
         21    1    1    2  503  502  0.39112494834E+02 -0.33482341958E+02 -0.14630967479E+03  0.15510440165E+03  0.00000000000E+00 0. -1.
          1    1    1    2  501    0 -0.39112494834E+02  0.33482341958E+02 -0.54571981439E+03  0.54814320236E+03  0.00000000000E+00 0. -1.
<mgrwt>
<rscale>  2 0.51486449E+02</rscale>
<asrwt>0</asrwt>
<pdfrwt beam="1">  1       21 0.86293224E-03 0.51486449E+02</pdfrwt>
<pdfrwt beam="2">  1        1 0.10732897E+00 0.51486449E+02</pdfrwt>
<totfact> 0.13207893E+06</totfact>
</mgrwt>
</event>
<event>
 4    1  0.2245608E+006  0.2810767E+02  0.7546771E-02  0.1620000E+00
         21   -1    0    0  501  502  0.00000000000E+00  0.00000000000E+00  0.71055238342E+02  0.71055238342E+02  0.00000000000E+00 0.  1.
         -2   -1    0    0    0  501 -0.00000000000E+00 -0.00000000000E+00 -0.12909395625E+02  0.12909395625E+02  0.00000000000E+00 0.  1.
         21    1    1    2  503  502  0.26851922263E+02  0.83075541930E+01  0.44708916132E+02  0.52810305506E+02  0.00000000000E+00 0.  1.
         -2    1    1    2    0  503 -0.26851922263E+02 -0.83075541930E+01  0.13436926584E+02  0.31154328462E+02  0.00000000000E+00 0.  1.
<mgrwt>
<rscale>  2 0.28107671E+02</rscale>
<asrwt>0</asrwt>
<pdfrwt beam="1">  1       21 0.10931575E-01 0.28107671E+02</pdfrwt>
<pdfrwt beam="2">  1       -2 0.19860609E-02 0.28107671E+02</pdfrwt>
<totfact> 0.29315204E+06</totfact>
</mgrwt>
</event>
<event>
 4    1  0.2245608E+006  0.2072488E+02  0.7546771E-02  0.1731286E+00
         21   -1    0    0  503  502  0.00000000000E+00  0.00000000000E+00  0.36038879650E+01  0.36038879650E+01  0.00000000000E+00 0.  1.
         -3   -1    0    0    0  501 -0.00000000000E+00 -0.00000000000E+00 -0.12236516956E+04  0.12236516956E+04  0.00000000000E+00 0.  1.
         21    1    1    2  503  501 -0.73169113554E+01 -0.19390291185E+02 -0.27044911307E+02  0.34072684245E+02  0.00000000000E+00 0.  1.
         -3    1    1    2    0  502  0.73169113554E+01  0.19390291185E+02 -0.11930028963E+04  0.11931828993E+04  0.00000000000E+00 0.  1.
<mgrwt>
<rscale>  2 0.20724878E+02</rscale>
<asrwt>0</asrwt>
<pdfrwt beam="1">  1       21 0.55444419E-03 0.20724878E+02</pdfrwt>
<pdfrwt beam="2">  1       -3 0.18825414E+00 0.20724878E+02</pdfrwt>
<totfact> 0.61900639E+04</totfact>
</mgrwt>
</event>
<event>
 4    1  0.2245608E+006  0.2141299E+02  0.7546771E-02  0.1718606E+00
         21   -1    0    0  501  502  0.00000000000E+00  0.00000000000E+00  0.15256586482E+01  0.15256586482E+01  0.00000000000E+00 0. -1.
          1   -1    0    0  503    0 -0.00000000000E+00 -0.00000000000E+00 -0.32902746174E+03  0.32902746174E+03  0.00000000000E+00 0.  1.
         21    1    1    2  503  502  0.57958731055E+01  0.20613688354E+02 -0.11511602294E+03  0.11709062743E+03  0.00000000000E+00 0. -1.
          1    1    1    2  501    0 -0.57958731055E+01 -0.20613688354E+02 -0.21238578014E+03  0.21346249296E+03  0.00000000000E+00 0.  1.
<mgrwt>
<rscale>  2 0.21412994E+02</rscale>
<asrwt>0</asrwt>
<pdfrwt beam="1">  1       21 0.23471647E-03 0.21412994E+02</pdfrwt>
<pdfrwt beam="2">  1        1 0.50619663E-01 0.21412994E+02</pdfrwt>
<totfact> 0.19220975E+07</totfact>
</mgrwt>
</event>
<event>
 4    1  0.2245608E+006  0.2123516E+02  0.7546771E-02  0.1721825E+00
         21   -1    0    0  501  502  0.00000000000E+00  0.00000000000E+00  0.10921925393E+03  0.10921925393E+03  0.00000000000E+00 0.  1.
         -1   -1    0    0    0  501 -0.00000000000E+00 -0.00000000000E+00 -0.34137447138E+02  0.34137447138E+02  0.00000000000E+00 0.  1.
         21    1    1    2  503  502 -0.10502673657E+02 -0.18456049443E+02  0.10474511981E+03  0.10687596568E+03  0.00000000000E+00 0.  1.
         -1    1    1    2    0  503  0.10502673657E+02  0.18456049443E+02 -0.29663313022E+02  0.36480735388E+02  0.00000000000E+00 0.  1.
<mgrwt>
<rscale>  2 0.21235158E+02</rscale>
<asrwt>0</asrwt>
<pdfrwt beam="1">  1       21 0.16802962E-01 0.21235158E+02</pdfrwt>
<pdfrwt beam="2">  1       -1 0.52519150E-02 0.21235158E+02</pdfrwt>
<totfact> 0.35028605E+05</totfact>
</mgrwt>
</event>
<event>
 4    1  0.2245608E+006  0.2041741E+02  0.7546771E-02  0.1737153E+00
         21   -1    0    0  501  502  0.00000000000E+00  0.00000000000E+00  0.44985780467E+02  0.44985780467E+02  0.00000000000E+00 0.  1.
         -2   -1    0    0    0  501 -0.00000000000E+00 -0.00000000000E+00 -0.67093784328E+02  0.67093784328E+02  0.00000000000E+00 0.  1.
         21    1    1    2  503  502 -0.87539000809E+01 -0.18445586594E+02  0.40972051838E+02  0.45777499530E+02  0.00000000000E+00 0.  1.
         -2    1    1    2    0  503  0.87539000809E+01  0.18445586594E+02 -0.63080055699E+02  0.66302065265E+02  0.00000000000E+00 0.  1.
<mgrwt>
<rscale>  2 0.20417405E+02</rscale>
<asrwt>0</asrwt>
<pdfrwt beam="1">  1       21 0.69208893E-02 0.20417405E+02</pdfrwt>
<pdfrwt beam="2">  1       -2 0.10322121E-01 0.20417405E+02</pdfrwt>
<totfact> 0.55277858E+05</totfact>
</mgrwt>
</event>
<event>
 4    1  0.2245608E+006  0.2296396E+02  0.7546771E-02  0.1692095E+00
          2   -1    0    0  502    0 -0.00000000000E+00  0.00000000000E+00  0.39713090802E+02  0.39713090802E+02  0.00000000000E+00 0. -1.
         21   -1    0    0  503  502  0.00000000000E+00 -0.00000000000E+00 -0.58662832526E+02  0.58662832526E+02  0.00000000000E+00 0.  1.
         21    1    1    2  503  501 -0.48644813174E+00  0.22958810160E+02 -0.52739071398E+02  0.57521763252E+02  0.00000000000E+00 0.  1.
          2    1    1    2  501    0  0.48644813174E+00 -0.22958810160E+02  0.33789329673E+02  0.40854160076E+02  0.00000000000E+00 0. -1.
<mgrwt>
<rscale>  2 0.22963963E+02</rscale>
<asrwt>0</asrwt>
<pdfrwt beam="2">  1       21 0.90250511E-02 0.22963963E+02</pdfrwt>
<pdfrwt beam="1">  1        2 0.61097063E-02 0.22963963E+02</pdfrwt>
<totfact> 0.10392144E+06</totfact>
</mgrwt>
</event>
<event>
 4    1  0.2245608E+006  0.3509235E+02  0.7546771E-02  0.1547782E+00
          2   -1    0    0  503    0 -0.00000000000E+00  0.00000000000E+00  0.20418188865E+04  0.20418188865E+04  0.00000000000E+00 0. -1.
         21   -1    0    0  501  502  0.00000000000E+00 -0.00000000000E+00 -0.79872627674E+00  0.79872627674E+00  0.00000000000E+00 0.  1.
         21    1    1    2  503  502  0.38333933902E+01 -0.34882344696E+02  0.51510050516E+03  0.51629449280E+03  0.00000000000E+00 0.  1.
          2    1    1    2  501    0 -0.38333933902E+01  0.34882344696E+02  0.15259196551E+04  0.15263231200E+04  0.00000000000E+00 0. -1.
<mgrwt>
<rscale>  2 0.35092348E+02</rscale>
<asrwt>0</asrwt>
<pdfrwt beam="2">  1       21 0.12288260E-03 0.35092348E+02</pdfrwt>
<pdfrwt beam="1">  1        2 0.31412180E+00 0.35092348E+02</pdfrwt>
<totfact> 0.73694236E+06</totfact>
</mgrwt>
</event>
<event>
 4    1  0.2245608E+006  0.3128031E+02  0.7546771E-02  0.1584353E+00
         21   -1    0    0  501  502  0.00000000000E+00  0.00000000000E+00  0.63952608925E+00  0.63952608925E+00  0.00000000000E+00 0. -1.
          1   -1    0    0  503    0 -0.00000000000E+00 -0.00000000000E+00 -0.15441404345E+04  0.15441404345E+04  0.00000000000E+00 0.  1.
         21    1    1    2  503  502 -0.27273935586E+02  0.15316331832E+02 -0.84573490020E+03  0.84631316839E+03  0.00000000000E+00 0. -1.
          1    1    1    2  501    0  0.27273935586E+02 -0.15316331832E+02 -0.69776600820E+03  0.69846679218E+03  0.00000000000E+00 0.  1.
<mgrwt>
<rscale>  2 0.31280307E+02</rscale>
<asrwt>0</asrwt>
<pdfrwt beam="1">  1       21 0.98388588E-04 0.31280307E+02</pdfrwt>
<pdfrwt beam="2">  1        1 0.23756017E+00 0.31280307E+02</pdfrwt>
<totfact> 0.80727851E+06</totfact>
</mgrwt>
</event>
<event>
 4    1  0.2245608E+006  0.2068174E+02  0.7546771E-02  0.1732101E+00
          2   -1    0    0  503    0 -0.00000000000E+00  0.00000000000E+00  0.10718614772E+04  0.10718614772E+04  0.00000000000E+00 0. -1.
         21   -1    0    0  501  502  0.00000000000E+00 -0.00000000000E+00 -0.82618562461E+00  0.82618562461E+00  0.00000000000E+00 0. -1.
         21    1    1    2  503  502  0.18423949637E+02  0.93964162278E+01  0.14987641153E+03  0.15129664005E+03  0.00000000000E+00 0. -1.
          2    1    1    2  501    0 -0.18423949637E+02 -0.93964162278E+01  0.92115888003E+03  0.92139102276E+03  0.00000000000E+00 0. -1.
<mgrwt>
<rscale>  2 0.20681745E+02</rscale>
<asrwt>0</asrwt>
<pdfrwt beam="2">  1       21 0.12710634E-03 0.20681745E+02</pdfrwt>
<pdfrwt beam="1">  1        2 0.16490065E+00 0.20681745E+02</pdfrwt>
<totfact> 0.18434313E+07</totfact>
</mgrwt>
</event>
<event>
 4    1  0.2245608E+006  0.2774314E+02  0.7546771E-02  0.1624464E+00
         21   -1    0    0  501  502  0.00000000000E+00  0.00000000000E+00  0.29314069782E+01  0.29314069782E+01  0.00000000000E+00 0. -1.
         -1   -1    0    0    0  501 -0.00000000000E+00 -0.00000000000E+00 -0.79259341360E+03  0.79259341360E+03  0.00000000000E+00 0.  1.
         21    1    1    2  503  502  0.15715434774E+02  0.22862790027E+02 -0.69557656370E+02  0.74886244515E+02  0.00000000000E+00 0. -1.
         -1    1    1    2    0  503 -0.15715434774E+02 -0.22862790027E+02 -0.72010435025E+03  0.72063857606E+03  0.00000000000E+00 0.  1.
<mgrwt>
<rscale>  2 0.27743144E+02</rscale>
<asrwt>0</asrwt>
<pdfrwt beam="1">  1       21 0.45098511E-03 0.27743144E+02</pdfrwt>
<pdfrwt beam="2">  1       -1 0.12193761E+00 0.27743144E+02</pdfrwt>
<totfact> 0.61761977E+05</totfact>
</mgrwt>
</event>
<event>
 4    1  0.2245608E+006  0.4973952E+02  0.7546771E-02  0.1446752E+00
         21   -1    0    0  501  502  0.00000000000E+00  0.00000000000E+00  0.18221394790E+02  0.18221394790E+02  0.00000000000E+00 0.  1.
          1   -1    0    0  503    0 -0.00000000000E+00 -0.00000000000E+00 -0.14471090205E+03  0.14471090205E+03  0.00000000000E+00 0.  1.
         21    1    1    2  503  502  0.42747555466E+02  0.25429632968E+02 -0.43001392759E+02  0.65750585628E+02  0.00000000000E+00 0.  1.
          1    1    1    2  501    0 -0.42747555466E+02 -0.25429632968E+02 -0.83488114505E+02  0.97181711216E+02  0.00000000000E+00 0.  1.
<mgrwt>
<rscale>  2 0.49739519E+02</rscale>
<asrwt>0</asrwt>
<pdfrwt beam="1">  1       21 0.28032914E-02 0.49739519E+02</pdfrwt>
<pdfrwt beam="2">  1        1 0.22263217E-01 0.49739519E+02</pdfrwt>
<totfact> 0.14400226E+06</totfact>
</mgrwt>
</event>
<event>
 4    1  0.2245608E+006  0.2891217E+02  0.7546771E-02  0.1610434E+00
         21   -1    0    0  503  502  0.00000000000E+00  0.00000000000E+00  0.79694760267E+02  0.79694760267E+02  0.00000000000E+00 0. -1.
         -2   -1    0    0    0  501 -0.00000000000E+00 -0.00000000000E+00 -0.72969509818E+02  0.72969509818E+02  0.00000000000E+00 0. -1.
         21    1    1    2  503  501 -0.49941163487E+01 -0.28477577291E+02  0.73995874356E+02  0.79443709809E+02  0.00000000000E+00 0. -1.
         -2    1    1    2    0  502  0.49941163487E+01  0.28477577291E+02 -0.67270623906E+02  0.73220560276E+02  0.00000000000E+00 0. -1.
<mgrwt>
<rscale>  2 0.28912171E+02</rscale>
<asrwt>0</asrwt>
<pdfrwt beam="1">  1       21 0.12260732E-01 0.28912171E+02</pdfrwt>
<pdfrwt beam="2">  1       -2 0.11226078E-01 0.28912171E+02</pdfrwt>
<totfact> 0.20236859E+05</totfact>
</mgrwt>
</event>
<event>
 4    1  0.2245608E+006  0.2450016E+02  0.7546771E-02  0.1668287E+00
         21   -1    0    0  501  502  0.00000000000E+00  0.00000000000E+00  0.64469127636E+01  0.64469127636E+01  0.00000000000E+00 0.  1.
          1   -1    0    0  503    0 -0.00000000000E+00 -0.00000000000E+00 -0.15244373257E+03  0.15244373257E+03  0.00000000000E+00 0.  1.
         21    1    1    2  503  502 -0.21862845202E+02  0.11057742292E+02 -0.23433702621E+02  0.33902744483E+02  0.00000000000E+00 0.  1.
          1    1    1    2  501    0  0.21862845202E+02 -0.11057742292E+02 -0.12256311719E+03  0.12498790085E+03  0.00000000000E+00 0.  1.
<mgrwt>
<rscale>  2 0.24500156E+02</rscale>
<asrwt>0</asrwt>
<pdfrwt beam="1">  1       21 0.99183273E-03 0.24500156E+02</pdfrwt>
<pdfrwt beam="2">  1        1 0.23452882E-01 0.24500156E+02</pdfrwt>
<totfact> 0.58321558E+06</totfact>
</mgrwt>
</event>
<event>
 4    1  0.2245608E+006  0.2083264E+02  0.7546771E-02  0.1729260E+00
          1   -1    0    0  503    0 -0.00000000000E+00  0.00000000000E+00  0.11064883620E+04  0.11064883620E+04  0.00000000000E+00 0. -1.
         21   -1    0    0  501  502  0.00000000000E+00 -0.00000000000E+00 -0.42205725189E+01  0.42205725189E+01  0.00000000000E+00 0.  1.
         21    1    1    2  503  502 -0.19672360904E+02  0.68554430174E+01  0.22213965862E+02  0.30454214188E+02  0.00000000000E+00 0.  1.
          1    1    1    2  501    0  0.19672360904E+02 -0.68554430174E+01  0.10800538236E+04  0.10802547203E+04  0.00000000000E+00 0. -1.
<mgrwt>
<rscale>  2 0.20832640E+02</rscale>
<asrwt>0</asrwt>
<pdfrwt beam="2">  1       21 0.64931973E-03 0.20832640E+02</pdfrwt>
<pdfrwt beam="1">  1        1 0.17022875E+00 0.20832640E+02</pdfrwt>
<totfact> 0.89514124E+05</totfact>
</mgrwt>
</event>
<event>
 4    1  0.2245608E+006  0.2932044E+02  0.7546771E-02  0.1605724E+00
         -2   -1    0    0    0  501 -0.00000000000E+00  0.00000000000E+00  0.26997864563E+03  0.26997864563E+03  0.00000000000E+00 0.  1.
         21   -1    0    0  501  502  0.00000000000E+00 -0.00000000000E+00 -0.37027274924E+02  0.37027274924E+02  0.00000000000E+00 0.  1.
         21    1    1    2  503  502  0.28538987743E+02 -0.67241715146E+01 -0.30278419443E+02  0.42148202665E+02  0.00000000000E+00 0.  1.
         -2    1    1    2    0  503 -0.28538987743E+02  0.67241715146E+01  0.26322979014E+03  0.26485771788E+03  0.00000000000E+00 0.  1.
<mgrwt>
<rscale>  2 0.29320442E+02</rscale>
<asrwt>0</asrwt>
<pdfrwt beam="2">  1       21 0.56965040E-02 0.29320442E+02</pdfrwt>
<pdfrwt beam="1">  1       -2 0.41535175E-01 0.29320442E+02</pdfrwt>
<totfact> 0.82732738E+04</totfact>
</mgrwt>
</event>
<event>
 4    1  0.2245608E+006  0.2800478E+02  0.7546771E-02  0.1621252E+00
          2   -1    0    0  503    0 -0.00000000000E+00  0.00000000000E+00  0.34894191290E+03  0.34894191290E+03  0.00000000000E+00 0. -1.
         21   -1    0    0  501  502  0.00000000000E+00 -0.00000000000E+00 -0.24220537445E+01  0.24220537445E+01  0.00000000000E+00 0. -1.
         21    1    1    2  503  502  0.28004482563E+02 -0.12877180381E+00  0.12610509821E+03  0.12917725581E+03  0.00000000000E+00 0. -1.
          2    1    1    2  501    0 -0.28004482563E+02  0.12877180381E+00  0.22041476095E+03  0.22218671083E+03  0.00000000000E+00 0. -1.
<mgrwt>
<rscale>  2 0.28004779E+02</rscale>
<asrwt>0</asrwt>
<pdfrwt beam="2">  1       21 0.37262393E-03 0.28004779E+02</pdfrwt>
<pdfrwt beam="1">  1        2 0.53683331E-01 0.28004779E+02</pdfrwt>
<totfact> 0.14148854E+07</totfact>
</mgrwt>
</event>
<event>
 4    1  0.2245608E+006  0.2936696E+02  0.7546771E-02  0.1605193E+00
         21   -1    0    0  501  502  0.00000000000E+00  0.00000000000E+00  0.13774395928E+02  0.13774395928E+02  0.00000000000E+00 0. -1.
          1   -1    0    0  503    0 -0.00000000000E+00 -0.00000000000E+00 -0.63459311646E+02  0.63459311646E+02  0.00000000000E+00 0. -1.
         21    1    1    2  503  502 -0.90591207516E+01 -0.27934754778E+02 -0.20375599819E+02  0.35743296732E+02  0.00000000000E+00 0. -1.
          1    1    1    2  501    0  0.90591207516E+01  0.27934754778E+02 -0.29309315900E+02  0.41490410842E+02  0.00000000000E+00 0. -1.
<mgrwt>
<rscale>  2 0.29366958E+02</rscale>
<asrwt>0</asrwt>
<pdfrwt beam="1">  1       21 0.21191378E-02 0.29366958E+02</pdfrwt>
<pdfrwt beam="2">  1        1 0.97629710E-02 0.29366958E+02</pdfrwt>
<totfact> 0.55899951E+06</totfact>
</mgrwt>
</event>
<event>
 4    1  0.2245608E+006  0.2401605E+02  0.7546771E-02  0.1675551E+00
         21   -1    0    0  503  502  0.00000000000E+00  0.00000000000E+00  0.82854144484E+03  0.82854144484E+03  0.00000000000E+00 0.  1.
          2   -1    0    0  502    0 -0.00000000000E+00 -0.00000000000E+00 -0.33346484949E+03  0.33346484949E+03  0.00000000000E+00 0.  1.
         21    1    1    2  503  501  0.22785761611E+02 -0.75881318499E+01  0.82793468868E+03  0.82828293439E+03  0.00000000000E+00 0.  1.
          2    1    1    2  501    0 -0.22785761611E+02  0.75881318499E+01 -0.33285809333E+03  0.33372335994E+03  0.00000000000E+00 0.  1.
<mgrwt>
<rscale>  2 0.24016050E+02</rscale>
<asrwt>0</asrwt>
<pdfrwt beam="1">  1       21 0.12746791E+00 0.24016050E+02</pdfrwt>
<pdfrwt beam="2">  1        2 0.51302285E-01 0.24016050E+02</pdfrwt>
<totfact> 0.70252165E+02</totfact>
</mgrwt>
</event>
<event>
 4    1  0.2245608E+006  0.2317289E+02  0.7546771E-02  0.1688723E+00
         21   -1    0    0  501  502  0.00000000000E+00  0.00000000000E+00  0.39975864411E+01  0.39975864411E+01  0.00000000000E+00 0.  1.
         -2   -1    0    0    0  501 -0.00000000000E+00 -0.00000000000E+00 -0.21525911087E+03  0.21525911087E+03  0.00000000000E+00 0. -1.
         21    1    1    2  503  502  0.50688974022E+01  0.22611702374E+02 -0.38410036189E+02  0.44858819481E+02  0.00000000000E+00 0.  1.
         -2    1    1    2    0  503 -0.50688974022E+01 -0.22611702374E+02 -0.17285148824E+03  0.17439787783E+03  0.00000000000E+00 0. -1.
<mgrwt>
<rscale>  2 0.23172889E+02</rscale>
<asrwt>0</asrwt>
<pdfrwt beam="1">  1       21 0.61501323E-03 0.23172889E+02</pdfrwt>
<pdfrwt beam="2">  1       -2 0.33116790E-01 0.23172889E+02</pdfrwt>
<totfact> 0.36569059E+06</totfact>
</mgrwt>
</event>
<event>
 4    1  0.2245608E+006  0.2024730E+02  0.7546771E-02  0.1740454E+00
          2   -1    0    0  502    0 -0.00000000000E+00  0.00000000000E+00  0.24515656466E+03  0.24515656466E+03  0.00000000000E+00 0.  1.
         21   -1    0    0  503  502  0.00000000000E+00 -0.00000000000E+00 -0.54891502280E+01  0.54891502280E+01  0.00000000000E+00 0.  1.
         21    1    1    2  503  501  0.59508885375E+00 -0.20238552899E+02  0.15329100790E+02  0.25395560345E+02  0.00000000000E+00 0.  1.
          2    1    1    2  501    0 -0.59508885375E+00  0.20238552899E+02  0.22433831365E+03  0.22525015455E+03  0.00000000000E+00 0.  1.
<mgrwt>
<rscale>  2 0.20247300E+02</rscale>
<asrwt>0</asrwt>
<pdfrwt beam="2">  1       21 0.84448484E-03 0.20247300E+02</pdfrwt>
<pdfrwt beam="1">  1        2 0.37716386E-01 0.20247300E+02</pdfrwt>
<totfact> 0.54711353E+06</totfact>
</mgrwt>
</event>
<event>
 4    1  0.2245608E+006  0.2087007E+02  0.7546771E-02  0.1728559E+00
         21   -1    0    0  501  502  0.00000000000E+00  0.00000000000E+00  0.35687818617E+03  0.35687818617E+03  0.00000000000E+00 0.  1.
          2   -1    0    0  503    0 -0.00000000000E+00 -0.00000000000E+00 -0.41471432394E+01  0.41471432394E+01  0.00000000000E+00 0. -1.
         21    1    1    2  503  502 -0.20516506594E+02  0.38252867614E+01  0.32800773785E+03  0.32867101477E+03  0.00000000000E+00 0.  1.
          2    1    1    2  501    0  0.20516506594E+02 -0.38252867614E+01  0.24723305086E+02  0.32354314643E+02  0.00000000000E+00 0. -1.
<mgrwt>
<rscale>  2 0.20870071E+02</rscale>
<asrwt>0</asrwt>
<pdfrwt beam="1">  1       21 0.54904312E-01 0.20870071E+02</pdfrwt>
<pdfrwt beam="2">  1        2 0.63802232E-03 0.20870071E+02</pdfrwt>
<totfact> 0.73102584E+05</totfact>
</mgrwt>
</event>
<event>
 4    1  0.2245608E+006  0.3887399E+02  0.7546771E-02  0.1516665E+00
          1   -1    0    0  503    0 -0.00000000000E+00  0.00000000000E+00  0.46880141265E+03  0.46880141265E+03  0.00000000000E+00 0.  1.
         21   -1    0    0  501  502  0.00000000000E+00 -0.00000000000E+00 -0.23752334435E+02  0.23752334435E+02  0.00000000000E+00 0. -1.
         21    1    1    2  503  502 -0.37179921172E+02  0.11350782834E+02 -0.64317117027E+01  0.39402458359E+02  0.00000000000E+00 0. -1.
          1    1    1    2  501    0  0.37179921172E+02 -0.11350782834E+02  0.45148078992E+03  0.45315128873E+03  0.00000000000E+00 0.  1.
<mgrwt>
<rscale>  2 0.38873986E+02</rscale>
<asrwt>0</asrwt>
<pdfrwt beam="2">  1       21 0.36542057E-02 0.38873986E+02</pdfrwt>
<pdfrwt beam="1">  1        1 0.72123287E-01 0.38873986E+02</pdfrwt>
<totfact> 0.22328857E+05</totfact>
</mgrwt>
</event>
<event>
 4    1  0.2245608E+006  0.3637356E+02  0.7546771E-02  0.1536731E+00
          2   -1    0    0  503    0 -0.00000000000E+00  0.00000000000E+00  0.10033125312E+04  0.10033125312E+04  0.00000000000E+00 0. -1.
         21   -1    0    0  501  502  0.00000000000E+00 -0.00000000000E+00 -0.15647069064E+02  0.15647069064E+02  0.00000000000E+00 0.  1.
         21    1    1    2  503  502 -0.36350667864E+02 -0.12901580699E+01  0.62937523734E+01  0.36914047204E+02  0.00000000000E+00 0.  1.
          2    1    1    2  501    0  0.36350667864E+02  0.12901580699E+01  0.98137170974E+03  0.98204555304E+03  0.00000000000E+00 0. -1.
<mgrwt>
<rscale>  2 0.36373556E+02</rscale>
<asrwt>0</asrwt>
<pdfrwt beam="2">  1       21 0.24072422E-02 0.36373556E+02</pdfrwt>
<pdfrwt beam="1">  1        2 0.15435572E+00 0.36373556E+02</pdfrwt>
<totfact> 0.27717866E+05</totfact>
</mgrwt>
</event>
<event>
 4    1  0.2245608E+006  0.3680976E+02  0.7546771E-02  0.1533093E+00
         21   -1    0    0  501  502  0.00000000000E+00  0.00000000000E+00  0.78734503868E+02  0.78734503868E+02  0.00000000000E+00 0.  1.
          4   -1    0    0  503    0 -0.00000000000E+00 -0.00000000000E+00 -0.21711299635E+02  0.21711299635E+02  0.00000000000E+00 0. -1.
         21    1    1    2  503  502  0.12653095418E+02 -0.34566712826E+02  0.51381596232E+02  0.63206225094E+02  0.00000000000E+00 0.  1.
          4    1    1    2  501    0 -0.12653095418E+02  0.34566712826E+02  0.56416080009E+01  0.37239578409E+02  0.00000000000E+00 0. -1.
<mgrwt>
<rscale>  2 0.36809760E+02</rscale>
<asrwt>0</asrwt>
<pdfrwt beam="1">  1       21 0.12113000E-01 0.36809760E+02</pdfrwt>
<pdfrwt beam="2">  1        4 0.33402000E-02 0.36809760E+02</pdfrwt>
<totfact> 0.76159152E+05</totfact>
</mgrwt>
</event>
<event>
 4    1  0.2245608E+006  0.2105753E+02  0.7546771E-02  0.1725080E+00
         21   -1    0    0  503  502  0.00000000000E+00  0.00000000000E+00  0.38701076397E+01  0.38701076397E+01  0.00000000000E+00 0. -1.
         -4   -1    0    0    0  501 -0.00000000000E+00 -0.00000000000E+00 -0.46286787973E+03  0.46286787973E+03  0.00000000000E+00 0.  1.
         21    1    1    2  503  501  0.13440524429E+02  0.16210245322E+02 -0.27063430097E+02  0.34290654688E+02  0.00000000000E+00 0. -1.
         -4    1    1    2    0  502 -0.13440524429E+02 -0.16210245322E+02 -0.43193434199E+03  0.43244733268E+03  0.00000000000E+00 0.  1.
<mgrwt>
<rscale>  2 0.21057534E+02</rscale>
<asrwt>0</asrwt>
<pdfrwt beam="1">  1       21 0.59540130E-03 0.21057534E+02</pdfrwt>
<pdfrwt beam="2">  1       -4 0.71210428E-01 0.21057534E+02</pdfrwt>
<totfact> 0.36764621E+05</totfact>
</mgrwt>
</event>
<event>
 4    1  0.2245608E+006  0.2775379E+02  0.7546771E-02  0.1624333E+00
          1   -1    0    0  503    0 -0.00000000000E+00  0.00000000000E+00  0.73208131073E+02  0.73208131073E+02  0.00000000000E+00 0.  1.
         21   -1    0    0  501  502  0.00000000000E+00 -0.00000000000E+00 -0.73073454719E+02  0.73073454719E+02  0.00000000000E+00 0. -1.
         21    1    1    2  503  502 -0.24673050740E+02 -0.12708797805E+02 -0.67603201633E+02  0.73078490991E+02  0.00000000000E+00 0. -1.
          1    1    1    2  501    0  0.24673050740E+02  0.12708797805E+02  0.67737877986E+02  0.73203094801E+02  0.00000000000E+00 0.  1.
<mgrwt>
<rscale>  2 0.27753792E+02</rscale>
<asrwt>0</asrwt>
<pdfrwt beam="2">  1       21 0.11242070E-01 0.27753792E+02</pdfrwt>
<pdfrwt beam="1">  1        1 0.11262789E-01 0.27753792E+02</pdfrwt>
<totfact> 0.31608623E+05</totfact>
</mgrwt>
</event>
<event>
 4    1  0.2245608E+006  0.2169148E+02  0.7546771E-02  0.1713643E+00
         -3   -1    0    0    0  501 -0.00000000000E+00  0.00000000000E+00  0.24594719067E+03  0.24594719067E+03  0.00000000000E+00 0. -1.
         21   -1    0    0  501  502  0.00000000000E+00 -0.00000000000E+00 -0.62276419968E+01  0.62276419968E+01  0.00000000000E+00 0. -1.
         21    1    1    2  503  502  0.21027700226E+02 -0.53250536070E+01  0.14910963563E+02  0.26322180896E+02  0.00000000000E+00 0. -1.
         -3    1    1    2    0  503 -0.21027700226E+02  0.53250536070E+01  0.22480858511E+03  0.22585265177E+03  0.00000000000E+00 0. -1.
<mgrwt>
<rscale>  2 0.21691482E+02</rscale>
<asrwt>0</asrwt>
<pdfrwt beam="2">  1       21 0.95809896E-03 0.21691482E+02</pdfrwt>
<pdfrwt beam="1">  1       -3 0.37838022E-01 0.21691482E+02</pdfrwt>
<totfact> 0.81528421E+05</totfact>
</mgrwt>
</event>
<event>
 4    1  0.2245608E+006  0.3083039E+02  0.7546771E-02  0.1589087E+00
          2   -1    0    0  502    0 -0.00000000000E+00  0.00000000000E+00  0.11978397120E+04  0.11978397120E+04  0.00000000000E+00 0.  1.
         21   -1    0    0  503  502  0.00000000000E+00 -0.00000000000E+00 -0.12402034467E+01  0.12402034467E+01  0.00000000000E+00 0.  1.
         21    1    1    2  503  501  0.22873520820E+02  0.20671593513E+02  0.23849210492E+03  0.24047660352E+03  0.00000000000E+00 0.  1.
          2    1    1    2  501    0 -0.22873520820E+02 -0.20671593513E+02  0.95810740360E+03  0.95860331189E+03  0.00000000000E+00 0.  1.
<mgrwt>
<rscale>  2 0.30830387E+02</rscale>
<asrwt>0</asrwt>
<pdfrwt beam="2">  1       21 0.19080149E-03 0.30830387E+02</pdfrwt>
<pdfrwt beam="1">  1        2 0.18428211E+00 0.30830387E+02</pdfrwt>
<totfact> 0.97261064E+06</totfact>
</mgrwt>
</event>
<event>
 4    1  0.2245608E+006  0.2370451E+02  0.7546771E-02  0.1680338E+00
         -4   -1    0    0    0  501 -0.00000000000E+00  0.00000000000E+00  0.22605568978E+03  0.22605568978E+03  0.00000000000E+00 0. -1.
         21   -1    0    0  503  502  0.00000000000E+00 -0.00000000000E+00 -0.29447085622E+01  0.29447085622E+01  0.00000000000E+00 0. -1.
         21    1    1    2  503  501 -0.22761691699E+02  0.66188588493E+01  0.66348959605E+02  0.70456286747E+02  0.00000000000E+00 0. -1.
         -4    1    1    2    0  502  0.22761691699E+02 -0.66188588493E+01  0.15676202161E+03  0.15854411159E+03  0.00000000000E+00 0. -1.
<mgrwt>
<rscale>  2 0.23704512E+02</rscale>
<asrwt>0</asrwt>
<pdfrwt beam="2">  1       21 0.45303226E-03 0.23704512E+02</pdfrwt>
<pdfrwt beam="1">  1       -4 0.34777785E-01 0.23704512E+02</pdfrwt>
<totfact> 0.23341290E+06</totfact>
</mgrwt>
</event>
<event>
 4    1  0.2245608E+006  0.2422013E+02  0.7546771E-02  0.1672463E+00
         21   -1    0    0  503  502  0.00000000000E+00  0.00000000000E+00  0.89094950981E+02  0.89094950981E+02  0.00000000000E+00 0.  1.
          2   -1    0    0  502    0 -0.00000000000E+00 -0.00000000000E+00 -0.12842144679E+04  0.12842144679E+04  0.00000000000E+00 0.  1.
         21    1    1    2  503  501  0.76781504412E+01 -0.22970861548E+02  0.87332454497E+02  0.90628759690E+02  0.00000000000E+00 0.  1.
          2    1    1    2  501    0 -0.76781504412E+01  0.22970861548E+02 -0.12824519714E+04  0.12826806592E+04  0.00000000000E+00 0.  1.
<mgrwt>
<rscale>  2 0.24220125E+02</rscale>
<asrwt>0</asrwt>
<pdfrwt beam="1">  1       21 0.13706915E-01 0.24220125E+02</pdfrwt>
<pdfrwt beam="2">  1        2 0.19757146E+00 0.24220125E+02</pdfrwt>
<totfact> 0.11581431E+04</totfact>
</mgrwt>
</event>
<event>
 4    1  0.2245608E+006  0.2048334E+02  0.7546771E-02  0.1735884E+00
         -1   -1    0    0    0  501 -0.00000000000E+00  0.00000000000E+00  0.61869363652E+03  0.61869363652E+03  0.00000000000E+00 0. -1.
         21   -1    0    0  501  502  0.00000000000E+00 -0.00000000000E+00 -0.95623902864E+00  0.95623902864E+00  0.00000000000E+00 0. -1.
         21    1    1    2  503  502 -0.11829303009E+02  0.16722287981E+02  0.14178858243E+03  0.14326049502E+03  0.00000000000E+00 0. -1.
         -1    1    1    2    0  503  0.11829303009E+02 -0.16722287981E+02  0.47594881506E+03  0.47638938053E+03  0.00000000000E+00 0. -1.
<mgrwt>
<rscale>  2 0.20483343E+02</rscale>
<asrwt>0</asrwt>
<pdfrwt beam="2">  1       21 0.14711419E-03 0.20483343E+02</pdfrwt>
<pdfrwt beam="1">  1       -1 0.95183317E-01 0.20483343E+02</pdfrwt>
<totfact> 0.49828097E+06</totfact>
</mgrwt>
</event>
<event>
 4    1  0.2245608E+006  0.2265403E+02  0.7546771E-02  0.1697180E+00
          3   -1    0    0  503    0 -0.00000000000E+00  0.00000000000E+00  0.70765875679E+02  0.70765875679E+02  0.00000000000E+00 0. -1.
         21   -1    0    0  501  502  0.00000000000E+00 -0.00000000000E+00 -0.34039603351E+02  0.34039603351E+02  0.00000000000E+00 0. -1.
         21    1    1    2  503  502  0.22649337472E+02  0.46131508352E+00 -0.28123422447E+02  0.36112770451E+02  0.00000000000E+00 0. -1.
          3    1    1    2  501    0 -0.22649337472E+02 -0.46131508352E+00  0.64849694775E+02  0.68692708579E+02  0.00000000000E+00 0. -1.
<mgrwt>
<rscale>  2 0.22654035E+02</rscale>
<asrwt>0</asrwt>
<pdfrwt beam="2">  1       21 0.52368621E-02 0.22654035E+02</pdfrwt>
<pdfrwt beam="1">  1        3 0.10887058E-01 0.22654035E+02</pdfrwt>
<totfact> 0.49237900E+05</totfact>
</mgrwt>
</event>
<event>
 4    1  0.2245608E+006  0.2196191E+02  0.7546771E-02  0.1708912E+00
         21   -1    0    0  503  502  0.00000000000E+00  0.00000000000E+00  0.80320695649E+01  0.80320695649E+01  0.00000000000E+00 0.  1.
          2   -1    0    0  502    0 -0.00000000000E+00 -0.00000000000E+00 -0.18381168303E+03  0.18381168303E+03  0.00000000000E+00 0. -1.
         21    1    1    2  503  501 -0.11951251951E+01 -0.21929365797E+02 -0.91808250929E+01  0.23803633291E+02  0.00000000000E+00 0.  1.
          2    1    1    2  501    0  0.11951251951E+01  0.21929365797E+02 -0.16659878837E+03  0.16804011930E+03  0.00000000000E+00 0. -1.
<mgrwt>
<rscale>  2 0.21961908E+02</rscale>
<asrwt>0</asrwt>
<pdfrwt beam="1">  1       21 0.12357031E-02 0.21961908E+02</pdfrwt>
<pdfrwt beam="2">  1        2 0.28278718E-01 0.21961908E+02</pdfrwt>
<totfact> 0.42165106E+06</totfact>
</mgrwt>
</event>
<event>
 4    1  0.2245608E+006  0.2281017E+02  0.7546771E-02  0.1694606E+00
         21   -1    0    0  503  502  0.00000000000E+00  0.00000000000E+00  0.15460337973E+03  0.15460337973E+03  0.00000000000E+00 0.  1.
          2   -1    0    0  502    0 -0.00000000000E+00 -0.00000000000E+00 -0.12796036488E+04  0.12796036488E+04  0.00000000000E+00 0.  1.
         21    1    1    2  503  501  0.18923813566E+02 -0.12735501810E+02  0.15365975313E+03  0.15534356588E+03  0.00000000000E+00 0.  1.
          2    1    1    2  501    0 -0.18923813566E+02  0.12735501810E+02 -0.12786600222E+04  0.12788634626E+04  0.00000000000E+00 0.  1.
<mgrwt>
<rscale>  2 0.22810167E+02</rscale>
<asrwt>0</asrwt>
<pdfrwt beam="1">  1       21 0.23785135E-01 0.22810167E+02</pdfrwt>
<pdfrwt beam="2">  1        2 0.19686210E+00 0.22810167E+02</pdfrwt>
<totfact> 0.44923797E+03</totfact>
</mgrwt>
</event>
<event>
 4    1  0.2245608E+006  0.4277000E+02  0.7546771E-02  0.1488763E+00
          2   -1    0    0  502    0 -0.00000000000E+00  0.00000000000E+00  0.19613854640E+04  0.19613854640E+04  0.00000000000E+00 0.  1.
         21   -1    0    0  503  502  0.00000000000E+00 -0.00000000000E+00 -0.38074049355E+01  0.38074049355E+01  0.00000000000E+00 0.  1.
         21    1    1    2  503  501 -0.11570523090E+02  0.41175187629E+02  0.12497838051E+03  0.13209416594E+03  0.00000000000E+00 0.  1.
          2    1    1    2  501    0  0.11570523090E+02 -0.41175187629E+02  0.18325996786E+04  0.18330987030E+04  0.00000000000E+00 0.  1.
<mgrwt>
<rscale>  2 0.42770002E+02</rscale>
<asrwt>0</asrwt>
<pdfrwt beam="2">  1       21 0.58575617E-03 0.42770002E+02</pdfrwt>
<pdfrwt beam="1">  1        2 0.30175080E+00 0.42770002E+02</pdfrwt>
<totfact> 0.82044326E+05</totfact>
</mgrwt>
</event>
<event>
 4    1  0.2245608E+006  0.2189554E+02  0.7546771E-02  0.1710065E+00
         -2   -1    0    0    0  501 -0.00000000000E+00  0.00000000000E+00  0.29241099159E+01  0.29241099159E+01  0.00000000000E+00 0.  1.
         21   -1    0    0  503  502  0.00000000000E+00 -0.00000000000E+00 -0.19758289829E+03  0.19758289829E+03  0.00000000000E+00 0.  1.
         21    1    1    2  503  501 -0.16916758389E+02 -0.13901008244E+02 -0.13869046215E+03  0.14040818721E+03  0.00000000000E+00 0.  1.
         -2    1    1    2    0  502  0.16916758389E+02  0.13901008244E+02 -0.55968326224E+02  0.60098820994E+02  0.00000000000E+00 0.  1.
<mgrwt>
<rscale>  2 0.21895542E+02</rscale>
<asrwt>0</asrwt>
<pdfrwt beam="2">  1       21 0.30397373E-01 0.21895542E+02</pdfrwt>
<pdfrwt beam="1">  1       -2 0.44986301E-03 0.21895542E+02</pdfrwt>
<totfact> 0.34685734E+06</totfact>
</mgrwt>
</event>
<event>
 4    1  0.2245608E+006  0.2049466E+02  0.7546771E-02  0.1735666E+00
          2   -1    0    0  502    0 -0.00000000000E+00  0.00000000000E+00  0.10227065136E+04  0.10227065136E+04  0.00000000000E+00 0.  1.
         21   -1    0    0  503  502  0.00000000000E+00 -0.00000000000E+00 -0.72894217920E+00  0.72894217920E+00  0.00000000000E+00 0.  1.
         21    1    1    2  503  501  0.20297170854E+02 -0.28382911034E+01  0.17287791133E+03  0.17408849263E+03  0.00000000000E+00 0.  1.
          2    1    1    2  501    0 -0.20297170854E+02  0.28382911034E+01  0.84909966011E+03  0.84934696317E+03  0.00000000000E+00 0.  1.
<mgrwt>
<rscale>  2 0.20494659E+02</rscale>
<asrwt>0</asrwt>
<pdfrwt beam="2">  1       21 0.11214577E-03 0.20494659E+02</pdfrwt>
<pdfrwt beam="1">  1        2 0.15733832E+00 0.20494659E+02</pdfrwt>
<totfact> 0.23322826E+07</totfact>
</mgrwt>
</event>
<event>
 4    1  0.2245608E+006  0.2150578E+02  0.7546771E-02  0.1716942E+00
          1   -1    0    0  503    0 -0.00000000000E+00  0.00000000000E+00  0.41007506241E+03  0.41007506241E+03  0.00000000000E+00 0.  1.
         21   -1    0    0  501  502  0.00000000000E+00 -0.00000000000E+00 -0.11450730008E+03  0.11450730008E+03  0.00000000000E+00 0. -1.
         21    1    1    2  503  502 -0.19693904981E+02  0.86399555271E+01 -0.11321238567E+03  0.11523689944E+03  0.00000000000E+00 0. -1.
          1    1    1    2  501    0  0.19693904981E+02 -0.86399555271E+01  0.40878014800E+03  0.40934546305E+03  0.00000000000E+00 0.  1.
<mgrwt>
<rscale>  2 0.21505784E+02</rscale>
<asrwt>0</asrwt>
<pdfrwt beam="2">  1       21 0.17616508E-01 0.21505784E+02</pdfrwt>
<pdfrwt beam="1">  1        1 0.63088470E-01 0.21505784E+02</pdfrwt>
<totfact> 0.18696081E+04</totfact>
</mgrwt>
</event>
<event>
 4    1  0.2245608E+006  0.2224570E+02  0.7546771E-02  0.1704037E+00
         -1   -1    0    0    0  501 -0.00000000000E+00  0.00000000000E+00  0.12783399862E+01  0.12783399862E+01  0.00000000000E+00 0.  1.
         21   -1    0    0  503  502  0.00000000000E+00 -0.00000000000E+00 -0.49328755844E+03  0.49328755844E+03  0.00000000000E+00 0. -1.
         21    1    1    2  503  501 -0.82978841963E+01  0.20640159941E+02 -0.36072479224E+03  0.36141008123E+03  0.00000000000E+00 0. -1.
         -1    1    1    2    0  502  0.82978841963E+01 -0.20640159941E+02 -0.13128442622E+03  0.13315581720E+03  0.00000000000E+00 0.  1.
<mgrwt>
<rscale>  2 0.22245698E+02</rscale>
<asrwt>0</asrwt>
<pdfrwt beam="2">  1       21 0.75890438E-01 0.22245698E+02</pdfrwt>
<pdfrwt beam="1">  1       -1 0.19666758E-03 0.22245698E+02</pdfrwt>
<totfact> 0.17827706E+06</totfact>
</mgrwt>
</event>
<event>
 4    1  0.2245608E+006  0.2986488E+02  0.7546771E-02  0.1599587E+00
         21   -1    0    0  503  502  0.00000000000E+00  0.00000000000E+00  0.12270137812E+01  0.12270137812E+01  0.00000000000E+00 0.  1.
          2   -1    0    0  502    0 -0.00000000000E+00 -0.00000000000E+00 -0.17657610984E+04  0.17657610984E+04  0.00000000000E+00 0.  1.
         21    1    1    2  503  501 -0.29864489433E+02  0.15302454741E+00 -0.20459856752E+03  0.20676674050E+03  0.00000000000E+00 0.  1.
          2    1    1    2  501    0  0.29864489433E+02 -0.15302454741E+00 -0.15599355171E+04  0.15602213717E+04  0.00000000000E+00 0.  1.
<mgrwt>
<rscale>  2 0.29864881E+02</rscale>
<asrwt>0</asrwt>
<pdfrwt beam="1">  1       21 0.18877169E-03 0.29864881E+02</pdfrwt>
<pdfrwt beam="2">  1        2 0.27165507E+00 0.29864881E+02</pdfrwt>
<totfact> 0.52094349E+06</totfact>
</mgrwt>
</event>
<event>
 4    1  0.2245608E+006  0.2468212E+02  0.7546771E-02  0.1665610E+00
          1   -1    0    0  503    0 -0.00000000000E+00  0.00000000000E+00  0.20598497893E+04  0.20598497893E+04  0.00000000000E+00 0. -1.
         21   -1    0    0  501  502  0.00000000000E+00 -0.00000000000E+00 -0.36963553360E+00  0.36963553360E+00  0.00000000000E+00 0.  1.
         21    1    1    2  503  502 -0.21015474829E+02 -0.12944379895E+02  0.56920051182E+03  0.56973540333E+03  0.00000000000E+00 0.  1.
          1    1    1    2  501    0  0.21015474829E+02  0.12944379895E+02  0.14902796419E+04  0.14904840215E+04  0.00000000000E+00 0. -1.
<mgrwt>
<rscale>  2 0.24682122E+02</rscale>
<asrwt>0</asrwt>
<pdfrwt beam="2">  1       21 0.56868655E-04 0.24682122E+02</pdfrwt>
<pdfrwt beam="1">  1        1 0.31689078E+00 0.24682122E+02</pdfrwt>
<totfact> 0.82962280E+06</totfact>
</mgrwt>
</event>
<event>
 4    1  0.2245608E+006  0.2332161E+02  0.7546771E-02  0.1686349E+00
          1   -1    0    0  503    0 -0.00000000000E+00  0.00000000000E+00  0.18710139645E+03  0.18710139645E+03  0.00000000000E+00 0.  1.
         21   -1    0    0  501  502  0.00000000000E+00 -0.00000000000E+00 -0.81904915915E+01  0.81904915915E+01  0.00000000000E+00 0.  1.
         21    1    1    2  503  502  0.19798132660E+02 -0.12326052865E+02  0.11029269248E+02  0.25798108771E+02  0.00000000000E+00 0.  1.
          1    1    1    2  501    0 -0.19798132660E+02  0.12326052865E+02  0.16788163561E+03  0.16949377927E+03  0.00000000000E+00 0.  1.
<mgrwt>
<rscale>  2 0.23321613E+02</rscale>
<asrwt>0</asrwt>
<pdfrwt beam="2">  1       21 0.12600758E-02 0.23321613E+02</pdfrwt>
<pdfrwt beam="1">  1        1 0.28784827E-01 0.23321613E+02</pdfrwt>
<totfact> 0.31543306E+06</totfact>
</mgrwt>
</event>
<event>
 4    1  0.2245608E+006  0.2184399E+02  0.7546771E-02  0.1710964E+00
         21   -1    0    0  503  502  0.00000000000E+00  0.00000000000E+00  0.69362594204E+01  0.69362594204E+01  0.00000000000E+00 0. -1.
         -1   -1    0    0    0  501 -0.00000000000E+00 -0.00000000000E+00 -0.83743485951E+02  0.83743485951E+02  0.00000000000E+00 0. -1.
         21    1    1    2  503  501 -0.20429132029E+02 -0.77337310462E+01 -0.19245835604E+02  0.29112921864E+02  0.00000000000E+00 0. -1.
         -1    1    1    2    0  502  0.20429132029E+02  0.77337310462E+01 -0.57561390926E+02  0.61566823507E+02  0.00000000000E+00 0. -1.
<mgrwt>
<rscale>  2 0.21843993E+02</rscale>
<asrwt>0</asrwt>
<pdfrwt beam="1">  1       21 0.10671168E-02 0.21843993E+02</pdfrwt>
<pdfrwt beam="2">  1       -1 0.12883613E-01 0.21843993E+02</pdfrwt>
<totfact> 0.77695553E+06</totfact>
</mgrwt>
</event>
<event>
 4    1  0.2245608E+006  0.2290342E+02  0.7546771E-02  0.1693080E+00
         21   -1    0    0  503  502  0.00000000000E+00  0.00000000000E+00  0.23945578524E+01  0.23945578524E+01  0.00000000000E+00 0. -1.
          3   -1    0    0  502    0 -0.00000000000E+00 -0.00000000000E+00 -0.30054366207E+03  0.30054366207E+03  0.00000000000E+00 0. -1.
         21    1    1    2  503  501  0.22752403207E+02 -0.26257975313E+01 -0.70208688972E+02  0.73850028243E+02  0.00000000000E+00 0. -1.
          3    1    1    2  501    0 -0.22752403207E+02  0.26257975313E+01 -0.22794041524E+03  0.22908819168E+03  0.00000000000E+00 0. -1.
<mgrwt>
<rscale>  2 0.22903420E+02</rscale>
<asrwt>0</asrwt>
<pdfrwt beam="1">  1       21 0.36839370E-03 0.22903420E+02</pdfrwt>
<pdfrwt beam="2">  1        3 0.46237464E-01 0.22903420E+02</pdfrwt>
<totfact> 0.23648637E+06</totfact>
</mgrwt>
</event>
<event>
 4    1  0.2245608E+006  0.2142720E+02  0.7546771E-02  0.1718351E+00
         21   -1    0    0  503  502  0.00000000000E+00  0.00000000000E+00  0.11059721057E+01  0.11059721057E+01  0.00000000000E+00 0.  1.
          2   -1    0    0  502    0 -0.00000000000E+00 -0.00000000000E+00 -0.16178232588E+04  0.16178232588E+04  0.00000000000E+00 0. -1.
         21    1    1    2  503  501 -0.38589822526E+01  0.21076835809E+02 -0.11043268210E+03  0.11249223097E+03  0.00000000000E+00 0.  1.
          2    1    1    2  501    0  0.38589822526E+01 -0.21076835809E+02 -0.15062846046E+04  0.15064369999E+04  0.00000000000E+00 0. -1.
<mgrwt>
<rscale>  2 0.21427197E+02</rscale>
<asrwt>0</asrwt>
<pdfrwt beam="1">  1       21 0.17014910E-03 0.21427197E+02</pdfrwt>
<pdfrwt beam="2">  1        2 0.24889656E+00 0.21427197E+02</pdfrwt>
<totfact> 0.66645579E+06</totfact>
</mgrwt>
</event>
<event>
 4    1  0.2245608E+006  0.2378267E+02  0.7546771E-02  0.1679129E+00
         21   -1    0    0  501  502  0.00000000000E+00  0.00000000000E+00  0.70189570220E+01  0.70189570220E+01  0.00000000000E+00 0. -1.
          3   -1    0    0  503    0 -0.00000000000E+00 -0.00000000000E+00 -0.13004632486E+03  0.13004632486E+03  0.00000000000E+00 0. -1.
         21    1    1    2  503  502 -0.16406509922E+02 -0.17217488373E+02 -0.19248205590E+02  0.30595896655E+02  0.00000000000E+00 0. -1.
          3    1    1    2  501    0  0.16406509922E+02  0.17217488373E+02 -0.10377916225E+03  0.10646938523E+03  0.00000000000E+00 0. -1.
<mgrwt>
<rscale>  2 0.23782672E+02</rscale>
<asrwt>0</asrwt>
<pdfrwt beam="1">  1       21 0.10798396E-02 0.23782672E+02</pdfrwt>
<pdfrwt beam="2">  1        3 0.20007127E-01 0.23782672E+02</pdfrwt>
<totfact> 0.21403254E+06</totfact>
</mgrwt>
</event>
<event>
 4    1  0.2245608E+006  0.2173978E+02  0.7546771E-02  0.1712792E+00
         21   -1    0    0  501  502  0.00000000000E+00  0.00000000000E+00  0.53636377662E+02  0.53636377662E+02  0.00000000000E+00 0. -1.
          2   -1    0    0  503    0 -0.00000000000E+00 -0.00000000000E+00 -0.12808251755E+02  0.12808251755E+02  0.00000000000E+00 0. -1.
         21    1    1    2  503  502 -0.15942253579E+02  0.14780485292E+02  0.38972323953E+02  0.44625779869E+02  0.00000000000E+00 0. -1.
          2    1    1    2  501    0  0.15942253579E+02 -0.14780485292E+02  0.18558019548E+01  0.21818849547E+02  0.00000000000E+00 0. -1.
<mgrwt>
<rscale>  2 0.21739784E+02</rscale>
<asrwt>0</asrwt>
<pdfrwt beam="1">  1       21 0.82517503E-02 0.21739784E+02</pdfrwt>
<pdfrwt beam="2">  1        2 0.19705003E-02 0.21739784E+02</pdfrwt>
<totfact> 0.48665472E+06</totfact>
</mgrwt>
</event>
<event>
 4    1  0.2245608E+006  0.3979696E+02  0.7546771E-02  0.1509711E+00
          2   -1    0    0  502    0 -0.00000000000E+00  0.00000000000E+00  0.23680754209E+04  0.23680754209E+04  0.00000000000E+00 0.  1.
         21   -1    0    0  503  502  0.00000000000E+00 -0.00000000000E+00 -0.63190856841E+01  0.63190856841E+01  0.00000000000E+00 0. -1.
         21    1    1    2  503  501  0.22229633196E+02 -0.33009722385E+02  0.58264086654E+02  0.70558501668E+02  0.00000000000E+00 0. -1.
          2    1    1    2  501    0 -0.22229633196E+02  0.33009722385E+02  0.23034922486E+04  0.23038360049E+04  0.00000000000E+00 0.  1.
<mgrwt>
<rscale>  2 0.39796964E+02</rscale>
<asrwt>0</asrwt>
<pdfrwt beam="2">  1       21 0.97216892E-03 0.39796964E+02</pdfrwt>
<pdfrwt beam="1">  1        2 0.36431859E+00 0.39796964E+02</pdfrwt>
<totfact> 0.23967491E+05</totfact>
</mgrwt>
</event>
<event>
 4    1  0.2245608E+006  0.3315723E+02  0.7546771E-02  0.1565601E+00
         21   -1    0    0  503  502  0.00000000000E+00  0.00000000000E+00  0.10581850017E+01  0.10581850017E+01  0.00000000000E+00 0. -1.
          1   -1    0    0  502    0 -0.00000000000E+00 -0.00000000000E+00 -0.11458223954E+04  0.11458223954E+04  0.00000000000E+00 0. -1.
         21    1    1    2  503  501  0.50877506255E+01  0.32764566901E+02 -0.39725196506E+03  0.39863332248E+03  0.00000000000E+00 0. -1.
          1    1    1    2  501    0 -0.50877506255E+01 -0.32764566901E+02 -0.74751224532E+03  0.74824725790E+03  0.00000000000E+00 0. -1.
<mgrwt>
<rscale>  2 0.33157232E+02</rscale>
<asrwt>0</asrwt>
<pdfrwt beam="1">  1       21 0.16279917E-03 0.33157232E+02</pdfrwt>
<pdfrwt beam="2">  1        1 0.17627877E+00 0.33157232E+02</pdfrwt>
<totfact> 0.69853023E+06</totfact>
</mgrwt>
</event>
<event>
 4    1  0.2245608E+006  0.2688964E+02  0.7546771E-02  0.1635255E+00
         21   -1    0    0  503  502  0.00000000000E+00  0.00000000000E+00  0.49883608082E+01  0.49883608082E+01  0.00000000000E+00 0. -1.
         -1   -1    0    0    0  501 -0.00000000000E+00 -0.00000000000E+00 -0.27104748623E+03  0.27104748623E+03  0.00000000000E+00 0. -1.
         21    1    1    2  503  501  0.11424315682E+02  0.24342093426E+02 -0.38890558259E+02  0.47281370780E+02  0.00000000000E+00 0. -1.
         -1    1    1    2    0  502 -0.11424315682E+02 -0.24342093426E+02 -0.22716856716E+03  0.22875447626E+03  0.00000000000E+00 0. -1.
<mgrwt>
<rscale>  2 0.26889636E+02</rscale>
<asrwt>0</asrwt>
<pdfrwt beam="1">  1       21 0.76743968E-03 0.26889636E+02</pdfrwt>
<pdfrwt beam="2">  1       -1 0.41699638E-01 0.26889636E+02</pdfrwt>
<totfact> 0.21773856E+06</totfact>
</mgrwt>
</event>
<event>
 4    1  0.2245608E+006  0.2185707E+02  0.7546771E-02  0.1710736E+00
         21   -1    0    0  501  502  0.00000000000E+00  0.00000000000E+00  0.83289203415E+00  0.83289203415E+00  0.00000000000E+00 0.  1.
          4   -1    0    0  503    0 -0.00000000000E+00 -0.00000000000E+00 -0.58676397950E+03  0.58676397950E+03  0.00000000000E+00 0.  1.
         21    1    1    2  503  502  0.10439341836E+02  0.19202903460E+02 -0.24892848074E+03  0.24988621387E+03  0.00000000000E+00 0.  1.
          4    1    1    2  501    0 -0.10439341836E+02 -0.19202903460E+02 -0.33700260672E+03  0.33771065766E+03  0.00000000000E+00 0.  1.
<mgrwt>
<rscale>  2 0.21857067E+02</rscale>
<asrwt>0</asrwt>
<pdfrwt beam="1">  1       21 0.12813752E-03 0.21857067E+02</pdfrwt>
<pdfrwt beam="2">  1        4 0.90271184E-01 0.21857067E+02</pdfrwt>
<totfact> 0.21100201E+06</totfact>
</mgrwt>
</event>
<event>
 4    1  0.2245608E+006  0.2444386E+02  0.7546771E-02  0.1669121E+00
         21   -1    0    0  501  502  0.00000000000E+00  0.00000000000E+00  0.10724479559E+01  0.10724479559E+01  0.00000000000E+00 0.  1.
          2   -1    0    0  503    0 -0.00000000000E+00 -0.00000000000E+00 -0.77388452783E+03  0.77388452783E+03  0.00000000000E+00 0.  1.
         21    1    1    2  503  502 -0.24284401403E+02  0.27875094261E+01 -0.18134422645E+03  0.18298423656E+03  0.00000000000E+00 0.  1.
          2    1    1    2  501    0  0.24284401403E+02 -0.27875094261E+01 -0.59146785342E+03  0.59197273923E+03  0.00000000000E+00 0.  1.
<mgrwt>
<rscale>  2 0.24443861E+02</rscale>
<asrwt>0</asrwt>
<pdfrwt beam="1">  1       21 0.16499139E-03 0.24443861E+02</pdfrwt>
<pdfrwt beam="2">  1        2 0.11905959E+00 0.24443861E+02</pdfrwt>
<totfact> 0.19605374E+07</totfact>
</mgrwt>
</event>
<event>
 4    1  0.2245608E+006  0.3801077E+02  0.7546771E-02  0.1523382E+00
          2   -1    0    0  502    0 -0.00000000000E+00  0.00000000000E+00  0.14719815770E+03  0.14719815770E+03  0.00000000000E+00 0.  1.
         21   -1    0    0  503  502  0.00000000000E+00 -0.00000000000E+00 -0.41202799304E+03  0.41202799304E+03  0.00000000000E+00 0. -1.
         21    1    1    2  503  501 -0.34856314193E+01  0.37850616744E+02 -0.40867740013E+03  0.41044127009E+03  0.00000000000E+00 0. -1.
          2    1    1    2  501    0  0.34856314193E+01 -0.37850616744E+02  0.14384756479E+03  0.14878488065E+03  0.00000000000E+00 0.  1.
<mgrwt>
<rscale>  2 0.38010772E+02</rscale>
<asrwt>0</asrwt>
<pdfrwt beam="2">  1       21 0.63388921E-01 0.38010772E+02</pdfrwt>
<pdfrwt beam="1">  1        2 0.22645871E-01 0.38010772E+02</pdfrwt>
<totfact> 0.71533355E+03</totfact>
</mgrwt>
</event>
<event>
 4    1  0.2245608E+006  0.2454289E+02  0.7546771E-02  0.1667656E+00
         -1   -1    0    0    0  501 -0.00000000000E+00  0.00000000000E+00  0.24515686960E+02  0.24515686960E+02  0.00000000000E+00 0.  1.
         21   -1    0    0  503  502  0.00000000000E+00 -0.00000000000E+00 -0.31457898796E+02  0.31457898796E+02  0.00000000000E+00 0.  1.
         21    1    1    2  503  501 -0.12469506269E+02 -0.21139179940E+02 -0.16566774866E+02  0.29611003776E+02  0.00000000000E+00 0.  1.
         -1    1    1    2    0  502  0.12469506269E+02  0.21139179940E+02  0.96245630313E+01  0.26362581980E+02  0.00000000000E+00 0.  1.
<mgrwt>
<rscale>  2 0.24542891E+02</rscale>
<asrwt>0</asrwt>
<pdfrwt beam="2">  1       21 0.48396767E-02 0.24542891E+02</pdfrwt>
<pdfrwt beam="1">  1       -1 0.37716441E-02 0.24542891E+02</pdfrwt>
<totfact> 0.44617909E+06</totfact>
</mgrwt>
</event>
<event>
 4    1  0.2245608E+006  0.2943361E+02  0.7546771E-02  0.1604435E+00
         21   -1    0    0  503  502  0.00000000000E+00  0.00000000000E+00  0.57666499933E+02  0.57666499933E+02  0.00000000000E+00 0.  1.
          1   -1    0    0  502    0 -0.00000000000E+00 -0.00000000000E+00 -0.39026758092E+02  0.39026758092E+02  0.00000000000E+00 0.  1.
         21    1    1    2  503  501  0.53086937463E+01 -0.28950908826E+02  0.47235866085E+02  0.55655766960E+02  0.00000000000E+00 0.  1.
          1    1    1    2  501    0 -0.53086937463E+01  0.28950908826E+02 -0.28596124243E+02  0.41037491065E+02  0.00000000000E+00 0.  1.
<mgrwt>
<rscale>  2 0.29433609E+02</rscale>
<asrwt>0</asrwt>
<pdfrwt beam="1">  1       21 0.88717693E-02 0.29433609E+02</pdfrwt>
<pdfrwt beam="2">  1        1 0.60041166E-02 0.29433609E+02</pdfrwt>
<totfact> 0.10526151E+06</totfact>
</mgrwt>
</event>
<event>
 4    1  0.2245608E+006  0.2199182E+02  0.7546771E-02  0.1708393E+00
         21   -1    0    0  501  502  0.00000000000E+00  0.00000000000E+00  0.28254944354E+03  0.28254944354E+03  0.00000000000E+00 0. -1.
          1   -1    0    0  503    0 -0.00000000000E+00 -0.00000000000E+00 -0.33295380419E+02  0.33295380419E+02  0.00000000000E+00 0. -1.
         21    1    1    2  503  502 -0.20831065506E+02 -0.70503202232E+01  0.27843652286E+03  0.27930366551E+03  0.00000000000E+00 0. -1.
          1    1    1    2  501    0  0.20831065506E+02  0.70503202232E+01 -0.29182459731E+02  0.36541158456E+02  0.00000000000E+00 0. -1.
<mgrwt>
<rscale>  2 0.21991824E+02</rscale>
<asrwt>0</asrwt>
<pdfrwt beam="1">  1       21 0.43469144E-01 0.21991824E+02</pdfrwt>
<pdfrwt beam="2">  1        1 0.51223664E-02 0.21991824E+02</pdfrwt>
<totfact> 0.75276848E+04</totfact>
</mgrwt>
</event>
<event>
 4    1  0.2245608E+006  0.2419334E+02  0.7546771E-02  0.1672866E+00
         21   -1    0    0  503  502  0.00000000000E+00  0.00000000000E+00  0.10322412119E+04  0.10322412119E+04  0.00000000000E+00 0.  1.
          1   -1    0    0  502    0 -0.00000000000E+00 -0.00000000000E+00 -0.21360729498E+03  0.21360729498E+03  0.00000000000E+00 0.  1.
         21    1    1    2  503  501  0.16703426024E+02  0.17501805006E+02  0.10314138642E+04  0.10316975704E+04  0.00000000000E+00 0.  1.
          1    1    1    2  501    0 -0.16703426024E+02 -0.17501805006E+02 -0.21277994726E+03  0.21415093644E+03  0.00000000000E+00 0.  1.
<mgrwt>
<rscale>  2 0.24193338E+02</rscale>
<asrwt>0</asrwt>
<pdfrwt beam="1">  1       21 0.15880634E+00 0.24193338E+02</pdfrwt>
<pdfrwt beam="2">  1        1 0.32862661E-01 0.24193338E+02</pdfrwt>
<totfact> 0.49309484E+02</totfact>
</mgrwt>
</event>
<event>
 4    1  0.2245608E+006  0.2406288E+02  0.7546771E-02  0.1674839E+00
          2   -1    0    0  503    0 -0.00000000000E+00  0.00000000000E+00  0.55689983618E+03  0.55689983618E+03  0.00000000000E+00 0. -1.
         21   -1    0    0  501  502  0.00000000000E+00 -0.00000000000E+00 -0.13530968369E+02  0.13530968369E+02  0.00000000000E+00 0.  1.
         21    1    1    2  503  502  0.23969834863E+02 -0.21140894596E+01 -0.23539390724E+01  0.24177745692E+02  0.00000000000E+00 0.  1.
          2    1    1    2  501    0 -0.23969834863E+02  0.21140894596E+01  0.54572280688E+03  0.54625305885E+03  0.00000000000E+00 0. -1.
<mgrwt>
<rscale>  2 0.24062883E+02</rscale>
<asrwt>0</asrwt>
<pdfrwt beam="2">  1       21 0.20816879E-02 0.24062883E+02</pdfrwt>
<pdfrwt beam="1">  1        2 0.85676880E-01 0.24062883E+02</pdfrwt>
<totfact> 0.64351487E+05</totfact>
</mgrwt>
</event>
<event>
 4    1  0.2245608E+006  0.2717706E+02  0.7546771E-02  0.1631567E+00
          4   -1    0    0  503    0 -0.00000000000E+00  0.00000000000E+00  0.12410089165E+04  0.12410089165E+04  0.00000000000E+00 0. -1.
         21   -1    0    0  501  502  0.00000000000E+00 -0.00000000000E+00 -0.18402186437E+01  0.18402186437E+01  0.00000000000E+00 0.  1.
         21    1    1    2  503  502 -0.62583124718E+01 -0.26446665039E+02  0.10843301930E+03  0.11178690550E+03  0.00000000000E+00 0.  1.
          4    1    1    2  501    0  0.62583124718E+01  0.26446665039E+02  0.11307356786E+04  0.11310622297E+04  0.00000000000E+00 0. -1.
<mgrwt>
<rscale>  2 0.27177060E+02</rscale>
<asrwt>0</asrwt>
<pdfrwt beam="2">  1       21 0.28311155E-03 0.27177060E+02</pdfrwt>
<pdfrwt beam="1">  1        4 0.19092378E+00 0.27177060E+02</pdfrwt>
<totfact> 0.12723510E+05</totfact>
</mgrwt>
</event>
<event>
 4    1  0.2245608E+006  0.4659114E+02  0.7546771E-02  0.1464646E+00
          3   -1    0    0  503    0 -0.00000000000E+00  0.00000000000E+00  0.31893400380E+03  0.31893400380E+03  0.00000000000E+00 0.  1.
         21   -1    0    0  501  502  0.00000000000E+00 -0.00000000000E+00 -0.28626709316E+02  0.28626709316E+02  0.00000000000E+00 0. -1.
         21    1    1    2  503  502 -0.45335921757E+02 -0.10741886700E+02 -0.65678939898E+01  0.47051792345E+02  0.00000000000E+00 0. -1.
          3    1    1    2  501    0  0.45335921757E+02  0.10741886700E+02  0.29687518847E+03  0.30050892077E+03  0.00000000000E+00 0.  1.
<mgrwt>
<rscale>  2 0.46591136E+02</rscale>
<asrwt>0</asrwt>
<pdfrwt beam="2">  1       21 0.44041093E-02 0.46591136E+02</pdfrwt>
<pdfrwt beam="1">  1        3 0.49066767E-01 0.46591136E+02</pdfrwt>
<totfact> 0.57088323E+04</totfact>
</mgrwt>
</event>
<event>
 4    1  0.2245608E+006  0.2351291E+02  0.7546771E-02  0.1683328E+00
          2   -1    0    0  503    0 -0.00000000000E+00  0.00000000000E+00  0.37782331404E+03  0.37782331404E+03  0.00000000000E+00 0.  1.
         21   -1    0    0  501  502  0.00000000000E+00 -0.00000000000E+00 -0.57980395229E+01  0.57980395229E+01  0.00000000000E+00 0.  1.
         21    1    1    2  503  502  0.15199825486E+02 -0.17939404682E+02  0.20162713870E+02  0.30974053105E+02  0.00000000000E+00 0.  1.
          2    1    1    2  501    0 -0.15199825486E+02  0.17939404682E+02  0.35186256065E+03  0.35264730046E+03  0.00000000000E+00 0.  1.
<mgrwt>
<rscale>  2 0.23512910E+02</rscale>
<asrwt>0</asrwt>
<pdfrwt beam="2">  1       21 0.89200637E-03 0.23512910E+02</pdfrwt>
<pdfrwt beam="1">  1        2 0.58126645E-01 0.23512910E+02</pdfrwt>
<totfact> 0.34222320E+06</totfact>
</mgrwt>
</event>
<event>
 4    1  0.2245608E+006  0.2166866E+02  0.7546771E-02  0.1714046E+00
         21   -1    0    0  503  502  0.00000000000E+00  0.00000000000E+00  0.26836016325E+03  0.26836016325E+03  0.00000000000E+00 0. -1.
         -4   -1    0    0    0  501 -0.00000000000E+00 -0.00000000000E+00 -0.13837432599E+03  0.13837432599E+03  0.00000000000E+00 0. -1.
         21    1    1    2  503  501 -0.17278301358E+02  0.13076352332E+02  0.26707036791E+03  0.26794796529E+03  0.00000000000E+00 0. -1.
         -4    1    1    2    0  502  0.17278301358E+02 -0.13076352332E+02 -0.13708453065E+03  0.13878652395E+03  0.00000000000E+00 0. -1.
<mgrwt>
<rscale>  2 0.21668657E+02</rscale>
<asrwt>0</asrwt>
<pdfrwt beam="1">  1       21 0.41286179E-01 0.21668657E+02</pdfrwt>
<pdfrwt beam="2">  1       -4 0.21288358E-01 0.21668657E+02</pdfrwt>
<totfact> 0.37868321E+03</totfact>
</mgrwt>
</event>
<event>
 4    1  0.2245608E+006  0.2115284E+02  0.7546771E-02  0.1723329E+00
          4   -1    0    0  503    0 -0.00000000000E+00  0.00000000000E+00  0.43606112909E+01  0.43606112909E+01  0.00000000000E+00 0. -1.
         21   -1    0    0  501  502  0.00000000000E+00 -0.00000000000E+00 -0.25632921974E+03  0.25632921974E+03  0.00000000000E+00 0. -1.
         21    1    1    2  503  502  0.21145127264E+02 -0.57104072599E+00 -0.22692332047E+03  0.22790707726E+03  0.00000000000E+00 0. -1.
          4    1    1    2  501    0 -0.21145127264E+02  0.57104072599E+00 -0.25045287981E+02  0.32782753768E+02  0.00000000000E+00 0. -1.
<mgrwt>
<rscale>  2 0.21152837E+02</rscale>
<asrwt>0</asrwt>
<pdfrwt beam="2">  1       21 0.39435265E-01 0.21152837E+02</pdfrwt>
<pdfrwt beam="1">  1        4 0.67086326E-03 0.21152837E+02</pdfrwt>
<totfact> 0.81003888E+05</totfact>
</mgrwt>
</event>
<event>
 4    1  0.2245608E+006  0.2085864E+02  0.7546771E-02  0.1728773E+00
         21   -1    0    0  503  502  0.00000000000E+00  0.00000000000E+00  0.34283210314E+02  0.34283210314E+02  0.00000000000E+00 0.  1.
          2   -1    0    0  502    0 -0.00000000000E+00 -0.00000000000E+00 -0.53391733180E+02  0.53391733180E+02  0.00000000000E+00 0. -1.
         21    1    1    2  503  501 -0.32648958039E+01  0.20601537130E+02  0.28720318915E+02  0.35495627834E+02  0.00000000000E+00 0.  1.
          2    1    1    2  501    0  0.32648958039E+01 -0.20601537130E+02 -0.47828841781E+02  0.52179315660E+02  0.00000000000E+00 0. -1.
<mgrwt>
<rscale>  2 0.20858640E+02</rscale>
<asrwt>0</asrwt>
<pdfrwt beam="1">  1       21 0.52743401E-02 0.20858640E+02</pdfrwt>
<pdfrwt beam="2">  1        2 0.82141128E-02 0.20858640E+02</pdfrwt>
<totfact> 0.17041043E+06</totfact>
</mgrwt>
</event>
<event>
 4    1  0.2245608E+006  0.3716617E+02  0.7546771E-02  0.1530165E+00
          2   -1    0    0  503    0 -0.00000000000E+00  0.00000000000E+00  0.90787312123E+02  0.90787312123E+02  0.00000000000E+00 0.  1.
         21   -1    0    0  501  502  0.00000000000E+00 -0.00000000000E+00 -0.23146644428E+02  0.23146644428E+02  0.00000000000E+00 0. -1.
         21    1    1    2  503  502 -0.34564930254E+02  0.13659796575E+02  0.47292137710E+00  0.37169182134E+02  0.00000000000E+00 0. -1.
          2    1    1    2  501    0  0.34564930254E+02 -0.13659796575E+02  0.67167746318E+02  0.76764774417E+02  0.00000000000E+00 0.  1.
<mgrwt>
<rscale>  2 0.37166173E+02</rscale>
<asrwt>0</asrwt>
<pdfrwt beam="2">  1       21 0.35610223E-02 0.37166173E+02</pdfrwt>
<pdfrwt beam="1">  1        2 0.13967279E-01 0.37166173E+02</pdfrwt>
<totfact> 0.19567206E+06</totfact>
</mgrwt>
</event>
<event>
 4    1  0.2245608E+006  0.3280937E+02  0.7546771E-02  0.1568961E+00
         21   -1    0    0  503  502  0.00000000000E+00  0.00000000000E+00  0.91851248993E+00  0.91851248993E+00  0.00000000000E+00 0.  1.
          2   -1    0    0  502    0 -0.00000000000E+00 -0.00000000000E+00 -0.25006067229E+04  0.25006067229E+04  0.00000000000E+00 0.  1.
         21    1    1    2  503  501 -0.16166649847E+02  0.28549852310E+02 -0.33813164049E+03  0.33971967994E+03  0.00000000000E+00 0.  1.
          2    1    1    2  501    0  0.16166649847E+02 -0.28549852310E+02 -0.21615565699E+04  0.21618055555E+04  0.00000000000E+00 0.  1.
<mgrwt>
<rscale>  2 0.32809368E+02</rscale>
<asrwt>0</asrwt>
<pdfrwt beam="1">  1       21 0.14130767E-03 0.32809368E+02</pdfrwt>
<pdfrwt beam="2">  1        2 0.38471401E+00 0.32809368E+02</pdfrwt>
<totfact> 0.35631160E+06</totfact>
</mgrwt>
</event>
<event>
 4    1  0.2245608E+006  0.3232643E+02  0.7546771E-02  0.1573711E+00
          1   -1    0    0  503    0 -0.00000000000E+00  0.00000000000E+00  0.43818512523E+02  0.43818512523E+02  0.00000000000E+00 0.  1.
         21   -1    0    0  501  502  0.00000000000E+00 -0.00000000000E+00 -0.44969053908E+02  0.44969053908E+02  0.00000000000E+00 0.  1.
         21    1    1    2  503  502 -0.27172996668E+02 -0.17510750525E+02 -0.30999510234E+02  0.44788031511E+02  0.00000000000E+00 0.  1.
          1    1    1    2  501    0  0.27172996668E+02  0.17510750525E+02  0.29848968848E+02  0.43999534920E+02  0.00000000000E+00 0.  1.
<mgrwt>
<rscale>  2 0.32326431E+02</rscale>
<asrwt>0</asrwt>
<pdfrwt beam="2">  1       21 0.69183159E-02 0.32326431E+02</pdfrwt>
<pdfrwt beam="1">  1        1 0.67413097E-02 0.32326431E+02</pdfrwt>
<totfact> 0.13914843E+06</totfact>
</mgrwt>
</event>
<event>
 4    1  0.2245608E+006  0.4327740E+02  0.7546771E-02  0.1485391E+00
         21   -1    0    0  503  502  0.00000000000E+00  0.00000000000E+00  0.33458546265E+02  0.33458546265E+02  0.00000000000E+00 0.  1.
          1   -1    0    0  502    0 -0.00000000000E+00 -0.00000000000E+00 -0.57994612052E+03  0.57994612052E+03  0.00000000000E+00 0.  1.
         21    1    1    2  503  501 -0.25345775339E+02  0.35078836229E+02  0.18281213639E+02  0.46980164440E+02  0.00000000000E+00 0.  1.
          1    1    1    2  501    0  0.25345775339E+02 -0.35078836229E+02 -0.56476878790E+03  0.56642450235E+03  0.00000000000E+00 0.  1.
<mgrwt>
<rscale>  2 0.43277397E+02</rscale>
<asrwt>0</asrwt>
<pdfrwt beam="1">  1       21 0.51474689E-02 0.43277397E+02</pdfrwt>
<pdfrwt beam="2">  1        1 0.89222476E-01 0.43277397E+02</pdfrwt>
<totfact> 0.99234338E+04</totfact>
</mgrwt>
</event>
<event>
 4    1  0.2245608E+006  0.2259695E+02  0.7546771E-02  0.1698128E+00
         21   -1    0    0  501  502  0.00000000000E+00  0.00000000000E+00  0.63835361139E+02  0.63835361139E+02  0.00000000000E+00 0.  1.
          3   -1    0    0  503    0 -0.00000000000E+00 -0.00000000000E+00 -0.22015889476E+03  0.22015889476E+03  0.00000000000E+00 0. -1.
         21    1    1    2  503  502 -0.37179566038E+01  0.22288991767E+02  0.61231897557E+02  0.65268427542E+02  0.00000000000E+00 0.  1.
          3    1    1    2  501    0  0.37179566038E+01 -0.22288991767E+02 -0.21755543118E+03  0.21872582835E+03  0.00000000000E+00 0. -1.
<mgrwt>
<rscale>  2 0.22596955E+02</rscale>
<asrwt>0</asrwt>
<pdfrwt beam="1">  1       21 0.98208246E-02 0.22596955E+02</pdfrwt>
<pdfrwt beam="2">  1        3 0.33870600E-01 0.22596955E+02</pdfrwt>
<totfact> 0.26574605E+04</totfact>
</mgrwt>
</event>
<event>
 4    1  0.2245608E+006  0.2595529E+02  0.7546771E-02  0.1647648E+00
         21   -1    0    0  501  502  0.00000000000E+00  0.00000000000E+00  0.51084494669E+01  0.51084494669E+01  0.00000000000E+00 0.  1.
          1   -1    0    0  503    0 -0.00000000000E+00 -0.00000000000E+00 -0.13331028745E+03  0.13331028745E+03  0.00000000000E+00 0.  1.
         21    1    1    2  503  502  0.24726922122E+02 -0.78902782757E+01 -0.71282015868E+02  0.75860417577E+02  0.00000000000E+00 0.  1.
          1    1    1    2  501    0 -0.24726922122E+02  0.78902782757E+01 -0.56919822112E+02  0.62558319336E+02  0.00000000000E+00 0.  1.
<mgrwt>
<rscale>  2 0.25955292E+02</rscale>
<asrwt>0</asrwt>
<pdfrwt beam="1">  1       21 0.78591537E-03 0.25955292E+02</pdfrwt>
<pdfrwt beam="2">  1        1 0.20509273E-01 0.25955292E+02</pdfrwt>
<totfact> 0.98528352E+06</totfact>
</mgrwt>
</event>
<event>
 4    1  0.2245608E+006  0.2273069E+02  0.7546771E-02  0.1695913E+00
          2   -1    0    0  503    0 -0.00000000000E+00  0.00000000000E+00  0.85997669628E+02  0.85997669628E+02  0.00000000000E+00 0.  1.
         21   -1    0    0  501  502  0.00000000000E+00 -0.00000000000E+00 -0.14572181125E+02  0.14572181125E+02  0.00000000000E+00 0. -1.
         21    1    1    2  503  502  0.13086969999E+02 -0.18585362117E+02 -0.28364552976E+01  0.22906984686E+02  0.00000000000E+00 0. -1.
          2    1    1    2  501    0 -0.13086969999E+02  0.18585362117E+02  0.74261943800E+02  0.77662866067E+02  0.00000000000E+00 0.  1.
<mgrwt>
<rscale>  2 0.22730694E+02</rscale>
<asrwt>0</asrwt>
<pdfrwt beam="2">  1       21 0.22418741E-02 0.22730694E+02</pdfrwt>
<pdfrwt beam="1">  1        2 0.13230410E-01 0.22730694E+02</pdfrwt>
<totfact> 0.38489855E+06</totfact>
</mgrwt>
</event>
<event>
 4    1  0.2245608E+006  0.2202842E+02  0.7546771E-02  0.1707761E+00
          1   -1    0    0  503    0 -0.00000000000E+00  0.00000000000E+00  0.77102788830E+03  0.77102788830E+03  0.00000000000E+00 0. -1.
         21   -1    0    0  501  502  0.00000000000E+00 -0.00000000000E+00 -0.44784168362E+01  0.44784168362E+01  0.00000000000E+00 0. -1.
         21    1    1    2  503  502  0.11629932848E+01  0.21997693613E+02  0.23798268836E+02  0.32428516421E+02  0.00000000000E+00 0. -1.
          1    1    1    2  501    0 -0.11629932848E+01 -0.21997693613E+02  0.74275120263E+03  0.74307778872E+03  0.00000000000E+00 0. -1.
<mgrwt>
<rscale>  2 0.22028415E+02</rscale>
<asrwt>0</asrwt>
<pdfrwt beam="2">  1       21 0.68898782E-03 0.22028415E+02</pdfrwt>
<pdfrwt beam="1">  1        1 0.11861957E+00 0.22028415E+02</pdfrwt>
<totfact> 0.14151009E+06</totfact>
</mgrwt>
</event>
<event>
 4    1  0.2245608E+006  0.2155423E+02  0.7546771E-02  0.1716077E+00
         21   -1    0    0  501  502  0.00000000000E+00  0.00000000000E+00  0.63170252792E+02  0.63170252792E+02  0.00000000000E+00 0. -1.
          2   -1    0    0  503    0 -0.00000000000E+00 -0.00000000000E+00 -0.12453145848E+04  0.12453145848E+04  0.00000000000E+00 0. -1.
         21    1    1    2  503  502 -0.97005826573E+01 -0.19247947426E+02  0.61235503812E+02  0.64918192451E+02  0.00000000000E+00 0. -1.
          2    1    1    2  501    0  0.97005826573E+01  0.19247947426E+02 -0.12433798358E+04  0.12435666451E+04  0.00000000000E+00 0. -1.
<mgrwt>
<rscale>  2 0.21554229E+02</rscale>
<asrwt>0</asrwt>
<pdfrwt beam="1">  1       21 0.97185007E-02 0.21554229E+02</pdfrwt>
<pdfrwt beam="2">  1        2 0.19158685E+00 0.21554229E+02</pdfrwt>
<totfact> 0.21497882E+04</totfact>
</mgrwt>
</event>
<event>
 4    1  0.2245608E+006  0.2548754E+02  0.7546771E-02  0.1654096E+00
         21   -1    0    0  503  502  0.00000000000E+00  0.00000000000E+00  0.78844198060E+02  0.78844198060E+02  0.00000000000E+00 0.  1.
         -1   -1    0    0    0  501 -0.00000000000E+00 -0.00000000000E+00 -0.17622266750E+02  0.17622266750E+02  0.00000000000E+00 0.  1.
         21    1    1    2  503  501 -0.95719898242E+01 -0.23621843223E+02  0.65806493986E+02  0.70569888176E+02  0.00000000000E+00 0.  1.
         -1    1    1    2    0  502  0.95719898242E+01  0.23621843223E+02 -0.45845626756E+01  0.25896576634E+02  0.00000000000E+00 0.  1.
<mgrwt>
<rscale>  2 0.25487536E+02</rscale>
<asrwt>0</asrwt>
<pdfrwt beam="1">  1       21 0.12129876E-01 0.25487536E+02</pdfrwt>
<pdfrwt beam="2">  1       -1 0.27111180E-02 0.25487536E+02</pdfrwt>
<totfact> 0.15829611E+06</totfact>
</mgrwt>
</event>
<event>
 4    1  0.2245608E+006  0.2140527E+02  0.7546771E-02  0.1718745E+00
          2   -1    0    0  503    0 -0.00000000000E+00  0.00000000000E+00  0.12896685910E+04  0.12896685910E+04  0.00000000000E+00 0. -1.
         21   -1    0    0  501  502  0.00000000000E+00 -0.00000000000E+00 -0.14095856270E+01  0.14095856270E+01  0.00000000000E+00 0. -1.
         21    1    1    2  503  502  0.13549554708E+02 -0.16570908179E+02  0.85837563753E+02  0.88466223960E+02  0.00000000000E+00 0. -1.
          2    1    1    2  501    0 -0.13549554708E+02  0.16570908179E+02  0.12024214416E+04  0.12026119526E+04  0.00000000000E+00 0. -1.
<mgrwt>
<rscale>  2 0.21405266E+02</rscale>
<asrwt>0</asrwt>
<pdfrwt beam="2">  1       21 0.21686036E-03 0.21405266E+02</pdfrwt>
<pdfrwt beam="1">  1        2 0.19840961E+00 0.21405266E+02</pdfrwt>
<totfact> 0.67201174E+06</totfact>
</mgrwt>
</event>
<event>
 4    1  0.2245608E+006  0.3478208E+02  0.7546771E-02  0.1550544E+00
          2   -1    0    0  502    0 -0.00000000000E+00  0.00000000000E+00  0.42138375903E+02  0.42138375903E+02  0.00000000000E+00 0.  1.
         21   -1    0    0  503  502  0.00000000000E+00 -0.00000000000E+00 -0.61800522899E+02  0.61800522899E+02  0.00000000000E+00 0. -1.
         21    1    1    2  503  501  0.30053063527E+02  0.17510172380E+02 -0.47859106053E+02  0.59163221653E+02  0.00000000000E+00 0. -1.
          2    1    1    2  501    0 -0.30053063527E+02 -0.17510172380E+02  0.28196959057E+02  0.44775677150E+02  0.00000000000E+00 0.  1.
<mgrwt>
<rscale>  2 0.34782075E+02</rscale>
<asrwt>0</asrwt>
<pdfrwt beam="2">  1       21 0.95077728E-02 0.34782075E+02</pdfrwt>
<pdfrwt beam="1">  1        2 0.64828270E-02 0.34782075E+02</pdfrwt>
<totfact> 0.96079683E+05</totfact>
</mgrwt>
</event>
<event>
 4    1  0.2245608E+006  0.2823129E+02  0.7546771E-02  0.1618505E+00
         21   -1    0    0  503  502  0.00000000000E+00  0.00000000000E+00  0.89434679045E+01  0.89434679045E+01  0.00000000000E+00 0.  1.
         -4   -1    0    0    0  501 -0.00000000000E+00 -0.00000000000E+00 -0.25599173225E+03  0.25599173225E+03  0.00000000000E+00 0. -1.
         21    1    1    2  503  501 -0.17609037121E+02 -0.22066440019E+02 -0.16571048994E+02  0.32735388011E+02  0.00000000000E+00 0.  1.
         -4    1    1    2    0  502  0.17609037121E+02  0.22066440019E+02 -0.23047721535E+03  0.23219981215E+03  0.00000000000E+00 0. -1.
<mgrwt>
<rscale>  2 0.28231294E+02</rscale>
<asrwt>0</asrwt>
<pdfrwt beam="1">  1       21 0.13759180E-02 0.28231294E+02</pdfrwt>
<pdfrwt beam="2">  1       -4 0.39383348E-01 0.28231294E+02</pdfrwt>
<totfact> 0.37563134E+05</totfact>
</mgrwt>
</event>
<event>
 4    1  0.2245608E+006  0.2035897E+02  0.7546771E-02  0.1738282E+00
         21   -1    0    0  501  502  0.00000000000E+00  0.00000000000E+00  0.14849947853E+01  0.14849947853E+01  0.00000000000E+00 0. -1.
          2   -1    0    0  503    0 -0.00000000000E+00 -0.00000000000E+00 -0.71098758964E+03  0.71098758964E+03  0.00000000000E+00 0. -1.
         21    1    1    2  503  502  0.12881125164E+02  0.15765925733E+02 -0.77110173448E+02  0.79752533808E+02  0.00000000000E+00 0. -1.
          2    1    1    2  501    0 -0.12881125164E+02 -0.15765925733E+02 -0.63239242141E+03  0.63272005062E+03  0.00000000000E+00 0. -1.
<mgrwt>
<rscale>  2 0.20358973E+02</rscale>
<asrwt>0</asrwt>
<pdfrwt beam="1">  1       21 0.22846095E-03 0.20358973E+02</pdfrwt>
<pdfrwt beam="2">  1        2 0.10938261E+00 0.20358973E+02</pdfrwt>
<totfact> 0.12801713E+07</totfact>
</mgrwt>
</event>
<event>
 4    1  0.2245608E+006  0.2824252E+02  0.7546771E-02  0.1618369E+00
         21   -1    0    0  501  502  0.00000000000E+00  0.00000000000E+00  0.19050255773E+03  0.19050255773E+03  0.00000000000E+00 0. -1.
          2   -1    0    0  503    0 -0.00000000000E+00 -0.00000000000E+00 -0.48582068421E+01  0.48582068421E+01  0.00000000000E+00 0.  1.
         21    1    1    2  503  502 -0.13050103568E+02 -0.25046655942E+02  0.12912892776E+03  0.13218139113E+03  0.00000000000E+00 0. -1.
          2    1    1    2  501    0  0.13050103568E+02  0.25046655942E+02  0.56515423127E+02  0.63179373440E+02  0.00000000000E+00 0.  1.
<mgrwt>
<rscale>  2 0.28242524E+02</rscale>
<asrwt>0</asrwt>
<pdfrwt beam="1">  1       21 0.29308080E-01 0.28242524E+02</pdfrwt>
<pdfrwt beam="2">  1        2 0.74741658E-03 0.28242524E+02</pdfrwt>
<totfact> 0.20814937E+06</totfact>
</mgrwt>
</event>
<event>
 4    1  0.2245608E+006  0.3419994E+02  0.7546771E-02  0.1555822E+00
         21   -1    0    0  503  502  0.00000000000E+00  0.00000000000E+00  0.15798991843E+03  0.15798991843E+03  0.00000000000E+00 0.  1.
         -3   -1    0    0    0  501 -0.00000000000E+00 -0.00000000000E+00 -0.27546726924E+02  0.27546726924E+02  0.00000000000E+00 0.  1.
         21    1    1    2  503  501  0.34165185787E+02 -0.15413405105E+01  0.14455062490E+03  0.14854130338E+03  0.00000000000E+00 0.  1.
         -3    1    1    2    0  502 -0.34165185787E+02  0.15413405105E+01 -0.14107433399E+02  0.36995341971E+02  0.00000000000E+00 0.  1.
<mgrwt>
<rscale>  2 0.34199936E+02</rscale>
<asrwt>0</asrwt>
<pdfrwt beam="1">  1       21 0.24306141E-01 0.34199936E+02</pdfrwt>
<pdfrwt beam="2">  1       -3 0.42379581E-02 0.34199936E+02</pdfrwt>
<totfact> 0.17780476E+05</totfact>
</mgrwt>
</event>
<event>
 4    1  0.2245608E+006  0.2445664E+02  0.7546771E-02  0.1668931E+00
         -3   -1    0    0    0  501 -0.00000000000E+00  0.00000000000E+00  0.15357471849E+02  0.15357471849E+02  0.00000000000E+00 0.  1.
         21   -1    0    0  503  502  0.00000000000E+00 -0.00000000000E+00 -0.86379071769E+02  0.86379071769E+02  0.00000000000E+00 0. -1.
         21    1    1    2  503  501  0.24068162140E+02  0.43417383561E+01 -0.73205376084E+02  0.77182603016E+02  0.00000000000E+00 0. -1.
         -3    1    1    2    0  502 -0.24068162140E+02 -0.43417383561E+01  0.21837761635E+01  0.24553940602E+02  0.00000000000E+00 0.  1.
<mgrwt>
<rscale>  2 0.24456638E+02</rscale>
<asrwt>0</asrwt>
<pdfrwt beam="2">  1       21 0.13289088E-01 0.24456638E+02</pdfrwt>
<pdfrwt beam="1">  1       -3 0.23626879E-02 0.24456638E+02</pdfrwt>
<totfact> 0.11083793E+06</totfact>
</mgrwt>
</event>
<event>
 4    1  0.2245608E+006  0.3857083E+02  0.7546771E-02  0.1519000E+00
         21   -1    0    0  503  502  0.00000000000E+00  0.00000000000E+00  0.12609505898E+02  0.12609505898E+02  0.00000000000E+00 0. -1.
         -2   -1    0    0    0  501 -0.00000000000E+00 -0.00000000000E+00 -0.46775293620E+03  0.46775293620E+03  0.00000000000E+00 0. -1.
         21    1    1    2  503  501 -0.22703301864E+02 -0.31181224641E+02 -0.19878667288E+02  0.43392051102E+02  0.00000000000E+00 0. -1.
         -2    1    1    2    0  502  0.22703301864E+02  0.31181224641E+02 -0.43526476301E+03  0.43697039100E+03  0.00000000000E+00 0. -1.
<mgrwt>
<rscale>  2 0.38570827E+02</rscale>
<asrwt>0</asrwt>
<pdfrwt beam="1">  1       21 0.19399241E-02 0.38570827E+02</pdfrwt>
<pdfrwt beam="2">  1       -2 0.71961985E-01 0.38570827E+02</pdfrwt>
<totfact> 0.16181086E+05</totfact>
</mgrwt>
</event>
<event>
 4    1  0.2245608E+006  0.2059350E+02  0.7546771E-02  0.1733777E+00
         21   -1    0    0  503  502  0.00000000000E+00  0.00000000000E+00  0.18968974667E+01  0.18968974667E+01  0.00000000000E+00 0. -1.
          1   -1    0    0  502    0 -0.00000000000E+00 -0.00000000000E+00 -0.86358080925E+03  0.86358080925E+03  0.00000000000E+00 0.  1.
         21    1    1    2  503  501 -0.44064747055E+01 -0.20116538555E+02 -0.58306548311E+02  0.61836443290E+02  0.00000000000E+00 0. -1.
          1    1    1    2  501    0  0.44064747055E+01  0.20116538555E+02 -0.80337736347E+03  0.80364126342E+03  0.00000000000E+00 0.  1.
<mgrwt>
<rscale>  2 0.20593498E+02</rscale>
<asrwt>0</asrwt>
<pdfrwt beam="1">  1       21 0.29182980E-03 0.20593498E+02</pdfrwt>
<pdfrwt beam="2">  1        1 0.13285885E+00 0.20593498E+02</pdfrwt>
<totfact> 0.42018585E+06</totfact>
</mgrwt>
</event>
<event>
 4    1  0.2245608E+006  0.2045089E+02  0.7546771E-02  0.1736507E+00
         21   -1    0    0  503  502  0.00000000000E+00  0.00000000000E+00  0.58092718635E+03  0.58092718635E+03  0.00000000000E+00 0. -1.
         -4   -1    0    0    0  501 -0.00000000000E+00 -0.00000000000E+00 -0.12887188603E+02  0.12887188603E+02  0.00000000000E+00 0. -1.
         21    1    1    2  503  501 -0.20121274751E+02  0.36569342176E+01  0.57251455392E+03  0.57287970231E+03  0.00000000000E+00 0. -1.
         -4    1    1    2    0  502  0.20121274751E+02 -0.36569342176E+01 -0.44745561804E+01  0.20934672639E+02  0.00000000000E+00 0. -1.
<mgrwt>
<rscale>  2 0.20450889E+02</rscale>
<asrwt>0</asrwt>
<pdfrwt beam="1">  1       21 0.89373393E-01 0.20450889E+02</pdfrwt>
<pdfrwt beam="2">  1       -4 0.19826448E-02 0.20450889E+02</pdfrwt>
<totfact> 0.32914218E+04</totfact>
</mgrwt>
</event>
<event>
 4    1  0.2245608E+006  0.3055793E+02  0.7546771E-02  0.1592002E+00
         21   -1    0    0  503  502  0.00000000000E+00  0.00000000000E+00  0.96035322897E+01  0.96035322897E+01  0.00000000000E+00 0. -1.
         -4   -1    0    0    0  501 -0.00000000000E+00 -0.00000000000E+00 -0.23387149398E+03  0.23387149398E+03  0.00000000000E+00 0.  1.
         21    1    1    2  503  501 -0.26809269948E+02 -0.14664579718E+02 -0.19082942844E+02  0.36027011547E+02  0.00000000000E+00 0. -1.
         -4    1    1    2    0  502  0.26809269948E+02  0.14664579718E+02 -0.20518501885E+03  0.20744801472E+03  0.00000000000E+00 0.  1.
<mgrwt>
<rscale>  2 0.30557926E+02</rscale>
<asrwt>0</asrwt>
<pdfrwt beam="1">  1       21 0.14774665E-02 0.30557926E+02</pdfrwt>
<pdfrwt beam="2">  1       -4 0.35980229E-01 0.30557926E+02</pdfrwt>
<totfact> 0.41026391E+05</totfact>
</mgrwt>
</event>
<event>
 4    1  0.2245608E+006  0.2111877E+02  0.7546771E-02  0.1723954E+00
         21   -1    0    0  503  502  0.00000000000E+00  0.00000000000E+00  0.90328545063E+03  0.90328545063E+03  0.00000000000E+00 0.  1.
         -2   -1    0    0    0  501 -0.00000000000E+00 -0.00000000000E+00 -0.13118332461E+03  0.13118332461E+03  0.00000000000E+00 0. -1.
         21    1    1    2  503  501  0.12896430398E+02 -0.16723775663E+02  0.90231113345E+03  0.90255824418E+03  0.00000000000E+00 0.  1.
         -2    1    1    2    0  502 -0.12896430398E+02  0.16723775663E+02 -0.13020900742E+03  0.13191053106E+03  0.00000000000E+00 0. -1.
<mgrwt>
<rscale>  2 0.21118773E+02</rscale>
<asrwt>0</asrwt>
<pdfrwt beam="1">  1       21 0.13896699E+00 0.21118773E+02</pdfrwt>
<pdfrwt beam="2">  1       -2 0.20182050E-01 0.21118773E+02</pdfrwt>
<totfact> 0.72714389E+02</totfact>
</mgrwt>
</event>
<event>
 4    1  0.2245608E+006  0.2261856E+02  0.7546771E-02  0.1697769E+00
          4   -1    0    0  502    0 -0.00000000000E+00  0.00000000000E+00  0.41184412388E+02  0.41184412388E+02  0.00000000000E+00 0.  1.
         21   -1    0    0  503  502  0.00000000000E+00 -0.00000000000E+00 -0.81354713292E+03  0.81354713292E+03  0.00000000000E+00 0. -1.
         21    1    1    2  503  501 -0.11239006512E+02  0.19628650975E+02 -0.81027183047E+03  0.81058746503E+03  0.00000000000E+00 0. -1.
          4    1    1    2  501    0  0.11239006512E+02 -0.19628650975E+02  0.37909109944E+02  0.44144080274E+02  0.00000000000E+00 0.  1.
<mgrwt>
<rscale>  2 0.22618559E+02</rscale>
<asrwt>0</asrwt>
<pdfrwt beam="2">  1       21 0.12516110E+00 0.22618559E+02</pdfrwt>
<pdfrwt beam="1">  1        4 0.63360635E-02 0.22618559E+02</pdfrwt>
<totfact> 0.27854947E+03</totfact>
</mgrwt>
</event>
<event>
 4    1  0.2245608E+006  0.2254102E+02  0.7546771E-02  0.1699060E+00
         21   -1    0    0  501  502  0.00000000000E+00  0.00000000000E+00  0.25021009254E+03  0.25021009254E+03  0.00000000000E+00 0. -1.
         -2   -1    0    0    0  501 -0.00000000000E+00 -0.00000000000E+00 -0.22617089680E+01  0.22617089680E+01  0.00000000000E+00 0. -1.
         21    1    1    2  503  502  0.96309475285E+01 -0.20379953817E+02  0.16431957512E+03  0.16585843492E+03  0.00000000000E+00 0. -1.
         -2    1    1    2    0  503 -0.96309475285E+01  0.20379953817E+02  0.83628808457E+02  0.86613366589E+02  0.00000000000E+00 0. -1.
<mgrwt>
<rscale>  2 0.22541022E+02</rscale>
<asrwt>0</asrwt>
<pdfrwt beam="1">  1       21 0.38493839E-01 0.22541022E+02</pdfrwt>
<pdfrwt beam="2">  1       -2 0.34795542E-03 0.22541022E+02</pdfrwt>
<totfact> 0.31861181E+06</totfact>
</mgrwt>
</event>
<event>
 4    1  0.2245608E+006  0.2302710E+02  0.7546771E-02  0.1691071E+00
         21   -1    0    0  501  502  0.00000000000E+00  0.00000000000E+00  0.31291765091E+03  0.31291765091E+03  0.00000000000E+00 0.  1.
          1   -1    0    0  503    0 -0.00000000000E+00 -0.00000000000E+00 -0.78731360660E+02  0.78731360660E+02  0.00000000000E+00 0. -1.
         21    1    1    2  503  502  0.20931277276E+02 -0.95983926699E+01  0.31079883233E+03  0.31165070462E+03  0.00000000000E+00 0.  1.
          1    1    1    2  501    0 -0.20931277276E+02  0.95983926699E+01 -0.76612542084E+02  0.79998306949E+02  0.00000000000E+00 0. -1.
<mgrwt>
<rscale>  2 0.23027104E+02</rscale>
<asrwt>0</asrwt>
<pdfrwt beam="1">  1       21 0.48141176E-01 0.23027104E+02</pdfrwt>
<pdfrwt beam="2">  1        1 0.12112517E-01 0.23027104E+02</pdfrwt>
<totfact> 0.21065029E+04</totfact>
</mgrwt>
</event>
<event>
 4    1  0.2245608E+006  0.2448952E+02  0.7546771E-02  0.1668444E+00
         21   -1    0    0  503  502  0.00000000000E+00  0.00000000000E+00  0.32812622190E+03  0.32812622190E+03  0.00000000000E+00 0.  1.
          4   -1    0    0  502    0 -0.00000000000E+00 -0.00000000000E+00 -0.27406438962E+01  0.27406438962E+01  0.00000000000E+00 0.  1.
         21    1    1    2  503  501  0.81477230232E+00  0.24475967257E+02  0.25817097045E+03  0.25932988028E+03  0.00000000000E+00 0.  1.
          4    1    1    2  501    0 -0.81477230232E+00 -0.24475967257E+02  0.67214607562E+02  0.71536985517E+02  0.00000000000E+00 0.  1.
<mgrwt>
<rscale>  2 0.24489525E+02</rscale>
<asrwt>0</asrwt>
<pdfrwt beam="1">  1       21 0.50480926E-01 0.24489525E+02</pdfrwt>
<pdfrwt beam="2">  1        4 0.42163778E-03 0.24489525E+02</pdfrwt>
<totfact> 0.10318105E+06</totfact>
</mgrwt>
</event>
<event>
 4    1  0.2245608E+006  0.2072859E+02  0.7546771E-02  0.1731216E+00
         -3   -1    0    0    0  501 -0.00000000000E+00  0.00000000000E+00  0.17430152960E+01  0.17430152960E+01  0.00000000000E+00 0. -1.
         21   -1    0    0  501  502  0.00000000000E+00 -0.00000000000E+00 -0.35494785568E+03  0.35494785568E+03  0.00000000000E+00 0.  1.
         21    1    1    2  503  502  0.43765975140E+01  0.20261291492E+02 -0.27517718990E+03  0.27595680890E+03  0.00000000000E+00 0.  1.
         -3    1    1    2    0  503 -0.43765975140E+01 -0.20261291492E+02 -0.78027650485E+02  0.80734062074E+02  0.00000000000E+00 0. -1.
<mgrwt>
<rscale>  2 0.20728592E+02</rscale>
<asrwt>0</asrwt>
<pdfrwt beam="2">  1       21 0.54607425E-01 0.20728592E+02</pdfrwt>
<pdfrwt beam="1">  1       -3 0.26815589E-03 0.20728592E+02</pdfrwt>
<totfact> 0.18053670E+06</totfact>
</mgrwt>
</event>
<event>
 4    1  0.2245608E+006  0.2239586E+02  0.7546771E-02  0.1701494E+00
          3   -1    0    0  502    0 -0.00000000000E+00  0.00000000000E+00  0.70728394508E+01  0.70728394508E+01  0.00000000000E+00 0.  1.
         21   -1    0    0  503  502  0.00000000000E+00 -0.00000000000E+00 -0.76422877569E+02  0.76422877569E+02  0.00000000000E+00 0.  1.
         21    1    1    2  503  501 -0.14265910158E+02 -0.17264365558E+02 -0.45882081392E+02  0.51056242553E+02  0.00000000000E+00 0.  1.
          3    1    1    2  501    0  0.14265910158E+02  0.17264365558E+02 -0.23467956726E+02  0.32439474466E+02  0.00000000000E+00 0.  1.
<mgrwt>
<rscale>  2 0.22395859E+02</rscale>
<asrwt>0</asrwt>
<pdfrwt beam="2">  1       21 0.11757366E-01 0.22395859E+02</pdfrwt>
<pdfrwt beam="1">  1        3 0.10881291E-02 0.22395859E+02</pdfrwt>
<totfact> 0.40431326E+06</totfact>
</mgrwt>
</event>
<event>
 4    1  0.2245608E+006  0.2775301E+02  0.7546771E-02  0.1624343E+00
         21   -1    0    0  503  502  0.00000000000E+00  0.00000000000E+00  0.10868522143E+03  0.10868522143E+03  0.00000000000E+00 0.  1.
         -1   -1    0    0    0  501 -0.00000000000E+00 -0.00000000000E+00 -0.20079827826E+02  0.20079827826E+02  0.00000000000E+00 0. -1.
         21    1    1    2  503  501  0.14951806845E+02 -0.23381040742E+02  0.96092388148E+02  0.10001988129E+03  0.00000000000E+00 0.  1.
         -1    1    1    2    0  502 -0.14951806845E+02  0.23381040742E+02 -0.74869945398E+01  0.28745167966E+02  0.00000000000E+00 0. -1.
<mgrwt>
<rscale>  2 0.27753011E+02</rscale>
<asrwt>0</asrwt>
<pdfrwt beam="1">  1       21 0.16720803E-01 0.27753011E+02</pdfrwt>
<pdfrwt beam="2">  1       -1 0.30892043E-02 0.27753011E+02</pdfrwt>
<totfact> 0.77860761E+05</totfact>
</mgrwt>
</event>
<event>
 4    1  0.2245608E+006  0.2176533E+02  0.7546771E-02  0.1712342E+00
         21   -1    0    0  501  502  0.00000000000E+00  0.00000000000E+00  0.73094726940E+01  0.73094726940E+01  0.00000000000E+00 0.  1.
         -2   -1    0    0    0  501 -0.00000000000E+00 -0.00000000000E+00 -0.30055592673E+03  0.30055592673E+03  0.00000000000E+00 0.  1.
         21    1    1    2  503  502 -0.53674414051E+01 -0.21093125712E+02 -0.10293668729E+02  0.24076731411E+02  0.00000000000E+00 0.  1.
         -2    1    1    2    0  503  0.53674414051E+01  0.21093125712E+02 -0.28295278531E+03  0.28378866801E+03  0.00000000000E+00 0.  1.
<mgrwt>
<rscale>  2 0.21765325E+02</rscale>
<asrwt>0</asrwt>
<pdfrwt beam="1">  1       21 0.11245344E-02 0.21765325E+02</pdfrwt>
<pdfrwt beam="2">  1       -2 0.46239366E-01 0.21765325E+02</pdfrwt>
<totfact> 0.79948265E+05</totfact>
</mgrwt>
</event>
<event>
 4    1  0.2245608E+006  0.2045777E+02  0.7546771E-02  0.1736375E+00
          2   -1    0    0  503    0 -0.00000000000E+00  0.00000000000E+00  0.34021089333E+03  0.34021089333E+03  0.00000000000E+00 0. -1.
         21   -1    0    0  501  502  0.00000000000E+00 -0.00000000000E+00 -0.18491060414E+02  0.18491060414E+02  0.00000000000E+00 0. -1.
         21    1    1    2  503  502  0.22978969230E+01 -0.20328301086E+02 -0.12422432864E+02  0.23934013320E+02  0.00000000000E+00 0. -1.
          2    1    1    2  501    0 -0.22978969230E+01  0.20328301086E+02  0.33414226578E+03  0.33476794043E+03  0.00000000000E+00 0. -1.
<mgrwt>
<rscale>  2 0.20457765E+02</rscale>
<asrwt>0</asrwt>
<pdfrwt beam="2">  1       21 0.28447788E-02 0.20457765E+02</pdfrwt>
<pdfrwt beam="1">  1        2 0.52340133E-01 0.20457765E+02</pdfrwt>
<totfact> 0.63118228E+05</totfact>
</mgrwt>
</event>
<event>
 4    1  0.2245608E+006  0.2479580E+02  0.7546771E-02  0.1663952E+00
         21   -1    0    0  503  502  0.00000000000E+00  0.00000000000E+00  0.11035427646E+02  0.11035427646E+02  0.00000000000E+00 0. -1.
          2   -1    0    0  502    0 -0.00000000000E+00 -0.00000000000E+00 -0.29438734860E+03  0.29438734860E+03  0.00000000000E+00 0.  1.
         21    1    1    2  503  501  0.20527266386E+01 -0.24710686054E+02 -0.41725413403E+01  0.25144418727E+02  0.00000000000E+00 0. -1.
          2    1    1    2  501    0 -0.20527266386E+01  0.24710686054E+02 -0.27917937961E+03  0.28027835752E+03  0.00000000000E+00 0.  1.
<mgrwt>
<rscale>  2 0.24795800E+02</rscale>
<asrwt>0</asrwt>
<pdfrwt beam="1">  1       21 0.16977579E-02 0.24795800E+02</pdfrwt>
<pdfrwt beam="2">  1        2 0.45290365E-01 0.24795800E+02</pdfrwt>
<totfact> 0.16724292E+06</totfact>
</mgrwt>
</event>
<event>
 4    1  0.2245608E+006  0.5339628E+02  0.7546771E-02  0.1427839E+00
         21   -1    0    0  501  502  0.00000000000E+00  0.00000000000E+00  0.14719432539E+03  0.14719432539E+03  0.00000000000E+00 0. -1.
          1   -1    0    0  503    0 -0.00000000000E+00 -0.00000000000E+00 -0.36575122613E+03  0.36575122613E+03  0.00000000000E+00 0.  1.
         21    1    1    2  503  502 -0.51756837651E+02  0.13129832955E+02  0.14031059068E+03  0.15012736131E+03  0.00000000000E+00 0. -1.
          1    1    1    2  501    0  0.51756837651E+02 -0.13129832955E+02 -0.35886749142E+03  0.36281819022E+03  0.00000000000E+00 0.  1.
<mgrwt>
<rscale>  2 0.53396280E+02</rscale>
<asrwt>0</asrwt>
<pdfrwt beam="1">  1       21 0.22645281E-01 0.53396280E+02</pdfrwt>
<pdfrwt beam="2">  1        1 0.56269419E-01 0.53396280E+02</pdfrwt>
<totfact> 0.13932007E+04</totfact>
</mgrwt>
</event>
<event>
 4    1  0.2245608E+006  0.2731062E+02  0.7546771E-02  0.1629872E+00
         21   -1    0    0  501  502  0.00000000000E+00  0.00000000000E+00  0.31137789287E+01  0.31137789287E+01  0.00000000000E+00 0.  1.
          1   -1    0    0  503    0 -0.00000000000E+00 -0.00000000000E+00 -0.36609938681E+03  0.36609938681E+03  0.00000000000E+00 0.  1.
         21    1    1    2  503  502 -0.15825274718E+02 -0.22258271082E+02 -0.72950901909E+02  0.77895468680E+02  0.00000000000E+00 0.  1.
          1    1    1    2  501    0  0.15825274718E+02  0.22258271082E+02 -0.29003470597E+03  0.29131769706E+03  0.00000000000E+00 0.  1.
<mgrwt>
<rscale>  2 0.27310620E+02</rscale>
<asrwt>0</asrwt>
<pdfrwt beam="1">  1       21 0.47904310E-03 0.27310620E+02</pdfrwt>
<pdfrwt beam="2">  1        1 0.56322961E-01 0.27310620E+02</pdfrwt>
<totfact> 0.63930202E+06</totfact>
</mgrwt>
</event>
<event>
 4    1  0.2245608E+006  0.2455239E+02  0.7546771E-02  0.1667516E+00
         21   -1    0    0  503  502  0.00000000000E+00  0.00000000000E+00  0.38077599169E+02  0.38077599169E+02  0.00000000000E+00 0. -1.
          2   -1    0    0  502    0 -0.00000000000E+00 -0.00000000000E+00 -0.21152053858E+03  0.21152053858E+03  0.00000000000E+00 0. -1.
         21    1    1    2  503  501  0.42045616034E+01 -0.24189698965E+02  0.33316457455E+02  0.41386063012E+02  0.00000000000E+00 0. -1.
          2    1    1    2  501    0 -0.42045616034E+01  0.24189698965E+02 -0.20675939687E+03  0.20821207474E+03  0.00000000000E+00 0. -1.
<mgrwt>
<rscale>  2 0.24552390E+02</rscale>
<asrwt>0</asrwt>
<pdfrwt beam="1">  1       21 0.58580923E-02 0.24552390E+02</pdfrwt>
<pdfrwt beam="2">  1        2 0.32541621E-01 0.24552390E+02</pdfrwt>
<totfact> 0.33369026E+05</totfact>
</mgrwt>
</event>
<event>
 4    1  0.2245608E+006  0.2230383E+02  0.7546771E-02  0.1703050E+00
          2   -1    0    0  502    0 -0.00000000000E+00  0.00000000000E+00  0.34695492686E+02  0.34695492686E+02  0.00000000000E+00 0.  1.
         21   -1    0    0  503  502  0.00000000000E+00 -0.00000000000E+00 -0.36956828570E+02  0.36956828570E+02  0.00000000000E+00 0. -1.
         21    1    1    2  503  501  0.22075081244E+02  0.31861924579E+01 -0.29158453693E+02  0.36710713097E+02  0.00000000000E+00 0. -1.
          2    1    1    2  501    0 -0.22075081244E+02 -0.31861924579E+01  0.26897117809E+02  0.34941608160E+02  0.00000000000E+00 0.  1.
<mgrwt>
<rscale>  2 0.22303835E+02</rscale>
<asrwt>0</asrwt>
<pdfrwt beam="2">  1       21 0.56856659E-02 0.22303835E+02</pdfrwt>
<pdfrwt beam="1">  1        2 0.53377681E-02 0.22303835E+02</pdfrwt>
<totfact> 0.25703784E+06</totfact>
</mgrwt>
</event>
<event>
 4    1  0.2245608E+006  0.2028934E+02  0.7546771E-02  0.1739635E+00
          2   -1    0    0  503    0 -0.00000000000E+00  0.00000000000E+00  0.65126509745E+03  0.65126509745E+03  0.00000000000E+00 0. -1.
         21   -1    0    0  501  502  0.00000000000E+00 -0.00000000000E+00 -0.63234868292E+00  0.63234868292E+00  0.00000000000E+00 0. -1.
         21    1    1    2  503  502 -0.30585136177E+01  0.20057486596E+02  0.31870658110E+03  0.31935175295E+03  0.00000000000E+00 0. -1.
          2    1    1    2  501    0  0.30585136177E+01 -0.20057486596E+02  0.33192616766E+03  0.33254569318E+03  0.00000000000E+00 0. -1.
<mgrwt>
<rscale>  2 0.20289339E+02</rscale>
<asrwt>0</asrwt>
<pdfrwt beam="2">  1       21 0.97284933E-04 0.20289339E+02</pdfrwt>
<pdfrwt beam="1">  1        2 0.10019409E+00 0.20289339E+02</pdfrwt>
<totfact> 0.47571392E+07</totfact>
</mgrwt>
</event>
<event>
 4    1  0.2245608E+006  0.2694304E+02  0.7546771E-02  0.1634566E+00
          2   -1    0    0  502    0 -0.00000000000E+00  0.00000000000E+00  0.13211883850E+04  0.13211883850E+04  0.00000000000E+00 0. -1.
         21   -1    0    0  503  502  0.00000000000E+00 -0.00000000000E+00 -0.25992853878E+02  0.25992853878E+02  0.00000000000E+00 0. -1.
         21    1    1    2  503  501  0.23720941723E+02 -0.12776720553E+02 -0.18835472396E+02  0.32874042720E+02  0.00000000000E+00 0. -1.
          2    1    1    2  501    0 -0.23720941723E+02  0.12776720553E+02  0.13140310035E+04  0.13143071961E+04  0.00000000000E+00 0. -1.
<mgrwt>
<rscale>  2 0.26943045E+02</rscale>
<asrwt>0</asrwt>
<pdfrwt beam="2">  1       21 0.39989016E-02 0.26943045E+02</pdfrwt>
<pdfrwt beam="1">  1        2 0.20325970E+00 0.26943045E+02</pdfrwt>
<totfact> 0.83307630E+04</totfact>
</mgrwt>
</event>
<event>
 4    1  0.2245608E+006  0.3086959E+02  0.7546771E-02  0.1588671E+00
         21   -1    0    0  503  502  0.00000000000E+00  0.00000000000E+00  0.39686949857E+03  0.39686949857E+03  0.00000000000E+00 0.  1.
         -3   -1    0    0    0  501 -0.00000000000E+00 -0.00000000000E+00 -0.40375381134E+01  0.40375381134E+01  0.00000000000E+00 0. -1.
         21    1    1    2  503  501  0.20605920534E+02  0.22985376286E+02  0.32403119042E+03  0.32549830084E+03  0.00000000000E+00 0.  1.
         -3    1    1    2    0  502 -0.20605920534E+02 -0.22985376286E+02  0.68800770038E+02  0.75408735846E+02  0.00000000000E+00 0. -1.
<mgrwt>
<rscale>  2 0.30869588E+02</rscale>
<asrwt>0</asrwt>
<pdfrwt beam="1">  1       21 0.61056815E-01 0.30869588E+02</pdfrwt>
<pdfrwt beam="2">  1       -3 0.62116002E-03 0.30869588E+02</pdfrwt>
<totfact> 0.49759077E+05</totfact>
</mgrwt>
</event>
<event>
 4    1  0.2245608E+006  0.2207868E+02  0.7546771E-02  0.1706895E+00
         21   -1    0    0  501  502  0.00000000000E+00  0.00000000000E+00  0.12797249932E+04  0.12797249932E+04  0.00000000000E+00 0.  1.
          1   -1    0    0  503    0 -0.00000000000E+00 -0.00000000000E+00 -0.38561531154E+02  0.38561531154E+02  0.00000000000E+00 0.  1.
         21    1    1    2  503  502  0.13314096375E+02  0.17612574531E+02  0.12764613591E+04  0.12766522899E+04  0.00000000000E+00 0.  1.
          1    1    1    2  501    0 -0.13314096375E+02 -0.17612574531E+02 -0.35297897061E+02  0.41634234481E+02  0.00000000000E+00 0.  1.
<mgrwt>
<rscale>  2 0.22078676E+02</rscale>
<asrwt>0</asrwt>
<pdfrwt beam="1">  1       21 0.19688074E+00 0.22078676E+02</pdfrwt>
<pdfrwt beam="2">  1        1 0.59325442E-02 0.22078676E+02</pdfrwt>
<totfact> 0.23506681E+03</totfact>
</mgrwt>
</event>
<event>
 4    1  0.2245608E+006  0.2020679E+02  0.7546771E-02  0.1741247E+00
          2   -1    0    0  502    0 -0.00000000000E+00  0.00000000000E+00  0.28807206536E+03  0.28807206536E+03  0.00000000000E+00 0. -1.
         21   -1    0    0  503  502  0.00000000000E+00 -0.00000000000E+00 -0.46308437019E+02  0.46308437019E+02  0.00000000000E+00 0. -1.
         21    1    1    2  503  501  0.19728175564E+02  0.43719159926E+01 -0.43729881012E+02  0.48172783330E+02  0.00000000000E+00 0. -1.
          2    1    1    2  501    0 -0.19728175564E+02 -0.43719159926E+01  0.28549350936E+03  0.28620771905E+03  0.00000000000E+00 0. -1.
<mgrwt>
<rscale>  2 0.20206795E+02</rscale>
<asrwt>0</asrwt>
<pdfrwt beam="2">  1       21 0.71243751E-02 0.20206795E+02</pdfrwt>
<pdfrwt beam="1">  1        2 0.44318778E-01 0.20206795E+02</pdfrwt>
<totfact> 0.17420445E+05</totfact>
</mgrwt>
</event>
<event>
 4    1  0.2245608E+006  0.2237091E+02  0.7546771E-02  0.1701915E+00
          3   -1    0    0  503    0 -0.00000000000E+00  0.00000000000E+00  0.11902735857E+03  0.11902735857E+03  0.00000000000E+00 0. -1.
         21   -1    0    0  501  502  0.00000000000E+00 -0.00000000000E+00 -0.49235458288E+01  0.49235458288E+01  0.00000000000E+00 0.  1.
         21    1    1    2  503  502 -0.15236413562E+02  0.16380146731E+02  0.33368656483E+02  0.40173682189E+02  0.00000000000E+00 0.  1.
          3    1    1    2  501    0  0.15236413562E+02 -0.16380146731E+02  0.80735156262E+02  0.83777222213E+02  0.00000000000E+00 0. -1.
<mgrwt>
<rscale>  2 0.22370908E+02</rscale>
<asrwt>0</asrwt>
<pdfrwt beam="2">  1       21 0.75746868E-03 0.22370908E+02</pdfrwt>
<pdfrwt beam="1">  1        3 0.18311899E-01 0.22370908E+02</pdfrwt>
<totfact> 0.41172780E+06</totfact>
</mgrwt>
</event>
<event>
 4    1  0.2245608E+006  0.6509079E+02  0.7546771E-02  0.1377630E+00
         21   -1    0    0  503  502  0.00000000000E+00  0.00000000000E+00  0.52164099551E+03  0.52164099551E+03  0.00000000000E+00 0. -1.
          3   -1    0    0  502    0 -0.00000000000E+00 -0.00000000000E+00 -0.84187970300E+02  0.84187970300E+02  0.00000000000E+00 0. -1.
         21    1    1    2  503  501 -0.72356021538E+01 -0.64687383706E+02  0.50665854715E+03  0.51082256699E+03  0.00000000000E+00 0. -1.
          3    1    1    2  501    0  0.72356021538E+01  0.64687383706E+02 -0.69205521940E+02  0.95006398817E+02  0.00000000000E+00 0. -1.
<mgrwt>
<rscale>  2 0.65090795E+02</rscale>
<asrwt>0</asrwt>
<pdfrwt beam="1">  1       21 0.80252459E-01 0.65090795E+02</pdfrwt>
<pdfrwt beam="2">  1        3 0.12951996E-01 0.65090795E+02</pdfrwt>
<totfact> 0.31335571E+03</totfact>
</mgrwt>
</event>
<event>
 4    1  0.2245608E+006  0.2978894E+02  0.7546771E-02  0.1600433E+00
         21   -1    0    0  501  502  0.00000000000E+00  0.00000000000E+00  0.13598184633E+02  0.13598184633E+02  0.00000000000E+00 0.  1.
          1   -1    0    0  503    0 -0.00000000000E+00 -0.00000000000E+00 -0.11482721584E+03  0.11482721584E+03  0.00000000000E+00 0. -1.
         21    1    1    2  503  502 -0.76607248696E+01  0.28787054656E+02 -0.84247147709E+01  0.30957342267E+02  0.00000000000E+00 0.  1.
          1    1    1    2  501    0  0.76607248696E+01 -0.28787054656E+02 -0.92804316438E+02  0.97468058208E+02  0.00000000000E+00 0. -1.
<mgrwt>
<rscale>  2 0.29788945E+02</rscale>
<asrwt>0</asrwt>
<pdfrwt beam="1">  1       21 0.20920284E-02 0.29788945E+02</pdfrwt>
<pdfrwt beam="2">  1        1 0.17665725E-01 0.29788945E+02</pdfrwt>
<totfact> 0.27476240E+06</totfact>
</mgrwt>
</event>
<event>
 4    1  0.2245608E+006  0.2297414E+02  0.7546771E-02  0.1691930E+00
         21   -1    0    0  501  502  0.00000000000E+00  0.00000000000E+00  0.30009551490E+02  0.30009551490E+02  0.00000000000E+00 0.  1.
         -3   -1    0    0    0  501 -0.00000000000E+00 -0.00000000000E+00 -0.47026030015E+02  0.47026030015E+02  0.00000000000E+00 0. -1.
         21    1    1    2  503  502  0.20553810938E+02 -0.10264111072E+02  0.21966908081E+02  0.31786100277E+02  0.00000000000E+00 0.  1.
         -3    1    1    2    0  503 -0.20553810938E+02  0.10264111072E+02 -0.38983386605E+02  0.45249481228E+02  0.00000000000E+00 0. -1.
<mgrwt>
<rscale>  2 0.22974140E+02</rscale>
<asrwt>0</asrwt>
<pdfrwt beam="1">  1       21 0.46168541E-02 0.22974140E+02</pdfrwt>
<pdfrwt beam="2">  1       -3 0.72347738E-02 0.22974140E+02</pdfrwt>
<totfact> 0.11432192E+06</totfact>
</mgrwt>
</event>
<event>
 4    1  0.2245608E+006  0.3798316E+02  0.7546771E-02  0.1523600E+00
         21   -1    0    0  503  502  0.00000000000E+00  0.00000000000E+00  0.15896228445E+02  0.15896228445E+02  0.00000000000E+00 0. -1.
          1   -1    0    0  502    0 -0.00000000000E+00 -0.00000000000E+00 -0.12616619466E+03  0.12616619466E+03  0.00000000000E+00 0. -1.
         21    1    1    2  503  501  0.60869965102E+01  0.37492254853E+02 -0.17505743195E+02  0.41823100618E+02  0.00000000000E+00 0. -1.
          1    1    1    2  501    0 -0.60869965102E+01 -0.37492254853E+02 -0.92764223023E+02  0.10023932249E+03  0.00000000000E+00 0. -1.
<mgrwt>
<rscale>  2 0.37983163E+02</rscale>
<asrwt>0</asrwt>
<pdfrwt beam="1">  1       21 0.24455736E-02 0.37983163E+02</pdfrwt>
<pdfrwt beam="2">  1        1 0.19410184E-01 0.37983163E+02</pdfrwt>
<totfact> 0.20173475E+06</totfact>
</mgrwt>
</event>
<event>
 4    1  0.2245608E+006  0.4689745E+02  0.7546771E-02  0.1462832E+00
          2   -1    0    0  502    0 -0.00000000000E+00  0.00000000000E+00  0.16069468187E+03  0.16069468187E+03  0.00000000000E+00 0.  1.
         21   -1    0    0  503  502  0.00000000000E+00 -0.00000000000E+00 -0.53080084335E+02  0.53080084335E+02  0.00000000000E+00 0.  1.
         21    1    1    2  503  501 -0.46845317248E+02 -0.22107222811E+01 -0.38274245256E+02  0.60533370061E+02  0.00000000000E+00 0.  1.
          2    1    1    2  501    0  0.46845317248E+02  0.22107222811E+01  0.14588884279E+03  0.15324139614E+03  0.00000000000E+00 0.  1.
<mgrwt>
<rscale>  2 0.46897452E+02</rscale>
<asrwt>0</asrwt>
<pdfrwt beam="2">  1       21 0.81661669E-02 0.46897452E+02</pdfrwt>
<pdfrwt beam="1">  1        2 0.24722259E-01 0.46897452E+02</pdfrwt>
<totfact> 0.27878494E+05</totfact>
</mgrwt>
</event>
<event>
 4    1  0.2245608E+006  0.3695626E+02  0.7546771E-02  0.1531884E+00
         -2   -1    0    0    0  501 -0.00000000000E+00  0.00000000000E+00  0.71187890671E+03  0.71187890671E+03  0.00000000000E+00 0. -1.
         21   -1    0    0  501  502  0.00000000000E+00 -0.00000000000E+00 -0.10841222770E+03  0.10841222770E+03  0.00000000000E+00 0. -1.
         21    1    1    2  503  502 -0.10770817843E+02 -0.35351870728E+02 -0.10476692187E+03  0.11109398363E+03  0.00000000000E+00 0. -1.
         -2    1    1    2    0  503  0.10770817843E+02  0.35351870728E+02  0.70823360088E+03  0.70919715079E+03  0.00000000000E+00 0. -1.
<mgrwt>
<rscale>  2 0.36956262E+02</rscale>
<asrwt>0</asrwt>
<pdfrwt beam="2">  1       21 0.16678805E-01 0.36956262E+02</pdfrwt>
<pdfrwt beam="1">  1       -2 0.10951983E+00 0.36956262E+02</pdfrwt>
<totfact> 0.18938064E+03</totfact>
</mgrwt>
</event>
<event>
 4    1  0.2245608E+006  0.2252951E+02  0.7546771E-02  0.1699252E+00
         21   -1    0    0  503  502  0.00000000000E+00  0.00000000000E+00  0.20945519960E+01  0.20945519960E+01  0.00000000000E+00 0. -1.
          1   -1    0    0  502    0 -0.00000000000E+00 -0.00000000000E+00 -0.26016411356E+03  0.26016411356E+03  0.00000000000E+00 0. -1.
         21    1    1    2  503  501  0.17406620959E+02  0.14303443282E+02 -0.94705388047E+02  0.97348289498E+02  0.00000000000E+00 0. -1.
          1    1    1    2  501    0 -0.17406620959E+02 -0.14303443282E+02 -0.16336417352E+03  0.16491037606E+03  0.00000000000E+00 0. -1.
<mgrwt>
<rscale>  2 0.22529513E+02</rscale>
<asrwt>0</asrwt>
<pdfrwt beam="1">  1       21 0.32223883E-03 0.22529513E+02</pdfrwt>
<pdfrwt beam="2">  1        1 0.40025241E-01 0.22529513E+02</pdfrwt>
<totfact> 0.16143523E+07</totfact>
</mgrwt>
</event>
<event>
 4    1  0.2245608E+006  0.2152565E+02  0.7546771E-02  0.1716587E+00
         21   -1    0    0  501  502  0.00000000000E+00  0.00000000000E+00  0.12447182358E+01  0.12447182358E+01  0.00000000000E+00 0. -1.
          2   -1    0    0  503    0 -0.00000000000E+00 -0.00000000000E+00 -0.12613064835E+04  0.12613064835E+04  0.00000000000E+00 0.  1.
         21    1    1    2  503  502  0.18232711978E+02 -0.11442102819E+02 -0.10003564695E+03  0.10232538377E+03  0.00000000000E+00 0. -1.
          2    1    1    2  501    0 -0.18232711978E+02  0.11442102819E+02 -0.11600261183E+04  0.11602258179E+04  0.00000000000E+00 0.  1.
<mgrwt>
<rscale>  2 0.21525648E+02</rscale>
<asrwt>0</asrwt>
<pdfrwt beam="1">  1       21 0.19149620E-03 0.21525648E+02</pdfrwt>
<pdfrwt beam="2">  1        2 0.19404605E+00 0.21525648E+02</pdfrwt>
<totfact> 0.83108760E+06</totfact>
</mgrwt>
</event>
<event>
 4    1  0.2245608E+006  0.2021708E+02  0.7546771E-02  0.1741045E+00
         21   -1    0    0  501  502  0.00000000000E+00  0.00000000000E+00  0.77808504231E+02  0.77808504231E+02  0.00000000000E+00 0. -1.
          3   -1    0    0  503    0 -0.00000000000E+00 -0.00000000000E+00 -0.72825596436E+01  0.72825596436E+01  0.00000000000E+00 0.  1.
         21    1    1    2  503  502  0.21383803738E+01  0.20103677488E+02  0.57722958131E+02  0.61161020386E+02  0.00000000000E+00 0. -1.
          3    1    1    2  501    0 -0.21383803738E+01 -0.20103677488E+02  0.12802986456E+02  0.23930043489E+02  0.00000000000E+00 0.  1.
<mgrwt>
<rscale>  2 0.20217085E+02</rscale>
<asrwt>0</asrwt>
<pdfrwt beam="1">  1       21 0.11970539E-01 0.20217085E+02</pdfrwt>
<pdfrwt beam="2">  1        3 0.11203938E-02 0.20217085E+02</pdfrwt>
<totfact> 0.36121664E+06</totfact>
</mgrwt>
</event>
<event>
 4    1  0.2245608E+006  0.2034859E+02  0.7546771E-02  0.1738484E+00
         21   -1    0    0  501  502  0.00000000000E+00  0.00000000000E+00  0.30815832098E+01  0.30815832098E+01  0.00000000000E+00 0. -1.
          2   -1    0    0  503    0 -0.00000000000E+00 -0.00000000000E+00 -0.19726339763E+03  0.19726339763E+03  0.00000000000E+00 0.  1.
         21    1    1    2  503  502  0.18706293769E+02  0.80087160789E+01 -0.40527441803E+02  0.45349073848E+02  0.00000000000E+00 0. -1.
          2    1    1    2  501    0 -0.18706293769E+02 -0.80087160789E+01 -0.15365437262E+03  0.15499590699E+03  0.00000000000E+00 0.  1.
<mgrwt>
<rscale>  2 0.20348586E+02</rscale>
<asrwt>0</asrwt>
<pdfrwt beam="1">  1       21 0.47408943E-03 0.20348586E+02</pdfrwt>
<pdfrwt beam="2">  1        2 0.30348234E-01 0.20348586E+02</pdfrwt>
<totfact> 0.15962967E+07</totfact>
</mgrwt>
</event>
<event>
 4    1  0.2245608E+006  0.2777792E+02  0.7546771E-02  0.1624035E+00
          4   -1    0    0  503    0 -0.00000000000E+00  0.00000000000E+00  0.26689103721E+03  0.26689103721E+03  0.00000000000E+00 0. -1.
         21   -1    0    0  501  502  0.00000000000E+00 -0.00000000000E+00 -0.16957571233E+02  0.16957571233E+02  0.00000000000E+00 0.  1.
         21    1    1    2  503  502  0.23497572642E+02  0.14814744386E+02 -0.42942054947E+01  0.28107877403E+02  0.00000000000E+00 0.  1.
          4    1    1    2  501    0 -0.23497572642E+02 -0.14814744386E+02  0.25422767147E+03  0.25574073104E+03  0.00000000000E+00 0. -1.
<mgrwt>
<rscale>  2 0.27777915E+02</rscale>
<asrwt>0</asrwt>
<pdfrwt beam="2">  1       21 0.26088573E-02 0.27777915E+02</pdfrwt>
<pdfrwt beam="1">  1        4 0.41060157E-01 0.27777915E+02</pdfrwt>
<totfact> 0.12865546E+05</totfact>
</mgrwt>
</event>
<event>
 4    1  0.2245608E+006  0.2465082E+02  0.7546771E-02  0.1666068E+00
         21   -1    0    0  501  502  0.00000000000E+00  0.00000000000E+00  0.26625857022E+03  0.26625857022E+03  0.00000000000E+00 0. -1.
         -3   -1    0    0    0  501 -0.00000000000E+00 -0.00000000000E+00 -0.49385684703E+01  0.49385684703E+01  0.00000000000E+00 0.  1.
         21    1    1    2  503  502  0.13802297514E+02  0.20424488253E+02  0.23010806255E+03  0.23142468232E+03  0.00000000000E+00 0. -1.
         -3    1    1    2    0  503 -0.13802297514E+02 -0.20424488253E+02  0.31211939203E+02  0.39772456373E+02  0.00000000000E+00 0.  1.
<mgrwt>
<rscale>  2 0.24650824E+02</rscale>
<asrwt>0</asrwt>
<pdfrwt beam="1">  1       21 0.40962846E-01 0.24650824E+02</pdfrwt>
<pdfrwt beam="2">  1       -3 0.75977998E-03 0.24650824E+02</pdfrwt>
<totfact> 0.76751171E+05</totfact>
</mgrwt>
</event>
<event>
 4    1  0.2245608E+006  0.4195031E+02  0.7546771E-02  0.1494331E+00
          2   -1    0    0  503    0 -0.00000000000E+00  0.00000000000E+00  0.15209919706E+04  0.15209919706E+04  0.00000000000E+00 0.  1.
         21   -1    0    0  501  502  0.00000000000E+00 -0.00000000000E+00 -0.73961742967E+01  0.73961742967E+01  0.00000000000E+00 0. -1.
         21    1    1    2  503  502 -0.19652243654E+02  0.37062347733E+02  0.54918125947E+02  0.69107371949E+02  0.00000000000E+00 0. -1.
          2    1    1    2  501    0  0.19652243654E+02 -0.37062347733E+02  0.14586776703E+04  0.14592807729E+04  0.00000000000E+00 0.  1.
<mgrwt>
<rscale>  2 0.41950308E+02</rscale>
<asrwt>0</asrwt>
<pdfrwt beam="2">  1       21 0.11378742E-02 0.41950308E+02</pdfrwt>
<pdfrwt beam="1">  1        2 0.23399852E+00 0.41950308E+02</pdfrwt>
<totfact> 0.48645155E+05</totfact>
</mgrwt>
</event>
<event>
 4    1  0.2245608E+006  0.2392977E+02  0.7546771E-02  0.1676867E+00
          2   -1    0    0  503    0 -0.00000000000E+00  0.00000000000E+00  0.41513865561E+03  0.41513865561E+03  0.00000000000E+00 0. -1.
         21   -1    0    0  501  502  0.00000000000E+00 -0.00000000000E+00 -0.82798235041E+01  0.82798235041E+01  0.00000000000E+00 0.  1.
         21    1    1    2  503  502 -0.39973303213E+01 -0.23593542128E+02  0.10157932280E+02  0.25996489534E+02  0.00000000000E+00 0.  1.
          2    1    1    2  501    0  0.39973303213E+01  0.23593542128E+02  0.39670089982E+03  0.39742198958E+03  0.00000000000E+00 0. -1.
<mgrwt>
<rscale>  2 0.23929770E+02</rscale>
<asrwt>0</asrwt>
<pdfrwt beam="2">  1       21 0.12738193E-02 0.23929770E+02</pdfrwt>
<pdfrwt beam="1">  1        2 0.63867469E-01 0.23929770E+02</pdfrwt>
<totfact> 0.18300843E+06</totfact>
</mgrwt>
</event>
<event>
 4    1  0.2245608E+006  0.2057088E+02  0.7546771E-02  0.1734208E+00
         -1   -1    0    0    0  501 -0.00000000000E+00  0.00000000000E+00  0.92495466305E+02  0.92495466305E+02  0.00000000000E+00 0.  1.
         21   -1    0    0  501  502  0.00000000000E+00 -0.00000000000E+00 -0.43735260867E+02  0.43735260867E+02  0.00000000000E+00 0.  1.
         21    1    1    2  503  502  0.19647977074E+02 -0.60924621164E+01 -0.40074264036E+02  0.45045618386E+02  0.00000000000E+00 0.  1.
         -1    1    1    2    0  503 -0.19647977074E+02  0.60924621164E+01  0.88834469473E+02  0.91185108786E+02  0.00000000000E+00 0.  1.
<mgrwt>
<rscale>  2 0.20570880E+02</rscale>
<asrwt>0</asrwt>
<pdfrwt beam="2">  1       21 0.67285017E-02 0.20570880E+02</pdfrwt>
<pdfrwt beam="1">  1       -1 0.14230072E-01 0.20570880E+02</pdfrwt>
<totfact> 0.38175544E+05</totfact>
</mgrwt>
</event>
<event>
 4    1  0.2245608E+006  0.5772012E+02  0.7546771E-02  0.1407656E+00
         21   -1    0    0  503  502  0.00000000000E+00  0.00000000000E+00  0.84589081651E+03  0.84589081651E+03  0.00000000000E+00 0.  1.
          1   -1    0    0  502    0 -0.00000000000E+00 -0.00000000000E+00 -0.63137529509E+02  0.63137529509E+02  0.00000000000E+00 0.  1.
         21    1    1    2  503  501 -0.44722461178E+02  0.36489919371E+02  0.83148601906E+03  0.83348702008E+03  0.00000000000E+00 0.  1.
          1    1    1    2  501    0  0.44722461178E+02 -0.36489919371E+02 -0.48732732064E+02  0.75541325934E+02  0.00000000000E+00 0.  1.
<mgrwt>
<rscale>  2 0.57720124E+02</rscale>
<asrwt>0</asrwt>
<pdfrwt beam="1">  1       21 0.13013704E+00 0.57720124E+02</pdfrwt>
<pdfrwt beam="2">  1        1 0.97134667E-02 0.57720124E+02</pdfrwt>
<totfact> 0.32851302E+03</totfact>
</mgrwt>
</event>
<event>
 4    1  0.2245608E+006  0.2049256E+02  0.7546771E-02  0.1735707E+00
         21   -1    0    0  503  502  0.00000000000E+00  0.00000000000E+00  0.61229243727E+01  0.61229243727E+01  0.00000000000E+00 0. -1.
          1   -1    0    0  502    0 -0.00000000000E+00 -0.00000000000E+00 -0.19255337432E+03  0.19255337432E+03  0.00000000000E+00 0.  1.
         21    1    1    2  503  501  0.17294638562E+02  0.10992748521E+02 -0.13508543474E+02  0.24544363708E+02  0.00000000000E+00 0. -1.
          1    1    1    2  501    0 -0.17294638562E+02 -0.10992748521E+02 -0.17292190647E+03  0.17413193498E+03  0.00000000000E+00 0.  1.
<mgrwt>
<rscale>  2 0.20492561E+02</rscale>
<asrwt>0</asrwt>
<pdfrwt beam="1">  1       21 0.94198857E-03 0.20492561E+02</pdfrwt>
<pdfrwt beam="2">  1        1 0.29623589E-01 0.20492561E+02</pdfrwt>
<totfact> 0.45671528E+06</totfact>
</mgrwt>
</event>
<event>
 4    1  0.2245608E+006  0.2315439E+02  0.7546771E-02  0.1689020E+00
          1   -1    0    0  502    0 -0.00000000000E+00  0.00000000000E+00  0.18910177056E+04  0.18910177056E+04  0.00000000000E+00 0.  1.
         21   -1    0    0  503  502  0.00000000000E+00 -0.00000000000E+00 -0.71513366170E+00  0.71513366170E+00  0.00000000000E+00 0. -1.
         21    1    1    2  503  501  0.17423966281E+02 -0.15248967015E+02  0.21031942738E+03  0.21159013949E+03  0.00000000000E+00 0. -1.
          1    1    1    2  501    0 -0.17423966281E+02  0.15248967015E+02  0.16799831446E+04  0.16801426998E+04  0.00000000000E+00 0.  1.
<mgrwt>
<rscale>  2 0.23154386E+02</rscale>
<asrwt>0</asrwt>
<pdfrwt beam="2">  1       21 0.11002208E-03 0.23154386E+02</pdfrwt>
<pdfrwt beam="1">  1        1 0.29092180E+00 0.23154386E+02</pdfrwt>
<totfact> 0.40408861E+06</totfact>
</mgrwt>
</event>
<event>
 4    1  0.2245608E+006  0.3056039E+02  0.7546771E-02  0.1591976E+00
         21   -1    0    0  501  502  0.00000000000E+00  0.00000000000E+00  0.12464582576E+03  0.12464582576E+03  0.00000000000E+00 0. -1.
         -2   -1    0    0    0  501 -0.00000000000E+00 -0.00000000000E+00 -0.19480375610E+02  0.19480375610E+02  0.00000000000E+00 0. -1.
         21    1    1    2  503  502  0.16528506180E+02 -0.25704984292E+02  0.10911301305E+03  0.11331190296E+03  0.00000000000E+00 0. -1.
         -2    1    1    2    0  503 -0.16528506180E+02  0.25704984292E+02 -0.39475629002E+01  0.30814298416E+02  0.00000000000E+00 0. -1.
<mgrwt>
<rscale>  2 0.30560395E+02</rscale>
<asrwt>0</asrwt>
<pdfrwt beam="1">  1       21 0.19176280E-01 0.30560395E+02</pdfrwt>
<pdfrwt beam="2">  1       -2 0.29969809E-02 0.30560395E+02</pdfrwt>
<totfact> 0.64171903E+05</totfact>
</mgrwt>
</event>
<event>
 4    1  0.2245608E+006  0.2501173E+02  0.7546771E-02  0.1660834E+00
         -3   -1    0    0    0  501 -0.00000000000E+00  0.00000000000E+00  0.51691356426E+01  0.51691356426E+01  0.00000000000E+00 0. -1.
         21   -1    0    0  503  502  0.00000000000E+00 -0.00000000000E+00 -0.19380710360E+03  0.19380710360E+03  0.00000000000E+00 0. -1.
         21    1    1    2  503  501 -0.24997944989E+02 -0.83021238800E+00 -0.15528718409E+03  0.15728857571E+03  0.00000000000E+00 0. -1.
         -3    1    1    2    0  502  0.24997944989E+02  0.83021238800E+00 -0.33350783870E+02  0.41687663535E+02  0.00000000000E+00 0. -1.
<mgrwt>
<rscale>  2 0.25011727E+02</rscale>
<asrwt>0</asrwt>
<pdfrwt beam="2">  1       21 0.29816481E-01 0.25011727E+02</pdfrwt>
<pdfrwt beam="1">  1       -3 0.79525155E-03 0.25011727E+02</pdfrwt>
<totfact> 0.13037647E+06</totfact>
</mgrwt>
</event>
<event>
 4    1  0.2245608E+006  0.2353020E+02  0.7546771E-02  0.1683057E+00
          2   -1    0    0  502    0 -0.00000000000E+00  0.00000000000E+00  0.12739580724E+04  0.12739580724E+04  0.00000000000E+00 0.  1.
         21   -1    0    0  503  502  0.00000000000E+00 -0.00000000000E+00 -0.14184366653E+01  0.14184366653E+01  0.00000000000E+00 0.  1.
         21    1    1    2  503  501 -0.10649690055E+02 -0.20982235092E+02  0.10518538087E+03  0.10778513087E+03  0.00000000000E+00 0.  1.
          2    1    1    2  501    0  0.10649690055E+02  0.20982235092E+02  0.11673542548E+04  0.11675913781E+04  0.00000000000E+00 0.  1.
<mgrwt>
<rscale>  2 0.23530195E+02</rscale>
<asrwt>0</asrwt>
<pdfrwt beam="2">  1       21 0.21822205E-03 0.23530195E+02</pdfrwt>
<pdfrwt beam="1">  1        2 0.19599263E+00 0.23530195E+02</pdfrwt>
<totfact> 0.69237735E+06</totfact>
</mgrwt>
</event>
<event>
 4    1  0.2245608E+006  0.2483574E+02  0.7546771E-02  0.1663372E+00
          1   -1    0    0  503    0 -0.00000000000E+00  0.00000000000E+00  0.31380338130E+03  0.31380338130E+03  0.00000000000E+00 0.  1.
         21   -1    0    0  501  502  0.00000000000E+00 -0.00000000000E+00 -0.18758966635E+02  0.18758966635E+02  0.00000000000E+00 0.  1.
         21    1    1    2  503  502 -0.16225646581E+02 -0.18802722360E+02 -0.98063016928E+01  0.26701639051E+02  0.00000000000E+00 0.  1.
          1    1    1    2  501    0  0.16225646581E+02  0.18802722360E+02  0.30485071636E+03  0.30586070888E+03  0.00000000000E+00 0.  1.
<mgrwt>
<rscale>  2 0.24835740E+02</rscale>
<asrwt>0</asrwt>
<pdfrwt beam="2">  1       21 0.28859951E-02 0.24835740E+02</pdfrwt>
<pdfrwt beam="1">  1        1 0.48277440E-01 0.24835740E+02</pdfrwt>
<totfact> 0.49202881E+05</totfact>
</mgrwt>
</event>
<event>
 4    1  0.2245608E+006  0.3866471E+02  0.7546771E-02  0.1518274E+00
          1   -1    0    0  503    0 -0.00000000000E+00  0.00000000000E+00  0.26951583394E+04  0.26951583394E+04  0.00000000000E+00 0.  1.
         21   -1    0    0  501  502  0.00000000000E+00 -0.00000000000E+00 -0.88342831256E+00  0.88342831256E+00  0.00000000000E+00 0. -1.
         21    1    1    2  503  502  0.31774855440E+02 -0.22029938784E+02  0.52481817749E+03  0.52624051446E+03  0.00000000000E+00 0. -1.
          1    1    1    2  501    0 -0.31774855440E+02  0.22029938784E+02  0.21694567336E+04  0.21698012533E+04  0.00000000000E+00 0.  1.
<mgrwt>
<rscale>  2 0.38664708E+02</rscale>
<asrwt>0</asrwt>
<pdfrwt beam="2">  1       21 0.13591421E-03 0.38664708E+02</pdfrwt>
<pdfrwt beam="1">  1        1 0.41463316E+00 0.38664708E+02</pdfrwt>
<totfact> 0.10331917E+06</totfact>
</mgrwt>
</event>
<event>
 4    1  0.2245608E+006  0.2302640E+02  0.7546771E-02  0.1691083E+00
         -2   -1    0    0    0  501 -0.00000000000E+00  0.00000000000E+00  0.40545868070E+03  0.40545868070E+03  0.00000000000E+00 0. -1.
         21   -1    0    0  503  502  0.00000000000E+00 -0.00000000000E+00 -0.31454152299E+01  0.31454152299E+01  0.00000000000E+00 0.  1.
         21    1    1    2  503  501 -0.22907693292E+02 -0.23350958370E+01  0.44995202938E+02  0.50544864942E+02  0.00000000000E+00 0.  1.
         -2    1    1    2    0  502  0.22907693292E+02  0.23350958370E+01  0.35731806254E+03  0.35805923099E+03  0.00000000000E+00 0. -1.
<mgrwt>
<rscale>  2 0.23026400E+02</rscale>
<asrwt>0</asrwt>
<pdfrwt beam="2">  1       21 0.48391036E-03 0.23026400E+02</pdfrwt>
<pdfrwt beam="1">  1       -2 0.62378217E-01 0.23026400E+02</pdfrwt>
<totfact> 0.15975147E+06</totfact>
</mgrwt>
</event>
<event>
 4    1  0.2245608E+006  0.3127137E+02  0.7546771E-02  0.1584446E+00
          2   -1    0    0  502    0 -0.00000000000E+00  0.00000000000E+00  0.94010768698E+03  0.94010768698E+03  0.00000000000E+00 0.  1.
         21   -1    0    0  503  502  0.00000000000E+00 -0.00000000000E+00 -0.30578512028E+01  0.30578512028E+01  0.00000000000E+00 0.  1.
         21    1    1    2  503  501 -0.23371484155E+00  0.31270494796E+02  0.85459473722E+02  0.91001209421E+02  0.00000000000E+00 0.  1.
          2    1    1    2  501    0  0.23371484155E+00 -0.31270494796E+02  0.85159036206E+03  0.85216432877E+03  0.00000000000E+00 0.  1.
<mgrwt>
<rscale>  2 0.31271368E+02</rscale>
<asrwt>0</asrwt>
<pdfrwt beam="2">  1       21 0.47043940E-03 0.31271368E+02</pdfrwt>
<pdfrwt beam="1">  1        2 0.14463172E+00 0.31271368E+02</pdfrwt>
<totfact> 0.35566910E+06</totfact>
</mgrwt>
</event>
<event>
 4    1  0.2245608E+006  0.5129840E+02  0.7546771E-02  0.1438462E+00
          2   -1    0    0  502    0 -0.00000000000E+00  0.00000000000E+00  0.90715550635E+03  0.90715550635E+03  0.00000000000E+00 0. -1.
         21   -1    0    0  503  502  0.00000000000E+00 -0.00000000000E+00 -0.22641694600E+02  0.22641694600E+02  0.00000000000E+00 0.  1.
         21    1    1    2  503  501  0.47035320829E+02  0.20474490022E+02  0.81601003592E+01  0.51943367094E+02  0.00000000000E+00 0.  1.
          2    1    1    2  501    0 -0.47035320829E+02 -0.20474490022E+02  0.87635371139E+03  0.87785383386E+03  0.00000000000E+00 0. -1.
<mgrwt>
<rscale>  2 0.51298403E+02</rscale>
<asrwt>0</asrwt>
<pdfrwt beam="2">  1       21 0.34833383E-02 0.51298403E+02</pdfrwt>
<pdfrwt beam="1">  1        2 0.13956236E+00 0.51298403E+02</pdfrwt>
<totfact> 0.17950223E+05</totfact>
</mgrwt>
</event>
<event>
 4    1  0.2245608E+006  0.2126046E+02  0.7546771E-02  0.1721365E+00
         -2   -1    0    0    0  501 -0.00000000000E+00  0.00000000000E+00  0.16253532378E+03  0.16253532378E+03  0.00000000000E+00 0.  1.
         21   -1    0    0  503  502  0.00000000000E+00 -0.00000000000E+00 -0.33307010732E+01  0.33307010732E+01  0.00000000000E+00 0. -1.
         21    1    1    2  503  501 -0.82484508200E+01  0.19595159481E+02  0.45909949352E+02  0.50593780897E+02  0.00000000000E+00 0. -1.
         -2    1    1    2    0  502  0.82484508200E+01 -0.19595159481E+02  0.11329467336E+03  0.11527224396E+03  0.00000000000E+00 0.  1.
<mgrwt>
<rscale>  2 0.21260461E+02</rscale>
<asrwt>0</asrwt>
<pdfrwt beam="2">  1       21 0.51241568E-03 0.21260461E+02</pdfrwt>
<pdfrwt beam="1">  1       -2 0.25005428E-01 0.21260461E+02</pdfrwt>
<totfact> 0.75277451E+06</totfact>
</mgrwt>
</event>
<event>
 4    1  0.2245608E+006  0.2165343E+02  0.7546771E-02  0.1714316E+00
          2   -1    0    0  502    0 -0.00000000000E+00  0.00000000000E+00  0.58657349577E+03  0.58657349577E+03  0.00000000000E+00 0.  1.
         21   -1    0    0  503  502  0.00000000000E+00 -0.00000000000E+00 -0.43382246611E+01  0.43382246611E+01  0.00000000000E+00 0.  1.
         21    1    1    2  503  501  0.26628625062E+01  0.21489068057E+02  0.24265996716E+02  0.32522445777E+02  0.00000000000E+00 0.  1.
          2    1    1    2  501    0 -0.26628625062E+01 -0.21489068057E+02  0.55796927439E+03  0.55838927465E+03  0.00000000000E+00 0.  1.
<mgrwt>
<rscale>  2 0.21653427E+02</rscale>
<asrwt>0</asrwt>
<pdfrwt beam="2">  1       21 0.66741964E-03 0.21653427E+02</pdfrwt>
<pdfrwt beam="1">  1        2 0.90242014E-01 0.21653427E+02</pdfrwt>
<totfact> 0.33245548E+06</totfact>
</mgrwt>
</event>
<event>
 4    1  0.2245608E+006  0.2655322E+02  0.7546771E-02  0.1639645E+00
         21   -1    0    0  503  502  0.00000000000E+00  0.00000000000E+00  0.35804802173E+01  0.35804802173E+01  0.00000000000E+00 0.  1.
          2   -1    0    0  502    0 -0.00000000000E+00 -0.00000000000E+00 -0.17178610021E+04  0.17178610021E+04  0.00000000000E+00 0. -1.
         21    1    1    2  503  501 -0.65533634695E+01  0.25731828015E+02 -0.47253634623E+02  0.54203132113E+02  0.00000000000E+00 0.  1.
          2    1    1    2  501    0  0.65533634695E+01 -0.25731828015E+02 -0.16670268872E+04  0.16672383502E+04  0.00000000000E+00 0. -1.
<mgrwt>
<rscale>  2 0.26553221E+02</rscale>
<asrwt>0</asrwt>
<pdfrwt beam="1">  1       21 0.55084350E-03 0.26553221E+02</pdfrwt>
<pdfrwt beam="2">  1        2 0.26428612E+00 0.26553221E+02</pdfrwt>
<totfact> 0.11177348E+06</totfact>
</mgrwt>
</event>
<event>
 4    1  0.2245608E+006  0.2352768E+02  0.7546771E-02  0.1683097E+00
         -1   -1    0    0    0  501 -0.00000000000E+00  0.00000000000E+00  0.39454398771E+03  0.39454398771E+03  0.00000000000E+00 0. -1.
         21   -1    0    0  501  502  0.00000000000E+00 -0.00000000000E+00 -0.10449186565E+02  0.10449186565E+02  0.00000000000E+00 0.  1.
         21    1    1    2  503  502  0.15930026640E+02 -0.17314329165E+02  0.36352792555E+01  0.23806868724E+02  0.00000000000E+00 0.  1.
         -1    1    1    2    0  503 -0.15930026640E+02  0.17314329165E+02  0.38045952188E+03  0.38118630555E+03  0.00000000000E+00 0. -1.
<mgrwt>
<rscale>  2 0.23527680E+02</rscale>
<asrwt>0</asrwt>
<pdfrwt beam="2">  1       21 0.16075675E-02 0.23527680E+02</pdfrwt>
<pdfrwt beam="1">  1       -1 0.60699064E-01 0.23527680E+02</pdfrwt>
<totfact> 0.36023699E+05</totfact>
</mgrwt>
</event>
<event>
 4    1  0.2245608E+006  0.2192228E+02  0.7546771E-02  0.1709600E+00
         21   -1    0    0  501  502  0.00000000000E+00  0.00000000000E+00  0.23956461302E+01  0.23956461302E+01  0.00000000000E+00 0.  1.
         -1   -1    0    0    0  501 -0.00000000000E+00 -0.00000000000E+00 -0.45748727824E+03  0.45748727824E+03  0.00000000000E+00 0.  1.
         21    1    1    2  503  502 -0.21746926923E+02  0.27671990252E+01 -0.55243086296E+02  0.59433869170E+02  0.00000000000E+00 0.  1.
         -1    1    1    2    0  503  0.21746926923E+02 -0.27671990252E+01 -0.39984854582E+03  0.40044905520E+03  0.00000000000E+00 0.  1.
<mgrwt>
<rscale>  2 0.21922277E+02</rscale>
<asrwt>0</asrwt>
<pdfrwt beam="1">  1       21 0.36856069E-03 0.21922277E+02</pdfrwt>
<pdfrwt beam="2">  1       -1 0.70382706E-01 0.21922277E+02</pdfrwt>
<totfact> 0.24288929E+06</totfact>
</mgrwt>
</event>
<event>
 4    1  0.2245608E+006  0.2130130E+02  0.7546771E-02  0.1720623E+00
         21   -1    0    0  501  502  0.00000000000E+00  0.00000000000E+00  0.35339585770E+03  0.35339585770E+03  0.00000000000E+00 0. -1.
         -2   -1    0    0    0  501 -0.00000000000E+00 -0.00000000000E+00 -0.88185146730E+01  0.88185146730E+01  0.00000000000E+00 0. -1.
         21    1    1    2  503  502 -0.12711363652E+02 -0.17092884205E+02  0.33969304994E+03  0.34036027035E+03  0.00000000000E+00 0. -1.
         -2    1    1    2    0  503  0.12711363652E+02  0.17092884205E+02  0.48842930908E+01  0.21854102025E+02  0.00000000000E+00 0. -1.
<mgrwt>
<rscale>  2 0.21301302E+02</rscale>
<asrwt>0</asrwt>
<pdfrwt beam="1">  1       21 0.54368583E-01 0.21301302E+02</pdfrwt>
<pdfrwt beam="2">  1       -2 0.13566948E-02 0.21301302E+02</pdfrwt>
<totfact> 0.26118222E+05</totfact>
</mgrwt>
</event>
<event>
 4    1  0.2245608E+006  0.6576434E+02  0.7546771E-02  0.1375119E+00
         21   -1    0    0  501  502  0.00000000000E+00  0.00000000000E+00  0.73493170497E+02  0.73493170497E+02  0.00000000000E+00 0. -1.
          1   -1    0    0  503    0 -0.00000000000E+00 -0.00000000000E+00 -0.96598672916E+02  0.96598672916E+02  0.00000000000E+00 0. -1.
         21    1    1    2  503  502 -0.64679058104E+02  0.11898210785E+02  0.41612583025E+02  0.77823871936E+02  0.00000000000E+00 0. -1.
          1    1    1    2  501    0  0.64679058104E+02 -0.11898210785E+02 -0.64718085444E+02  0.92267971478E+02  0.00000000000E+00 0. -1.
<mgrwt>
<rscale>  2 0.65764337E+02</rscale>
<asrwt>0</asrwt>
<pdfrwt beam="1">  1       21 0.11306642E-01 0.65764337E+02</pdfrwt>
<pdfrwt beam="2">  1        1 0.14861334E-01 0.65764337E+02</pdfrwt>
<totfact> 0.24461191E+05</totfact>
</mgrwt>
</event>
<event>
 4    1  0.2245608E+006  0.3004977E+02  0.7546771E-02  0.1597539E+00
         21   -1    0    0  503  502  0.00000000000E+00  0.00000000000E+00  0.10159168542E+02  0.10159168542E+02  0.00000000000E+00 0.  1.
          2   -1    0    0  502    0 -0.00000000000E+00 -0.00000000000E+00 -0.37536692767E+03  0.37536692767E+03  0.00000000000E+00 0.  1.
         21    1    1    2  503  501 -0.20155971146E+02  0.22287344821E+02 -0.14202729658E+02  0.33237124451E+02  0.00000000000E+00 0.  1.
          2    1    1    2  501    0  0.20155971146E+02 -0.22287344821E+02 -0.35100502947E+03  0.35228897176E+03  0.00000000000E+00 0.  1.
<mgrwt>
<rscale>  2 0.30049774E+02</rscale>
<asrwt>0</asrwt>
<pdfrwt beam="1">  1       21 0.15629490E-02 0.30049774E+02</pdfrwt>
<pdfrwt beam="2">  1        2 0.57748759E-01 0.30049774E+02</pdfrwt>
<totfact> 0.15482953E+06</totfact>
</mgrwt>
</event>
<event>
 4    1  0.2245608E+006  0.3265887E+02  0.7546771E-02  0.1570431E+00
         21   -1    0    0  503  502  0.00000000000E+00  0.00000000000E+00  0.43592136662E+02  0.43592136662E+02  0.00000000000E+00 0. -1.
         -4   -1    0    0    0  501 -0.00000000000E+00 -0.00000000000E+00 -0.64486294220E+02  0.64486294220E+02  0.00000000000E+00 0.  1.
         21    1    1    2  503  501 -0.31662914138E+02  0.80038361087E+01  0.32123148139E+02  0.45809367716E+02  0.00000000000E+00 0. -1.
         -4    1    1    2    0  502  0.31662914138E+02 -0.80038361087E+01 -0.53017305697E+02  0.62269063166E+02  0.00000000000E+00 0.  1.
<mgrwt>
<rscale>  2 0.32658866E+02</rscale>
<asrwt>0</asrwt>
<pdfrwt beam="1">  1       21 0.67064826E-02 0.32658866E+02</pdfrwt>
<pdfrwt beam="2">  1       -4 0.99209683E-02 0.32658866E+02</pdfrwt>
<totfact> 0.35662712E+05</totfact>
</mgrwt>
</event>
<event>
 4    1  0.2245608E+006  0.2254451E+02  0.7546771E-02  0.1699002E+00
          2   -1    0    0  503    0 -0.00000000000E+00  0.00000000000E+00  0.67230208683E+03  0.67230208683E+03  0.00000000000E+00 0. -1.
         21   -1    0    0  501  502  0.00000000000E+00 -0.00000000000E+00 -0.44659856105E+01  0.44659856105E+01  0.00000000000E+00 0. -1.
         21    1    1    2  503  502 -0.20491437098E+02 -0.93997878205E+01  0.25501420958E+02  0.34037882958E+02  0.00000000000E+00 0. -1.
          2    1    1    2  501    0  0.20491437098E+02  0.93997878205E+01  0.64233468026E+03  0.64273018949E+03  0.00000000000E+00 0. -1.
<mgrwt>
<rscale>  2 0.22544512E+02</rscale>
<asrwt>0</asrwt>
<pdfrwt beam="2">  1       21 0.68707524E-03 0.22544512E+02</pdfrwt>
<pdfrwt beam="1">  1        2 0.10343101E+00 0.22544512E+02</pdfrwt>
<totfact> 0.27841344E+06</totfact>
</mgrwt>
</event>
<event>
 4    1  0.2245608E+006  0.3113930E+02  0.7546771E-02  0.1585826E+00
         21   -1    0    0  501  502  0.00000000000E+00  0.00000000000E+00  0.14661181204E+02  0.14661181204E+02  0.00000000000E+00 0.  1.
         -2   -1    0    0    0  501 -0.00000000000E+00 -0.00000000000E+00 -0.95804113095E+02  0.95804113095E+02  0.00000000000E+00 0.  1.
         21    1    1    2  503  502  0.15166937091E+02  0.27195957212E+02 -0.98362217785E+01  0.32655892704E+02  0.00000000000E+00 0.  1.
         -2    1    1    2    0  503 -0.15166937091E+02 -0.27195957212E+02 -0.71306710113E+02  0.77809401595E+02  0.00000000000E+00 0.  1.
<mgrwt>
<rscale>  2 0.31139301E+02</rscale>
<asrwt>0</asrwt>
<pdfrwt beam="1">  1       21 0.22555664E-02 0.31139301E+02</pdfrwt>
<pdfrwt beam="2">  1       -2 0.14739094E-01 0.31139301E+02</pdfrwt>
<totfact> 0.20826275E+06</totfact>
</mgrwt>
</event>
<event>
 4    1  0.2245608E+006  0.3707105E+02  0.7546771E-02  0.1530942E+00
          2   -1    0    0  502    0 -0.00000000000E+00  0.00000000000E+00  0.22524534760E+04  0.22524534760E+04  0.00000000000E+00 0. -1.
         21   -1    0    0  503  502  0.00000000000E+00 -0.00000000000E+00 -0.95084363609E+02  0.95084363609E+02  0.00000000000E+00 0.  1.
         21    1    1    2  503  501  0.36452180765E+02 -0.67454819369E+01 -0.91312500793E+02  0.98550676356E+02  0.00000000000E+00 0.  1.
          2    1    1    2  501    0 -0.36452180765E+02  0.67454819369E+01  0.22486816132E+04  0.22489871632E+04  0.00000000000E+00 0. -1.
<mgrwt>
<rscale>  2 0.37071054E+02</rscale>
<asrwt>0</asrwt>
<pdfrwt beam="2">  1       21 0.14628365E-01 0.37071054E+02</pdfrwt>
<pdfrwt beam="1">  1        2 0.34653126E+00 0.37071054E+02</pdfrwt>
<totfact> 0.34783707E+03</totfact>
</mgrwt>
</event>
<event>
 4    1  0.2245608E+006  0.2683282E+02  0.7546771E-02  0.1635991E+00
          1   -1    0    0  503    0 -0.00000000000E+00  0.00000000000E+00  0.19444987245E+04  0.19444987245E+04  0.00000000000E+00 0. -1.
         21   -1    0    0  501  502  0.00000000000E+00 -0.00000000000E+00 -0.21414852739E+01  0.21414852739E+01  0.00000000000E+00 0. -1.
         21    1    1    2  503  502  0.11774838879E+02 -0.24111270574E+02  0.85995444597E+02  0.90084497506E+02  0.00000000000E+00 0. -1.
          1    1    1    2  501    0 -0.11774838879E+02  0.24111270574E+02  0.18563617947E+04  0.18565557123E+04  0.00000000000E+00 0. -1.
<mgrwt>
<rscale>  2 0.26832819E+02</rscale>
<asrwt>0</asrwt>
<pdfrwt beam="2">  1       21 0.32946083E-03 0.26832819E+02</pdfrwt>
<pdfrwt beam="1">  1        1 0.29915224E+00 0.26832819E+02</pdfrwt>
<totfact> 0.78636358E+05</totfact>
</mgrwt>
</event>
<event>
 4    1  0.2245608E+006  0.2271961E+02  0.7546771E-02  0.1696096E+00
         21   -1    0    0  503  502  0.00000000000E+00  0.00000000000E+00  0.63287960423E+01  0.63287960423E+01  0.00000000000E+00 0. -1.
         -2   -1    0    0    0  501 -0.00000000000E+00 -0.00000000000E+00 -0.28441911996E+03  0.28441911996E+03  0.00000000000E+00 0.  1.
         21    1    1    2  503  501  0.11627618144E+01 -0.22689833495E+02 -0.16271892720E+02  0.27945573026E+02  0.00000000000E+00 0. -1.
         -2    1    1    2    0  502 -0.11627618144E+01  0.22689833495E+02 -0.26181843120E+03  0.26280234298E+03  0.00000000000E+00 0.  1.
<mgrwt>
<rscale>  2 0.22719607E+02</rscale>
<asrwt>0</asrwt>
<pdfrwt beam="1">  1       21 0.97366109E-03 0.22719607E+02</pdfrwt>
<pdfrwt beam="2">  1       -2 0.43756780E-01 0.22719607E+02</pdfrwt>
<totfact> 0.11114872E+06</totfact>
</mgrwt>
</event>
<event>
 4    1  0.2245608E+006  0.2172733E+02  0.7546771E-02  0.1713011E+00
          1   -1    0    0  502    0 -0.00000000000E+00  0.00000000000E+00  0.50959767071E+03  0.50959767071E+03  0.00000000000E+00 0.  1.
         21   -1    0    0  503  502  0.00000000000E+00 -0.00000000000E+00 -0.28230319772E+01  0.28230319772E+01  0.00000000000E+00 0. -1.
         21    1    1    2  503  501 -0.18759115838E+02 -0.10962318821E+02  0.43380427448E+02  0.48517402513E+02  0.00000000000E+00 0. -1.
          1    1    1    2  501    0  0.18759115838E+02  0.10962318821E+02  0.46339421128E+03  0.46390330017E+03  0.00000000000E+00 0.  1.
<mgrwt>
<rscale>  2 0.21727330E+02</rscale>
<asrwt>0</asrwt>
<pdfrwt beam="2">  1       21 0.43431302E-03 0.21727330E+02</pdfrwt>
<pdfrwt beam="1">  1        1 0.78399569E-01 0.21727330E+02</pdfrwt>
<totfact> 0.47184420E+06</totfact>
</mgrwt>
</event>
<event>
 4    1  0.2245608E+006  0.2918672E+02  0.7546771E-02  0.1607256E+00
          1   -1    0    0  503    0 -0.00000000000E+00  0.00000000000E+00  0.26228772760E+03  0.26228772760E+03  0.00000000000E+00 0.  1.
         21   -1    0    0  501  502  0.00000000000E+00 -0.00000000000E+00 -0.56994543083E+01  0.56994543083E+01  0.00000000000E+00 0.  1.
         21    1    1    2  503  502  0.12382514394E+02  0.26429871646E+02  0.40413186599E+02  0.49850681330E+02  0.00000000000E+00 0.  1.
          1    1    1    2  501    0 -0.12382514394E+02 -0.26429871646E+02  0.21617508669E+03  0.21813650058E+03  0.00000000000E+00 0.  1.
<mgrwt>
<rscale>  2 0.29186723E+02</rscale>
<asrwt>0</asrwt>
<pdfrwt beam="2">  1       21 0.87683933E-03 0.29186723E+02</pdfrwt>
<pdfrwt beam="1">  1        1 0.40351949E-01 0.29186723E+02</pdfrwt>
<totfact> 0.38813004E+06</totfact>
</mgrwt>
</event>
<event>
 4    1  0.2245608E+006  0.2137999E+02  0.7546771E-02  0.1719201E+00
         21   -1    0    0  501  502  0.00000000000E+00  0.00000000000E+00  0.33239656129E+02  0.33239656129E+02  0.00000000000E+00 0. -1.
         -3   -1    0    0    0  501 -0.00000000000E+00 -0.00000000000E+00 -0.42280126476E+02  0.42280126476E+02  0.00000000000E+00 0. -1.
         21    1    1    2  503  502 -0.80560344529E+01 -0.19804153481E+02  0.26496847990E+02  0.34046837439E+02  0.00000000000E+00 0. -1.
         -3    1    1    2    0  503  0.80560344529E+01  0.19804153481E+02 -0.35537318336E+02  0.41472945166E+02  0.00000000000E+00 0. -1.
<mgrwt>
<rscale>  2 0.21379995E+02</rscale>
<asrwt>0</asrwt>
<pdfrwt beam="1">  1       21 0.51137932E-02 0.21379995E+02</pdfrwt>
<pdfrwt beam="2">  1       -3 0.65046349E-02 0.21379995E+02</pdfrwt>
<totfact> 0.11141662E+06</totfact>
</mgrwt>
</event>
<event>
 4    1  0.2245608E+006  0.2405442E+02  0.7546771E-02  0.1674967E+00
         -3   -1    0    0    0  501 -0.00000000000E+00  0.00000000000E+00  0.17351033219E+01  0.17351033219E+01  0.00000000000E+00 0.  1.
         21   -1    0    0  501  502  0.00000000000E+00 -0.00000000000E+00 -0.71193966254E+03  0.71193966254E+03  0.00000000000E+00 0.  1.
         21    1    1    2  503  502 -0.23557256231E+02 -0.48652790092E+01 -0.61527446401E+03  0.61574449354E+03  0.00000000000E+00 0.  1.
         -3    1    1    2    0  503  0.23557256231E+02  0.48652790092E+01 -0.94930095201E+02  0.97930272315E+02  0.00000000000E+00 0.  1.
<mgrwt>
<rscale>  2 0.24054423E+02</rscale>
<asrwt>0</asrwt>
<pdfrwt beam="2">  1       21 0.10952918E+00 0.24054423E+02</pdfrwt>
<pdfrwt beam="1">  1       -3 0.26693898E-03 0.24054423E+02</pdfrwt>
<totfact> 0.44452720E+05</totfact>
</mgrwt>
</event>
<event>
 4    1  0.2245608E+006  0.2055165E+02  0.7546771E-02  0.1734575E+00
         -1   -1    0    0    0  501 -0.00000000000E+00  0.00000000000E+00  0.20648630743E+02  0.20648630743E+02  0.00000000000E+00 0.  1.
         21   -1    0    0  501  502  0.00000000000E+00 -0.00000000000E+00 -0.29695822362E+03  0.29695822362E+03  0.00000000000E+00 0. -1.
         21    1    1    2  503  502  0.15196231646E+02 -0.13836361772E+02 -0.29139128526E+03  0.29211513397E+03  0.00000000000E+00 0. -1.
         -1    1    1    2    0  503 -0.15196231646E+02  0.13836361772E+02  0.15081692391E+02  0.25491720395E+02  0.00000000000E+00 0.  1.
<mgrwt>
<rscale>  2 0.20551651E+02</rscale>
<asrwt>0</asrwt>
<pdfrwt beam="2">  1       21 0.45685876E-01 0.20551651E+02</pdfrwt>
<pdfrwt beam="1">  1       -1 0.31767127E-02 0.20551651E+02</pdfrwt>
<totfact> 0.11531219E+05</totfact>
</mgrwt>
</event>
<event>
 4    1  0.2245608E+006  0.2377903E+02  0.7546771E-02  0.1679185E+00
         21   -1    0    0  501  502  0.00000000000E+00  0.00000000000E+00  0.32866604404E+01  0.32866604404E+01  0.00000000000E+00 0.  1.
          2   -1    0    0  503    0 -0.00000000000E+00 -0.00000000000E+00 -0.37165437593E+03  0.37165437593E+03  0.00000000000E+00 0. -1.
         21    1    1    2  503  502 -0.23170948926E+02 -0.53431591919E+01 -0.46793088995E+02  0.52488431125E+02  0.00000000000E+00 0.  1.
          2    1    1    2  501    0  0.23170948926E+02  0.53431591919E+01 -0.32157462649E+03  0.32245260524E+03  0.00000000000E+00 0. -1.
<mgrwt>
<rscale>  2 0.23779029E+02</rscale>
<asrwt>0</asrwt>
<pdfrwt beam="1">  1       21 0.50564019E-03 0.23779029E+02</pdfrwt>
<pdfrwt beam="2">  1        2 0.57177583E-01 0.23779029E+02</pdfrwt>
<totfact> 0.81148878E+06</totfact>
</mgrwt>
</event>
<event>
 4    1  0.2245608E+006  0.2256970E+02  0.7546771E-02  0.1698582E+00
         21   -1    0    0  503  502  0.00000000000E+00  0.00000000000E+00  0.97480490408E+00  0.97480490408E+00  0.00000000000E+00 0. -1.
          2   -1    0    0  502    0 -0.00000000000E+00 -0.00000000000E+00 -0.11295942439E+04  0.11295942439E+04  0.00000000000E+00 0.  1.
         21    1    1    2  503  501 -0.22312068025E+01 -0.22459142191E+02 -0.14991573089E+03  0.15160513751E+03  0.00000000000E+00 0. -1.
          2    1    1    2  501    0  0.22312068025E+01  0.22459142191E+02 -0.97870370807E+03  0.97896391126E+03  0.00000000000E+00 0.  1.
<mgrwt>
<rscale>  2 0.22569700E+02</rscale>
<asrwt>0</asrwt>
<pdfrwt beam="1">  1       21 0.14997063E-03 0.22569700E+02</pdfrwt>
<pdfrwt beam="2">  1        2 0.17378298E+00 0.22569700E+02</pdfrwt>
<totfact> 0.13904294E+07</totfact>
</mgrwt>
</event>
<event>
 4    1  0.2245608E+006  0.3934118E+02  0.7546771E-02  0.1513116E+00
          2   -1    0    0  502    0 -0.00000000000E+00  0.00000000000E+00  0.12651895202E+04  0.12651895202E+04  0.00000000000E+00 0. -1.
         21   -1    0    0  503  502  0.00000000000E+00 -0.00000000000E+00 -0.33585721727E+01  0.33585721727E+01  0.00000000000E+00 0. -1.
         21    1    1    2  503  501  0.23479285513E+02 -0.31566620870E+02  0.12517880349E+03  0.13121532397E+03  0.00000000000E+00 0. -1.
          2    1    1    2  501    0 -0.23479285513E+02  0.31566620870E+02  0.11366521445E+04  0.11373327684E+04  0.00000000000E+00 0. -1.
<mgrwt>
<rscale>  2 0.39341179E+02</rscale>
<asrwt>0</asrwt>
<pdfrwt beam="2">  1       21 0.51670442E-03 0.39341179E+02</pdfrwt>
<pdfrwt beam="1">  1        2 0.19464416E+00 0.39341179E+02</pdfrwt>
<totfact> 0.21478417E+06</totfact>
</mgrwt>
</event>
<event>
 4    1  0.2245608E+006  0.3289331E+02  0.7546771E-02  0.1568146E+00
          4   -1    0    0  503    0 -0.00000000000E+00  0.00000000000E+00  0.98751972987E+02  0.98751972987E+02  0.00000000000E+00 0. -1.
         21   -1    0    0  501  502  0.00000000000E+00 -0.00000000000E+00 -0.16240309546E+02  0.16240309546E+02  0.00000000000E+00 0.  1.
         21    1    1    2  503  502 -0.21851559982E+02  0.24586158095E+02  0.84600729085E+01  0.33963843674E+02  0.00000000000E+00 0.  1.
          4    1    1    2  501    0  0.21851559982E+02 -0.24586158095E+02  0.74051590532E+02  0.81028438859E+02  0.00000000000E+00 0. -1.
<mgrwt>
<rscale>  2 0.32893310E+02</rscale>
<asrwt>0</asrwt>
<pdfrwt beam="2">  1       21 0.24985092E-02 0.32893310E+02</pdfrwt>
<pdfrwt beam="1">  1        4 0.15192611E-01 0.32893310E+02</pdfrwt>
<totfact> 0.85695516E+05</totfact>
</mgrwt>
</event>
<event>
 4    1  0.2245608E+006  0.4236144E+02  0.7546771E-02  0.1491520E+00
         21   -1    0    0  503  502  0.00000000000E+00  0.00000000000E+00  0.41129437608E+03  0.41129437608E+03  0.00000000000E+00 0.  1.
          4   -1    0    0  502    0 -0.00000000000E+00 -0.00000000000E+00 -0.94754195615E+01  0.94754195615E+01  0.00000000000E+00 0. -1.
         21    1    1    2  503  501 -0.32178753973E+02  0.27550313828E+02  0.35544455397E+03  0.35795994601E+03  0.00000000000E+00 0.  1.
          4    1    1    2  501    0  0.32178753973E+02 -0.27550313828E+02  0.46374402549E+02  0.62809849634E+02  0.00000000000E+00 0. -1.
<mgrwt>
<rscale>  2 0.42361445E+02</rscale>
<asrwt>0</asrwt>
<pdfrwt beam="1">  1       21 0.63276044E-01 0.42361445E+02</pdfrwt>
<pdfrwt beam="2">  1        4 0.14577572E-02 0.42361445E+02</pdfrwt>
<totfact> 0.12762601E+05</totfact>
</mgrwt>
</event>
<event>
 4    1  0.2245608E+006  0.2690151E+02  0.7546771E-02  0.1635102E+00
         21   -1    0    0  503  502  0.00000000000E+00  0.00000000000E+00  0.10633507019E+03  0.10633507019E+03  0.00000000000E+00 0. -1.
         -2   -1    0    0    0  501 -0.00000000000E+00 -0.00000000000E+00 -0.69579500003E+02  0.69579500003E+02  0.00000000000E+00 0. -1.
         21    1    1    2  503  501  0.18437795555E+02  0.19589250953E+02  0.10192272737E+03  0.10541315578E+03  0.00000000000E+00 0. -1.
         -2    1    1    2    0  502 -0.18437795555E+02 -0.19589250953E+02 -0.65167157185E+02  0.70501414407E+02  0.00000000000E+00 0. -1.
<mgrwt>
<rscale>  2 0.26901507E+02</rscale>
<asrwt>0</asrwt>
<pdfrwt beam="1">  1       21 0.16359242E-01 0.26901507E+02</pdfrwt>
<pdfrwt beam="2">  1       -2 0.10704538E-01 0.26901507E+02</pdfrwt>
<totfact> 0.13144806E+05</totfact>
</mgrwt>
</event>
<event>
 4    1  0.2245608E+006  0.5782689E+02  0.7546771E-02  0.1407184E+00
         -1   -1    0    0    0  501 -0.00000000000E+00  0.00000000000E+00  0.14059710706E+04  0.14059710706E+04  0.00000000000E+00 0.  1.
         21   -1    0    0  501  502  0.00000000000E+00 -0.00000000000E+00 -0.40915881375E+01  0.40915881375E+01  0.00000000000E+00 0.  1.
         21    1    1    2  503  502  0.32849328805E+02 -0.47590657841E+02  0.24472836071E+03  0.25146753201E+03  0.00000000000E+00 0.  1.
         -1    1    1    2    0  503 -0.32849328805E+02  0.47590657841E+02  0.11571511217E+04  0.11585951267E+04  0.00000000000E+00 0.  1.
<mgrwt>
<rscale>  2 0.57826889E+02</rscale>
<asrwt>0</asrwt>
<pdfrwt beam="2">  1       21 0.62947622E-03 0.57826889E+02</pdfrwt>
<pdfrwt beam="1">  1       -1 0.21630286E+00 0.57826889E+02</pdfrwt>
<totfact> 0.91166391E+04</totfact>
</mgrwt>
</event>
<event>
 4    1  0.2245608E+006  0.2200253E+02  0.7546771E-02  0.1708208E+00
         21   -1    0    0  503  502  0.00000000000E+00  0.00000000000E+00  0.17055510016E+01  0.17055510016E+01  0.00000000000E+00 0. -1.
          1   -1    0    0  502    0 -0.00000000000E+00 -0.00000000000E+00 -0.75953808853E+03  0.75953808853E+03  0.00000000000E+00 0.  1.
         21    1    1    2  503  501  0.18863597903E+02  0.11325896655E+02 -0.77697135580E+02  0.80752437352E+02  0.00000000000E+00 0. -1.
          1    1    1    2  501    0 -0.18863597903E+02 -0.11325896655E+02 -0.68013540195E+03  0.68049120218E+03  0.00000000000E+00 0.  1.
<mgrwt>
<rscale>  2 0.22002529E+02</rscale>
<asrwt>0</asrwt>
<pdfrwt beam="1">  1       21 0.26239271E-03 0.22002529E+02</pdfrwt>
<pdfrwt beam="2">  1        1 0.11685190E+00 0.22002529E+02</pdfrwt>
<totfact> 0.59513533E+06</totfact>
</mgrwt>
</event>
<event>
 4    1  0.2245608E+006  0.2399676E+02  0.7546771E-02  0.1675844E+00
         21   -1    0    0  501  502  0.00000000000E+00  0.00000000000E+00  0.13629112892E+01  0.13629112892E+01  0.00000000000E+00 0.  1.
          2   -1    0    0  503    0 -0.00000000000E+00 -0.00000000000E+00 -0.48598642463E+03  0.48598642463E+03  0.00000000000E+00 0. -1.
         21    1    1    2  503  502  0.91976644219E+01 -0.22164105171E+02 -0.15424699121E+03  0.15610246278E+03  0.00000000000E+00 0.  1.
          2    1    1    2  501    0 -0.91976644219E+01  0.22164105171E+02 -0.33037652213E+03  0.33124687314E+03  0.00000000000E+00 0. -1.
<mgrwt>
<rscale>  2 0.23996762E+02</rscale>
<asrwt>0</asrwt>
<pdfrwt beam="1">  1       21 0.20967891E-03 0.23996762E+02</pdfrwt>
<pdfrwt beam="2">  1        2 0.74767052E-01 0.23996762E+02</pdfrwt>
<totfact> 0.22554884E+07</totfact>
</mgrwt>
</event>
<event>
 4    1  0.2245608E+006  0.2069704E+02  0.7546771E-02  0.1731812E+00
          2   -1    0    0  503    0 -0.00000000000E+00  0.00000000000E+00  0.25202540107E+03  0.25202540107E+03  0.00000000000E+00 0.  1.
         21   -1    0    0  501  502  0.00000000000E+00 -0.00000000000E+00 -0.58865418602E+01  0.58865418602E+01  0.00000000000E+00 0. -1.
         21    1    1    2  503  502 -0.59874448260E+01  0.19812064838E+02  0.14313072518E+02  0.25164090558E+02  0.00000000000E+00 0. -1.
          2    1    1    2  501    0  0.59874448260E+01 -0.19812064838E+02  0.23182578669E+03  0.23274785237E+03  0.00000000000E+00 0.  1.
<mgrwt>
<rscale>  2 0.20697039E+02</rscale>
<asrwt>0</asrwt>
<pdfrwt beam="2">  1       21 0.90562202E-03 0.20697039E+02</pdfrwt>
<pdfrwt beam="1">  1        2 0.38773130E-01 0.20697039E+02</pdfrwt>
<totfact> 0.48255504E+06</totfact>
</mgrwt>
</event>
<event>
 4    1  0.2245608E+006  0.2981796E+02  0.7546771E-02  0.1600110E+00
         -2   -1    0    0    0  501 -0.00000000000E+00  0.00000000000E+00  0.11063485528E+02  0.11063485528E+02  0.00000000000E+00 0. -1.
         21   -1    0    0  503  502  0.00000000000E+00 -0.00000000000E+00 -0.12143842475E+03  0.12143842475E+03  0.00000000000E+00 0.  1.
         21    1    1    2  503  501 -0.38570064351E+00  0.29815468927E+02 -0.93717330082E+02  0.98346575487E+02  0.00000000000E+00 0.  1.
         -2    1    1    2    0  502  0.38570064351E+00 -0.29815468927E+02 -0.16657609136E+02  0.34155334787E+02  0.00000000000E+00 0. -1.
<mgrwt>
<rscale>  2 0.29817964E+02</rscale>
<asrwt>0</asrwt>
<pdfrwt beam="2">  1       21 0.18682835E-01 0.29817964E+02</pdfrwt>
<pdfrwt beam="1">  1       -2 0.17020746E-02 0.29817964E+02</pdfrwt>
<totfact> 0.14688953E+06</totfact>
</mgrwt>
</event>
<event>
 4    1  0.2245608E+006  0.2779516E+02  0.7546771E-02  0.1623822E+00
          2   -1    0    0  503    0 -0.00000000000E+00  0.00000000000E+00  0.89777289629E+03  0.89777289629E+03  0.00000000000E+00 0. -1.
         21   -1    0    0  501  502  0.00000000000E+00 -0.00000000000E+00 -0.14392166528E+02  0.14392166528E+02  0.00000000000E+00 0. -1.
         21    1    1    2  503  502  0.24593270281E+02 -0.12951530232E+02 -0.54688812359E+00  0.27800542533E+02  0.00000000000E+00 0. -1.
          2    1    1    2  501    0 -0.24593270281E+02  0.12951530232E+02  0.88392761789E+03  0.88436452029E+03  0.00000000000E+00 0. -1.
<mgrwt>
<rscale>  2 0.27795163E+02</rscale>
<asrwt>0</asrwt>
<pdfrwt beam="2">  1       21 0.22141802E-02 0.27795163E+02</pdfrwt>
<pdfrwt beam="1">  1        2 0.13811886E+00 0.27795163E+02</pdfrwt>
<totfact> 0.35270052E+05</totfact>
</mgrwt>
</event>
<event>
 4    1  0.2245608E+006  0.2006109E+02  0.7546771E-02  0.1744116E+00
         21   -1    0    0  503  502  0.00000000000E+00  0.00000000000E+00  0.78644077366E+00  0.78644077366E+00  0.00000000000E+00 0.  1.
          2   -1    0    0  502    0 -0.00000000000E+00 -0.00000000000E+00 -0.15306476056E+04  0.15306476056E+04  0.00000000000E+00 0. -1.
         21    1    1    2  503  501  0.14229769248E+02 -0.14140755967E+02 -0.14019003752E+03  0.14161812713E+03  0.00000000000E+00 0.  1.
          2    1    1    2  501    0 -0.14229769248E+02  0.14140755967E+02 -0.13896711273E+04  0.13898159193E+04  0.00000000000E+00 0. -1.
<mgrwt>
<rscale>  2 0.20061090E+02</rscale>
<asrwt>0</asrwt>
<pdfrwt beam="1">  1       21 0.12099240E-03 0.20061090E+02</pdfrwt>
<pdfrwt beam="2">  1        2 0.23548130E+00 0.20061090E+02</pdfrwt>
<totfact> 0.11728953E+07</totfact>
</mgrwt>
</event>
<event>
 4    1  0.2245608E+006  0.2718713E+02  0.7546771E-02  0.1631439E+00
         21   -1    0    0  503  502  0.00000000000E+00  0.00000000000E+00  0.10136169647E+02  0.10136169647E+02  0.00000000000E+00 0. -1.
          2   -1    0    0  502    0 -0.00000000000E+00 -0.00000000000E+00 -0.23982359542E+03  0.23982359542E+03  0.00000000000E+00 0.  1.
         21    1    1    2  503  501 -0.19466815916E+02 -0.18978493682E+02 -0.10581812631E+02  0.29173873636E+02  0.00000000000E+00 0. -1.
          2    1    1    2  501    0  0.19466815916E+02  0.18978493682E+02 -0.21910561314E+03  0.22078589143E+03  0.00000000000E+00 0.  1.
<mgrwt>
<rscale>  2 0.27187132E+02</rscale>
<asrwt>0</asrwt>
<pdfrwt beam="1">  1       21 0.15594107E-02 0.27187132E+02</pdfrwt>
<pdfrwt beam="2">  1        2 0.36895937E-01 0.27187132E+02</pdfrwt>
<totfact> 0.23812057E+06</totfact>
</mgrwt>
</event>
<event>
 4    1  0.2245608E+006  0.2176013E+02  0.7546771E-02  0.1712434E+00
         -3   -1    0    0    0  501 -0.00000000000E+00  0.00000000000E+00  0.19121240414E+03  0.19121240414E+03  0.00000000000E+00 0.  1.
         21   -1    0    0  503  502  0.00000000000E+00 -0.00000000000E+00 -0.35593030597E+01  0.35593030597E+01  0.00000000000E+00 0.  1.
         21    1    1    2  503  501  0.10158590816E+02 -0.19243347713E+02  0.40108046420E+02  0.45630678126E+02  0.00000000000E+00 0.  1.
         -3    1    1    2    0  502 -0.10158590816E+02  0.19243347713E+02  0.14754505466E+03  0.14914102908E+03  0.00000000000E+00 0.  1.
<mgrwt>
<rscale>  2 0.21760133E+02</rscale>
<asrwt>0</asrwt>
<pdfrwt beam="2">  1       21 0.54758524E-03 0.21760133E+02</pdfrwt>
<pdfrwt beam="1">  1       -3 0.29417285E-01 0.21760133E+02</pdfrwt>
<totfact> 0.29372907E+06</totfact>
</mgrwt>
</event>
<event>
 4    1  0.2245608E+006  0.8825601E+02  0.7546771E-02  0.1307131E+00
         21   -1    0    0  501  502  0.00000000000E+00  0.00000000000E+00  0.17119093287E+03  0.17119093287E+03  0.00000000000E+00 0. -1.
          2   -1    0    0  503    0 -0.00000000000E+00 -0.00000000000E+00 -0.20093243858E+03  0.20093243858E+03  0.00000000000E+00 0.  1.
         21    1    1    2  503  502  0.84270727506E+02  0.26221513065E+02  0.14877444970E+03  0.17298254289E+03  0.00000000000E+00 0. -1.
          2    1    1    2  501    0 -0.84270727506E+02 -0.26221513065E+02 -0.17851595541E+03  0.19914082855E+03  0.00000000000E+00 0.  1.
<mgrwt>
<rscale>  2 0.88256010E+02</rscale>
<asrwt>0</asrwt>
<pdfrwt beam="1">  1       21 0.26337067E-01 0.88256010E+02</pdfrwt>
<pdfrwt beam="2">  1        2 0.30912683E-01 0.88256010E+02</pdfrwt>
<totfact> 0.28655277E+04</totfact>
</mgrwt>
</event>
<event>
 4    1  0.2245608E+006  0.2332504E+02  0.7546771E-02  0.1686295E+00
         21   -1    0    0  501  502  0.00000000000E+00  0.00000000000E+00  0.11474146541E+03  0.11474146541E+03  0.00000000000E+00 0. -1.
          2   -1    0    0  503    0 -0.00000000000E+00 -0.00000000000E+00 -0.14836001294E+02  0.14836001294E+02  0.00000000000E+00 0. -1.
         21    1    1    2  503  502 -0.22103130758E+02 -0.74504491990E+01  0.10339457718E+03  0.10599290624E+03  0.00000000000E+00 0. -1.
          2    1    1    2  501    0  0.22103130758E+02  0.74504491990E+01 -0.34891130617E+01  0.23584560469E+02  0.00000000000E+00 0. -1.
<mgrwt>
<rscale>  2 0.23325042E+02</rscale>
<asrwt>0</asrwt>
<pdfrwt beam="1">  1       21 0.17652533E-01 0.23325042E+02</pdfrwt>
<pdfrwt beam="2">  1        2 0.22824618E-02 0.23325042E+02</pdfrwt>
<totfact> 0.11487588E+06</totfact>
</mgrwt>
</event>
<event>
 4    1  0.2245608E+006  0.2271681E+02  0.7546771E-02  0.1696142E+00
         -3   -1    0    0    0  501 -0.00000000000E+00  0.00000000000E+00  0.19549273883E+03  0.19549273883E+03  0.00000000000E+00 0.  1.
         21   -1    0    0  501  502  0.00000000000E+00 -0.00000000000E+00 -0.30655108419E+01  0.30655108419E+01  0.00000000000E+00 0. -1.
         21    1    1    2  503  502  0.14622972163E+02  0.17384543558E+02  0.59215047076E+02  0.63422988497E+02  0.00000000000E+00 0. -1.
         -3    1    1    2    0  503 -0.14622972163E+02 -0.17384543558E+02  0.13321218091E+03  0.13513526117E+03  0.00000000000E+00 0.  1.
<mgrwt>
<rscale>  2 0.22716815E+02</rscale>
<asrwt>0</asrwt>
<pdfrwt beam="2">  1       21 0.47161720E-03 0.22716815E+02</pdfrwt>
<pdfrwt beam="1">  1       -3 0.30075796E-01 0.22716815E+02</pdfrwt>
<totfact> 0.35831862E+06</totfact>
</mgrwt>
</event>
<event>
 4    1  0.2245608E+006  0.2394710E+02  0.7546771E-02  0.1676602E+00
         -2   -1    0    0    0  501 -0.00000000000E+00  0.00000000000E+00  0.33543406487E+03  0.33543406487E+03  0.00000000000E+00 0. -1.
         21   -1    0    0  503  502  0.00000000000E+00 -0.00000000000E+00 -0.83867546371E+01  0.83867546371E+01  0.00000000000E+00 0. -1.
         21    1    1    2  503  501 -0.12982052382E+02  0.20122866466E+02  0.10132469586E+02  0.26002507163E+02  0.00000000000E+00 0. -1.
         -2    1    1    2    0  502  0.12982052382E+02 -0.20122866466E+02  0.31691484065E+03  0.31781831234E+03  0.00000000000E+00 0. -1.
<mgrwt>
<rscale>  2 0.23947097E+02</rscale>
<asrwt>0</asrwt>
<pdfrwt beam="2">  1       21 0.12902702E-02 0.23947097E+02</pdfrwt>
<pdfrwt beam="1">  1       -2 0.51605231E-01 0.23947097E+02</pdfrwt>
<totfact> 0.53995798E+05</totfact>
</mgrwt>
</event>
<event>
 4    1  0.2245608E+006  0.3061710E+02  0.7546771E-02  0.1591366E+00
         21   -1    0    0  503  502  0.00000000000E+00  0.00000000000E+00  0.42968190689E+03  0.42968190689E+03  0.00000000000E+00 0.  1.
         -3   -1    0    0    0  501 -0.00000000000E+00 -0.00000000000E+00 -0.25322521943E+01  0.25322521943E+01  0.00000000000E+00 0.  1.
         21    1    1    2  503  501  0.10815582777E+02 -0.28643144635E+02  0.29398958470E+03  0.29557957046E+03  0.00000000000E+00 0.  1.
         -3    1    1    2    0  502 -0.10815582777E+02  0.28643144635E+02  0.13316007000E+03  0.13663458862E+03  0.00000000000E+00 0.  1.
<mgrwt>
<rscale>  2 0.30617096E+02</rscale>
<asrwt>0</asrwt>
<pdfrwt beam="1">  1       21 0.66104851E-01 0.30617096E+02</pdfrwt>
<pdfrwt beam="2">  1       -3 0.38957760E-03 0.30617096E+02</pdfrwt>
<totfact> 0.81914886E+05</totfact>
</mgrwt>
</event>
<event>
 4    1  0.2245608E+006  0.3025476E+02  0.7546771E-02  0.1595290E+00
          2   -1    0    0  503    0 -0.00000000000E+00  0.00000000000E+00  0.12222146619E+04  0.12222146619E+04  0.00000000000E+00 0. -1.
         21   -1    0    0  501  502  0.00000000000E+00 -0.00000000000E+00 -0.15719668030E+01  0.15719668030E+01  0.00000000000E+00 0.  1.
         21    1    1    2  503  502  0.65593173957E+01  0.29535168007E+02  0.16756563236E+03  0.17027504791E+03  0.00000000000E+00 0.  1.
          2    1    1    2  501    0 -0.65593173957E+01 -0.29535168007E+02  0.10530770628E+04  0.10535115808E+04  0.00000000000E+00 0. -1.
<mgrwt>
<rscale>  2 0.30254765E+02</rscale>
<asrwt>0</asrwt>
<pdfrwt beam="2">  1       21 0.24184202E-03 0.30254765E+02</pdfrwt>
<pdfrwt beam="1">  1        2 0.18803227E+00 0.30254765E+02</pdfrwt>
<totfact> 0.66632782E+06</totfact>
</mgrwt>
</event>
<event>
 4    1  0.2245608E+006  0.2523834E+02  0.7546771E-02  0.1657602E+00
         21   -1    0    0  503  502  0.00000000000E+00  0.00000000000E+00  0.22463694010E+04  0.22463694010E+04  0.00000000000E+00 0. -1.
          4   -1    0    0  502    0 -0.00000000000E+00 -0.00000000000E+00 -0.41738962101E+00  0.41738962101E+00  0.00000000000E+00 0. -1.
         21    1    1    2  503  501 -0.23785421336E+02 -0.84396362297E+01  0.17591004204E+04  0.17592814621E+04  0.00000000000E+00 0. -1.
          4    1    1    2  501    0  0.23785421336E+02  0.84396362297E+01  0.48685159092E+03  0.48750532849E+03  0.00000000000E+00 0. -1.
<mgrwt>
<rscale>  2 0.25238338E+02</rscale>
<asrwt>0</asrwt>
<pdfrwt beam="1">  1       21 0.34558561E+00 0.25238338E+02</pdfrwt>
<pdfrwt beam="2">  1        4 0.64215587E-04 0.25238338E+02</pdfrwt>
<totfact> 0.12349038E+05</totfact>
</mgrwt>
</event>
<event>
 4    1  0.2245608E+006  0.2033816E+02  0.7546771E-02  0.1738686E+00
         21   -1    0    0  503  502  0.00000000000E+00  0.00000000000E+00  0.28059069582E+02  0.28059069582E+02  0.00000000000E+00 0.  1.
          3   -1    0    0  502    0 -0.00000000000E+00 -0.00000000000E+00 -0.26136691524E+02  0.26136691524E+02  0.00000000000E+00 0. -1.
         21    1    1    2  503  501 -0.20279443999E+02 -0.15443253404E+01  0.18853456788E+02  0.27732537254E+02  0.00000000000E+00 0.  1.
          3    1    1    2  501    0  0.20279443999E+02  0.15443253404E+01 -0.16931078731E+02  0.26463223852E+02  0.00000000000E+00 0. -1.
<mgrwt>
<rscale>  2 0.20338161E+02</rscale>
<asrwt>0</asrwt>
<pdfrwt beam="1">  1       21 0.43167799E-02 0.20338161E+02</pdfrwt>
<pdfrwt beam="2">  1        3 0.40210295E-02 0.20338161E+02</pdfrwt>
<totfact> 0.29426478E+06</totfact>
</mgrwt>
</event>
<event>
 4    1  0.2245608E+006  0.2778644E+02  0.7546771E-02  0.1623930E+00
         21   -1    0    0  503  502  0.00000000000E+00  0.00000000000E+00  0.37143079253E+03  0.37143079253E+03  0.00000000000E+00 0.  1.
         -2   -1    0    0    0  501 -0.00000000000E+00 -0.00000000000E+00 -0.75952661742E+01  0.75952661742E+01  0.00000000000E+00 0.  1.
         21    1    1    2  503  501  0.35579264411E+01 -0.27557708707E+02  0.34342899771E+03  0.34455124818E+03  0.00000000000E+00 0.  1.
         -2    1    1    2    0  502 -0.35579264411E+01  0.27557708707E+02  0.20406528645E+02  0.34474810530E+02  0.00000000000E+00 0.  1.
<mgrwt>
<rscale>  2 0.27786438E+02</rscale>
<asrwt>0</asrwt>
<pdfrwt beam="1">  1       21 0.57143185E-01 0.27786438E+02</pdfrwt>
<pdfrwt beam="2">  1       -2 0.11685028E-02 0.27786438E+02</pdfrwt>
<totfact> 0.30307912E+05</totfact>
</mgrwt>
</event>
<event>
 4    1  0.2245608E+006  0.2067787E+02  0.7546771E-02  0.1732174E+00
          1   -1    0    0  502    0 -0.00000000000E+00  0.00000000000E+00  0.17892900195E+04  0.17892900195E+04  0.00000000000E+00 0.  1.
         21   -1    0    0  503  502  0.00000000000E+00 -0.00000000000E+00 -0.25905909481E+00  0.25905909481E+00  0.00000000000E+00 0.  1.
         21    1    1    2  503  501 -0.72749749232E+01  0.19355855333E+02  0.64530384714E+03  0.64563505910E+03  0.00000000000E+00 0.  1.
          1    1    1    2  501    0  0.72749749232E+01 -0.19355855333E+02  0.11437271133E+04  0.11439140195E+04  0.00000000000E+00 0.  1.
<mgrwt>
<rscale>  2 0.20677872E+02</rscale>
<asrwt>0</asrwt>
<pdfrwt beam="2">  1       21 0.39856678E-04 0.20677872E+02</pdfrwt>
<pdfrwt beam="1">  1        1 0.27526549E+00 0.20677872E+02</pdfrwt>
<totfact> 0.18974845E+07</totfact>
</mgrwt>
</event>
<event>
 4    1  0.2245608E+006  0.2173668E+02  0.7546771E-02  0.1712846E+00
         21   -1    0    0  503  502  0.00000000000E+00  0.00000000000E+00  0.16807050681E+02  0.16807050681E+02  0.00000000000E+00 0.  1.
         -3   -1    0    0    0  501 -0.00000000000E+00 -0.00000000000E+00 -0.48516502610E+02  0.48516502610E+02  0.00000000000E+00 0.  1.
         21    1    1    2  503  501  0.16761330079E+02 -0.13839835845E+02  0.53267341159E+01  0.22379842237E+02  0.00000000000E+00 0.  1.
         -3    1    1    2    0  502 -0.16761330079E+02  0.13839835845E+02 -0.37036186045E+02  0.42943711053E+02  0.00000000000E+00 0.  1.
<mgrwt>
<rscale>  2 0.21736680E+02</rscale>
<asrwt>0</asrwt>
<pdfrwt beam="1">  1       21 0.25857001E-02 0.21736680E+02</pdfrwt>
<pdfrwt beam="2">  1       -3 0.74640773E-02 0.21736680E+02</pdfrwt>
<totfact> 0.26427143E+06</totfact>
</mgrwt>
</event>
<event>
 4    1  0.2245608E+006  0.2216558E+02  0.7546771E-02  0.1705404E+00
         21   -1    0    0  503  502  0.00000000000E+00  0.00000000000E+00  0.22595007093E+02  0.22595007093E+02  0.00000000000E+00 0. -1.
          1   -1    0    0  502    0 -0.00000000000E+00 -0.00000000000E+00 -0.10844635855E+04  0.10844635855E+04  0.00000000000E+00 0. -1.
         21    1    1    2  503  501  0.93171305227E+01  0.20112288737E+02  0.17017565600E+02  0.27944778016E+02  0.00000000000E+00 0. -1.
          1    1    1    2  501    0 -0.93171305227E+01 -0.20112288737E+02 -0.10788861440E+04  0.10791138145E+04  0.00000000000E+00 0. -1.
<mgrwt>
<rscale>  2 0.22165583E+02</rscale>
<asrwt>0</asrwt>
<pdfrwt beam="1">  1       21 0.34761548E-02 0.22165583E+02</pdfrwt>
<pdfrwt beam="2">  1        1 0.16684056E+00 0.22165583E+02</pdfrwt>
<totfact> 0.72987005E+04</totfact>
</mgrwt>
</event>
<event>
 4    1  0.2245608E+006  0.2371036E+02  0.7546771E-02  0.1680248E+00
          3   -1    0    0  503    0 -0.00000000000E+00  0.00000000000E+00  0.67532915486E+02  0.67532915486E+02  0.00000000000E+00 0.  1.
         21   -1    0    0  501  502  0.00000000000E+00 -0.00000000000E+00 -0.23498037648E+02  0.23498037648E+02  0.00000000000E+00 0.  1.
         21    1    1    2  503  502  0.15132843608E+02  0.18253163716E+02 -0.14557705090E+02  0.27822791356E+02  0.00000000000E+00 0.  1.
          3    1    1    2  501    0 -0.15132843608E+02 -0.18253163716E+02  0.58592582927E+02  0.63208161779E+02  0.00000000000E+00 0.  1.
<mgrwt>
<rscale>  2 0.23710355E+02</rscale>
<asrwt>0</asrwt>
<pdfrwt beam="2">  1       21 0.36150828E-02 0.23710355E+02</pdfrwt>
<pdfrwt beam="1">  1        3 0.10389679E-01 0.23710355E+02</pdfrwt>
<totfact> 0.96806032E+05</totfact>
</mgrwt>
</event>
<event>
 4    1  0.2245608E+006  0.3161379E+02  0.7546771E-02  0.1580906E+00
          1   -1    0    0  502    0 -0.00000000000E+00  0.00000000000E+00  0.38554729781E+03  0.38554729781E+03  0.00000000000E+00 0.  1.
         21   -1    0    0  503  502  0.00000000000E+00 -0.00000000000E+00 -0.12600876398E+02  0.12600876398E+02  0.00000000000E+00 0.  1.
         21    1    1    2  503  501 -0.31336921138E+02  0.41748457572E+01  0.90535411392E+01  0.32884625141E+02  0.00000000000E+00 0.  1.
          1    1    1    2  501    0  0.31336921138E+02 -0.41748457572E+01  0.36389288028E+03  0.36526354907E+03  0.00000000000E+00 0.  1.
<mgrwt>
<rscale>  2 0.31613794E+02</rscale>
<asrwt>0</asrwt>
<pdfrwt beam="2">  1       21 0.19385967E-02 0.31613794E+02</pdfrwt>
<pdfrwt beam="1">  1        1 0.59314960E-01 0.31613794E+02</pdfrwt>
<totfact> 0.74617386E+05</totfact>
</mgrwt>
</event>
<event>
 4    1  0.2245608E+006  0.2588955E+02  0.7546771E-02  0.1648544E+00
         -3   -1    0    0    0  501 -0.00000000000E+00  0.00000000000E+00  0.28766051909E+02  0.28766051909E+02  0.00000000000E+00 0.  1.
         21   -1    0    0  503  502  0.00000000000E+00 -0.00000000000E+00 -0.60363024868E+02  0.60363024868E+02  0.00000000000E+00 0. -1.
         21    1    1    2  503  501 -0.10053421011E+02 -0.23857866168E+02 -0.50718167130E+02  0.56943845402E+02  0.00000000000E+00 0. -1.
         -3    1    1    2    0  502  0.10053421011E+02  0.23857866168E+02  0.19121194172E+02  0.32185231375E+02  0.00000000000E+00 0.  1.
<mgrwt>
<rscale>  2 0.25889555E+02</rscale>
<asrwt>0</asrwt>
<pdfrwt beam="2">  1       21 0.92866190E-02 0.25889555E+02</pdfrwt>
<pdfrwt beam="1">  1       -3 0.44255465E-02 0.25889555E+02</pdfrwt>
<totfact> 0.81087013E+05</totfact>
</mgrwt>
</event>
<event>
 4    1  0.2245608E+006  0.2505375E+02  0.7546771E-02  0.1660231E+00
         21   -1    0    0  501  502  0.00000000000E+00  0.00000000000E+00  0.28167301307E+01  0.28167301307E+01  0.00000000000E+00 0.  1.
          3   -1    0    0  503    0 -0.00000000000E+00 -0.00000000000E+00 -0.15890950918E+04  0.15890950918E+04  0.00000000000E+00 0.  1.
         21    1    1    2  503  502  0.62948327773E+01  0.24250062935E+02 -0.55100059693E+02  0.60528563920E+02  0.00000000000E+00 0.  1.
          3    1    1    2  501    0 -0.62948327773E+01 -0.24250062935E+02 -0.15311783019E+04  0.15313832580E+04  0.00000000000E+00 0.  1.
<mgrwt>
<rscale>  2 0.25053752E+02</rscale>
<asrwt>0</asrwt>
<pdfrwt beam="1">  1       21 0.43334339E-03 0.25053752E+02</pdfrwt>
<pdfrwt beam="2">  1        3 0.24447601E+00 0.25053752E+02</pdfrwt>
<totfact> 0.47235305E+04</totfact>
</mgrwt>
</event>
<event>
 4    1  0.2245608E+006  0.3017270E+02  0.7546771E-02  0.1596187E+00
          2   -1    0    0  503    0 -0.00000000000E+00  0.00000000000E+00  0.17469729330E+02  0.17469729330E+02  0.00000000000E+00 0. -1.
         21   -1    0    0  501  502  0.00000000000E+00 -0.00000000000E+00 -0.15559744020E+03  0.15559744020E+03  0.00000000000E+00 0.  1.
         21    1    1    2  503  502 -0.23718690359E+02 -0.18649819288E+02 -0.13963415424E+03  0.14285688314E+03  0.00000000000E+00 0.  1.
          2    1    1    2  501    0  0.23718690359E+02  0.18649819288E+02  0.15064433681E+01  0.30210286385E+02  0.00000000000E+00 0. -1.
<mgrwt>
<rscale>  2 0.30172703E+02</rscale>
<asrwt>0</asrwt>
<pdfrwt beam="2">  1       21 0.23938066E-01 0.30172703E+02</pdfrwt>
<pdfrwt beam="1">  1        2 0.26876508E-02 0.30172703E+02</pdfrwt>
<totfact> 0.57317835E+05</totfact>
</mgrwt>
</event>
<event>
 4    1  0.2245608E+006  0.3989821E+02  0.7546771E-02  0.1508962E+00
          4   -1    0    0  503    0 -0.00000000000E+00  0.00000000000E+00  0.21649234188E+03  0.21649234188E+03  0.00000000000E+00 0.  1.
         21   -1    0    0  501  502  0.00000000000E+00 -0.00000000000E+00 -0.16673738204E+02  0.16673738204E+02  0.00000000000E+00 0. -1.
         21    1    1    2  503  502  0.13292216532E+02  0.37618928468E+02  0.12743889025E+02  0.41884048358E+02  0.00000000000E+00 0. -1.
          4    1    1    2  501    0 -0.13292216532E+02 -0.37618928468E+02  0.18707471465E+03  0.19128203172E+03  0.00000000000E+00 0.  1.
<mgrwt>
<rscale>  2 0.39898205E+02</rscale>
<asrwt>0</asrwt>
<pdfrwt beam="2">  1       21 0.25651906E-02 0.39898205E+02</pdfrwt>
<pdfrwt beam="1">  1        4 0.33306512E-01 0.39898205E+02</pdfrwt>
<totfact> 0.21809826E+05</totfact>
</mgrwt>
</event>
<event>
 4    1  0.2245608E+006  0.2020413E+02  0.7546771E-02  0.1741299E+00
          1   -1    0    0  503    0 -0.00000000000E+00  0.00000000000E+00  0.33485348801E+03  0.33485348801E+03  0.00000000000E+00 0. -1.
         21   -1    0    0  501  502  0.00000000000E+00 -0.00000000000E+00 -0.14657150631E+01  0.14657150631E+01  0.00000000000E+00 0. -1.
         21    1    1    2  503  502  0.20099266170E+02  0.20558267508E+01  0.97711092883E+02  0.99778076733E+02  0.00000000000E+00 0. -1.
          1    1    1    2  501    0 -0.20099266170E+02 -0.20558267508E+01  0.23567668006E+03  0.23654112634E+03  0.00000000000E+00 0. -1.
<mgrwt>
<rscale>  2 0.20204131E+02</rscale>
<asrwt>0</asrwt>
<pdfrwt beam="2">  1       21 0.22549489E-03 0.20204131E+02</pdfrwt>
<pdfrwt beam="1">  1        1 0.51515860E-01 0.20204131E+02</pdfrwt>
<totfact> 0.19597847E+07</totfact>
</mgrwt>
</event>
<event>
 4    1  0.2245608E+006  0.2082929E+02  0.7546771E-02  0.1729322E+00
         21   -1    0    0  503  502  0.00000000000E+00  0.00000000000E+00  0.29884533090E+00  0.29884533090E+00  0.00000000000E+00 0.  1.
         -2   -1    0    0    0  501 -0.00000000000E+00 -0.00000000000E+00 -0.14599453854E+04  0.14599453854E+04  0.00000000000E+00 0.  1.
         21    1    1    2  503  501  0.20712331767E+02  0.22042366417E+01 -0.67523909992E+03  0.67556028702E+03  0.00000000000E+00 0.  1.
         -2    1    1    2    0  502 -0.20712331767E+02 -0.22042366417E+01 -0.78440744014E+03  0.78468394369E+03  0.00000000000E+00 0.  1.
<mgrwt>
<rscale>  2 0.20829291E+02</rscale>
<asrwt>0</asrwt>
<pdfrwt beam="1">  1       21 0.45976528E-04 0.20829291E+02</pdfrwt>
<pdfrwt beam="2">  1       -2 0.22460541E+00 0.20829291E+02</pdfrwt>
<totfact> 0.22825590E+06</totfact>
</mgrwt>
</event>
<event>
 4    1  0.2245608E+006  0.2359155E+02  0.7546771E-02  0.1682097E+00
          2   -1    0    0  503    0 -0.00000000000E+00  0.00000000000E+00  0.96494959837E+03  0.96494959837E+03  0.00000000000E+00 0.  1.
         21   -1    0    0  501  502  0.00000000000E+00 -0.00000000000E+00 -0.36103296902E+01  0.36103296902E+01  0.00000000000E+00 0. -1.
         21    1    1    2  503  502  0.21379356095E+02  0.99741912597E+01  0.36755682138E+02  0.43675411020E+02  0.00000000000E+00 0. -1.
          2    1    1    2  501    0 -0.21379356095E+02 -0.99741912597E+01  0.92458358654E+03  0.92488451704E+03  0.00000000000E+00 0.  1.
<mgrwt>
<rscale>  2 0.23591553E+02</rscale>
<asrwt>0</asrwt>
<pdfrwt beam="2">  1       21 0.55543610E-03 0.23591553E+02</pdfrwt>
<pdfrwt beam="1">  1        2 0.14845358E+00 0.23591553E+02</pdfrwt>
<totfact> 0.25517692E+06</totfact>
</mgrwt>
</event>
<event>
 4    1  0.2245608E+006  0.2569976E+02  0.7546771E-02  0.1651150E+00
         21   -1    0    0  501  502  0.00000000000E+00  0.00000000000E+00  0.10640850380E+02  0.10640850380E+02  0.00000000000E+00 0. -1.
          2   -1    0    0  503    0 -0.00000000000E+00 -0.00000000000E+00 -0.70925146378E+03  0.70925146378E+03  0.00000000000E+00 0.  1.
         21    1    1    2  503  502 -0.15411063212E+02  0.20566394095E+02 -0.54700076445E+01  0.26275433755E+02  0.00000000000E+00 0. -1.
          2    1    1    2  501    0  0.15411063212E+02 -0.20566394095E+02 -0.69314060575E+03  0.69361688040E+03  0.00000000000E+00 0.  1.
<mgrwt>
<rscale>  2 0.25699756E+02</rscale>
<asrwt>0</asrwt>
<pdfrwt beam="1">  1       21 0.16370532E-02 0.25699756E+02</pdfrwt>
<pdfrwt beam="2">  1        2 0.10911565E+00 0.25699756E+02</pdfrwt>
<totfact> 0.72761502E+05</totfact>
</mgrwt>
</event>
<event>
 4    1  0.2245608E+006  0.2395936E+02  0.7546771E-02  0.1676415E+00
         21   -1    0    0  501  502  0.00000000000E+00  0.00000000000E+00  0.25640494471E+03  0.25640494471E+03  0.00000000000E+00 0. -1.
          2   -1    0    0  503    0 -0.00000000000E+00 -0.00000000000E+00 -0.29588688751E+01  0.29588688751E+01  0.00000000000E+00 0. -1.
         21    1    1    2  503  502  0.23603460661E+02 -0.41142959131E+01  0.19069506966E+03  0.19219432972E+03  0.00000000000E+00 0. -1.
          2    1    1    2  501    0 -0.23603460661E+02  0.41142959131E+01  0.62751006178E+02  0.67169483862E+02  0.00000000000E+00 0. -1.
<mgrwt>
<rscale>  2 0.23959357E+02</rscale>
<asrwt>0</asrwt>
<pdfrwt beam="1">  1       21 0.39446897E-01 0.23959357E+02</pdfrwt>
<pdfrwt beam="2">  1        2 0.45521080E-03 0.23959357E+02</pdfrwt>
<totfact> 0.22172424E+06</totfact>
</mgrwt>
</event>
<event>
 4    1  0.2245608E+006  0.2294324E+02  0.7546771E-02  0.1692432E+00
         -2   -1    0    0    0  501 -0.00000000000E+00  0.00000000000E+00  0.69005582326E+02  0.69005582326E+02  0.00000000000E+00 0.  1.
         21   -1    0    0  503  502  0.00000000000E+00 -0.00000000000E+00 -0.14940401291E+03  0.14940401291E+03  0.00000000000E+00 0. -1.
         21    1    1    2  503  501 -0.22716345245E+02 -0.32186582765E+01 -0.14657960515E+03  0.14836432438E+03  0.00000000000E+00 0. -1.
         -2    1    1    2    0  502  0.22716345245E+02  0.32186582765E+01  0.66181174567E+02  0.70045270857E+02  0.00000000000E+00 0.  1.
<mgrwt>
<rscale>  2 0.22943237E+02</rscale>
<asrwt>0</asrwt>
<pdfrwt beam="2">  1       21 0.22985233E-01 0.22943237E+02</pdfrwt>
<pdfrwt beam="1">  1       -2 0.10616244E-01 0.22943237E+02</pdfrwt>
<totfact> 0.71969380E+04</totfact>
</mgrwt>
</event>
<event>
 4    1  0.2245608E+006  0.2104364E+02  0.7546771E-02  0.1725337E+00
         21   -1    0    0  501  502  0.00000000000E+00  0.00000000000E+00  0.41284338788E+03  0.41284338788E+03  0.00000000000E+00 0. -1.
         -2   -1    0    0    0  501 -0.00000000000E+00 -0.00000000000E+00 -0.22700785778E+01  0.22700785778E+01  0.00000000000E+00 0.  1.
         21    1    1    2  503  502  0.51078976952E+01 -0.20414308217E+02  0.35603133958E+03  0.35665270132E+03  0.00000000000E+00 0. -1.
         -2    1    1    2    0  503 -0.51078976952E+01  0.20414308217E+02  0.54541969726E+02  0.58460765138E+02  0.00000000000E+00 0.  1.
<mgrwt>
<rscale>  2 0.21043636E+02</rscale>
<asrwt>0</asrwt>
<pdfrwt beam="1">  1       21 0.63514308E-01 0.21043636E+02</pdfrwt>
<pdfrwt beam="2">  1       -2 0.34924319E-03 0.21043636E+02</pdfrwt>
<totfact> 0.11806790E+06</totfact>
</mgrwt>
</event>
<event>
 4    1  0.2245608E+006  0.2220797E+02  0.7546771E-02  0.1704680E+00
         21   -1    0    0  503  502  0.00000000000E+00  0.00000000000E+00  0.22070074643E+02  0.22070074643E+02  0.00000000000E+00 0.  1.
          2   -1    0    0  502    0 -0.00000000000E+00 -0.00000000000E+00 -0.10478997240E+03  0.10478997240E+03  0.00000000000E+00 0.  1.
         21    1    1    2  503  501  0.20937111314E+02  0.74048085557E+01  0.14901713822E+02  0.26744249752E+02  0.00000000000E+00 0.  1.
          2    1    1    2  501    0 -0.20937111314E+02 -0.74048085557E+01 -0.97621611576E+02  0.10011579729E+03  0.00000000000E+00 0.  1.
<mgrwt>
<rscale>  2 0.22207967E+02</rscale>
<asrwt>0</asrwt>
<pdfrwt beam="1">  1       21 0.33953961E-02 0.22207967E+02</pdfrwt>
<pdfrwt beam="2">  1        2 0.16121534E-01 0.22207967E+02</pdfrwt>
<totfact> 0.16176266E+06</totfact>
</mgrwt>
</event>
<event>
 4    1  0.2245608E+006  0.5185489E+02  0.7546771E-02  0.1435586E+00
          1   -1    0    0  503    0 -0.00000000000E+00  0.00000000000E+00  0.10650968081E+04  0.10650968081E+04  0.00000000000E+00 0.  1.
         21   -1    0    0  501  502  0.00000000000E+00 -0.00000000000E+00 -0.73488590708E+02  0.73488590708E+02  0.00000000000E+00 0.  1.
         21    1    1    2  503  502  0.52861355954E+01 -0.51584752307E+02 -0.63624547519E+02  0.82079308885E+02  0.00000000000E+00 0.  1.
          1    1    1    2  501    0 -0.52861355954E+01  0.51584752307E+02  0.10552327649E+04  0.10565060900E+04  0.00000000000E+00 0.  1.
<mgrwt>
<rscale>  2 0.51854893E+02</rscale>
<asrwt>0</asrwt>
<pdfrwt beam="2">  1       21 0.11305938E-01 0.51854893E+02</pdfrwt>
<pdfrwt beam="1">  1        1 0.16386104E+00 0.51854893E+02</pdfrwt>
<totfact> 0.11090478E+04</totfact>
</mgrwt>
</event>
<event>
 4    1  0.2245608E+006  0.2214577E+02  0.7546771E-02  0.1705743E+00
         -4   -1    0    0    0  501 -0.00000000000E+00  0.00000000000E+00  0.49125930273E+01  0.49125930273E+01  0.00000000000E+00 0.  1.
         21   -1    0    0  501  502  0.00000000000E+00 -0.00000000000E+00 -0.16652560629E+03  0.16652560629E+03  0.00000000000E+00 0.  1.
         21    1    1    2  503  502  0.13812857967E+02 -0.17310111169E+02 -0.13505385599E+03  0.13685751354E+03  0.00000000000E+00 0.  1.
         -4    1    1    2    0  503 -0.13812857967E+02  0.17310111169E+02 -0.26559157269E+02  0.34580685776E+02  0.00000000000E+00 0.  1.
<mgrwt>
<rscale>  2 0.22145767E+02</rscale>
<asrwt>0</asrwt>
<pdfrwt beam="2">  1       21 0.25619326E-01 0.22145767E+02</pdfrwt>
<pdfrwt beam="1">  1       -4 0.75578349E-03 0.22145767E+02</pdfrwt>
<totfact> 0.15311419E+06</totfact>
</mgrwt>
</event>
<event>
 4    1  0.2245608E+006  0.2841773E+02  0.7546771E-02  0.1616267E+00
         21   -1    0    0  503  502  0.00000000000E+00  0.00000000000E+00  0.15547267839E+02  0.15547267839E+02  0.00000000000E+00 0.  1.
         -2   -1    0    0    0  501 -0.00000000000E+00 -0.00000000000E+00 -0.54427410635E+02  0.54427410635E+02  0.00000000000E+00 0.  1.
         21    1    1    2  503  501 -0.22429762571E+02 -0.17449161380E+02 -0.11964615752E+02  0.30833739830E+02  0.00000000000E+00 0.  1.
         -2    1    1    2    0  502  0.22429762571E+02  0.17449161380E+02 -0.26915527044E+02  0.39140938644E+02  0.00000000000E+00 0.  1.
<mgrwt>
<rscale>  2 0.28417732E+02</rscale>
<asrwt>0</asrwt>
<pdfrwt beam="1">  1       21 0.23918873E-02 0.28417732E+02</pdfrwt>
<pdfrwt beam="2">  1       -2 0.83734478E-02 0.28417732E+02</pdfrwt>
<totfact> 0.43866645E+06</totfact>
</mgrwt>
</event>
<event>
 4    1  0.2245608E+006  0.2539675E+02  0.7546771E-02  0.1655368E+00
         21   -1    0    0  503  502  0.00000000000E+00  0.00000000000E+00  0.32899091129E+02  0.32899091129E+02  0.00000000000E+00 0.  1.
         -2   -1    0    0    0  501 -0.00000000000E+00 -0.00000000000E+00 -0.25772335806E+02  0.25772335806E+02  0.00000000000E+00 0. -1.
         21    1    1    2  503  501  0.24612422717E+02  0.62628772153E+01  0.17913634624E+02  0.31078823795E+02  0.00000000000E+00 0.  1.
         -2    1    1    2    0  502 -0.24612422717E+02 -0.62628772153E+01 -0.10786879301E+02  0.27592603141E+02  0.00000000000E+00 0. -1.
<mgrwt>
<rscale>  2 0.25396751E+02</rscale>
<asrwt>0</asrwt>
<pdfrwt beam="1">  1       21 0.50613987E-02 0.25396751E+02</pdfrwt>
<pdfrwt beam="2">  1       -2 0.39649747E-02 0.25396751E+02</pdfrwt>
<totfact> 0.38351097E+06</totfact>
</mgrwt>
</event>
<event>
 4    1  0.2245608E+006  0.2779082E+02  0.7546771E-02  0.1623876E+00
         21   -1    0    0  503  502  0.00000000000E+00  0.00000000000E+00  0.55676218476E+02  0.55676218476E+02  0.00000000000E+00 0.  1.
         -3   -1    0    0    0  501 -0.00000000000E+00 -0.00000000000E+00 -0.19746002138E+02  0.19746002138E+02  0.00000000000E+00 0.  1.
         21    1    1    2  503  501 -0.27266329853E+02  0.53737069932E+01  0.38533678428E+02  0.47509723675E+02  0.00000000000E+00 0.  1.
         -3    1    1    2    0  502  0.27266329853E+02 -0.53737069932E+01 -0.26034620901E+01  0.27912496939E+02  0.00000000000E+00 0.  1.
<mgrwt>
<rscale>  2 0.27790816E+02</rscale>
<asrwt>0</asrwt>
<pdfrwt beam="1">  1       21 0.85655720E-02 0.27790816E+02</pdfrwt>
<pdfrwt beam="2">  1       -3 0.30378465E-02 0.27790816E+02</pdfrwt>
<totfact> 0.16633529E+06</totfact>
</mgrwt>
</event>
<event>
 4    1  0.2245608E+006  0.2254665E+02  0.7546771E-02  0.1698966E+00
         -1   -1    0    0    0  501 -0.00000000000E+00  0.00000000000E+00  0.59799772507E+02  0.59799772507E+02  0.00000000000E+00 0.  1.
         21   -1    0    0  501  502  0.00000000000E+00 -0.00000000000E+00 -0.28519643942E+02  0.28519643942E+02  0.00000000000E+00 0.  1.
         21    1    1    2  503  502 -0.15151640526E+01  0.22495684548E+02 -0.21357456237E+02  0.31056279273E+02  0.00000000000E+00 0.  1.
         -1    1    1    2    0  503  0.15151640526E+01 -0.22495684548E+02  0.52637584802E+02  0.57263137175E+02  0.00000000000E+00 0.  1.
<mgrwt>
<rscale>  2 0.22546653E+02</rscale>
<asrwt>0</asrwt>
<pdfrwt beam="2">  1       21 0.43876375E-02 0.22546653E+02</pdfrwt>
<pdfrwt beam="1">  1       -1 0.91999650E-02 0.22546653E+02</pdfrwt>
<totfact> 0.14509245E+06</totfact>
</mgrwt>
</event>
<event>
 4    1  0.2245608E+006  0.3079102E+02  0.7546771E-02  0.1589506E+00
          2   -1    0    0  503    0 -0.00000000000E+00  0.00000000000E+00  0.17073487257E+03  0.17073487257E+03  0.00000000000E+00 0.  1.
         21   -1    0    0  501  502  0.00000000000E+00 -0.00000000000E+00 -0.83423501231E+01  0.83423501231E+01  0.00000000000E+00 0.  1.
         21    1    1    2  503  502  0.14123852059E+02  0.27360618893E+02  0.29421330574E+02  0.42587572788E+02  0.00000000000E+00 0.  1.
          2    1    1    2  501    0 -0.14123852059E+02 -0.27360618893E+02  0.13297119187E+03  0.13648964990E+03  0.00000000000E+00 0.  1.
<mgrwt>
<rscale>  2 0.30791016E+02</rscale>
<asrwt>0</asrwt>
<pdfrwt beam="2">  1       21 0.12834386E-02 0.30791016E+02</pdfrwt>
<pdfrwt beam="1">  1        2 0.26266901E-01 0.30791016E+02</pdfrwt>
<totfact> 0.46633093E+06</totfact>
</mgrwt>
</event>
<event>
 4    1  0.2245608E+006  0.2854946E+02  0.7546771E-02  0.1614699E+00
         -4   -1    0    0    0  501 -0.00000000000E+00  0.00000000000E+00  0.37784885474E+02  0.37784885474E+02  0.00000000000E+00 0. -1.
         21   -1    0    0  503  502  0.00000000000E+00 -0.00000000000E+00 -0.38642479684E+02  0.38642479684E+02  0.00000000000E+00 0. -1.
         21    1    1    2  503  501 -0.28059664096E+02  0.52656470898E+01 -0.25827834643E+02  0.38498686092E+02  0.00000000000E+00 0. -1.
         -4    1    1    2    0  502  0.28059664096E+02 -0.52656470898E+01  0.24970240433E+02  0.37928679067E+02  0.00000000000E+00 0. -1.
<mgrwt>
<rscale>  2 0.28549462E+02</rscale>
<asrwt>0</asrwt>
<pdfrwt beam="2">  1       21 0.59449969E-02 0.28549462E+02</pdfrwt>
<pdfrwt beam="1">  1       -4 0.58130593E-02 0.28549462E+02</pdfrwt>
<totfact> 0.96956777E+05</totfact>
</mgrwt>
</event>
<event>
 4    1  0.2245608E+006  0.2039127E+02  0.7546771E-02  0.1737657E+00
          1   -1    0    0  502    0 -0.00000000000E+00  0.00000000000E+00  0.42109304907E+01  0.42109304907E+01  0.00000000000E+00 0.  1.
         21   -1    0    0  503  502  0.00000000000E+00 -0.00000000000E+00 -0.18238706694E+03  0.18238706694E+03  0.00000000000E+00 0. -1.
         21    1    1    2  503  501 -0.10760293847E+02  0.17321082414E+02 -0.15227032338E+03  0.15362960392E+03  0.00000000000E+00 0. -1.
          1    1    1    2  501    0  0.10760293847E+02 -0.17321082414E+02 -0.25905813072E+02  0.32968393510E+02  0.00000000000E+00 0.  1.
<mgrwt>
<rscale>  2 0.20391268E+02</rscale>
<asrwt>0</asrwt>
<pdfrwt beam="2">  1       21 0.28059553E-01 0.20391268E+02</pdfrwt>
<pdfrwt beam="1">  1        1 0.64783537E-03 0.20391268E+02</pdfrwt>
<totfact> 0.24715987E+06</totfact>
</mgrwt>
</event>
<event>
 4    1  0.2245608E+006  0.2026249E+02  0.7546771E-02  0.1740158E+00
         21   -1    0    0  501  502  0.00000000000E+00  0.00000000000E+00  0.87703854486E+03  0.87703854486E+03  0.00000000000E+00 0. -1.
          2   -1    0    0  503    0 -0.00000000000E+00 -0.00000000000E+00 -0.44613184322E+03  0.44613184322E+03  0.00000000000E+00 0.  1.
         21    1    1    2  503  502 -0.91882324224E+00 -0.20241650989E+02  0.87669134971E+03  0.87692547649E+03  0.00000000000E+00 0. -1.
          2    1    1    2  501    0  0.91882324224E+00  0.20241650989E+02 -0.44578464807E+03  0.44624491160E+03  0.00000000000E+00 0.  1.
<mgrwt>
<rscale>  2 0.20262494E+02</rscale>
<asrwt>0</asrwt>
<pdfrwt beam="1">  1       21 0.13492901E+00 0.20262494E+02</pdfrwt>
<pdfrwt beam="2">  1        2 0.68635668E-01 0.20262494E+02</pdfrwt>
<totfact> 0.47272737E+02</totfact>
</mgrwt>
</event>
<event>
 4    1  0.2245608E+006  0.2640718E+02  0.7546771E-02  0.1641576E+00
         21   -1    0    0  501  502  0.00000000000E+00  0.00000000000E+00  0.56828404511E+01  0.56828404511E+01  0.00000000000E+00 0. -1.
          1   -1    0    0  503    0 -0.00000000000E+00 -0.00000000000E+00 -0.20960192139E+03  0.20960192139E+03  0.00000000000E+00 0. -1.
         21    1    1    2  503  502 -0.81084147663E+01  0.25131511148E+02 -0.32652669280E+02  0.41994476466E+02  0.00000000000E+00 0. -1.
          1    1    1    2  501    0  0.81084147663E+01 -0.25131511148E+02 -0.17126641166E+03  0.17329028538E+03  0.00000000000E+00 0. -1.
<mgrwt>
<rscale>  2 0.26407182E+02</rscale>
<asrwt>0</asrwt>
<pdfrwt beam="1">  1       21 0.87428306E-03 0.26407182E+02</pdfrwt>
<pdfrwt beam="2">  1        1 0.32246453E-01 0.26407182E+02</pdfrwt>
<totfact> 0.49443475E+06</totfact>
</mgrwt>
</event>
<event>
 4    1  0.2245608E+006  0.2015420E+02  0.7546771E-02  0.1742279E+00
         21   -1    0    0  503  502  0.00000000000E+00  0.00000000000E+00  0.20524543813E+03  0.20524543813E+03  0.00000000000E+00 0. -1.
          1   -1    0    0  502    0 -0.00000000000E+00 -0.00000000000E+00 -0.30426053428E+03  0.30426053428E+03  0.00000000000E+00 0.  1.
         21    1    1    2  503  501 -0.97900973042E+01  0.17616638556E+02  0.20441556937E+03  0.20540671109E+03  0.00000000000E+00 0. -1.
          1    1    1    2  501    0  0.97900973042E+01 -0.17616638556E+02 -0.30343066552E+03  0.30409926132E+03  0.00000000000E+00 0.  1.
<mgrwt>
<rscale>  2 0.20154205E+02</rscale>
<asrwt>0</asrwt>
<pdfrwt beam="1">  1       21 0.31576221E-01 0.20154205E+02</pdfrwt>
<pdfrwt beam="2">  1        1 0.46809313E-01 0.20154205E+02</pdfrwt>
<totfact> 0.93968659E+03</totfact>
</mgrwt>
</event>
<event>
 4    1  0.2245608E+006  0.3418785E+02  0.7546771E-02  0.1555933E+00
         21   -1    0    0  501  502  0.00000000000E+00  0.00000000000E+00  0.94196969230E+01  0.94196969230E+01  0.00000000000E+00 0. -1.
          2   -1    0    0  503    0 -0.00000000000E+00 -0.00000000000E+00 -0.32675427376E+03  0.32675427376E+03  0.00000000000E+00 0.  1.
         21    1    1    2  503  502  0.25084071824E+02 -0.23229261088E+02 -0.26287629702E+02  0.43125963240E+02  0.00000000000E+00 0. -1.
          2    1    1    2  501    0 -0.25084071824E+02  0.23229261088E+02 -0.29104694714E+03  0.29304800745E+03  0.00000000000E+00 0.  1.
<mgrwt>
<rscale>  2 0.34187852E+02</rscale>
<asrwt>0</asrwt>
<pdfrwt beam="1">  1       21 0.14491842E-02 0.34187852E+02</pdfrwt>
<pdfrwt beam="2">  1        2 0.50269888E-01 0.34187852E+02</pdfrwt>
<totfact> 0.20459469E+06</totfact>
</mgrwt>
</event>
<event>
 4    1  0.2245608E+006  0.3544893E+02  0.7546771E-02  0.1544650E+00
         21   -1    0    0  501  502  0.00000000000E+00  0.00000000000E+00  0.52077147195E+02  0.52077147195E+02  0.00000000000E+00 0. -1.
          1   -1    0    0  503    0 -0.00000000000E+00 -0.00000000000E+00 -0.93863428810E+03  0.93863428810E+03  0.00000000000E+00 0.  1.
         21    1    1    2  503  502  0.23917603688E+02  0.26164387198E+02  0.45668469677E+02  0.57812075263E+02  0.00000000000E+00 0. -1.
          1    1    1    2  501    0 -0.23917603688E+02 -0.26164387198E+02 -0.93222561059E+03  0.93289936004E+03  0.00000000000E+00 0.  1.
<mgrwt>
<rscale>  2 0.35448934E+02</rscale>
<asrwt>0</asrwt>
<pdfrwt beam="1">  1       21 0.80118692E-02 0.35448934E+02</pdfrwt>
<pdfrwt beam="2">  1        1 0.14440527E+00 0.35448934E+02</pdfrwt>
<totfact> 0.24373819E+04</totfact>
</mgrwt>
</event>
<event>
 4    1  0.2245608E+006  0.5180930E+02  0.7546771E-02  0.1435820E+00
          1   -1    0    0  503    0 -0.00000000000E+00  0.00000000000E+00  0.14265888596E+03  0.14265888596E+03  0.00000000000E+00 0. -1.
         21   -1    0    0  501  502  0.00000000000E+00 -0.00000000000E+00 -0.96926773820E+02  0.96926773820E+02  0.00000000000E+00 0. -1.
         21    1    1    2  503  502 -0.50898705212E+02  0.96708391534E+01 -0.84672873018E+02  0.99265798477E+02  0.00000000000E+00 0. -1.
          1    1    1    2  501    0  0.50898705212E+02 -0.96708391534E+01  0.13040498516E+03  0.14031986130E+03  0.00000000000E+00 0. -1.
<mgrwt>
<rscale>  2 0.51809298E+02</rscale>
<asrwt>0</asrwt>
<pdfrwt beam="2">  1       21 0.14911811E-01 0.51809298E+02</pdfrwt>
<pdfrwt beam="1">  1        1 0.21947521E-01 0.51809298E+02</pdfrwt>
<totfact> 0.91243320E+04</totfact>
</mgrwt>
</event>
<event>
 4    1  0.2245608E+006  0.2392378E+02  0.7546771E-02  0.1676959E+00
         21   -1    0    0  503  502  0.00000000000E+00  0.00000000000E+00  0.14866986547E+03  0.14866986547E+03  0.00000000000E+00 0.  1.
         -1   -1    0    0    0  501 -0.00000000000E+00 -0.00000000000E+00 -0.27960104747E+02  0.27960104747E+02  0.00000000000E+00 0.  1.
         21    1    1    2  503  501  0.23848746170E+02 -0.18933205652E+01  0.14236481532E+03  0.14436096425E+03  0.00000000000E+00 0.  1.
         -1    1    1    2    0  502 -0.23848746170E+02  0.18933205652E+01 -0.21655054599E+02  0.32269005970E+02  0.00000000000E+00 0.  1.
<mgrwt>
<rscale>  2 0.23923782E+02</rscale>
<asrwt>0</asrwt>
<pdfrwt beam="1">  1       21 0.22872287E-01 0.23923782E+02</pdfrwt>
<pdfrwt beam="2">  1       -1 0.43015547E-02 0.23923782E+02</pdfrwt>
<totfact> 0.27645728E+05</totfact>
</mgrwt>
</event>
<event>
 4    1  0.2245608E+006  0.3412301E+02  0.7546771E-02  0.1556529E+00
         -2   -1    0    0    0  501 -0.00000000000E+00  0.00000000000E+00  0.34535948783E+03  0.34535948783E+03  0.00000000000E+00 0.  1.
         21   -1    0    0  503  502  0.00000000000E+00 -0.00000000000E+00 -0.27910052489E+03  0.27910052489E+03  0.00000000000E+00 0. -1.
         21    1    1    2  503  501  0.33141765374E+02  0.81242441904E+01 -0.27720894427E+03  0.27930123297E+03  0.00000000000E+00 0. -1.
         -2    1    1    2    0  502 -0.33141765374E+02 -0.81242441904E+01  0.34346790721E+03  0.34515877975E+03  0.00000000000E+00 0.  1.
<mgrwt>
<rscale>  2 0.34123012E+02</rscale>
<asrwt>0</asrwt>
<pdfrwt beam="2">  1       21 0.42938542E-01 0.34123012E+02</pdfrwt>
<pdfrwt beam="1">  1       -2 0.53132229E-01 0.34123012E+02</pdfrwt>
<totfact> 0.15423686E+03</totfact>
</mgrwt>
</event>
<event>
 4    1  0.2245608E+006  0.4133089E+02  0.7546771E-02  0.1498640E+00
         21   -1    0    0  503  502  0.00000000000E+00  0.00000000000E+00  0.33608376624E+03  0.33608376624E+03  0.00000000000E+00 0. -1.
          2   -1    0    0  502    0 -0.00000000000E+00 -0.00000000000E+00 -0.65953508768E+01  0.65953508768E+01  0.00000000000E+00 0. -1.
         21    1    1    2  503  501 -0.19133658126E+02 -0.36635306888E+02  0.24679738227E+03  0.25023427119E+03  0.00000000000E+00 0. -1.
          2    1    1    2  501    0  0.19133658126E+02  0.36635306888E+02  0.82691033099E+02  0.92444845930E+02  0.00000000000E+00 0. -1.
<mgrwt>
<rscale>  2 0.41330891E+02</rscale>
<asrwt>0</asrwt>
<pdfrwt beam="1">  1       21 0.51705181E-01 0.41330891E+02</pdfrwt>
<pdfrwt beam="2">  1        2 0.10146696E-02 0.41330891E+02</pdfrwt>
<totfact> 0.50321390E+05</totfact>
</mgrwt>
</event>
<event>
 4    1  0.2245608E+006  0.3721607E+02  0.7546771E-02  0.1529758E+00
          1   -1    0    0  503    0 -0.00000000000E+00  0.00000000000E+00  0.19571241658E+04  0.19571241658E+04  0.00000000000E+00 0. -1.
         21   -1    0    0  501  502  0.00000000000E+00 -0.00000000000E+00 -0.18560531821E+01  0.18560531821E+01  0.00000000000E+00 0.  1.
         21    1    1    2  503  502  0.35344193088E+02  0.11654359941E+02  0.20718383493E+03  0.21049982791E+03  0.00000000000E+00 0.  1.
          1    1    1    2  501    0 -0.35344193088E+02 -0.11654359941E+02  0.17480842777E+04  0.17484803911E+04  0.00000000000E+00 0. -1.
<mgrwt>
<rscale>  2 0.37216073E+02</rscale>
<asrwt>0</asrwt>
<pdfrwt beam="2">  1       21 0.28554821E-03 0.37216073E+02</pdfrwt>
<pdfrwt beam="1">  1        1 0.30109438E+00 0.37216073E+02</pdfrwt>
<totfact> 0.98871425E+05</totfact>
</mgrwt>
</event>
<event>
 4    1  0.2245608E+006  0.3320253E+02  0.7546771E-02  0.1565167E+00
          2   -1    0    0  503    0 -0.00000000000E+00  0.00000000000E+00  0.31432471052E+03  0.31432471052E+03  0.00000000000E+00 0.  1.
         21   -1    0    0  501  502  0.00000000000E+00 -0.00000000000E+00 -0.36533292356E+01  0.36533292356E+01  0.00000000000E+00 0.  1.
         21    1    1    2  503  502  0.33129111595E+02 -0.22067454798E+01  0.12354113091E+03  0.12792505145E+03  0.00000000000E+00 0.  1.
          2    1    1    2  501    0 -0.33129111595E+02  0.22067454798E+01  0.18713025037E+03  0.19005298831E+03  0.00000000000E+00 0.  1.
<mgrwt>
<rscale>  2 0.33202526E+02</rscale>
<asrwt>0</asrwt>
<pdfrwt beam="2">  1       21 0.56205090E-03 0.33202526E+02</pdfrwt>
<pdfrwt beam="1">  1        2 0.48357627E-01 0.33202526E+02</pdfrwt>
<totfact> 0.88957941E+06</totfact>
</mgrwt>
</event>
<event>
 4    1  0.2245608E+006  0.2618283E+02  0.7546771E-02  0.1644571E+00
         21   -1    0    0  501  502  0.00000000000E+00  0.00000000000E+00  0.91518957682E+00  0.91518957682E+00  0.00000000000E+00 0.  1.
         -1   -1    0    0    0  501 -0.00000000000E+00 -0.00000000000E+00 -0.91067466348E+03  0.91067466348E+03  0.00000000000E+00 0.  1.
         21    1    1    2  503  502 -0.26178908686E+02  0.45333298619E+00 -0.26287354978E+03  0.26417426813E+03  0.00000000000E+00 0.  1.
         -1    1    1    2    0  503  0.26178908686E+02 -0.45333298619E+00 -0.64688592412E+03  0.64741558492E+03  0.00000000000E+00 0.  1.
<mgrwt>
<rscale>  2 0.26182834E+02</rscale>
<asrwt>0</asrwt>
<pdfrwt beam="1">  1       21 0.14079780E-03 0.26182834E+02</pdfrwt>
<pdfrwt beam="2">  1       -1 0.14010438E+00 0.26182834E+02</pdfrwt>
<totfact> 0.24126747E+06</totfact>
</mgrwt>
</event>
<event>
 4    1  0.2245608E+006  0.4932732E+02  0.7546771E-02  0.1449004E+00
          1   -1    0    0  503    0 -0.00000000000E+00  0.00000000000E+00  0.44006015894E+02  0.44006015894E+02  0.00000000000E+00 0.  1.
         21   -1    0    0  501  502  0.00000000000E+00 -0.00000000000E+00 -0.92666972958E+02  0.92666972958E+02  0.00000000000E+00 0.  1.
         21    1    1    2  503  502  0.11547304512E+02  0.47956694785E+02 -0.67729516136E+02  0.83788257962E+02  0.00000000000E+00 0.  1.
          1    1    1    2  501    0 -0.11547304512E+02 -0.47956694785E+02  0.19068559073E+02  0.52884730890E+02  0.00000000000E+00 0.  1.
<mgrwt>
<rscale>  2 0.49327323E+02</rscale>
<asrwt>0</asrwt>
<pdfrwt beam="2">  1       21 0.14256457E-01 0.49327323E+02</pdfrwt>
<pdfrwt beam="1">  1        1 0.67701564E-02 0.49327323E+02</pdfrwt>
<totfact> 0.43650224E+05</totfact>
</mgrwt>
</event>
<event>
 4    1  0.2245608E+006  0.2136820E+02  0.7546771E-02  0.1719413E+00
          1   -1    0    0  502    0 -0.00000000000E+00  0.00000000000E+00  0.60064035588E+02  0.60064035588E+02  0.00000000000E+00 0. -1.
         21   -1    0    0  503  502  0.00000000000E+00 -0.00000000000E+00 -0.83590854306E+01  0.83590854306E+01  0.00000000000E+00 0. -1.
         21    1    1    2  503  501 -0.10579857011E+02 -0.18565196431E+02  0.15555754671E+02  0.26430690424E+02  0.00000000000E+00 0. -1.
          1    1    1    2  501    0  0.10579857011E+02  0.18565196431E+02  0.36149195487E+02  0.41992430595E+02  0.00000000000E+00 0. -1.
<mgrwt>
<rscale>  2 0.21368198E+02</rscale>
<asrwt>0</asrwt>
<pdfrwt beam="2">  1       21 0.12860132E-02 0.21368198E+02</pdfrwt>
<pdfrwt beam="1">  1        1 0.92406206E-02 0.21368198E+02</pdfrwt>
<totfact> 0.11735925E+07</totfact>
</mgrwt>
</event>
<event>
 4    1  0.2245608E+006  0.2482554E+02  0.7546771E-02  0.1663520E+00
         21   -1    0    0  501  502  0.00000000000E+00  0.00000000000E+00  0.88326700524E+01  0.88326700524E+01  0.00000000000E+00 0. -1.
          2   -1    0    0  503    0 -0.00000000000E+00 -0.00000000000E+00 -0.39611434024E+03  0.39611434024E+03  0.00000000000E+00 0. -1.
         21    1    1    2  503  502 -0.33338645192E+01 -0.24600671298E+02 -0.98634693932E+01  0.26713212263E+02  0.00000000000E+00 0. -1.
          2    1    1    2  501    0  0.33338645192E+01  0.24600671298E+02 -0.37741820079E+03  0.37823379803E+03  0.00000000000E+00 0. -1.
<mgrwt>
<rscale>  2 0.24825545E+02</rscale>
<asrwt>0</asrwt>
<pdfrwt beam="1">  1       21 0.13588725E-02 0.24825545E+02</pdfrwt>
<pdfrwt beam="2">  1        2 0.60940660E-01 0.24825545E+02</pdfrwt>
<totfact> 0.17515018E+06</totfact>
</mgrwt>
</event>
<event>
 4    1  0.2245608E+006  0.2006446E+02  0.7546771E-02  0.1744049E+00
         21   -1    0    0  501  502  0.00000000000E+00  0.00000000000E+00  0.10235111187E+01  0.10235111187E+01  0.00000000000E+00 0.  1.
          1   -1    0    0  503    0 -0.00000000000E+00 -0.00000000000E+00 -0.12654346618E+04  0.12654346618E+04  0.00000000000E+00 0.  1.
         21    1    1    2  503  502 -0.20059367999E+02 -0.45197998303E+00 -0.10652236828E+03  0.10839556022E+03  0.00000000000E+00 0.  1.
          1    1    1    2  501    0  0.20059367999E+02  0.45197998303E+00 -0.11578887824E+04  0.11580626127E+04  0.00000000000E+00 0.  1.
<mgrwt>
<rscale>  2 0.20064459E+02</rscale>
<asrwt>0</asrwt>
<pdfrwt beam="1">  1       21 0.15746222E-03 0.20064459E+02</pdfrwt>
<pdfrwt beam="2">  1        1 0.19468353E+00 0.20064459E+02</pdfrwt>
<totfact> 0.55380349E+06</totfact>
</mgrwt>
</event>
<event>
 4    1  0.2245608E+006  0.2012759E+02  0.7546771E-02  0.1742803E+00
         -4   -1    0    0    0  501 -0.00000000000E+00  0.00000000000E+00  0.37788118388E+02  0.37788118388E+02  0.00000000000E+00 0. -1.
         21   -1    0    0  503  502  0.00000000000E+00 -0.00000000000E+00 -0.42423629763E+02  0.42423629763E+02  0.00000000000E+00 0. -1.
         21    1    1    2  503  501 -0.10518895379E+02 -0.17160203250E+02 -0.36987682864E+02  0.42109481346E+02  0.00000000000E+00 0. -1.
         -4    1    1    2    0  502  0.10518895379E+02  0.17160203250E+02  0.32352171489E+02  0.38102266804E+02  0.00000000000E+00 0. -1.
<mgrwt>
<rscale>  2 0.20127586E+02</rscale>
<asrwt>0</asrwt>
<pdfrwt beam="2">  1       21 0.65267123E-02 0.20127586E+02</pdfrwt>
<pdfrwt beam="1">  1       -4 0.58135567E-02 0.20127586E+02</pdfrwt>
<totfact> 0.72507307E+05</totfact>
</mgrwt>
</event>
<event>
 4    1  0.2245608E+006  0.2298057E+02  0.7546771E-02  0.1691825E+00
         -2   -1    0    0    0  501 -0.00000000000E+00  0.00000000000E+00  0.32285382853E+03  0.32285382853E+03  0.00000000000E+00 0. -1.
         21   -1    0    0  501  502  0.00000000000E+00 -0.00000000000E+00 -0.38050265315E+01  0.38050265315E+01  0.00000000000E+00 0.  1.
         21    1    1    2  503  502  0.22764655329E+02  0.31427706348E+01  0.36201550802E+02  0.42879585119E+02  0.00000000000E+00 0.  1.
         -2    1    1    2    0  503 -0.22764655329E+02 -0.31427706348E+01  0.28284725120E+03  0.28377926994E+03  0.00000000000E+00 0. -1.
<mgrwt>
<rscale>  2 0.22980569E+02</rscale>
<asrwt>0</asrwt>
<pdfrwt beam="2">  1       21 0.58538895E-03 0.22980569E+02</pdfrwt>
<pdfrwt beam="1">  1       -2 0.49669798E-01 0.22980569E+02</pdfrwt>
<totfact> 0.18770943E+06</totfact>
</mgrwt>
</event>
<event>
 4    1  0.2245608E+006  0.2712694E+02  0.7546771E-02  0.1632206E+00
         -1   -1    0    0    0  501 -0.00000000000E+00  0.00000000000E+00  0.31398414538E+02  0.31398414538E+02  0.00000000000E+00 0. -1.
         21   -1    0    0  501  502  0.00000000000E+00 -0.00000000000E+00 -0.29209850940E+02  0.29209850940E+02  0.00000000000E+00 0. -1.
         21    1    1    2  503  502  0.89445429499E+01  0.25609883839E+02 -0.12378234090E+02  0.29817640383E+02  0.00000000000E+00 0. -1.
         -1    1    1    2    0  503 -0.89445429499E+01 -0.25609883839E+02  0.14566797688E+02  0.30790625095E+02  0.00000000000E+00 0. -1.
<mgrwt>
<rscale>  2 0.27126942E+02</rscale>
<asrwt>0</asrwt>
<pdfrwt beam="2">  1       21 0.44938232E-02 0.27126942E+02</pdfrwt>
<pdfrwt beam="1">  1       -1 0.48305253E-02 0.27126942E+02</pdfrwt>
<totfact> 0.36520524E+06</totfact>
</mgrwt>
</event>
<event>
 4    1  0.2245608E+006  0.4103086E+02  0.7546771E-02  0.1500760E+00
         21   -1    0    0  503  502  0.00000000000E+00  0.00000000000E+00  0.12566826248E+01  0.12566826248E+01  0.00000000000E+00 0. -1.
          1   -1    0    0  502    0 -0.00000000000E+00 -0.00000000000E+00 -0.18683670756E+04  0.18683670756E+04  0.00000000000E+00 0. -1.
         21    1    1    2  503  501 -0.28973856174E+02 -0.29052491511E+02 -0.43627711001E+03  0.43820229155E+03  0.00000000000E+00 0. -1.
          1    1    1    2  501    0  0.28973856174E+02  0.29052491511E+02 -0.14308332830E+04  0.14314214667E+04  0.00000000000E+00 0. -1.
<mgrwt>
<rscale>  2 0.41030862E+02</rscale>
<asrwt>0</asrwt>
<pdfrwt beam="1">  1       21 0.19333536E-03 0.41030862E+02</pdfrwt>
<pdfrwt beam="2">  1        1 0.28744172E+00 0.41030862E+02</pdfrwt>
<totfact> 0.20079903E+06</totfact>
</mgrwt>
</event>
<event>
 4    1  0.2245608E+006  0.3021492E+02  0.7546771E-02  0.1595725E+00
         21   -1    0    0  503  502  0.00000000000E+00  0.00000000000E+00  0.33467828296E+01  0.33467828296E+01  0.00000000000E+00 0. -1.
          2   -1    0    0  502    0 -0.00000000000E+00 -0.00000000000E+00 -0.12803639455E+04  0.12803639455E+04  0.00000000000E+00 0. -1.
         21    1    1    2  503  501 -0.10548409542E+02 -0.28313818157E+02 -0.69117445839E+02  0.75433166192E+02  0.00000000000E+00 0. -1.
          2    1    1    2  501    0  0.10548409542E+02  0.28313818157E+02 -0.12078997169E+04  0.12082775622E+04  0.00000000000E+00 0. -1.
<mgrwt>
<rscale>  2 0.30214918E+02</rscale>
<asrwt>0</asrwt>
<pdfrwt beam="1">  1       21 0.51489035E-03 0.30214918E+02</pdfrwt>
<pdfrwt beam="2">  1        2 0.19697881E+00 0.30214918E+02</pdfrwt>
<totfact> 0.20420046E+06</totfact>
</mgrwt>
</event>
<event>
 4    1  0.2245608E+006  0.2356277E+02  0.7546771E-02  0.1682547E+00
         -2   -1    0    0    0  501 -0.00000000000E+00  0.00000000000E+00  0.17864801573E+01  0.17864801573E+01  0.00000000000E+00 0. -1.
         21   -1    0    0  503  502  0.00000000000E+00 -0.00000000000E+00 -0.40548946043E+03  0.40548946043E+03  0.00000000000E+00 0. -1.
         21    1    1    2  503  501 -0.17842242089E+02 -0.15390205928E+02 -0.30026697243E+03  0.30119007085E+03  0.00000000000E+00 0. -1.
         -2    1    1    2    0  502  0.17842242089E+02  0.15390205928E+02 -0.10343600784E+03  0.10608586975E+03  0.00000000000E+00 0. -1.
<mgrwt>
<rscale>  2 0.23562768E+02</rscale>
<asrwt>0</asrwt>
<pdfrwt beam="2">  1       21 0.62382978E-01 0.23562768E+02</pdfrwt>
<pdfrwt beam="1">  1       -2 0.27484317E-03 0.23562768E+02</pdfrwt>
<totfact> 0.17292934E+06</totfact>
</mgrwt>
</event>
<event>
 4    1  0.2245608E+006  0.5615556E+02  0.7546771E-02  0.1414712E+00
          2   -1    0    0  503    0 -0.00000000000E+00  0.00000000000E+00  0.69583862231E+03  0.69583862231E+03  0.00000000000E+00 0. -1.
         21   -1    0    0  501  502  0.00000000000E+00 -0.00000000000E+00 -0.46801735734E+01  0.46801735734E+01  0.00000000000E+00 0. -1.
         21    1    1    2  503  502  0.35529295285E+02 -0.43486966806E+02  0.40792988916E+03  0.41177693181E+03  0.00000000000E+00 0. -1.
          2    1    1    2  501    0 -0.35529295285E+02  0.43486966806E+02  0.28322855958E+03  0.28874186407E+03  0.00000000000E+00 0. -1.
<mgrwt>
<rscale>  2 0.56155562E+02</rscale>
<asrwt>0</asrwt>
<pdfrwt beam="2">  1       21 0.72002725E-03 0.56155562E+02</pdfrwt>
<pdfrwt beam="1">  1        2 0.10705201E+00 0.56155562E+02</pdfrwt>
<totfact> 0.29340204E+06</totfact>
</mgrwt>
</event>
<event>
 4    1  0.2245608E+006  0.2366932E+02  0.7546771E-02  0.1680885E+00
          1   -1    0    0  503    0 -0.00000000000E+00  0.00000000000E+00  0.81205941834E+03  0.81205941834E+03  0.00000000000E+00 0. -1.
         21   -1    0    0  501  502  0.00000000000E+00 -0.00000000000E+00 -0.32341065752E+01  0.32341065752E+01  0.00000000000E+00 0.  1.
         21    1    1    2  503  502  0.20326708654E+01 -0.23581876945E+02  0.42850183673E+02  0.48952782474E+02  0.00000000000E+00 0.  1.
          1    1    1    2  501    0 -0.20326708654E+01  0.23581876945E+02  0.76597512809E+03  0.76634074244E+03  0.00000000000E+00 0. -1.
<mgrwt>
<rscale>  2 0.23669319E+02</rscale>
<asrwt>0</asrwt>
<pdfrwt beam="2">  1       21 0.49755551E-03 0.23669319E+02</pdfrwt>
<pdfrwt beam="1">  1        1 0.12493206E+00 0.23669319E+02</pdfrwt>
<totfact> 0.21640849E+06</totfact>
</mgrwt>
</event>
<event>
 4    1  0.2245608E+006  0.2240538E+02  0.7546771E-02  0.1701334E+00
         -2   -1    0    0    0  501 -0.00000000000E+00  0.00000000000E+00  0.12299241660E+02  0.12299241660E+02  0.00000000000E+00 0. -1.
         21   -1    0    0  503  502  0.00000000000E+00 -0.00000000000E+00 -0.41113415754E+02  0.41113415754E+02  0.00000000000E+00 0. -1.
         21    1    1    2  503  501 -0.54364439293E+00  0.22398782488E+02 -0.16680046061E+02  0.27932506918E+02  0.00000000000E+00 0. -1.
         -2    1    1    2    0  502  0.54364439293E+00 -0.22398782488E+02 -0.12134128034E+02  0.25480150496E+02  0.00000000000E+00 0. -1.
<mgrwt>
<rscale>  2 0.22405379E+02</rscale>
<asrwt>0</asrwt>
<pdfrwt beam="2">  1       21 0.63251410E-02 0.22405379E+02</pdfrwt>
<pdfrwt beam="1">  1       -2 0.18921910E-02 0.22405379E+02</pdfrwt>
<totfact> 0.72165338E+06</totfact>
</mgrwt>
</event>
<event>
 4    1  0.2245608E+006  0.2326694E+02  0.7546771E-02  0.1687219E+00
         -1   -1    0    0    0  501 -0.00000000000E+00  0.00000000000E+00  0.48312058759E+03  0.48312058759E+03  0.00000000000E+00 0.  1.
         21   -1    0    0  501  502  0.00000000000E+00 -0.00000000000E+00 -0.24007943964E+01  0.24007943964E+01  0.00000000000E+00 0. -1.
         21    1    1    2  503  502  0.17388483501E+02  0.15459336698E+02  0.63083487034E+02  0.67237465642E+02  0.00000000000E+00 0. -1.
         -1    1    1    2    0  503 -0.17388483501E+02 -0.15459336698E+02  0.41763630616E+03  0.41828391634E+03  0.00000000000E+00 0.  1.
<mgrwt>
<rscale>  2 0.23266939E+02</rscale>
<asrwt>0</asrwt>
<pdfrwt beam="2">  1       21 0.36935337E-03 0.23266939E+02</pdfrwt>
<pdfrwt beam="1">  1       -1 0.74326167E-01 0.23266939E+02</pdfrwt>
<totfact> 0.22187051E+06</totfact>
</mgrwt>
</event>
<event>
 4    1  0.2245608E+006  0.2855780E+02  0.7546771E-02  0.1614600E+00
         21   -1    0    0  501  502  0.00000000000E+00  0.00000000000E+00  0.21994834891E+04  0.21994834891E+04  0.00000000000E+00 0.  1.
          1   -1    0    0  503    0 -0.00000000000E+00 -0.00000000000E+00 -0.15217771030E+01  0.15217771030E+01  0.00000000000E+00 0.  1.
         21    1    1    2  503  502  0.16551704200E+02  0.23272071293E+02  0.20560661507E+04  0.20562644684E+04  0.00000000000E+00 0.  1.
          1    1    1    2  501    0 -0.16551704200E+02 -0.23272071293E+02  0.14189556129E+03  0.14474079773E+03  0.00000000000E+00 0.  1.
<mgrwt>
<rscale>  2 0.28557805E+02</rscale>
<asrwt>0</asrwt>
<pdfrwt beam="1">  1       21 0.33837953E+00 0.28557805E+02</pdfrwt>
<pdfrwt beam="2">  1        1 0.23412131E-03 0.28557805E+02</pdfrwt>
<totfact> 0.31270248E+04</totfact>
</mgrwt>
</event>
<event>
 4    1  0.2245608E+006  0.3612176E+02  0.7546771E-02  0.1538859E+00
          3   -1    0    0  503    0 -0.00000000000E+00  0.00000000000E+00  0.16426383027E+03  0.16426383027E+03  0.00000000000E+00 0.  1.
         21   -1    0    0  501  502  0.00000000000E+00 -0.00000000000E+00 -0.12194278728E+02  0.12194278728E+02  0.00000000000E+00 0. -1.
         21    1    1    2  503  502  0.26588529696E+02 -0.24450597943E+02  0.23941367944E+02  0.43335559881E+02  0.00000000000E+00 0. -1.
          3    1    1    2  501    0 -0.26588529696E+02  0.24450597943E+02  0.12812818359E+03  0.13312254911E+03  0.00000000000E+00 0.  1.
<mgrwt>
<rscale>  2 0.36121761E+02</rscale>
<asrwt>0</asrwt>
<pdfrwt beam="2">  1       21 0.18760430E-02 0.36121761E+02</pdfrwt>
<pdfrwt beam="1">  1        3 0.25271357E-01 0.36121761E+02</pdfrwt>
<totfact> 0.70657461E+05</totfact>
</mgrwt>
</event>
<event>
 4    1  0.2245608E+006  0.2105440E+02  0.7546771E-02  0.1725138E+00
          1   -1    0    0  503    0 -0.00000000000E+00  0.00000000000E+00  0.62912124368E+03  0.62912124368E+03  0.00000000000E+00 0.  1.
         21   -1    0    0  501  502  0.00000000000E+00 -0.00000000000E+00 -0.75906600960E+00  0.75906600960E+00  0.00000000000E+00 0.  1.
         21    1    1    2  503  502  0.85986503060E+01  0.19218500838E+02  0.22982902894E+03  0.23079139955E+03  0.00000000000E+00 0.  1.
          1    1    1    2  501    0 -0.85986503060E+01 -0.19218500838E+02  0.39853314873E+03  0.39908891015E+03  0.00000000000E+00 0.  1.
<mgrwt>
<rscale>  2 0.21054395E+02</rscale>
<asrwt>0</asrwt>
<pdfrwt beam="2">  1       21 0.11677989E-03 0.21054395E+02</pdfrwt>
<pdfrwt beam="1">  1        1 0.96787467E-01 0.21054395E+02</pdfrwt>
<totfact> 0.24056949E+07</totfact>
</mgrwt>
</event>
<event>
 4    1  0.2245608E+006  0.2024091E+02  0.7546771E-02  0.1740579E+00
          4   -1    0    0  503    0 -0.00000000000E+00  0.00000000000E+00  0.59561239567E+02  0.59561239567E+02  0.00000000000E+00 0.  1.
         21   -1    0    0  501  502  0.00000000000E+00 -0.00000000000E+00 -0.12026471225E+02  0.12026471225E+02  0.00000000000E+00 0. -1.
         21    1    1    2  503  502  0.20215612353E+02  0.10117429598E+01  0.34907309299E+00  0.20243923994E+02  0.00000000000E+00 0. -1.
          4    1    1    2  501    0 -0.20215612353E+02 -0.10117429598E+01  0.47185695249E+02  0.51343786798E+02  0.00000000000E+00 0.  1.
<mgrwt>
<rscale>  2 0.20240914E+02</rscale>
<asrwt>0</asrwt>
<pdfrwt beam="2">  1       21 0.18502264E-02 0.20240914E+02</pdfrwt>
<pdfrwt beam="1">  1        4 0.91632674E-02 0.20240914E+02</pdfrwt>
<totfact> 0.25505516E+06</totfact>
</mgrwt>
</event>
<event>
 4    1  0.2245608E+006  0.2093351E+02  0.7546771E-02  0.1727377E+00
         -2   -1    0    0    0  501 -0.00000000000E+00  0.00000000000E+00  0.12380669399E+02  0.12380669399E+02  0.00000000000E+00 0. -1.
         21   -1    0    0  503  502  0.00000000000E+00 -0.00000000000E+00 -0.11689938930E+03  0.11689938930E+03  0.00000000000E+00 0. -1.
         21    1    1    2  503  501 -0.65519798245E+01 -0.19881732120E+02 -0.10623357941E+03  0.10827642914E+03  0.00000000000E+00 0. -1.
         -2    1    1    2    0  502  0.65519798245E+01  0.19881732120E+02  0.17148595097E+01  0.21003629564E+02  0.00000000000E+00 0. -1.
<mgrwt>
<rscale>  2 0.20933507E+02</rscale>
<asrwt>0</asrwt>
<pdfrwt beam="2">  1       21 0.17984520E-01 0.20933507E+02</pdfrwt>
<pdfrwt beam="1">  1       -2 0.19047185E-02 0.20933507E+02</pdfrwt>
<totfact> 0.12387289E+06</totfact>
</mgrwt>
</event>
<event>
 4    1  0.2245608E+006  0.2071886E+02  0.7546771E-02  0.1731399E+00
         21   -1    0    0  501  502  0.00000000000E+00  0.00000000000E+00  0.42596467796E+01  0.42596467796E+01  0.00000000000E+00 0.  1.
          2   -1    0    0  503    0 -0.00000000000E+00 -0.00000000000E+00 -0.41150217411E+03  0.41150217411E+03  0.00000000000E+00 0.  1.
         21    1    1    2  503  502 -0.17862765089E+02  0.10497283482E+02 -0.22979872359E+02  0.30941006298E+02  0.00000000000E+00 0.  1.
          2    1    1    2  501    0  0.17862765089E+02 -0.10497283482E+02 -0.38426265497E+03  0.38482081459E+03  0.00000000000E+00 0.  1.
<mgrwt>
<rscale>  2 0.20718864E+02</rscale>
<asrwt>0</asrwt>
<pdfrwt beam="1">  1       21 0.65533033E-03 0.20718864E+02</pdfrwt>
<pdfrwt beam="2">  1        2 0.63308022E-01 0.20718864E+02</pdfrwt>
<totfact> 0.48257085E+06</totfact>
</mgrwt>
</event>
<event>
 4    1  0.2245608E+006  0.2344905E+02  0.7546771E-02  0.1684333E+00
          2   -1    0    0  503    0 -0.00000000000E+00  0.00000000000E+00  0.56094093806E+02  0.56094093806E+02  0.00000000000E+00 0.  1.
         21   -1    0    0  501  502  0.00000000000E+00 -0.00000000000E+00 -0.14486428432E+02  0.14486428432E+02  0.00000000000E+00 0. -1.
         21    1    1    2  503  502 -0.55299956011E+01  0.22787656697E+02  0.73681607538E+00  0.23460627592E+02  0.00000000000E+00 0. -1.
          2    1    1    2  501    0  0.55299956011E+01 -0.22787656697E+02  0.40870849298E+02  0.47119894646E+02  0.00000000000E+00 0.  1.
<mgrwt>
<rscale>  2 0.23449054E+02</rscale>
<asrwt>0</asrwt>
<pdfrwt beam="2">  1       21 0.22286813E-02 0.23449054E+02</pdfrwt>
<pdfrwt beam="1">  1        2 0.86298605E-02 0.23449054E+02</pdfrwt>
<totfact> 0.63802825E+06</totfact>
</mgrwt>
</event>
<event>
 4    1  0.2245608E+006  0.2056279E+02  0.7546771E-02  0.1734362E+00
         21   -1    0    0  501  502  0.00000000000E+00  0.00000000000E+00  0.24897481983E+01  0.24897481983E+01  0.00000000000E+00 0. -1.
         -1   -1    0    0    0  501 -0.00000000000E+00 -0.00000000000E+00 -0.23514951711E+03  0.23514951711E+03  0.00000000000E+00 0. -1.
         21    1    1    2  503  502  0.13916468138E+02  0.15138044177E+02 -0.53705287262E+02  0.57507272121E+02  0.00000000000E+00 0. -1.
         -1    1    1    2    0  503 -0.13916468138E+02 -0.15138044177E+02 -0.17895448165E+03  0.18013199319E+03  0.00000000000E+00 0. -1.
<mgrwt>
<rscale>  2 0.20562793E+02</rscale>
<asrwt>0</asrwt>
<pdfrwt beam="1">  1       21 0.38303799E-03 0.20562793E+02</pdfrwt>
<pdfrwt beam="2">  1       -1 0.36176868E-01 0.20562793E+02</pdfrwt>
<totfact> 0.71480366E+06</totfact>
</mgrwt>
</event>
<event>
 4    1  0.2245608E+006  0.3800001E+02  0.7546771E-02  0.1523467E+00
          1   -1    0    0  502    0 -0.00000000000E+00  0.00000000000E+00  0.26583575784E+04  0.26583575784E+04  0.00000000000E+00 0. -1.
         21   -1    0    0  503  502  0.00000000000E+00 -0.00000000000E+00 -0.97821715685E+02  0.97821715685E+02  0.00000000000E+00 0. -1.
         21    1    1    2  503  501  0.20909871116E+02  0.31729760706E+02 -0.93990202910E+02  0.10138125402E+03  0.00000000000E+00 0. -1.
          1    1    1    2  501    0 -0.20909871116E+02 -0.31729760706E+02  0.26545260657E+04  0.26547980401E+04  0.00000000000E+00 0. -1.
<mgrwt>
<rscale>  2 0.38000006E+02</rscale>
<asrwt>0</asrwt>
<pdfrwt beam="2">  1       21 0.15049497E-01 0.38000006E+02</pdfrwt>
<pdfrwt beam="1">  1        1 0.40897803E+00 0.38000006E+02</pdfrwt>
<totfact> 0.70607993E+02</totfact>
</mgrwt>
</event>
<event>
 4    1  0.2245608E+006  0.2369338E+02  0.7546771E-02  0.1680511E+00
         21   -1    0    0  503  502  0.00000000000E+00  0.00000000000E+00  0.43812332066E+00  0.43812332066E+00  0.00000000000E+00 0.  1.
          1   -1    0    0  502    0 -0.00000000000E+00 -0.00000000000E+00 -0.13177686863E+04  0.13177686863E+04  0.00000000000E+00 0.  1.
         21    1    1    2  503  501 -0.15598905268E+02  0.17833973800E+02 -0.54905004938E+03  0.54956103682E+03  0.00000000000E+00 0.  1.
          1    1    1    2  501    0  0.15598905268E+02 -0.17833973800E+02 -0.76828051361E+03  0.76864577281E+03  0.00000000000E+00 0.  1.
<mgrwt>
<rscale>  2 0.23693384E+02</rscale>
<asrwt>0</asrwt>
<pdfrwt beam="1">  1       21 0.67404606E-04 0.23693384E+02</pdfrwt>
<pdfrwt beam="2">  1        1 0.20273058E+00 0.23693384E+02</pdfrwt>
<totfact> 0.17898821E+07</totfact>
</mgrwt>
</event>
<event>
 4    1  0.2245608E+006  0.2039239E+02  0.7546771E-02  0.1737636E+00
          1   -1    0    0  503    0 -0.00000000000E+00  0.00000000000E+00  0.20249397974E+03  0.20249397974E+03  0.00000000000E+00 0.  1.
         21   -1    0    0  501  502  0.00000000000E+00 -0.00000000000E+00 -0.29286431427E+01  0.29286431427E+01  0.00000000000E+00 0.  1.
         21    1    1    2  503  502 -0.17581633309E+02 -0.10331305561E+02  0.43640408138E+02  0.48169854960E+02  0.00000000000E+00 0.  1.
          1    1    1    2  501    0  0.17581633309E+02  0.10331305561E+02  0.15592492846E+03  0.15725276792E+03  0.00000000000E+00 0.  1.
<mgrwt>
<rscale>  2 0.20392393E+02</rscale>
<asrwt>0</asrwt>
<pdfrwt beam="2">  1       21 0.45056064E-03 0.20392393E+02</pdfrwt>
<pdfrwt beam="1">  1        1 0.31152909E-01 0.20392393E+02</pdfrwt>
<totfact> 0.12805223E+07</totfact>
</mgrwt>
</event>
<event>
 4    1  0.2245608E+006  0.2591540E+02  0.7546771E-02  0.1648191E+00
         21   -1    0    0  501  502  0.00000000000E+00  0.00000000000E+00  0.22999699222E+02  0.22999699222E+02  0.00000000000E+00 0. -1.
          4   -1    0    0  503    0 -0.00000000000E+00 -0.00000000000E+00 -0.43010975190E+02  0.43010975190E+02  0.00000000000E+00 0.  1.
         21    1    1    2  503  502  0.24409997181E+02  0.87040248592E+01  0.86966707199E+01  0.27335692651E+02  0.00000000000E+00 0. -1.
          4    1    1    2  501    0 -0.24409997181E+02 -0.87040248592E+01 -0.28707946688E+02  0.38674981761E+02  0.00000000000E+00 0.  1.
<mgrwt>
<rscale>  2 0.25915401E+02</rscale>
<asrwt>0</asrwt>
<pdfrwt beam="1">  1       21 0.35384153E-02 0.25915401E+02</pdfrwt>
<pdfrwt beam="2">  1        4 0.66170731E-02 0.25915401E+02</pdfrwt>
<totfact> 0.17451100E+06</totfact>
</mgrwt>
</event>
<event>
 4    1  0.2245608E+006  0.2058910E+02  0.7546771E-02  0.1733861E+00
         21   -1    0    0  503  502  0.00000000000E+00  0.00000000000E+00  0.92864115705E+02  0.92864115705E+02  0.00000000000E+00 0.  1.
         -2   -1    0    0    0  501 -0.00000000000E+00 -0.00000000000E+00 -0.33733116962E+03  0.33733116962E+03  0.00000000000E+00 0. -1.
         21    1    1    2  503  501  0.19076070080E+02 -0.77469029092E+01  0.91403780169E+02  0.93693980509E+02  0.00000000000E+00 0.  1.
         -2    1    1    2    0  502 -0.19076070080E+02  0.77469029092E+01 -0.33587083409E+03  0.33650130482E+03  0.00000000000E+00 0. -1.
<mgrwt>
<rscale>  2 0.20589098E+02</rscale>
<asrwt>0</asrwt>
<pdfrwt beam="1">  1       21 0.14286787E-01 0.20589098E+02</pdfrwt>
<pdfrwt beam="2">  1       -2 0.51897104E-01 0.20589098E+02</pdfrwt>
<totfact> 0.11511412E+04</totfact>
</mgrwt>
</event>
<event>
 4    1  0.2245608E+006  0.2164307E+02  0.7546771E-02  0.1714499E+00
         21   -1    0    0  501  502  0.00000000000E+00  0.00000000000E+00  0.28059323929E+02  0.28059323929E+02  0.00000000000E+00 0.  1.
         -2   -1    0    0    0  501 -0.00000000000E+00 -0.00000000000E+00 -0.12026024191E+03  0.12026024191E+03  0.00000000000E+00 0.  1.
         21    1    1    2  503  502 -0.37332632178E+01  0.21318659385E+02  0.22719833115E+02  0.31378548548E+02  0.00000000000E+00 0.  1.
         -2    1    1    2    0  503  0.37332632178E+01 -0.21318659385E+02 -0.11492075110E+03  0.11694101729E+03  0.00000000000E+00 0.  1.
<mgrwt>
<rscale>  2 0.21643070E+02</rscale>
<asrwt>0</asrwt>
<pdfrwt beam="1">  1       21 0.43168191E-02 0.21643070E+02</pdfrwt>
<pdfrwt beam="2">  1       -2 0.18501576E-01 0.21643070E+02</pdfrwt>
<totfact> 0.48496940E+05</totfact>
</mgrwt>
</event>
<event>
 4    1  0.2245608E+006  0.3950449E+02  0.7546771E-02  0.1511890E+00
          1   -1    0    0  503    0 -0.00000000000E+00  0.00000000000E+00  0.53725493485E+02  0.53725493485E+02  0.00000000000E+00 0. -1.
         21   -1    0    0  501  502  0.00000000000E+00 -0.00000000000E+00 -0.30007054001E+02  0.30007054001E+02  0.00000000000E+00 0. -1.
         21    1    1    2  503  502  0.10974250835E+02 -0.37949583629E+02  0.43735756576E+01  0.39745858187E+02  0.00000000000E+00 0. -1.
          1    1    1    2  501    0 -0.10974250835E+02  0.37949583629E+02  0.19344863827E+02  0.43986689299E+02  0.00000000000E+00 0. -1.
<mgrwt>
<rscale>  2 0.39504494E+02</rscale>
<asrwt>0</asrwt>
<pdfrwt beam="2">  1       21 0.46164699E-02 0.39504494E+02</pdfrwt>
<pdfrwt beam="1">  1        1 0.82654605E-02 0.39504494E+02</pdfrwt>
<totfact> 0.21516551E+06</totfact>
</mgrwt>
</event>
<event>
 4    1  0.2245608E+006  0.2421333E+02  0.7546771E-02  0.1672565E+00
         21   -1    0    0  501  502  0.00000000000E+00  0.00000000000E+00  0.24273573360E+01  0.24273573360E+01  0.00000000000E+00 0. -1.
          1   -1    0    0  503    0 -0.00000000000E+00 -0.00000000000E+00 -0.15202218567E+04  0.15202218567E+04  0.00000000000E+00 0.  1.
         21    1    1    2  503  502  0.94325579878E+01  0.22300494597E+02 -0.60666550853E+02  0.65320101055E+02  0.00000000000E+00 0. -1.
          1    1    1    2  501    0 -0.94325579878E+01 -0.22300494597E+02 -0.14571279485E+04  0.14573291130E+04  0.00000000000E+00 0.  1.
<mgrwt>
<rscale>  2 0.24213327E+02</rscale>
<asrwt>0</asrwt>
<pdfrwt beam="1">  1       21 0.37343859E-03 0.24213327E+02</pdfrwt>
<pdfrwt beam="2">  1        1 0.23388091E+00 0.24213327E+02</pdfrwt>
<totfact> 0.11530361E+06</totfact>
</mgrwt>
</event>
<event>
 4    1  0.2245608E+006  0.3191316E+02  0.7546771E-02  0.1577856E+00
         21   -1    0    0  501  502  0.00000000000E+00  0.00000000000E+00  0.25490017422E+03  0.25490017422E+03  0.00000000000E+00 0. -1.
          3   -1    0    0  503    0 -0.00000000000E+00 -0.00000000000E+00 -0.26960216195E+02  0.26960216195E+02  0.00000000000E+00 0.  1.
         21    1    1    2  503  502  0.25138190898E+01 -0.31813998222E+02  0.24403875501E+03  0.24611656531E+03  0.00000000000E+00 0. -1.
          3    1    1    2  501    0 -0.25138190898E+01  0.31813998222E+02 -0.16098796985E+02  0.35743825112E+02  0.00000000000E+00 0.  1.
<mgrwt>
<rscale>  2 0.31913160E+02</rscale>
<asrwt>0</asrwt>
<pdfrwt beam="1">  1       21 0.39215410E-01 0.31913160E+02</pdfrwt>
<pdfrwt beam="2">  1        3 0.41477257E-02 0.31913160E+02</pdfrwt>
<totfact> 0.74578451E+04</totfact>
</mgrwt>
</event>
<event>
 4    1  0.2245608E+006  0.2183864E+02  0.7546771E-02  0.1711058E+00
          3   -1    0    0  503    0 -0.00000000000E+00  0.00000000000E+00  0.29142806130E+03  0.29142806130E+03  0.00000000000E+00 0. -1.
         21   -1    0    0  501  502  0.00000000000E+00 -0.00000000000E+00 -0.72266266001E+02  0.72266266001E+02  0.00000000000E+00 0.  1.
         21    1    1    2  503  502 -0.20153332999E+02  0.84124503152E+01 -0.70195454573E+02  0.73514134654E+02  0.00000000000E+00 0.  1.
          3    1    1    2  501    0  0.20153332999E+02 -0.84124503152E+01  0.28935724987E+03  0.29018019264E+03  0.00000000000E+00 0. -1.
<mgrwt>
<rscale>  2 0.21838639E+02</rscale>
<asrwt>0</asrwt>
<pdfrwt beam="2">  1       21 0.11117887E-01 0.21838639E+02</pdfrwt>
<pdfrwt beam="1">  1        3 0.44835086E-01 0.21838639E+02</pdfrwt>
<totfact> 0.12871194E+04</totfact>
</mgrwt>
</event>
<event>
 4    1  0.2245608E+006  0.2001081E+02  0.7546771E-02  0.1745113E+00
         -1   -1    0    0    0  501 -0.00000000000E+00  0.00000000000E+00  0.11303439013E+03  0.11303439013E+03  0.00000000000E+00 0.  1.
         21   -1    0    0  501  502  0.00000000000E+00 -0.00000000000E+00 -0.11877693419E+03  0.11877693419E+03  0.00000000000E+00 0.  1.
         21    1    1    2  503  502  0.12272497834E+02 -0.15805642860E+02 -0.11703538235E+03  0.11873379161E+03  0.00000000000E+00 0.  1.
         -1    1    1    2    0  503 -0.12272497834E+02  0.15805642860E+02  0.11129283828E+03  0.11307753270E+03  0.00000000000E+00 0.  1.
<mgrwt>
<rscale>  2 0.20010811E+02</rscale>
<asrwt>0</asrwt>
<pdfrwt beam="2">  1       21 0.18273374E-01 0.20010811E+02</pdfrwt>
<pdfrwt beam="1">  1       -1 0.17389906E-01 0.20010811E+02</pdfrwt>
<totfact> 0.53832335E+04</totfact>
</mgrwt>
</event>
<event>
 4    1  0.2245608E+006  0.4112770E+02  0.7546771E-02  0.1500073E+00
          1   -1    0    0  502    0 -0.00000000000E+00  0.00000000000E+00  0.50674843624E+03  0.50674843624E+03  0.00000000000E+00 0. -1.
         21   -1    0    0  503  502  0.00000000000E+00 -0.00000000000E+00 -0.10019025349E+02  0.10019025349E+02  0.00000000000E+00 0.  1.
         21    1    1    2  503  501 -0.38047412512E+02 -0.15616726446E+02  0.37367618973E+02  0.55568216558E+02  0.00000000000E+00 0.  1.
          1    1    1    2  501    0  0.38047412512E+02  0.15616726446E+02  0.45936179192E+03  0.46119924503E+03  0.00000000000E+00 0. -1.
<mgrwt>
<rscale>  2 0.41127700E+02</rscale>
<asrwt>0</asrwt>
<pdfrwt beam="2">  1       21 0.15413889E-02 0.41127700E+02</pdfrwt>
<pdfrwt beam="1">  1        1 0.77961278E-01 0.41127700E+02</pdfrwt>
<totfact> 0.79452288E+05</totfact>
</mgrwt>
</event>
<event>
 4    1  0.2245608E+006  0.2055871E+02  0.7546771E-02  0.1734440E+00
         -3   -1    0    0    0  501 -0.00000000000E+00  0.00000000000E+00  0.62255638921E+02  0.62255638921E+02  0.00000000000E+00 0. -1.
         21   -1    0    0  503  502  0.00000000000E+00 -0.00000000000E+00 -0.45861104481E+02  0.45861104481E+02  0.00000000000E+00 0. -1.
         21    1    1    2  503  501 -0.15879419559E+02 -0.13057737416E+02 -0.41699623936E+02  0.46492140285E+02  0.00000000000E+00 0. -1.
         -3    1    1    2    0  502  0.15879419559E+02  0.13057737416E+02  0.58094158375E+02  0.61624603117E+02  0.00000000000E+00 0. -1.
<mgrwt>
<rscale>  2 0.20558708E+02</rscale>
<asrwt>0</asrwt>
<pdfrwt beam="2">  1       21 0.70555546E-02 0.20558708E+02</pdfrwt>
<pdfrwt beam="1">  1       -3 0.95777906E-02 0.20558708E+02</pdfrwt>
<totfact> 0.36167753E+05</totfact>
</mgrwt>
</event>
<event>
 4    1  0.2245608E+006  0.2999404E+02  0.7546771E-02  0.1598155E+00
          2   -1    0    0  503    0 -0.00000000000E+00  0.00000000000E+00  0.19948675837E+04  0.19948675837E+04  0.00000000000E+00 0. -1.
         21   -1    0    0  501  502  0.00000000000E+00 -0.00000000000E+00 -0.21237307862E+01  0.21237307862E+01  0.00000000000E+00 0. -1.
         21    1    1    2  503  502  0.71776991371E+01 -0.29122547463E+02  0.11021164303E+03  0.11422017508E+03  0.00000000000E+00 0. -1.
          2    1    1    2  501    0 -0.71776991371E+01  0.29122547463E+02  0.18825322099E+04  0.18827711394E+04  0.00000000000E+00 0. -1.
<mgrwt>
<rscale>  2 0.29994035E+02</rscale>
<asrwt>0</asrwt>
<pdfrwt beam="2">  1       21 0.32672941E-03 0.29994035E+02</pdfrwt>
<pdfrwt beam="1">  1        2 0.30690121E+00 0.29994035E+02</pdfrwt>
<totfact> 0.18210596E+06</totfact>
</mgrwt>
</event>
<event>
 4    1  0.2245608E+006  0.2312181E+02  0.7546771E-02  0.1689543E+00
          2   -1    0    0  503    0 -0.00000000000E+00  0.00000000000E+00  0.11345582937E+04  0.11345582937E+04  0.00000000000E+00 0.  1.
         21   -1    0    0  501  502  0.00000000000E+00 -0.00000000000E+00 -0.65377063026E+00  0.65377063026E+00  0.00000000000E+00 0.  1.
         21    1    1    2  503  502  0.18908014994E+02  0.13308089872E+02  0.26701208695E+03  0.26801132974E+03  0.00000000000E+00 0.  1.
          2    1    1    2  501    0 -0.18908014994E+02 -0.13308089872E+02  0.86689243616E+03  0.86720073464E+03  0.00000000000E+00 0.  1.
<mgrwt>
<rscale>  2 0.23121814E+02</rscale>
<asrwt>0</asrwt>
<pdfrwt beam="2">  1       21 0.10058100E-03 0.23121814E+02</pdfrwt>
<pdfrwt beam="1">  1        2 0.17454585E+00 0.23121814E+02</pdfrwt>
<totfact> 0.24618802E+07</totfact>
</mgrwt>
</event>
<event>
 4    1  0.2245608E+006  0.2113603E+02  0.7546771E-02  0.1723637E+00
         21   -1    0    0  501  502  0.00000000000E+00  0.00000000000E+00  0.11810840496E+02  0.11810840496E+02  0.00000000000E+00 0. -1.
          2   -1    0    0  503    0 -0.00000000000E+00 -0.00000000000E+00 -0.98542643774E+03  0.98542643774E+03  0.00000000000E+00 0. -1.
         21    1    1    2  503  502  0.41604429536E+01 -0.20722508657E+02  0.21479084123E+01  0.21244885529E+02  0.00000000000E+00 0. -1.
          2    1    1    2  501    0 -0.41604429536E+01  0.20722508657E+02 -0.97576350565E+03  0.97599239271E+03  0.00000000000E+00 0. -1.
<mgrwt>
<rscale>  2 0.21136027E+02</rscale>
<asrwt>0</asrwt>
<pdfrwt beam="1">  1       21 0.18170519E-02 0.21136027E+02</pdfrwt>
<pdfrwt beam="2">  1        2 0.15160411E+00 0.21136027E+02</pdfrwt>
<totfact> 0.41186336E+05</totfact>
</mgrwt>
</event>
<event>
 4    1  0.2245608E+006  0.2538444E+02  0.7546771E-02  0.1655541E+00
         21   -1    0    0  501  502  0.00000000000E+00  0.00000000000E+00  0.79178772258E+01  0.79178772258E+01  0.00000000000E+00 0. -1.
          2   -1    0    0  503    0 -0.00000000000E+00 -0.00000000000E+00 -0.59060261003E+03  0.59060261003E+03  0.00000000000E+00 0.  1.
         21    1    1    2  503  502  0.25336865963E+02  0.15533611207E+01 -0.13464157478E+02  0.28734182504E+02  0.00000000000E+00 0. -1.
          2    1    1    2  501    0 -0.25336865963E+02 -0.15533611207E+01 -0.56922057533E+03  0.56978630475E+03  0.00000000000E+00 0.  1.
<mgrwt>
<rscale>  2 0.25384438E+02</rscale>
<asrwt>0</asrwt>
<pdfrwt beam="1">  1       21 0.12181351E-02 0.25384438E+02</pdfrwt>
<pdfrwt beam="2">  1        2 0.90861926E-01 0.25384438E+02</pdfrwt>
<totfact> 0.13851402E+06</totfact>
</mgrwt>
</event>
<event>
 4    1  0.2245608E+006  0.2136704E+02  0.7546771E-02  0.1719434E+00
         21   -1    0    0  503  502  0.00000000000E+00  0.00000000000E+00  0.28793490221E+02  0.28793490221E+02  0.00000000000E+00 0.  1.
          2   -1    0    0  502    0 -0.00000000000E+00 -0.00000000000E+00 -0.45896747481E+03  0.45896747481E+03  0.00000000000E+00 0.  1.
         21    1    1    2  503  501  0.18144649391E+02  0.11283717083E+02  0.24543771542E+02  0.32541470376E+02  0.00000000000E+00 0.  1.
          2    1    1    2  501    0 -0.18144649391E+02 -0.11283717083E+02 -0.45471775613E+03  0.45521949465E+03  0.00000000000E+00 0.  1.
<mgrwt>
<rscale>  2 0.21367044E+02</rscale>
<asrwt>0</asrwt>
<pdfrwt beam="1">  1       21 0.44297680E-02 0.21367044E+02</pdfrwt>
<pdfrwt beam="2">  1        2 0.70610377E-01 0.21367044E+02</pdfrwt>
<totfact> 0.23699987E+05</totfact>
</mgrwt>
</event>
<event>
 4    1  0.2245608E+006  0.2422453E+02  0.7546771E-02  0.1672397E+00
         21   -1    0    0  503  502  0.00000000000E+00  0.00000000000E+00  0.10851292534E+03  0.10851292534E+03  0.00000000000E+00 0.  1.
         -2   -1    0    0    0  501 -0.00000000000E+00 -0.00000000000E+00 -0.12737875773E+02  0.12737875773E+02  0.00000000000E+00 0. -1.
         21    1    1    2  503  501 -0.20539611264E+02  0.12843370470E+02  0.93876865328E+02  0.96952017203E+02  0.00000000000E+00 0.  1.
         -2    1    1    2    0  502  0.20539611264E+02 -0.12843370470E+02  0.18981842341E+01  0.24298783906E+02  0.00000000000E+00 0. -1.
<mgrwt>
<rscale>  2 0.24224529E+02</rscale>
<asrwt>0</asrwt>
<pdfrwt beam="1">  1       21 0.16694296E-01 0.24224529E+02</pdfrwt>
<pdfrwt beam="2">  1       -2 0.19596733E-02 0.24224529E+02</pdfrwt>
<totfact> 0.14031147E+06</totfact>
</mgrwt>
</event>
<event>
 4    1  0.2245608E+006  0.2241317E+02  0.7546771E-02  0.1701203E+00
         21   -1    0    0  503  502  0.00000000000E+00  0.00000000000E+00  0.99122416721E+02  0.99122416721E+02  0.00000000000E+00 0.  1.
          1   -1    0    0  502    0 -0.00000000000E+00 -0.00000000000E+00 -0.97067529079E+01  0.97067529079E+01  0.00000000000E+00 0.  1.
         21    1    1    2  503  501  0.22129027046E+02  0.35575717253E+01  0.82324473270E+02  0.85320976634E+02  0.00000000000E+00 0.  1.
          1    1    1    2  501    0 -0.22129027046E+02 -0.35575717253E+01  0.70911905433E+01  0.23508192995E+02  0.00000000000E+00 0.  1.
<mgrwt>
<rscale>  2 0.22413169E+02</rscale>
<asrwt>0</asrwt>
<pdfrwt beam="1">  1       21 0.15249602E-01 0.22413169E+02</pdfrwt>
<pdfrwt beam="2">  1        1 0.14933467E-02 0.22413169E+02</pdfrwt>
<totfact> 0.24495768E+06</totfact>
</mgrwt>
</event>
<event>
 4    1  0.2245608E+006  0.3599706E+02  0.7546771E-02  0.1539921E+00
         -2   -1    0    0    0  501 -0.00000000000E+00  0.00000000000E+00  0.13226884289E+02  0.13226884289E+02  0.00000000000E+00 0. -1.
         21   -1    0    0  501  502  0.00000000000E+00 -0.00000000000E+00 -0.16080592049E+03  0.16080592049E+03  0.00000000000E+00 0. -1.
         21    1    1    2  503  502 -0.87979064898E+01 -0.34905378032E+02 -0.12818551899E+03  0.13314396665E+03  0.00000000000E+00 0. -1.
         -2    1    1    2    0  503  0.87979064898E+01  0.34905378032E+02 -0.19393517203E+02  0.40888838131E+02  0.00000000000E+00 0. -1.
<mgrwt>
<rscale>  2 0.35997063E+02</rscale>
<asrwt>0</asrwt>
<pdfrwt beam="2">  1       21 0.24739374E-01 0.35997063E+02</pdfrwt>
<pdfrwt beam="1">  1       -2 0.20349052E-02 0.35997063E+02</pdfrwt>
<totfact> 0.72110661E+05</totfact>
</mgrwt>
</event>
<event>
 4    1  0.2245608E+006  0.2147050E+02  0.7546771E-02  0.1717574E+00
         21   -1    0    0  501  502  0.00000000000E+00  0.00000000000E+00  0.13809153041E+02  0.13809153041E+02  0.00000000000E+00 0. -1.
         -3   -1    0    0    0  501 -0.00000000000E+00 -0.00000000000E+00 -0.33441397059E+02  0.33441397059E+02  0.00000000000E+00 0. -1.
         21    1    1    2  503  502 -0.12644137780E+02 -0.17352469906E+02 -0.10808582894E+02  0.24037634996E+02  0.00000000000E+00 0. -1.
         -3    1    1    2    0  503  0.12644137780E+02  0.17352469906E+02 -0.88236611231E+01  0.23212915104E+02  0.00000000000E+00 0. -1.
<mgrwt>
<rscale>  2 0.21470501E+02</rscale>
<asrwt>0</asrwt>
<pdfrwt beam="1">  1       21 0.21244851E-02 0.21470501E+02</pdfrwt>
<pdfrwt beam="2">  1       -3 0.51448303E-02 0.21470501E+02</pdfrwt>
<totfact> 0.62635792E+06</totfact>
</mgrwt>
</event>
<event>
 4    1  0.2245608E+006  0.2798640E+02  0.7546771E-02  0.1621476E+00
          2   -1    0    0  503    0 -0.00000000000E+00  0.00000000000E+00  0.64823799616E+03  0.64823799616E+03  0.00000000000E+00 0.  1.
         21   -1    0    0  501  502  0.00000000000E+00 -0.00000000000E+00 -0.36971567618E+02  0.36971567618E+02  0.00000000000E+00 0. -1.
         21    1    1    2  503  502  0.16432458726E+02 -0.22654206475E+02 -0.31326777345E+02  0.42007210686E+02  0.00000000000E+00 0. -1.
          2    1    1    2  501    0 -0.16432458726E+02  0.22654206475E+02  0.64259320589E+03  0.64320235309E+03  0.00000000000E+00 0.  1.
<mgrwt>
<rscale>  2 0.27986403E+02</rscale>
<asrwt>0</asrwt>
<pdfrwt beam="2">  1       21 0.56879339E-02 0.27986403E+02</pdfrwt>
<pdfrwt beam="1">  1        2 0.99728914E-01 0.27986403E+02</pdfrwt>
<totfact> 0.11485740E+05</totfact>
</mgrwt>
</event>
<event>
 4    1  0.2245608E+006  0.2245393E+02  0.7546771E-02  0.1700518E+00
          4   -1    0    0  503    0 -0.00000000000E+00  0.00000000000E+00  0.10042303599E+03  0.10042303599E+03  0.00000000000E+00 0.  1.
         21   -1    0    0  501  502  0.00000000000E+00 -0.00000000000E+00 -0.59806520738E+01  0.59806520738E+01  0.00000000000E+00 0.  1.
         21    1    1    2  503  502 -0.14838968393E+02  0.16851829739E+02  0.25904956891E+02  0.34281860218E+02  0.00000000000E+00 0.  1.
          4    1    1    2  501    0  0.14838968393E+02 -0.16851829739E+02  0.68537427030E+02  0.72121827850E+02  0.00000000000E+00 0.  1.
<mgrwt>
<rscale>  2 0.22453934E+02</rscale>
<asrwt>0</asrwt>
<pdfrwt beam="2">  1       21 0.92010039E-03 0.22453934E+02</pdfrwt>
<pdfrwt beam="1">  1        4 0.15449697E-01 0.22453934E+02</pdfrwt>
<totfact> 0.32874094E+06</totfact>
</mgrwt>
</event>
<event>
 4    1  0.2245608E+006  0.2115624E+02  0.7546771E-02  0.1723267E+00
         21   -1    0    0  503  502  0.00000000000E+00  0.00000000000E+00  0.13616272670E+03  0.13616272670E+03  0.00000000000E+00 0.  1.
         -3   -1    0    0    0  501 -0.00000000000E+00 -0.00000000000E+00 -0.72175282690E+01  0.72175282690E+01  0.00000000000E+00 0.  1.
         21    1    1    2  503  501 -0.18761829161E+02  0.97765124254E+01  0.11737588386E+03  0.11926728194E+03  0.00000000000E+00 0.  1.
         -3    1    1    2    0  502  0.18761829161E+02 -0.97765124254E+01  0.11569314566E+02  0.24112973027E+02  0.00000000000E+00 0.  1.
<mgrwt>
<rscale>  2 0.21156239E+02</rscale>
<asrwt>0</asrwt>
<pdfrwt beam="1">  1       21 0.20948110E-01 0.21156239E+02</pdfrwt>
<pdfrwt beam="2">  1       -3 0.11103891E-02 0.21156239E+02</pdfrwt>
<totfact> 0.14353659E+06</totfact>
</mgrwt>
</event>
<event>
 4    1  0.2245608E+006  0.2414716E+02  0.7546771E-02  0.1673563E+00
          4   -1    0    0  502    0 -0.00000000000E+00  0.00000000000E+00  0.13983400906E+03  0.13983400906E+03  0.00000000000E+00 0.  1.
         21   -1    0    0  503  502  0.00000000000E+00 -0.00000000000E+00 -0.50170200038E+02  0.50170200038E+02  0.00000000000E+00 0.  1.
         21    1    1    2  503  501 -0.24120595156E+02 -0.11322899437E+01 -0.46136574591E+02  0.52073685352E+02  0.00000000000E+00 0.  1.
          4    1    1    2  501    0  0.24120595156E+02  0.11322899437E+01  0.13580038361E+03  0.13793052375E+03  0.00000000000E+00 0.  1.
<mgrwt>
<rscale>  2 0.24147157E+02</rscale>
<asrwt>0</asrwt>
<pdfrwt beam="2">  1       21 0.77184923E-02 0.24147157E+02</pdfrwt>
<pdfrwt beam="1">  1        4 0.21512924E-01 0.24147157E+02</pdfrwt>
<totfact> 0.70526400E+04</totfact>
</mgrwt>
</event>
<event>
 4    1  0.2245608E+006  0.2436490E+02  0.7546771E-02  0.1670295E+00
          1   -1    0    0  503    0 -0.00000000000E+00  0.00000000000E+00  0.36271184130E+03  0.36271184130E+03  0.00000000000E+00 0.  1.
         21   -1    0    0  501  502  0.00000000000E+00 -0.00000000000E+00 -0.32374215209E+01  0.32374215209E+01  0.00000000000E+00 0. -1.
         21    1    1    2  503  502  0.22477366450E+02  0.94029981547E+01  0.51075318541E+02  0.56589191026E+02  0.00000000000E+00 0. -1.
          1    1    1    2  501    0 -0.22477366450E+02 -0.94029981547E+01  0.30839910124E+03  0.30936007180E+03  0.00000000000E+00 0.  1.
<mgrwt>
<rscale>  2 0.24364901E+02</rscale>
<asrwt>0</asrwt>
<pdfrwt beam="2">  1       21 0.49806513E-03 0.24364901E+02</pdfrwt>
<pdfrwt beam="1">  1        1 0.55801790E-01 0.24364901E+02</pdfrwt>
<totfact> 0.59319111E+06</totfact>
</mgrwt>
</event>
<event>
 4    1  0.2245608E+006  0.5140004E+02  0.7546771E-02  0.1437933E+00
         21   -1    0    0  501  502  0.00000000000E+00  0.00000000000E+00  0.48143014188E+02  0.48143014188E+02  0.00000000000E+00 0. -1.
          2   -1    0    0  503    0 -0.00000000000E+00 -0.00000000000E+00 -0.37623969326E+03  0.37623969326E+03  0.00000000000E+00 0.  1.
         21    1    1    2  503  502  0.24215242336E+02  0.45338570228E+02  0.32058540386E+02  0.60578163750E+02  0.00000000000E+00 0. -1.
          2    1    1    2  501    0 -0.24215242336E+02 -0.45338570228E+02 -0.36015521946E+03  0.36380454370E+03  0.00000000000E+00 0.  1.
<mgrwt>
<rscale>  2 0.51400038E+02</rscale>
<asrwt>0</asrwt>
<pdfrwt beam="1">  1       21 0.74066174E-02 0.51400038E+02</pdfrwt>
<pdfrwt beam="2">  1        2 0.57883031E-01 0.51400038E+02</pdfrwt>
<totfact> 0.13736332E+05</totfact>
</mgrwt>
</event>
<event>
 4    1  0.2245608E+006  0.3302219E+02  0.7546771E-02  0.1566900E+00
         21   -1    0    0  503  502  0.00000000000E+00  0.00000000000E+00  0.43757533847E+02  0.43757533847E+02  0.00000000000E+00 0.  1.
         -1   -1    0    0    0  501 -0.00000000000E+00 -0.00000000000E+00 -0.13554078710E+03  0.13554078710E+03  0.00000000000E+00 0. -1.
         21    1    1    2  503  501 -0.22054830991E+02  0.24577423520E+02  0.35097806735E+02  0.48190469540E+02  0.00000000000E+00 0.  1.
         -1    1    1    2    0  502  0.22054830991E+02 -0.24577423520E+02 -0.12688105999E+03  0.13110785141E+03  0.00000000000E+00 0. -1.
<mgrwt>
<rscale>  2 0.33022194E+02</rscale>
<asrwt>0</asrwt>
<pdfrwt beam="1">  1       21 0.67319282E-02 0.33022194E+02</pdfrwt>
<pdfrwt beam="2">  1       -1 0.20852429E-01 0.33022194E+02</pdfrwt>
<totfact> 0.23277461E+05</totfact>
</mgrwt>
</event>
<event>
 4    1  0.2245608E+006  0.2783590E+02  0.7546771E-02  0.1623320E+00
         21   -1    0    0  501  502  0.00000000000E+00  0.00000000000E+00  0.12128601832E+02  0.12128601832E+02  0.00000000000E+00 0.  1.
         -1   -1    0    0    0  501 -0.00000000000E+00 -0.00000000000E+00 -0.14348048549E+03  0.14348048549E+03  0.00000000000E+00 0. -1.
         21    1    1    2  503  502 -0.59694131083E+01 -0.27188293812E+02 -0.77260773035E+01  0.28888223964E+02  0.00000000000E+00 0.  1.
         -1    1    1    2    0  503  0.59694131083E+01  0.27188293812E+02 -0.12362580636E+03  0.12672086336E+03  0.00000000000E+00 0. -1.
<mgrwt>
<rscale>  2 0.27835898E+02</rscale>
<asrwt>0</asrwt>
<pdfrwt beam="1">  1       21 0.18659388E-02 0.27835898E+02</pdfrwt>
<pdfrwt beam="2">  1       -1 0.22073920E-01 0.27835898E+02</pdfrwt>
<totfact> 0.15802960E+06</totfact>
</mgrwt>
</event>
<event>
 4    1  0.2245608E+006  0.2434941E+02  0.7546771E-02  0.1670526E+00
         21   -1    0    0  503  502  0.00000000000E+00  0.00000000000E+00  0.39590859738E+01  0.39590859738E+01  0.00000000000E+00 0. -1.
          2   -1    0    0  502    0 -0.00000000000E+00 -0.00000000000E+00 -0.91070285073E+03  0.91070285073E+03  0.00000000000E+00 0. -1.
         21    1    1    2  503  501 -0.23246866444E+02  0.72441032404E+01 -0.35330144540E+02  0.42908192043E+02  0.00000000000E+00 0. -1.
          2    1    1    2  501    0  0.23246866444E+02 -0.72441032404E+01 -0.87141362022E+03  0.87175374466E+03  0.00000000000E+00 0. -1.
<mgrwt>
<rscale>  2 0.24349411E+02</rscale>
<asrwt>0</asrwt>
<pdfrwt beam="1">  1       21 0.60908955E-03 0.24349411E+02</pdfrwt>
<pdfrwt beam="2">  1        2 0.14010827E+00 0.24349411E+02</pdfrwt>
<totfact> 0.24026387E+06</totfact>
</mgrwt>
</event>
<event>
 4    1  0.2245608E+006  0.2978653E+02  0.7546771E-02  0.1600460E+00
         -1   -1    0    0    0  501 -0.00000000000E+00  0.00000000000E+00  0.18267684471E+03  0.18267684471E+03  0.00000000000E+00 0. -1.
         21   -1    0    0  501  502  0.00000000000E+00 -0.00000000000E+00 -0.12377319081E+02  0.12377319081E+02  0.00000000000E+00 0. -1.
         21    1    1    2  503  502  0.29599437057E+02 -0.33332776521E+01  0.91287122354E+01  0.31153985316E+02  0.00000000000E+00 0. -1.
         -1    1    1    2    0  503 -0.29599437057E+02  0.33332776521E+01  0.16117081339E+03  0.16390017847E+03  0.00000000000E+00 0. -1.
<mgrwt>
<rscale>  2 0.29786531E+02</rscale>
<asrwt>0</asrwt>
<pdfrwt beam="2">  1       21 0.19042031E-02 0.29786531E+02</pdfrwt>
<pdfrwt beam="1">  1       -1 0.28104128E-01 0.29786531E+02</pdfrwt>
<totfact> 0.10646810E+06</totfact>
</mgrwt>
</event>
<event>
 4    1  0.2245608E+006  0.2082890E+02  0.7546771E-02  0.1729330E+00
         -3   -1    0    0    0  501 -0.00000000000E+00  0.00000000000E+00  0.78895248226E+02  0.78895248226E+02  0.00000000000E+00 0. -1.
         21   -1    0    0  503  502  0.00000000000E+00 -0.00000000000E+00 -0.12884595039E+02  0.12884595039E+02  0.00000000000E+00 0.  1.
         21    1    1    2  503  501 -0.11367110243E+01  0.20797855847E+02 -0.17383232142E+01  0.20901308270E+02  0.00000000000E+00 0.  1.
         -3    1    1    2    0  502  0.11367110243E+01 -0.20797855847E+02  0.67748976400E+02  0.70878534995E+02  0.00000000000E+00 0. -1.
<mgrwt>
<rscale>  2 0.20828896E+02</rscale>
<asrwt>0</asrwt>
<pdfrwt beam="2">  1       21 0.19822455E-02 0.20828896E+02</pdfrwt>
<pdfrwt beam="1">  1       -3 0.12137730E-01 0.20828896E+02</pdfrwt>
<totfact> 0.18284742E+06</totfact>
</mgrwt>
</event>
<event>
 4    1  0.2245608E+006  0.2917254E+02  0.7546771E-02  0.1607419E+00
          2   -1    0    0  503    0 -0.00000000000E+00  0.00000000000E+00  0.56870579790E+03  0.56870579790E+03  0.00000000000E+00 0.  1.
         21   -1    0    0  501  502  0.00000000000E+00 -0.00000000000E+00 -0.15303177749E+01  0.15303177749E+01  0.00000000000E+00 0.  1.
         21    1    1    2  503  502  0.23883546487E+02  0.16751519161E+02  0.24116911338E+03  0.24292710519E+03  0.00000000000E+00 0.  1.
          2    1    1    2  501    0 -0.23883546487E+02 -0.16751519161E+02  0.32600636675E+03  0.32730901049E+03  0.00000000000E+00 0.  1.
<mgrwt>
<rscale>  2 0.29172542E+02</rscale>
<asrwt>0</asrwt>
<pdfrwt beam="2">  1       21 0.23543396E-03 0.29172542E+02</pdfrwt>
<pdfrwt beam="1">  1        2 0.87493031E-01 0.29172542E+02</pdfrwt>
<totfact> 0.17102205E+07</totfact>
</mgrwt>
</event>
<event>
 4    1  0.2245608E+006  0.2158437E+02  0.7546771E-02  0.1715541E+00
         21   -1    0    0  501  502  0.00000000000E+00  0.00000000000E+00  0.25334195707E+02  0.25334195707E+02  0.00000000000E+00 0.  1.
          4   -1    0    0  503    0 -0.00000000000E+00 -0.00000000000E+00 -0.62558577636E+02  0.62558577636E+02  0.00000000000E+00 0. -1.
         21    1    1    2  503  502  0.20329006967E+02  0.72537341092E+01  0.18314340711E+02  0.28307247455E+02  0.00000000000E+00 0.  1.
          4    1    1    2  501    0 -0.20329006967E+02 -0.72537341092E+01 -0.55538722641E+02  0.59585525888E+02  0.00000000000E+00 0. -1.
<mgrwt>
<rscale>  2 0.21584374E+02</rscale>
<asrwt>0</asrwt>
<pdfrwt beam="1">  1       21 0.38975686E-02 0.21584374E+02</pdfrwt>
<pdfrwt beam="2">  1        4 0.96243964E-02 0.21584374E+02</pdfrwt>
<totfact> 0.76757409E+05</totfact>
</mgrwt>
</event>
<event>
 4    1  0.2245608E+006  0.5112307E+02  0.7546771E-02  0.1439376E+00
          2   -1    0    0  502    0 -0.00000000000E+00  0.00000000000E+00  0.20912885031E+04  0.20912885031E+04  0.00000000000E+00 0.  1.
         21   -1    0    0  503  502  0.00000000000E+00 -0.00000000000E+00 -0.58248695892E+01  0.58248695892E+01  0.00000000000E+00 0. -1.
         21    1    1    2  503  501  0.47942651264E+02  0.17750219886E+02  0.11344348772E+03  0.12443067557E+03  0.00000000000E+00 0. -1.
          2    1    1    2  501    0 -0.47942651264E+02 -0.17750219886E+02  0.19720201458E+04  0.19726826971E+04  0.00000000000E+00 0.  1.
<mgrwt>
<rscale>  2 0.51123068E+02</rscale>
<asrwt>0</asrwt>
<pdfrwt beam="2">  1       21 0.89613545E-03 0.51123068E+02</pdfrwt>
<pdfrwt beam="1">  1        2 0.32173610E+00 0.51123068E+02</pdfrwt>
<totfact> 0.37540437E+05</totfact>
</mgrwt>
</event>
<event>
 4    1  0.2245608E+006  0.2212251E+02  0.7546771E-02  0.1706142E+00
         -3   -1    0    0    0  501 -0.00000000000E+00  0.00000000000E+00  0.16331786998E+02  0.16331786998E+02  0.00000000000E+00 0.  1.
         21   -1    0    0  503  502  0.00000000000E+00 -0.00000000000E+00 -0.59092058213E+02  0.59092058213E+02  0.00000000000E+00 0.  1.
         21    1    1    2  503  501  0.18381835693E+02  0.12309079134E+02 -0.47856099739E+02  0.52722021915E+02  0.00000000000E+00 0.  1.
         -3    1    1    2    0  502 -0.18381835693E+02 -0.12309079134E+02  0.50958285247E+01  0.22701823296E+02  0.00000000000E+00 0.  1.
<mgrwt>
<rscale>  2 0.22122507E+02</rscale>
<asrwt>0</asrwt>
<pdfrwt beam="2">  1       21 0.90910859E-02 0.22122507E+02</pdfrwt>
<pdfrwt beam="1">  1       -3 0.25125826E-02 0.22122507E+02</pdfrwt>
<totfact> 0.18388698E+06</totfact>
</mgrwt>
</event>
<event>
 4    1  0.2245608E+006  0.2277465E+02  0.7546771E-02  0.1695189E+00
         -1   -1    0    0    0  501 -0.00000000000E+00  0.00000000000E+00  0.12046372305E+04  0.12046372305E+04  0.00000000000E+00 0. -1.
         21   -1    0    0  501  502  0.00000000000E+00 -0.00000000000E+00 -0.13835958745E+02  0.13835958745E+02  0.00000000000E+00 0.  1.
         21    1    1    2  503  502  0.22734039803E+02 -0.13594476163E+01 -0.42813528620E+01  0.23173576459E+02  0.00000000000E+00 0.  1.
         -1    1    1    2    0  503 -0.22734039803E+02  0.13594476163E+01  0.11950826246E+04  0.11952996128E+04  0.00000000000E+00 0. -1.
<mgrwt>
<rscale>  2 0.22774650E+02</rscale>
<asrwt>0</asrwt>
<pdfrwt beam="2">  1       21 0.21286100E-02 0.22774650E+02</pdfrwt>
<pdfrwt beam="1">  1       -1 0.18532872E+00 0.22774650E+02</pdfrwt>
<totfact> 0.20475909E+04</totfact>
</mgrwt>
</event>
<event>
 4    1  0.2245608E+006  0.2344301E+02  0.7546771E-02  0.1684428E+00
          2   -1    0    0  502    0 -0.00000000000E+00  0.00000000000E+00  0.13114830448E+03  0.13114830448E+03  0.00000000000E+00 0. -1.
         21   -1    0    0  503  502  0.00000000000E+00 -0.00000000000E+00 -0.41563945626E+02  0.41563945626E+02  0.00000000000E+00 0.  1.
         21    1    1    2  503  501 -0.23202646718E+02 -0.33483931014E+01 -0.37095099383E+02  0.43881897741E+02  0.00000000000E+00 0.  1.
          2    1    1    2  501    0  0.23202646718E+02  0.33483931014E+01  0.12667945823E+03  0.12883035236E+03  0.00000000000E+00 0. -1.
<mgrwt>
<rscale>  2 0.23443006E+02</rscale>
<asrwt>0</asrwt>
<pdfrwt beam="2">  1       21 0.63944532E-02 0.23443006E+02</pdfrwt>
<pdfrwt beam="1">  1        2 0.20176662E-01 0.23443006E+02</pdfrwt>
<totfact> 0.47090775E+05</totfact>
</mgrwt>
</event>
<event>
 4    1  0.2245608E+006  0.2586739E+02  0.7546771E-02  0.1648847E+00
         -2   -1    0    0    0  501 -0.00000000000E+00  0.00000000000E+00  0.10652174440E+03  0.10652174440E+03  0.00000000000E+00 0.  1.
         21   -1    0    0  503  502  0.00000000000E+00 -0.00000000000E+00 -0.31496949426E+02  0.31496949426E+02  0.00000000000E+00 0. -1.
         21    1    1    2  503  501 -0.25675752275E+02 -0.31428902467E+01 -0.24233281185E+02  0.35445365437E+02  0.00000000000E+00 0. -1.
         -2    1    1    2    0  502  0.25675752275E+02  0.31428902467E+01  0.99258076158E+02  0.10257332839E+03  0.00000000000E+00 0.  1.
<mgrwt>
<rscale>  2 0.25867393E+02</rscale>
<asrwt>0</asrwt>
<pdfrwt beam="2">  1       21 0.48456846E-02 0.25867393E+02</pdfrwt>
<pdfrwt beam="1">  1       -2 0.16387960E-01 0.25867393E+02</pdfrwt>
<totfact> 0.50758157E+05</totfact>
</mgrwt>
</event>
<event>
 4    1  0.2245608E+006  0.2272282E+02  0.7546771E-02  0.1696043E+00
          1   -1    0    0  503    0 -0.00000000000E+00  0.00000000000E+00  0.55823638783E+03  0.55823638783E+03  0.00000000000E+00 0. -1.
         21   -1    0    0  501  502  0.00000000000E+00 -0.00000000000E+00 -0.49286189432E+01  0.49286189432E+01  0.00000000000E+00 0.  1.
         21    1    1    2  503  502 -0.98538295202E+01  0.20475068599E+02  0.22864460973E+02  0.32235228647E+02  0.00000000000E+00 0.  1.
          1    1    1    2  501    0  0.98538295202E+01 -0.20475068599E+02  0.53044330792E+03  0.53092977813E+03  0.00000000000E+00 0. -1.
<mgrwt>
<rscale>  2 0.22722817E+02</rscale>
<asrwt>0</asrwt>
<pdfrwt beam="2">  1       21 0.75824951E-03 0.22722817E+02</pdfrwt>
<pdfrwt beam="1">  1        1 0.85882471E-01 0.22722817E+02</pdfrwt>
<totfact> 0.18721037E+06</totfact>
</mgrwt>
</event>
<event>
 4    1  0.2245608E+006  0.2126481E+02  0.7546771E-02  0.1721286E+00
         -4   -1    0    0    0  501 -0.00000000000E+00  0.00000000000E+00  0.47014011093E+01  0.47014011093E+01  0.00000000000E+00 0.  1.
         21   -1    0    0  503  502  0.00000000000E+00 -0.00000000000E+00 -0.97034481203E+02  0.97034481203E+02  0.00000000000E+00 0.  1.
         21    1    1    2  503  501 -0.10361501177E+02 -0.18569633248E+02 -0.50933315221E+02  0.55194153540E+02  0.00000000000E+00 0.  1.
         -4    1    1    2    0  502  0.10361501177E+02  0.18569633248E+02 -0.41399764872E+02  0.46541728772E+02  0.00000000000E+00 0.  1.
<mgrwt>
<rscale>  2 0.21264806E+02</rscale>
<asrwt>0</asrwt>
<pdfrwt beam="2">  1       21 0.14928381E-01 0.21264806E+02</pdfrwt>
<pdfrwt beam="1">  1       -4 0.72329249E-03 0.21264806E+02</pdfrwt>
<totfact> 0.40939109E+06</totfact>
</mgrwt>
</event>
<event>
 4    1  0.2245608E+006  0.2227755E+02  0.7546771E-02  0.1703496E+00
         21   -1    0    0  501  502  0.00000000000E+00  0.00000000000E+00  0.12910384291E+01  0.12910384291E+01  0.00000000000E+00 0. -1.
          2   -1    0    0  503    0 -0.00000000000E+00 -0.00000000000E+00 -0.16399007426E+04  0.16399007426E+04  0.00000000000E+00 0. -1.
         21    1    1    2  503  502  0.21887041126E+02  0.41528860871E+01 -0.10130031820E+03  0.10372098871E+03  0.00000000000E+00 0. -1.
          2    1    1    2  501    0 -0.21887041126E+02 -0.41528860871E+01 -0.15373093860E+04  0.15374707924E+04  0.00000000000E+00 0. -1.
<mgrwt>
<rscale>  2 0.22277545E+02</rscale>
<asrwt>0</asrwt>
<pdfrwt beam="1">  1       21 0.19862196E-03 0.22277545E+02</pdfrwt>
<pdfrwt beam="2">  1        2 0.25229158E+00 0.22277545E+02</pdfrwt>
<totfact> 0.52524611E+06</totfact>
</mgrwt>
</event>
<event>
 4    1  0.2245608E+006  0.2030911E+02  0.7546771E-02  0.1739250E+00
         21   -1    0    0  503  502  0.00000000000E+00  0.00000000000E+00  0.41074764484E+01  0.41074764484E+01  0.00000000000E+00 0. -1.
          3   -1    0    0  502    0 -0.00000000000E+00 -0.00000000000E+00 -0.39023802500E+03  0.39023802500E+03  0.00000000000E+00 0. -1.
         21    1    1    2  503  501  0.45022837162E+01 -0.19803767352E+02 -0.23144227456E+02  0.30791476491E+02  0.00000000000E+00 0. -1.
          3    1    1    2  501    0 -0.45022837162E+01  0.19803767352E+02 -0.36298632109E+03  0.36355402496E+03  0.00000000000E+00 0. -1.
<mgrwt>
<rscale>  2 0.20309105E+02</rscale>
<asrwt>0</asrwt>
<pdfrwt beam="1">  1       21 0.63191943E-03 0.20309105E+02</pdfrwt>
<pdfrwt beam="2">  1        3 0.60036622E-01 0.20309105E+02</pdfrwt>
<totfact> 0.61979136E+05</totfact>
</mgrwt>
</event>
<event>
 4    1  0.2245608E+006  0.2777442E+02  0.7546771E-02  0.1624078E+00
          2   -1    0    0  502    0 -0.00000000000E+00  0.00000000000E+00  0.65148645509E+03  0.65148645509E+03  0.00000000000E+00 0.  1.
         21   -1    0    0  503  502  0.00000000000E+00 -0.00000000000E+00 -0.42821375124E+01  0.42821375124E+01  0.00000000000E+00 0.  1.
         21    1    1    2  503  501 -0.27688419443E+02  0.21839346603E+01  0.44711223918E+02  0.52635650334E+02  0.00000000000E+00 0.  1.
          2    1    1    2  501    0  0.27688419443E+02 -0.21839346603E+01  0.60249309366E+03  0.60313294227E+03  0.00000000000E+00 0.  1.
<mgrwt>
<rscale>  2 0.27774415E+02</rscale>
<asrwt>0</asrwt>
<pdfrwt beam="2">  1       21 0.65879090E-03 0.27774415E+02</pdfrwt>
<pdfrwt beam="1">  1        2 0.10022861E+00 0.27774415E+02</pdfrwt>
<totfact> 0.32035060E+06</totfact>
</mgrwt>
</event>
<event>
 4    1  0.2245608E+006  0.2747967E+02  0.7546771E-02  0.1627744E+00
         21   -1    0    0  501  502  0.00000000000E+00  0.00000000000E+00  0.11610822813E+02  0.11610822813E+02  0.00000000000E+00 0.  1.
          3   -1    0    0  503    0 -0.00000000000E+00 -0.00000000000E+00 -0.98201848621E+02  0.98201848621E+02  0.00000000000E+00 0.  1.
         21    1    1    2  503  502  0.23186262691E+02 -0.14748879126E+02 -0.11387325805E+02  0.29745645094E+02  0.00000000000E+00 0.  1.
          3    1    1    2  501    0 -0.23186262691E+02  0.14748879126E+02 -0.75203700002E+02  0.80067026341E+02  0.00000000000E+00 0.  1.
<mgrwt>
<rscale>  2 0.27479669E+02</rscale>
<asrwt>0</asrwt>
<pdfrwt beam="1">  1       21 0.17862804E-02 0.27479669E+02</pdfrwt>
<pdfrwt beam="2">  1        3 0.15107977E-01 0.27479669E+02</pdfrwt>
<totfact> 0.16694743E+06</totfact>
</mgrwt>
</event>
<event>
 4    1  0.2245608E+006  0.2805644E+02  0.7546771E-02  0.1620622E+00
         -3   -1    0    0    0  501 -0.00000000000E+00  0.00000000000E+00  0.60420008033E+01  0.60420008033E+01  0.00000000000E+00 0. -1.
         21   -1    0    0  503  502  0.00000000000E+00 -0.00000000000E+00 -0.15108613601E+03  0.15108613601E+03  0.00000000000E+00 0.  1.
         21    1    1    2  503  501  0.26613536559E+02 -0.88816536490E+01 -0.10167526808E+03  0.10547523045E+03  0.00000000000E+00 0.  1.
         -3    1    1    2    0  502 -0.26613536559E+02  0.88816536490E+01 -0.43368867124E+02  0.51652906359E+02  0.00000000000E+00 0. -1.
<mgrwt>
<rscale>  2 0.28056445E+02</rscale>
<asrwt>0</asrwt>
<pdfrwt beam="2">  1       21 0.23244023E-01 0.28056445E+02</pdfrwt>
<pdfrwt beam="1">  1       -3 0.92953849E-03 0.28056445E+02</pdfrwt>
<totfact> 0.16958327E+06</totfact>
</mgrwt>
</event>
<event>
 4    1  0.2245608E+006  0.4697769E+02  0.7546771E-02  0.1462360E+00
         21   -1    0    0  503  502  0.00000000000E+00  0.00000000000E+00  0.27332429454E+02  0.27332429454E+02  0.00000000000E+00 0.  1.
          2   -1    0    0  502    0 -0.00000000000E+00 -0.00000000000E+00 -0.22591034549E+03  0.22591034549E+03  0.00000000000E+00 0. -1.
         21    1    1    2  503  501  0.27052969687E+02  0.38406257621E+02  0.22127608912E+01  0.47029778908E+02  0.00000000000E+00 0.  1.
          2    1    1    2  501    0 -0.27052969687E+02 -0.38406257621E+02 -0.20079067693E+03  0.20621299604E+03  0.00000000000E+00 0. -1.
<mgrwt>
<rscale>  2 0.46977695E+02</rscale>
<asrwt>0</asrwt>
<pdfrwt beam="1">  1       21 0.42049891E-02 0.46977695E+02</pdfrwt>
<pdfrwt beam="2">  1        2 0.34755438E-01 0.46977695E+02</pdfrwt>
<totfact> 0.58231454E+05</totfact>
</mgrwt>
</event>
<event>
 4    1  0.2245608E+006  0.3365335E+02  0.7546771E-02  0.1560895E+00
          1   -1    0    0  503    0 -0.00000000000E+00  0.00000000000E+00  0.43017474899E+02  0.43017474899E+02  0.00000000000E+00 0.  1.
         21   -1    0    0  501  502  0.00000000000E+00 -0.00000000000E+00 -0.34836129954E+02  0.34836129954E+02  0.00000000000E+00 0.  1.
         21    1    1    2  503  502 -0.98234950401E+01  0.32187681062E+02 -0.15147351241E+02  0.36905150271E+02  0.00000000000E+00 0.  1.
          1    1    1    2  501    0  0.98234950401E+01 -0.32187681062E+02  0.23328696185E+02  0.40948454582E+02  0.00000000000E+00 0.  1.
<mgrwt>
<rscale>  2 0.33653349E+02</rscale>
<asrwt>0</asrwt>
<pdfrwt beam="2">  1       21 0.53594046E-02 0.33653349E+02</pdfrwt>
<pdfrwt beam="1">  1        1 0.66180731E-02 0.33653349E+02</pdfrwt>
<totfact> 0.21782068E+06</totfact>
</mgrwt>
</event>
<event>
 4    1  0.2245608E+006  0.3465954E+02  0.7546771E-02  0.1551645E+00
         21   -1    0    0  503  502  0.00000000000E+00  0.00000000000E+00  0.65917820651E+02  0.65917820651E+02  0.00000000000E+00 0. -1.
          2   -1    0    0  502    0 -0.00000000000E+00 -0.00000000000E+00 -0.64745122281E+02  0.64745122281E+02  0.00000000000E+00 0.  1.
         21    1    1    2  503  501 -0.34652770481E+02 -0.68490022710E+00  0.55965233265E+02  0.65828496297E+02  0.00000000000E+00 0. -1.
          2    1    1    2  501    0  0.34652770481E+02  0.68490022710E+00 -0.54792534895E+02  0.64834446635E+02  0.00000000000E+00 0.  1.
<mgrwt>
<rscale>  2 0.34659538E+02</rscale>
<asrwt>0</asrwt>
<pdfrwt beam="1">  1       21 0.10141203E-01 0.34659538E+02</pdfrwt>
<pdfrwt beam="2">  1        2 0.99607880E-02 0.34659538E+02</pdfrwt>
<totfact> 0.51538185E+05</totfact>
</mgrwt>
</event>
<event>
 4    1  0.2245608E+006  0.2140752E+02  0.7546771E-02  0.1718705E+00
         21   -1    0    0  501  502  0.00000000000E+00  0.00000000000E+00  0.35465763785E+01  0.35465763785E+01  0.00000000000E+00 0. -1.
         -2   -1    0    0    0  501 -0.00000000000E+00 -0.00000000000E+00 -0.13031207291E+03  0.13031207291E+03  0.00000000000E+00 0. -1.
         21    1    1    2  503  502 -0.16269778399E+02  0.13913174692E+02 -0.69514900928E+02  0.72736535319E+02  0.00000000000E+00 0. -1.
         -2    1    1    2    0  503  0.16269778399E+02 -0.13913174692E+02 -0.57250595605E+02  0.61122113971E+02  0.00000000000E+00 0. -1.
<mgrwt>
<rscale>  2 0.21407525E+02</rscale>
<asrwt>0</asrwt>
<pdfrwt beam="1">  1       21 0.54562721E-03 0.21407525E+02</pdfrwt>
<pdfrwt beam="2">  1       -2 0.20048008E-01 0.21407525E+02</pdfrwt>
<totfact> 0.98676036E+06</totfact>
</mgrwt>
</event>
<event>
 4    1  0.2245608E+006  0.2396470E+02  0.7546771E-02  0.1676333E+00
         -4   -1    0    0    0  501 -0.00000000000E+00  0.00000000000E+00  0.16001437101E+03  0.16001437101E+03  0.00000000000E+00 0.  1.
         21   -1    0    0  501  502  0.00000000000E+00 -0.00000000000E+00 -0.29412880934E+02  0.29412880934E+02  0.00000000000E+00 0.  1.
         21    1    1    2  503  502 -0.83731605494E+01 -0.22454333786E+02 -0.23446244460E+02  0.33526605892E+02  0.00000000000E+00 0.  1.
         -4    1    1    2    0  503  0.83731605494E+01  0.22454333786E+02  0.15404773454E+03  0.15590064605E+03  0.00000000000E+00 0.  1.
<mgrwt>
<rscale>  2 0.23964702E+02</rscale>
<asrwt>0</asrwt>
<pdfrwt beam="2">  1       21 0.45250587E-02 0.23964702E+02</pdfrwt>
<pdfrwt beam="1">  1       -4 0.24617595E-01 0.23964702E+02</pdfrwt>
<totfact> 0.13120449E+05</totfact>
</mgrwt>
</event>
<event>
 4    1  0.2245608E+006  0.3233696E+02  0.7546771E-02  0.1573606E+00
         21   -1    0    0  503  502  0.00000000000E+00  0.00000000000E+00  0.16181916730E+02  0.16181916730E+02  0.00000000000E+00 0.  1.
          1   -1    0    0  502    0 -0.00000000000E+00 -0.00000000000E+00 -0.20806249359E+03  0.20806249359E+03  0.00000000000E+00 0.  1.
         21    1    1    2  503  501 -0.31750632361E+02  0.61299492164E+01 -0.28437958274E+01  0.32461763776E+02  0.00000000000E+00 0.  1.
          1    1    1    2  501    0  0.31750632361E+02 -0.61299492164E+01 -0.18903678104E+03  0.19178264655E+03  0.00000000000E+00 0.  1.
<mgrwt>
<rscale>  2 0.32336959E+02</rscale>
<asrwt>0</asrwt>
<pdfrwt beam="1">  1       21 0.24895258E-02 0.32336959E+02</pdfrwt>
<pdfrwt beam="2">  1        1 0.32009612E-01 0.32336959E+02</pdfrwt>
<totfact> 0.10466611E+06</totfact>
</mgrwt>
</event>
<event>
 4    1  0.2245608E+006  0.2810323E+02  0.7546771E-02  0.1620054E+00
          1   -1    0    0  503    0 -0.00000000000E+00  0.00000000000E+00  0.37251466332E+03  0.37251466332E+03  0.00000000000E+00 0. -1.
         21   -1    0    0  501  502  0.00000000000E+00 -0.00000000000E+00 -0.83968925411E+01  0.83968925411E+01  0.00000000000E+00 0. -1.
         21    1    1    2  503  502 -0.61522137738E+01  0.27421555040E+02  0.17393771438E+02  0.33050487136E+02  0.00000000000E+00 0. -1.
          1    1    1    2  501    0  0.61522137738E+01 -0.27421555040E+02  0.34672399935E+03  0.34786106873E+03  0.00000000000E+00 0. -1.
<mgrwt>
<rscale>  2 0.28103228E+02</rscale>
<asrwt>0</asrwt>
<pdfrwt beam="2">  1       21 0.12918299E-02 0.28103228E+02</pdfrwt>
<pdfrwt beam="1">  1        1 0.57309935E-01 0.28103228E+02</pdfrwt>
<totfact> 0.14206328E+06</totfact>
</mgrwt>
</event>
<event>
 4    1  0.2245608E+006  0.2317164E+02  0.7546771E-02  0.1688743E+00
         21   -1    0    0  501  502  0.00000000000E+00  0.00000000000E+00  0.78761552094E+00  0.78761552094E+00  0.00000000000E+00 0.  1.
          2   -1    0    0  503    0 -0.00000000000E+00 -0.00000000000E+00 -0.68484614201E+03  0.68484614201E+03  0.00000000000E+00 0. -1.
         21    1    1    2  503  502  0.13250117712E+02  0.19009447004E+02 -0.31882736603E+03  0.31966828749E+03  0.00000000000E+00 0.  1.
          2    1    1    2  501    0 -0.13250117712E+02 -0.19009447004E+02 -0.36523116046E+03  0.36596547004E+03  0.00000000000E+00 0. -1.
<mgrwt>
<rscale>  2 0.23171636E+02</rscale>
<asrwt>0</asrwt>
<pdfrwt beam="1">  1       21 0.12117129E-03 0.23171636E+02</pdfrwt>
<pdfrwt beam="2">  1        2 0.10536123E+00 0.23171636E+02</pdfrwt>
<totfact> 0.34395144E+07</totfact>
</mgrwt>
</event>
<event>
 4    1  0.2245608E+006  0.2893758E+02  0.7546771E-02  0.1610138E+00
         21   -1    0    0  501  502  0.00000000000E+00  0.00000000000E+00  0.32263756724E+02  0.32263756724E+02  0.00000000000E+00 0.  1.
          4   -1    0    0  503    0 -0.00000000000E+00 -0.00000000000E+00 -0.27726939259E+02  0.27726939259E+02  0.00000000000E+00 0.  1.
         21    1    1    2  503  502 -0.27024188581E+02  0.10347796731E+02  0.98526376570E+01  0.30568907969E+02  0.00000000000E+00 0.  1.
          4    1    1    2  501    0  0.27024188581E+02 -0.10347796731E+02 -0.53158201913E+01  0.29421788014E+02  0.00000000000E+00 0.  1.
<mgrwt>
<rscale>  2 0.28937582E+02</rscale>
<asrwt>0</asrwt>
<pdfrwt beam="1">  1       21 0.49636549E-02 0.28937582E+02</pdfrwt>
<pdfrwt beam="2">  1        4 0.42656830E-02 0.28937582E+02</pdfrwt>
<totfact> 0.21029657E+06</totfact>
</mgrwt>
</event>
<event>
 4    1  0.2245608E+006  0.2291064E+02  0.7546771E-02  0.1692963E+00
          1   -1    0    0  503    0 -0.00000000000E+00  0.00000000000E+00  0.49643858249E+03  0.49643858249E+03  0.00000000000E+00 0. -1.
         21   -1    0    0  501  502  0.00000000000E+00 -0.00000000000E+00 -0.11152360403E+01  0.11152360403E+01  0.00000000000E+00 0. -1.
         21    1    1    2  503  502  0.15644631773E+02  0.16737474369E+02  0.19097217473E+03  0.19234154277E+03  0.00000000000E+00 0. -1.
          1    1    1    2  501    0 -0.15644631773E+02 -0.16737474369E+02  0.30435117171E+03  0.30521227576E+03  0.00000000000E+00 0. -1.
<mgrwt>
<rscale>  2 0.22910643E+02</rscale>
<asrwt>0</asrwt>
<pdfrwt beam="2">  1       21 0.17157517E-03 0.22910643E+02</pdfrwt>
<pdfrwt beam="1">  1        1 0.76374990E-01 0.22910643E+02</pdfrwt>
<totfact> 0.19040553E+07</totfact>
</mgrwt>
</event>
<event>
 4    1  0.2245608E+006  0.2879438E+02  0.7546771E-02  0.1611811E+00
          3   -1    0    0  502    0 -0.00000000000E+00  0.00000000000E+00  0.51115428324E+03  0.51115428324E+03  0.00000000000E+00 0. -1.
         21   -1    0    0  503  502  0.00000000000E+00 -0.00000000000E+00 -0.30845008990E+01  0.30845008990E+01  0.00000000000E+00 0. -1.
         21    1    1    2  503  501  0.23321708506E+02 -0.16888278436E+02  0.76989941491E+02  0.82198340172E+02  0.00000000000E+00 0. -1.
          3    1    1    2  501    0 -0.23321708506E+02  0.16888278436E+02  0.43107984084E+03  0.43204044396E+03  0.00000000000E+00 0. -1.
<mgrwt>
<rscale>  2 0.28794375E+02</rscale>
<asrwt>0</asrwt>
<pdfrwt beam="2">  1       21 0.47453901E-03 0.28794375E+02</pdfrwt>
<pdfrwt beam="1">  1        3 0.78639053E-01 0.28794375E+02</pdfrwt>
<totfact> 0.61861452E+05</totfact>
</mgrwt>
</event>
<event>
 4    1  0.2245608E+006  0.2117111E+02  0.7546771E-02  0.1722994E+00
         -1   -1    0    0    0  501 -0.00000000000E+00  0.00000000000E+00  0.45547534554E+03  0.45547534554E+03  0.00000000000E+00 0. -1.
         21   -1    0    0  501  502  0.00000000000E+00 -0.00000000000E+00 -0.10383238473E+01  0.10383238473E+01  0.00000000000E+00 0. -1.
         21    1    1    2  503  502  0.19741517104E+02 -0.76477581874E+01  0.17503814807E+03  0.17631383662E+03  0.00000000000E+00 0. -1.
         -1    1    1    2    0  503 -0.19741517104E+02  0.76477581874E+01  0.27939887362E+03  0.28019983277E+03  0.00000000000E+00 0. -1.
<mgrwt>
<rscale>  2 0.21171105E+02</rscale>
<asrwt>0</asrwt>
<pdfrwt beam="2">  1       21 0.15974249E-03 0.21171105E+02</pdfrwt>
<pdfrwt beam="1">  1       -1 0.70072970E-01 0.21171105E+02</pdfrwt>
<totfact> 0.81292351E+06</totfact>
</mgrwt>
</event>
<event>
 4    1  0.2245608E+006  0.2697109E+02  0.7546771E-02  0.1634204E+00
         21   -1    0    0  501  502  0.00000000000E+00  0.00000000000E+00  0.14670344151E+01  0.14670344151E+01  0.00000000000E+00 0.  1.
          1   -1    0    0  503    0 -0.00000000000E+00 -0.00000000000E+00 -0.66165026728E+03  0.66165026728E+03  0.00000000000E+00 0. -1.
         21    1    1    2  503  502 -0.22847834236E+02 -0.14332346015E+02 -0.16412176061E+03  0.16632315527E+03  0.00000000000E+00 0.  1.
          1    1    1    2  501    0  0.22847834236E+02  0.14332346015E+02 -0.49606147225E+03  0.49679414643E+03  0.00000000000E+00 0. -1.
<mgrwt>
<rscale>  2 0.26971090E+02</rscale>
<asrwt>0</asrwt>
<pdfrwt beam="1">  1       21 0.22569783E-03 0.26971090E+02</pdfrwt>
<pdfrwt beam="2">  1        1 0.10179225E+00 0.26971090E+02</pdfrwt>
<totfact> 0.93455939E+06</totfact>
</mgrwt>
</event>
<event>
 4    1  0.2245608E+006  0.2191335E+02  0.7546771E-02  0.1709755E+00
          1   -1    0    0  502    0 -0.00000000000E+00  0.00000000000E+00  0.80557586213E+02  0.80557586213E+02  0.00000000000E+00 0.  1.
         21   -1    0    0  503  502  0.00000000000E+00 -0.00000000000E+00 -0.23231376648E+03  0.23231376648E+03  0.00000000000E+00 0. -1.
         21    1    1    2  503  501 -0.62028514317E+01  0.21017127130E+02 -0.23029374907E+03  0.23133397039E+03  0.00000000000E+00 0. -1.
          1    1    1    2  501    0  0.62028514317E+01 -0.21017127130E+02  0.78537568802E+02  0.81537382298E+02  0.00000000000E+00 0.  1.
<mgrwt>
<rscale>  2 0.21913352E+02</rscale>
<asrwt>0</asrwt>
<pdfrwt beam="2">  1       21 0.35740580E-01 0.21913352E+02</pdfrwt>
<pdfrwt beam="1">  1        1 0.12393475E-01 0.21913352E+02</pdfrwt>
<totfact> 0.35868199E+04</totfact>
</mgrwt>
</event>
<event>
 4    1  0.2245608E+006  0.2747138E+02  0.7546771E-02  0.1627848E+00
         -4   -1    0    0    0  501 -0.00000000000E+00  0.00000000000E+00  0.91341335971E+02  0.91341335971E+02  0.00000000000E+00 0. -1.
         21   -1    0    0  503  502  0.00000000000E+00 -0.00000000000E+00 -0.10334287732E+02  0.10334287732E+02  0.00000000000E+00 0. -1.
         21    1    1    2  503  501  0.19681855663E+02 -0.19165108362E+02  0.17739201336E+02  0.32701010456E+02  0.00000000000E+00 0. -1.
         -4    1    1    2    0  502 -0.19681855663E+02  0.19165108362E+02  0.63267846903E+02  0.68974613247E+02  0.00000000000E+00 0. -1.
<mgrwt>
<rscale>  2 0.27471382E+02</rscale>
<asrwt>0</asrwt>
<pdfrwt beam="2">  1       21 0.15898905E-02 0.27471382E+02</pdfrwt>
<pdfrwt beam="1">  1       -4 0.14052513E-01 0.27471382E+02</pdfrwt>
<totfact> 0.18378012E+06</totfact>
</mgrwt>
</event>
<event>
 4    1  0.2245608E+006  0.2056808E+02  0.7546771E-02  0.1734262E+00
         21   -1    0    0  501  502  0.00000000000E+00  0.00000000000E+00  0.15260665334E+02  0.15260665334E+02  0.00000000000E+00 0.  1.
         -2   -1    0    0    0  501 -0.00000000000E+00 -0.00000000000E+00 -0.71582304211E+02  0.71582304211E+02  0.00000000000E+00 0. -1.
         21    1    1    2  503  502 -0.56094291177E+01  0.19788382281E+02  0.58283870162E+01  0.21377929356E+02  0.00000000000E+00 0.  1.
         -2    1    1    2    0  503  0.56094291177E+01 -0.19788382281E+02 -0.62150025894E+02  0.65465040189E+02  0.00000000000E+00 0. -1.
<mgrwt>
<rscale>  2 0.20568076E+02</rscale>
<asrwt>0</asrwt>
<pdfrwt beam="1">  1       21 0.23477947E-02 0.20568076E+02</pdfrwt>
<pdfrwt beam="2">  1       -2 0.11012662E-01 0.20568076E+02</pdfrwt>
<totfact> 0.27464277E+06</totfact>
</mgrwt>
</event>
<event>
 4    1  0.2245608E+006  0.2220214E+02  0.7546771E-02  0.1704779E+00
          2   -1    0    0  502    0 -0.00000000000E+00  0.00000000000E+00  0.44388926923E+03  0.44388926923E+03  0.00000000000E+00 0. -1.
         21   -1    0    0  503  502  0.00000000000E+00 -0.00000000000E+00 -0.88689071813E+01  0.88689071813E+01  0.00000000000E+00 0. -1.
         21    1    1    2  503  501  0.16224970596E+02  0.15155374757E+02  0.57775536219E+01  0.22941560119E+02  0.00000000000E+00 0. -1.
          2    1    1    2  501    0 -0.16224970596E+02 -0.15155374757E+02  0.42924280842E+03  0.42981661629E+03  0.00000000000E+00 0. -1.
<mgrwt>
<rscale>  2 0.22202141E+02</rscale>
<asrwt>0</asrwt>
<pdfrwt beam="2">  1       21 0.13644476E-02 0.22202141E+02</pdfrwt>
<pdfrwt beam="1">  1        2 0.68290640E-01 0.22202141E+02</pdfrwt>
<totfact> 0.15188264E+06</totfact>
</mgrwt>
</event>
<event>
 4    1  0.2245608E+006  0.2237674E+02  0.7546771E-02  0.1701817E+00
         21   -1    0    0  501  502  0.00000000000E+00  0.00000000000E+00  0.38507170864E+01  0.38507170864E+01  0.00000000000E+00 0.  1.
          1   -1    0    0  503    0 -0.00000000000E+00 -0.00000000000E+00 -0.15401974892E+03  0.15401974892E+03  0.00000000000E+00 0. -1.
         21    1    1    2  503  502 -0.20601993010E+02 -0.87336359322E+01 -0.43933474201E+02  0.49303840296E+02  0.00000000000E+00 0.  1.
          1    1    1    2  501    0  0.20601993010E+02  0.87336359322E+01 -0.10623555763E+03  0.10856662571E+03  0.00000000000E+00 0. -1.
<mgrwt>
<rscale>  2 0.22376740E+02</rscale>
<asrwt>0</asrwt>
<pdfrwt beam="1">  1       21 0.59241798E-03 0.22376740E+02</pdfrwt>
<pdfrwt beam="2">  1        1 0.23695347E-01 0.22376740E+02</pdfrwt>
<totfact> 0.12111340E+07</totfact>
</mgrwt>
</event>
<event>
 4    1  0.2245608E+006  0.3996126E+02  0.7546771E-02  0.1508497E+00
         21   -1    0    0  503  502  0.00000000000E+00  0.00000000000E+00  0.62360675757E+02  0.62360675757E+02  0.00000000000E+00 0. -1.
         -2   -1    0    0    0  501 -0.00000000000E+00 -0.00000000000E+00 -0.70712822920E+02  0.70712822920E+02  0.00000000000E+00 0. -1.
         21    1    1    2  503  501  0.15206024009E+02  0.36955093034E+02  0.48964508619E+02  0.63201464948E+02  0.00000000000E+00 0. -1.
         -2    1    1    2    0  502 -0.15206024009E+02 -0.36955093034E+02 -0.57316655783E+02  0.69872033729E+02  0.00000000000E+00 0. -1.
<mgrwt>
<rscale>  2 0.39961257E+02</rscale>
<asrwt>0</asrwt>
<pdfrwt beam="1">  1       21 0.95939501E-02 0.39961257E+02</pdfrwt>
<pdfrwt beam="2">  1       -2 0.10878896E-01 0.39961257E+02</pdfrwt>
<totfact> 0.33696015E+05</totfact>
</mgrwt>
</event>
<event>
 4    1  0.2245608E+006  0.2126611E+02  0.7546771E-02  0.1721262E+00
         -4   -1    0    0    0  501 -0.00000000000E+00  0.00000000000E+00  0.99427470466E+03  0.99427470466E+03  0.00000000000E+00 0.  1.
         21   -1    0    0  501  502  0.00000000000E+00 -0.00000000000E+00 -0.13719588729E+03  0.13719588729E+03  0.00000000000E+00 0.  1.
         21    1    1    2  503  502  0.14178347613E+01 -0.21218790328E+02 -0.13625730532E+03  0.13790685470E+03  0.00000000000E+00 0.  1.
         -4    1    1    2    0  503 -0.14178347613E+01  0.21218790328E+02  0.99333612270E+03  0.99356373725E+03  0.00000000000E+00 0.  1.
<mgrwt>
<rscale>  2 0.21266107E+02</rscale>
<asrwt>0</asrwt>
<pdfrwt beam="2">  1       21 0.21107060E-01 0.21266107E+02</pdfrwt>
<pdfrwt beam="1">  1       -4 0.15296533E+00 0.21266107E+02</pdfrwt>
<totfact> 0.24418705E+02</totfact>
</mgrwt>
</event>
<event>
 4    1  0.2245608E+006  0.2818736E+02  0.7546771E-02  0.1619035E+00
         21   -1    0    0  501  502  0.00000000000E+00  0.00000000000E+00  0.14049911333E+02  0.14049911333E+02  0.00000000000E+00 0.  1.
          2   -1    0    0  503    0 -0.00000000000E+00 -0.00000000000E+00 -0.65950233117E+03  0.65950233117E+03  0.00000000000E+00 0. -1.
         21    1    1    2  503  502 -0.27924223297E+02 -0.38425274607E+01 -0.71240536776E+00  0.28196361209E+02  0.00000000000E+00 0.  1.
          2    1    1    2  501    0  0.27924223297E+02  0.38425274607E+01 -0.64474001447E+03  0.64535588130E+03  0.00000000000E+00 0. -1.
<mgrwt>
<rscale>  2 0.28187360E+02</rscale>
<asrwt>0</asrwt>
<pdfrwt beam="1">  1       21 0.21615250E-02 0.28187360E+02</pdfrwt>
<pdfrwt beam="2">  1        2 0.10146189E+00 0.28187360E+02</pdfrwt>
<totfact> 0.52039578E+05</totfact>
</mgrwt>
</event>
<event>
 4    1  0.2245608E+006  0.5888983E+02  0.7546771E-02  0.1402551E+00
          2   -1    0    0  502    0 -0.00000000000E+00  0.00000000000E+00  0.23809449457E+04  0.23809449457E+04  0.00000000000E+00 0.  1.
         21   -1    0    0  503  502  0.00000000000E+00 -0.00000000000E+00 -0.19282346476E+01  0.19282346476E+01  0.00000000000E+00 0.  1.
         21    1    1    2  503  501  0.39569876367E+02  0.43614639318E+02  0.60024712496E+03  0.60312902675E+03  0.00000000000E+00 0.  1.
          2    1    1    2  501    0 -0.39569876367E+02 -0.43614639318E+02  0.17787695861E+04  0.17797441536E+04  0.00000000000E+00 0.  1.
<mgrwt>
<rscale>  2 0.58889828E+02</rscale>
<asrwt>0</asrwt>
<pdfrwt beam="2">  1       21 0.29665339E-03 0.58889828E+02</pdfrwt>
<pdfrwt beam="1">  1        2 0.36629687E+00 0.58889828E+02</pdfrwt>
<totfact> 0.14489542E+06</totfact>
</mgrwt>
</event>
<event>
 4    1  0.2245608E+006  0.4220344E+02  0.7546771E-02  0.1492595E+00
          2   -1    0    0  503    0 -0.00000000000E+00  0.00000000000E+00  0.12840904737E+04  0.12840904737E+04  0.00000000000E+00 0. -1.
         21   -1    0    0  501  502  0.00000000000E+00 -0.00000000000E+00 -0.22079687944E+01  0.22079687944E+01  0.00000000000E+00 0. -1.
         21    1    1    2  503  502 -0.25138614207E+02 -0.33899560272E+02  0.24878539746E+03  0.25233966019E+03  0.00000000000E+00 0. -1.
          2    1    1    2  501    0  0.25138614207E+02  0.33899560272E+02  0.10330971075E+04  0.10339587823E+04  0.00000000000E+00 0. -1.
<mgrwt>
<rscale>  2 0.42203437E+02</rscale>
<asrwt>0</asrwt>
<pdfrwt beam="2">  1       21 0.33968853E-03 0.42203437E+02</pdfrwt>
<pdfrwt beam="1">  1        2 0.19755178E+00 0.42203437E+02</pdfrwt>
<totfact> 0.39719161E+06</totfact>
</mgrwt>
</event>
<event>
 4    1  0.2245608E+006  0.3041848E+02  0.7546771E-02  0.1593508E+00
         21   -1    0    0  503  502  0.00000000000E+00  0.00000000000E+00  0.70567925063E+00  0.70567925063E+00  0.00000000000E+00 0.  1.
          2   -1    0    0  502    0 -0.00000000000E+00 -0.00000000000E+00 -0.18142154293E+04  0.18142154293E+04  0.00000000000E+00 0.  1.
         21    1    1    2  503  501  0.28708545244E+02 -0.10055010052E+02 -0.42892234068E+03  0.42999960248E+03  0.00000000000E+00 0.  1.
          2    1    1    2  501    0 -0.28708545244E+02  0.10055010052E+02 -0.13845874093E+04  0.13849215060E+04  0.00000000000E+00 0.  1.
<mgrwt>
<rscale>  2 0.30418478E+02</rscale>
<asrwt>0</asrwt>
<pdfrwt beam="1">  1       21 0.10856625E-03 0.30418478E+02</pdfrwt>
<pdfrwt beam="2">  1        2 0.27910952E+00 0.30418478E+02</pdfrwt>
<totfact> 0.11033439E+07</totfact>
</mgrwt>
</event>
<event>
 4    1  0.2245608E+006  0.2565511E+02  0.7546771E-02  0.1651767E+00
         21   -1    0    0  501  502  0.00000000000E+00  0.00000000000E+00  0.12585282823E+03  0.12585282823E+03  0.00000000000E+00 0. -1.
         -2   -1    0    0    0  501 -0.00000000000E+00 -0.00000000000E+00 -0.56028411601E+01  0.56028411601E+01  0.00000000000E+00 0. -1.
         21    1    1    2  503  502 -0.10860390183E+01 -0.25632108530E+02  0.77085021544E+02  0.81242138173E+02  0.00000000000E+00 0. -1.
         -2    1    1    2    0  503  0.10860390183E+01  0.25632108530E+02  0.43164965527E+02  0.50213531218E+02  0.00000000000E+00 0. -1.
<mgrwt>
<rscale>  2 0.25655106E+02</rscale>
<asrwt>0</asrwt>
<pdfrwt beam="1">  1       21 0.19361971E-01 0.25655106E+02</pdfrwt>
<pdfrwt beam="2">  1       -2 0.86197566E-03 0.25655106E+02</pdfrwt>
<totfact> 0.33726934E+06</totfact>
</mgrwt>
</event>
<event>
 4    1  0.2245608E+006  0.2928679E+02  0.7546771E-02  0.1606109E+00
          2   -1    0    0  502    0 -0.00000000000E+00  0.00000000000E+00  0.65355677555E+03  0.65355677555E+03  0.00000000000E+00 0. -1.
         21   -1    0    0  503  502  0.00000000000E+00 -0.00000000000E+00 -0.19694170043E+01  0.19694170043E+01  0.00000000000E+00 0.  1.
         21    1    1    2  503  501 -0.13361416256E+02 -0.26061250064E+02  0.13647849873E+03  0.13958544629E+03  0.00000000000E+00 0.  1.
          2    1    1    2  501    0  0.13361416256E+02  0.26061250064E+02  0.51510885982E+03  0.51594074627E+03  0.00000000000E+00 0. -1.
<mgrwt>
<rscale>  2 0.29286792E+02</rscale>
<asrwt>0</asrwt>
<pdfrwt beam="2">  1       21 0.30298775E-03 0.29286792E+02</pdfrwt>
<pdfrwt beam="1">  1        2 0.10054702E+00 0.29286792E+02</pdfrwt>
<totfact> 0.10207196E+07</totfact>
</mgrwt>
</event>
<event>
 4    1  0.2245608E+006  0.2454149E+02  0.7546771E-02  0.1667676E+00
          2   -1    0    0  503    0 -0.00000000000E+00  0.00000000000E+00  0.11930418014E+03  0.11930418014E+03  0.00000000000E+00 0. -1.
         21   -1    0    0  501  502  0.00000000000E+00 -0.00000000000E+00 -0.95415923893E+01  0.95415923893E+01  0.00000000000E+00 0.  1.
         21    1    1    2  503  502 -0.19658161548E+01  0.24462635186E+02  0.10672220160E+02  0.26761562670E+02  0.00000000000E+00 0.  1.
          2    1    1    2  501    0  0.19658161548E+01 -0.24462635186E+02  0.99090367587E+02  0.10208420986E+03  0.00000000000E+00 0. -1.
<mgrwt>
<rscale>  2 0.24541495E+02</rscale>
<asrwt>0</asrwt>
<pdfrwt beam="2">  1       21 0.14679374E-02 0.24541495E+02</pdfrwt>
<pdfrwt beam="1">  1        2 0.18354488E-01 0.24541495E+02</pdfrwt>
<totfact> 0.52507717E+06</totfact>
</mgrwt>
</event>
<event>
 4    1  0.2245608E+006  0.2547760E+02  0.7546771E-02  0.1654235E+00
          1   -1    0    0  503    0 -0.00000000000E+00  0.00000000000E+00  0.72074294053E+02  0.72074294053E+02  0.00000000000E+00 0. -1.
         21   -1    0    0  501  502  0.00000000000E+00 -0.00000000000E+00 -0.96826222963E+01  0.96826222963E+01  0.00000000000E+00 0. -1.
         21    1    1    2  503  502  0.24626849003E+02 -0.65289032738E+01  0.20390476848E+02  0.32632496317E+02  0.00000000000E+00 0. -1.
          1    1    1    2  501    0 -0.24626849003E+02  0.65289032738E+01  0.42001194908E+02  0.49124420032E+02  0.00000000000E+00 0. -1.
<mgrwt>
<rscale>  2 0.25477603E+02</rscale>
<asrwt>0</asrwt>
<pdfrwt beam="2">  1       21 0.14896342E-02 0.25477603E+02</pdfrwt>
<pdfrwt beam="1">  1        1 0.11088353E-01 0.25477603E+02</pdfrwt>
<totfact> 0.78919253E+06</totfact>
</mgrwt>
</event>
<event>
 4    1  0.2245608E+006  0.2000076E+02  0.7546771E-02  0.1745313E+00
         21   -1    0    0  503  502  0.00000000000E+00  0.00000000000E+00  0.11836416161E+01  0.11836416161E+01  0.00000000000E+00 0. -1.
         -1   -1    0    0    0  501 -0.00000000000E+00 -0.00000000000E+00 -0.73383425445E+03  0.73383425445E+03  0.00000000000E+00 0. -1.
         21    1    1    2  503  501  0.16187875020E+02  0.11746621145E+02 -0.96399525859E+02  0.98452521510E+02  0.00000000000E+00 0. -1.
         -1    1    1    2    0  502 -0.16187875020E+02 -0.11746621145E+02 -0.63625108698E+03  0.63656537456E+03  0.00000000000E+00 0. -1.
<mgrwt>
<rscale>  2 0.20000760E+02</rscale>
<asrwt>0</asrwt>
<pdfrwt beam="1">  1       21 0.18209899E-03 0.20000760E+02</pdfrwt>
<pdfrwt beam="2">  1       -1 0.11289740E+00 0.20000760E+02</pdfrwt>
<totfact> 0.25444512E+06</totfact>
</mgrwt>
</event>
<event>
 4    1  0.2245608E+006  0.2140594E+02  0.7546771E-02  0.1718733E+00
          2   -1    0    0  503    0 -0.00000000000E+00  0.00000000000E+00  0.90939920864E+03  0.90939920864E+03  0.00000000000E+00 0. -1.
         21   -1    0    0  501  502  0.00000000000E+00 -0.00000000000E+00 -0.67924363886E+02  0.67924363886E+02  0.00000000000E+00 0. -1.
         21    1    1    2  503  502 -0.10107150696E+02 -0.18869540700E+02 -0.66108537617E+02  0.69487788908E+02  0.00000000000E+00 0. -1.
          2    1    1    2  501    0  0.10107150696E+02  0.18869540700E+02  0.90758338237E+03  0.90783578362E+03  0.00000000000E+00 0. -1.
<mgrwt>
<rscale>  2 0.21405935E+02</rscale>
<asrwt>0</asrwt>
<pdfrwt beam="2">  1       21 0.10449903E-01 0.21405935E+02</pdfrwt>
<pdfrwt beam="1">  1        2 0.13990756E+00 0.21405935E+02</pdfrwt>
<totfact> 0.28595469E+04</totfact>
</mgrwt>
</event>
<event>
 4    1  0.2245608E+006  0.2015965E+02  0.7546771E-02  0.1742172E+00
          1   -1    0    0  502    0 -0.00000000000E+00  0.00000000000E+00  0.52625166418E+02  0.52625166418E+02  0.00000000000E+00 0.  1.
         21   -1    0    0  503  502  0.00000000000E+00 -0.00000000000E+00 -0.17982378836E+02  0.17982378836E+02  0.00000000000E+00 0.  1.
         21    1    1    2  503  501  0.28886946205E+01 -0.19951613125E+02 -0.93449333251E+01  0.22220243062E+02  0.00000000000E+00 0.  1.
          1    1    1    2  501    0 -0.28886946205E+01  0.19951613125E+02  0.43987720907E+02  0.48387302193E+02  0.00000000000E+00 0.  1.
<mgrwt>
<rscale>  2 0.20159648E+02</rscale>
<asrwt>0</asrwt>
<pdfrwt beam="2">  1       21 0.27665198E-02 0.20159648E+02</pdfrwt>
<pdfrwt beam="1">  1        1 0.80961794E-02 0.20159648E+02</pdfrwt>
<totfact> 0.42257293E+06</totfact>
</mgrwt>
</event>
<event>
 4    1  0.2245608E+006  0.2338227E+02  0.7546771E-02  0.1685388E+00
          2   -1    0    0  503    0 -0.00000000000E+00  0.00000000000E+00  0.11935573362E+02  0.11935573362E+02  0.00000000000E+00 0. -1.
         21   -1    0    0  501  502  0.00000000000E+00 -0.00000000000E+00 -0.13140907135E+03  0.13140907135E+03  0.00000000000E+00 0. -1.
         21    1    1    2  503  502 -0.23328477048E+02  0.15851083999E+01 -0.11758383018E+03  0.11988614402E+03  0.00000000000E+00 0. -1.
          2    1    1    2  501    0  0.23328477048E+02 -0.15851083999E+01 -0.18896678108E+01  0.23458500687E+02  0.00000000000E+00 0. -1.
<mgrwt>
<rscale>  2 0.23382267E+02</rscale>
<asrwt>0</asrwt>
<pdfrwt beam="2">  1       21 0.20216780E-01 0.23382267E+02</pdfrwt>
<pdfrwt beam="1">  1        2 0.18362421E-02 0.23382267E+02</pdfrwt>
<totfact> 0.11998447E+06</totfact>
</mgrwt>
</event>
<event>
 4    1  0.2245608E+006  0.2007463E+02  0.7546771E-02  0.1743848E+00
         21   -1    0    0  501  502  0.00000000000E+00  0.00000000000E+00  0.34502431792E+01  0.34502431792E+01  0.00000000000E+00 0.  1.
          1   -1    0    0  503    0 -0.00000000000E+00 -0.00000000000E+00 -0.98331831172E+03  0.98331831172E+03  0.00000000000E+00 0.  1.
         21    1    1    2  503  502  0.12358854740E+02 -0.15819272360E+02 -0.26778401351E+02  0.33467498373E+02  0.00000000000E+00 0.  1.
          1    1    1    2  501    0 -0.12358854740E+02  0.15819272360E+02 -0.95308966719E+03  0.95330105652E+03  0.00000000000E+00 0.  1.
<mgrwt>
<rscale>  2 0.20074627E+02</rscale>
<asrwt>0</asrwt>
<pdfrwt beam="1">  1       21 0.53080564E-03 0.20074627E+02</pdfrwt>
<pdfrwt beam="2">  1        1 0.15128003E+00 0.20074627E+02</pdfrwt>
<totfact> 0.14413709E+06</totfact>
</mgrwt>
</event>
<event>
 4    1  0.2245608E+006  0.2811463E+02  0.7546771E-02  0.1619915E+00
         21   -1    0    0  501  502  0.00000000000E+00  0.00000000000E+00  0.83761900559E+03  0.83761900559E+03  0.00000000000E+00 0. -1.
         -3   -1    0    0    0  501 -0.00000000000E+00 -0.00000000000E+00 -0.12753391443E+02  0.12753391443E+02  0.00000000000E+00 0. -1.
         21    1    1    2  503  502 -0.25409821104E+02  0.12032184142E+02  0.82158625665E+03  0.82206715637E+03  0.00000000000E+00 0. -1.
         -3    1    1    2    0  503  0.25409821104E+02 -0.12032184142E+02  0.32793575026E+01  0.28305240670E+02  0.00000000000E+00 0. -1.
<mgrwt>
<rscale>  2 0.28114631E+02</rscale>
<asrwt>0</asrwt>
<pdfrwt beam="1">  1       21 0.12886442E+00 0.28114631E+02</pdfrwt>
<pdfrwt beam="2">  1       -3 0.19620609E-02 0.28114631E+02</pdfrwt>
<totfact> 0.18427077E+04</totfact>
</mgrwt>
</event>
<event>
 4    1  0.2245608E+006  0.2277714E+02  0.7546771E-02  0.1695148E+00
          2   -1    0    0  503    0 -0.00000000000E+00  0.00000000000E+00  0.52018881541E+03  0.52018881541E+03  0.00000000000E+00 0.  1.
         21   -1    0    0  501  502  0.00000000000E+00 -0.00000000000E+00 -0.79571020075E+01  0.79571020075E+01  0.00000000000E+00 0.  1.
         21    1    1    2  503  502  0.17723953069E+02 -0.14305933006E+02  0.91459283274E+01  0.24544780230E+02  0.00000000000E+00 0.  1.
          2    1    1    2  501    0 -0.17723953069E+02  0.14305933006E+02  0.50308578508E+03  0.50360113719E+03  0.00000000000E+00 0.  1.
<mgrwt>
<rscale>  2 0.22777143E+02</rscale>
<asrwt>0</asrwt>
<pdfrwt beam="2">  1       21 0.12241699E-02 0.22777143E+02</pdfrwt>
<pdfrwt beam="1">  1        2 0.80029022E-01 0.22777143E+02</pdfrwt>
<totfact> 0.15340249E+06</totfact>
</mgrwt>
</event>
<event>
 4    1  0.2245608E+006  0.2795616E+02  0.7546771E-02  0.1621845E+00
         -4   -1    0    0    0  501 -0.00000000000E+00  0.00000000000E+00  0.26621723605E+03  0.26621723605E+03  0.00000000000E+00 0. -1.
         21   -1    0    0  503  502  0.00000000000E+00 -0.00000000000E+00 -0.34655002092E+01  0.34655002092E+01  0.00000000000E+00 0. -1.
         21    1    1    2  503  501  0.23968508843E+02  0.14389490064E+02  0.78655748443E+02  0.83476185847E+02  0.00000000000E+00 0. -1.
         -4    1    1    2    0  502 -0.23968508843E+02 -0.14389490064E+02  0.18409598740E+03  0.18620655042E+03  0.00000000000E+00 0. -1.
<mgrwt>
<rscale>  2 0.27956159E+02</rscale>
<asrwt>0</asrwt>
<pdfrwt beam="2">  1       21 0.53315409E-03 0.27956159E+02</pdfrwt>
<pdfrwt beam="1">  1       -4 0.40956482E-01 0.27956159E+02</pdfrwt>
<totfact> 0.14489812E+06</totfact>
</mgrwt>
</event>
<event>
 4    1  0.2245608E+006  0.2079195E+02  0.7546771E-02  0.1730023E+00
         21   -1    0    0  501  502  0.00000000000E+00  0.00000000000E+00  0.13559858349E+02  0.13559858349E+02  0.00000000000E+00 0.  1.
          2   -1    0    0  503    0 -0.00000000000E+00 -0.00000000000E+00 -0.13320051225E+04  0.13320051225E+04  0.00000000000E+00 0.  1.
         21    1    1    2  503  502 -0.20197797691E+02  0.49349886888E+01  0.54596467144E+01  0.21496811093E+02  0.00000000000E+00 0.  1.
          2    1    1    2  501    0  0.20197797691E+02 -0.49349886888E+01 -0.13239049108E+04  0.13240681697E+04  0.00000000000E+00 0.  1.
<mgrwt>
<rscale>  2 0.20791949E+02</rscale>
<asrwt>0</asrwt>
<pdfrwt beam="1">  1       21 0.20861317E-02 0.20791949E+02</pdfrwt>
<pdfrwt beam="2">  1        2 0.20492390E+00 0.20791949E+02</pdfrwt>
<totfact> 0.22208862E+05</totfact>
</mgrwt>
</event>
<event>
 4    1  0.2245608E+006  0.2121404E+02  0.7546771E-02  0.1722210E+00
         21   -1    0    0  501  502  0.00000000000E+00  0.00000000000E+00  0.17277237728E+03  0.17277237728E+03  0.00000000000E+00 0.  1.
          3   -1    0    0  503    0 -0.00000000000E+00 -0.00000000000E+00 -0.37293356883E+02  0.37293356883E+02  0.00000000000E+00 0.  1.
         21    1    1    2  503  502 -0.17113359927E+02 -0.12536687961E+02  0.16903792880E+03  0.17036389584E+03  0.00000000000E+00 0.  1.
          3    1    1    2  501    0  0.17113359927E+02  0.12536687961E+02 -0.33558908402E+02  0.39701838323E+02  0.00000000000E+00 0.  1.
<mgrwt>
<rscale>  2 0.21214043E+02</rscale>
<asrwt>0</asrwt>
<pdfrwt beam="1">  1       21 0.26580365E-01 0.21214043E+02</pdfrwt>
<pdfrwt beam="2">  1        3 0.57374396E-02 0.21214043E+02</pdfrwt>
<totfact> 0.85280227E+04</totfact>
</mgrwt>
</event>
<event>
 4    1  0.2245608E+006  0.3955179E+02  0.7546771E-02  0.1511536E+00
         -2   -1    0    0    0  501 -0.00000000000E+00  0.00000000000E+00  0.16335668818E+03  0.16335668818E+03  0.00000000000E+00 0. -1.
         21   -1    0    0  501  502  0.00000000000E+00 -0.00000000000E+00 -0.15818338857E+02  0.15818338857E+02  0.00000000000E+00 0.  1.
         21    1    1    2  503  502  0.35986816127E+02  0.16410159952E+02  0.17492029066E+02  0.43247142859E+02  0.00000000000E+00 0.  1.
         -2    1    1    2    0  503 -0.35986816127E+02 -0.16410159952E+02  0.13004632026E+03  0.13592788418E+03  0.00000000000E+00 0. -1.
<mgrwt>
<rscale>  2 0.39551792E+02</rscale>
<asrwt>0</asrwt>
<pdfrwt beam="2">  1       21 0.24335907E-02 0.39551792E+02</pdfrwt>
<pdfrwt beam="1">  1       -2 0.25131797E-01 0.39551792E+02</pdfrwt>
<totfact> 0.81545505E+05</totfact>
</mgrwt>
</event>
<event>
 4    1  0.2245608E+006  0.2170280E+02  0.7546771E-02  0.1713443E+00
         -3   -1    0    0    0  501 -0.00000000000E+00  0.00000000000E+00  0.23122741980E+02  0.23122741980E+02  0.00000000000E+00 0. -1.
         21   -1    0    0  501  502  0.00000000000E+00 -0.00000000000E+00 -0.78473088009E+02  0.78473088009E+02  0.00000000000E+00 0.  1.
         21    1    1    2  503  502 -0.21622360221E+02 -0.18668665563E+01 -0.71385584688E+02  0.74611750774E+02  0.00000000000E+00 0.  1.
         -3    1    1    2    0  503  0.21622360221E+02  0.18668665563E+01  0.16035238660E+02  0.26984079216E+02  0.00000000000E+00 0. -1.
<mgrwt>
<rscale>  2 0.21702803E+02</rscale>
<asrwt>0</asrwt>
<pdfrwt beam="2">  1       21 0.12072783E-01 0.21702803E+02</pdfrwt>
<pdfrwt beam="1">  1       -3 0.35573449E-02 0.21702803E+02</pdfrwt>
<totfact> 0.68468311E+05</totfact>
</mgrwt>
</event>
<event>
 4    1  0.2245608E+006  0.2046999E+02  0.7546771E-02  0.1736140E+00
         -2   -1    0    0    0  501 -0.00000000000E+00  0.00000000000E+00  0.12673138357E+03  0.12673138357E+03  0.00000000000E+00 0.  1.
         21   -1    0    0  503  502  0.00000000000E+00 -0.00000000000E+00 -0.18638237768E+02  0.18638237768E+02  0.00000000000E+00 0.  1.
         21    1    1    2  503  501  0.16854046992E+02  0.11617298719E+02 -0.11876707082E+02  0.23665939674E+02  0.00000000000E+00 0.  1.
         -2    1    1    2    0  502 -0.16854046992E+02 -0.11617298719E+02  0.11996985288E+03  0.12170368166E+03  0.00000000000E+00 0.  1.
<mgrwt>
<rscale>  2 0.20469991E+02</rscale>
<asrwt>0</asrwt>
<pdfrwt beam="2">  1       21 0.28674213E-02 0.20469991E+02</pdfrwt>
<pdfrwt beam="1">  1       -2 0.19497135E-01 0.20469991E+02</pdfrwt>
<totfact> 0.83454193E+05</totfact>
</mgrwt>
</event>
<event>
 4    1  0.2245608E+006  0.2226421E+02  0.7546771E-02  0.1703722E+00
          2   -1    0    0  502    0 -0.00000000000E+00  0.00000000000E+00  0.68550924391E+02  0.68550924391E+02  0.00000000000E+00 0. -1.
         21   -1    0    0  503  502  0.00000000000E+00 -0.00000000000E+00 -0.67575317444E+02  0.67575317444E+02  0.00000000000E+00 0.  1.
         21    1    1    2  503  501 -0.22047765267E+02  0.30969748906E+01 -0.63830683447E+02  0.67602154966E+02  0.00000000000E+00 0.  1.
          2    1    1    2  501    0  0.22047765267E+02 -0.30969748906E+01  0.64806290394E+02  0.68524086870E+02  0.00000000000E+00 0. -1.
<mgrwt>
<rscale>  2 0.22264214E+02</rscale>
<asrwt>0</asrwt>
<pdfrwt beam="2">  1       21 0.10396203E-01 0.22264214E+02</pdfrwt>
<pdfrwt beam="1">  1        2 0.10546296E-01 0.22264214E+02</pdfrwt>
<totfact> 0.43077777E+05</totfact>
</mgrwt>
</event>
<event>
 4    1  0.2245608E+006  0.2088388E+02  0.7546771E-02  0.1728302E+00
         21   -1    0    0  501  502  0.00000000000E+00  0.00000000000E+00  0.10469822155E+02  0.10469822155E+02  0.00000000000E+00 0.  1.
          1   -1    0    0  503    0 -0.00000000000E+00 -0.00000000000E+00 -0.55535472560E+02  0.55535472560E+02  0.00000000000E+00 0.  1.
         21    1    1    2  503  502  0.20338975527E+01 -0.20784602321E+02 -0.60344272946E+01  0.21738232349E+02  0.00000000000E+00 0.  1.
          1    1    1    2  501    0 -0.20338975527E+01  0.20784602321E+02 -0.39031223111E+02  0.44267062365E+02  0.00000000000E+00 0.  1.
<mgrwt>
<rscale>  2 0.20883880E+02</rscale>
<asrwt>0</asrwt>
<pdfrwt beam="1">  1       21 0.16107419E-02 0.20883880E+02</pdfrwt>
<pdfrwt beam="2">  1        1 0.85439188E-02 0.20883880E+02</pdfrwt>
<totfact> 0.91379987E+06</totfact>
</mgrwt>
</event>
<event>
 4    1  0.2245608E+006  0.3062815E+02  0.7546771E-02  0.1591247E+00
          1   -1    0    0  503    0 -0.00000000000E+00  0.00000000000E+00  0.36106905815E+01  0.36106905815E+01  0.00000000000E+00 0.  1.
         21   -1    0    0  501  502  0.00000000000E+00 -0.00000000000E+00 -0.37160664745E+03  0.37160664745E+03  0.00000000000E+00 0. -1.
         21    1    1    2  503  502 -0.20324703621E+02  0.22912663189E+02 -0.28690164076E+03  0.28853186165E+03  0.00000000000E+00 0. -1.
          1    1    1    2  501    0  0.20324703621E+02 -0.22912663189E+02 -0.81094316100E+02  0.86685476381E+02  0.00000000000E+00 0.  1.
<mgrwt>
<rscale>  2 0.30628152E+02</rscale>
<asrwt>0</asrwt>
<pdfrwt beam="2">  1       21 0.57170271E-01 0.30628152E+02</pdfrwt>
<pdfrwt beam="1">  1        1 0.55549069E-03 0.30628152E+02</pdfrwt>
<totfact> 0.86338702E+05</totfact>
</mgrwt>
</event>
<event>
 4    1  0.2245608E+006  0.2759739E+02  0.7546771E-02  0.1626273E+00
          4   -1    0    0  503    0 -0.00000000000E+00  0.00000000000E+00  0.53000651118E+03  0.53000651118E+03  0.00000000000E+00 0.  1.
         21   -1    0    0  501  502  0.00000000000E+00 -0.00000000000E+00 -0.68435277184E+01  0.68435277184E+01  0.00000000000E+00 0. -1.
         21    1    1    2  503  502  0.10073092404E+02 -0.25693360354E+02  0.22996867104E+02  0.35923138135E+02  0.00000000000E+00 0. -1.
          4    1    1    2  501    0 -0.10073092404E+02  0.25693360354E+02  0.50016611636E+03  0.50092690077E+03  0.00000000000E+00 0.  1.
<mgrwt>
<rscale>  2 0.27597390E+02</rscale>
<asrwt>0</asrwt>
<pdfrwt beam="2">  1       21 0.10528508E-02 0.27597390E+02</pdfrwt>
<pdfrwt beam="1">  1        4 0.81539431E-01 0.27597390E+02</pdfrwt>
<totfact> 0.13054828E+05</totfact>
</mgrwt>
</event>
<event>
 4    1  0.2245608E+006  0.3041334E+02  0.7546771E-02  0.1593564E+00
         21   -1    0    0  503  502  0.00000000000E+00  0.00000000000E+00  0.17786629134E+03  0.17786629134E+03  0.00000000000E+00 0.  1.
         -3   -1    0    0    0  501 -0.00000000000E+00 -0.00000000000E+00 -0.93484756717E+01  0.93484756717E+01  0.00000000000E+00 0. -1.
         21    1    1    2  503  501  0.53814050401E+01  0.29933458737E+02  0.14661290977E+03  0.14973415370E+03  0.00000000000E+00 0.  1.
         -3    1    1    2    0  502 -0.53814050401E+01 -0.29933458737E+02  0.21904905903E+02  0.37480613319E+02  0.00000000000E+00 0. -1.
<mgrwt>
<rscale>  2 0.30413344E+02</rscale>
<asrwt>0</asrwt>
<pdfrwt beam="1">  1       21 0.27364042E-01 0.30413344E+02</pdfrwt>
<pdfrwt beam="2">  1       -3 0.14382272E-02 0.30413344E+02</pdfrwt>
<totfact> 0.68949072E+05</totfact>
</mgrwt>
</event>
<event>
 4    1  0.2245608E+006  0.2645037E+02  0.7546771E-02  0.1641003E+00
         -1   -1    0    0    0  501 -0.00000000000E+00  0.00000000000E+00  0.31115406843E+03  0.31115406843E+03  0.00000000000E+00 0. -1.
         21   -1    0    0  503  502  0.00000000000E+00 -0.00000000000E+00 -0.52458629588E+02  0.52458629588E+02  0.00000000000E+00 0. -1.
         21    1    1    2  503  501  0.10367817708E+02 -0.24333732364E+02 -0.48519679372E+02  0.55261030221E+02  0.00000000000E+00 0. -1.
         -1    1    1    2    0  502 -0.10367817708E+02  0.24333732364E+02  0.30721511821E+03  0.30835166780E+03  0.00000000000E+00 0. -1.
<mgrwt>
<rscale>  2 0.26450372E+02</rscale>
<asrwt>0</asrwt>
<pdfrwt beam="2">  1       21 0.80705585E-02 0.26450372E+02</pdfrwt>
<pdfrwt beam="1">  1       -1 0.47869856E-01 0.26450372E+02</pdfrwt>
<totfact> 0.43729468E+04</totfact>
</mgrwt>
</event>
<event>
 4    1  0.2245608E+006  0.2774598E+02  0.7546771E-02  0.1624429E+00
          2   -1    0    0  503    0 -0.00000000000E+00  0.00000000000E+00  0.83236695419E+01  0.83236695419E+01  0.00000000000E+00 0.  1.
         21   -1    0    0  501  502  0.00000000000E+00 -0.00000000000E+00 -0.14074316160E+03  0.14074316160E+03  0.00000000000E+00 0.  1.
         21    1    1    2  503  502  0.95026246128E+01 -0.26067980632E+02 -0.10985221299E+03  0.11330202200E+03  0.00000000000E+00 0.  1.
          2    1    1    2  501    0 -0.95026246128E+01  0.26067980632E+02 -0.22567279061E+02  0.35764809142E+02  0.00000000000E+00 0.  1.
<mgrwt>
<rscale>  2 0.27745981E+02</rscale>
<asrwt>0</asrwt>
<pdfrwt beam="2">  1       21 0.21652791E-01 0.27745981E+02</pdfrwt>
<pdfrwt beam="1">  1        2 0.12805647E-02 0.27745981E+02</pdfrwt>
<totfact> 0.17622902E+06</totfact>
</mgrwt>
</event>
<event>
 4    1  0.2245608E+006  0.2201679E+02  0.7546771E-02  0.1707962E+00
         -3   -1    0    0    0  501 -0.00000000000E+00  0.00000000000E+00  0.10795590426E+04  0.10795590426E+04  0.00000000000E+00 0. -1.
         21   -1    0    0  501  502  0.00000000000E+00 -0.00000000000E+00 -0.59483810556E+01  0.59483810556E+01  0.00000000000E+00 0.  1.
         21    1    1    2  503  502  0.15868998332E+02  0.15261511474E+02  0.14938490550E+02  0.26606340230E+02  0.00000000000E+00 0.  1.
         -3    1    1    2    0  503 -0.15868998332E+02 -0.15261511474E+02  0.10586721710E+04  0.10589010834E+04  0.00000000000E+00 0. -1.
<mgrwt>
<rscale>  2 0.22016785E+02</rscale>
<asrwt>0</asrwt>
<pdfrwt beam="2">  1       21 0.91513640E-03 0.22016785E+02</pdfrwt>
<pdfrwt beam="1">  1       -3 0.16608585E+00 0.22016785E+02</pdfrwt>
<totfact> 0.40616801E+04</totfact>
</mgrwt>
</event>
<event>
 4    1  0.2245608E+006  0.2016508E+02  0.7546771E-02  0.1742065E+00
         -4   -1    0    0    0  501 -0.00000000000E+00  0.00000000000E+00  0.19617188957E+02  0.19617188957E+02  0.00000000000E+00 0.  1.
         21   -1    0    0  503  502  0.00000000000E+00 -0.00000000000E+00 -0.22148681617E+02  0.22148681617E+02  0.00000000000E+00 0.  1.
         21    1    1    2  503  501  0.13680054489E+02 -0.14815075650E+02 -0.65541544051E+01  0.21203473708E+02  0.00000000000E+00 0.  1.
         -4    1    1    2    0  502 -0.13680054489E+02  0.14815075650E+02  0.40226617451E+01  0.20562396866E+02  0.00000000000E+00 0.  1.
<mgrwt>
<rscale>  2 0.20165078E+02</rscale>
<asrwt>0</asrwt>
<pdfrwt beam="2">  1       21 0.34074895E-02 0.20165078E+02</pdfrwt>
<pdfrwt beam="1">  1       -4 0.30180291E-02 0.20165078E+02</pdfrwt>
<totfact> 0.54632887E+06</totfact>
</mgrwt>
</event>
<event>
 4    1  0.2245608E+006  0.2588707E+02  0.7546771E-02  0.1648578E+00
          2   -1    0    0  502    0 -0.00000000000E+00  0.00000000000E+00  0.14643536110E+04  0.14643536110E+04  0.00000000000E+00 0. -1.
         21   -1    0    0  503  502  0.00000000000E+00 -0.00000000000E+00 -0.12899936309E+01  0.12899936309E+01  0.00000000000E+00 0. -1.
         21    1    1    2  503  501  0.23224040733E+02 -0.11436100200E+02  0.14287839670E+03  0.14520460288E+03  0.00000000000E+00 0. -1.
          2    1    1    2  501    0 -0.23224040733E+02  0.11436100200E+02  0.13201852207E+04  0.13204390017E+04  0.00000000000E+00 0. -1.
<mgrwt>
<rscale>  2 0.25887071E+02</rscale>
<asrwt>0</asrwt>
<pdfrwt beam="2">  1       21 0.19846173E-03 0.25887071E+02</pdfrwt>
<pdfrwt beam="1">  1        2 0.22528384E+00 0.25887071E+02</pdfrwt>
<totfact> 0.65549492E+06</totfact>
</mgrwt>
</event>
<event>
 4    1  0.2245608E+006  0.3876676E+02  0.7546771E-02  0.1517488E+00
         21   -1    0    0  503  502  0.00000000000E+00  0.00000000000E+00  0.96518901251E+01  0.96518901251E+01  0.00000000000E+00 0. -1.
          2   -1    0    0  502    0 -0.00000000000E+00 -0.00000000000E+00 -0.23415555330E+03  0.23415555330E+03  0.00000000000E+00 0.  1.
         21    1    1    2  503  501 -0.16623782215E+02  0.35021585585E+02 -0.41691808731E+02  0.56930382989E+02  0.00000000000E+00 0. -1.
          2    1    1    2  501    0  0.16623782215E+02 -0.35021585585E+02 -0.18281185444E+03  0.18687706043E+03  0.00000000000E+00 0.  1.
<mgrwt>
<rscale>  2 0.38766759E+02</rscale>
<asrwt>0</asrwt>
<pdfrwt beam="1">  1       21 0.14849063E-02 0.38766759E+02</pdfrwt>
<pdfrwt beam="2">  1        2 0.36023929E-01 0.38766759E+02</pdfrwt>
<totfact> 0.28236479E+06</totfact>
</mgrwt>
</event>
<event>
 4    1  0.2245608E+006  0.2006155E+02  0.7546771E-02  0.1744107E+00
          4   -1    0    0  502    0 -0.00000000000E+00  0.00000000000E+00  0.22785426447E+03  0.22785426447E+03  0.00000000000E+00 0. -1.
         21   -1    0    0  503  502  0.00000000000E+00 -0.00000000000E+00 -0.54440347405E+01  0.54440347405E+01  0.00000000000E+00 0.  1.
         21    1    1    2  503  501  0.87224187997E+01  0.18066132064E+02  0.15329184744E+02  0.25247764701E+02  0.00000000000E+00 0.  1.
          4    1    1    2  501    0 -0.87224187997E+01 -0.18066132064E+02  0.20708104499E+03  0.20805053451E+03  0.00000000000E+00 0. -1.
<mgrwt>
<rscale>  2 0.20061548E+02</rscale>
<asrwt>0</asrwt>
<pdfrwt beam="2">  1       21 0.83754398E-03 0.20061548E+02</pdfrwt>
<pdfrwt beam="1">  1        4 0.35054495E-01 0.20061548E+02</pdfrwt>
<totfact> 0.85917697E+05</totfact>
</mgrwt>
</event>
<event>
 4    1  0.2245608E+006  0.2498063E+02  0.7546771E-02  0.1661280E+00
         -3   -1    0    0    0  501 -0.00000000000E+00  0.00000000000E+00  0.32463565928E+01  0.32463565928E+01  0.00000000000E+00 0.  1.
         21   -1    0    0  501  502  0.00000000000E+00 -0.00000000000E+00 -0.10659103327E+04  0.10659103327E+04  0.00000000000E+00 0. -1.
         21    1    1    2  503  502 -0.11939997799E+02  0.21942389305E+02 -0.10153131568E+04  0.10156204204E+04  0.00000000000E+00 0. -1.
         -3    1    1    2    0  503  0.11939997799E+02 -0.21942389305E+02 -0.47350819287E+02  0.53536268856E+02  0.00000000000E+00 0.  1.
<mgrwt>
<rscale>  2 0.24980632E+02</rscale>
<asrwt>0</asrwt>
<pdfrwt beam="2">  1       21 0.16398630E+00 0.24980632E+02</pdfrwt>
<pdfrwt beam="1">  1       -3 0.49943919E-03 0.24980632E+02</pdfrwt>
<totfact> 0.72676341E+04</totfact>
</mgrwt>
</event>
<event>
 4    1  0.2245608E+006  0.2038331E+02  0.7546771E-02  0.1737811E+00
          1   -1    0    0  502    0 -0.00000000000E+00  0.00000000000E+00  0.41127528225E+03  0.41127528225E+03  0.00000000000E+00 0. -1.
         21   -1    0    0  503  502  0.00000000000E+00 -0.00000000000E+00 -0.11233977411E+01  0.11233977411E+01  0.00000000000E+00 0. -1.
         21    1    1    2  503  501  0.11917307361E+02  0.16536535113E+02  0.13962773160E+03  0.14110769873E+03  0.00000000000E+00 0. -1.
          1    1    1    2  501    0 -0.11917307361E+02 -0.16536535113E+02  0.27052415291E+03  0.27129098126E+03  0.00000000000E+00 0. -1.
<mgrwt>
<rscale>  2 0.20383307E+02</rscale>
<asrwt>0</asrwt>
<pdfrwt beam="2">  1       21 0.17283075E-03 0.20383307E+02</pdfrwt>
<pdfrwt beam="1">  1        1 0.63273000E-01 0.20383307E+02</pdfrwt>
<totfact> 0.22713510E+07</totfact>
</mgrwt>
</event>
<event>
 4    1  0.2245608E+006  0.2650453E+02  0.7546771E-02  0.1640287E+00
         21   -1    0    0  501  502  0.00000000000E+00  0.00000000000E+00  0.98953683255E+01  0.98953683255E+01  0.00000000000E+00 0. -1.
          2   -1    0    0  503    0 -0.00000000000E+00 -0.00000000000E+00 -0.41799615615E+03  0.41799615615E+03  0.00000000000E+00 0.  1.
         21    1    1    2  503  502 -0.25989252262E+02  0.52008727482E+01 -0.91175634609E+01  0.28028918529E+02  0.00000000000E+00 0. -1.
          2    1    1    2  501    0  0.25989252262E+02 -0.52008727482E+01 -0.39898322436E+03  0.39986260595E+03  0.00000000000E+00 0.  1.
<mgrwt>
<rscale>  2 0.26504534E+02</rscale>
<asrwt>0</asrwt>
<pdfrwt beam="1">  1       21 0.15223645E-02 0.26504534E+02</pdfrwt>
<pdfrwt beam="2">  1        2 0.64307096E-01 0.26504534E+02</pdfrwt>
<totfact> 0.14141770E+06</totfact>
</mgrwt>
</event>
<event>
 4    1  0.2245608E+006  0.3018267E+02  0.7546771E-02  0.1596078E+00
          4   -1    0    0  503    0 -0.00000000000E+00  0.00000000000E+00  0.43006380699E+02  0.43006380699E+02  0.00000000000E+00 0.  1.
         21   -1    0    0  501  502  0.00000000000E+00 -0.00000000000E+00 -0.84117930023E+02  0.84117930023E+02  0.00000000000E+00 0. -1.
         21    1    1    2  503  502  0.15805262329E+02  0.25713565917E+02 -0.75535306322E+02  0.81342340086E+02  0.00000000000E+00 0. -1.
          4    1    1    2  501    0 -0.15805262329E+02 -0.25713565917E+02  0.34423756998E+02  0.45781970636E+02  0.00000000000E+00 0.  1.
<mgrwt>
<rscale>  2 0.30182674E+02</rscale>
<asrwt>0</asrwt>
<pdfrwt beam="2">  1       21 0.12941220E-01 0.30182674E+02</pdfrwt>
<pdfrwt beam="1">  1        4 0.66163663E-02 0.30182674E+02</pdfrwt>
<totfact> 0.22215665E+05</totfact>
</mgrwt>
</event>
<event>
 4    1  0.2245608E+006  0.4065988E+02  0.7546771E-02  0.1503411E+00
         -2   -1    0    0    0  501 -0.00000000000E+00  0.00000000000E+00  0.20189689278E+03  0.20189689278E+03  0.00000000000E+00 0. -1.
         21   -1    0    0  503  502  0.00000000000E+00 -0.00000000000E+00 -0.21948578552E+02  0.21948578552E+02  0.00000000000E+00 0. -1.
         21    1    1    2  503  501 -0.18468988827E+02  0.36223230991E+02  0.13553097540E+01  0.40682463990E+02  0.00000000000E+00 0. -1.
         -2    1    1    2    0  502  0.18468988827E+02 -0.36223230991E+02  0.17859300447E+03  0.18316300734E+03  0.00000000000E+00 0. -1.
<mgrwt>
<rscale>  2 0.40659882E+02</rscale>
<asrwt>0</asrwt>
<pdfrwt beam="2">  1       21 0.33767045E-02 0.40659882E+02</pdfrwt>
<pdfrwt beam="1">  1       -2 0.31061059E-01 0.40659882E+02</pdfrwt>
<totfact> 0.33824314E+05</totfact>
</mgrwt>
</event>
<event>
 4    1  0.2245608E+006  0.2723927E+02  0.7546771E-02  0.1630776E+00
          2   -1    0    0  502    0 -0.00000000000E+00  0.00000000000E+00  0.50619650596E+03  0.50619650596E+03  0.00000000000E+00 0. -1.
         21   -1    0    0  503  502  0.00000000000E+00 -0.00000000000E+00 -0.52480151283E+01  0.52480151283E+01  0.00000000000E+00 0. -1.
         21    1    1    2  503  501  0.24293692432E+02  0.12320491641E+02  0.33381826614E+02  0.43085082736E+02  0.00000000000E+00 0. -1.
          2    1    1    2  501    0 -0.24293692432E+02 -0.12320491641E+02  0.46756666422E+03  0.46835943835E+03  0.00000000000E+00 0. -1.
<mgrwt>
<rscale>  2 0.27239273E+02</rscale>
<asrwt>0</asrwt>
<pdfrwt beam="2">  1       21 0.80738734E-03 0.27239273E+02</pdfrwt>
<pdfrwt beam="1">  1        2 0.77876347E-01 0.27239273E+02</pdfrwt>
<totfact> 0.30629643E+06</totfact>
</mgrwt>
</event>
<event>
 4    1  0.2245608E+006  0.3658935E+02  0.7546771E-02  0.1534923E+00
          2   -1    0    0  503    0 -0.00000000000E+00  0.00000000000E+00  0.14231266342E+03  0.14231266342E+03  0.00000000000E+00 0. -1.
         21   -1    0    0  501  502  0.00000000000E+00 -0.00000000000E+00 -0.10229268572E+02  0.10229268572E+02  0.00000000000E+00 0.  1.
         21    1    1    2  503  502  0.88298031245E+01  0.35507961598E+02  0.44421518300E+02  0.57550430477E+02  0.00000000000E+00 0.  1.
          2    1    1    2  501    0 -0.88298031245E+01 -0.35507961598E+02  0.87661876552E+02  0.94991501518E+02  0.00000000000E+00 0. -1.
<mgrwt>
<rscale>  2 0.36589353E+02</rscale>
<asrwt>0</asrwt>
<pdfrwt beam="2">  1       21 0.15737337E-02 0.36589353E+02</pdfrwt>
<pdfrwt beam="1">  1        2 0.21894255E-01 0.36589353E+02</pdfrwt>
<totfact> 0.42890512E+06</totfact>
</mgrwt>
</event>
<event>
 4    1  0.2245608E+006  0.2485878E+02  0.7546771E-02  0.1663039E+00
         -1   -1    0    0    0  501 -0.00000000000E+00  0.00000000000E+00  0.36948370809E+03  0.36948370809E+03  0.00000000000E+00 0. -1.
         21   -1    0    0  501  502  0.00000000000E+00 -0.00000000000E+00 -0.16868984575E+02  0.16868984575E+02  0.00000000000E+00 0. -1.
         21    1    1    2  503  502 -0.22056798774E+02 -0.11465441228E+02 -0.70427384878E+01  0.25837160837E+02  0.00000000000E+00 0. -1.
         -1    1    1    2    0  503  0.22056798774E+02  0.11465441228E+02  0.35965746201E+03  0.36051553183E+03  0.00000000000E+00 0. -1.
<mgrwt>
<rscale>  2 0.24858775E+02</rscale>
<asrwt>0</asrwt>
<pdfrwt beam="2">  1       21 0.25952287E-02 0.24858775E+02</pdfrwt>
<pdfrwt beam="1">  1       -1 0.56843642E-01 0.24858775E+02</pdfrwt>
<totfact> 0.19586935E+05</totfact>
</mgrwt>
</event>
<event>
 4    1  0.2245608E+006  0.6679409E+02  0.7546771E-02  0.1371347E+00
         -3   -1    0    0    0  501 -0.00000000000E+00  0.00000000000E+00  0.18176101296E+02  0.18176101296E+02  0.00000000000E+00 0.  1.
         21   -1    0    0  503  502  0.00000000000E+00 -0.00000000000E+00 -0.31101701559E+03  0.31101701559E+03  0.00000000000E+00 0.  1.
         21    1    1    2  503  501 -0.56066984992E+02  0.36303498624E+02 -0.22199025952E+03  0.23182132374E+03  0.00000000000E+00 0.  1.
         -3    1    1    2    0  502  0.56066984992E+02 -0.36303498624E+02 -0.70850654770E+02  0.97371793143E+02  0.00000000000E+00 0.  1.
<mgrwt>
<rscale>  2 0.66794093E+02</rscale>
<asrwt>0</asrwt>
<pdfrwt beam="2">  1       21 0.47848773E-01 0.66794093E+02</pdfrwt>
<pdfrwt beam="1">  1       -3 0.27963232E-02 0.66794093E+02</pdfrwt>
<totfact> 0.10384319E+05</totfact>
</mgrwt>
</event>
<event>
 4    1  0.2245608E+006  0.2652690E+02  0.7546771E-02  0.1639992E+00
         21   -1    0    0  501  502  0.00000000000E+00  0.00000000000E+00  0.10481572876E+02  0.10481572876E+02  0.00000000000E+00 0.  1.
         -1   -1    0    0    0  501 -0.00000000000E+00 -0.00000000000E+00 -0.71426590566E+02  0.71426590566E+02  0.00000000000E+00 0.  1.
         21    1    1    2  503  502 -0.21945475161E+02 -0.14902092864E+02 -0.20433372016E+02  0.33484308918E+02  0.00000000000E+00 0.  1.
         -1    1    1    2    0  503  0.21945475161E+02  0.14902092864E+02 -0.40511645674E+02  0.48423854524E+02  0.00000000000E+00 0.  1.
<mgrwt>
<rscale>  2 0.26526897E+02</rscale>
<asrwt>0</asrwt>
<pdfrwt beam="1">  1       21 0.16125496E-02 0.26526897E+02</pdfrwt>
<pdfrwt beam="2">  1       -1 0.10988707E-01 0.26526897E+02</pdfrwt>
<totfact> 0.55519697E+06</totfact>
</mgrwt>
</event>
<event>
 4    1  0.2245608E+006  0.3987914E+02  0.7546771E-02  0.1509103E+00
          1   -1    0    0  502    0 -0.00000000000E+00  0.00000000000E+00  0.10363052782E+03  0.10363052782E+03  0.00000000000E+00 0.  1.
         21   -1    0    0  503  502  0.00000000000E+00 -0.00000000000E+00 -0.34829718721E+02  0.34829718721E+02  0.00000000000E+00 0.  1.
         21    1    1    2  503  501  0.38695960932E+02 -0.96420285421E+01 -0.17378469526E+02  0.43501233430E+02  0.00000000000E+00 0.  1.
          1    1    1    2  501    0 -0.38695960932E+02  0.96420285421E+01  0.86179278628E+02  0.94959013115E+02  0.00000000000E+00 0.  1.
<mgrwt>
<rscale>  2 0.39879144E+02</rscale>
<asrwt>0</asrwt>
<pdfrwt beam="2">  1       21 0.53584183E-02 0.39879144E+02</pdfrwt>
<pdfrwt beam="1">  1        1 0.15943158E-01 0.39879144E+02</pdfrwt>
<totfact> 0.73858771E+05</totfact>
</mgrwt>
</event>
<event>
 4    1  0.2245608E+006  0.2102467E+02  0.7546771E-02  0.1725687E+00
         -2   -1    0    0    0  501 -0.00000000000E+00  0.00000000000E+00  0.11215572307E+04  0.11215572307E+04  0.00000000000E+00 0.  1.
         21   -1    0    0  503  502  0.00000000000E+00 -0.00000000000E+00 -0.53163756682E+01  0.53163756682E+01  0.00000000000E+00 0.  1.
         21    1    1    2  503  501 -0.18391655157E+02  0.10187439161E+02  0.15970854881E+02  0.26402747996E+02  0.00000000000E+00 0.  1.
         -2    1    1    2    0  502  0.18391655157E+02 -0.10187439161E+02  0.11002700002E+04  0.11004708584E+04  0.00000000000E+00 0.  1.
<mgrwt>
<rscale>  2 0.21024674E+02</rscale>
<asrwt>0</asrwt>
<pdfrwt beam="2">  1       21 0.81790484E-03 0.21024674E+02</pdfrwt>
<pdfrwt beam="1">  1       -2 0.17254708E+00 0.21024674E+02</pdfrwt>
<totfact> 0.73339513E+04</totfact>
</mgrwt>
</event>
<event>
 4    1  0.2245608E+006  0.2077555E+02  0.7546771E-02  0.1730331E+00
         21   -1    0    0  501  502  0.00000000000E+00  0.00000000000E+00  0.14359099767E+02  0.14359099767E+02  0.00000000000E+00 0.  1.
         -1   -1    0    0    0  501 -0.00000000000E+00 -0.00000000000E+00 -0.58887330633E+02  0.58887330633E+02  0.00000000000E+00 0. -1.
         21    1    1    2  503  502  0.18880180557E+02  0.86696054961E+01  0.33602817395E+01  0.21045540399E+02  0.00000000000E+00 0.  1.
         -1    1    1    2    0  503 -0.18880180557E+02 -0.86696054961E+01 -0.47888512605E+02  0.52200890001E+02  0.00000000000E+00 0. -1.
<mgrwt>
<rscale>  2 0.20775545E+02</rscale>
<asrwt>0</asrwt>
<pdfrwt beam="1">  1       21 0.22090923E-02 0.20775545E+02</pdfrwt>
<pdfrwt beam="2">  1       -1 0.90595892E-02 0.20775545E+02</pdfrwt>
<totfact> 0.42202619E+06</totfact>
</mgrwt>
</event>
<event>
 4    1  0.2245608E+006  0.4947036E+02  0.7546771E-02  0.1448219E+00
         21   -1    0    0  503  502  0.00000000000E+00  0.00000000000E+00  0.93891443338E+01  0.93891443338E+01  0.00000000000E+00 0. -1.
          2   -1    0    0  502    0 -0.00000000000E+00 -0.00000000000E+00 -0.12010157685E+04  0.12010157685E+04  0.00000000000E+00 0. -1.
         21    1    1    2  503  501  0.45212603354E+02 -0.20078277994E+02 -0.60295598431E+02  0.77992794151E+02  0.00000000000E+00 0. -1.
          2    1    1    2  501    0 -0.45212603354E+02  0.20078277994E+02 -0.11313310257E+04  0.11324121187E+04  0.00000000000E+00 0. -1.
<mgrwt>
<rscale>  2 0.49470362E+02</rscale>
<asrwt>0</asrwt>
<pdfrwt beam="1">  1       21 0.14444853E-02 0.49470362E+02</pdfrwt>
<pdfrwt beam="2">  1        2 0.18477145E+00 0.49470362E+02</pdfrwt>
<totfact> 0.49424061E+05</totfact>
</mgrwt>
</event>
<event>
 4    1  0.2245608E+006  0.2266162E+02  0.7546771E-02  0.1697055E+00
         -2   -1    0    0    0  501 -0.00000000000E+00  0.00000000000E+00  0.22567599505E+02  0.22567599505E+02  0.00000000000E+00 0. -1.
         21   -1    0    0  501  502  0.00000000000E+00 -0.00000000000E+00 -0.17787486310E+03  0.17787486310E+03  0.00000000000E+00 0.  1.
         21    1    1    2  503  502  0.22193581223E+02  0.45819195449E+01 -0.17124476490E+03  0.17273771604E+03  0.00000000000E+00 0.  1.
         -2    1    1    2    0  503 -0.22193581223E+02 -0.45819195449E+01  0.15937501312E+02  0.27704746566E+02  0.00000000000E+00 0. -1.
<mgrwt>
<rscale>  2 0.22661620E+02</rscale>
<asrwt>0</asrwt>
<pdfrwt beam="2">  1       21 0.27365363E-01 0.22661620E+02</pdfrwt>
<pdfrwt beam="1">  1       -2 0.34719385E-02 0.22661620E+02</pdfrwt>
<totfact> 0.26295931E+05</totfact>
</mgrwt>
</event>
<event>
 4    1  0.2245608E+006  0.2785665E+02  0.7546771E-02  0.1623065E+00
         21   -1    0    0  503  502  0.00000000000E+00  0.00000000000E+00  0.37978820092E+01  0.37978820092E+01  0.00000000000E+00 0. -1.
          2   -1    0    0  502    0 -0.00000000000E+00 -0.00000000000E+00 -0.14188764732E+04  0.14188764732E+04  0.00000000000E+00 0. -1.
         21    1    1    2  503  501  0.30693720477E+01  0.27687039088E+02 -0.49409424643E+02  0.56721110900E+02  0.00000000000E+00 0. -1.
          2    1    1    2  501    0 -0.30693720477E+01 -0.27687039088E+02 -0.13656691665E+04  0.13659532443E+04  0.00000000000E+00 0. -1.
<mgrwt>
<rscale>  2 0.27856654E+02</rscale>
<asrwt>0</asrwt>
<pdfrwt beam="1">  1       21 0.58428813E-03 0.27856654E+02</pdfrwt>
<pdfrwt beam="2">  1        2 0.21828922E+00 0.27856654E+02</pdfrwt>
<totfact> 0.14288005E+06</totfact>
</mgrwt>
</event>
<event>
 4    1  0.2245608E+006  0.2634981E+02  0.7546771E-02  0.1642338E+00
          2   -1    0    0  503    0 -0.00000000000E+00  0.00000000000E+00  0.22677327765E+03  0.22677327765E+03  0.00000000000E+00 0.  1.
         21   -1    0    0  501  502  0.00000000000E+00 -0.00000000000E+00 -0.36275881823E+03  0.36275881823E+03  0.00000000000E+00 0. -1.
         21    1    1    2  503  502 -0.79197933915E+01 -0.25131440554E+02 -0.36151226212E+03  0.36247127900E+03  0.00000000000E+00 0. -1.
          2    1    1    2  501    0  0.79197933915E+01  0.25131440554E+02  0.22552672154E+03  0.22706081688E+03  0.00000000000E+00 0.  1.
<mgrwt>
<rscale>  2 0.26349809E+02</rscale>
<asrwt>0</asrwt>
<pdfrwt beam="2">  1       21 0.55809049E-01 0.26349809E+02</pdfrwt>
<pdfrwt beam="1">  1        2 0.34888197E-01 0.26349809E+02</pdfrwt>
<totfact> 0.59591999E+03</totfact>
</mgrwt>
</event>
<event>
 4    1  0.2245608E+006  0.2938030E+02  0.7546771E-02  0.1605041E+00
         21   -1    0    0  503  502  0.00000000000E+00  0.00000000000E+00  0.86423764270E+02  0.86423764270E+02  0.00000000000E+00 0.  1.
         -1   -1    0    0    0  501 -0.00000000000E+00 -0.00000000000E+00 -0.35137497939E+02  0.35137497939E+02  0.00000000000E+00 0.  1.
         21    1    1    2  503  501  0.31575437137E+01  0.29210130517E+02  0.77064583725E+02  0.82475159119E+02  0.00000000000E+00 0.  1.
         -1    1    1    2    0  502 -0.31575437137E+01 -0.29210130517E+02 -0.25778317394E+02  0.39086103090E+02  0.00000000000E+00 0.  1.
<mgrwt>
<rscale>  2 0.29380296E+02</rscale>
<asrwt>0</asrwt>
<pdfrwt beam="1">  1       21 0.13295964E-01 0.29380296E+02</pdfrwt>
<pdfrwt beam="2">  1       -1 0.54057689E-02 0.29380296E+02</pdfrwt>
<totfact> 0.53321967E+05</totfact>
</mgrwt>
</event>
<event>
 4    1  0.2245608E+006  0.2061170E+02  0.7546771E-02  0.1733430E+00
         21   -1    0    0  501  502  0.00000000000E+00  0.00000000000E+00  0.91549500519E+03  0.91549500519E+03  0.00000000000E+00 0. -1.
         -4   -1    0    0    0  501 -0.00000000000E+00 -0.00000000000E+00 -0.10849374945E+02  0.10849374945E+02  0.00000000000E+00 0. -1.
         21    1    1    2  503  502 -0.20585277463E+02 -0.10432692724E+01  0.90548118969E+03  0.90571575394E+03  0.00000000000E+00 0. -1.
         -4    1    1    2    0  503  0.20585277463E+02  0.10432692724E+01 -0.83555944375E+00  0.20628626193E+02  0.00000000000E+00 0. -1.
<mgrwt>
<rscale>  2 0.20611697E+02</rscale>
<asrwt>0</asrwt>
<pdfrwt beam="1">  1       21 0.14084532E+00 0.20611697E+02</pdfrwt>
<pdfrwt beam="2">  1       -4 0.16691353E-02 0.20611697E+02</pdfrwt>
<totfact> 0.15422894E+04</totfact>
</mgrwt>
</event>
<event>
 4    1  0.2245608E+006  0.7953225E+02  0.7546771E-02  0.1330384E+00
          1   -1    0    0  503    0 -0.00000000000E+00  0.00000000000E+00  0.37500049372E+03  0.37500049372E+03  0.00000000000E+00 0.  1.
         21   -1    0    0  501  502  0.00000000000E+00 -0.00000000000E+00 -0.29031596633E+02  0.29031596633E+02  0.00000000000E+00 0. -1.
         21    1    1    2  503  502 -0.20914987331E+02  0.76732921891E+02  0.42220624215E+02  0.90044206400E+02  0.00000000000E+00 0. -1.
          1    1    1    2  501    0  0.20914987331E+02 -0.76732921891E+02  0.30374827287E+03  0.31398788396E+03  0.00000000000E+00 0.  1.
<mgrwt>
<rscale>  2 0.79532245E+02</rscale>
<asrwt>0</asrwt>
<pdfrwt beam="2">  1       21 0.44663998E-02 0.79532245E+02</pdfrwt>
<pdfrwt beam="1">  1        1 0.57692380E-01 0.79532245E+02</pdfrwt>
<totfact> 0.22476650E+05</totfact>
</mgrwt>
</event>
<event>
 4    1  0.2245608E+006  0.2502145E+02  0.7546771E-02  0.1660694E+00
          2   -1    0    0  502    0 -0.00000000000E+00  0.00000000000E+00  0.21432434218E+03  0.21432434218E+03  0.00000000000E+00 0.  1.
         21   -1    0    0  503  502  0.00000000000E+00 -0.00000000000E+00 -0.50594598310E+01  0.50594598310E+01  0.00000000000E+00 0.  1.
         21    1    1    2  503  501 -0.36692947401E+01 -0.24750944629E+02  0.33321187343E+02  0.41669827332E+02  0.00000000000E+00 0.  1.
          2    1    1    2  501    0  0.36692947401E+01  0.24750944629E+02  0.17594369501E+03  0.17771397468E+03  0.00000000000E+00 0.  1.
<mgrwt>
<rscale>  2 0.25021450E+02</rscale>
<asrwt>0</asrwt>
<pdfrwt beam="2">  1       21 0.77837860E-03 0.25021450E+02</pdfrwt>
<pdfrwt beam="1">  1        2 0.32972969E-01 0.25021450E+02</pdfrwt>
<totfact> 0.74805260E+06</totfact>
</mgrwt>
</event>
<event>
 4    1  0.2245608E+006  0.2346421E+02  0.7546771E-02  0.1684094E+00
         21   -1    0    0  503  502  0.00000000000E+00  0.00000000000E+00  0.27620176183E+01  0.27620176183E+01  0.00000000000E+00 0.  1.
          2   -1    0    0  502    0 -0.00000000000E+00 -0.00000000000E+00 -0.62889078439E+03  0.62889078439E+03  0.00000000000E+00 0.  1.
         21    1    1    2  503  501 -0.22379491130E+01  0.23357244738E+02 -0.52046573523E+02  0.57091287545E+02  0.00000000000E+00 0.  1.
          2    1    1    2  501    0  0.22379491130E+01 -0.23357244738E+02 -0.57408219325E+03  0.57456151446E+03  0.00000000000E+00 0.  1.
<mgrwt>
<rscale>  2 0.23464213E+02</rscale>
<asrwt>0</asrwt>
<pdfrwt beam="1">  1       21 0.42492535E-03 0.23464213E+02</pdfrwt>
<pdfrwt beam="2">  1        2 0.96752529E-01 0.23464213E+02</pdfrwt>
<totfact> 0.61367789E+06</totfact>
</mgrwt>
</event>
<event>
 4    1  0.2245608E+006  0.2053335E+02  0.7546771E-02  0.1734925E+00
          1   -1    0    0  502    0 -0.00000000000E+00  0.00000000000E+00  0.33610815281E+03  0.33610815281E+03  0.00000000000E+00 0. -1.
         21   -1    0    0  503  502  0.00000000000E+00 -0.00000000000E+00 -0.25351136540E+01  0.25351136540E+01  0.00000000000E+00 0. -1.
         21    1    1    2  503  501 -0.12993976021E+02  0.15898899264E+02  0.46438884541E+02  0.50775864424E+02  0.00000000000E+00 0. -1.
          1    1    1    2  501    0  0.12993976021E+02 -0.15898899264E+02  0.28713415462E+03  0.28786740204E+03  0.00000000000E+00 0. -1.
<mgrwt>
<rscale>  2 0.20533349E+02</rscale>
<asrwt>0</asrwt>
<pdfrwt beam="2">  1       21 0.39001775E-03 0.20533349E+02</pdfrwt>
<pdfrwt beam="1">  1        1 0.51708911E-01 0.20533349E+02</pdfrwt>
<totfact> 0.88567394E+06</totfact>
</mgrwt>
</event>
<event>
 4    1  0.2245608E+006  0.4146401E+02  0.7546771E-02  0.1497706E+00
          4   -1    0    0  503    0 -0.00000000000E+00  0.00000000000E+00  0.50645553948E+02  0.50645553948E+02  0.00000000000E+00 0. -1.
         21   -1    0    0  501  502  0.00000000000E+00 -0.00000000000E+00 -0.48250455037E+02  0.48250455037E+02  0.00000000000E+00 0. -1.
         21    1    1    2  503  502  0.40146641870E+02  0.10368758883E+02 -0.25725157398E+02  0.48795980750E+02  0.00000000000E+00 0. -1.
          4    1    1    2  501    0 -0.40146641870E+02 -0.10368758883E+02  0.28120256309E+02  0.50100028235E+02  0.00000000000E+00 0. -1.
<mgrwt>
<rscale>  2 0.41464009E+02</rscale>
<asrwt>0</asrwt>
<pdfrwt beam="2">  1       21 0.74231469E-02 0.41464009E+02</pdfrwt>
<pdfrwt beam="1">  1        4 0.77916237E-02 0.41464009E+02</pdfrwt>
<totfact> 0.47894992E+05</totfact>
</mgrwt>
</event>
<event>
 4    1  0.2245608E+006  0.2761338E+02  0.7546771E-02  0.1626074E+00
          1   -1    0    0  503    0 -0.00000000000E+00  0.00000000000E+00  0.28508422496E+03  0.28508422496E+03  0.00000000000E+00 0.  1.
         21   -1    0    0  501  502  0.00000000000E+00 -0.00000000000E+00 -0.26747837278E+01  0.26747837278E+01  0.00000000000E+00 0.  1.
         21    1    1    2  503  502  0.21102514062E+02 -0.17809624083E+02  0.14224465786E+03  0.14490010869E+03  0.00000000000E+00 0.  1.
          1    1    1    2  501    0 -0.21102514062E+02  0.17809624083E+02  0.14016478337E+03  0.14285889999E+03  0.00000000000E+00 0.  1.
<mgrwt>
<rscale>  2 0.27613381E+02</rscale>
<asrwt>0</asrwt>
<pdfrwt beam="2">  1       21 0.41150541E-03 0.27613381E+02</pdfrwt>
<pdfrwt beam="1">  1        1 0.43859087E-01 0.27613381E+02</pdfrwt>
<totfact> 0.10744906E+07</totfact>
</mgrwt>
</event>
<event>
 4    1  0.2245608E+006  0.2170568E+02  0.7546771E-02  0.1713392E+00
         21   -1    0    0  503  502  0.00000000000E+00  0.00000000000E+00  0.10587015081E+02  0.10587015081E+02  0.00000000000E+00 0.  1.
          2   -1    0    0  502    0 -0.00000000000E+00 -0.00000000000E+00 -0.10572370339E+04  0.10572370339E+04  0.00000000000E+00 0. -1.
         21    1    1    2  503  501  0.14138102356E+02 -0.16469688108E+02 -0.77053301594E+00  0.21719352793E+02  0.00000000000E+00 0.  1.
          2    1    1    2  501    0 -0.14138102356E+02  0.16469688108E+02 -0.10458794858E+04  0.10461046962E+04  0.00000000000E+00 0. -1.
<mgrwt>
<rscale>  2 0.21705680E+02</rscale>
<asrwt>0</asrwt>
<pdfrwt beam="1">  1       21 0.16287719E-02 0.21705680E+02</pdfrwt>
<pdfrwt beam="2">  1        2 0.16265182E+00 0.21705680E+02</pdfrwt>
<totfact> 0.44705782E+05</totfact>
</mgrwt>
</event>
<event>
 4    1  0.2245608E+006  0.2536080E+02  0.7546771E-02  0.1655873E+00
         21   -1    0    0  501  502  0.00000000000E+00  0.00000000000E+00  0.86985899575E+01  0.86985899575E+01  0.00000000000E+00 0. -1.
         -3   -1    0    0    0  501 -0.00000000000E+00 -0.00000000000E+00 -0.74295567782E+02  0.74295567782E+02  0.00000000000E+00 0.  1.
         21    1    1    2  503  502 -0.15565775418E+01  0.25312982703E+02 -0.29926003018E+02  0.39226721550E+02  0.00000000000E+00 0. -1.
         -3    1    1    2    0  503  0.15565775418E+01 -0.25312982703E+02 -0.35670974807E+02  0.43767436190E+02  0.00000000000E+00 0.  1.
<mgrwt>
<rscale>  2 0.25360797E+02</rscale>
<asrwt>0</asrwt>
<pdfrwt beam="1">  1       21 0.13382446E-02 0.25360797E+02</pdfrwt>
<pdfrwt beam="2">  1       -3 0.11430087E-01 0.25360797E+02</pdfrwt>
<totfact> 0.39570985E+06</totfact>
</mgrwt>
</event>
<event>
 4    1  0.2245608E+006  0.4288754E+02  0.7546771E-02  0.1487977E+00
         21   -1    0    0  501  502  0.00000000000E+00  0.00000000000E+00  0.98654268337E+01  0.98654268337E+01  0.00000000000E+00 0.  1.
          3   -1    0    0  503    0 -0.00000000000E+00 -0.00000000000E+00 -0.29642994779E+03  0.29642994779E+03  0.00000000000E+00 0. -1.
         21    1    1    2  503  502 -0.42498871918E+02 -0.57608479893E+01 -0.49995580443E+02  0.65870323726E+02  0.00000000000E+00 0.  1.
          3    1    1    2  501    0  0.42498871918E+02  0.57608479893E+01 -0.23656894052E+03  0.24042505090E+03  0.00000000000E+00 0. -1.
<mgrwt>
<rscale>  2 0.42887545E+02</rscale>
<asrwt>0</asrwt>
<pdfrwt beam="1">  1       21 0.15177582E-02 0.42887545E+02</pdfrwt>
<pdfrwt beam="2">  1        3 0.45604600E-01 0.42887545E+02</pdfrwt>
<totfact> 0.34975049E+05</totfact>
</mgrwt>
</event>
<event>
 4    1  0.2245608E+006  0.2303913E+02  0.7546771E-02  0.1690877E+00
          1   -1    0    0  503    0 -0.00000000000E+00  0.00000000000E+00  0.32537870555E+03  0.32537870555E+03  0.00000000000E+00 0. -1.
         21   -1    0    0  501  502  0.00000000000E+00 -0.00000000000E+00 -0.54698334474E+01  0.54698334474E+01  0.00000000000E+00 0. -1.
         21    1    1    2  503  502 -0.62477557176E+01  0.22175821225E+02  0.21376882896E+02  0.31428850136E+02  0.00000000000E+00 0. -1.
          1    1    1    2  501    0  0.62477557176E+01 -0.22175821225E+02  0.29853198921E+03  0.29941968886E+03  0.00000000000E+00 0. -1.
<mgrwt>
<rscale>  2 0.23039130E+02</rscale>
<asrwt>0</asrwt>
<pdfrwt beam="2">  1       21 0.84151309E-03 0.23039130E+02</pdfrwt>
<pdfrwt beam="1">  1        1 0.50058247E-01 0.23039130E+02</pdfrwt>
<totfact> 0.30434260E+06</totfact>
</mgrwt>
</event>
<event>
 4    1  0.2245608E+006  0.2224993E+02  0.7546771E-02  0.1703965E+00
         21   -1    0    0  501  502  0.00000000000E+00  0.00000000000E+00  0.65436432153E+03  0.65436432153E+03  0.00000000000E+00 0. -1.
          1   -1    0    0  503    0 -0.00000000000E+00 -0.00000000000E+00 -0.61946847248E+01  0.61946847248E+01  0.00000000000E+00 0. -1.
         21    1    1    2  503  502 -0.18343651245E+02 -0.12592457880E+02  0.63353944996E+03  0.63393003888E+03  0.00000000000E+00 0. -1.
          1    1    1    2  501    0  0.18343651245E+02  0.12592457880E+02  0.14630186847E+02  0.26628967378E+02  0.00000000000E+00 0. -1.
<mgrwt>
<rscale>  2 0.22249933E+02</rscale>
<asrwt>0</asrwt>
<pdfrwt beam="1">  1       21 0.10067138E+00 0.22249933E+02</pdfrwt>
<pdfrwt beam="2">  1        1 0.95302894E-03 0.22249933E+02</pdfrwt>
<totfact> 0.12263595E+05</totfact>
</mgrwt>
</event>
<event>
 4    1  0.2245608E+006  0.2033181E+02  0.7546771E-02  0.1738809E+00
         -3   -1    0    0    0  501 -0.00000000000E+00  0.00000000000E+00  0.34105083830E+03  0.34105083830E+03  0.00000000000E+00 0. -1.
         21   -1    0    0  503  502  0.00000000000E+00 -0.00000000000E+00 -0.15742745657E+01  0.15742745657E+01  0.00000000000E+00 0.  1.
         21    1    1    2  503  501 -0.20161219068E+02  0.26282604570E+01  0.87567561170E+02  0.89896942532E+02  0.00000000000E+00 0.  1.
         -3    1    1    2    0  502  0.20161219068E+02 -0.26282604570E+01  0.25190900256E+03  0.25272817033E+03  0.00000000000E+00 0. -1.
<mgrwt>
<rscale>  2 0.20331810E+02</rscale>
<asrwt>0</asrwt>
<pdfrwt beam="2">  1       21 0.24219636E-03 0.20331810E+02</pdfrwt>
<pdfrwt beam="1">  1       -3 0.52469301E-01 0.20331810E+02</pdfrwt>
<totfact> 0.32617489E+06</totfact>
</mgrwt>
</event>
<event>
 4    1  0.2245608E+006  0.3056137E+02  0.7546771E-02  0.1591965E+00
         21   -1    0    0  503  502  0.00000000000E+00  0.00000000000E+00  0.76204636036E+02  0.76204636036E+02  0.00000000000E+00 0. -1.
         -1   -1    0    0    0  501 -0.00000000000E+00 -0.00000000000E+00 -0.52248164292E+03  0.52248164292E+03  0.00000000000E+00 0. -1.
         21    1    1    2  503  501  0.11693926349E+02 -0.28235600315E+02  0.72672787936E+02  0.78837371500E+02  0.00000000000E+00 0. -1.
         -1    1    1    2    0  502 -0.11693926349E+02  0.28235600315E+02 -0.51894979482E+03  0.51984890745E+03  0.00000000000E+00 0. -1.
<mgrwt>
<rscale>  2 0.30561365E+02</rscale>
<asrwt>0</asrwt>
<pdfrwt beam="1">  1       21 0.11723790E-01 0.30561365E+02</pdfrwt>
<pdfrwt beam="2">  1       -1 0.80381795E-01 0.30561365E+02</pdfrwt>
<totfact> 0.91664223E+03</totfact>
</mgrwt>
</event>
<event>
 4    1  0.2245608E+006  0.2339517E+02  0.7546771E-02  0.1685184E+00
          1   -1    0    0  503    0 -0.00000000000E+00  0.00000000000E+00  0.21650720878E+03  0.21650720878E+03  0.00000000000E+00 0.  1.
         21   -1    0    0  501  502  0.00000000000E+00 -0.00000000000E+00 -0.12177238223E+02  0.12177238223E+02  0.00000000000E+00 0. -1.
         21    1    1    2  503  502 -0.16762738668E+02 -0.16320059617E+02  0.38125120093E+00  0.23398271432E+02  0.00000000000E+00 0. -1.
          1    1    1    2  501    0  0.16762738668E+02  0.16320059617E+02  0.20394871935E+03  0.20528617557E+03  0.00000000000E+00 0.  1.
<mgrwt>
<rscale>  2 0.23395165E+02</rscale>
<asrwt>0</asrwt>
<pdfrwt beam="2">  1       21 0.18734214E-02 0.23395165E+02</pdfrwt>
<pdfrwt beam="1">  1        1 0.33308799E-01 0.23395165E+02</pdfrwt>
<totfact> 0.14566815E+06</totfact>
</mgrwt>
</event>
<event>
 4    1  0.2245608E+006  0.3971177E+02  0.7546771E-02  0.1510343E+00
         21   -1    0    0  503  502  0.00000000000E+00  0.00000000000E+00  0.29834933308E+02  0.29834933308E+02  0.00000000000E+00 0.  1.
          2   -1    0    0  502    0 -0.00000000000E+00 -0.00000000000E+00 -0.32362858590E+03  0.32362858590E+03  0.00000000000E+00 0.  1.
         21    1    1    2  503  501  0.37074493840E+02 -0.14230480171E+02  0.14759104979E+02  0.42365738978E+02  0.00000000000E+00 0.  1.
          2    1    1    2  501    0 -0.37074493840E+02  0.14230480171E+02 -0.30855275757E+03  0.31109778023E+03  0.00000000000E+00 0.  1.
<mgrwt>
<rscale>  2 0.39711770E+02</rscale>
<asrwt>0</asrwt>
<pdfrwt beam="1">  1       21 0.45899897E-02 0.39711770E+02</pdfrwt>
<pdfrwt beam="2">  1        2 0.49789014E-01 0.39711770E+02</pdfrwt>
<totfact> 0.34345643E+05</totfact>
</mgrwt>
</event>
<event>
 4    1  0.2245608E+006  0.2183654E+02  0.7546771E-02  0.1711094E+00
          1   -1    0    0  503    0 -0.00000000000E+00  0.00000000000E+00  0.75981192975E+03  0.75981192975E+03  0.00000000000E+00 0. -1.
         21   -1    0    0  501  502  0.00000000000E+00 -0.00000000000E+00 -0.25603641810E+01  0.25603641810E+01  0.00000000000E+00 0. -1.
         21    1    1    2  503  502 -0.21196988619E+02 -0.52461710028E+01  0.47434328867E+02  0.52219251160E+02  0.00000000000E+00 0. -1.
          1    1    1    2  501    0  0.21196988619E+02  0.52461710028E+01  0.70981723670E+03  0.71015304277E+03  0.00000000000E+00 0. -1.
<mgrwt>
<rscale>  2 0.21836544E+02</rscale>
<asrwt>0</asrwt>
<pdfrwt beam="2">  1       21 0.39390279E-03 0.21836544E+02</pdfrwt>
<pdfrwt beam="1">  1        1 0.11689396E+00 0.21836544E+02</pdfrwt>
<totfact> 0.32850534E+06</totfact>
</mgrwt>
</event>
<event>
 4    1  0.2245608E+006  0.2345435E+02  0.7546771E-02  0.1684249E+00
         21   -1    0    0  503  502  0.00000000000E+00  0.00000000000E+00  0.29375118233E+01  0.29375118233E+01  0.00000000000E+00 0. -1.
          1   -1    0    0  502    0 -0.00000000000E+00 -0.00000000000E+00 -0.25080023826E+03  0.25080023826E+03  0.00000000000E+00 0.  1.
         21    1    1    2  503  501  0.12465966765E+02  0.19867208522E+02 -0.60078092557E+02  0.64494057921E+02  0.00000000000E+00 0. -1.
          1    1    1    2  501    0 -0.12465966765E+02 -0.19867208522E+02 -0.18778463388E+03  0.18924369216E+03  0.00000000000E+00 0.  1.
<mgrwt>
<rscale>  2 0.23454345E+02</rscale>
<asrwt>0</asrwt>
<pdfrwt beam="1">  1       21 0.45192484E-03 0.23454345E+02</pdfrwt>
<pdfrwt beam="2">  1        1 0.38584657E-01 0.23454345E+02</pdfrwt>
<totfact> 0.10382079E+07</totfact>
</mgrwt>
</event>
<event>
 4    1  0.2245608E+006  0.5658959E+02  0.7546771E-02  0.1412728E+00
         21   -1    0    0  503  502  0.00000000000E+00  0.00000000000E+00  0.27185088546E+02  0.27185088546E+02  0.00000000000E+00 0. -1.
          1   -1    0    0  502    0 -0.00000000000E+00 -0.00000000000E+00 -0.20129207204E+03  0.20129207204E+03  0.00000000000E+00 0.  1.
         21    1    1    2  503  501 -0.32396458960E+02  0.46398825492E+02 -0.13479524614E+02  0.58172838542E+02  0.00000000000E+00 0. -1.
          1    1    1    2  501    0  0.32396458960E+02 -0.46398825492E+02 -0.16062745888E+03  0.17030432204E+03  0.00000000000E+00 0.  1.
<mgrwt>
<rscale>  2 0.56589589E+02</rscale>
<asrwt>0</asrwt>
<pdfrwt beam="1">  1       21 0.41823212E-02 0.56589589E+02</pdfrwt>
<pdfrwt beam="2">  1        1 0.30968012E-01 0.56589589E+02</pdfrwt>
<totfact> 0.51537120E+05</totfact>
</mgrwt>
</event>
<event>
 4    1  0.2245608E+006  0.2193820E+02  0.7546771E-02  0.1709323E+00
          4   -1    0    0  502    0 -0.00000000000E+00  0.00000000000E+00  0.45623196623E+01  0.45623196623E+01  0.00000000000E+00 0. -1.
         21   -1    0    0  503  502  0.00000000000E+00 -0.00000000000E+00 -0.20149909343E+03  0.20149909343E+03  0.00000000000E+00 0. -1.
         21    1    1    2  503  501  0.21582275904E+02  0.39357149545E+01 -0.16958705996E+03  0.17100016197E+03  0.00000000000E+00 0. -1.
          4    1    1    2  501    0 -0.21582275904E+02 -0.39357149545E+01 -0.27349713806E+02  0.35061251128E+02  0.00000000000E+00 0. -1.
<mgrwt>
<rscale>  2 0.21938197E+02</rscale>
<asrwt>0</asrwt>
<pdfrwt beam="2">  1       21 0.30999854E-01 0.21938197E+02</pdfrwt>
<pdfrwt beam="1">  1        4 0.70189547E-03 0.21938197E+02</pdfrwt>
<totfact> 0.12020095E+06</totfact>
</mgrwt>
</event>
<event>
 4    1  0.2245608E+006  0.2959087E+02  0.7546771E-02  0.1602656E+00
          2   -1    0    0  502    0 -0.00000000000E+00  0.00000000000E+00  0.22063050068E+03  0.22063050068E+03  0.00000000000E+00 0. -1.
         21   -1    0    0  503  502  0.00000000000E+00 -0.00000000000E+00 -0.47840144777E+02  0.47840144777E+02  0.00000000000E+00 0.  1.
         21    1    1    2  503  501 -0.22778419988E+02  0.18888174782E+02 -0.42151679230E+02  0.51501297320E+02  0.00000000000E+00 0.  1.
          2    1    1    2  501    0  0.22778419988E+02 -0.18888174782E+02  0.21494203513E+03  0.21696934814E+03  0.00000000000E+00 0. -1.
<mgrwt>
<rscale>  2 0.29590870E+02</rscale>
<asrwt>0</asrwt>
<pdfrwt beam="2">  1       21 0.73600224E-02 0.29590870E+02</pdfrwt>
<pdfrwt beam="1">  1        2 0.33943153E-01 0.29590870E+02</pdfrwt>
<totfact> 0.22640928E+05</totfact>
</mgrwt>
</event>
<event>
 4    1  0.2245608E+006  0.2025407E+02  0.7546771E-02  0.1740322E+00
         21   -1    0    0  503  502  0.00000000000E+00  0.00000000000E+00  0.31121834686E+01  0.31121834686E+01  0.00000000000E+00 0.  1.
          3   -1    0    0  502    0 -0.00000000000E+00 -0.00000000000E+00 -0.19808332095E+03  0.19808332095E+03  0.00000000000E+00 0.  1.
         21    1    1    2  503  501  0.17851993186E+02 -0.95673190577E+01 -0.39298994225E+02  0.44211290433E+02  0.00000000000E+00 0.  1.
          3    1    1    2  501    0 -0.17851993186E+02  0.95673190577E+01 -0.15567214326E+03  0.15698421399E+03  0.00000000000E+00 0.  1.
<mgrwt>
<rscale>  2 0.20254068E+02</rscale>
<asrwt>0</asrwt>
<pdfrwt beam="1">  1       21 0.47879751E-03 0.20254068E+02</pdfrwt>
<pdfrwt beam="2">  1        3 0.30474354E-01 0.20254068E+02</pdfrwt>
<totfact> 0.32652181E+06</totfact>
</mgrwt>
</event>
<event>
 4    1  0.2245608E+006  0.2180552E+02  0.7546771E-02  0.1711637E+00
         21   -1    0    0  503  502  0.00000000000E+00  0.00000000000E+00  0.76112150876E+01  0.76112150876E+01  0.00000000000E+00 0. -1.
         -2   -1    0    0    0  501 -0.00000000000E+00 -0.00000000000E+00 -0.91544693681E+02  0.91544693681E+02  0.00000000000E+00 0.  1.
         21    1    1    2  503  501  0.21386021773E+02 -0.42566295331E+01 -0.14027052868E+02  0.25927572860E+02  0.00000000000E+00 0. -1.
         -2    1    1    2    0  502 -0.21386021773E+02  0.42566295331E+01 -0.69906425725E+02  0.73228335909E+02  0.00000000000E+00 0.  1.
<mgrwt>
<rscale>  2 0.21805523E+02</rscale>
<asrwt>0</asrwt>
<pdfrwt beam="1">  1       21 0.11709561E-02 0.21805523E+02</pdfrwt>
<pdfrwt beam="2">  1       -2 0.14083800E-01 0.21805523E+02</pdfrwt>
<totfact> 0.55414320E+06</totfact>
</mgrwt>
</event>
<event>
 4    1  0.2245608E+006  0.4434226E+02  0.7546771E-02  0.1478490E+00
          2   -1    0    0  503    0 -0.00000000000E+00  0.00000000000E+00  0.10070275616E+04  0.10070275616E+04  0.00000000000E+00 0. -1.
         21   -1    0    0  501  502  0.00000000000E+00 -0.00000000000E+00 -0.33134894799E+01  0.33134894799E+01  0.00000000000E+00 0. -1.
         21    1    1    2  503  502  0.18988759262E+02 -0.40070730425E+02  0.17809926836E+03  0.18353633375E+03  0.00000000000E+00 0. -1.
          2    1    1    2  501    0 -0.18988759262E+02  0.40070730425E+02  0.82561480377E+03  0.82680471735E+03  0.00000000000E+00 0. -1.
<mgrwt>
<rscale>  2 0.44342264E+02</rscale>
<asrwt>0</asrwt>
<pdfrwt beam="2">  1       21 0.50976842E-03 0.44342264E+02</pdfrwt>
<pdfrwt beam="1">  1        2 0.15492707E+00 0.44342264E+02</pdfrwt>
<totfact> 0.30605147E+06</totfact>
</mgrwt>
</event>
<event>
 4    1  0.2245608E+006  0.2024386E+02  0.7546771E-02  0.1740522E+00
          4   -1    0    0  503    0 -0.00000000000E+00  0.00000000000E+00  0.11378538063E+03  0.11378538063E+03  0.00000000000E+00 0. -1.
         21   -1    0    0  501  502  0.00000000000E+00 -0.00000000000E+00 -0.47655943469E+01  0.47655943469E+01  0.00000000000E+00 0. -1.
         21    1    1    2  503  502  0.62969974979E+01 -0.19239587928E+02  0.25215489224E+02  0.32336277119E+02  0.00000000000E+00 0. -1.
          4    1    1    2  501    0 -0.62969974979E+01  0.19239587928E+02  0.83804297059E+02  0.86214697858E+02  0.00000000000E+00 0. -1.
<mgrwt>
<rscale>  2 0.20243861E+02</rscale>
<asrwt>0</asrwt>
<pdfrwt beam="2">  1       21 0.73316844E-03 0.20243861E+02</pdfrwt>
<pdfrwt beam="1">  1        4 0.17505441E-01 0.20243861E+02</pdfrwt>
<totfact> 0.35570997E+06</totfact>
</mgrwt>
</event>
<event>
 4    1  0.2245608E+006  0.2482563E+02  0.7546771E-02  0.1663519E+00
         21   -1    0    0  503  502  0.00000000000E+00  0.00000000000E+00  0.11397493957E+01  0.11397493957E+01  0.00000000000E+00 0. -1.
          2   -1    0    0  502    0 -0.00000000000E+00 -0.00000000000E+00 -0.11947593807E+04  0.11947593807E+04  0.00000000000E+00 0.  1.
         21    1    1    2  503  501 -0.72770912901E+01  0.23735118623E+02 -0.15440634596E+03  0.15638935893E+03  0.00000000000E+00 0. -1.
          2    1    1    2  501    0  0.72770912901E+01 -0.23735118623E+02 -0.10392132853E+04  0.10395097711E+04  0.00000000000E+00 0.  1.
<mgrwt>
<rscale>  2 0.24825630E+02</rscale>
<asrwt>0</asrwt>
<pdfrwt beam="1">  1       21 0.17534509E-03 0.24825630E+02</pdfrwt>
<pdfrwt beam="2">  1        2 0.18381016E+00 0.24825630E+02</pdfrwt>
<totfact> 0.10527902E+07</totfact>
</mgrwt>
</event>
<event>
 4    1  0.2245608E+006  0.3622261E+02  0.7546771E-02  0.1538004E+00
          1   -1    0    0  502    0 -0.00000000000E+00  0.00000000000E+00  0.26037355666E+03  0.26037355666E+03  0.00000000000E+00 0. -1.
         21   -1    0    0  503  502  0.00000000000E+00 -0.00000000000E+00 -0.10252429745E+03  0.10252429745E+03  0.00000000000E+00 0.  1.
         21    1    1    2  503  501 -0.13732887444E+02  0.33518436128E+02 -0.98008879156E+02  0.10448836371E+03  0.00000000000E+00 0.  1.
          1    1    1    2  501    0  0.13732887444E+02 -0.33518436128E+02  0.25585813836E+03  0.25840949039E+03  0.00000000000E+00 0. -1.
<mgrwt>
<rscale>  2 0.36222614E+02</rscale>
<asrwt>0</asrwt>
<pdfrwt beam="2">  1       21 0.15772969E-01 0.36222614E+02</pdfrwt>
<pdfrwt beam="1">  1        1 0.40057470E-01 0.36222614E+02</pdfrwt>
<totfact> 0.39400929E+04</totfact>
</mgrwt>
</event>
<event>
 4    1  0.2245608E+006  0.2296606E+02  0.7546771E-02  0.1692061E+00
         21   -1    0    0  501  502  0.00000000000E+00  0.00000000000E+00  0.27427437855E+00  0.27427437855E+00  0.00000000000E+00 0. -1.
          2   -1    0    0  503    0 -0.00000000000E+00 -0.00000000000E+00 -0.20559042188E+04  0.20559042188E+04  0.00000000000E+00 0. -1.
         21    1    1    2  503  502  0.22883672468E+02  0.19435978016E+01 -0.76645639869E+03  0.76680039850E+03  0.00000000000E+00 0. -1.
          2    1    1    2  501    0 -0.22883672468E+02 -0.19435978016E+01 -0.12891735458E+04  0.12893780947E+04  0.00000000000E+00 0. -1.
<mgrwt>
<rscale>  2 0.22966063E+02</rscale>
<asrwt>0</asrwt>
<pdfrwt beam="1">  1       21 0.42196307E-04 0.22966063E+02</pdfrwt>
<pdfrwt beam="2">  1        2 0.31629109E+00 0.22966063E+02</pdfrwt>
<totfact> 0.30670103E+07</totfact>
</mgrwt>
</event>
<event>
 4    1  0.2245608E+006  0.3476790E+02  0.7546771E-02  0.1550671E+00
         21   -1    0    0  501  502  0.00000000000E+00  0.00000000000E+00  0.17807384549E+01  0.17807384549E+01  0.00000000000E+00 0.  1.
          1   -1    0    0  503    0 -0.00000000000E+00 -0.00000000000E+00 -0.87983254627E+03  0.87983254627E+03  0.00000000000E+00 0.  1.
         21    1    1    2  503  502  0.13699364984E+02 -0.31955195380E+02 -0.22833008438E+03  0.23096197640E+03  0.00000000000E+00 0.  1.
          1    1    1    2  501    0 -0.13699364984E+02  0.31955195380E+02 -0.64972172344E+03  0.65065130832E+03  0.00000000000E+00 0.  1.
<mgrwt>
<rscale>  2 0.34767903E+02</rscale>
<asrwt>0</asrwt>
<pdfrwt beam="1">  1       21 0.27395976E-03 0.34767903E+02</pdfrwt>
<pdfrwt beam="2">  1        1 0.13535885E+00 0.34767903E+02</pdfrwt>
<totfact> 0.50087960E+06</totfact>
</mgrwt>
</event>
<event>
 4    1  0.2245608E+006  0.2117201E+02  0.7546771E-02  0.1722978E+00
         21   -1    0    0  501  502  0.00000000000E+00  0.00000000000E+00  0.55373902330E+00  0.55373902330E+00  0.00000000000E+00 0. -1.
          2   -1    0    0  503    0 -0.00000000000E+00 -0.00000000000E+00 -0.12832746632E+04  0.12832746632E+04  0.00000000000E+00 0. -1.
         21    1    1    2  503  502  0.13982746126E+01  0.21125784955E+02 -0.25132755497E+03  0.25221775086E+03  0.00000000000E+00 0. -1.
          2    1    1    2  501    0 -0.13982746126E+01 -0.21125784955E+02 -0.10313933692E+04  0.10316106514E+04  0.00000000000E+00 0. -1.
<mgrwt>
<rscale>  2 0.21172009E+02</rscale>
<asrwt>0</asrwt>
<pdfrwt beam="1">  1       21 0.85190787E-04 0.21172009E+02</pdfrwt>
<pdfrwt beam="2">  1        2 0.19742648E+00 0.21172009E+02</pdfrwt>
<totfact> 0.25648767E+07</totfact>
</mgrwt>
</event>
<event>
 4    1  0.2245608E+006  0.2986891E+02  0.7546771E-02  0.1599542E+00
         21   -1    0    0  503  502  0.00000000000E+00  0.00000000000E+00  0.88017769954E+02  0.88017769954E+02  0.00000000000E+00 0.  1.
          1   -1    0    0  502    0 -0.00000000000E+00 -0.00000000000E+00 -0.17362639027E+04  0.17362639027E+04  0.00000000000E+00 0.  1.
         21    1    1    2  503  501  0.16071421527E+02  0.25176595624E+02  0.85351404509E+02  0.90426842302E+02  0.00000000000E+00 0.  1.
          1    1    1    2  501    0 -0.16071421527E+02 -0.25176595624E+02 -0.17335975373E+04  0.17338548304E+04  0.00000000000E+00 0.  1.
<mgrwt>
<rscale>  2 0.29868906E+02</rscale>
<asrwt>0</asrwt>
<pdfrwt beam="1">  1       21 0.13541196E-01 0.29868906E+02</pdfrwt>
<pdfrwt beam="2">  1        1 0.26711751E+00 0.29868906E+02</pdfrwt>
<totfact> 0.31737279E+03</totfact>
</mgrwt>
</event>
<event>
 4    1  0.2245608E+006  0.2067324E+02  0.7546771E-02  0.1732262E+00
         21   -1    0    0  503  502  0.00000000000E+00  0.00000000000E+00  0.18930519408E+03  0.18930519408E+03  0.00000000000E+00 0. -1.
          2   -1    0    0  502    0 -0.00000000000E+00 -0.00000000000E+00 -0.29196826700E+03  0.29196826700E+03  0.00000000000E+00 0.  1.
         21    1    1    2  503  501  0.11409083154E+02 -0.17239943090E+02  0.18837302910E+03  0.18950403929E+03  0.00000000000E+00 0. -1.
          2    1    1    2  501    0 -0.11409083154E+02  0.17239943090E+02 -0.29103610201E+03  0.29176942179E+03  0.00000000000E+00 0.  1.
<mgrwt>
<rscale>  2 0.20673239E+02</rscale>
<asrwt>0</asrwt>
<pdfrwt beam="1">  1       21 0.29123876E-01 0.20673239E+02</pdfrwt>
<pdfrwt beam="2">  1        2 0.44918194E-01 0.20673239E+02</pdfrwt>
<totfact> 0.15835439E+04</totfact>
</mgrwt>
</event>
<event>
 4    1  0.2245608E+006  0.2025739E+02  0.7546771E-02  0.1740258E+00
         -3   -1    0    0    0  501 -0.00000000000E+00  0.00000000000E+00  0.27430562602E+03  0.27430562602E+03  0.00000000000E+00 0. -1.
         21   -1    0    0  503  502  0.00000000000E+00 -0.00000000000E+00 -0.96506355899E+01  0.96506355899E+01  0.00000000000E+00 0.  1.
         21    1    1    2  503  501 -0.11239459393E+02  0.16853374651E+02  0.18169122768E+01  0.20338703371E+02  0.00000000000E+00 0.  1.
         -3    1    1    2    0  502  0.11239459393E+02 -0.16853374651E+02  0.26283807815E+03  0.26361755824E+03  0.00000000000E+00 0. -1.
<mgrwt>
<rscale>  2 0.20257386E+02</rscale>
<asrwt>0</asrwt>
<pdfrwt beam="2">  1       21 0.14847134E-02 0.20257386E+02</pdfrwt>
<pdfrwt beam="1">  1       -3 0.42200860E-01 0.20257386E+02</pdfrwt>
<totfact> 0.33728688E+05</totfact>
</mgrwt>
</event>
<event>
 4    1  0.2245608E+006  0.4427161E+02  0.7546771E-02  0.1478941E+00
         -1   -1    0    0    0  501 -0.00000000000E+00  0.00000000000E+00  0.42016344866E+01  0.42016344866E+01  0.00000000000E+00 0. -1.
         21   -1    0    0  501  502  0.00000000000E+00 -0.00000000000E+00 -0.94803789652E+03  0.94803789652E+03  0.00000000000E+00 0. -1.
         21    1    1    2  503  502  0.47487695828E+01 -0.44016181187E+02 -0.81125260662E+03  0.81245970162E+03  0.00000000000E+00 0. -1.
         -1    1    1    2    0  503 -0.47487695828E+01  0.44016181187E+02 -0.13258365541E+03  0.13977982938E+03  0.00000000000E+00 0. -1.
<mgrwt>
<rscale>  2 0.44271605E+02</rscale>
<asrwt>0</asrwt>
<pdfrwt beam="2">  1       21 0.14585227E+00 0.44271605E+02</pdfrwt>
<pdfrwt beam="1">  1       -1 0.64640403E-03 0.44271605E+02</pdfrwt>
<totfact> 0.92030887E+04</totfact>
</mgrwt>
</event>
<event>
 4    1  0.2245608E+006  0.3075413E+02  0.7546771E-02  0.1589899E+00
          1   -1    0    0  502    0 -0.00000000000E+00  0.00000000000E+00  0.18708372363E+03  0.18708372363E+03  0.00000000000E+00 0. -1.
         21   -1    0    0  503  502  0.00000000000E+00 -0.00000000000E+00 -0.28911685299E+03  0.28911685299E+03  0.00000000000E+00 0.  1.
         21    1    1    2  503  501  0.13838065618E+02  0.27464968226E+02 -0.28702592760E+03  0.28866884081E+03  0.00000000000E+00 0.  1.
          1    1    1    2  501    0 -0.13838065618E+02 -0.27464968226E+02  0.18499279823E+03  0.18753173581E+03  0.00000000000E+00 0. -1.
<mgrwt>
<rscale>  2 0.30754130E+02</rscale>
<asrwt>0</asrwt>
<pdfrwt beam="2">  1       21 0.44479516E-01 0.30754130E+02</pdfrwt>
<pdfrwt beam="1">  1        1 0.28782111E-01 0.30754130E+02</pdfrwt>
<totfact> 0.87148529E+03</totfact>
</mgrwt>
</event>
<event>
 4    1  0.2245608E+006  0.2252904E+02  0.7546771E-02  0.1699260E+00
         21   -1    0    0  503  502  0.00000000000E+00  0.00000000000E+00  0.14555590116E+02  0.14555590116E+02  0.00000000000E+00 0. -1.
         -1   -1    0    0    0  501 -0.00000000000E+00 -0.00000000000E+00 -0.77096976562E+02  0.77096976562E+02  0.00000000000E+00 0. -1.
         21    1    1    2  503  501 -0.11848725663E+02 -0.19161564369E+02  0.26441172104E+01  0.22683677055E+02  0.00000000000E+00 0. -1.
         -1    1    1    2    0  502  0.11848725663E+02  0.19161564369E+02 -0.65185503657E+02  0.68968889623E+02  0.00000000000E+00 0. -1.
<mgrwt>
<rscale>  2 0.22529045E+02</rscale>
<asrwt>0</asrwt>
<pdfrwt beam="1">  1       21 0.22393216E-02 0.22529045E+02</pdfrwt>
<pdfrwt beam="2">  1       -1 0.11861073E-01 0.22529045E+02</pdfrwt>
<totfact> 0.28676864E+06</totfact>
</mgrwt>
</event>
<event>
 4    1  0.2245608E+006  0.2245423E+02  0.7546771E-02  0.1700513E+00
          2   -1    0    0  503    0 -0.00000000000E+00  0.00000000000E+00  0.14876470672E+04  0.14876470672E+04  0.00000000000E+00 0.  1.
         21   -1    0    0  501  502  0.00000000000E+00 -0.00000000000E+00 -0.26430667703E+02  0.26430667703E+02  0.00000000000E+00 0. -1.
         21    1    1    2  503  502 -0.57701944377E+01  0.21700170718E+02 -0.21561266689E+02  0.31130062227E+02  0.00000000000E+00 0. -1.
          2    1    1    2  501    0  0.57701944377E+01 -0.21700170718E+02  0.14827776662E+04  0.14829476727E+04  0.00000000000E+00 0.  1.
<mgrwt>
<rscale>  2 0.22454232E+02</rscale>
<asrwt>0</asrwt>
<pdfrwt beam="2">  1       21 0.40662577E-02 0.22454232E+02</pdfrwt>
<pdfrwt beam="1">  1        2 0.22886871E+00 0.22454232E+02</pdfrwt>
<totfact> 0.66859333E+04</totfact>
</mgrwt>
</event>
<event>
 4    1  0.2245608E+006  0.2244018E+02  0.7546771E-02  0.1700749E+00
          1   -1    0    0  503    0 -0.00000000000E+00  0.00000000000E+00  0.51240225241E+03  0.51240225241E+03  0.00000000000E+00 0. -1.
         21   -1    0    0  501  502  0.00000000000E+00 -0.00000000000E+00 -0.26028821100E+01  0.26028821100E+01  0.00000000000E+00 0. -1.
         21    1    1    2  503  502  0.11748162302E+02  0.19119159610E+02  0.51743531470E+02  0.56399952400E+02  0.00000000000E+00 0. -1.
          1    1    1    2  501    0 -0.11748162302E+02 -0.19119159610E+02  0.45805583883E+03  0.45860518212E+03  0.00000000000E+00 0. -1.
<mgrwt>
<rscale>  2 0.22440178E+02</rscale>
<asrwt>0</asrwt>
<pdfrwt beam="2">  1       21 0.40044381E-03 0.22440178E+02</pdfrwt>
<pdfrwt beam="1">  1        1 0.78831035E-01 0.22440178E+02</pdfrwt>
<totfact> 0.53229625E+06</totfact>
</mgrwt>
</event>
<event>
 4    1  0.2245608E+006  0.2971962E+02  0.7546771E-02  0.1601209E+00
         21   -1    0    0  503  502  0.00000000000E+00  0.00000000000E+00  0.12768021555E+03  0.12768021555E+03  0.00000000000E+00 0.  1.
         -3   -1    0    0    0  501 -0.00000000000E+00 -0.00000000000E+00 -0.51731133584E+02  0.51731133584E+02  0.00000000000E+00 0.  1.
         21    1    1    2  503  501  0.24157972978E+02 -0.17310345920E+02  0.12146713254E+03  0.12505007006E+03  0.00000000000E+00 0.  1.
         -3    1    1    2    0  502 -0.24157972978E+02  0.17310345920E+02 -0.45518050575E+02  0.54361279073E+02  0.00000000000E+00 0.  1.
<mgrwt>
<rscale>  2 0.29719619E+02</rscale>
<asrwt>0</asrwt>
<pdfrwt beam="1">  1       21 0.19643110E-01 0.29719619E+02</pdfrwt>
<pdfrwt beam="2">  1       -3 0.79586360E-02 0.29719619E+02</pdfrwt>
<totfact> 0.95739955E+04</totfact>
</mgrwt>
</event>
<event>
 4    1  0.2245608E+006  0.3586900E+02  0.7546771E-02  0.1541016E+00
         -3   -1    0    0    0  501 -0.00000000000E+00  0.00000000000E+00  0.42298107206E+03  0.42298107206E+03  0.00000000000E+00 0.  1.
         21   -1    0    0  503  502  0.00000000000E+00 -0.00000000000E+00 -0.15437549181E+02  0.15437549181E+02  0.00000000000E+00 0. -1.
         21    1    1    2  503  501  0.16055754618E+02  0.32074880046E+02  0.73417647062E+01  0.36612657584E+02  0.00000000000E+00 0. -1.
         -3    1    1    2    0  502 -0.16055754618E+02 -0.32074880046E+02  0.40020175817E+03  0.40180596365E+03  0.00000000000E+00 0.  1.
<mgrwt>
<rscale>  2 0.35869000E+02</rscale>
<asrwt>0</asrwt>
<pdfrwt beam="2">  1       21 0.23750079E-02 0.35869000E+02</pdfrwt>
<pdfrwt beam="1">  1       -3 0.65074002E-01 0.35869000E+02</pdfrwt>
<totfact> 0.83061036E+04</totfact>
</mgrwt>
</event>
<event>
 4    1  0.2245608E+006  0.2008773E+02  0.7546771E-02  0.1743589E+00
         21   -1    0    0  503  502  0.00000000000E+00  0.00000000000E+00  0.37552607623E+00  0.37552607623E+00  0.00000000000E+00 0. -1.
          1   -1    0    0  502    0 -0.00000000000E+00 -0.00000000000E+00 -0.15213603857E+04  0.15213603857E+04  0.00000000000E+00 0. -1.
         21    1    1    2  503  501  0.18326365514E+02 -0.82256531410E+01 -0.34814746179E+03  0.34872650056E+03  0.00000000000E+00 0. -1.
          1    1    1    2  501    0 -0.18326365514E+02  0.82256531410E+01 -0.11728373979E+04  0.11730094112E+04  0.00000000000E+00 0. -1.
<mgrwt>
<rscale>  2 0.20087734E+02</rscale>
<asrwt>0</asrwt>
<pdfrwt beam="1">  1       21 0.57772095E-04 0.20087734E+02</pdfrwt>
<pdfrwt beam="2">  1        1 0.23406009E+00 0.20087734E+02</pdfrwt>
<totfact> 0.16081732E+07</totfact>
</mgrwt>
</event>
<event>
 4    1  0.2245608E+006  0.5959369E+02  0.7546771E-02  0.1399545E+00
          2   -1    0    0  503    0 -0.00000000000E+00  0.00000000000E+00  0.23959502017E+04  0.23959502017E+04  0.00000000000E+00 0.  1.
         21   -1    0    0  501  502  0.00000000000E+00 -0.00000000000E+00 -0.58538870215E+01  0.58538870215E+01  0.00000000000E+00 0.  1.
         21    1    1    2  503  502  0.59575686116E+02  0.14645584557E+01  0.15726348108E+03  0.16817612728E+03  0.00000000000E+00 0.  1.
          2    1    1    2  501    0 -0.59575686116E+02 -0.14645584557E+01  0.22328328336E+04  0.22336279615E+04  0.00000000000E+00 0.  1.
<mgrwt>
<rscale>  2 0.59593685E+02</rscale>
<asrwt>0</asrwt>
<pdfrwt beam="2">  1       21 0.90059991E-03 0.59593685E+02</pdfrwt>
<pdfrwt beam="1">  1        2 0.36860694E+00 0.59593685E+02</pdfrwt>
<totfact> 0.26383778E+05</totfact>
</mgrwt>
</event>
<event>
 4    1  0.2245608E+006  0.2345128E+02  0.7546771E-02  0.1684298E+00
         21   -1    0    0  501  502  0.00000000000E+00  0.00000000000E+00  0.45230868791E+01  0.45230868791E+01  0.00000000000E+00 0.  1.
          2   -1    0    0  503    0 -0.00000000000E+00 -0.00000000000E+00 -0.11855513518E+04  0.11855513518E+04  0.00000000000E+00 0. -1.
         21    1    1    2  503  502 -0.12633149876E+02  0.19757685606E+02 -0.26815669012E+02  0.35623625881E+02  0.00000000000E+00 0.  1.
          2    1    1    2  501    0  0.12633149876E+02 -0.19757685606E+02 -0.11542125959E+04  0.11544508128E+04  0.00000000000E+00 0. -1.
<mgrwt>
<rscale>  2 0.23451282E+02</rscale>
<asrwt>0</asrwt>
<pdfrwt beam="1">  1       21 0.69586019E-03 0.23451282E+02</pdfrwt>
<pdfrwt beam="2">  1        2 0.18239234E+00 0.23451282E+02</pdfrwt>
<totfact> 0.13965652E+06</totfact>
</mgrwt>
</event>
<event>
 4    1  0.2245608E+006  0.2730864E+02  0.7546771E-02  0.1629897E+00
         21   -1    0    0  501  502  0.00000000000E+00  0.00000000000E+00  0.29243449579E+02  0.29243449579E+02  0.00000000000E+00 0.  1.
          3   -1    0    0  503    0 -0.00000000000E+00 -0.00000000000E+00 -0.12943834739E+03  0.12943834739E+03  0.00000000000E+00 0. -1.
         21    1    1    2  503  502  0.18489927245E+02  0.20096871051E+02  0.20999293770E+02  0.34448976391E+02  0.00000000000E+00 0.  1.
          3    1    1    2  501    0 -0.18489927245E+02 -0.20096871051E+02 -0.12119419158E+03  0.12423282058E+03  0.00000000000E+00 0. -1.
<mgrwt>
<rscale>  2 0.27308637E+02</rscale>
<asrwt>0</asrwt>
<pdfrwt beam="1">  1       21 0.44989923E-02 0.27308637E+02</pdfrwt>
<pdfrwt beam="2">  1        3 0.19913592E-01 0.27308637E+02</pdfrwt>
<totfact> 0.24819997E+05</totfact>
</mgrwt>
</event>
<event>
 4    1  0.2245608E+006  0.3823734E+02  0.7546771E-02  0.1521598E+00
         -3   -1    0    0    0  501 -0.00000000000E+00  0.00000000000E+00  0.58190346903E+03  0.58190346903E+03  0.00000000000E+00 0.  1.
         21   -1    0    0  501  502  0.00000000000E+00 -0.00000000000E+00 -0.13890375455E+02  0.13890375455E+02  0.00000000000E+00 0.  1.
         21    1    1    2  503  502 -0.34822723937E+02  0.15794691403E+02  0.14395563050E+02  0.40857393633E+02  0.00000000000E+00 0.  1.
         -3    1    1    2    0  503  0.34822723937E+02 -0.15794691403E+02  0.55361753053E+03  0.55493645086E+03  0.00000000000E+00 0.  1.
<mgrwt>
<rscale>  2 0.38237343E+02</rscale>
<asrwt>0</asrwt>
<pdfrwt beam="2">  1       21 0.21369813E-02 0.38237343E+02</pdfrwt>
<pdfrwt beam="1">  1       -3 0.89523592E-01 0.38237343E+02</pdfrwt>
<totfact> 0.51078391E+04</totfact>
</mgrwt>
</event>
<event>
 4    1  0.2245608E+006  0.2723650E+02  0.7546771E-02  0.1630811E+00
          2   -1    0    0  502    0 -0.00000000000E+00  0.00000000000E+00  0.27082135607E+03  0.27082135607E+03  0.00000000000E+00 0. -1.
         21   -1    0    0  503  502  0.00000000000E+00 -0.00000000000E+00 -0.79328285838E+01  0.79328285838E+01  0.00000000000E+00 0. -1.
         21    1    1    2  503  501 -0.12838847579E+02 -0.24020636074E+02  0.18668994251E+02  0.33020574054E+02  0.00000000000E+00 0. -1.
          2    1    1    2  501    0  0.12838847579E+02  0.24020636074E+02  0.24421953324E+03  0.24573361060E+03  0.00000000000E+00 0. -1.
<mgrwt>
<rscale>  2 0.27236501E+02</rscale>
<asrwt>0</asrwt>
<pdfrwt beam="2">  1       21 0.12204354E-02 0.27236501E+02</pdfrwt>
<pdfrwt beam="1">  1        2 0.41664817E-01 0.27236501E+02</pdfrwt>
<totfact> 0.30657967E+06</totfact>
</mgrwt>
</event>
<event>
 4    1  0.2245608E+006  0.2090128E+02  0.7546771E-02  0.1727977E+00
         21   -1    0    0  501  502  0.00000000000E+00  0.00000000000E+00  0.15061652279E+01  0.15061652279E+01  0.00000000000E+00 0. -1.
          2   -1    0    0  503    0 -0.00000000000E+00 -0.00000000000E+00 -0.44841655136E+03  0.44841655136E+03  0.00000000000E+00 0. -1.
         21    1    1    2  503  502 -0.20900976581E+02  0.11267303235E+00 -0.89765301359E+02  0.92166549493E+02  0.00000000000E+00 0. -1.
          2    1    1    2  501    0  0.20900976581E+02 -0.11267303235E+00 -0.35714508477E+03  0.35775616709E+03  0.00000000000E+00 0. -1.
<mgrwt>
<rscale>  2 0.20901280E+02</rscale>
<asrwt>0</asrwt>
<pdfrwt beam="1">  1       21 0.23171775E-03 0.20901280E+02</pdfrwt>
<pdfrwt beam="2">  1        2 0.68987156E-01 0.20901280E+02</pdfrwt>
<totfact> 0.20300759E+07</totfact>
</mgrwt>
</event>
<event>
 4    1  0.2245608E+006  0.6968724E+02  0.7546771E-02  0.1361160E+00
         21   -1    0    0  503  502  0.00000000000E+00  0.00000000000E+00  0.14471902460E+03  0.14471902460E+03  0.00000000000E+00 0.  1.
          1   -1    0    0  502    0 -0.00000000000E+00 -0.00000000000E+00 -0.71711661452E+03  0.71711661452E+03  0.00000000000E+00 0. -1.
         21    1    1    2  503  501 -0.32423724537E+02 -0.61684787403E+02  0.13451602947E+03  0.15149545569E+03  0.00000000000E+00 0.  1.
          1    1    1    2  501    0  0.32423724537E+02  0.61684787403E+02 -0.70691361940E+03  0.71034018343E+03  0.00000000000E+00 0. -1.
<mgrwt>
<rscale>  2 0.69687236E+02</rscale>
<asrwt>0</asrwt>
<pdfrwt beam="1">  1       21 0.22264465E-01 0.69687236E+02</pdfrwt>
<pdfrwt beam="2">  1        1 0.11032563E+00 0.69687236E+02</pdfrwt>
<totfact> 0.60274701E+03</totfact>
</mgrwt>
</event>
<event>
 4    1  0.2245608E+006  0.3633978E+02  0.7546771E-02  0.1537015E+00
         21   -1    0    0  503  502  0.00000000000E+00  0.00000000000E+00  0.59560617205E+01  0.59560617205E+01  0.00000000000E+00 0. -1.
          2   -1    0    0  502    0 -0.00000000000E+00 -0.00000000000E+00 -0.26795081515E+04  0.26795081515E+04  0.00000000000E+00 0. -1.
         21    1    1    2  503  501  0.36277798041E+02  0.21216002776E+01 -0.50796595005E+02  0.62456976252E+02  0.00000000000E+00 0. -1.
          2    1    1    2  501    0 -0.36277798041E+02 -0.21216002776E+01 -0.26227554948E+04  0.26230072370E+04  0.00000000000E+00 0. -1.
<mgrwt>
<rscale>  2 0.36339783E+02</rscale>
<asrwt>0</asrwt>
<pdfrwt beam="1">  1       21 0.91631633E-03 0.36339783E+02</pdfrwt>
<pdfrwt beam="2">  1        2 0.41223241E+00 0.36339783E+02</pdfrwt>
<totfact> 0.18209347E+05</totfact>
</mgrwt>
</event>
<event>
 4    1  0.2245608E+006  0.4033073E+02  0.7546771E-02  0.1505792E+00
         21   -1    0    0  503  502  0.00000000000E+00  0.00000000000E+00  0.53480355204E+01  0.53480355204E+01  0.00000000000E+00 0. -1.
         -1   -1    0    0    0  501 -0.00000000000E+00 -0.00000000000E+00 -0.43644085206E+03  0.43644085206E+03  0.00000000000E+00 0. -1.
         21    1    1    2  503  501 -0.38808173731E+02 -0.10976957886E+02 -0.93928263848E+02  0.10222077432E+03  0.00000000000E+00 0. -1.
         -1    1    1    2    0  502  0.38808173731E+02  0.10976957886E+02 -0.33716455269E+03  0.33956811326E+03  0.00000000000E+00 0. -1.
<mgrwt>
<rscale>  2 0.40330732E+02</rscale>
<asrwt>0</asrwt>
<pdfrwt beam="1">  1       21 0.82277469E-03 0.40330732E+02</pdfrwt>
<pdfrwt beam="2">  1       -1 0.67144747E-01 0.40330732E+02</pdfrwt>
<totfact> 0.91348036E+05</totfact>
</mgrwt>
</event>
<event>
 4    1  0.2245608E+006  0.2694568E+02  0.7546771E-02  0.1634532E+00
         21   -1    0    0  503  502  0.00000000000E+00  0.00000000000E+00  0.11476229807E+01  0.11476229807E+01  0.00000000000E+00 0. -1.
         -3   -1    0    0    0  501 -0.00000000000E+00 -0.00000000000E+00 -0.66516689151E+03  0.66516689151E+03  0.00000000000E+00 0.  1.
         21    1    1    2  503  501 -0.17763339088E+02  0.20261627486E+02 -0.25837423686E+03  0.25977551085E+03  0.00000000000E+00 0. -1.
         -3    1    1    2    0  502  0.17763339088E+02 -0.20261627486E+02 -0.40564503167E+03  0.40653900364E+03  0.00000000000E+00 0.  1.
<mgrwt>
<rscale>  2 0.26945682E+02</rscale>
<asrwt>0</asrwt>
<pdfrwt beam="1">  1       21 0.17655748E-03 0.26945682E+02</pdfrwt>
<pdfrwt beam="2">  1       -3 0.10233331E+00 0.26945682E+02</pdfrwt>
<totfact> 0.14685444E+06</totfact>
</mgrwt>
</event>
<event>
 4    1  0.2245608E+006  0.2643418E+02  0.7546771E-02  0.1641218E+00
         21   -1    0    0  501  502  0.00000000000E+00  0.00000000000E+00  0.36123507177E+03  0.36123507177E+03  0.00000000000E+00 0.  1.
         -1   -1    0    0    0  501 -0.00000000000E+00 -0.00000000000E+00 -0.64448707335E+02  0.64448707335E+02  0.00000000000E+00 0.  1.
         21    1    1    2  503  502  0.16094345039E+02 -0.20969928814E+02  0.35801659243E+03  0.35899115074E+03  0.00000000000E+00 0.  1.
         -1    1    1    2    0  503 -0.16094345039E+02  0.20969928814E+02 -0.61230227998E+02  0.66692628359E+02  0.00000000000E+00 0.  1.
<mgrwt>
<rscale>  2 0.26434180E+02</rscale>
<asrwt>0</asrwt>
<pdfrwt beam="1">  1       21 0.55574625E-01 0.26434180E+02</pdfrwt>
<pdfrwt beam="2">  1       -1 0.99151860E-02 0.26434180E+02</pdfrwt>
<totfact> 0.16271175E+04</totfact>
</mgrwt>
</event>
<event>
 4    1  0.2245608E+006  0.2800195E+02  0.7546771E-02  0.1621286E+00
          2   -1    0    0  503    0 -0.00000000000E+00  0.00000000000E+00  0.70422454260E+03  0.70422454260E+03  0.00000000000E+00 0. -1.
         21   -1    0    0  501  502  0.00000000000E+00 -0.00000000000E+00 -0.47876496714E+01  0.47876496714E+01  0.00000000000E+00 0.  1.
         21    1    1    2  503  502 -0.12212964343E+02  0.25198262496E+02  0.39159008279E+02  0.48140802447E+02  0.00000000000E+00 0.  1.
          2    1    1    2  501    0  0.12212964343E+02 -0.25198262496E+02  0.66027788465E+03  0.66087138983E+03  0.00000000000E+00 0. -1.
<mgrwt>
<rscale>  2 0.28001945E+02</rscale>
<asrwt>0</asrwt>
<pdfrwt beam="2">  1       21 0.73656205E-03 0.28001945E+02</pdfrwt>
<pdfrwt beam="1">  1        2 0.10834216E+00 0.28001945E+02</pdfrwt>
<totfact> 0.24947583E+06</totfact>
</mgrwt>
</event>
<event>
 4    1  0.2245608E+006  0.2736344E+02  0.7546771E-02  0.1629205E+00
         21   -1    0    0  503  502  0.00000000000E+00  0.00000000000E+00  0.38066750771E+02  0.38066750771E+02  0.00000000000E+00 0. -1.
         -1   -1    0    0    0  501 -0.00000000000E+00 -0.00000000000E+00 -0.81019586381E+02  0.81019586381E+02  0.00000000000E+00 0. -1.
         21    1    1    2  503  501 -0.46094218578E+01  0.26972418350E+02  0.30337225708E+02  0.40854686208E+02  0.00000000000E+00 0. -1.
         -1    1    1    2    0  502  0.46094218578E+01 -0.26972418350E+02 -0.73290061318E+02  0.78231650944E+02  0.00000000000E+00 0. -1.
<mgrwt>
<rscale>  2 0.27363445E+02</rscale>
<asrwt>0</asrwt>
<pdfrwt beam="1">  1       21 0.58564232E-02 0.27363445E+02</pdfrwt>
<pdfrwt beam="2">  1       -1 0.12464552E-01 0.27363445E+02</pdfrwt>
<totfact> 0.61406967E+05</totfact>
</mgrwt>
</event>
<event>
 4    1  0.2245608E+006  0.2242102E+02  0.7546771E-02  0.1701071E+00
         21   -1    0    0  501  502  0.00000000000E+00  0.00000000000E+00  0.86185925390E+01  0.86185925390E+01  0.00000000000E+00 0.  1.
          1   -1    0    0  503    0 -0.00000000000E+00 -0.00000000000E+00 -0.30615294728E+03  0.30615294728E+03  0.00000000000E+00 0.  1.
         21    1    1    2  503  502  0.15411207661E+02 -0.16284867088E+02 -0.71652835764E+01  0.23538128778E+02  0.00000000000E+00 0.  1.
          1    1    1    2  501    0 -0.15411207661E+02  0.16284867088E+02 -0.29036907116E+03  0.29123341104E+03  0.00000000000E+00 0.  1.
<mgrwt>
<rscale>  2 0.22421022E+02</rscale>
<asrwt>0</asrwt>
<pdfrwt beam="1">  1       21 0.13259373E-02 0.22421022E+02</pdfrwt>
<pdfrwt beam="2">  1        1 0.47100455E-01 0.22421022E+02</pdfrwt>
<totfact> 0.16376085E+06</totfact>
</mgrwt>
</event>
<event>
 4    1  0.2245608E+006  0.2508871E+02  0.7546771E-02  0.1659731E+00
          1   -1    0    0  503    0 -0.00000000000E+00  0.00000000000E+00  0.11095231000E+02  0.11095231000E+02  0.00000000000E+00 0. -1.
         21   -1    0    0  501  502  0.00000000000E+00 -0.00000000000E+00 -0.14212367232E+03  0.14212367232E+03  0.00000000000E+00 0.  1.
         21    1    1    2  503  502  0.21962979640E+02 -0.12127279433E+02 -0.12489685838E+03  0.12739179178E+03  0.00000000000E+00 0.  1.
          1    1    1    2  501    0 -0.21962979640E+02  0.12127279433E+02 -0.61315829481E+01  0.25827111542E+02  0.00000000000E+00 0. -1.
<mgrwt>
<rscale>  2 0.25088710E+02</rscale>
<asrwt>0</asrwt>
<pdfrwt beam="2">  1       21 0.21865182E-01 0.25088710E+02</pdfrwt>
<pdfrwt beam="1">  1        1 0.17069585E-02 0.25088710E+02</pdfrwt>
<totfact> 0.11301397E+06</totfact>
</mgrwt>
</event>
<event>
 4    1  0.2245608E+006  0.3650642E+02  0.7546771E-02  0.1535616E+00
          2   -1    0    0  502    0 -0.00000000000E+00  0.00000000000E+00  0.37286666043E+02  0.37286666043E+02  0.00000000000E+00 0. -1.
         21   -1    0    0  503  502  0.00000000000E+00 -0.00000000000E+00 -0.20133503335E+04  0.20133503335E+04  0.00000000000E+00 0.  1.
         21    1    1    2  503  501  0.34947241296E+02 -0.10555048412E+02 -0.20042084679E+04  0.20045409203E+04  0.00000000000E+00 0.  1.
          2    1    1    2  501    0 -0.34947241296E+02  0.10555048412E+02  0.28144800442E+02  0.46096079151E+02  0.00000000000E+00 0. -1.
<mgrwt>
<rscale>  2 0.36506420E+02</rscale>
<asrwt>0</asrwt>
<pdfrwt beam="2">  1       21 0.30974626E+00 0.36506420E+02</pdfrwt>
<pdfrwt beam="1">  1        2 0.57364091E-02 0.36506420E+02</pdfrwt>
<totfact> 0.65073298E+02</totfact>
</mgrwt>
</event>
<event>
 4    1  0.2245608E+006  0.2630054E+02  0.7546771E-02  0.1642995E+00
         21   -1    0    0  501  502  0.00000000000E+00  0.00000000000E+00  0.58321136225E+01  0.58321136225E+01  0.00000000000E+00 0. -1.
          2   -1    0    0  503    0 -0.00000000000E+00 -0.00000000000E+00 -0.10471232521E+04  0.10471232521E+04  0.00000000000E+00 0.  1.
         21    1    1    2  503  502 -0.16756377197E+02 -0.20271711816E+02 -0.24880114538E+02  0.36204123745E+02  0.00000000000E+00 0. -1.
          2    1    1    2  501    0  0.16756377197E+02  0.20271711816E+02 -0.10164110239E+04  0.10167512419E+04  0.00000000000E+00 0.  1.
<mgrwt>
<rscale>  2 0.26300541E+02</rscale>
<asrwt>0</asrwt>
<pdfrwt beam="1">  1       21 0.89724817E-03 0.26300541E+02</pdfrwt>
<pdfrwt beam="2">  1        2 0.16109590E+00 0.26300541E+02</pdfrwt>
<totfact> 0.11476051E+06</totfact>
</mgrwt>
</event>
<event>
 4    1  0.2245608E+006  0.3654406E+02  0.7546771E-02  0.1535301E+00
          1   -1    0    0  503    0 -0.00000000000E+00  0.00000000000E+00  0.84545304437E+03  0.84545304437E+03  0.00000000000E+00 0. -1.
         21   -1    0    0  501  502  0.00000000000E+00 -0.00000000000E+00 -0.93341085298E+01  0.93341085298E+01  0.00000000000E+00 0. -1.
         21    1    1    2  503  502  0.31862764758E+02  0.17895038464E+02  0.28504255758E+02  0.46346097743E+02  0.00000000000E+00 0. -1.
          1    1    1    2  501    0 -0.31862764758E+02 -0.17895038464E+02  0.80761468009E+03  0.80844105516E+03  0.00000000000E+00 0. -1.
<mgrwt>
<rscale>  2 0.36544058E+02</rscale>
<asrwt>0</asrwt>
<pdfrwt beam="2">  1       21 0.14360174E-02 0.36544058E+02</pdfrwt>
<pdfrwt beam="1">  1        1 0.13006964E+00 0.36544058E+02</pdfrwt>
<totfact> 0.44190093E+05</totfact>
</mgrwt>
</event>
<event>
 4    1  0.2245608E+006  0.2084555E+02  0.7546771E-02  0.1729018E+00
         -1   -1    0    0    0  501 -0.00000000000E+00  0.00000000000E+00  0.40730278168E+02  0.40730278168E+02  0.00000000000E+00 0. -1.
         21   -1    0    0  501  502  0.00000000000E+00 -0.00000000000E+00 -0.24702500774E+02  0.24702500774E+02  0.00000000000E+00 0. -1.
         21    1    1    2  503  502 -0.75603319637E+01 -0.19426224752E+02 -0.16645563957E+02  0.26676049688E+02  0.00000000000E+00 0. -1.
         -1    1    1    2    0  503  0.75603319637E+01  0.19426224752E+02  0.32673341350E+02  0.38756729254E+02  0.00000000000E+00 0. -1.
<mgrwt>
<rscale>  2 0.20845547E+02</rscale>
<asrwt>0</asrwt>
<pdfrwt beam="2">  1       21 0.38003847E-02 0.20845547E+02</pdfrwt>
<pdfrwt beam="1">  1       -1 0.62661966E-02 0.20845547E+02</pdfrwt>
<totfact> 0.30722851E+06</totfact>
</mgrwt>
</event>
<event>
 4    1  0.2245608E+006  0.4624100E+02  0.7546771E-02  0.1466740E+00
          4   -1    0    0  503    0 -0.00000000000E+00  0.00000000000E+00  0.88331980104E+03  0.88331980104E+03  0.00000000000E+00 0.  1.
         21   -1    0    0  501  502  0.00000000000E+00 -0.00000000000E+00 -0.24864681800E+01  0.24864681800E+01  0.00000000000E+00 0. -1.
         21    1    1    2  503  502  0.23327717889E+00 -0.46240412278E+02  0.36837101200E+03  0.37126194611E+03  0.00000000000E+00 0. -1.
          4    1    1    2  501    0 -0.23327717889E+00  0.46240412278E+02  0.51246232086E+03  0.51454432312E+03  0.00000000000E+00 0.  1.
<mgrwt>
<rscale>  2 0.46241001E+02</rscale>
<asrwt>0</asrwt>
<pdfrwt beam="2">  1       21 0.38253427E-03 0.46241001E+02</pdfrwt>
<pdfrwt beam="1">  1        4 0.13589510E+00 0.46241001E+02</pdfrwt>
<totfact> 0.22071992E+05</totfact>
</mgrwt>
</event>
<event>
 4    1  0.2245608E+006  0.2113434E+02  0.7546771E-02  0.1723668E+00
          2   -1    0    0  503    0 -0.00000000000E+00  0.00000000000E+00  0.46722980699E+02  0.46722980699E+02  0.00000000000E+00 0.  1.
         21   -1    0    0  501  502  0.00000000000E+00 -0.00000000000E+00 -0.51190971741E+02  0.51190971741E+02  0.00000000000E+00 0. -1.
         21    1    1    2  503  502 -0.21109164209E+02  0.10312646311E+01 -0.46383663647E+02  0.50971605563E+02  0.00000000000E+00 0. -1.
          2    1    1    2  501    0  0.21109164209E+02 -0.10312646311E+01  0.41915672605E+02  0.46942346877E+02  0.00000000000E+00 0.  1.
<mgrwt>
<rscale>  2 0.21134340E+02</rscale>
<asrwt>0</asrwt>
<pdfrwt beam="2">  1       21 0.78755341E-02 0.21134340E+02</pdfrwt>
<pdfrwt beam="1">  1        2 0.71881509E-02 0.21134340E+02</pdfrwt>
<totfact> 0.10500965E+06</totfact>
</mgrwt>
</event>
<event>
 4    1  0.2245608E+006  0.2155522E+02  0.7546771E-02  0.1716060E+00
         21   -1    0    0  501  502  0.00000000000E+00  0.00000000000E+00  0.27622349650E+02  0.27622349650E+02  0.00000000000E+00 0.  1.
         -1   -1    0    0    0  501 -0.00000000000E+00 -0.00000000000E+00 -0.36711212171E+03  0.36711212171E+03  0.00000000000E+00 0.  1.
         21    1    1    2  503  502 -0.49866278539E+01 -0.20970480620E+02  0.23047749933E+02  0.31556715477E+02  0.00000000000E+00 0.  1.
         -1    1    1    2    0  503  0.49866278539E+01  0.20970480620E+02 -0.36253752199E+03  0.36317775588E+03  0.00000000000E+00 0.  1.
<mgrwt>
<rscale>  2 0.21555220E+02</rscale>
<asrwt>0</asrwt>
<pdfrwt beam="1">  1       21 0.42495923E-02 0.21555220E+02</pdfrwt>
<pdfrwt beam="2">  1       -1 0.56478787E-01 0.21555220E+02</pdfrwt>
<totfact> 0.89609052E+04</totfact>
</mgrwt>
</event>
<event>
 4    1  0.2245608E+006  0.2303670E+02  0.7546771E-02  0.1690916E+00
          2   -1    0    0  502    0 -0.00000000000E+00  0.00000000000E+00  0.96283806493E+03  0.96283806493E+03  0.00000000000E+00 0.  1.
         21   -1    0    0  503  502  0.00000000000E+00 -0.00000000000E+00 -0.49435743926E+01  0.49435743926E+01  0.00000000000E+00 0. -1.
         21    1    1    2  503  501 -0.19520023960E+02  0.12233485237E+02  0.22828522380E+02  0.32431943057E+02  0.00000000000E+00 0. -1.
          2    1    1    2  501    0  0.19520023960E+02 -0.12233485237E+02  0.93506596816E+03  0.93534969626E+03  0.00000000000E+00 0.  1.
<mgrwt>
<rscale>  2 0.23036699E+02</rscale>
<asrwt>0</asrwt>
<pdfrwt beam="2">  1       21 0.76055067E-03 0.23036699E+02</pdfrwt>
<pdfrwt beam="1">  1        2 0.14812878E+00 0.23036699E+02</pdfrwt>
<totfact> 0.15968607E+06</totfact>
</mgrwt>
</event>
<event>
 4    1  0.2245608E+006  0.2042591E+02  0.7546771E-02  0.1736989E+00
         21   -1    0    0  503  502  0.00000000000E+00  0.00000000000E+00  0.13327239894E+03  0.13327239894E+03  0.00000000000E+00 0.  1.
         -2   -1    0    0    0  501 -0.00000000000E+00 -0.00000000000E+00 -0.90432089005E+01  0.90432089005E+01  0.00000000000E+00 0. -1.
         21    1    1    2  503  501 -0.19466933289E+02  0.61851763679E+01  0.11965224489E+03  0.12138318502E+03  0.00000000000E+00 0.  1.
         -2    1    1    2    0  502  0.19466933289E+02 -0.61851763679E+01  0.45769451536E+01  0.20932422825E+02  0.00000000000E+00 0. -1.
<mgrwt>
<rscale>  2 0.20425912E+02</rscale>
<asrwt>0</asrwt>
<pdfrwt beam="1">  1       21 0.20503445E-01 0.20425912E+02</pdfrwt>
<pdfrwt beam="2">  1       -2 0.13912630E-02 0.20425912E+02</pdfrwt>
<totfact> 0.15041006E+06</totfact>
</mgrwt>
</event>
<event>
 4    1  0.2245608E+006  0.7706121E+02  0.7546771E-02  0.1337604E+00
          1   -1    0    0  502    0 -0.00000000000E+00  0.00000000000E+00  0.91908530413E+03  0.91908530413E+03  0.00000000000E+00 0. -1.
         21   -1    0    0  503  502  0.00000000000E+00 -0.00000000000E+00 -0.89246916860E+02  0.89246916860E+02  0.00000000000E+00 0. -1.
         21    1    1    2  503  501 -0.48562167544E+02 -0.59834324010E+02 -0.70653930845E+02  0.10454859344E+03  0.00000000000E+00 0. -1.
          1    1    1    2  501    0  0.48562167544E+02  0.59834324010E+02  0.90049231811E+03  0.90378362755E+03  0.00000000000E+00 0. -1.
<mgrwt>
<rscale>  2 0.77061212E+02</rscale>
<asrwt>0</asrwt>
<pdfrwt beam="2">  1       21 0.13730296E-01 0.77061212E+02</pdfrwt>
<pdfrwt beam="1">  1        1 0.14139773E+00 0.77061212E+02</pdfrwt>
<totfact> 0.99151366E+03</totfact>
</mgrwt>
</event>
<event>
 4    1  0.2245608E+006  0.2158638E+02  0.7546771E-02  0.1715505E+00
         21   -1    0    0  501  502  0.00000000000E+00  0.00000000000E+00  0.54927592182E+01  0.54927592182E+01  0.00000000000E+00 0. -1.
          2   -1    0    0  503    0 -0.00000000000E+00 -0.00000000000E+00 -0.86508977682E+03  0.86508977682E+03  0.00000000000E+00 0.  1.
         21    1    1    2  503  502  0.18831149643E+02 -0.10552705977E+02 -0.16400948636E+02  0.27110199491E+02  0.00000000000E+00 0. -1.
          2    1    1    2  501    0 -0.18831149643E+02  0.10552705977E+02 -0.84319606896E+03  0.84347233654E+03  0.00000000000E+00 0.  1.
<mgrwt>
<rscale>  2 0.21586380E+02</rscale>
<asrwt>0</asrwt>
<pdfrwt beam="1">  1       21 0.84504033E-03 0.21586380E+02</pdfrwt>
<pdfrwt beam="2">  1        2 0.13309066E+00 0.21586380E+02</pdfrwt>
<totfact> 0.15316058E+06</totfact>
</mgrwt>
</event>
<event>
 4    1  0.2245608E+006  0.2898728E+02  0.7546771E-02  0.1609560E+00
         21   -1    0    0  501  502  0.00000000000E+00  0.00000000000E+00  0.15946929281E+02  0.15946929281E+02  0.00000000000E+00 0. -1.
         -2   -1    0    0    0  501 -0.00000000000E+00 -0.00000000000E+00 -0.66495309953E+02  0.66495309953E+02  0.00000000000E+00 0.  1.
         21    1    1    2  503  502 -0.69445258237E+01 -0.28143131207E+02 -0.64927437041E+01  0.29705521269E+02  0.00000000000E+00 0. -1.
         -2    1    1    2    0  503  0.69445258237E+01  0.28143131207E+02 -0.44055636969E+02  0.52736717965E+02  0.00000000000E+00 0.  1.
<mgrwt>
<rscale>  2 0.28987278E+02</rscale>
<asrwt>0</asrwt>
<pdfrwt beam="1">  1       21 0.24533738E-02 0.28987278E+02</pdfrwt>
<pdfrwt beam="2">  1       -2 0.10230048E-01 0.28987278E+02</pdfrwt>
<totfact> 0.31441042E+06</totfact>
</mgrwt>
</event>
<event>
 4    1  0.2245608E+006  0.2215049E+02  0.7546771E-02  0.1705662E+00
         21   -1    0    0  503  502  0.00000000000E+00  0.00000000000E+00  0.14286497412E+02  0.14286497412E+02  0.00000000000E+00 0.  1.
          1   -1    0    0  502    0 -0.00000000000E+00 -0.00000000000E+00 -0.53865412750E+02  0.53865412750E+02  0.00000000000E+00 0. -1.
         21    1    1    2  503  501  0.20467695462E+02 -0.84686397156E+01  0.72486901574E+00  0.22162352114E+02  0.00000000000E+00 0.  1.
          1    1    1    2  501    0 -0.20467695462E+02  0.84686397156E+01 -0.40303784354E+02  0.45989558047E+02  0.00000000000E+00 0. -1.
<mgrwt>
<rscale>  2 0.22150495E+02</rscale>
<asrwt>0</asrwt>
<pdfrwt beam="1">  1       21 0.21979227E-02 0.22150495E+02</pdfrwt>
<pdfrwt beam="2">  1        1 0.82869865E-02 0.22150495E+02</pdfrwt>
<totfact> 0.60109728E+06</totfact>
</mgrwt>
</event>
<event>
 4    1  0.2245608E+006  0.2430167E+02  0.7546771E-02  0.1671240E+00
         21   -1    0    0  501  502  0.00000000000E+00  0.00000000000E+00  0.63187802789E+02  0.63187802789E+02  0.00000000000E+00 0. -1.
          1   -1    0    0  503    0 -0.00000000000E+00 -0.00000000000E+00 -0.72512089196E+03  0.72512089196E+03  0.00000000000E+00 0. -1.
         21    1    1    2  503  502  0.16916111381E+02  0.17447533894E+02  0.60639381569E+02  0.65327680659E+02  0.00000000000E+00 0. -1.
          1    1    1    2  501    0 -0.16916111381E+02 -0.17447533894E+02 -0.72257247074E+03  0.72298101409E+03  0.00000000000E+00 0. -1.
<mgrwt>
<rscale>  2 0.24301672E+02</rscale>
<asrwt>0</asrwt>
<pdfrwt beam="1">  1       21 0.97212005E-02 0.24301672E+02</pdfrwt>
<pdfrwt beam="2">  1        1 0.11155706E+00 0.24301672E+02</pdfrwt>
<totfact> 0.25329465E+04</totfact>
</mgrwt>
</event>
<event>
 4    1  0.2245608E+006  0.2703842E+02  0.7546771E-02  0.1633339E+00
         21   -1    0    0  503  502  0.00000000000E+00  0.00000000000E+00  0.22224380595E+01  0.22224380595E+01  0.00000000000E+00 0. -1.
          3   -1    0    0  502    0 -0.00000000000E+00 -0.00000000000E+00 -0.17683278555E+04  0.17683278555E+04  0.00000000000E+00 0. -1.
         21    1    1    2  503  501  0.13550730717E+01  0.27004439949E+02 -0.84352225975E+02  0.88579760820E+02  0.00000000000E+00 0. -1.
          3    1    1    2  501    0 -0.13550730717E+01 -0.27004439949E+02 -0.16817531915E+04  0.16819705327E+04  0.00000000000E+00 0. -1.
<mgrwt>
<rscale>  2 0.27038417E+02</rscale>
<asrwt>0</asrwt>
<pdfrwt beam="1">  1       21 0.34191223E-03 0.27038417E+02</pdfrwt>
<pdfrwt beam="2">  1        3 0.27205149E+00 0.27038417E+02</pdfrwt>
<totfact> 0.49763528E+04</totfact>
</mgrwt>
</event>
<event>
 4    1  0.2245608E+006  0.2164888E+02  0.7546771E-02  0.1714396E+00
         -3   -1    0    0    0  501 -0.00000000000E+00  0.00000000000E+00  0.42830820149E+01  0.42830820149E+01  0.00000000000E+00 0.  1.
         21   -1    0    0  503  502  0.00000000000E+00 -0.00000000000E+00 -0.25305810667E+03  0.25305810667E+03  0.00000000000E+00 0. -1.
         21    1    1    2  503  501 -0.14889778639E+02  0.15715231702E+02 -0.22132622440E+03  0.22238248947E+03  0.00000000000E+00 0. -1.
         -3    1    1    2    0  502  0.14889778639E+02 -0.15715231702E+02 -0.27448800251E+02  0.34958699212E+02  0.00000000000E+00 0.  1.
<mgrwt>
<rscale>  2 0.21648880E+02</rscale>
<asrwt>0</asrwt>
<pdfrwt beam="2">  1       21 0.38932004E-01 0.21648880E+02</pdfrwt>
<pdfrwt beam="1">  1       -3 0.65893591E-03 0.21648880E+02</pdfrwt>
<totfact> 0.99208812E+05</totfact>
</mgrwt>
</event>
<event>
 4    1  0.2245608E+006  0.2971053E+02  0.7546771E-02  0.1601311E+00
         21   -1    0    0  503  502  0.00000000000E+00  0.00000000000E+00  0.18813224341E+03  0.18813224341E+03  0.00000000000E+00 0.  1.
         -2   -1    0    0    0  501 -0.00000000000E+00 -0.00000000000E+00 -0.51832561109E+02  0.51832561109E+02  0.00000000000E+00 0.  1.
         21    1    1    2  503  501  0.13026608558E+02 -0.26702487737E+02  0.18257291743E+03  0.18497455382E+03  0.00000000000E+00 0.  1.
         -2    1    1    2    0  502 -0.13026608558E+02  0.26702487737E+02 -0.46273235133E+02  0.54990250695E+02  0.00000000000E+00 0.  1.
<mgrwt>
<rscale>  2 0.29710526E+02</rscale>
<asrwt>0</asrwt>
<pdfrwt beam="1">  1       21 0.28943422E-01 0.29710526E+02</pdfrwt>
<pdfrwt beam="2">  1       -2 0.79742403E-02 0.29710526E+02</pdfrwt>
<totfact> 0.74976617E+04</totfact>
</mgrwt>
</event>
<event>
 4    1  0.2245608E+006  0.2014620E+02  0.7546771E-02  0.1742436E+00
          1   -1    0    0  503    0 -0.00000000000E+00  0.00000000000E+00  0.10900022661E+03  0.10900022661E+03  0.00000000000E+00 0. -1.
         21   -1    0    0  501  502  0.00000000000E+00 -0.00000000000E+00 -0.83235100431E+03  0.83235100431E+03  0.00000000000E+00 0.  1.
         21    1    1    2  503  502  0.11989319617E+02  0.16190297690E+02 -0.83129702821E+03  0.83154111061E+03  0.00000000000E+00 0.  1.
          1    1    1    2  501    0 -0.11989319617E+02 -0.16190297690E+02  0.10794625050E+03  0.10981012031E+03  0.00000000000E+00 0. -1.
<mgrwt>
<rscale>  2 0.20146204E+02</rscale>
<asrwt>0</asrwt>
<pdfrwt beam="2">  1       21 0.12805401E+00 0.20146204E+02</pdfrwt>
<pdfrwt beam="1">  1        1 0.16769265E-01 0.20146204E+02</pdfrwt>
<totfact> 0.18337804E+03</totfact>
</mgrwt>
</event>
<event>
 4    1  0.2245608E+006  0.2046011E+02  0.7546771E-02  0.1736330E+00
          2   -1    0    0  502    0 -0.00000000000E+00  0.00000000000E+00  0.14464454742E+04  0.14464454742E+04  0.00000000000E+00 0.  1.
         21   -1    0    0  503  502  0.00000000000E+00 -0.00000000000E+00 -0.60942299590E+00  0.60942299590E+00  0.00000000000E+00 0.  1.
         21    1    1    2  503  501 -0.20449744113E+02  0.65135107886E+00  0.19861886508E+03  0.19966990224E+03  0.00000000000E+00 0.  1.
          2    1    1    2  501    0  0.20449744113E+02 -0.65135107886E+00  0.12472171861E+04  0.12473849949E+04  0.00000000000E+00 0.  1.
<mgrwt>
<rscale>  2 0.20460115E+02</rscale>
<asrwt>0</asrwt>
<pdfrwt beam="2">  1       21 0.93758542E-04 0.20460115E+02</pdfrwt>
<pdfrwt beam="1">  1        2 0.22252732E+00 0.20460115E+02</pdfrwt>
<totfact> 0.18537663E+07</totfact>
</mgrwt>
</event>
<event>
 4    1  0.2245608E+006  0.2397392E+02  0.7546771E-02  0.1676193E+00
         21   -1    0    0  503  502  0.00000000000E+00  0.00000000000E+00  0.30813578640E+01  0.30813578640E+01  0.00000000000E+00 0.  1.
          1   -1    0    0  502    0 -0.00000000000E+00 -0.00000000000E+00 -0.20688761605E+03  0.20688761605E+03  0.00000000000E+00 0.  1.
         21    1    1    2  503  501 -0.16777047120E+02 -0.17125400353E+02 -0.68966412425E+02  0.73014482743E+02  0.00000000000E+00 0.  1.
          1    1    1    2  501    0  0.16777047120E+02  0.17125400353E+02 -0.13483984576E+03  0.13695449117E+03  0.00000000000E+00 0.  1.
<mgrwt>
<rscale>  2 0.23973916E+02</rscale>
<asrwt>0</asrwt>
<pdfrwt beam="1">  1       21 0.47405501E-03 0.23973916E+02</pdfrwt>
<pdfrwt beam="2">  1        1 0.31828867E-01 0.23973916E+02</pdfrwt>
<totfact> 0.12170286E+07</totfact>
</mgrwt>
</event>
<event>
 4    1  0.2245608E+006  0.2282271E+02  0.7546771E-02  0.1694400E+00
         21   -1    0    0  503  502  0.00000000000E+00  0.00000000000E+00  0.11676751479E+02  0.11676751479E+02  0.00000000000E+00 0.  1.
         -2   -1    0    0    0  501 -0.00000000000E+00 -0.00000000000E+00 -0.13628141141E+03  0.13628141141E+03  0.00000000000E+00 0.  1.
         21    1    1    2  503  501  0.13065784248E+02 -0.18712598882E+02 -0.16269629450E+01  0.22880626813E+02  0.00000000000E+00 0.  1.
         -2    1    1    2    0  502 -0.13065784248E+02  0.18712598882E+02 -0.12297769699E+03  0.12507753608E+03  0.00000000000E+00 0.  1.
<mgrwt>
<rscale>  2 0.22822710E+02</rscale>
<asrwt>0</asrwt>
<pdfrwt beam="1">  1       21 0.17964233E-02 0.22822710E+02</pdfrwt>
<pdfrwt beam="2">  1       -2 0.20966371E-01 0.22822710E+02</pdfrwt>
<totfact> 0.15656531E+06</totfact>
</mgrwt>
</event>
<event>
 4    1  0.2245608E+006  0.3298690E+02  0.7546771E-02  0.1567240E+00
          1   -1    0    0  503    0 -0.00000000000E+00  0.00000000000E+00  0.98535944426E+02  0.98535944426E+02  0.00000000000E+00 0. -1.
         21   -1    0    0  501  502  0.00000000000E+00 -0.00000000000E+00 -0.14727408724E+02  0.14727408724E+02  0.00000000000E+00 0.  1.
         21    1    1    2  503  502  0.30755156729E+02  0.11927105363E+02  0.13578720429E+02  0.35672358434E+02  0.00000000000E+00 0.  1.
          1    1    1    2  501    0 -0.30755156729E+02 -0.11927105363E+02  0.70229815273E+02  0.77590994716E+02  0.00000000000E+00 0. -1.
<mgrwt>
<rscale>  2 0.32986899E+02</rscale>
<asrwt>0</asrwt>
<pdfrwt beam="2">  1       21 0.22657552E-02 0.32986899E+02</pdfrwt>
<pdfrwt beam="1">  1        1 0.15159376E-01 0.32986899E+02</pdfrwt>
<totfact> 0.29917661E+06</totfact>
</mgrwt>
</event>
<event>
 4    1  0.2245608E+006  0.2285575E+02  0.7546771E-02  0.1693859E+00
         21   -1    0    0  503  502  0.00000000000E+00  0.00000000000E+00  0.29670043175E+01  0.29670043175E+01  0.00000000000E+00 0. -1.
          2   -1    0    0  502    0 -0.00000000000E+00 -0.00000000000E+00 -0.23139113960E+03  0.23139113960E+03  0.00000000000E+00 0. -1.
         21    1    1    2  503  501 -0.91909288282E+01 -0.20926344877E+02 -0.56913656391E+02  0.61331471256E+02  0.00000000000E+00 0. -1.
          2    1    1    2  501    0  0.91909288282E+01  0.20926344877E+02 -0.17151047889E+03  0.17302667266E+03  0.00000000000E+00 0. -1.
<mgrwt>
<rscale>  2 0.22855745E+02</rscale>
<asrwt>0</asrwt>
<pdfrwt beam="1">  1       21 0.45646219E-03 0.22855745E+02</pdfrwt>
<pdfrwt beam="2">  1        2 0.35598638E-01 0.22855745E+02</pdfrwt>
<totfact> 0.14905198E+07</totfact>
</mgrwt>
</event>
<event>
 4    1  0.2245608E+006  0.2250601E+02  0.7546771E-02  0.1699645E+00
         21   -1    0    0  501  502  0.00000000000E+00  0.00000000000E+00  0.22203448748E+00  0.22203448748E+00  0.00000000000E+00 0. -1.
          2   -1    0    0  503    0 -0.00000000000E+00 -0.00000000000E+00 -0.24854345994E+04  0.24854345994E+04  0.00000000000E+00 0. -1.
         21    1    1    2  503  502 -0.21324521662E+02  0.71961825213E+01 -0.88639976745E+03  0.88668543915E+03  0.00000000000E+00 0. -1.
          2    1    1    2  501    0  0.21324521662E+02 -0.71961825213E+01 -0.15988127974E+04  0.15989711947E+04  0.00000000000E+00 0. -1.
<mgrwt>
<rscale>  2 0.22506005E+02</rscale>
<asrwt>0</asrwt>
<pdfrwt beam="1">  1       21 0.34159007E-04 0.22506005E+02</pdfrwt>
<pdfrwt beam="2">  1        2 0.38237618E+00 0.22506005E+02</pdfrwt>
<totfact> 0.25649457E+07</totfact>
</mgrwt>
</event>
<event>
 4    1  0.2245608E+006  0.2251397E+02  0.7546771E-02  0.1699512E+00
          4   -1    0    0  502    0 -0.00000000000E+00  0.00000000000E+00  0.54005254014E+00  0.54005254014E+00  0.00000000000E+00 0.  1.
         21   -1    0    0  503  502  0.00000000000E+00 -0.00000000000E+00 -0.14622169249E+04  0.14622169249E+04  0.00000000000E+00 0. -1.
         21    1    1    2  503  501  0.10947102976E+02 -0.19673321729E+02 -0.11685160929E+04  0.11687329627E+04  0.00000000000E+00 0. -1.
          4    1    1    2  501    0 -0.10947102976E+02  0.19673321729E+02 -0.29316077943E+03  0.29402401475E+03  0.00000000000E+00 0.  1.
<mgrwt>
<rscale>  2 0.22513966E+02</rscale>
<asrwt>0</asrwt>
<pdfrwt beam="2">  1       21 0.22495181E+00 0.22513966E+02</pdfrwt>
<pdfrwt beam="1">  1        4 0.83086721E-04 0.22513966E+02</pdfrwt>
<totfact> 0.33535899E+05</totfact>
</mgrwt>
</event>
<event>
 4    1  0.2245608E+006  0.2047514E+02  0.7546771E-02  0.1736041E+00
         21   -1    0    0  501  502  0.00000000000E+00  0.00000000000E+00  0.11588195763E+02  0.11588195763E+02  0.00000000000E+00 0.  1.
          1   -1    0    0  503    0 -0.00000000000E+00 -0.00000000000E+00 -0.81210559176E+02  0.81210559176E+02  0.00000000000E+00 0. -1.
         21    1    1    2  503  502 -0.17576674414E+02 -0.10501997643E+02 -0.25928899233E+00  0.20476783652E+02  0.00000000000E+00 0.  1.
          1    1    1    2  501    0  0.17576674414E+02  0.10501997643E+02 -0.69363074420E+02  0.72321971288E+02  0.00000000000E+00 0. -1.
<mgrwt>
<rscale>  2 0.20475142E+02</rscale>
<asrwt>0</asrwt>
<pdfrwt beam="1">  1       21 0.17827993E-02 0.20475142E+02</pdfrwt>
<pdfrwt beam="2">  1        1 0.12493932E-01 0.20475142E+02</pdfrwt>
<totfact> 0.48694956E+06</totfact>
</mgrwt>
</event>
<event>
 4    1  0.2245608E+006  0.2928914E+02  0.7546771E-02  0.1606082E+00
         21   -1    0    0  503  502  0.00000000000E+00  0.00000000000E+00  0.47937339821E+01  0.47937339821E+01  0.00000000000E+00 0. -1.
         -2   -1    0    0    0  501 -0.00000000000E+00 -0.00000000000E+00 -0.25872507529E+03  0.25872507529E+03  0.00000000000E+00 0. -1.
         21    1    1    2  503  501 -0.25062450030E+01  0.29181715055E+02 -0.53803358555E+02  0.61258918937E+02  0.00000000000E+00 0. -1.
         -2    1    1    2    0  502  0.25062450030E+01 -0.29181715055E+02 -0.20012798275E+03  0.20225989033E+03  0.00000000000E+00 0. -1.
<mgrwt>
<rscale>  2 0.29289141E+02</rscale>
<asrwt>0</asrwt>
<pdfrwt beam="1">  1       21 0.73749755E-03 0.29289141E+02</pdfrwt>
<pdfrwt beam="2">  1       -2 0.39803857E-01 0.29289141E+02</pdfrwt>
<totfact> 0.21370010E+06</totfact>
</mgrwt>
</event>
<event>
 4    1  0.2245608E+006  0.2201645E+02  0.7546771E-02  0.1707968E+00
         21   -1    0    0  501  502  0.00000000000E+00  0.00000000000E+00  0.98977893938E+00  0.98977893938E+00  0.00000000000E+00 0.  1.
          3   -1    0    0  503    0 -0.00000000000E+00 -0.00000000000E+00 -0.54804990179E+03  0.54804990179E+03  0.00000000000E+00 0.  1.
         21    1    1    2  503  502  0.15796088004E+02  0.15336478764E+02 -0.18397836471E+03  0.18529102152E+03  0.00000000000E+00 0.  1.
          3    1    1    2  501    0 -0.15796088004E+02 -0.15336478764E+02 -0.36308175814E+03  0.36374865921E+03  0.00000000000E+00 0.  1.
<mgrwt>
<rscale>  2 0.22016448E+02</rscale>
<asrwt>0</asrwt>
<pdfrwt beam="1">  1       21 0.15227356E-03 0.22016448E+02</pdfrwt>
<pdfrwt beam="2">  1        3 0.84315438E-01 0.22016448E+02</pdfrwt>
<totfact> 0.25508190E+06</totfact>
</mgrwt>
</event>
<event>
 4    1  0.2245608E+006  0.2160593E+02  0.7546771E-02  0.1715158E+00
         21   -1    0    0  503  502  0.00000000000E+00  0.00000000000E+00  0.18920578332E+03  0.18920578332E+03  0.00000000000E+00 0. -1.
         -1   -1    0    0    0  501 -0.00000000000E+00 -0.00000000000E+00 -0.58221711368E+02  0.58221711368E+02  0.00000000000E+00 0. -1.
         21    1    1    2  503  501  0.31296131050E+00 -0.21603665570E+02  0.18655612126E+03  0.18780309553E+03  0.00000000000E+00 0. -1.
         -1    1    1    2    0  502 -0.31296131050E+00  0.21603665570E+02 -0.55572049307E+02  0.59624399159E+02  0.00000000000E+00 0. -1.
<mgrwt>
<rscale>  2 0.21605932E+02</rscale>
<asrwt>0</asrwt>
<pdfrwt beam="1">  1       21 0.29108582E-01 0.21605932E+02</pdfrwt>
<pdfrwt beam="2">  1       -1 0.89571865E-02 0.21605932E+02</pdfrwt>
<totfact> 0.62931326E+04</totfact>
</mgrwt>
</event>
<event>
 4    1  0.2245608E+006  0.4532998E+02  0.7546771E-02  0.1472292E+00
          1   -1    0    0  503    0 -0.00000000000E+00  0.00000000000E+00  0.92691284943E+02  0.92691284943E+02  0.00000000000E+00 0.  1.
         21   -1    0    0  501  502  0.00000000000E+00 -0.00000000000E+00 -0.53369643807E+02  0.53369643807E+02  0.00000000000E+00 0.  1.
         21    1    1    2  503  502  0.26923618214E+02 -0.36468144195E+02 -0.36178955584E+02  0.57997617071E+02  0.00000000000E+00 0.  1.
          1    1    1    2  501    0 -0.26923618214E+02  0.36468144195E+02  0.75500596721E+02  0.88063311679E+02  0.00000000000E+00 0.  1.
<mgrwt>
<rscale>  2 0.45329976E+02</rscale>
<asrwt>0</asrwt>
<pdfrwt beam="2">  1       21 0.82107144E-02 0.45329976E+02</pdfrwt>
<pdfrwt beam="1">  1        1 0.14260198E-01 0.45329976E+02</pdfrwt>
<totfact> 0.42688212E+05</totfact>
</mgrwt>
</event>
<event>
 4    1  0.2245608E+006  0.2060489E+02  0.7546771E-02  0.1733560E+00
         21   -1    0    0  501  502  0.00000000000E+00  0.00000000000E+00  0.41493179959E+01  0.41493179959E+01  0.00000000000E+00 0. -1.
         -1   -1    0    0    0  501 -0.00000000000E+00 -0.00000000000E+00 -0.18946964857E+03  0.18946964857E+03  0.00000000000E+00 0.  1.
         21    1    1    2  503  502  0.11820102731E+02  0.16877397415E+02 -0.27003472500E+02  0.33966879443E+02  0.00000000000E+00 0. -1.
         -1    1    1    2    0  503 -0.11820102731E+02 -0.16877397415E+02 -0.15831685807E+03  0.15965208712E+03  0.00000000000E+00 0.  1.
<mgrwt>
<rscale>  2 0.20604887E+02</rscale>
<asrwt>0</asrwt>
<pdfrwt beam="1">  1       21 0.63835663E-03 0.20604887E+02</pdfrwt>
<pdfrwt beam="2">  1       -1 0.29149176E-01 0.20604887E+02</pdfrwt>
<totfact> 0.47722406E+06</totfact>
</mgrwt>
</event>
<event>
 4    1  0.2245608E+006  0.3152392E+02  0.7546771E-02  0.1581830E+00
         21   -1    0    0  501  502  0.00000000000E+00  0.00000000000E+00  0.11563166488E+02  0.11563166488E+02  0.00000000000E+00 0.  1.
          1   -1    0    0  503    0 -0.00000000000E+00 -0.00000000000E+00 -0.93782917261E+02  0.93782917261E+02  0.00000000000E+00 0.  1.
         21    1    1    2  503  502 -0.31161528474E+02 -0.47662267590E+01 -0.25879196613E+02  0.40785911681E+02  0.00000000000E+00 0.  1.
          1    1    1    2  501    0  0.31161528474E+02  0.47662267590E+01 -0.56340554160E+02  0.64560172068E+02  0.00000000000E+00 0.  1.
<mgrwt>
<rscale>  2 0.31523924E+02</rscale>
<asrwt>0</asrwt>
<pdfrwt beam="1">  1       21 0.17789487E-02 0.31523924E+02</pdfrwt>
<pdfrwt beam="2">  1        1 0.14428141E-01 0.31523924E+02</pdfrwt>
<totfact> 0.45824073E+06</totfact>
</mgrwt>
</event>
<event>
 4    1  0.2245608E+006  0.2044809E+02  0.7546771E-02  0.1736561E+00
         21   -1    0    0  501  502  0.00000000000E+00  0.00000000000E+00  0.17739222944E+02  0.17739222944E+02  0.00000000000E+00 0. -1.
          2   -1    0    0  503    0 -0.00000000000E+00 -0.00000000000E+00 -0.30961629363E+02  0.30961629363E+02  0.00000000000E+00 0.  1.
         21    1    1    2  503  502 -0.87525830188E-02 -0.20448085932E+02  0.52860539879E+01  0.21120290284E+02  0.00000000000E+00 0. -1.
          2    1    1    2  501    0  0.87525830188E-02  0.20448085932E+02 -0.18508460407E+02  0.27580562023E+02  0.00000000000E+00 0.  1.
<mgrwt>
<rscale>  2 0.20448088E+02</rscale>
<asrwt>0</asrwt>
<pdfrwt beam="1">  1       21 0.27291113E-02 0.20448088E+02</pdfrwt>
<pdfrwt beam="2">  1        2 0.47633275E-02 0.20448088E+02</pdfrwt>
<totfact> 0.91266293E+06</totfact>
</mgrwt>
</event>
<event>
 4    1  0.2245608E+006  0.2120185E+02  0.7546771E-02  0.1722433E+00
         21   -1    0    0  503  502  0.00000000000E+00  0.00000000000E+00  0.13872089462E+01  0.13872089462E+01  0.00000000000E+00 0. -1.
          2   -1    0    0  502    0 -0.00000000000E+00 -0.00000000000E+00 -0.77288792414E+03  0.77288792414E+03  0.00000000000E+00 0. -1.
         21    1    1    2  503  501  0.20829890322E+02  0.39539748319E+01 -0.90728493373E+02  0.93172838089E+02  0.00000000000E+00 0. -1.
          2    1    1    2  501    0 -0.20829890322E+02 -0.39539748319E+01 -0.68077222182E+03  0.68110229499E+03  0.00000000000E+00 0. -1.
<mgrwt>
<rscale>  2 0.21201845E+02</rscale>
<asrwt>0</asrwt>
<pdfrwt beam="1">  1       21 0.21341736E-03 0.21201845E+02</pdfrwt>
<pdfrwt beam="2">  1        2 0.11890550E+00 0.21201845E+02</pdfrwt>
<totfact> 0.13033143E+07</totfact>
</mgrwt>
</event>
<event>
 4    1  0.2245608E+006  0.2526139E+02  0.7546771E-02  0.1657276E+00
         -2   -1    0    0    0  501 -0.00000000000E+00  0.00000000000E+00  0.19236592828E+03  0.19236592828E+03  0.00000000000E+00 0. -1.
         21   -1    0    0  503  502  0.00000000000E+00 -0.00000000000E+00 -0.67884825050E+02  0.67884825050E+02  0.00000000000E+00 0. -1.
         21    1    1    2  503  501 -0.16642741713E+01  0.25206510291E+02 -0.64665600054E+02  0.69424619551E+02  0.00000000000E+00 0. -1.
         -2    1    1    2    0  502  0.16642741713E+01 -0.25206510291E+02  0.18914670329E+03  0.19082613378E+03  0.00000000000E+00 0. -1.
<mgrwt>
<rscale>  2 0.25261393E+02</rscale>
<asrwt>0</asrwt>
<pdfrwt beam="2">  1       21 0.10443819E-01 0.25261393E+02</pdfrwt>
<pdfrwt beam="1">  1       -2 0.29594758E-01 0.25261393E+02</pdfrwt>
<totfact> 0.54868739E+04</totfact>
</mgrwt>
</event>
<event>
 4    1  0.2245608E+006  0.5032365E+02  0.7546771E-02  0.1443604E+00
         21   -1    0    0  503  502  0.00000000000E+00  0.00000000000E+00  0.55678545499E+01  0.55678545499E+01  0.00000000000E+00 0. -1.
          2   -1    0    0  502    0 -0.00000000000E+00 -0.00000000000E+00 -0.59717239303E+03  0.59717239303E+03  0.00000000000E+00 0. -1.
         21    1    1    2  503  501 -0.43351062777E+02  0.25556898823E+02 -0.14867070936E+03  0.15695683975E+03  0.00000000000E+00 0. -1.
          2    1    1    2  501    0  0.43351062777E+02 -0.25556898823E+02 -0.44293382912E+03  0.44578340784E+03  0.00000000000E+00 0. -1.
<mgrwt>
<rscale>  2 0.50323650E+02</rscale>
<asrwt>0</asrwt>
<pdfrwt beam="1">  1       21 0.85659294E-03 0.50323650E+02</pdfrwt>
<pdfrwt beam="2">  1        2 0.91872683E-01 0.50323650E+02</pdfrwt>
<totfact> 0.26237129E+06</totfact>
</mgrwt>
</event>
<event>
 4    1  0.2245608E+006  0.2321021E+02  0.7546771E-02  0.1688125E+00
         21   -1    0    0  501  502  0.00000000000E+00  0.00000000000E+00  0.52008618703E+00  0.52008618703E+00  0.00000000000E+00 0.  1.
          2   -1    0    0  503    0 -0.00000000000E+00 -0.00000000000E+00 -0.10440519427E+04  0.10440519427E+04  0.00000000000E+00 0.  1.
         21    1    1    2  503  502 -0.22075450465E+01  0.23104991119E+02 -0.47537959787E+03  0.47594587501E+03  0.00000000000E+00 0.  1.
          2    1    1    2  501    0  0.22075450465E+01 -0.23104991119E+02 -0.56815225865E+03  0.56862615388E+03  0.00000000000E+00 0.  1.
<mgrwt>
<rscale>  2 0.23210210E+02</rscale>
<asrwt>0</asrwt>
<pdfrwt beam="1">  1       21 0.80014137E-04 0.23210210E+02</pdfrwt>
<pdfrwt beam="2">  1        2 0.16062161E+00 0.23210210E+02</pdfrwt>
<totfact> 0.38029610E+07</totfact>
</mgrwt>
</event>
<event>
 4    1  0.2245608E+006  0.2015115E+02  0.7546771E-02  0.1742339E+00
          3   -1    0    0  503    0 -0.00000000000E+00  0.00000000000E+00  0.24955515943E+02  0.24955515943E+02  0.00000000000E+00 0. -1.
         21   -1    0    0  501  502  0.00000000000E+00 -0.00000000000E+00 -0.25575150098E+02  0.25575150098E+02  0.00000000000E+00 0. -1.
         21    1    1    2  503  502 -0.66248576207E+01  0.19031031138E+02 -0.15548160107E+02  0.25452193764E+02  0.00000000000E+00 0. -1.
          3    1    1    2  501    0  0.66248576207E+01 -0.19031031138E+02  0.14928525952E+02  0.25078472277E+02  0.00000000000E+00 0. -1.
<mgrwt>
<rscale>  2 0.20151151E+02</rscale>
<asrwt>0</asrwt>
<pdfrwt beam="2">  1       21 0.39346385E-02 0.20151151E+02</pdfrwt>
<pdfrwt beam="1">  1        3 0.38393102E-02 0.20151151E+02</pdfrwt>
<totfact> 0.36308649E+06</totfact>
</mgrwt>
</event>
<event>
 4    1  0.2245608E+006  0.3181398E+02  0.7546771E-02  0.1578862E+00
         21   -1    0    0  501  502  0.00000000000E+00  0.00000000000E+00  0.12486657389E+03  0.12486657389E+03  0.00000000000E+00 0. -1.
          2   -1    0    0  503    0 -0.00000000000E+00 -0.00000000000E+00 -0.50095727160E+03  0.50095727160E+03  0.00000000000E+00 0.  1.
         21    1    1    2  503  502  0.12811453833E+02  0.29120367807E+02  0.12232473104E+03  0.12639410190E+03  0.00000000000E+00 0. -1.
          2    1    1    2  501    0 -0.12811453833E+02 -0.29120367807E+02 -0.49841542875E+03  0.49942974359E+03  0.00000000000E+00 0.  1.
<mgrwt>
<rscale>  2 0.31813978E+02</rscale>
<asrwt>0</asrwt>
<pdfrwt beam="1">  1       21 0.19210242E-01 0.31813978E+02</pdfrwt>
<pdfrwt beam="2">  1        2 0.77070350E-01 0.31813978E+02</pdfrwt>
<totfact> 0.19605469E+04</totfact>
</mgrwt>
</event>
<event>
 4    1  0.2245608E+006  0.2558670E+02  0.7546771E-02  0.1652715E+00
         -3   -1    0    0    0  501 -0.00000000000E+00  0.00000000000E+00  0.29600870066E+02  0.29600870066E+02  0.00000000000E+00 0. -1.
         21   -1    0    0  503  502  0.00000000000E+00 -0.00000000000E+00 -0.28383882592E+02  0.28383882592E+02  0.00000000000E+00 0. -1.
         21    1    1    2  503  501  0.15371256854E+02 -0.20454921098E+02 -0.13014649747E+02  0.28706452975E+02  0.00000000000E+00 0. -1.
         -3    1    1    2    0  502 -0.15371256854E+02  0.20454921098E+02  0.14231637221E+02  0.29278299684E+02  0.00000000000E+00 0. -1.
<mgrwt>
<rscale>  2 0.25586702E+02</rscale>
<asrwt>0</asrwt>
<pdfrwt beam="2">  1       21 0.43667512E-02 0.25586702E+02</pdfrwt>
<pdfrwt beam="1">  1       -3 0.45539800E-02 0.25586702E+02</pdfrwt>
<totfact> 0.26255129E+06</totfact>
</mgrwt>
</event>
<event>
 4    1  0.2245608E+006  0.2209979E+02  0.7546771E-02  0.1706532E+00
          1   -1    0    0  503    0 -0.00000000000E+00  0.00000000000E+00  0.10089580358E+04  0.10089580358E+04  0.00000000000E+00 0. -1.
         21   -1    0    0  501  502  0.00000000000E+00 -0.00000000000E+00 -0.37784301855E+01  0.37784301855E+01  0.00000000000E+00 0. -1.
         21    1    1    2  503  502  0.21742144129E+02 -0.39597581003E+01  0.29768897066E+02  0.37075433215E+02  0.00000000000E+00 0. -1.
          1    1    1    2  501    0 -0.21742144129E+02  0.39597581003E+01  0.97541070853E+03  0.97566103275E+03  0.00000000000E+00 0. -1.
<mgrwt>
<rscale>  2 0.22099785E+02</rscale>
<asrwt>0</asrwt>
<pdfrwt beam="2">  1       21 0.58129775E-03 0.22099785E+02</pdfrwt>
<pdfrwt beam="1">  1        1 0.15522410E+00 0.22099785E+02</pdfrwt>
<totfact> 0.12339539E+06</totfact>
</mgrwt>
</event>
<event>
 4    1  0.2245608E+006  0.8837109E+02  0.7546771E-02  0.1306845E+00
         -1   -1    0    0    0  501 -0.00000000000E+00  0.00000000000E+00  0.62075469632E+03  0.62075469632E+03  0.00000000000E+00 0. -1.
         21   -1    0    0  503  502  0.00000000000E+00 -0.00000000000E+00 -0.27825776874E+02  0.27825776874E+02  0.00000000000E+00 0.  1.
         21    1    1    2  503  501 -0.31273974529E+02 -0.82652210103E+02  0.56428198787E+02  0.10485032635E+03  0.00000000000E+00 0.  1.
         -1    1    1    2    0  502  0.31273974529E+02  0.82652210103E+02  0.53650072066E+03  0.54373014684E+03  0.00000000000E+00 0. -1.
<mgrwt>
<rscale>  2 0.88371089E+02</rscale>
<asrwt>0</asrwt>
<pdfrwt beam="2">  1       21 0.42808892E-02 0.88371089E+02</pdfrwt>
<pdfrwt beam="1">  1       -1 0.95500712E-01 0.88371089E+02</pdfrwt>
<totfact> 0.35928033E+04</totfact>
</mgrwt>
</event>
<event>
 4    1  0.2245608E+006  0.2415215E+02  0.7546771E-02  0.1673487E+00
         21   -1    0    0  501  502  0.00000000000E+00  0.00000000000E+00  0.20465315907E+01  0.20465315907E+01  0.00000000000E+00 0.  1.
          2   -1    0    0  503    0 -0.00000000000E+00 -0.00000000000E+00 -0.52715277306E+03  0.52715277306E+03  0.00000000000E+00 0.  1.
         21    1    1    2  503  502  0.11064556170E+02 -0.21468627920E+02 -0.83229577161E+02  0.86663076927E+02  0.00000000000E+00 0.  1.
          2    1    1    2  501    0 -0.11064556170E+02  0.21468627920E+02 -0.44187666431E+03  0.44253622773E+03  0.00000000000E+00 0.  1.
<mgrwt>
<rscale>  2 0.24152151E+02</rscale>
<asrwt>0</asrwt>
<pdfrwt beam="1">  1       21 0.31485072E-03 0.24152151E+02</pdfrwt>
<pdfrwt beam="2">  1        2 0.81100503E-01 0.24152151E+02</pdfrwt>
<totfact> 0.11519667E+07</totfact>
</mgrwt>
</event>
<event>
 4    1  0.2245608E+006  0.2413577E+02  0.7546771E-02  0.1673735E+00
         -2   -1    0    0    0  501 -0.00000000000E+00  0.00000000000E+00  0.44177670171E+03  0.44177670171E+03  0.00000000000E+00 0. -1.
         21   -1    0    0  501  502  0.00000000000E+00 -0.00000000000E+00 -0.30421722114E+01  0.30421722114E+01  0.00000000000E+00 0.  1.
         21    1    1    2  503  502 -0.54826072895E+01  0.23504816661E+02  0.51960272447E+02  0.57292279600E+02  0.00000000000E+00 0.  1.
         -2    1    1    2    0  503  0.54826072895E+01 -0.23504816661E+02  0.38677425705E+03  0.38752659432E+03  0.00000000000E+00 0. -1.
<mgrwt>
<rscale>  2 0.24135770E+02</rscale>
<asrwt>0</asrwt>
<pdfrwt beam="2">  1       21 0.46802685E-03 0.24135770E+02</pdfrwt>
<pdfrwt beam="1">  1       -2 0.67965595E-01 0.24135770E+02</pdfrwt>
<totfact> 0.14296021E+06</totfact>
</mgrwt>
</event>
<event>
 4    1  0.2245608E+006  0.2109200E+02  0.7546771E-02  0.1724445E+00
         21   -1    0    0  503  502  0.00000000000E+00  0.00000000000E+00  0.42420391047E+03  0.42420391047E+03  0.00000000000E+00 0. -1.
         -2   -1    0    0    0  501 -0.00000000000E+00 -0.00000000000E+00 -0.10330858166E+02  0.10330858166E+02  0.00000000000E+00 0.  1.
         21    1    1    2  503  501 -0.20455818743E+02  0.51412142498E+01  0.41288105984E+03  0.41341945065E+03  0.00000000000E+00 0. -1.
         -2    1    1    2    0  502  0.20455818743E+02 -0.51412142498E+01  0.99199246440E+00  0.21115317982E+02  0.00000000000E+00 0.  1.
<mgrwt>
<rscale>  2 0.21092003E+02</rscale>
<asrwt>0</asrwt>
<pdfrwt beam="1">  1       21 0.65262127E-01 0.21092003E+02</pdfrwt>
<pdfrwt beam="2">  1       -2 0.15893631E-02 0.21092003E+02</pdfrwt>
<totfact> 0.14625711E+05</totfact>
</mgrwt>
</event>
<event>
 4    1  0.2245608E+006  0.2107830E+02  0.7546771E-02  0.1724698E+00
         21   -1    0    0  503  502  0.00000000000E+00  0.00000000000E+00  0.17085545044E+01  0.17085545044E+01  0.00000000000E+00 0.  1.
         -4   -1    0    0    0  501 -0.00000000000E+00 -0.00000000000E+00 -0.29151422744E+03  0.29151422744E+03  0.00000000000E+00 0.  1.
         21    1    1    2  503  501 -0.59315629035E+01  0.20226503745E+02 -0.19307606680E+03  0.19422322843E+03  0.00000000000E+00 0.  1.
         -4    1    1    2    0  502  0.59315629035E+01 -0.20226503745E+02 -0.96729606144E+02  0.98999553519E+02  0.00000000000E+00 0.  1.
<mgrwt>
<rscale>  2 0.21078304E+02</rscale>
<asrwt>0</asrwt>
<pdfrwt beam="1">  1       21 0.26285464E-03 0.21078304E+02</pdfrwt>
<pdfrwt beam="2">  1       -4 0.44848326E-01 0.21078304E+02</pdfrwt>
<totfact> 0.30369856E+06</totfact>
</mgrwt>
</event>
<event>
 4    1  0.2245608E+006  0.2758934E+02  0.7546771E-02  0.1626374E+00
         21   -1    0    0  503  502  0.00000000000E+00  0.00000000000E+00  0.19392373092E+01  0.19392373092E+01  0.00000000000E+00 0. -1.
          2   -1    0    0  502    0 -0.00000000000E+00 -0.00000000000E+00 -0.73471103597E+03  0.73471103597E+03  0.00000000000E+00 0. -1.
         21    1    1    2  503  501 -0.29493743302E+01  0.27431236054E+02 -0.11501601152E+03  0.11827871502E+03  0.00000000000E+00 0. -1.
          2    1    1    2  501    0  0.29493743302E+01 -0.27431236054E+02 -0.61775578713E+03  0.61837155825E+03  0.00000000000E+00 0. -1.
<mgrwt>
<rscale>  2 0.27589337E+02</rscale>
<asrwt>0</asrwt>
<pdfrwt beam="1">  1       21 0.29834453E-03 0.27589337E+02</pdfrwt>
<pdfrwt beam="2">  1        2 0.11303234E+00 0.27589337E+02</pdfrwt>
<totfact> 0.90565901E+06</totfact>
</mgrwt>
</event>
<event>
 4    1  0.2245608E+006  0.2579987E+02  0.7546771E-02  0.1649772E+00
          2   -1    0    0  503    0 -0.00000000000E+00  0.00000000000E+00  0.64271211844E+01  0.64271211844E+01  0.00000000000E+00 0. -1.
         21   -1    0    0  501  502  0.00000000000E+00 -0.00000000000E+00 -0.16076523391E+03  0.16076523391E+03  0.00000000000E+00 0.  1.
         21    1    1    2  503  502 -0.20007437388E+02  0.16289131389E+02 -0.12703272243E+03  0.12962617760E+03  0.00000000000E+00 0.  1.
          2    1    1    2  501    0  0.20007437388E+02 -0.16289131389E+02 -0.27305390305E+02  0.37566177500E+02  0.00000000000E+00 0. -1.
<mgrwt>
<rscale>  2 0.25799871E+02</rscale>
<asrwt>0</asrwt>
<pdfrwt beam="2">  1       21 0.24733111E-01 0.25799871E+02</pdfrwt>
<pdfrwt beam="1">  1        2 0.98878797E-03 0.25799871E+02</pdfrwt>
<totfact> 0.19184221E+06</totfact>
</mgrwt>
</event>
<event>
 4    1  0.2245608E+006  0.3625137E+02  0.7546771E-02  0.1537761E+00
         21   -1    0    0  501  502  0.00000000000E+00  0.00000000000E+00  0.92277968923E+00  0.92277968923E+00  0.00000000000E+00 0. -1.
          2   -1    0    0  503    0 -0.00000000000E+00 -0.00000000000E+00 -0.26594173169E+04  0.26594173169E+04  0.00000000000E+00 0.  1.
         21    1    1    2  503  502  0.66443638106E+01  0.35637263340E+02 -0.42268597549E+03  0.42423766451E+03  0.00000000000E+00 0. -1.
          2    1    1    2  501    0 -0.66443638106E+01 -0.35637263340E+02 -0.22358085617E+04  0.22361024321E+04  0.00000000000E+00 0.  1.
<mgrwt>
<rscale>  2 0.36251374E+02</rscale>
<asrwt>0</asrwt>
<pdfrwt beam="1">  1       21 0.14196584E-03 0.36251374E+02</pdfrwt>
<pdfrwt beam="2">  1        2 0.40914189E+00 0.36251374E+02</pdfrwt>
<totfact> 0.29744394E+06</totfact>
</mgrwt>
</event>
<event>
 4    1  0.2245608E+006  0.2086957E+02  0.7546771E-02  0.1728569E+00
          3   -1    0    0  502    0 -0.00000000000E+00  0.00000000000E+00  0.27027379386E+02  0.27027379386E+02  0.00000000000E+00 0.  1.
         21   -1    0    0  503  502  0.00000000000E+00 -0.00000000000E+00 -0.20920648250E+03  0.20920648250E+03  0.00000000000E+00 0.  1.
         21    1    1    2  503  501 -0.19430194084E+02 -0.76162103398E+01 -0.20456618422E+03  0.20562797190E+03  0.00000000000E+00 0.  1.
          3    1    1    2  501    0  0.19430194084E+02  0.76162103398E+01  0.22387081099E+02  0.30605889992E+02  0.00000000000E+00 0.  1.
<mgrwt>
<rscale>  2 0.20869574E+02</rscale>
<asrwt>0</asrwt>
<pdfrwt beam="2">  1       21 0.32185613E-01 0.20869574E+02</pdfrwt>
<pdfrwt beam="1">  1        3 0.41580583E-02 0.20869574E+02</pdfrwt>
<totfact> 0.97401009E+04</totfact>
</mgrwt>
</event>
<event>
 4    1  0.2245608E+006  0.2857576E+02  0.7546771E-02  0.1614387E+00
         21   -1    0    0  501  502  0.00000000000E+00  0.00000000000E+00  0.20684264685E+02  0.20684264685E+02  0.00000000000E+00 0.  1.
          3   -1    0    0  503    0 -0.00000000000E+00 -0.00000000000E+00 -0.12297887428E+03  0.12297887428E+03  0.00000000000E+00 0.  1.
         21    1    1    2  503  502 -0.15534271409E+02  0.23984591063E+02  0.80423095539E+01  0.29685904729E+02  0.00000000000E+00 0.  1.
          3    1    1    2  501    0  0.15534271409E+02 -0.23984591063E+02 -0.11033691915E+03  0.11397723424E+03  0.00000000000E+00 0.  1.
<mgrwt>
<rscale>  2 0.28575762E+02</rscale>
<asrwt>0</asrwt>
<pdfrwt beam="1">  1       21 0.31821945E-02 0.28575762E+02</pdfrwt>
<pdfrwt beam="2">  1        3 0.18919827E-01 0.28575762E+02</pdfrwt>
<totfact> 0.47437662E+05</totfact>
</mgrwt>
</event>
<event>
 4    1  0.2245608E+006  0.2160808E+02  0.7546771E-02  0.1715120E+00
          1   -1    0    0  503    0 -0.00000000000E+00  0.00000000000E+00  0.81292946711E+03  0.81292946711E+03  0.00000000000E+00 0.  1.
         21   -1    0    0  501  502  0.00000000000E+00 -0.00000000000E+00 -0.35064542717E+01  0.35064542717E+01  0.00000000000E+00 0.  1.
         21    1    1    2  503  502  0.19833214864E+02 -0.85762761831E+01  0.31420556097E+02  0.38133453430E+02  0.00000000000E+00 0.  1.
          1    1    1    2  501    0 -0.19833214864E+02  0.85762761831E+01  0.77800245674E+03  0.77830246795E+03  0.00000000000E+00 0.  1.
<mgrwt>
<rscale>  2 0.21608075E+02</rscale>
<asrwt>0</asrwt>
<pdfrwt beam="2">  1       21 0.53945515E-03 0.21608075E+02</pdfrwt>
<pdfrwt beam="1">  1        1 0.12506592E+00 0.21608075E+02</pdfrwt>
<totfact> 0.18825208E+06</totfact>
</mgrwt>
</event>
<event>
 4    1  0.2245608E+006  0.3590929E+02  0.7546771E-02  0.1540671E+00
         21   -1    0    0  501  502  0.00000000000E+00  0.00000000000E+00  0.11762726676E+02  0.11762726676E+02  0.00000000000E+00 0. -1.
          1   -1    0    0  503    0 -0.00000000000E+00 -0.00000000000E+00 -0.13431874913E+03  0.13431874913E+03  0.00000000000E+00 0. -1.
         21    1    1    2  503  502  0.52577971472E+01 -0.35522287976E+02 -0.29959653969E+02  0.46765994482E+02  0.00000000000E+00 0. -1.
          1    1    1    2  501    0 -0.52577971472E+01  0.35522287976E+02 -0.92596368483E+02  0.99315481322E+02  0.00000000000E+00 0. -1.
<mgrwt>
<rscale>  2 0.35909294E+02</rscale>
<asrwt>0</asrwt>
<pdfrwt beam="1">  1       21 0.18096502E-02 0.35909294E+02</pdfrwt>
<pdfrwt beam="2">  1        1 0.20664423E-01 0.35909294E+02</pdfrwt>
<totfact> 0.29606339E+06</totfact>
</mgrwt>
</event>
<event>
 4    1  0.2245608E+006  0.2653894E+02  0.7546771E-02  0.1639833E+00
         21   -1    0    0  503  502  0.00000000000E+00  0.00000000000E+00  0.48758941551E+01  0.48758941551E+01  0.00000000000E+00 0. -1.
          2   -1    0    0  502    0 -0.00000000000E+00 -0.00000000000E+00 -0.10021209430E+04  0.10021209430E+04  0.00000000000E+00 0. -1.
         21    1    1    2  503  501  0.23903279944E+02 -0.11530325005E+02 -0.32823267763E+02  0.42209976231E+02  0.00000000000E+00 0. -1.
          2    1    1    2  501    0 -0.23903279944E+02  0.11530325005E+02 -0.96442178107E+03  0.96478686092E+03  0.00000000000E+00 0. -1.
<mgrwt>
<rscale>  2 0.26538937E+02</rscale>
<asrwt>0</asrwt>
<pdfrwt beam="1">  1       21 0.75013840E-03 0.26538937E+02</pdfrwt>
<pdfrwt beam="2">  1        2 0.15417228E+00 0.26538937E+02</pdfrwt>
<totfact> 0.15903206E+06</totfact>
</mgrwt>
</event>
<event>
 4    1  0.2245608E+006  0.2754448E+02  0.7546771E-02  0.1626933E+00
          4   -1    0    0  502    0 -0.00000000000E+00  0.00000000000E+00  0.34343321799E+02  0.34343321799E+02  0.00000000000E+00 0.  1.
         21   -1    0    0  503  502  0.00000000000E+00 -0.00000000000E+00 -0.25170600569E+02  0.25170600569E+02  0.00000000000E+00 0. -1.
         21    1    1    2  503  501 -0.17171581944E+02  0.21536834340E+02 -0.58211685150E+01  0.28152876634E+02  0.00000000000E+00 0. -1.
          4    1    1    2  501    0  0.17171581944E+02 -0.21536834340E+02  0.14993889745E+02  0.31361045735E+02  0.00000000000E+00 0.  1.
<mgrwt>
<rscale>  2 0.27544481E+02</rscale>
<asrwt>0</asrwt>
<pdfrwt beam="2">  1       21 0.38724001E-02 0.27544481E+02</pdfrwt>
<pdfrwt beam="1">  1        4 0.52835880E-02 0.27544481E+02</pdfrwt>
<totfact> 0.22027926E+06</totfact>
</mgrwt>
</event>
<event>
 4    1  0.2245608E+006  0.3303120E+02  0.7546771E-02  0.1566813E+00
         -4   -1    0    0    0  501 -0.00000000000E+00  0.00000000000E+00  0.31731312652E+03  0.31731312652E+03  0.00000000000E+00 0. -1.
         21   -1    0    0  501  502  0.00000000000E+00 -0.00000000000E+00 -0.39449388686E+01  0.39449388686E+01  0.00000000000E+00 0. -1.
         21    1    1    2  503  502 -0.32010130404E+02 -0.81493475123E+01  0.99127428774E+02  0.10448591986E+03  0.00000000000E+00 0. -1.
         -4    1    1    2    0  503  0.32010130404E+02  0.81493475123E+01  0.21424075888E+03  0.21677214553E+03  0.00000000000E+00 0. -1.
<mgrwt>
<rscale>  2 0.33031202E+02</rscale>
<asrwt>0</asrwt>
<pdfrwt beam="2">  1       21 0.60691392E-03 0.33031202E+02</pdfrwt>
<pdfrwt beam="1">  1       -4 0.48817384E-01 0.33031202E+02</pdfrwt>
<totfact> 0.90643861E+05</totfact>
</mgrwt>
</event>
<event>
 4    1  0.2245608E+006  0.2072724E+02  0.7546771E-02  0.1731241E+00
         21   -1    0    0  503  502  0.00000000000E+00  0.00000000000E+00  0.27744085283E+02  0.27744085283E+02  0.00000000000E+00 0.  1.
         -4   -1    0    0    0  501 -0.00000000000E+00 -0.00000000000E+00 -0.15865504057E+02  0.15865504057E+02  0.00000000000E+00 0.  1.
         21    1    1    2  503  501 -0.80388335379E+01 -0.19104859762E+02  0.93158697090E+01  0.22724522869E+02  0.00000000000E+00 0.  1.
         -4    1    1    2    0  502  0.80388335379E+01  0.19104859762E+02  0.25627115164E+01  0.20885066471E+02  0.00000000000E+00 0.  1.
<mgrwt>
<rscale>  2 0.20727241E+02</rscale>
<asrwt>0</asrwt>
<pdfrwt beam="1">  1       21 0.42683208E-02 0.20727241E+02</pdfrwt>
<pdfrwt beam="2">  1       -4 0.24408468E-02 0.20727241E+02</pdfrwt>
<totfact> 0.53336394E+06</totfact>
</mgrwt>
</event>
<event>
 4    1  0.2245608E+006  0.2115219E+02  0.7546771E-02  0.1723341E+00
          2   -1    0    0  503    0 -0.00000000000E+00  0.00000000000E+00  0.67786066053E+03  0.67786066053E+03  0.00000000000E+00 0. -1.
         21   -1    0    0  501  502  0.00000000000E+00 -0.00000000000E+00 -0.82478563449E+01  0.82478563449E+01  0.00000000000E+00 0. -1.
         21    1    1    2  503  502  0.52927123906E+00  0.21145563913E+02  0.57648975527E+01  0.21923709655E+02  0.00000000000E+00 0. -1.
          2    1    1    2  501    0 -0.52927123906E+00 -0.21145563913E+02  0.66384790664E+03  0.66418480722E+03  0.00000000000E+00 0. -1.
<mgrwt>
<rscale>  2 0.21152187E+02</rscale>
<asrwt>0</asrwt>
<pdfrwt beam="2">  1       21 0.12689015E-02 0.21152187E+02</pdfrwt>
<pdfrwt beam="1">  1        2 0.10428621E+00 0.21152187E+02</pdfrwt>
<totfact> 0.10877001E+06</totfact>
</mgrwt>
</event>
<event>
 4    1  0.2245608E+006  0.2156331E+02  0.7546771E-02  0.1715916E+00
         21   -1    0    0  501  502  0.00000000000E+00  0.00000000000E+00  0.37339199195E+00  0.37339199195E+00  0.00000000000E+00 0. -1.
          3   -1    0    0  503    0 -0.00000000000E+00 -0.00000000000E+00 -0.17104125423E+04  0.17104125423E+04  0.00000000000E+00 0. -1.
         21    1    1    2  503  502 -0.21214913746E+02  0.38605347448E+01 -0.40894732236E+03  0.40951543165E+03  0.00000000000E+00 0. -1.
          3    1    1    2  501    0  0.21214913746E+02 -0.38605347448E+01 -0.13010918280E+04  0.13012705027E+04  0.00000000000E+00 0. -1.
<mgrwt>
<rscale>  2 0.21563309E+02</rscale>
<asrwt>0</asrwt>
<pdfrwt beam="1">  1       21 0.57444129E-04 0.21563309E+02</pdfrwt>
<pdfrwt beam="2">  1        3 0.26314402E+00 0.21563309E+02</pdfrwt>
<totfact> 0.67058794E+05</totfact>
</mgrwt>
</event>
<event>
 4    1  0.2245608E+006  0.2471329E+02  0.7546771E-02  0.1665154E+00
         -1   -1    0    0    0  501 -0.00000000000E+00  0.00000000000E+00  0.98833927346E+03  0.98833927346E+03  0.00000000000E+00 0. -1.
         21   -1    0    0  503  502  0.00000000000E+00 -0.00000000000E+00 -0.59614469549E+01  0.59614469549E+01  0.00000000000E+00 0.  1.
         21    1    1    2  503  501  0.18519219045E+02  0.16364145907E+02  0.20510157056E+02  0.32115623733E+02  0.00000000000E+00 0.  1.
         -1    1    1    2    0  502 -0.18519219045E+02 -0.16364145907E+02  0.96186766945E+03  0.96218509669E+03  0.00000000000E+00 0. -1.
<mgrwt>
<rscale>  2 0.24713291E+02</rscale>
<asrwt>0</asrwt>
<pdfrwt beam="2">  1       21 0.91714647E-03 0.24713291E+02</pdfrwt>
<pdfrwt beam="1">  1       -1 0.15205207E+00 0.24713291E+02</pdfrwt>
<totfact> 0.12457845E+05</totfact>
</mgrwt>
</event>
<event>
 4    1  0.2245608E+006  0.2042632E+02  0.7546771E-02  0.1736981E+00
         -2   -1    0    0    0  501 -0.00000000000E+00  0.00000000000E+00  0.11229098413E+03  0.11229098413E+03  0.00000000000E+00 0. -1.
         21   -1    0    0  501  502  0.00000000000E+00 -0.00000000000E+00 -0.98464694737E+01  0.98464694737E+01  0.00000000000E+00 0.  1.
         21    1    1    2  503  502  0.36328033448E+01 -0.20100679257E+02  0.30343928732E+01  0.20650474736E+02  0.00000000000E+00 0.  1.
         -2    1    1    2    0  503 -0.36328033448E+01  0.20100679257E+02  0.99410121788E+02  0.10148697887E+03  0.00000000000E+00 0. -1.
<mgrwt>
<rscale>  2 0.20426320E+02</rscale>
<asrwt>0</asrwt>
<pdfrwt beam="2">  1       21 0.15148415E-02 0.20426320E+02</pdfrwt>
<pdfrwt beam="1">  1       -2 0.17275535E-01 0.20426320E+02</pdfrwt>
<totfact> 0.26821002E+06</totfact>
</mgrwt>
</event>
<event>
 4    1  0.2245608E+006  0.2288779E+02  0.7546771E-02  0.1693336E+00
         21   -1    0    0  503  502  0.00000000000E+00  0.00000000000E+00  0.38417113577E+01  0.38417113577E+01  0.00000000000E+00 0.  1.
          2   -1    0    0  502    0 -0.00000000000E+00 -0.00000000000E+00 -0.78571015780E+03  0.78571015780E+03  0.00000000000E+00 0.  1.
         21    1    1    2  503  501  0.22130684972E+02  0.58381115865E+01 -0.32045843646E+02  0.39380031224E+02  0.00000000000E+00 0.  1.
          2    1    1    2  501    0 -0.22130684972E+02 -0.58381115865E+01 -0.74982260280E+03  0.75017183794E+03  0.00000000000E+00 0.  1.
<mgrwt>
<rscale>  2 0.22887786E+02</rscale>
<asrwt>0</asrwt>
<pdfrwt beam="1">  1       21 0.59103202E-03 0.22887786E+02</pdfrwt>
<pdfrwt beam="2">  1        2 0.12087859E+00 0.22887786E+02</pdfrwt>
<totfact> 0.29436080E+06</totfact>
</mgrwt>
</event>
<event>
 4    1  0.2245608E+006  0.3150076E+02  0.7546771E-02  0.1582069E+00
         21   -1    0    0  503  502  0.00000000000E+00  0.00000000000E+00  0.68913435514E+02  0.68913435514E+02  0.00000000000E+00 0. -1.
          1   -1    0    0  502    0 -0.00000000000E+00 -0.00000000000E+00 -0.84374234878E+03  0.84374234878E+03  0.00000000000E+00 0. -1.
         21    1    1    2  503  501 -0.30208383703E+02  0.89303576636E+01  0.65002864793E+02  0.72233442153E+02  0.00000000000E+00 0. -1.
          1    1    1    2  501    0  0.30208383703E+02 -0.89303576636E+01 -0.83983177806E+03  0.84042234214E+03  0.00000000000E+00 0. -1.
<mgrwt>
<rscale>  2 0.31500758E+02</rscale>
<asrwt>0</asrwt>
<pdfrwt beam="1">  1       21 0.10602068E-01 0.31500758E+02</pdfrwt>
<pdfrwt beam="2">  1        1 0.12980651E+00 0.31500758E+02</pdfrwt>
<totfact> 0.17863406E+04</totfact>
</mgrwt>
</event>
<event>
 4    1  0.2245608E+006  0.3325665E+02  0.7546771E-02  0.1564650E+00
         21   -1    0    0  503  502  0.00000000000E+00  0.00000000000E+00  0.15529700784E+01  0.15529700784E+01  0.00000000000E+00 0. -1.
          2   -1    0    0  502    0 -0.00000000000E+00 -0.00000000000E+00 -0.16734526799E+04  0.16734526799E+04  0.00000000000E+00 0. -1.
         21    1    1    2  503  501  0.10945208502E+02  0.31403930616E+02 -0.20120180388E+03  0.20393177862E+03  0.00000000000E+00 0. -1.
          2    1    1    2  501    0 -0.10945208502E+02 -0.31403930616E+02 -0.14706979059E+04  0.14710738713E+04  0.00000000000E+00 0. -1.
<mgrwt>
<rscale>  2 0.33256645E+02</rscale>
<asrwt>0</asrwt>
<pdfrwt beam="1">  1       21 0.23891673E-03 0.33256645E+02</pdfrwt>
<pdfrwt beam="2">  1        2 0.25745614E+00 0.33256645E+02</pdfrwt>
<totfact> 0.41553632E+06</totfact>
</mgrwt>
</event>
<event>
 4    1  0.2245608E+006  0.2701426E+02  0.7546771E-02  0.1633649E+00
         21   -1    0    0  501  502  0.00000000000E+00  0.00000000000E+00  0.12371833089E+04  0.12371833089E+04  0.00000000000E+00 0. -1.
          2   -1    0    0  503    0 -0.00000000000E+00 -0.00000000000E+00 -0.27142398928E+03  0.27142398928E+03  0.00000000000E+00 0.  1.
         21    1    1    2  503  502 -0.26968521368E+02 -0.15714093876E+01  0.12363632286E+04  0.12366583212E+04  0.00000000000E+00 0. -1.
          2    1    1    2  501    0  0.26968521368E+02  0.15714093876E+01 -0.27060390900E+03  0.27194897691E+03  0.00000000000E+00 0.  1.
<mgrwt>
<rscale>  2 0.27014264E+02</rscale>
<asrwt>0</asrwt>
<pdfrwt beam="1">  1       21 0.19033589E+00 0.27014264E+02</pdfrwt>
<pdfrwt beam="2">  1        2 0.41757537E-01 0.27014264E+02</pdfrwt>
<totfact> 0.32169472E+02</totfact>
</mgrwt>
</event>
<event>
 4    1  0.2245608E+006  0.4766674E+02  0.7546771E-02  0.1458349E+00
          2   -1    0    0  502    0 -0.00000000000E+00  0.00000000000E+00  0.91817743326E+03  0.91817743326E+03  0.00000000000E+00 0. -1.
         21   -1    0    0  503  502  0.00000000000E+00 -0.00000000000E+00 -0.75693185755E+01  0.75693185755E+01  0.00000000000E+00 0. -1.
         21    1    1    2  503  501  0.41129201964E+02  0.24093712109E+02  0.75557296007E+02  0.89336572563E+02  0.00000000000E+00 0. -1.
          2    1    1    2  501    0 -0.41129201964E+02 -0.24093712109E+02  0.83505081868E+03  0.83641017927E+03  0.00000000000E+00 0. -1.
<mgrwt>
<rscale>  2 0.47666741E+02</rscale>
<asrwt>0</asrwt>
<pdfrwt beam="2">  1       21 0.11645113E-02 0.47666741E+02</pdfrwt>
<pdfrwt beam="1">  1        2 0.14125798E+00 0.47666741E+02</pdfrwt>
<totfact> 0.98682412E+05</totfact>
</mgrwt>
</event>
<event>
 4    1  0.2245608E+006  0.2177218E+02  0.7546771E-02  0.1712222E+00
         21   -1    0    0  503  502  0.00000000000E+00  0.00000000000E+00  0.96883276313E+00  0.96883276313E+00  0.00000000000E+00 0. -1.
          2   -1    0    0  502    0 -0.00000000000E+00 -0.00000000000E+00 -0.51595718828E+03  0.51595718828E+03  0.00000000000E+00 0.  1.
         21    1    1    2  503  501 -0.21181805923E+01 -0.21668901066E+02 -0.19872050059E+03  0.19990964288E+03  0.00000000000E+00 0. -1.
          2    1    1    2  501    0  0.21181805923E+01  0.21668901066E+02 -0.31626785493E+03  0.31701637816E+03  0.00000000000E+00 0.  1.
<mgrwt>
<rscale>  2 0.21772183E+02</rscale>
<asrwt>0</asrwt>
<pdfrwt beam="1">  1       21 0.14905098E-03 0.21772183E+02</pdfrwt>
<pdfrwt beam="2">  1        2 0.79378141E-01 0.21772183E+02</pdfrwt>
<totfact> 0.33692620E+07</totfact>
</mgrwt>
</event>
<event>
 4    1  0.2245608E+006  0.2142330E+02  0.7546771E-02  0.1718421E+00
         21   -1    0    0  501  502  0.00000000000E+00  0.00000000000E+00  0.83388049099E+02  0.83388049099E+02  0.00000000000E+00 0. -1.
         -4   -1    0    0    0  501 -0.00000000000E+00 -0.00000000000E+00 -0.94896834533E+01  0.94896834533E+01  0.00000000000E+00 0. -1.
         21    1    1    2  503  502  0.11063191695E+02  0.18345672504E+02  0.67045518600E+02  0.70385079913E+02  0.00000000000E+00 0. -1.
         -4    1    1    2    0  503 -0.11063191695E+02 -0.18345672504E+02  0.68528470459E+01  0.22492652639E+02  0.00000000000E+00 0. -1.
<mgrwt>
<rscale>  2 0.21423303E+02</rscale>
<asrwt>0</asrwt>
<pdfrwt beam="1">  1       21 0.12828930E-01 0.21423303E+02</pdfrwt>
<pdfrwt beam="2">  1       -4 0.14599514E-02 0.21423303E+02</pdfrwt>
<totfact> 0.19317059E+06</totfact>
</mgrwt>
</event>
<event>
 4    1  0.2245608E+006  0.2546892E+02  0.7546771E-02  0.1654357E+00
         21   -1    0    0  501  502  0.00000000000E+00  0.00000000000E+00  0.10243201198E+02  0.10243201198E+02  0.00000000000E+00 0. -1.
          2   -1    0    0  503    0 -0.00000000000E+00 -0.00000000000E+00 -0.10403906248E+03  0.10403906248E+03  0.00000000000E+00 0.  1.
         21    1    1    2  503  502  0.56799947829E+01  0.24827479423E+02 -0.11152968171E+02  0.27803862578E+02  0.00000000000E+00 0. -1.
          2    1    1    2  501    0 -0.56799947829E+01 -0.24827479423E+02 -0.82642893111E+02  0.86478401101E+02  0.00000000000E+00 0.  1.
<mgrwt>
<rscale>  2 0.25468924E+02</rscale>
<asrwt>0</asrwt>
<pdfrwt beam="1">  1       21 0.15758771E-02 0.25468924E+02</pdfrwt>
<pdfrwt beam="2">  1        2 0.16006009E-01 0.25468924E+02</pdfrwt>
<totfact> 0.55177853E+06</totfact>
</mgrwt>
</event>
<event>
 4    1  0.2245608E+006  0.2675580E+02  0.7546771E-02  0.1636992E+00
         21   -1    0    0  501  502  0.00000000000E+00  0.00000000000E+00  0.33497390890E+01  0.33497390890E+01  0.00000000000E+00 0.  1.
          2   -1    0    0  503    0 -0.00000000000E+00 -0.00000000000E+00 -0.70513059419E+03  0.70513059419E+03  0.00000000000E+00 0. -1.
         21    1    1    2  503  502  0.25142249961E+02  0.91509636297E+01 -0.55164308497E+02  0.61310470561E+02  0.00000000000E+00 0.  1.
          2    1    1    2  501    0 -0.25142249961E+02 -0.91509636297E+01 -0.64661654661E+03  0.64716986272E+03  0.00000000000E+00 0. -1.
<mgrwt>
<rscale>  2 0.26755801E+02</rscale>
<asrwt>0</asrwt>
<pdfrwt beam="1">  1       21 0.51534380E-03 0.26755801E+02</pdfrwt>
<pdfrwt beam="2">  1        2 0.10848177E+00 0.26755801E+02</pdfrwt>
<totfact> 0.42046560E+06</totfact>
</mgrwt>
</event>
<event>
 4    1  0.2245608E+006  0.2433521E+02  0.7546771E-02  0.1670738E+00
         21   -1    0    0  501  502  0.00000000000E+00  0.00000000000E+00  0.32593621412E+02  0.32593621412E+02  0.00000000000E+00 0.  1.
          2   -1    0    0  503    0 -0.00000000000E+00 -0.00000000000E+00 -0.35707202666E+03  0.35707202666E+03  0.00000000000E+00 0. -1.
         21    1    1    2  503  502 -0.23432888012E+02  0.65652400767E+01  0.27571962876E+02  0.36775205705E+02  0.00000000000E+00 0.  1.
          2    1    1    2  501    0  0.23432888012E+02 -0.65652400767E+01 -0.35205036813E+03  0.35289044237E+03  0.00000000000E+00 0. -1.
<mgrwt>
<rscale>  2 0.24335214E+02</rscale>
<asrwt>0</asrwt>
<pdfrwt beam="1">  1       21 0.50144033E-02 0.24335214E+02</pdfrwt>
<pdfrwt beam="2">  1        2 0.54934158E-01 0.24335214E+02</pdfrwt>
<totfact> 0.25416551E+05</totfact>
</mgrwt>
</event>
<event>
 4    1  0.2245608E+006  0.4669656E+02  0.7546771E-02  0.1464020E+00
         21   -1    0    0  503  502  0.00000000000E+00  0.00000000000E+00  0.18713196488E+02  0.18713196488E+02  0.00000000000E+00 0. -1.
         -3   -1    0    0    0  501 -0.00000000000E+00 -0.00000000000E+00 -0.19627161268E+03  0.19627161268E+03  0.00000000000E+00 0. -1.
         21    1    1    2  503  501  0.32138192688E+02  0.33877795783E+02 -0.20261437077E+02  0.50902792741E+02  0.00000000000E+00 0. -1.
         -3    1    1    2    0  502 -0.32138192688E+02 -0.33877795783E+02 -0.15729697912E+03  0.16408201643E+03  0.00000000000E+00 0. -1.
<mgrwt>
<rscale>  2 0.46696557E+02</rscale>
<asrwt>0</asrwt>
<pdfrwt beam="1">  1       21 0.28789535E-02 0.46696557E+02</pdfrwt>
<pdfrwt beam="2">  1       -3 0.30195631E-01 0.46696557E+02</pdfrwt>
<totfact> 0.27989520E+05</totfact>
</mgrwt>
</event>
<event>
 4    1  0.2245608E+006  0.2122321E+02  0.7546771E-02  0.1722043E+00
         21   -1    0    0  501  502  0.00000000000E+00  0.00000000000E+00  0.87302300137E+01  0.87302300137E+01  0.00000000000E+00 0.  1.
          2   -1    0    0  503    0 -0.00000000000E+00 -0.00000000000E+00 -0.70267931722E+03  0.70267931722E+03  0.00000000000E+00 0. -1.
         21    1    1    2  503  502 -0.21164447195E+02  0.15782396554E+01 -0.45773733351E+01  0.21711218577E+02  0.00000000000E+00 0.  1.
          2    1    1    2  501    0  0.21164447195E+02 -0.15782396554E+01 -0.68937171387E+03  0.68969832866E+03  0.00000000000E+00 0. -1.
<mgrwt>
<rscale>  2 0.21223211E+02</rscale>
<asrwt>0</asrwt>
<pdfrwt beam="1">  1       21 0.13431122E-02 0.21223211E+02</pdfrwt>
<pdfrwt beam="2">  1        2 0.10810452E+00 0.21223211E+02</pdfrwt>
<totfact> 0.96106822E+05</totfact>
</mgrwt>
</event>
<event>
 4    1  0.2245608E+006  0.2401314E+02  0.7546771E-02  0.1675595E+00
         21   -1    0    0  503  502  0.00000000000E+00  0.00000000000E+00  0.34031303408E+02  0.34031303408E+02  0.00000000000E+00 0.  1.
          1   -1    0    0  502    0 -0.00000000000E+00 -0.00000000000E+00 -0.17774109151E+03  0.17774109151E+03  0.00000000000E+00 0. -1.
         21    1    1    2  503  501  0.18017841134E+02 -0.15874131853E+02  0.28857833187E+02  0.37542045728E+02  0.00000000000E+00 0.  1.
          1    1    1    2  501    0 -0.18017841134E+02  0.15874131853E+02 -0.17256762129E+03  0.17423034919E+03  0.00000000000E+00 0. -1.
<mgrwt>
<rscale>  2 0.24013135E+02</rscale>
<asrwt>0</asrwt>
<pdfrwt beam="1">  1       21 0.52355851E-02 0.24013135E+02</pdfrwt>
<pdfrwt beam="2">  1        1 0.27344784E-01 0.24013135E+02</pdfrwt>
<totfact> 0.36968904E+05</totfact>
</mgrwt>
</event>
<event>
 4    1  0.2245608E+006  0.2146581E+02  0.7546771E-02  0.1717658E+00
          2   -1    0    0  503    0 -0.00000000000E+00  0.00000000000E+00  0.63948852320E+03  0.63948852320E+03  0.00000000000E+00 0.  1.
         21   -1    0    0  501  502  0.00000000000E+00 -0.00000000000E+00 -0.46819972690E+02  0.46819972690E+02  0.00000000000E+00 0. -1.
         21    1    1    2  503  502  0.17367196370E+02  0.12615921084E+02 -0.44169211181E+02  0.49109064243E+02  0.00000000000E+00 0. -1.
          2    1    1    2  501    0 -0.17367196370E+02 -0.12615921084E+02  0.63683776169E+03  0.63719943165E+03  0.00000000000E+00 0.  1.
<mgrwt>
<rscale>  2 0.21465809E+02</rscale>
<asrwt>0</asrwt>
<pdfrwt beam="2">  1       21 0.72030732E-02 0.21465809E+02</pdfrwt>
<pdfrwt beam="1">  1        2 0.98382844E-01 0.21465809E+02</pdfrwt>
<totfact> 0.77756921E+04</totfact>
</mgrwt>
</event>
<event>
 4    1  0.2245608E+006  0.2638289E+02  0.7546771E-02  0.1641898E+00
         21   -1    0    0  503  502  0.00000000000E+00  0.00000000000E+00  0.14204859747E+03  0.14204859747E+03  0.00000000000E+00 0. -1.
          1   -1    0    0  502    0 -0.00000000000E+00 -0.00000000000E+00 -0.28720084874E+02  0.28720084874E+02  0.00000000000E+00 0.  1.
         21    1    1    2  503  501 -0.39078322470E+01 -0.26091874936E+02  0.13442417674E+03  0.13698874546E+03  0.00000000000E+00 0. -1.
          1    1    1    2  501    0  0.39078322470E+01  0.26091874936E+02 -0.21095664141E+02  0.33779936887E+02  0.00000000000E+00 0.  1.
<mgrwt>
<rscale>  2 0.26382894E+02</rscale>
<asrwt>0</asrwt>
<pdfrwt beam="1">  1       21 0.21853630E-01 0.26382894E+02</pdfrwt>
<pdfrwt beam="2">  1        1 0.44184747E-02 0.26382894E+02</pdfrwt>
<totfact> 0.32867973E+05</totfact>
</mgrwt>
</event>
<event>
 4    1  0.2245608E+006  0.2649520E+02  0.7546771E-02  0.1640410E+00
         21   -1    0    0  503  502  0.00000000000E+00  0.00000000000E+00  0.12383735754E+02  0.12383735754E+02  0.00000000000E+00 0. -1.
         -1   -1    0    0    0  501 -0.00000000000E+00 -0.00000000000E+00 -0.38849405106E+03  0.38849405106E+03  0.00000000000E+00 0.  1.
         21    1    1    2  503  501  0.15991410245E+02 -0.21125107492E+02 -0.28160447556E+01  0.26644426738E+02  0.00000000000E+00 0. -1.
         -1    1    1    2    0  502 -0.15991410245E+02  0.21125107492E+02 -0.37329427055E+03  0.37423336007E+03  0.00000000000E+00 0.  1.
<mgrwt>
<rscale>  2 0.26495195E+02</rscale>
<asrwt>0</asrwt>
<pdfrwt beam="1">  1       21 0.19051901E-02 0.26495195E+02</pdfrwt>
<pdfrwt beam="2">  1       -1 0.59768316E-01 0.26495195E+02</pdfrwt>
<totfact> 0.29171117E+05</totfact>
</mgrwt>
</event>
