<event>
 4    1  0.4199484E+000  0.2020989E+03  0.7546771E-02  0.1147980E+00
         21   -1    0    0  503  502  0.00000000000E+00  0.00000000000E+00  0.10686449516E+04  0.10686449516E+04  0.00000000000E+00 0. -1.
         21   -1    0    0  501  503 -0.00000000000E+00 -0.00000000000E+00 -0.47414172571E+02  0.47414172571E+02  0.00000000000E+00 0.  1.
          6    1    1    2  501    0  0.94838665225E+02  0.43824395901E+02  0.26488892693E+03  0.33318177277E+03  0.17300000000E+03 0.  1.
         -6    1    1    2    0  502 -0.94838665225E+02 -0.43824395901E+02  0.75634185213E+03  0.78287735143E+03  0.17300000000E+03 0. -1.
<mgrwt>
<rscale>  2 0.20209886E+03</rscale>
<asrwt>0</asrwt>
<pdfrwt beam="1">  1       21 0.16440690E+00 0.20209886E+03</pdfrwt>
<pdfrwt beam="2">  1       21 0.72944889E-02 0.20209886E+03</pdfrwt>
<totfact> 0.32740018E+04</totfact>
</mgrwt>
</event>
<event>
 4    1  0.4199484E+000  0.1993728E+03  0.7546771E-02  0.1150269E+00
         21   -1    0    0  501  502  0.00000000000E+00  0.00000000000E+00  0.22368015396E+04  0.22368015396E+04  0.00000000000E+00 0. -1.
         21   -1    0    0  502  503 -0.00000000000E+00 -0.00000000000E+00 -0.22034297337E+02  0.22034297337E+02  0.00000000000E+00 0.  1.
          6    1    1    2  501    0 -0.50168724695E+02  0.85461119082E+02  0.16041975211E+04  0.16165392635E+04  0.17300000000E+03 0.  1.
         -6    1    1    2    0  503  0.50168724695E+02 -0.85461119082E+02  0.61056972111E+03  0.64229657336E+03  0.17300000000E+03 0.  1.
<mgrwt>
<rscale>  2 0.19937278E+03</rscale>
<asrwt>0</asrwt>
<pdfrwt beam="1">  1       21 0.34412313E+00 0.19937278E+03</pdfrwt>
<pdfrwt beam="2">  1       21 0.33898937E-02 0.19937278E+03</pdfrwt>
<totfact> 0.97067699E+03</totfact>
</mgrwt>
</event>
<event>
 4    1  0.4199484E+000  0.1854298E+03  0.7546771E-02  0.1162649E+00
         21   -1    0    0  501  502  0.00000000000E+00  0.00000000000E+00  0.79876878787E+03  0.79876878787E+03  0.00000000000E+00 0. -1.
         21   -1    0    0  502  503 -0.00000000000E+00 -0.00000000000E+00 -0.55989780471E+02  0.55989780471E+02  0.00000000000E+00 0. -1.
          6    1    1    2  501    0 -0.51220662349E+02 -0.42797907184E+02  0.57687487989E+03  0.60594458836E+03  0.17300000000E+03 0. -1.
         -6    1    1    2    0  503  0.51220662349E+02  0.42797907184E+02  0.16590412751E+03  0.24881397998E+03  0.17300000000E+03 0. -1.
<mgrwt>
<rscale>  2 0.18542982E+03</rscale>
<asrwt>0</asrwt>
<pdfrwt beam="1">  1       21 0.12288750E+00 0.18542982E+03</pdfrwt>
<pdfrwt beam="2">  1       21 0.86138130E-02 0.18542982E+03</pdfrwt>
<totfact> 0.52700790E+04</totfact>
</mgrwt>
</event>
<event>
 4    1  0.4199484E+000  0.2081449E+03  0.7546771E-02  0.1143043E+00
         21   -1    0    0  503  502  0.00000000000E+00  0.00000000000E+00  0.16369880945E+03  0.16369880945E+03  0.00000000000E+00 0. -1.
         21   -1    0    0  501  503 -0.00000000000E+00 -0.00000000000E+00 -0.26538468913E+03  0.26538468913E+03  0.00000000000E+00 0. -1.
          6    1    1    2  501    0  0.21156428632E+02  0.11378803995E+03 -0.62064205862E+02  0.21720100865E+03  0.17300000000E+03 0. -1.
         -6    1    1    2    0  502 -0.21156428632E+02 -0.11378803995E+03 -0.39621673816E+02  0.21188248994E+03  0.17300000000E+03 0. -1.
<mgrwt>
<rscale>  2 0.20814493E+03</rscale>
<asrwt>0</asrwt>
<pdfrwt beam="1">  1       21 0.25184432E-01 0.20814493E+03</pdfrwt>
<pdfrwt beam="2">  1       21 0.40828413E-01 0.20814493E+03</pdfrwt>
<totfact> 0.85750779E+04</totfact>
</mgrwt>
</event>
<event>
 4    1  0.4199484E+000  0.1833219E+03  0.7546771E-02  0.1164626E+00
         21   -1    0    0  503  502  0.00000000000E+00  0.00000000000E+00  0.12325819301E+03  0.12325819301E+03  0.00000000000E+00 0.  1.
         21   -1    0    0  501  503 -0.00000000000E+00 -0.00000000000E+00 -0.34757941754E+03  0.34757941754E+03  0.00000000000E+00 0.  1.
          6    1    1    2  501    0 -0.42401999549E+02  0.43358847707E+02 -0.22146229132E+03  0.28749341856E+03  0.17300000000E+03 0.  1.
         -6    1    1    2    0  502  0.42401999549E+02 -0.43358847707E+02 -0.28589332132E+01  0.18334419200E+03  0.17300000000E+03 0.  1.
<mgrwt>
<rscale>  2 0.18332190E+03</rscale>
<asrwt>0</asrwt>
<pdfrwt beam="1">  1       21 0.18962799E-01 0.18332190E+03</pdfrwt>
<pdfrwt beam="2">  1       21 0.53473755E-01 0.18332190E+03</pdfrwt>
<totfact> 0.84693457E+04</totfact>
</mgrwt>
</event>
<event>
 4    1  0.4199484E+000  0.1969233E+03  0.7546771E-02  0.1152361E+00
         21   -1    0    0  501  502  0.00000000000E+00  0.00000000000E+00  0.54745350584E+03  0.54745350584E+03  0.00000000000E+00 0.  1.
         21   -1    0    0  502  503 -0.00000000000E+00 -0.00000000000E+00 -0.93239950418E+02  0.93239950418E+02  0.00000000000E+00 0. -1.
          6    1    1    2  501    0  0.87087899098E+02 -0.35573666854E+02  0.38414042067E+03  0.43167424145E+03  0.17300000000E+03 0.  1.
         -6    1    1    2    0  503 -0.87087899098E+02  0.35573666854E+02  0.70073134750E+02  0.20901921480E+03  0.17300000000E+03 0. -1.
<mgrwt>
<rscale>  2 0.19692330E+03</rscale>
<asrwt>0</asrwt>
<pdfrwt beam="1">  1       21 0.84223614E-01 0.19692330E+03</pdfrwt>
<pdfrwt beam="2">  1       21 0.14344608E-01 0.19692330E+03</pdfrwt>
<totfact> 0.51952676E+04</totfact>
</mgrwt>
</event>
<event>
 4    1  0.4199484E+000  0.2152801E+03  0.7546771E-02  0.1137452E+00
         21   -1    0    0  501  502  0.00000000000E+00  0.00000000000E+00  0.19010302048E+03  0.19010302048E+03  0.00000000000E+00 0.  1.
         21   -1    0    0  502  503 -0.00000000000E+00 -0.00000000000E+00 -0.65230046693E+03  0.65230046693E+03  0.00000000000E+00 0. -1.
          6    1    1    2  501    0  0.12811999619E+03  0.13304217092E+01  0.10222567558E+03  0.23831825821E+03  0.17300000000E+03 0.  1.
         -6    1    1    2    0  503 -0.12811999619E+03 -0.13304217092E+01 -0.56442312203E+03  0.60408522920E+03  0.17300000000E+03 0. -1.
<mgrwt>
<rscale>  2 0.21528006E+03</rscale>
<asrwt>0</asrwt>
<pdfrwt beam="1">  1       21 0.29246619E-01 0.21528006E+03</pdfrwt>
<pdfrwt beam="2">  1       21 0.10035392E+00 0.21528006E+03</pdfrwt>
<totfact> 0.89717461E+03</totfact>
</mgrwt>
</event>
<event>
 4    1  0.4199484E+000  0.2140747E+03  0.7546771E-02  0.1138379E+00
         21   -1    0    0  503  502  0.00000000000E+00  0.00000000000E+00  0.27218211312E+03  0.27218211312E+03  0.00000000000E+00 0.  1.
         21   -1    0    0  501  503 -0.00000000000E+00 -0.00000000000E+00 -0.33460085216E+03  0.33460085216E+03  0.00000000000E+00 0. -1.
          6    1    1    2  501    0  0.57225875106E+02  0.11235738235E+03 -0.24505107830E+03  0.32538901814E+03  0.17300000000E+03 0. -1.
         -6    1    1    2    0  502 -0.57225875106E+02 -0.11235738235E+03  0.18263233926E+03  0.28139394715E+03  0.17300000000E+03 0.  1.
<mgrwt>
<rscale>  2 0.21407471E+03</rscale>
<asrwt>0</asrwt>
<pdfrwt beam="1">  1       21 0.41874171E-01 0.21407471E+03</pdfrwt>
<pdfrwt beam="2">  1       21 0.51477054E-01 0.21407471E+03</pdfrwt>
<totfact> 0.19434661E+04</totfact>
</mgrwt>
</event>
<event>
 4    1  0.4199484E+000  0.1808300E+03  0.7546771E-02  0.1167002E+00
         21   -1    0    0  503  502  0.00000000000E+00  0.00000000000E+00  0.23203773812E+03  0.23203773812E+03  0.00000000000E+00 0. -1.
         21   -1    0    0  501  503 -0.00000000000E+00 -0.00000000000E+00 -0.18534465478E+03  0.18534465478E+03  0.00000000000E+00 0. -1.
          6    1    1    2  501    0 -0.21891890150E+02 -0.47866740956E+02 -0.78820524795E+02  0.19726164065E+03  0.17300000000E+03 0. -1.
         -6    1    1    2    0  502  0.21891890150E+02  0.47866740956E+02  0.12551360813E+03  0.22012075225E+03  0.17300000000E+03 0. -1.
<mgrwt>
<rscale>  2 0.18082997E+03</rscale>
<asrwt>0</asrwt>
<pdfrwt beam="1">  1       21 0.35698114E-01 0.18082997E+03</pdfrwt>
<pdfrwt beam="2">  1       21 0.28514562E-01 0.18082997E+03</pdfrwt>
<totfact> 0.89404838E+04</totfact>
</mgrwt>
</event>
<event>
 4    1  0.4199484E+000  0.1901217E+03  0.7546771E-02  0.1158352E+00
         21   -1    0    0  501  502  0.00000000000E+00  0.00000000000E+00  0.11437570887E+03  0.11437570887E+03  0.00000000000E+00 0. -1.
         21   -1    0    0  502  503 -0.00000000000E+00 -0.00000000000E+00 -0.32228737345E+03  0.32228737345E+03  0.00000000000E+00 0. -1.
          6    1    1    2  501    0 -0.26883330517E+02 -0.74125196138E+02 -0.13437586336E+03  0.23281565844E+03  0.17300000000E+03 0. -1.
         -6    1    1    2    0  503  0.26883330517E+02  0.74125196138E+02 -0.73535801218E+02  0.20384742388E+03  0.17300000000E+03 0. -1.
<mgrwt>
<rscale>  2 0.19012169E+03</rscale>
<asrwt>0</asrwt>
<pdfrwt beam="1">  1       21 0.17596263E-01 0.19012169E+03</pdfrwt>
<pdfrwt beam="2">  1       21 0.49582673E-01 0.19012169E+03</pdfrwt>
<totfact> 0.11363069E+05</totfact>
</mgrwt>
</event>
<event>
 4    1  0.4199484E+000  0.1751979E+03  0.7546771E-02  0.1172533E+00
         21   -1    0    0  501  502  0.00000000000E+00  0.00000000000E+00  0.18844439073E+02  0.18844439073E+02  0.00000000000E+00 0. -1.
         21   -1    0    0  502  503 -0.00000000000E+00 -0.00000000000E+00 -0.16408038036E+04  0.16408038036E+04  0.00000000000E+00 0. -1.
          6    1    1    2  501    0 -0.27485654441E+02 -0.31363575709E+01 -0.74007741004E+03  0.76053196566E+03  0.17300000000E+03 0.  1.
         -6    1    1    2    0  503  0.27485654441E+02  0.31363575709E+01 -0.88188195449E+03  0.89911627701E+03  0.17300000000E+03 0.  1.
<mgrwt>
<rscale>  2 0.17519788E+03</rscale>
<asrwt>0</asrwt>
<pdfrwt beam="1">  1       21 0.28991441E-02 0.17519788E+03</pdfrwt>
<pdfrwt beam="2">  1       21 0.25243139E+00 0.17519788E+03</pdfrwt>
<totfact> 0.43698639E+04</totfact>
</mgrwt>
</event>
<event>
 4    1  0.4199484E+000  0.2563574E+03  0.7546771E-02  0.1109352E+00
         21   -1    0    0  503  502  0.00000000000E+00  0.00000000000E+00  0.10604835293E+03  0.10604835293E+03  0.00000000000E+00 0.  1.
         21   -1    0    0  501  503 -0.00000000000E+00 -0.00000000000E+00 -0.62976731483E+03  0.62976731483E+03  0.00000000000E+00 0.  1.
          6    1    1    2  501    0 -0.14002696556E+03  0.12721077619E+03 -0.30835474903E+03  0.40100097745E+03  0.17300000000E+03 0.  1.
         -6    1    1    2    0  502  0.14002696556E+03 -0.12721077619E+03 -0.21536421287E+03  0.33481469031E+03  0.17300000000E+03 0.  1.
<mgrwt>
<rscale>  2 0.25635743E+03</rscale>
<asrwt>0</asrwt>
<pdfrwt beam="1">  1       21 0.16315132E-01 0.25635743E+03</pdfrwt>
<pdfrwt beam="2">  1       21 0.96887277E-01 0.25635743E+03</pdfrwt>
<totfact> 0.28797838E+04</totfact>
</mgrwt>
</event>
<event>
 4    1  0.4199484E+000  0.1768425E+03  0.7546771E-02  0.1170894E+00
         21   -1    0    0  503  502  0.00000000000E+00  0.00000000000E+00  0.38147829591E+03  0.38147829591E+03  0.00000000000E+00 0.  1.
         21   -1    0    0  501  503 -0.00000000000E+00 -0.00000000000E+00 -0.16848661150E+03  0.16848661150E+03  0.00000000000E+00 0.  1.
          6    1    1    2  501    0  0.16393805323E+02  0.32794748674E+02 -0.90541781559E+02  0.19867326595E+03  0.17300000000E+03 0.  1.
         -6    1    1    2    0  502 -0.16393805323E+02 -0.32794748674E+02  0.30353346598E+03  0.35129164146E+03  0.17300000000E+03 0.  1.
<mgrwt>
<rscale>  2 0.17684245E+03</rscale>
<asrwt>0</asrwt>
<pdfrwt beam="1">  1       21 0.58688968E-01 0.17684245E+03</pdfrwt>
<pdfrwt beam="2">  1       21 0.25921017E-01 0.17684245E+03</pdfrwt>
<totfact> 0.38711875E+04</totfact>
</mgrwt>
</event>
<event>
 4    1  0.4199484E+000  0.1915272E+03  0.7546771E-02  0.1157091E+00
         21   -1    0    0  501  502  0.00000000000E+00  0.00000000000E+00  0.91025365742E+02  0.91025365742E+02  0.00000000000E+00 0. -1.
         21   -1    0    0  502  503 -0.00000000000E+00 -0.00000000000E+00 -0.40469438538E+03  0.40469438538E+03  0.00000000000E+00 0.  1.
          6    1    1    2  501    0  0.81040408972E+02  0.13643123003E+02 -0.14076852805E+03  0.23769404953E+03  0.17300000000E+03 0.  1.
         -6    1    1    2    0  503 -0.81040408972E+02 -0.13643123003E+02 -0.17290049158E+03  0.25802570159E+03  0.17300000000E+03 0.  1.
<mgrwt>
<rscale>  2 0.19152724E+03</rscale>
<asrwt>0</asrwt>
<pdfrwt beam="1">  1       21 0.14003902E-01 0.19152724E+03</pdfrwt>
<pdfrwt beam="2">  1       21 0.62260675E-01 0.19152724E+03</pdfrwt>
<totfact> 0.10638920E+05</totfact>
</mgrwt>
</event>
<event>
 4    1  0.4199484E+000  0.2084396E+03  0.7546771E-02  0.1142808E+00
         21   -1    0    0  503  502  0.00000000000E+00  0.00000000000E+00  0.41881785783E+02  0.41881785783E+02  0.00000000000E+00 0.  1.
         21   -1    0    0  501  503 -0.00000000000E+00 -0.00000000000E+00 -0.11437501043E+04  0.11437501043E+04  0.00000000000E+00 0.  1.
          6    1    1    2  501    0 -0.82104193288E+02 -0.82322287118E+02 -0.73172533440E+03  0.76083442517E+03  0.17300000000E+03 0.  1.
         -6    1    1    2    0  502  0.82104193288E+02  0.82322287118E+02 -0.37014298413E+03  0.42479746493E+03  0.17300000000E+03 0.  1.
<mgrwt>
<rscale>  2 0.20843958E+03</rscale>
<asrwt>0</asrwt>
<pdfrwt beam="1">  1       21 0.64433511E-02 0.20843958E+03</pdfrwt>
<pdfrwt beam="2">  1       21 0.17596157E+00 0.20843958E+03</pdfrwt>
<totfact> 0.33492855E+04</totfact>
</mgrwt>
</event>
<event>
 4    1  0.4199484E+000  0.1804212E+03  0.7546771E-02  0.1167396E+00
         21   -1    0    0  503  502  0.00000000000E+00  0.00000000000E+00  0.64625899081E+03  0.64625899081E+03  0.00000000000E+00 0.  1.
         21   -1    0    0  501  503 -0.00000000000E+00 -0.00000000000E+00 -0.63775616037E+02  0.63775616037E+02  0.00000000000E+00 0.  1.
          6    1    1    2  501    0 -0.46773285217E+02 -0.20858253129E+02  0.12847255247E+03  0.22148815696E+03  0.17300000000E+03 0.  1.
         -6    1    1    2    0  502  0.46773285217E+02  0.20858253129E+02  0.45401082230E+03  0.48854644989E+03  0.17300000000E+03 0.  1.
<mgrwt>
<rscale>  2 0.18042119E+03</rscale>
<asrwt>0</asrwt>
<pdfrwt beam="1">  1       21 0.99424455E-01 0.18042119E+03</pdfrwt>
<pdfrwt beam="2">  1       21 0.98116337E-02 0.18042119E+03</pdfrwt>
<totfact> 0.70229573E+04</totfact>
</mgrwt>
</event>
<event>
 4    1  0.4199484E+000  0.2548373E+03  0.7546771E-02  0.1110285E+00
         21   -1    0    0  503  502  0.00000000000E+00  0.00000000000E+00  0.24989994190E+04  0.24989994190E+04  0.00000000000E+00 0. -1.
         21   -1    0    0  501  503 -0.00000000000E+00 -0.00000000000E+00 -0.31073987269E+02  0.31073987269E+02  0.00000000000E+00 0.  1.
          6    1    1    2  501    0 -0.77842558002E+02  0.17015751008E+03  0.72213280241E+03  0.76577922823E+03  0.17300000000E+03 0.  1.
         -6    1    1    2    0  502  0.77842558002E+02 -0.17015751008E+03  0.17457926293E+04  0.17642941780E+04  0.17300000000E+03 0. -1.
<mgrwt>
<rscale>  2 0.25483729E+03</rscale>
<asrwt>0</asrwt>
<pdfrwt beam="1">  1       21 0.38446129E+00 0.25483729E+03</pdfrwt>
<pdfrwt beam="2">  1       21 0.47806154E-02 0.25483729E+03</pdfrwt>
<totfact> 0.29241332E+03</totfact>
</mgrwt>
</event>
<event>
 4    1  0.4199484E+000  0.1768354E+03  0.7546771E-02  0.1170901E+00
         21   -1    0    0  501  502  0.00000000000E+00  0.00000000000E+00  0.16039958101E+03  0.16039958101E+03  0.00000000000E+00 0.  1.
         21   -1    0    0  502  503 -0.00000000000E+00 -0.00000000000E+00 -0.22162962714E+03  0.22162962714E+03  0.00000000000E+00 0.  1.
          6    1    1    2  501    0 -0.14419285074E+02 -0.33672419945E+02  0.35652302149E+02  0.18039355392E+03  0.17300000000E+03 0.  1.
         -6    1    1    2    0  503  0.14419285074E+02  0.33672419945E+02 -0.96882348280E+02  0.20163565423E+03  0.17300000000E+03 0.  1.
<mgrwt>
<rscale>  2 0.17683537E+03</rscale>
<asrwt>0</asrwt>
<pdfrwt beam="1">  1       21 0.24676859E-01 0.17683537E+03</pdfrwt>
<pdfrwt beam="2">  1       21 0.34096865E-01 0.17683537E+03</pdfrwt>
<totfact> 0.12938803E+05</totfact>
</mgrwt>
</event>
<event>
 4    1  0.4199484E+000  0.2123105E+03  0.7546771E-02  0.1139749E+00
         21   -1    0    0  503  502  0.00000000000E+00  0.00000000000E+00  0.19788266889E+03  0.19788266889E+03  0.00000000000E+00 0. -1.
         21   -1    0    0  501  503 -0.00000000000E+00 -0.00000000000E+00 -0.22779610422E+03  0.22779610422E+03  0.00000000000E+00 0.  1.
          6    1    1    2  501    0 -0.21282853041E+02 -0.12121791079E+03 -0.13877323573E+02  0.21276353503E+03  0.17300000000E+03 0. -1.
         -6    1    1    2    0  502  0.21282853041E+02  0.12121791079E+03 -0.16036111759E+02  0.21291523809E+03  0.17300000000E+03 0. -1.
<mgrwt>
<rscale>  2 0.21231048E+03</rscale>
<asrwt>0</asrwt>
<pdfrwt beam="1">  1       21 0.30443488E-01 0.21231048E+03</pdfrwt>
<pdfrwt beam="2">  1       21 0.35045555E-01 0.21231048E+03</pdfrwt>
<totfact> 0.80607866E+04</totfact>
</mgrwt>
</event>
<event>
 4    1  0.4199484E+000  0.1819892E+03  0.7546771E-02  0.1165892E+00
         21   -1    0    0  501  502  0.00000000000E+00  0.00000000000E+00  0.15131811274E+03  0.15131811274E+03  0.00000000000E+00 0. -1.
         21   -1    0    0  502  503 -0.00000000000E+00 -0.00000000000E+00 -0.23427042152E+03  0.23427042152E+03  0.00000000000E+00 0. -1.
          6    1    1    2  501    0  0.55865477076E+02 -0.83742840709E+01  0.79435997659E+01  0.18216251244E+03  0.17300000000E+03 0. -1.
         -6    1    1    2    0  503 -0.55865477076E+02  0.83742840709E+01 -0.90895908548E+02  0.20342602182E+03  0.17300000000E+03 0. -1.
<mgrwt>
<rscale>  2 0.18198923E+03</rscale>
<asrwt>0</asrwt>
<pdfrwt beam="1">  1       21 0.23279710E-01 0.18198923E+03</pdfrwt>
<pdfrwt beam="2">  1       21 0.36041604E-01 0.18198923E+03</pdfrwt>
<totfact> 0.12924332E+05</totfact>
</mgrwt>
</event>
<event>
 4    1  0.4199484E+000  0.1952848E+03  0.7546771E-02  0.1153779E+00
         21   -1    0    0  503  502  0.00000000000E+00  0.00000000000E+00  0.33788015612E+03  0.33788015612E+03  0.00000000000E+00 0.  1.
         21   -1    0    0  501  503 -0.00000000000E+00 -0.00000000000E+00 -0.14904052239E+03  0.14904052239E+03  0.00000000000E+00 0.  1.
          6    1    1    2  501    0  0.79144949862E+02 -0.44082083627E+02 -0.25519116881E+02  0.19694511548E+03  0.17300000000E+03 0.  1.
         -6    1    1    2    0  502 -0.79144949862E+02  0.44082083627E+02  0.21435875061E+03  0.28997556302E+03  0.17300000000E+03 0.  1.
<mgrwt>
<rscale>  2 0.19528480E+03</rscale>
<asrwt>0</asrwt>
<pdfrwt beam="1">  1       21 0.51981562E-01 0.19528480E+03</pdfrwt>
<pdfrwt beam="2">  1       21 0.22929311E-01 0.19528480E+03</pdfrwt>
<totfact> 0.62640700E+04</totfact>
</mgrwt>
</event>
<event>
 4    1  0.4199484E+000  0.2194964E+03  0.7546771E-02  0.1134259E+00
         21   -1    0    0  503  502  0.00000000000E+00  0.00000000000E+00  0.33048812990E+03  0.33048812990E+03  0.00000000000E+00 0. -1.
         21   -1    0    0  501  503 -0.00000000000E+00 -0.00000000000E+00 -0.30077073880E+03  0.30077073880E+03  0.00000000000E+00 0. -1.
          6    1    1    2  501    0 -0.13420658674E+03  0.15435364278E+02 -0.21171639437E+03  0.30496309619E+03  0.17300000000E+03 0. -1.
         -6    1    1    2    0  502  0.13420658674E+03 -0.15435364278E+02  0.24143378546E+03  0.32629577251E+03  0.17300000000E+03 0. -1.
<mgrwt>
<rscale>  2 0.21949637E+03</rscale>
<asrwt>0</asrwt>
<pdfrwt beam="1">  1       21 0.50844328E-01 0.21949637E+03</pdfrwt>
<pdfrwt beam="2">  1       21 0.46272421E-01 0.21949637E+03</pdfrwt>
<totfact> 0.16197013E+04</totfact>
</mgrwt>
</event>
<event>
 4    1  0.4199484E+000  0.2025401E+03  0.7546771E-02  0.1147613E+00
         21   -1    0    0  503  502  0.00000000000E+00  0.00000000000E+00  0.84247888947E+02  0.84247888947E+02  0.00000000000E+00 0. -1.
         21   -1    0    0  501  503 -0.00000000000E+00 -0.00000000000E+00 -0.48697414230E+03  0.48697414230E+03  0.00000000000E+00 0.  1.
          6    1    1    2  501    0  0.20329939609E+02  0.10334488651E+03 -0.19851789932E+03  0.28360505701E+03  0.17300000000E+03 0. -1.
         -6    1    1    2    0  502 -0.20329939609E+02 -0.10334488651E+03 -0.20420835404E+03  0.28761697424E+03  0.17300000000E+03 0. -1.
<mgrwt>
<rscale>  2 0.20254005E+03</rscale>
<asrwt>0</asrwt>
<pdfrwt beam="1">  1       21 0.12961214E-01 0.20254005E+03</pdfrwt>
<pdfrwt beam="2">  1       21 0.74919099E-01 0.20254005E+03</pdfrwt>
<totfact> 0.81095447E+04</totfact>
</mgrwt>
</event>
<event>
 4    1  0.4199484E+000  0.2117776E+03  0.7546771E-02  0.1140166E+00
         21   -1    0    0  501  502  0.00000000000E+00  0.00000000000E+00  0.13208601699E+03  0.13208601699E+03  0.00000000000E+00 0.  1.
         21   -1    0    0  502  503 -0.00000000000E+00 -0.00000000000E+00 -0.47335210311E+03  0.47335210311E+03  0.00000000000E+00 0. -1.
          6    1    1    2  501    0 -0.94630596460E+02  0.77238502319E+02 -0.96871298378E+01  0.21199900120E+03  0.17300000000E+03 0.  1.
         -6    1    1    2    0  503  0.94630596460E+02 -0.77238502319E+02 -0.33157895628E+03  0.39343911889E+03  0.17300000000E+03 0. -1.
<mgrwt>
<rscale>  2 0.21177756E+03</rscale>
<asrwt>0</asrwt>
<pdfrwt beam="1">  1       21 0.20320926E-01 0.21177756E+03</pdfrwt>
<pdfrwt beam="2">  1       21 0.72823400E-01 0.21177756E+03</pdfrwt>
<totfact> 0.37660294E+04</totfact>
</mgrwt>
</event>
<event>
 4    1  0.4199484E+000  0.2692744E+03  0.7546771E-02  0.1101696E+00
         21   -1    0    0  501  502  0.00000000000E+00  0.00000000000E+00  0.31939401577E+03  0.31939401577E+03  0.00000000000E+00 0.  1.
         21   -1    0    0  502  503 -0.00000000000E+00 -0.00000000000E+00 -0.24158533129E+03  0.24158533129E+03  0.00000000000E+00 0. -1.
          6    1    1    2  501    0 -0.20058777477E+03 -0.48417662081E+02  0.10777696754E+03  0.29004241090E+03  0.17300000000E+03 0. -1.
         -6    1    1    2    0  503  0.20058777477E+03  0.48417662081E+02 -0.29968283064E+02  0.27093693616E+03  0.17300000000E+03 0.  1.
<mgrwt>
<rscale>  2 0.26927444E+03</rscale>
<asrwt>0</asrwt>
<pdfrwt beam="1">  1       21 0.49137541E-01 0.26927444E+03</pdfrwt>
<pdfrwt beam="2">  1       21 0.37166974E-01 0.26927444E+03</pdfrwt>
<totfact> 0.26561558E+04</totfact>
</mgrwt>
</event>
<event>
 4    1  0.4199484E+000  0.2176019E+03  0.7546771E-02  0.1135684E+00
         21   -1    0    0  503  502  0.00000000000E+00  0.00000000000E+00  0.52279592742E+03  0.52279592742E+03  0.00000000000E+00 0.  1.
         21   -1    0    0  501  503 -0.00000000000E+00 -0.00000000000E+00 -0.94326453698E+02  0.94326453698E+02  0.00000000000E+00 0.  1.
          6    1    1    2  501    0 -0.88799602993E+02 -0.97653569846E+02  0.15267352414E+03  0.26581910046E+03  0.17300000000E+03 0.  1.
         -6    1    1    2    0  502  0.88799602993E+02  0.97653569846E+02  0.27579594959E+03  0.35130328066E+03  0.17300000000E+03 0.  1.
<mgrwt>
<rscale>  2 0.21760191E+03</rscale>
<asrwt>0</asrwt>
<pdfrwt beam="1">  1       21 0.80430141E-01 0.21760191E+03</pdfrwt>
<pdfrwt beam="2">  1       21 0.14511762E-01 0.21760191E+03</pdfrwt>
<totfact> 0.55941470E+04</totfact>
</mgrwt>
</event>
<event>
 4    1  0.4199484E+000  0.2447382E+03  0.7546771E-02  0.1116676E+00
         21   -1    0    0  503  502  0.00000000000E+00  0.00000000000E+00  0.36569555925E+02  0.36569555925E+02  0.00000000000E+00 0.  1.
         21   -1    0    0  501  503 -0.00000000000E+00 -0.00000000000E+00 -0.23556300844E+04  0.23556300844E+04  0.00000000000E+00 0.  1.
          6    1    1    2  501    0 -0.18089501412E+02 -0.17216426721E+03 -0.18197654711E+04  0.18361489958E+04  0.17300000000E+03 0.  1.
         -6    1    1    2    0  502  0.18089501412E+02  0.17216426721E+03 -0.49929505743E+03  0.55605064458E+03  0.17300000000E+03 0.  1.
<mgrwt>
<rscale>  2 0.24473816E+03</rscale>
<asrwt>0</asrwt>
<pdfrwt beam="1">  1       21 0.56260835E-02 0.24473816E+03</pdfrwt>
<pdfrwt beam="2">  1       21 0.36240476E+00 0.24473816E+03</pdfrwt>
<totfact> 0.30514052E+03</totfact>
</mgrwt>
</event>
<event>
 4    1  0.4199484E+000  0.1819094E+03  0.7546771E-02  0.1165968E+00
         21   -1    0    0  503  502  0.00000000000E+00  0.00000000000E+00  0.94018193877E+02  0.94018193877E+02  0.00000000000E+00 0.  1.
         21   -1    0    0  501  503 -0.00000000000E+00 -0.00000000000E+00 -0.44127285589E+03  0.44127285589E+03  0.00000000000E+00 0.  1.
          6    1    1    2  501    0 -0.49089227830E+02 -0.27427699983E+02 -0.29403477768E+03  0.34575639039E+03  0.17300000000E+03 0.  1.
         -6    1    1    2    0  502  0.49089227830E+02  0.27427699983E+02 -0.53219884339E+02  0.18953465937E+03  0.17300000000E+03 0.  1.
<mgrwt>
<rscale>  2 0.18190940E+03</rscale>
<asrwt>0</asrwt>
<pdfrwt beam="1">  1       21 0.14464337E-01 0.18190940E+03</pdfrwt>
<pdfrwt beam="2">  1       21 0.67888132E-01 0.18190940E+03</pdfrwt>
<totfact> 0.83431883E+04</totfact>
</mgrwt>
</event>
<event>
 4    1  0.4199484E+000  0.1905276E+03  0.7546771E-02  0.1157986E+00
         21   -1    0    0  501  502  0.00000000000E+00  0.00000000000E+00  0.14714068146E+03  0.14714068146E+03  0.00000000000E+00 0. -1.
         21   -1    0    0  502  503 -0.00000000000E+00 -0.00000000000E+00 -0.43270028282E+03  0.43270028282E+03  0.00000000000E+00 0. -1.
          6    1    1    2  501    0 -0.50400636400E+02  0.61899359627E+02  0.47298699395E+02  0.19631077871E+03  0.17300000000E+03 0. -1.
         -6    1    1    2    0  503  0.50400636400E+02 -0.61899359627E+02 -0.33285830075E+03  0.38353018558E+03  0.17300000000E+03 0. -1.
<mgrwt>
<rscale>  2 0.19052757E+03</rscale>
<asrwt>0</asrwt>
<pdfrwt beam="1">  1       21 0.22637028E-01 0.19052757E+03</pdfrwt>
<pdfrwt beam="2">  1       21 0.66569275E-01 0.19052757E+03</pdfrwt>
<totfact> 0.37885534E+04</totfact>
</mgrwt>
</event>
<event>
 4    1  0.4199484E+000  0.2128425E+03  0.7546771E-02  0.1139335E+00
         21   -1    0    0  501  502  0.00000000000E+00  0.00000000000E+00  0.19518908085E+03  0.19518908085E+03  0.00000000000E+00 0. -1.
         21   -1    0    0  502  503 -0.00000000000E+00 -0.00000000000E+00 -0.42264463717E+03  0.42264463717E+03  0.00000000000E+00 0. -1.
          6    1    1    2  501    0  0.12239689887E+03  0.19796894594E+02  0.93697109520E+02  0.23255336209E+03  0.17300000000E+03 0. -1.
         -6    1    1    2    0  503 -0.12239689887E+03 -0.19796894594E+02 -0.32115266584E+03  0.38528035593E+03  0.17300000000E+03 0. -1.
<mgrwt>
<rscale>  2 0.21284247E+03</rscale>
<asrwt>0</asrwt>
<pdfrwt beam="1">  1       21 0.30029089E-01 0.21284247E+03</pdfrwt>
<pdfrwt beam="2">  1       21 0.65022252E-01 0.21284247E+03</pdfrwt>
<totfact> 0.22895455E+04</totfact>
</mgrwt>
</event>
<event>
 4    1  0.4199484E+000  0.2663969E+03  0.7546771E-02  0.1103360E+00
         21   -1    0    0  501  502  0.00000000000E+00  0.00000000000E+00  0.21699110173E+03  0.21699110173E+03  0.00000000000E+00 0. -1.
         21   -1    0    0  502  503 -0.00000000000E+00 -0.00000000000E+00 -0.11580486839E+04  0.11580486839E+04  0.00000000000E+00 0.  1.
          6    1    1    2  501    0 -0.19938609751E+03  0.35825593914E+02  0.11187153221E+03  0.28893343312E+03  0.17300000000E+03 0. -1.
         -6    1    1    2    0  503  0.19938609751E+03 -0.35825593914E+02 -0.10529291144E+04  0.10861063526E+04  0.17300000000E+03 0.  1.
<mgrwt>
<rscale>  2 0.26639686E+03</rscale>
<asrwt>0</asrwt>
<pdfrwt beam="1">  1       21 0.33383246E-01 0.26639686E+03</pdfrwt>
<pdfrwt beam="2">  1       21 0.17816134E+00 0.26639686E+03</pdfrwt>
<totfact> 0.15157131E+03</totfact>
</mgrwt>
</event>
<event>
 4    1  0.4199484E+000  0.1830006E+03  0.7546771E-02  0.1164930E+00
         21   -1    0    0  501  502  0.00000000000E+00  0.00000000000E+00  0.11200996123E+03  0.11200996123E+03  0.00000000000E+00 0.  1.
         21   -1    0    0  502  503 -0.00000000000E+00 -0.00000000000E+00 -0.47773980915E+03  0.47773980915E+03  0.00000000000E+00 0.  1.
          6    1    1    2  501    0  0.56243768212E+02  0.19921365600E+02 -0.24918276987E+01  0.18301757149E+03  0.17300000000E+03 0.  1.
         -6    1    1    2    0  503 -0.56243768212E+02 -0.19921365600E+02 -0.36323802022E+03  0.40673219888E+03  0.17300000000E+03 0.  1.
<mgrwt>
<rscale>  2 0.18300061E+03</rscale>
<asrwt>0</asrwt>
<pdfrwt beam="1">  1       21 0.17232302E-01 0.18300061E+03</pdfrwt>
<pdfrwt beam="2">  1       21 0.73498431E-01 0.18300061E+03</pdfrwt>
<totfact> 0.50840174E+04</totfact>
</mgrwt>
</event>
<event>
 4    1  0.4199484E+000  0.1752916E+03  0.7546771E-02  0.1172439E+00
         21   -1    0    0  503  502  0.00000000000E+00  0.00000000000E+00  0.20735321392E+03  0.20735321392E+03  0.00000000000E+00 0.  1.
         21   -1    0    0  501  503 -0.00000000000E+00 -0.00000000000E+00 -0.19534444392E+03  0.19534444392E+03  0.00000000000E+00 0.  1.
          6    1    1    2  501    0  0.98081555910E+01  0.26494193581E+02 -0.92924171655E+02  0.19839869931E+03  0.17300000000E+03 0.  1.
         -6    1    1    2    0  502 -0.98081555910E+01 -0.26494193581E+02  0.10493294166E+03  0.20429895853E+03  0.17300000000E+03 0.  1.
<mgrwt>
<rscale>  2 0.17529159E+03</rscale>
<asrwt>0</asrwt>
<pdfrwt beam="1">  1       21 0.31900494E-01 0.17529159E+03</pdfrwt>
<pdfrwt beam="2">  1       21 0.30052991E-01 0.17529159E+03</pdfrwt>
<totfact> 0.10101380E+05</totfact>
</mgrwt>
</event>
<event>
 4    1  0.4199484E+000  0.1961225E+03  0.7546771E-02  0.1153052E+00
         21   -1    0    0  501  502  0.00000000000E+00  0.00000000000E+00  0.24602780775E+03  0.24602780775E+03  0.00000000000E+00 0. -1.
         21   -1    0    0  502  503 -0.00000000000E+00 -0.00000000000E+00 -0.15685188467E+03  0.15685188467E+03  0.00000000000E+00 0. -1.
          6    1    1    2  501    0  0.28211307772E+02 -0.87972587281E+02  0.56092569330E+02  0.20398634840E+03  0.17300000000E+03 0.  1.
         -6    1    1    2    0  503 -0.28211307772E+02  0.87972587281E+02  0.33083353753E+02  0.19889334402E+03  0.17300000000E+03 0.  1.
<mgrwt>
<rscale>  2 0.19612255E+03</rscale>
<asrwt>0</asrwt>
<pdfrwt beam="1">  1       21 0.37850432E-01 0.19612255E+03</pdfrwt>
<pdfrwt beam="2">  1       21 0.24131059E-01 0.19612255E+03</pdfrwt>
<totfact> 0.10892841E+05</totfact>
</mgrwt>
</event>
<event>
 4    1  0.4199484E+000  0.1910119E+03  0.7546771E-02  0.1157552E+00
         21   -1    0    0  501  502  0.00000000000E+00  0.00000000000E+00  0.12103047855E+04  0.12103047855E+04  0.00000000000E+00 0.  1.
         21   -1    0    0  502  503 -0.00000000000E+00 -0.00000000000E+00 -0.37306455231E+02  0.37306455231E+02  0.00000000000E+00 0.  1.
          6    1    1    2  501    0 -0.65512777660E+02 -0.47588225002E+02  0.85979609008E+03  0.88075812782E+03  0.17300000000E+03 0.  1.
         -6    1    1    2    0  503  0.65512777660E+02  0.47588225002E+02  0.31320224018E+03  0.36685311290E+03  0.17300000000E+03 0.  1.
<mgrwt>
<rscale>  2 0.19101195E+03</rscale>
<asrwt>0</asrwt>
<pdfrwt beam="1">  1       21 0.18620071E+00 0.19101195E+03</pdfrwt>
<pdfrwt beam="2">  1       21 0.57394556E-02 0.19101195E+03</pdfrwt>
<totfact> 0.35197897E+04</totfact>
</mgrwt>
</event>
<event>
 4    1  0.4199484E+000  0.1992382E+03  0.7546771E-02  0.1150383E+00
         21   -1    0    0  503  502  0.00000000000E+00  0.00000000000E+00  0.13124391591E+03  0.13124391591E+03  0.00000000000E+00 0.  1.
         21   -1    0    0  501  503 -0.00000000000E+00 -0.00000000000E+00 -0.36654256810E+03  0.36654256810E+03  0.00000000000E+00 0. -1.
          6    1    1    2  501    0 -0.46770049813E+02  0.87059921985E+02 -0.22171923323E+03  0.29808603785E+03  0.17300000000E+03 0. -1.
         -6    1    1    2    0  502  0.46770049813E+02 -0.87059921985E+02 -0.13579418964E+02  0.19970044616E+03  0.17300000000E+03 0.  1.
<mgrwt>
<rscale>  2 0.19923822E+03</rscale>
<asrwt>0</asrwt>
<pdfrwt beam="1">  1       21 0.20191372E-01 0.19923822E+03</pdfrwt>
<pdfrwt beam="2">  1       21 0.56391165E-01 0.19923822E+03</pdfrwt>
<totfact> 0.66881899E+04</totfact>
</mgrwt>
</event>
<event>
 4    1  0.4199484E+000  0.1739738E+03  0.7546771E-02  0.1173766E+00
         21   -1    0    0  503  502  0.00000000000E+00  0.00000000000E+00  0.22091676404E+03  0.22091676404E+03  0.00000000000E+00 0.  1.
         21   -1    0    0  501  503 -0.00000000000E+00 -0.00000000000E+00 -0.13731799579E+03  0.13731799579E+03  0.00000000000E+00 0.  1.
          6    1    1    2  501    0  0.13396046809E+02  0.12586698189E+02  0.50339902097E+02  0.18111042152E+03  0.17300000000E+03 0.  1.
         -6    1    1    2    0  502 -0.13396046809E+02 -0.12586698189E+02  0.33258866155E+02  0.17712433830E+03  0.17300000000E+03 0.  1.
<mgrwt>
<rscale>  2 0.17397379E+03</rscale>
<asrwt>0</asrwt>
<pdfrwt beam="1">  1       21 0.33987194E-01 0.17397379E+03</pdfrwt>
<pdfrwt beam="2">  1       21 0.21125846E-01 0.17397379E+03</pdfrwt>
<totfact> 0.17475442E+05</totfact>
</mgrwt>
</event>
<event>
 4    1  0.4199484E+000  0.2151740E+03  0.7546771E-02  0.1137533E+00
         21   -1    0    0  501  502  0.00000000000E+00  0.00000000000E+00  0.33554612601E+03  0.33554612601E+03  0.00000000000E+00 0.  1.
         21   -1    0    0  502  503 -0.00000000000E+00 -0.00000000000E+00 -0.13919507856E+03  0.13919507856E+03  0.00000000000E+00 0.  1.
          6    1    1    2  501    0 -0.12738243778E+03 -0.12023155932E+02  0.12032094340E+03  0.24652985855E+03  0.17300000000E+03 0.  1.
         -6    1    1    2    0  503  0.12738243778E+03  0.12023155932E+02  0.76030104051E+02  0.22821134603E+03  0.17300000000E+03 0.  1.
<mgrwt>
<rscale>  2 0.21517398E+03</rscale>
<asrwt>0</asrwt>
<pdfrwt beam="1">  1       21 0.51622481E-01 0.21517398E+03</pdfrwt>
<pdfrwt beam="2">  1       21 0.21414628E-01 0.21517398E+03</pdfrwt>
<totfact> 0.71677468E+04</totfact>
</mgrwt>
</event>
<event>
 4    1  0.4199484E+000  0.1940586E+03  0.7546771E-02  0.1154851E+00
         21   -1    0    0  501  502  0.00000000000E+00  0.00000000000E+00  0.11454915408E+04  0.11454915408E+04  0.00000000000E+00 0. -1.
         21   -1    0    0  502  503 -0.00000000000E+00 -0.00000000000E+00 -0.86587598613E+02  0.86587598613E+02  0.00000000000E+00 0. -1.
          6    1    1    2  501    0  0.60830898368E+02 -0.63477246357E+02  0.10146469366E+04  0.10330378333E+04  0.17300000000E+03 0. -1.
         -6    1    1    2    0  503 -0.60830898368E+02  0.63477246357E+02  0.44257005558E+02  0.19904130612E+03  0.17300000000E+03 0. -1.
<mgrwt>
<rscale>  2 0.19405865E+03</rscale>
<asrwt>0</asrwt>
<pdfrwt beam="1">  1       21 0.17622946E+00 0.19405865E+03</pdfrwt>
<pdfrwt beam="2">  1       21 0.13321170E-01 0.19405865E+03</pdfrwt>
<totfact> 0.93831661E+03</totfact>
</mgrwt>
</event>
<event>
 4    1  0.4199484E+000  0.2325156E+03  0.7546771E-02  0.1124882E+00
         21   -1    0    0  503  502  0.00000000000E+00  0.00000000000E+00  0.14282816423E+04  0.14282816423E+04  0.00000000000E+00 0.  1.
         21   -1    0    0  501  503 -0.00000000000E+00 -0.00000000000E+00 -0.38777628333E+02  0.38777628333E+02  0.00000000000E+00 0. -1.
          6    1    1    2  501    0 -0.15525161015E+03  0.56085904507E+01  0.80807347169E+03  0.84086042503E+03  0.17300000000E+03 0.  1.
         -6    1    1    2    0  502  0.15525161015E+03 -0.56085904507E+01  0.58143054233E+03  0.62619884565E+03  0.17300000000E+03 0. -1.
<mgrwt>
<rscale>  2 0.23251563E+03</rscale>
<asrwt>0</asrwt>
<pdfrwt beam="1">  1       21 0.21973560E+00 0.23251563E+03</pdfrwt>
<pdfrwt beam="2">  1       21 0.59657901E-02 0.23251563E+03</pdfrwt>
<totfact> 0.19508125E+04</totfact>
</mgrwt>
</event>
<event>
 4    1  0.4199484E+000  0.1929373E+03  0.7546771E-02  0.1155838E+00
         21   -1    0    0  501  502  0.00000000000E+00  0.00000000000E+00  0.12110020727E+03  0.12110020727E+03  0.00000000000E+00 0.  1.
         21   -1    0    0  502  503 -0.00000000000E+00 -0.00000000000E+00 -0.10644913010E+04  0.10644913010E+04  0.00000000000E+00 0. -1.
          6    1    1    2  501    0  0.43197948503E+01  0.85306247954E+02  0.28237032335E+02  0.19499268336E+03  0.17300000000E+03 0.  1.
         -6    1    1    2    0  503 -0.43197948503E+01 -0.85306247954E+02 -0.97162812602E+03  0.99059882487E+03  0.17300000000E+03 0. -1.
<mgrwt>
<rscale>  2 0.19293734E+03</rscale>
<asrwt>0</asrwt>
<pdfrwt beam="1">  1       21 0.18630802E-01 0.19293734E+03</pdfrwt>
<pdfrwt beam="2">  1       21 0.16376789E+00 0.19293734E+03</pdfrwt>
<totfact> 0.62237899E+03</totfact>
</mgrwt>
</event>
<event>
 4    1  0.4199484E+000  0.2604486E+03  0.7546771E-02  0.1106874E+00
         21   -1    0    0  501  502  0.00000000000E+00  0.00000000000E+00  0.99266135355E+03  0.99266135355E+03  0.00000000000E+00 0.  1.
         21   -1    0    0  502  503 -0.00000000000E+00 -0.00000000000E+00 -0.69084548886E+02  0.69084548886E+02  0.00000000000E+00 0.  1.
          6    1    1    2  501    0  0.19079772405E+03  0.38738979473E+02  0.51708646430E+03  0.57897486266E+03  0.17300000000E+03 0.  1.
         -6    1    1    2    0  503 -0.19079772405E+03 -0.38738979473E+02  0.40649034037E+03  0.48277103978E+03  0.17300000000E+03 0.  1.
<mgrwt>
<rscale>  2 0.26044861E+03</rscale>
<asrwt>0</asrwt>
<pdfrwt beam="1">  1       21 0.15271712E+00 0.26044861E+03</pdfrwt>
<pdfrwt beam="2">  1       21 0.10628393E-01 0.26044861E+03</pdfrwt>
<totfact> 0.19936758E+04</totfact>
</mgrwt>
</event>
<event>
 4    1  0.4199484E+000  0.1736173E+03  0.7546771E-02  0.1174127E+00
         21   -1    0    0  501  502  0.00000000000E+00  0.00000000000E+00  0.17177304878E+03  0.17177304878E+03  0.00000000000E+00 0. -1.
         21   -1    0    0  502  503 -0.00000000000E+00 -0.00000000000E+00 -0.29008467603E+03  0.29008467603E+03  0.00000000000E+00 0. -1.
          6    1    1    2  501    0 -0.11158290456E+02 -0.94576156791E+01  0.85993361423E+02  0.19374677326E+03  0.17300000000E+03 0. -1.
         -6    1    1    2    0  503  0.11158290456E+02  0.94576156791E+01 -0.20430498868E+03  0.26811095155E+03  0.17300000000E+03 0. -1.
<mgrwt>
<rscale>  2 0.17361726E+03</rscale>
<asrwt>0</asrwt>
<pdfrwt beam="1">  1       21 0.26426623E-01 0.17361726E+03</pdfrwt>
<pdfrwt beam="2">  1       21 0.44628411E-01 0.17361726E+03</pdfrwt>
<totfact> 0.66197679E+04</totfact>
</mgrwt>
</event>
<event>
 4    1  0.4199484E+000  0.1934354E+03  0.7546771E-02  0.1155399E+00
         21   -1    0    0  503  502  0.00000000000E+00  0.00000000000E+00  0.13333963588E+04  0.13333963588E+04  0.00000000000E+00 0.  1.
         21   -1    0    0  501  503 -0.00000000000E+00 -0.00000000000E+00 -0.29425489468E+02  0.29425489468E+02  0.00000000000E+00 0.  1.
          6    1    1    2  501    0 -0.86039481876E+02  0.92446222003E+01  0.50528398091E+03  0.54104450542E+03  0.17300000000E+03 0.  1.
         -6    1    1    2    0  502  0.86039481876E+02 -0.92446222003E+01  0.79868688841E+03  0.82177734283E+03  0.17300000000E+03 0.  1.
<mgrwt>
<rscale>  2 0.19343540E+03</rscale>
<asrwt>0</asrwt>
<pdfrwt beam="1">  1       21 0.20513785E+00 0.19343540E+03</pdfrwt>
<pdfrwt beam="2">  1       21 0.45269994E-02 0.19343540E+03</pdfrwt>
<totfact> 0.39602483E+04</totfact>
</mgrwt>
</event>
<event>
 4    1  0.4199484E+000  0.1857968E+03  0.7546771E-02  0.1162308E+00
         21   -1    0    0  501  502  0.00000000000E+00  0.00000000000E+00  0.72747128627E+03  0.72747128627E+03  0.00000000000E+00 0.  1.
         21   -1    0    0  502  503 -0.00000000000E+00 -0.00000000000E+00 -0.47452870046E+02  0.47452870046E+02  0.00000000000E+00 0.  1.
          6    1    1    2  501    0  0.66509639271E+02  0.12958340956E+02  0.33920236222E+03  0.38675404749E+03  0.17300000000E+03 0.  1.
         -6    1    1    2    0  503 -0.66509639271E+02 -0.12958340956E+02  0.34081605400E+03  0.38817010882E+03  0.17300000000E+03 0.  1.
<mgrwt>
<rscale>  2 0.18579680E+03</rscale>
<asrwt>0</asrwt>
<pdfrwt beam="1">  1       21 0.11191865E+00 0.18579680E+03</pdfrwt>
<pdfrwt beam="2">  1       21 0.73004421E-02 0.18579680E+03</pdfrwt>
<totfact> 0.88361597E+04</totfact>
</mgrwt>
</event>
<event>
 4    1  0.4199484E+000  0.2187735E+03  0.7546771E-02  0.1134801E+00
         21   -1    0    0  501  502  0.00000000000E+00  0.00000000000E+00  0.32287579073E+03  0.32287579073E+03  0.00000000000E+00 0.  1.
         21   -1    0    0  502  503 -0.00000000000E+00 -0.00000000000E+00 -0.21478810953E+03  0.21478810953E+03  0.00000000000E+00 0.  1.
          6    1    1    2  501    0 -0.33533028737E+02 -0.12964713640E+03  0.20368683568E+03  0.29891498963E+03  0.17300000000E+03 0.  1.
         -6    1    1    2    0  503  0.33533028737E+02  0.12964713640E+03 -0.95599154479E+02  0.23874891064E+03  0.17300000000E+03 0.  1.
<mgrwt>
<rscale>  2 0.21877350E+03</rscale>
<asrwt>0</asrwt>
<pdfrwt beam="1">  1       21 0.49673198E-01 0.21877350E+03</pdfrwt>
<pdfrwt beam="2">  1       21 0.33044325E-01 0.21877350E+03</pdfrwt>
<totfact> 0.33598244E+04</totfact>
</mgrwt>
</event>
<event>
 4    1  0.4199484E+000  0.1838756E+03  0.7546771E-02  0.1164104E+00
         21   -1    0    0  501  502  0.00000000000E+00  0.00000000000E+00  0.41282082897E+03  0.41282082897E+03  0.00000000000E+00 0. -1.
         21   -1    0    0  502  503 -0.00000000000E+00 -0.00000000000E+00 -0.10634141737E+03  0.10634141737E+03  0.00000000000E+00 0.  1.
          6    1    1    2  501    0  0.53803708893E+02 -0.31406829166E+02  0.27768564473E+03  0.33304586065E+03  0.17300000000E+03 0. -1.
         -6    1    1    2    0  503 -0.53803708893E+02  0.31406829166E+02  0.28793766875E+02  0.18611638568E+03  0.17300000000E+03 0.  1.
<mgrwt>
<rscale>  2 0.18387558E+03</rscale>
<asrwt>0</asrwt>
<pdfrwt beam="1">  1       21 0.63510896E-01 0.18387558E+03</pdfrwt>
<pdfrwt beam="2">  1       21 0.16360218E-01 0.18387558E+03</pdfrwt>
<totfact> 0.77005130E+04</totfact>
</mgrwt>
</event>
<event>
 4    1  0.4199484E+000  0.2407452E+03  0.7546771E-02  0.1119297E+00
         21   -1    0    0  503  502  0.00000000000E+00  0.00000000000E+00  0.20186902656E+03  0.20186902656E+03  0.00000000000E+00 0.  1.
         21   -1    0    0  501  503 -0.00000000000E+00 -0.00000000000E+00 -0.29040191098E+03  0.29040191098E+03  0.00000000000E+00 0.  1.
          6    1    1    2  501    0 -0.10995771454E+03 -0.12624792488E+03 -0.70479773450E+02  0.25084982757E+03  0.17300000000E+03 0.  1.
         -6    1    1    2    0  502  0.10995771454E+03  0.12624792488E+03 -0.18053110963E+02  0.24142110997E+03  0.17300000000E+03 0.  1.
<mgrwt>
<rscale>  2 0.24074517E+03</rscale>
<asrwt>0</asrwt>
<pdfrwt beam="1">  1       21 0.31056774E-01 0.24074517E+03</pdfrwt>
<pdfrwt beam="2">  1       21 0.44677217E-01 0.24074517E+03</pdfrwt>
<totfact> 0.46848981E+04</totfact>
</mgrwt>
</event>
<event>
 4    1  0.4199484E+000  0.2248364E+03  0.7546771E-02  0.1130328E+00
         21   -1    0    0  503  502  0.00000000000E+00  0.00000000000E+00  0.11110252184E+04  0.11110252184E+04  0.00000000000E+00 0.  1.
         21   -1    0    0  501  503 -0.00000000000E+00 -0.00000000000E+00 -0.56669269142E+02  0.56669269142E+02  0.00000000000E+00 0. -1.
          6    1    1    2  501    0 -0.12288144664E+03 -0.74313825404E+02  0.26797365706E+03  0.34980176594E+03  0.17300000000E+03 0.  1.
         -6    1    1    2    0  502  0.12288144664E+03  0.74313825404E+02  0.78638229224E+03  0.81789272164E+03  0.17300000000E+03 0.  1.
<mgrwt>
<rscale>  2 0.22483637E+03</rscale>
<asrwt>0</asrwt>
<pdfrwt beam="1">  1       21 0.17092694E+00 0.22483637E+03</pdfrwt>
<pdfrwt beam="2">  1       21 0.87183499E-02 0.22483637E+03</pdfrwt>
<totfact> 0.21246609E+04</totfact>
</mgrwt>
</event>
<event>
 4    1  0.4199484E+000  0.1742025E+03  0.7546771E-02  0.1173535E+00
         21   -1    0    0  503  502  0.00000000000E+00  0.00000000000E+00  0.15644178267E+02  0.15644178267E+02  0.00000000000E+00 0.  1.
         21   -1    0    0  501  503 -0.00000000000E+00 -0.00000000000E+00 -0.26333110368E+04  0.26333110368E+04  0.00000000000E+00 0.  1.
          6    1    1    2  501    0  0.14327965166E+02 -0.14567817328E+02 -0.19885401002E+04  0.19961558661E+04  0.17300000000E+03 0.  1.
         -6    1    1    2    0  502 -0.14327965166E+02  0.14567817328E+02 -0.62912675834E+03  0.65279934892E+03  0.17300000000E+03 0.  1.
<mgrwt>
<rscale>  2 0.17420250E+03</rscale>
<asrwt>0</asrwt>
<pdfrwt beam="1">  1       21 0.24067978E-02 0.17420250E+03</pdfrwt>
<pdfrwt beam="2">  1       21 0.40512458E+00 0.17420250E+03</pdfrwt>
<totfact> 0.75544362E+03</totfact>
</mgrwt>
</event>
<event>
 4    1  0.4199484E+000  0.2132187E+03  0.7546771E-02  0.1139042E+00
         21   -1    0    0  501  502  0.00000000000E+00  0.00000000000E+00  0.21556517037E+03  0.21556517037E+03  0.00000000000E+00 0. -1.
         21   -1    0    0  502  503 -0.00000000000E+00 -0.00000000000E+00 -0.26080378022E+03  0.26080378022E+03  0.00000000000E+00 0. -1.
          6    1    1    2  501    0 -0.10878463290E+03 -0.60820370773E+02  0.81572349226E+02  0.22828986402E+03  0.17300000000E+03 0. -1.
         -6    1    1    2    0  503  0.10878463290E+03  0.60820370773E+02 -0.12681095908E+03  0.24807908658E+03  0.17300000000E+03 0. -1.
<mgrwt>
<rscale>  2 0.21321870E+03</rscale>
<asrwt>0</asrwt>
<pdfrwt beam="1">  1       21 0.33163872E-01 0.21321870E+03</pdfrwt>
<pdfrwt beam="2">  1       21 0.40123658E-01 0.21321870E+03</pdfrwt>
<totfact> 0.51896468E+04</totfact>
</mgrwt>
</event>
<event>
 4    1  0.4199484E+000  0.1755944E+03  0.7546771E-02  0.1172136E+00
         21   -1    0    0  501  502  0.00000000000E+00  0.00000000000E+00  0.18770782244E+03  0.18770782244E+03  0.00000000000E+00 0. -1.
         21   -1    0    0  502  503 -0.00000000000E+00 -0.00000000000E+00 -0.41927575375E+03  0.41927575375E+03  0.00000000000E+00 0. -1.
          6    1    1    2  501    0 -0.24695709093E+02 -0.17161050949E+02  0.12090517873E+03  0.21319343790E+03  0.17300000000E+03 0. -1.
         -6    1    1    2    0  503  0.24695709093E+02  0.17161050949E+02 -0.35247311004E+03  0.39379013830E+03  0.17300000000E+03 0. -1.
<mgrwt>
<rscale>  2 0.17559436E+03</rscale>
<asrwt>0</asrwt>
<pdfrwt beam="1">  1       21 0.28878127E-01 0.17559436E+03</pdfrwt>
<pdfrwt beam="2">  1       21 0.64503961E-01 0.17559436E+03</pdfrwt>
<totfact> 0.25681031E+04</totfact>
</mgrwt>
</event>
<event>
 4    1  0.4199484E+000  0.2418078E+03  0.7546771E-02  0.1118594E+00
         21   -1    0    0  501  502  0.00000000000E+00  0.00000000000E+00  0.30974020232E+03  0.30974020232E+03  0.00000000000E+00 0. -1.
         21   -1    0    0  502  503 -0.00000000000E+00 -0.00000000000E+00 -0.44968350087E+03  0.44968350087E+03  0.00000000000E+00 0.  1.
          6    1    1    2  501    0 -0.16715981871E+03 -0.24486591269E+02  0.21925969161E+03  0.32641355748E+03  0.17300000000E+03 0. -1.
         -6    1    1    2    0  503  0.16715981871E+03  0.24486591269E+02 -0.35920299016E+03  0.43301014570E+03  0.17300000000E+03 0.  1.
<mgrwt>
<rscale>  2 0.24180777E+03</rscale>
<asrwt>0</asrwt>
<pdfrwt beam="1">  1       21 0.47652339E-01 0.24180777E+03</pdfrwt>
<pdfrwt beam="2">  1       21 0.69182077E-01 0.24180777E+03</pdfrwt>
<totfact> 0.77493572E+03</totfact>
</mgrwt>
</event>
<event>
 4    1  0.4199484E+000  0.2161839E+03  0.7546771E-02  0.1136760E+00
         21   -1    0    0  503  502  0.00000000000E+00  0.00000000000E+00  0.25788269474E+03  0.25788269474E+03  0.00000000000E+00 0. -1.
         21   -1    0    0  501  503 -0.00000000000E+00 -0.00000000000E+00 -0.18980043792E+03  0.18980043792E+03  0.00000000000E+00 0. -1.
          6    1    1    2  501    0 -0.11204733108E+03 -0.65206518556E+02 -0.13530852306E+02  0.21660696763E+03  0.17300000000E+03 0. -1.
         -6    1    1    2    0  502  0.11204733108E+03  0.65206518556E+02  0.81613109124E+02  0.23107616503E+03  0.17300000000E+03 0. -1.
<mgrwt>
<rscale>  2 0.21618394E+03</rscale>
<asrwt>0</asrwt>
<pdfrwt beam="1">  1       21 0.39674261E-01 0.21618394E+03</pdfrwt>
<pdfrwt beam="2">  1       21 0.29200067E-01 0.21618394E+03</pdfrwt>
<totfact> 0.68071739E+04</totfact>
</mgrwt>
</event>
<event>
 4    1  0.4199484E+000  0.1818865E+03  0.7546771E-02  0.1165990E+00
         21   -1    0    0  503  502  0.00000000000E+00  0.00000000000E+00  0.41095584835E+03  0.41095584835E+03  0.00000000000E+00 0. -1.
         21   -1    0    0  501  503 -0.00000000000E+00 -0.00000000000E+00 -0.10780670244E+03  0.10780670244E+03  0.00000000000E+00 0. -1.
          6    1    1    2  501    0  0.31462900791E+02  0.46516619261E+02  0.21036985757E+02  0.18309905724E+03  0.17300000000E+03 0.  1.
         -6    1    1    2    0  502 -0.31462900791E+02 -0.46516619261E+02  0.28211216016E+03  0.33566349355E+03  0.17300000000E+03 0.  1.
<mgrwt>
<rscale>  2 0.18188653E+03</rscale>
<asrwt>0</asrwt>
<pdfrwt beam="1">  1       21 0.63223976E-01 0.18188653E+03</pdfrwt>
<pdfrwt beam="2">  1       21 0.16585647E-01 0.18188653E+03</pdfrwt>
<totfact> 0.75901017E+04</totfact>
</mgrwt>
</event>
<event>
 4    1  0.4199484E+000  0.1982124E+03  0.7546771E-02  0.1151256E+00
         21   -1    0    0  503  502  0.00000000000E+00  0.00000000000E+00  0.14298755796E+03  0.14298755796E+03  0.00000000000E+00 0.  1.
         21   -1    0    0  501  503 -0.00000000000E+00 -0.00000000000E+00 -0.87067575076E+03  0.87067575076E+03  0.00000000000E+00 0.  1.
          6    1    1    2  501    0 -0.43990344973E+02 -0.86162570275E+02 -0.78314490743E+03  0.80783914550E+03  0.17300000000E+03 0.  1.
         -6    1    1    2    0  502  0.43990344973E+02  0.86162570275E+02  0.55456714627E+02  0.20582416322E+03  0.17300000000E+03 0.  1.
<mgrwt>
<rscale>  2 0.19821236E+03</rscale>
<asrwt>0</asrwt>
<pdfrwt beam="1">  1       21 0.21998086E-01 0.19821236E+03</pdfrwt>
<pdfrwt beam="2">  1       21 0.13395012E+00 0.19821236E+03</pdfrwt>
<totfact> 0.77032156E+03</totfact>
</mgrwt>
</event>
<event>
 4    1  0.4199484E+000  0.2825907E+03  0.7546771E-02  0.1094282E+00
         21   -1    0    0  503  502  0.00000000000E+00  0.00000000000E+00  0.21133946146E+03  0.21133946146E+03  0.00000000000E+00 0.  1.
         21   -1    0    0  501  503 -0.00000000000E+00 -0.00000000000E+00 -0.38120272750E+03  0.38120272750E+03  0.00000000000E+00 0.  1.
          6    1    1    2  501    0  0.20954181529E+03  0.77593501214E+02 -0.11265955378E+03  0.30421981994E+03  0.17300000000E+03 0.  1.
         -6    1    1    2    0  502 -0.20954181529E+03 -0.77593501214E+02 -0.57203712264E+02  0.28832236903E+03  0.17300000000E+03 0.  1.
<mgrwt>
<rscale>  2 0.28259074E+03</rscale>
<asrwt>0</asrwt>
<pdfrwt beam="1">  1       21 0.32513763E-01 0.28259074E+03</pdfrwt>
<pdfrwt beam="2">  1       21 0.58646573E-01 0.28259074E+03</pdfrwt>
<totfact> 0.23693488E+04</totfact>
</mgrwt>
</event>
<event>
 4    1  0.4199484E+000  0.2718197E+03  0.7546771E-02  0.1100243E+00
         21   -1    0    0  501  502  0.00000000000E+00  0.00000000000E+00  0.39708421657E+03  0.39708421657E+03  0.00000000000E+00 0.  1.
         21   -1    0    0  502  503 -0.00000000000E+00 -0.00000000000E+00 -0.18611012210E+03  0.18611012210E+03  0.00000000000E+00 0. -1.
          6    1    1    2  501    0 -0.20908932108E+02 -0.20861391490E+03  0.10970230576E+03  0.29312206471E+03  0.17300000000E+03 0.  1.
         -6    1    1    2    0  503  0.20908932108E+02  0.20861391490E+03  0.10127178872E+03  0.29007227396E+03  0.17300000000E+03 0.  1.
<mgrwt>
<rscale>  2 0.27181970E+03</rscale>
<asrwt>0</asrwt>
<pdfrwt beam="1">  1       21 0.61089879E-01 0.27181970E+03</pdfrwt>
<pdfrwt beam="2">  1       21 0.28632326E-01 0.27181970E+03</pdfrwt>
<totfact> 0.27984518E+04</totfact>
</mgrwt>
</event>
<event>
 4    1  0.4199484E+000  0.2214566E+03  0.7546771E-02  0.1132802E+00
         21   -1    0    0  501  502  0.00000000000E+00  0.00000000000E+00  0.85481728874E+03  0.85481728874E+03  0.00000000000E+00 0. -1.
         21   -1    0    0  502  503 -0.00000000000E+00 -0.00000000000E+00 -0.57697661690E+02  0.57697661690E+02  0.00000000000E+00 0.  1.
          6    1    1    2  501    0  0.54393113870E+02 -0.12710387678E+03  0.36430832468E+03  0.42633738020E+03  0.17300000000E+03 0.  1.
         -6    1    1    2    0  503 -0.54393113870E+02  0.12710387678E+03  0.43281130237E+03  0.48617757022E+03  0.17300000000E+03 0. -1.
<mgrwt>
<rscale>  2 0.22145656E+03</rscale>
<asrwt>0</asrwt>
<pdfrwt beam="1">  1       21 0.13151034E+00 0.22145656E+03</pdfrwt>
<pdfrwt beam="2">  1       21 0.88765639E-02 0.22145656E+03</pdfrwt>
<totfact> 0.41356527E+04</totfact>
</mgrwt>
</event>
<event>
 4    1  0.4199484E+000  0.2640981E+03  0.7546771E-02  0.1104706E+00
         21   -1    0    0  503  502  0.00000000000E+00  0.00000000000E+00  0.12737818254E+03  0.12737818254E+03  0.00000000000E+00 0. -1.
         21   -1    0    0  501  503 -0.00000000000E+00 -0.00000000000E+00 -0.89359769613E+03  0.89359769613E+03  0.00000000000E+00 0.  1.
          6    1    1    2  501    0 -0.18858326025E+03 -0.65231623448E+02 -0.70077752454E+03  0.74889047907E+03  0.17300000000E+03 0.  1.
         -6    1    1    2    0  502  0.18858326025E+03  0.65231623448E+02 -0.65441989057E+02  0.27208539960E+03  0.17300000000E+03 0. -1.
<mgrwt>
<rscale>  2 0.26409811E+03</rscale>
<asrwt>0</asrwt>
<pdfrwt beam="1">  1       21 0.19596643E-01 0.26409811E+03</pdfrwt>
<pdfrwt beam="2">  1       21 0.13747657E+00 0.26409811E+03</pdfrwt>
<totfact> 0.85746517E+03</totfact>
</mgrwt>
</event>
<event>
 4    1  0.4199484E+000  0.2630316E+03  0.7546771E-02  0.1105335E+00
         21   -1    0    0  503  502  0.00000000000E+00  0.00000000000E+00  0.13591148967E+03  0.13591148967E+03  0.00000000000E+00 0.  1.
         21   -1    0    0  501  503 -0.00000000000E+00 -0.00000000000E+00 -0.69041256533E+03  0.69041256533E+03  0.00000000000E+00 0.  1.
          6    1    1    2  501    0 -0.17849485877E+03  0.86001175665E+02 -0.48900911019E+03  0.55526167405E+03  0.17300000000E+03 0.  1.
         -6    1    1    2    0  502  0.17849485877E+03 -0.86001175665E+02 -0.65491965473E+02  0.27106238095E+03  0.17300000000E+03 0.  1.
<mgrwt>
<rscale>  2 0.26303159E+03</rscale>
<asrwt>0</asrwt>
<pdfrwt beam="1">  1       21 0.20909460E-01 0.26303159E+03</pdfrwt>
<pdfrwt beam="2">  1       21 0.10621732E+00 0.26303159E+03</pdfrwt>
<totfact> 0.14483915E+04</totfact>
</mgrwt>
</event>
<event>
 4    1  0.4199484E+000  0.2036487E+03  0.7546771E-02  0.1146697E+00
         21   -1    0    0  503  502  0.00000000000E+00  0.00000000000E+00  0.29396148007E+03  0.29396148007E+03  0.00000000000E+00 0.  1.
         21   -1    0    0  501  503 -0.00000000000E+00 -0.00000000000E+00 -0.17856898853E+03  0.17856898853E+03  0.00000000000E+00 0. -1.
          6    1    1    2  501    0  0.89084368252E+02 -0.60064816387E+02 -0.50555386054E+02  0.20983005956E+03  0.17300000000E+03 0. -1.
         -6    1    1    2    0  502 -0.89084368252E+02  0.60064816387E+02  0.16594787760E+03  0.26270040905E+03  0.17300000000E+03 0.  1.
<mgrwt>
<rscale>  2 0.20364873E+03</rscale>
<asrwt>0</asrwt>
<pdfrwt beam="1">  1       21 0.45224843E-01 0.20364873E+03</pdfrwt>
<pdfrwt beam="2">  1       21 0.27472152E-01 0.20364873E+03</pdfrwt>
<totfact> 0.58981364E+04</totfact>
</mgrwt>
</event>
<event>
 4    1  0.4199484E+000  0.1930620E+03  0.7546771E-02  0.1155728E+00
         21   -1    0    0  503  502  0.00000000000E+00  0.00000000000E+00  0.81534875009E+03  0.81534875009E+03  0.00000000000E+00 0.  1.
         21   -1    0    0  501  503 -0.00000000000E+00 -0.00000000000E+00 -0.45714165998E+02  0.45714165998E+02  0.00000000000E+00 0.  1.
          6    1    1    2  501    0  0.77592732928E+02 -0.36377415260E+02  0.38437372891E+03  0.43013499279E+03  0.17300000000E+03 0. -1.
         -6    1    1    2    0  502 -0.77592732928E+02  0.36377415260E+02  0.38526085518E+03  0.43092792330E+03  0.17300000000E+03 0. -1.
<mgrwt>
<rscale>  2 0.19306203E+03</rscale>
<asrwt>0</asrwt>
<pdfrwt beam="1">  1       21 0.12543826E+00 0.19306203E+03</pdfrwt>
<pdfrwt beam="2">  1       21 0.70329492E-02 0.19306203E+03</pdfrwt>
<totfact> 0.70940249E+04</totfact>
</mgrwt>
</event>
<event>
 4    1  0.4199484E+000  0.1892483E+03  0.7546771E-02  0.1159141E+00
         21   -1    0    0  503  502  0.00000000000E+00  0.00000000000E+00  0.13600604169E+03  0.13600604169E+03  0.00000000000E+00 0.  1.
         21   -1    0    0  501  503 -0.00000000000E+00 -0.00000000000E+00 -0.76070083101E+03  0.76070083101E+03  0.00000000000E+00 0.  1.
          6    1    1    2  501    0  0.74178492914E+02  0.19582104359E+02 -0.67488437374E+03  0.70091641837E+03  0.17300000000E+03 0.  1.
         -6    1    1    2    0  502 -0.74178492914E+02 -0.19582104359E+02  0.50189584418E+02  0.19579045433E+03  0.17300000000E+03 0.  1.
<mgrwt>
<rscale>  2 0.18924827E+03</rscale>
<asrwt>0</asrwt>
<pdfrwt beam="1">  1       21 0.20924006E-01 0.18924827E+03</pdfrwt>
<pdfrwt beam="2">  1       21 0.11703090E+00 0.18924827E+03</pdfrwt>
<totfact> 0.11943618E+04</totfact>
</mgrwt>
</event>
<event>
 4    1  0.4199484E+000  0.2235009E+03  0.7546771E-02  0.1131300E+00
         21   -1    0    0  501  502  0.00000000000E+00  0.00000000000E+00  0.20233823442E+03  0.20233823442E+03  0.00000000000E+00 0.  1.
         21   -1    0    0  502  503 -0.00000000000E+00 -0.00000000000E+00 -0.30586868554E+03  0.30586868554E+03  0.00000000000E+00 0.  1.
          6    1    1    2  501    0 -0.11656857687E+03 -0.80220979397E+02  0.59828247473E+02  0.23136995882E+03  0.17300000000E+03 0.  1.
         -6    1    1    2    0  503  0.11656857687E+03  0.80220979397E+02 -0.16335869860E+03  0.27683696114E+03  0.17300000000E+03 0.  1.
<mgrwt>
<rscale>  2 0.22350087E+03</rscale>
<asrwt>0</asrwt>
<pdfrwt beam="1">  1       21 0.31128959E-01 0.22350087E+03</pdfrwt>
<pdfrwt beam="2">  1       21 0.47056721E-01 0.22350087E+03</pdfrwt>
<totfact> 0.42205581E+04</totfact>
</mgrwt>
</event>
<event>
 4    1  0.4199484E+000  0.2112584E+03  0.7546771E-02  0.1140573E+00
         21   -1    0    0  503  502  0.00000000000E+00  0.00000000000E+00  0.16095478769E+03  0.16095478769E+03  0.00000000000E+00 0. -1.
         21   -1    0    0  501  503 -0.00000000000E+00 -0.00000000000E+00 -0.49963148637E+03  0.49963148637E+03  0.00000000000E+00 0.  1.
          6    1    1    2  501    0 -0.16476229374E+02  0.12012353189E+03 -0.38967721837E+03  0.44325891256E+03  0.17300000000E+03 0.  1.
         -6    1    1    2    0  502  0.16476229374E+02 -0.12012353189E+03  0.51000519693E+02  0.21732736150E+03  0.17300000000E+03 0. -1.
<mgrwt>
<rscale>  2 0.21125844E+03</rscale>
<asrwt>0</asrwt>
<pdfrwt beam="1">  1       21 0.24762276E-01 0.21125844E+03</pdfrwt>
<pdfrwt beam="2">  1       21 0.76866381E-01 0.21125844E+03</pdfrwt>
<totfact> 0.22962064E+04</totfact>
</mgrwt>
</event>
<event>
 4    1  0.4199484E+000  0.1855321E+03  0.7546771E-02  0.1162554E+00
         21   -1    0    0  503  502  0.00000000000E+00  0.00000000000E+00  0.19049815890E+03  0.19049815890E+03  0.00000000000E+00 0. -1.
         21   -1    0    0  501  503 -0.00000000000E+00 -0.00000000000E+00 -0.30923747919E+03  0.30923747919E+03  0.00000000000E+00 0. -1.
          6    1    1    2  501    0  0.16194277778E+02  0.65045392471E+02 -0.22046640909E+03  0.28814509409E+03  0.17300000000E+03 0. -1.
         -6    1    1    2    0  502 -0.16194277778E+02 -0.65045392471E+02  0.10172708879E+03  0.21159054399E+03  0.17300000000E+03 0. -1.
<mgrwt>
<rscale>  2 0.18553209E+03</rscale>
<asrwt>0</asrwt>
<pdfrwt beam="1">  1       21 0.29307409E-01 0.18553209E+03</pdfrwt>
<pdfrwt beam="2">  1       21 0.47574997E-01 0.18553209E+03</pdfrwt>
<totfact> 0.47276537E+04</totfact>
</mgrwt>
</event>
<event>
 4    1  0.4199484E+000  0.1806904E+03  0.7546771E-02  0.1167137E+00
         21   -1    0    0  501  502  0.00000000000E+00  0.00000000000E+00  0.13256756954E+03  0.13256756954E+03  0.00000000000E+00 0. -1.
         21   -1    0    0  502  503 -0.00000000000E+00 -0.00000000000E+00 -0.14379322681E+04  0.14379322681E+04  0.00000000000E+00 0. -1.
          6    1    1    2  501    0 -0.47256156402E+02 -0.22065093938E+02  0.62164625986E+02  0.19108493769E+03  0.17300000000E+03 0. -1.
         -6    1    1    2    0  503  0.47256156402E+02  0.22065093938E+02 -0.13675293246E+04  0.13794149000E+04  0.17300000000E+03 0. -1.
<mgrwt>
<rscale>  2 0.18069038E+03</rscale>
<asrwt>0</asrwt>
<pdfrwt beam="1">  1       21 0.20395011E-01 0.18069038E+03</pdfrwt>
<pdfrwt beam="2">  1       21 0.22122035E+00 0.18069038E+03</pdfrwt>
<totfact> 0.22296794E+03</totfact>
</mgrwt>
</event>
<event>
 4    1  0.4199484E+000  0.2003386E+03  0.7546771E-02  0.1149454E+00
         21   -1    0    0  503  502  0.00000000000E+00  0.00000000000E+00  0.99749732410E+02  0.99749732410E+02  0.00000000000E+00 0.  1.
         21   -1    0    0  501  503 -0.00000000000E+00 -0.00000000000E+00 -0.77182635404E+03  0.77182635404E+03  0.00000000000E+00 0.  1.
          6    1    1    2  501    0  0.85741564875E+02  0.53431661625E+02 -0.63754812090E+03  0.66828374578E+03  0.17300000000E+03 0.  1.
         -6    1    1    2    0  502 -0.85741564875E+02 -0.53431661625E+02 -0.34528500726E+02  0.20329234067E+03  0.17300000000E+03 0.  1.
<mgrwt>
<rscale>  2 0.20033861E+03</rscale>
<asrwt>0</asrwt>
<pdfrwt beam="1">  1       21 0.15346113E-01 0.20033861E+03</pdfrwt>
<pdfrwt beam="2">  1       21 0.11874251E+00 0.20033861E+03</pdfrwt>
<totfact> 0.20298672E+04</totfact>
</mgrwt>
</event>
<event>
 4    1  0.4199484E+000  0.1941946E+03  0.7546771E-02  0.1154732E+00
         21   -1    0    0  501  502  0.00000000000E+00  0.00000000000E+00  0.18088408867E+04  0.18088408867E+04  0.00000000000E+00 0.  1.
         21   -1    0    0  502  503 -0.00000000000E+00 -0.00000000000E+00 -0.20883461906E+02  0.20883461906E+02  0.00000000000E+00 0.  1.
          6    1    1    2  501    0  0.86613111521E+02  0.16754931439E+02  0.93142935788E+03  0.95145793787E+03  0.17300000000E+03 0.  1.
         -6    1    1    2    0  503 -0.86613111521E+02 -0.16754931439E+02  0.85652806687E+03  0.87826641070E+03  0.17300000000E+03 0.  1.
<mgrwt>
<rscale>  2 0.19419464E+03</rscale>
<asrwt>0</asrwt>
<pdfrwt beam="1">  1       21 0.27828309E+00 0.19419464E+03</pdfrwt>
<pdfrwt beam="2">  1       21 0.32128417E-02 0.19419464E+03</pdfrwt>
<totfact> 0.25676633E+04</totfact>
</mgrwt>
</event>
<event>
 4    1  0.4199484E+000  0.2503327E+03  0.7546771E-02  0.1113095E+00
         21   -1    0    0  503  502  0.00000000000E+00  0.00000000000E+00  0.69825409039E+02  0.69825409039E+02  0.00000000000E+00 0. -1.
         21   -1    0    0  501  503 -0.00000000000E+00 -0.00000000000E+00 -0.16416854955E+04  0.16416854955E+04  0.00000000000E+00 0.  1.
          6    1    1    2  501    0 -0.82710440266E+02 -0.16092370450E+03 -0.13621032005E+04  0.13849157319E+04  0.17300000000E+03 0.  1.
         -6    1    1    2    0  502  0.82710440266E+02  0.16092370450E+03 -0.20975688598E+03  0.32659517268E+03  0.17300000000E+03 0. -1.
<mgrwt>
<rscale>  2 0.25033269E+03</rscale>
<asrwt>0</asrwt>
<pdfrwt beam="1">  1       21 0.10742372E-01 0.25033269E+03</pdfrwt>
<pdfrwt beam="2">  1       21 0.25256698E+00 0.25033269E+03</pdfrwt>
<totfact> 0.43484423E+03</totfact>
</mgrwt>
</event>
<event>
 4    1  0.4199484E+000  0.1795983E+03  0.7546771E-02  0.1168192E+00
         21   -1    0    0  501  502  0.00000000000E+00  0.00000000000E+00  0.42745489558E+03  0.42745489558E+03  0.00000000000E+00 0.  1.
         21   -1    0    0  502  503 -0.00000000000E+00 -0.00000000000E+00 -0.90182572110E+02  0.90182572110E+02  0.00000000000E+00 0.  1.
          6    1    1    2  501    0 -0.45848305656E+02 -0.14982914292E+02  0.27321236117E+03  0.32695649428E+03  0.17300000000E+03 0.  1.
         -6    1    1    2    0  503  0.45848305656E+02  0.14982914292E+02  0.64059962298E+02  0.19068097341E+03  0.17300000000E+03 0.  1.
<mgrwt>
<rscale>  2 0.17959832E+03</rscale>
<asrwt>0</asrwt>
<pdfrwt beam="1">  1       21 0.65762290E-01 0.17959832E+03</pdfrwt>
<pdfrwt beam="2">  1       21 0.13874242E-01 0.17959832E+03</pdfrwt>
<totfact> 0.96525461E+04</totfact>
</mgrwt>
</event>
<event>
 4    1  0.4199484E+000  0.2009290E+03  0.7546771E-02  0.1148958E+00
         21   -1    0    0  503  502  0.00000000000E+00  0.00000000000E+00  0.21882013265E+03  0.21882013265E+03  0.00000000000E+00 0. -1.
         21   -1    0    0  501  503 -0.00000000000E+00 -0.00000000000E+00 -0.19107279856E+03  0.19107279856E+03  0.00000000000E+00 0.  1.
          6    1    1    2  501    0  0.65105353267E+02  0.78770265422E+02 -0.24135987917E+02  0.20237343613E+03  0.17300000000E+03 0. -1.
         -6    1    1    2    0  502 -0.65105353267E+02 -0.78770265422E+02  0.51883322005E+02  0.20751949509E+03  0.17300000000E+03 0. -1.
<mgrwt>
<rscale>  2 0.20092900E+03</rscale>
<asrwt>0</asrwt>
<pdfrwt beam="1">  1       21 0.33664636E-01 0.20092900E+03</pdfrwt>
<pdfrwt beam="2">  1       21 0.29395815E-01 0.20092900E+03</pdfrwt>
<totfact> 0.93912427E+04</totfact>
</mgrwt>
</event>
<event>
 4    1  0.4199484E+000  0.2942367E+03  0.7546771E-02  0.1088158E+00
         21   -1    0    0  501  502  0.00000000000E+00  0.00000000000E+00  0.18761194062E+03  0.18761194062E+03  0.00000000000E+00 0.  1.
         21   -1    0    0  502  503 -0.00000000000E+00 -0.00000000000E+00 -0.46495115081E+03  0.46495115081E+03  0.00000000000E+00 0. -1.
          6    1    1    2  501    0 -0.14467167617E+03  0.18898772389E+03 -0.11039323300E+03  0.31426409206E+03  0.17300000000E+03 0. -1.
         -6    1    1    2    0  503  0.14467167617E+03 -0.18898772389E+03 -0.16694597719E+03  0.33829899936E+03  0.17300000000E+03 0.  1.
<mgrwt>
<rscale>  2 0.29423673E+03</rscale>
<asrwt>0</asrwt>
<pdfrwt beam="1">  1       21 0.28863376E-01 0.29423673E+03</pdfrwt>
<pdfrwt beam="2">  1       21 0.71530946E-01 0.29423673E+03</pdfrwt>
<totfact> 0.19275326E+04</totfact>
</mgrwt>
</event>
<event>
 4    1  0.4199484E+000  0.1936126E+03  0.7546771E-02  0.1155243E+00
         21   -1    0    0  501  502  0.00000000000E+00  0.00000000000E+00  0.18760258025E+03  0.18760258025E+03  0.00000000000E+00 0.  1.
         21   -1    0    0  502  503 -0.00000000000E+00 -0.00000000000E+00 -0.33114979956E+03  0.33114979956E+03  0.00000000000E+00 0.  1.
          6    1    1    2  501    0  0.74124609633E+02 -0.45413262130E+02  0.91572071138E+02  0.21417578375E+03  0.17300000000E+03 0.  1.
         -6    1    1    2    0  503 -0.74124609633E+02  0.45413262130E+02 -0.23511929045E+03  0.30457659607E+03  0.17300000000E+03 0.  1.
<mgrwt>
<rscale>  2 0.19361256E+03</rscale>
<asrwt>0</asrwt>
<pdfrwt beam="1">  1       21 0.28861936E-01 0.19361256E+03</pdfrwt>
<pdfrwt beam="2">  1       21 0.50946122E-01 0.19361256E+03</pdfrwt>
<totfact> 0.42078190E+04</totfact>
</mgrwt>
</event>
<event>
 4    1  0.4199484E+000  0.2265644E+03  0.7546771E-02  0.1129082E+00
         21   -1    0    0  501  502  0.00000000000E+00  0.00000000000E+00  0.12508801601E+03  0.12508801601E+03  0.00000000000E+00 0. -1.
         21   -1    0    0  502  503 -0.00000000000E+00 -0.00000000000E+00 -0.64898894666E+03  0.64898894666E+03  0.00000000000E+00 0.  1.
          6    1    1    2  501    0  0.13595545607E+03  0.54023449894E+02 -0.27260311377E+02  0.22819847447E+03  0.17300000000E+03 0. -1.
         -6    1    1    2    0  503 -0.13595545607E+03 -0.54023449894E+02 -0.49664061927E+03  0.54587848821E+03  0.17300000000E+03 0.  1.
<mgrwt>
<rscale>  2 0.22656438E+03</rscale>
<asrwt>0</asrwt>
<pdfrwt beam="1">  1       21 0.19244310E-01 0.22656438E+03</pdfrwt>
<pdfrwt beam="2">  1       21 0.99844453E-01 0.22656438E+03</pdfrwt>
<totfact> 0.20029271E+04</totfact>
</mgrwt>
</event>
<event>
 4    1  0.4199484E+000  0.3085495E+03  0.7546771E-02  0.1081043E+00
         21   -1    0    0  503  502  0.00000000000E+00  0.00000000000E+00  0.36627137435E+03  0.36627137435E+03  0.00000000000E+00 0. -1.
         21   -1    0    0  501  503 -0.00000000000E+00 -0.00000000000E+00 -0.26629569123E+03  0.26629569123E+03  0.00000000000E+00 0.  1.
          6    1    1    2  501    0  0.18538874437E+03  0.17579769949E+03  0.10648676786E+01  0.30855137600E+03  0.17300000000E+03 0.  1.
         -6    1    1    2    0  502 -0.18538874437E+03 -0.17579769949E+03  0.98910815446E+02  0.32401568959E+03  0.17300000000E+03 0.  1.
<mgrwt>
<rscale>  2 0.30854954E+03</rscale>
<asrwt>0</asrwt>
<pdfrwt beam="1">  1       21 0.56349442E-01 0.30854954E+03</pdfrwt>
<pdfrwt beam="2">  1       21 0.40968568E-01 0.30854954E+03</pdfrwt>
<totfact> 0.16034140E+04</totfact>
</mgrwt>
</event>
<event>
 4    1  0.4199484E+000  0.2037674E+03  0.7546771E-02  0.1146599E+00
         21   -1    0    0  503  502  0.00000000000E+00  0.00000000000E+00  0.36479881357E+03  0.36479881357E+03  0.00000000000E+00 0.  1.
         21   -1    0    0  501  503 -0.00000000000E+00 -0.00000000000E+00 -0.23902305123E+03  0.23902305123E+03  0.00000000000E+00 0.  1.
          6    1    1    2  501    0  0.16556684081E+02  0.10638621965E+03 -0.15562024299E+03  0.25639581032E+03  0.17300000000E+03 0.  1.
         -6    1    1    2    0  502 -0.16556684081E+02 -0.10638621965E+03  0.28139600533E+03  0.34742605448E+03  0.17300000000E+03 0.  1.
<mgrwt>
<rscale>  2 0.20376740E+03</rscale>
<asrwt>0</asrwt>
<pdfrwt beam="1">  1       21 0.56122894E-01 0.20376740E+03</pdfrwt>
<pdfrwt beam="2">  1       21 0.36772777E-01 0.20376740E+03</pdfrwt>
<totfact> 0.21173429E+04</totfact>
</mgrwt>
</event>
<event>
 4    1  0.4199484E+000  0.1775849E+03  0.7546771E-02  0.1170161E+00
         21   -1    0    0  501  502  0.00000000000E+00  0.00000000000E+00  0.16174385674E+03  0.16174385674E+03  0.00000000000E+00 0. -1.
         21   -1    0    0  502  503 -0.00000000000E+00 -0.00000000000E+00 -0.29950973195E+03  0.29950973195E+03  0.00000000000E+00 0. -1.
          6    1    1    2  501    0 -0.38287331711E+02 -0.11893781464E+02  0.67364958065E+02  0.18993267065E+03  0.17300000000E+03 0. -1.
         -6    1    1    2    0  503  0.38287331711E+02  0.11893781464E+02 -0.20513083327E+03  0.27132091804E+03  0.17300000000E+03 0. -1.
<mgrwt>
<rscale>  2 0.17758486E+03</rscale>
<asrwt>0</asrwt>
<pdfrwt beam="1">  1       21 0.24883671E-01 0.17758486E+03</pdfrwt>
<pdfrwt beam="2">  1       21 0.46078419E-01 0.17758486E+03</pdfrwt>
<totfact> 0.69420335E+04</totfact>
</mgrwt>
</event>
<event>
 4    1  0.4199484E+000  0.2102702E+03  0.7546771E-02  0.1141352E+00
         21   -1    0    0  503  502  0.00000000000E+00  0.00000000000E+00  0.47152787044E+03  0.47152787044E+03  0.00000000000E+00 0.  1.
         21   -1    0    0  501  503 -0.00000000000E+00 -0.00000000000E+00 -0.11459434792E+03  0.11459434792E+03  0.00000000000E+00 0.  1.
          6    1    1    2  501    0  0.65971526083E+02 -0.99661083991E+02  0.53527896871E+02  0.21697651868E+03  0.17300000000E+03 0.  1.
         -6    1    1    2    0  502 -0.65971526083E+02  0.99661083991E+02  0.30340562565E+03  0.36914569968E+03  0.17300000000E+03 0.  1.
<mgrwt>
<rscale>  2 0.21027024E+03</rscale>
<asrwt>0</asrwt>
<pdfrwt beam="1">  1       21 0.72542748E-01 0.21027024E+03</pdfrwt>
<pdfrwt beam="2">  1       21 0.17629900E-01 0.21027024E+03</pdfrwt>
<totfact> 0.49523419E+04</totfact>
</mgrwt>
</event>
<event>
 4    1  0.4199484E+000  0.2913646E+03  0.7546771E-02  0.1089639E+00
         21   -1    0    0  503  502  0.00000000000E+00  0.00000000000E+00  0.46010780025E+02  0.46010780025E+02  0.00000000000E+00 0. -1.
         21   -1    0    0  501  503 -0.00000000000E+00 -0.00000000000E+00 -0.18482041704E+04  0.18482041704E+04  0.00000000000E+00 0. -1.
          6    1    1    2  501    0  0.11523642896E+01 -0.23444186419E+03 -0.94007074932E+03  0.98418815750E+03  0.17300000000E+03 0. -1.
         -6    1    1    2    0  502 -0.11523642896E+01  0.23444186419E+03 -0.86212264110E+03  0.91002679298E+03  0.17300000000E+03 0. -1.
<mgrwt>
<rscale>  2 0.29136458E+03</rscale>
<asrwt>0</asrwt>
<pdfrwt beam="1">  1       21 0.70785816E-02 0.29136458E+03</pdfrwt>
<pdfrwt beam="2">  1       21 0.28433910E+00 0.29136458E+03</pdfrwt>
<totfact> 0.57059131E+03</totfact>
</mgrwt>
</event>
<event>
 4    1  0.4199484E+000  0.1829886E+03  0.7546771E-02  0.1164942E+00
         21   -1    0    0  501  502  0.00000000000E+00  0.00000000000E+00  0.44482972522E+03  0.44482972522E+03  0.00000000000E+00 0. -1.
         21   -1    0    0  502  503 -0.00000000000E+00 -0.00000000000E+00 -0.88438490172E+02  0.88438490172E+02  0.00000000000E+00 0. -1.
          6    1    1    2  501    0 -0.41788783300E+01  0.59484183396E+02  0.28106127975E+03  0.33538078966E+03  0.17300000000E+03 0. -1.
         -6    1    1    2    0  503  0.41788783300E+01 -0.59484183396E+02  0.75329955304E+02  0.19788742574E+03  0.17300000000E+03 0. -1.
<mgrwt>
<rscale>  2 0.18298861E+03</rscale>
<asrwt>0</asrwt>
<pdfrwt beam="1">  1       21 0.68435341E-01 0.18298861E+03</pdfrwt>
<pdfrwt beam="2">  1       21 0.13605922E-01 0.18298861E+03</pdfrwt>
<totfact> 0.91530174E+04</totfact>
</mgrwt>
</event>
<event>
 4    1  0.4199484E+000  0.2090318E+03  0.7546771E-02  0.1142335E+00
         21   -1    0    0  501  502  0.00000000000E+00  0.00000000000E+00  0.14999703153E+03  0.14999703153E+03  0.00000000000E+00 0. -1.
         21   -1    0    0  502  503 -0.00000000000E+00 -0.00000000000E+00 -0.35180988143E+03  0.35180988143E+03  0.00000000000E+00 0. -1.
          6    1    1    2  501    0 -0.38591815653E+02  0.11079690979E+03  0.31484025421E+01  0.20905548520E+03  0.17300000000E+03 0. -1.
         -6    1    1    2    0  503  0.38591815653E+02 -0.11079690979E+03 -0.20496125243E+03  0.29275142776E+03  0.17300000000E+03 0. -1.
<mgrwt>
<rscale>  2 0.20903178E+03</rscale>
<asrwt>0</asrwt>
<pdfrwt beam="1">  1       21 0.23076467E-01 0.20903178E+03</pdfrwt>
<pdfrwt beam="2">  1       21 0.54124597E-01 0.20903178E+03</pdfrwt>
<totfact> 0.56473249E+04</totfact>
</mgrwt>
</event>
<event>
 4    1  0.4199484E+000  0.2218355E+03  0.7546771E-02  0.1132522E+00
         21   -1    0    0  501  502  0.00000000000E+00  0.00000000000E+00  0.21873453851E+03  0.21873453851E+03  0.00000000000E+00 0. -1.
         21   -1    0    0  502  503 -0.00000000000E+00 -0.00000000000E+00 -0.48320646501E+03  0.48320646501E+03  0.00000000000E+00 0. -1.
          6    1    1    2  501    0 -0.48595397484E+02  0.13007873287E+03  0.12433308680E+03  0.25430239062E+03  0.17300000000E+03 0. -1.
         -6    1    1    2    0  503  0.48595397484E+02 -0.13007873287E+03 -0.38880501329E+03  0.44763861291E+03  0.17300000000E+03 0. -1.
<mgrwt>
<rscale>  2 0.22183550E+03</rscale>
<asrwt>0</asrwt>
<pdfrwt beam="1">  1       21 0.33651468E-01 0.22183550E+03</pdfrwt>
<pdfrwt beam="2">  1       21 0.74339455E-01 0.22183550E+03</pdfrwt>
<totfact> 0.13541772E+04</totfact>
</mgrwt>
</event>
<event>
 4    1  0.4199484E+000  0.1998196E+03  0.7546771E-02  0.1149891E+00
         21   -1    0    0  501  502  0.00000000000E+00  0.00000000000E+00  0.12266374508E+03  0.12266374508E+03  0.00000000000E+00 0.  1.
         21   -1    0    0  502  503 -0.00000000000E+00 -0.00000000000E+00 -0.35255080179E+03  0.35255080179E+03  0.00000000000E+00 0. -1.
          6    1    1    2  501    0  0.11775109253E+02  0.99298611127E+02 -0.49134513819E+02  0.20577188296E+03  0.17300000000E+03 0.  1.
         -6    1    1    2    0  503 -0.11775109253E+02 -0.99298611127E+02 -0.18075254289E+03  0.26944266390E+03  0.17300000000E+03 0. -1.
<mgrwt>
<rscale>  2 0.19981959E+03</rscale>
<asrwt>0</asrwt>
<pdfrwt beam="1">  1       21 0.18871345E-01 0.19981959E+03</pdfrwt>
<pdfrwt beam="2">  1       21 0.54238585E-01 0.19981959E+03</pdfrwt>
<totfact> 0.82373456E+04</totfact>
</mgrwt>
</event>
<event>
 4    1  0.4199484E+000  0.2357154E+03  0.7546771E-02  0.1122680E+00
         21   -1    0    0  501  502  0.00000000000E+00  0.00000000000E+00  0.22366764223E+04  0.22366764223E+04  0.00000000000E+00 0. -1.
         21   -1    0    0  502  503 -0.00000000000E+00 -0.00000000000E+00 -0.77785670695E+02  0.77785670695E+02  0.00000000000E+00 0. -1.
          6    1    1    2  501    0 -0.15752791143E+03 -0.28595358747E+02  0.20341753580E+04  0.20477868845E+04  0.17300000000E+03 0. -1.
         -6    1    1    2    0  503  0.15752791143E+03  0.28595358747E+02  0.12471539368E+03  0.26667520852E+03  0.17300000000E+03 0. -1.
<mgrwt>
<rscale>  2 0.23571537E+03</rscale>
<asrwt>0</asrwt>
<pdfrwt beam="1">  1       21 0.34410402E+00 0.23571537E+03</pdfrwt>
<pdfrwt beam="2">  1       21 0.11967028E-01 0.23571537E+03</pdfrwt>
<totfact> 0.10555707E+03</totfact>
</mgrwt>
</event>
<event>
 4    1  0.4199484E+000  0.1788442E+03  0.7546771E-02  0.1168926E+00
         21   -1    0    0  501  502  0.00000000000E+00  0.00000000000E+00  0.55617654221E+02  0.55617654221E+02  0.00000000000E+00 0. -1.
         21   -1    0    0  502  503 -0.00000000000E+00 -0.00000000000E+00 -0.61573137280E+03  0.61573137280E+03  0.00000000000E+00 0. -1.
          6    1    1    2  501    0 -0.34560146928E+02 -0.29357485298E+02 -0.19381930198E+03  0.26372559132E+03  0.17300000000E+03 0. -1.
         -6    1    1    2    0  503  0.34560146928E+02  0.29357485298E+02 -0.36629441659E+03  0.40762343569E+03  0.17300000000E+03 0. -1.
<mgrwt>
<rscale>  2 0.17884425E+03</rscale>
<asrwt>0</asrwt>
<pdfrwt beam="1">  1       21 0.85565621E-02 0.17884425E+03</pdfrwt>
<pdfrwt beam="2">  1       21 0.94727905E-01 0.17884425E+03</pdfrwt>
<totfact> 0.10008469E+05</totfact>
</mgrwt>
</event>
<event>
 4    1  0.4199484E+000  0.1870444E+03  0.7546771E-02  0.1161154E+00
         21   -1    0    0  501  502  0.00000000000E+00  0.00000000000E+00  0.84484932168E+03  0.84484932168E+03  0.00000000000E+00 0.  1.
         21   -1    0    0  502  503 -0.00000000000E+00 -0.00000000000E+00 -0.45604922431E+02  0.45604922431E+02  0.00000000000E+00 0.  1.
          6    1    1    2  501    0 -0.31185462932E+02  0.63906624126E+02  0.53464729053E+03  0.56642149940E+03  0.17300000000E+03 0.  1.
         -6    1    1    2    0  503  0.31185462932E+02 -0.63906624126E+02  0.26459710871E+03  0.32403274471E+03  0.17300000000E+03 0.  1.
<mgrwt>
<rscale>  2 0.18704435E+03</rscale>
<asrwt>0</asrwt>
<pdfrwt beam="1">  1       21 0.12997681E+00 0.18704435E+03</pdfrwt>
<pdfrwt beam="2">  1       21 0.70161425E-02 0.18704435E+03</pdfrwt>
<totfact> 0.65336180E+04</totfact>
</mgrwt>
</event>
<event>
 4    1  0.4199484E+000  0.1876517E+03  0.7546771E-02  0.1160597E+00
         21   -1    0    0  501  502  0.00000000000E+00  0.00000000000E+00  0.11544273715E+04  0.11544273715E+04  0.00000000000E+00 0.  1.
         21   -1    0    0  502  503 -0.00000000000E+00 -0.00000000000E+00 -0.38940662612E+02  0.38940662612E+02  0.00000000000E+00 0.  1.
          6    1    1    2  501    0 -0.57353179287E+02 -0.44662794000E+02  0.83549812202E+03  0.85631201337E+03  0.17300000000E+03 0.  1.
         -6    1    1    2    0  503  0.57353179287E+02  0.44662794000E+02  0.27998858686E+03  0.33705602074E+03  0.17300000000E+03 0.  1.
<mgrwt>
<rscale>  2 0.18765168E+03</rscale>
<asrwt>0</asrwt>
<pdfrwt beam="1">  1       21 0.17760419E+00 0.18765168E+03</pdfrwt>
<pdfrwt beam="2">  1       21 0.59908720E-02 0.18765168E+03</pdfrwt>
<totfact> 0.37474155E+04</totfact>
</mgrwt>
</event>
<event>
 4    1  0.4199484E+000  0.1916078E+03  0.7546771E-02  0.1157019E+00
         21   -1    0    0  501  502  0.00000000000E+00  0.00000000000E+00  0.93575793932E+03  0.93575793932E+03  0.00000000000E+00 0. -1.
         21   -1    0    0  502  503 -0.00000000000E+00 -0.00000000000E+00 -0.41830582095E+02  0.41830582095E+02  0.00000000000E+00 0.  1.
          6    1    1    2  501    0 -0.30380265732E+02  0.76560922865E+02  0.56874464510E+03  0.60015331940E+03  0.17300000000E+03 0.  1.
         -6    1    1    2    0  503  0.30380265732E+02 -0.76560922865E+02  0.32518271213E+03  0.37743520202E+03  0.17300000000E+03 0.  1.
<mgrwt>
<rscale>  2 0.19160776E+03</rscale>
<asrwt>0</asrwt>
<pdfrwt beam="1">  1       21 0.14396274E+00 0.19160776E+03</pdfrwt>
<pdfrwt beam="2">  1       21 0.64354749E-02 0.19160776E+03</pdfrwt>
<totfact> 0.58230008E+04</totfact>
</mgrwt>
</event>
<event>
 4    1  0.4199484E+000  0.2539383E+03  0.7546771E-02  0.1110841E+00
         21   -1    0    0  501  502  0.00000000000E+00  0.00000000000E+00  0.15201156181E+03  0.15201156181E+03  0.00000000000E+00 0.  1.
         21   -1    0    0  502  503 -0.00000000000E+00 -0.00000000000E+00 -0.48881183403E+03  0.48881183403E+03  0.00000000000E+00 0. -1.
          6    1    1    2  501    0 -0.15296513195E+03  0.10562823408E+03 -0.51916834173E+02  0.25919107450E+03  0.17300000000E+03 0. -1.
         -6    1    1    2    0  503  0.15296513195E+03 -0.10562823408E+03 -0.28488343804E+03  0.38163232135E+03  0.17300000000E+03 0. -1.
<mgrwt>
<rscale>  2 0.25393829E+03</rscale>
<asrwt>0</asrwt>
<pdfrwt beam="1">  1       21 0.23386394E-01 0.25393829E+03</pdfrwt>
<pdfrwt beam="2">  1       21 0.75201822E-01 0.25393829E+03</pdfrwt>
<totfact> 0.26330975E+04</totfact>
</mgrwt>
</event>
<event>
 4    1  0.4199484E+000  0.2908861E+03  0.7546771E-02  0.1089887E+00
         21   -1    0    0  503  502  0.00000000000E+00  0.00000000000E+00  0.17675823670E+03  0.17675823670E+03  0.00000000000E+00 0.  1.
         21   -1    0    0  501  503 -0.00000000000E+00 -0.00000000000E+00 -0.51207928388E+03  0.51207928388E+03  0.00000000000E+00 0. -1.
          6    1    1    2  501    0 -0.35651277884E+02  0.23111624795E+03 -0.79730765275E+02  0.30161519957E+03  0.17300000000E+03 0.  1.
         -6    1    1    2    0  502  0.35651277884E+02 -0.23111624795E+03 -0.25559028191E+03  0.38722232101E+03  0.17300000000E+03 0. -1.
<mgrwt>
<rscale>  2 0.29088612E+03</rscale>
<asrwt>0</asrwt>
<pdfrwt beam="1">  1       21 0.27193575E-01 0.29088612E+03</pdfrwt>
<pdfrwt beam="2">  1       21 0.78781428E-01 0.29088612E+03</pdfrwt>
<totfact> 0.17437646E+04</totfact>
</mgrwt>
</event>
<event>
 4    1  0.4199484E+000  0.2136048E+03  0.7546771E-02  0.1138743E+00
         21   -1    0    0  501  502  0.00000000000E+00  0.00000000000E+00  0.50671830708E+02  0.50671830708E+02  0.00000000000E+00 0.  1.
         21   -1    0    0  502  503 -0.00000000000E+00 -0.00000000000E+00 -0.10738312318E+04  0.10738312318E+04  0.00000000000E+00 0.  1.
          6    1    1    2  501    0 -0.11827416380E+03 -0.41342952135E+02 -0.28564946157E+03  0.35668281765E+03  0.17300000000E+03 0. -1.
         -6    1    1    2    0  503  0.11827416380E+03  0.41342952135E+02 -0.73750993952E+03  0.76782024486E+03  0.17300000000E+03 0. -1.
<mgrwt>
<rscale>  2 0.21360482E+03</rscale>
<asrwt>0</asrwt>
<pdfrwt beam="1">  1       21 0.77956663E-02 0.21360482E+03</pdfrwt>
<pdfrwt beam="2">  1       21 0.16520480E+00 0.21360482E+03</pdfrwt>
<totfact> 0.28580060E+04</totfact>
</mgrwt>
</event>
<event>
 4    1  0.4199484E+000  0.2481495E+03  0.7546771E-02  0.1114480E+00
         21   -1    0    0  503  502  0.00000000000E+00  0.00000000000E+00  0.98402407024E+03  0.98402407024E+03  0.00000000000E+00 0.  1.
         21   -1    0    0  501  503 -0.00000000000E+00 -0.00000000000E+00 -0.62590115711E+02  0.62590115711E+02  0.00000000000E+00 0.  1.
          6    1    1    2  501    0 -0.14664680515E+03 -0.10071694081E+03  0.46801930010E+03  0.52973602189E+03  0.17300000000E+03 0.  1.
         -6    1    1    2    0  502  0.14664680515E+03  0.10071694081E+03  0.45341465443E+03  0.51687816406E+03  0.17300000000E+03 0.  1.
<mgrwt>
<rscale>  2 0.24814953E+03</rscale>
<asrwt>0</asrwt>
<pdfrwt beam="1">  1       21 0.15138831E+00 0.24814953E+03</pdfrwt>
<pdfrwt beam="2">  1       21 0.96292493E-02 0.24814953E+03</pdfrwt>
<totfact> 0.24482971E+04</totfact>
</mgrwt>
</event>
<event>
 4    1  0.4199484E+000  0.1894582E+03  0.7546771E-02  0.1158951E+00
         21   -1    0    0  503  502  0.00000000000E+00  0.00000000000E+00  0.14796764681E+03  0.14796764681E+03  0.00000000000E+00 0.  1.
         21   -1    0    0  501  503 -0.00000000000E+00 -0.00000000000E+00 -0.34645733700E+03  0.34645733700E+03  0.00000000000E+00 0. -1.
          6    1    1    2  501    0  0.76993983682E+02 -0.61109722195E+01 -0.23460782918E+03  0.30155472309E+03  0.17300000000E+03 0. -1.
         -6    1    1    2    0  502 -0.76993983682E+02  0.61109722195E+01  0.36118138993E+02  0.19287026072E+03  0.17300000000E+03 0.  1.
<mgrwt>
<rscale>  2 0.18945822E+03</rscale>
<asrwt>0</asrwt>
<pdfrwt beam="1">  1       21 0.22764254E-01 0.18945822E+03</pdfrwt>
<pdfrwt beam="2">  1       21 0.53301128E-01 0.18945822E+03</pdfrwt>
<totfact> 0.60401888E+04</totfact>
</mgrwt>
</event>
<event>
 4    1  0.4199484E+000  0.1772586E+03  0.7546771E-02  0.1170483E+00
         21   -1    0    0  501  502  0.00000000000E+00  0.00000000000E+00  0.13583162617E+04  0.13583162617E+04  0.00000000000E+00 0. -1.
         21   -1    0    0  502  503 -0.00000000000E+00 -0.00000000000E+00 -0.23705681136E+02  0.23705681136E+02  0.00000000000E+00 0. -1.
          6    1    1    2  501    0 -0.27925943041E+02 -0.26678451378E+02  0.77479989817E+03  0.79481789126E+03  0.17300000000E+03 0. -1.
         -6    1    1    2    0  503  0.27925943041E+02  0.26678451378E+02  0.55981068236E+03  0.58720405154E+03  0.17300000000E+03 0. -1.
<mgrwt>
<rscale>  2 0.17725856E+03</rscale>
<asrwt>0</asrwt>
<pdfrwt beam="1">  1       21 0.20897167E+00 0.17725856E+03</pdfrwt>
<pdfrwt beam="2">  1       21 0.36470289E-02 0.17725856E+03</pdfrwt>
<totfact> 0.54425383E+04</totfact>
</mgrwt>
</event>
<event>
 4    1  0.4199484E+000  0.2816885E+03  0.7546771E-02  0.1094770E+00
         21   -1    0    0  503  502  0.00000000000E+00  0.00000000000E+00  0.11570632047E+04  0.11570632047E+04  0.00000000000E+00 0.  1.
         21   -1    0    0  501  503 -0.00000000000E+00 -0.00000000000E+00 -0.84975261663E+02  0.84975261663E+02  0.00000000000E+00 0. -1.
          6    1    1    2  501    0 -0.22426377676E+02 -0.22117064353E+03  0.26323899230E+03  0.38554268640E+03  0.17300000000E+03 0. -1.
         -6    1    1    2    0  502  0.22426377676E+02  0.22117064353E+03  0.80884895074E+03  0.85649577996E+03  0.17300000000E+03 0.  1.
<mgrwt>
<rscale>  2 0.28168847E+03</rscale>
<asrwt>0</asrwt>
<pdfrwt beam="1">  1       21 0.17800971E+00 0.28168847E+03</pdfrwt>
<pdfrwt beam="2">  1       21 0.13073118E-01 0.28168847E+03</pdfrwt>
<totfact> 0.88861245E+03</totfact>
</mgrwt>
</event>
<event>
 4    1  0.4199484E+000  0.2417841E+03  0.7546771E-02  0.1118610E+00
         21   -1    0    0  501  502  0.00000000000E+00  0.00000000000E+00  0.21619569410E+03  0.21619569410E+03  0.00000000000E+00 0.  1.
         21   -1    0    0  502  503 -0.00000000000E+00 -0.00000000000E+00 -0.27067933703E+03  0.27067933703E+03  0.00000000000E+00 0. -1.
          6    1    1    2  501    0  0.13764203161E+03  0.97904138454E+02 -0.19436640697E+02  0.24256407853E+03  0.17300000000E+03 0.  1.
         -6    1    1    2    0  503 -0.13764203161E+03 -0.97904138454E+02 -0.35047002235E+02  0.24431095259E+03  0.17300000000E+03 0. -1.
<mgrwt>
<rscale>  2 0.24178410E+03</rscale>
<asrwt>0</asrwt>
<pdfrwt beam="1">  1       21 0.33260876E-01 0.24178410E+03</pdfrwt>
<pdfrwt beam="2">  1       21 0.41642975E-01 0.24178410E+03</pdfrwt>
<totfact> 0.47249592E+04</totfact>
</mgrwt>
</event>
<event>
 4    1  0.4199484E+000  0.3003683E+03  0.7546771E-02  0.1085057E+00
         21   -1    0    0  503  502  0.00000000000E+00  0.00000000000E+00  0.43976788395E+03  0.43976788395E+03  0.00000000000E+00 0.  1.
         21   -1    0    0  501  503 -0.00000000000E+00 -0.00000000000E+00 -0.29565911304E+03  0.29565911304E+03  0.00000000000E+00 0.  1.
          6    1    1    2  501    0  0.18295551310E+03  0.16376623885E+03 -0.13138978796E+03  0.32784810071E+03  0.17300000000E+03 0.  1.
         -6    1    1    2    0  502 -0.18295551310E+03 -0.16376623885E+03  0.27549855886E+03  0.40757889628E+03  0.17300000000E+03 0.  1.
<mgrwt>
<rscale>  2 0.30036828E+03</rscale>
<asrwt>0</asrwt>
<pdfrwt beam="1">  1       21 0.67656598E-01 0.30036828E+03</pdfrwt>
<pdfrwt beam="2">  1       21 0.45486017E-01 0.30036828E+03</pdfrwt>
<totfact> 0.86985656E+03</totfact>
</mgrwt>
</event>
<event>
 4    1  0.4199484E+000  0.1821604E+03  0.7546771E-02  0.1165728E+00
         21   -1    0    0  501  502  0.00000000000E+00  0.00000000000E+00  0.17544444370E+03  0.17544444370E+03  0.00000000000E+00 0. -1.
         21   -1    0    0  502  503 -0.00000000000E+00 -0.00000000000E+00 -0.19080802315E+03  0.19080802315E+03  0.00000000000E+00 0. -1.
          6    1    1    2  501    0  0.44700398771E+02 -0.35429927946E+02  0.94739652386E+01  0.18240658284E+03  0.17300000000E+03 0. -1.
         -6    1    1    2    0  503 -0.44700398771E+02  0.35429927946E+02 -0.24837544685E+02  0.18384588402E+03  0.17300000000E+03 0. -1.
<mgrwt>
<rscale>  2 0.18216038E+03</rscale>
<asrwt>0</asrwt>
<pdfrwt beam="1">  1       21 0.26991453E-01 0.18216038E+03</pdfrwt>
<pdfrwt beam="2">  1       21 0.29355081E-01 0.18216038E+03</pdfrwt>
<totfact> 0.14586912E+05</totfact>
</mgrwt>
</event>
<event>
 4    1  0.4199484E+000  0.3509022E+03  0.7546771E-02  0.1062245E+00
         21   -1    0    0  503  502  0.00000000000E+00  0.00000000000E+00  0.60492714622E+02  0.60492714622E+02  0.00000000000E+00 0. -1.
         21   -1    0    0  501  503 -0.00000000000E+00 -0.00000000000E+00 -0.20818827109E+04  0.20818827109E+04  0.00000000000E+00 0.  1.
          6    1    1    2  501    0  0.45233351915E+02  0.30192264368E+03 -0.11705994419E+04  0.12220619429E+04  0.17300000000E+03 0.  1.
         -6    1    1    2    0  502 -0.45233351915E+02 -0.30192264368E+03 -0.85079055437E+03  0.92031348262E+03  0.17300000000E+03 0. -1.
<mgrwt>
<rscale>  2 0.35090218E+03</rscale>
<asrwt>0</asrwt>
<pdfrwt beam="1">  1       21 0.93065722E-02 0.35090218E+03</pdfrwt>
<pdfrwt beam="2">  1       21 0.32028962E+00 0.35090218E+03</pdfrwt>
<totfact> 0.20689097E+03</totfact>
</mgrwt>
</event>
<event>
 4    1  0.4199484E+000  0.1853007E+03  0.7546771E-02  0.1162769E+00
         21   -1    0    0  503  502  0.00000000000E+00  0.00000000000E+00  0.34895592815E+02  0.34895592815E+02  0.00000000000E+00 0.  1.
         21   -1    0    0  501  503 -0.00000000000E+00 -0.00000000000E+00 -0.98412206310E+03  0.98412206310E+03  0.00000000000E+00 0.  1.
          6    1    1    2  501    0 -0.19189352057E+02  0.63554099533E+02 -0.48086356541E+03  0.51533108128E+03  0.17300000000E+03 0.  1.
         -6    1    1    2    0  502  0.19189352057E+02 -0.63554099533E+02 -0.46836290487E+03  0.50368657463E+03  0.17300000000E+03 0.  1.
<mgrwt>
<rscale>  2 0.18530071E+03</rscale>
<asrwt>0</asrwt>
<pdfrwt beam="1">  1       21 0.53685529E-02 0.18530071E+03</pdfrwt>
<pdfrwt beam="2">  1       21 0.15140339E+00 0.18530071E+03</pdfrwt>
<totfact> 0.69791571E+04</totfact>
</mgrwt>
</event>
<event>
 4    1  0.4199484E+000  0.2300024E+03  0.7546771E-02  0.1126638E+00
         21   -1    0    0  501  502  0.00000000000E+00  0.00000000000E+00  0.40249431600E+03  0.40249431600E+03  0.00000000000E+00 0. -1.
         21   -1    0    0  502  503 -0.00000000000E+00 -0.00000000000E+00 -0.16401082015E+03  0.16401082015E+03  0.00000000000E+00 0.  1.
          6    1    1    2  501    0 -0.92426832423E+02  0.12012242278E+03  0.24548183504E+03  0.33639626505E+03  0.17300000000E+03 0. -1.
         -6    1    1    2    0  503  0.92426832423E+02 -0.12012242278E+03 -0.69983391955E+01  0.23010887110E+03  0.17300000000E+03 0.  1.
<mgrwt>
<rscale>  2 0.23000243E+03</rscale>
<asrwt>0</asrwt>
<pdfrwt beam="1">  1       21 0.61922202E-01 0.23000243E+03</pdfrwt>
<pdfrwt beam="2">  1       21 0.25232434E-01 0.23000243E+03</pdfrwt>
<totfact> 0.35353879E+04</totfact>
</mgrwt>
</event>
<event>
 4    1  0.4199484E+000  0.2160873E+03  0.7546771E-02  0.1136834E+00
         21   -1    0    0  501  502  0.00000000000E+00  0.00000000000E+00  0.41430927543E+03  0.41430927543E+03  0.00000000000E+00 0. -1.
         21   -1    0    0  502  503 -0.00000000000E+00 -0.00000000000E+00 -0.12564976063E+03  0.12564976063E+03  0.00000000000E+00 0. -1.
          6    1    1    2  501    0  0.32844445232E+02 -0.12524353117E+03  0.23099372811E+03  0.31630966174E+03  0.17300000000E+03 0. -1.
         -6    1    1    2    0  503 -0.32844445232E+02  0.12524353117E+03  0.57665786691E+02  0.22364937433E+03  0.17300000000E+03 0. -1.
<mgrwt>
<rscale>  2 0.21608725E+03</rscale>
<asrwt>0</asrwt>
<pdfrwt beam="1">  1       21 0.63739888E-01 0.21608725E+03</pdfrwt>
<pdfrwt beam="2">  1       21 0.19330733E-01 0.21608725E+03</pdfrwt>
<totfact> 0.55322642E+04</totfact>
</mgrwt>
</event>
<event>
 4    1  0.4199484E+000  0.2368629E+03  0.7546771E-02  0.1121900E+00
         21   -1    0    0  501  502  0.00000000000E+00  0.00000000000E+00  0.14349578142E+04  0.14349578142E+04  0.00000000000E+00 0. -1.
         21   -1    0    0  502  503 -0.00000000000E+00 -0.00000000000E+00 -0.45280118715E+02  0.45280118715E+02  0.00000000000E+00 0. -1.
          6    1    1    2  501    0 -0.15537768235E+03 -0.45086767045E+02  0.96831216209E+03  0.99686131632E+03  0.17300000000E+03 0. -1.
         -6    1    1    2    0  503  0.15537768235E+03  0.45086767045E+02  0.42136553340E+03  0.48337661660E+03  0.17300000000E+03 0. -1.
<mgrwt>
<rscale>  2 0.23686292E+03</rscale>
<asrwt>0</asrwt>
<pdfrwt beam="1">  1       21 0.22076271E+00 0.23686292E+03</pdfrwt>
<pdfrwt beam="2">  1       21 0.69661732E-02 0.23686292E+03</pdfrwt>
<totfact> 0.14665991E+04</totfact>
</mgrwt>
</event>
<event>
 4    1  0.4199484E+000  0.1756171E+03  0.7546771E-02  0.1172114E+00
         21   -1    0    0  501  502  0.00000000000E+00  0.00000000000E+00  0.10529556773E+03  0.10529556773E+03  0.00000000000E+00 0.  1.
         21   -1    0    0  502  503 -0.00000000000E+00 -0.00000000000E+00 -0.83905303318E+03  0.83905303318E+03  0.00000000000E+00 0.  1.
          6    1    1    2  501    0  0.29768139670E+02  0.51202631410E+01  0.14067540539E+02  0.17617960986E+03  0.17300000000E+03 0.  1.
         -6    1    1    2    0  503 -0.29768139670E+02 -0.51202631410E+01 -0.74782500598E+03  0.76816899105E+03  0.17300000000E+03 0.  1.
<mgrwt>
<rscale>  2 0.17561708E+03</rscale>
<asrwt>0</asrwt>
<pdfrwt beam="1">  1       21 0.16199319E-01 0.17561708E+03</pdfrwt>
<pdfrwt beam="2">  1       21 0.12908508E+00 0.17561708E+03</pdfrwt>
<totfact> 0.15176418E+04</totfact>
</mgrwt>
</event>
<event>
 4    1  0.4199484E+000  0.2409091E+03  0.7546771E-02  0.1119189E+00
         21   -1    0    0  501  502  0.00000000000E+00  0.00000000000E+00  0.12935785793E+04  0.12935785793E+04  0.00000000000E+00 0.  1.
         21   -1    0    0  502  503 -0.00000000000E+00 -0.00000000000E+00 -0.26015420373E+03  0.26015420373E+03  0.00000000000E+00 0.  1.
          6    1    1    2  501    0 -0.16195559222E+03 -0.43342857570E+02  0.12234224544E+04  0.12469160835E+04  0.17300000000E+03 0.  1.
         -6    1    1    2    0  503  0.16195559222E+03  0.43342857570E+02 -0.18999807887E+03  0.30681669956E+03  0.17300000000E+03 0.  1.
<mgrwt>
<rscale>  2 0.24090915E+03</rscale>
<asrwt>0</asrwt>
<pdfrwt beam="1">  1       21 0.19901209E+00 0.24090915E+03</pdfrwt>
<pdfrwt beam="2">  1       21 0.40023724E-01 0.24090915E+03</pdfrwt>
<totfact> 0.77921661E+02</totfact>
</mgrwt>
</event>
<event>
 4    1  0.4199484E+000  0.2160824E+03  0.7546771E-02  0.1136838E+00
         21   -1    0    0  501  502  0.00000000000E+00  0.00000000000E+00  0.49639331691E+02  0.49639331691E+02  0.00000000000E+00 0. -1.
         21   -1    0    0  502  503 -0.00000000000E+00 -0.00000000000E+00 -0.98724766910E+03  0.98724766910E+03  0.00000000000E+00 0. -1.
          6    1    1    2  501    0  0.12159060656E+03 -0.44478597393E+02 -0.35613057716E+03  0.41655805024E+03  0.17300000000E+03 0. -1.
         -6    1    1    2    0  503 -0.12159060656E+03  0.44478597393E+02 -0.58147776025E+03  0.62032895055E+03  0.17300000000E+03 0. -1.
<mgrwt>
<rscale>  2 0.21608244E+03</rscale>
<asrwt>0</asrwt>
<pdfrwt beam="1">  1       21 0.76368211E-02 0.21608244E+03</pdfrwt>
<pdfrwt beam="2">  1       21 0.15188424E+00 0.21608244E+03</pdfrwt>
<totfact> 0.37108860E+04</totfact>
</mgrwt>
</event>
<event>
 4    1  0.4199484E+000  0.2231665E+03  0.7546771E-02  0.1131544E+00
         21   -1    0    0  501  502  0.00000000000E+00  0.00000000000E+00  0.65481643957E+03  0.65481643957E+03  0.00000000000E+00 0.  1.
         21   -1    0    0  502  503 -0.00000000000E+00 -0.00000000000E+00 -0.13750826432E+03  0.13750826432E+03  0.00000000000E+00 0.  1.
          6    1    1    2  501    0 -0.60239166372E+02 -0.12745796714E+03  0.52348865015E+03  0.56907262927E+03  0.17300000000E+03 0.  1.
         -6    1    1    2    0  503  0.60239166372E+02  0.12745796714E+03 -0.61804748895E+01  0.22325207462E+03  0.17300000000E+03 0.  1.
<mgrwt>
<rscale>  2 0.22316651E+03</rscale>
<asrwt>0</asrwt>
<pdfrwt beam="1">  1       21 0.10074099E+00 0.22316651E+03</pdfrwt>
<pdfrwt beam="2">  1       21 0.21155118E-01 0.22316651E+03</pdfrwt>
<totfact> 0.16447058E+04</totfact>
</mgrwt>
</event>
<event>
 4    1  0.4199484E+000  0.1881041E+03  0.7546771E-02  0.1160183E+00
         21   -1    0    0  503  502  0.00000000000E+00  0.00000000000E+00  0.35058364862E+02  0.35058364862E+02  0.00000000000E+00 0. -1.
         21   -1    0    0  501  503 -0.00000000000E+00 -0.00000000000E+00 -0.10213236649E+04  0.10213236649E+04  0.00000000000E+00 0.  1.
          6    1    1    2  501    0 -0.37037664710E+02  0.63893314296E+02 -0.43573717987E+03  0.47460513497E+03  0.17300000000E+03 0.  1.
         -6    1    1    2    0  502  0.37037664710E+02 -0.63893314296E+02 -0.55052812017E+03  0.58177689479E+03  0.17300000000E+03 0.  1.
<mgrwt>
<rscale>  2 0.18810408E+03</rscale>
<asrwt>0</asrwt>
<pdfrwt beam="1">  1       21 0.53935946E-02 0.18810408E+03</pdfrwt>
<pdfrwt beam="2">  1       21 0.15712672E+00 0.18810408E+03</pdfrwt>
<totfact> 0.62653684E+04</totfact>
</mgrwt>
</event>
<event>
 4    1  0.4199484E+000  0.1874108E+03  0.7546771E-02  0.1160818E+00
         21   -1    0    0  501  502  0.00000000000E+00  0.00000000000E+00  0.30019896591E+03  0.30019896591E+03  0.00000000000E+00 0. -1.
         21   -1    0    0  502  503 -0.00000000000E+00 -0.00000000000E+00 -0.20824720405E+03  0.20824720405E+03  0.00000000000E+00 0. -1.
          6    1    1    2  501    0  0.34482809588E+02  0.63282987921E+02  0.21425838642E+03  0.28465673516E+03  0.17300000000E+03 0. -1.
         -6    1    1    2    0  503 -0.34482809588E+02 -0.63282987921E+02 -0.12230662457E+03  0.22378943481E+03  0.17300000000E+03 0. -1.
<mgrwt>
<rscale>  2 0.18741078E+03</rscale>
<asrwt>0</asrwt>
<pdfrwt beam="1">  1       21 0.46184456E-01 0.18741078E+03</pdfrwt>
<pdfrwt beam="2">  1       21 0.32038031E-01 0.18741078E+03</pdfrwt>
<totfact> 0.42200393E+04</totfact>
</mgrwt>
</event>
<event>
 4    1  0.4199484E+000  0.2568892E+03  0.7546771E-02  0.1109027E+00
         21   -1    0    0  503  502  0.00000000000E+00  0.00000000000E+00  0.97179276650E+02  0.97179276650E+02  0.00000000000E+00 0.  1.
         21   -1    0    0  501  503 -0.00000000000E+00 -0.00000000000E+00 -0.68022257476E+03  0.68022257476E+03  0.00000000000E+00 0.  1.
          6    1    1    2  501    0 -0.17758082954E+03  0.67291154895E+02 -0.27555860247E+03  0.37672880690E+03  0.17300000000E+03 0.  1.
         -6    1    1    2    0  502  0.17758082954E+03 -0.67291154895E+02 -0.30748469564E+03  0.40067304451E+03  0.17300000000E+03 0.  1.
<mgrwt>
<rscale>  2 0.25688918E+03</rscale>
<asrwt>0</asrwt>
<pdfrwt beam="1">  1       21 0.14950658E-01 0.25688918E+03</pdfrwt>
<pdfrwt beam="2">  1       21 0.10464962E+00 0.25688918E+03</pdfrwt>
<totfact> 0.28104013E+04</totfact>
</mgrwt>
</event>
<event>
 4    1  0.4199484E+000  0.2954999E+03  0.7546771E-02  0.1087512E+00
         21   -1    0    0  503  502  0.00000000000E+00  0.00000000000E+00  0.18881685526E+03  0.18881685526E+03  0.00000000000E+00 0.  1.
         21   -1    0    0  501  503 -0.00000000000E+00 -0.00000000000E+00 -0.97126849102E+03  0.97126849102E+03  0.00000000000E+00 0.  1.
          6    1    1    2  501    0  0.69869468007E+02 -0.22914937823E+03 -0.81105015638E+03  0.86320480552E+03  0.17300000000E+03 0.  1.
         -6    1    1    2    0  502 -0.69869468007E+02  0.22914937823E+03  0.28598520620E+02  0.29688054076E+03  0.17300000000E+03 0.  1.
<mgrwt>
<rscale>  2 0.29549988E+03</rscale>
<asrwt>0</asrwt>
<pdfrwt beam="1">  1       21 0.29048747E-01 0.29549988E+03</pdfrwt>
<pdfrwt beam="2">  1       21 0.14942592E+00 0.29549988E+03</pdfrwt>
<totfact> 0.31771174E+03</totfact>
</mgrwt>
</event>
<event>
 4    1  0.4199484E+000  0.2028981E+03  0.7546771E-02  0.1147317E+00
         21   -1    0    0  501  502  0.00000000000E+00  0.00000000000E+00  0.60573637977E+02  0.60573637977E+02  0.00000000000E+00 0.  1.
         21   -1    0    0  502  503 -0.00000000000E+00 -0.00000000000E+00 -0.81109534049E+03  0.81109534049E+03  0.00000000000E+00 0.  1.
          6    1    1    2  501    0 -0.22970951558E+02  0.10349376373E+03 -0.19979512097E+03  0.28475553394E+03  0.17300000000E+03 0.  1.
         -6    1    1    2    0  503  0.22970951558E+02 -0.10349376373E+03 -0.55072658155E+03  0.58691344453E+03  0.17300000000E+03 0.  1.
<mgrwt>
<rscale>  2 0.20289806E+03</rscale>
<asrwt>0</asrwt>
<pdfrwt beam="1">  1       21 0.93190218E-02 0.20289806E+03</pdfrwt>
<pdfrwt beam="2">  1       21 0.12478389E+00 0.20289806E+03</pdfrwt>
<totfact> 0.43773530E+04</totfact>
</mgrwt>
</event>
<event>
 4    1  0.4199484E+000  0.2084199E+03  0.7546771E-02  0.1142823E+00
         21   -1    0    0  503  502  0.00000000000E+00  0.00000000000E+00  0.35965660013E+02  0.35965660013E+02  0.00000000000E+00 0. -1.
         21   -1    0    0  501  503 -0.00000000000E+00 -0.00000000000E+00 -0.13420557295E+04  0.13420557295E+04  0.00000000000E+00 0.  1.
          6    1    1    2  501    0  0.97797199718E+02 -0.62813798169E+02 -0.87098040833E+03  0.89557006270E+03  0.17300000000E+03 0.  1.
         -6    1    1    2    0  502 -0.97797199718E+02  0.62813798169E+02 -0.43510966119E+03  0.48245132685E+03  0.17300000000E+03 0. -1.
<mgrwt>
<rscale>  2 0.20841993E+03</rscale>
<asrwt>0</asrwt>
<pdfrwt beam="1">  1       21 0.55331789E-02 0.20841993E+03</pdfrwt>
<pdfrwt beam="2">  1       21 0.20647010E+00 0.20841993E+03</pdfrwt>
<totfact> 0.27337238E+04</totfact>
</mgrwt>
</event>
<event>
 4    1  0.4199484E+000  0.2124030E+03  0.7546771E-02  0.1139677E+00
         21   -1    0    0  501  502  0.00000000000E+00  0.00000000000E+00  0.95740660266E+03  0.95740660266E+03  0.00000000000E+00 0.  1.
         21   -1    0    0  502  503 -0.00000000000E+00 -0.00000000000E+00 -0.51777567976E+02  0.51777567976E+02  0.00000000000E+00 0.  1.
          6    1    1    2  501    0 -0.30811962835E+02 -0.11931738806E+03  0.60411871144E+03  0.64037054403E+03  0.17300000000E+03 0.  1.
         -6    1    1    2    0  503  0.30811962835E+02  0.11931738806E+03  0.30151032324E+03  0.36881362660E+03  0.17300000000E+03 0.  1.
<mgrwt>
<rscale>  2 0.21240296E+03</rscale>
<asrwt>0</asrwt>
<pdfrwt beam="1">  1       21 0.14729331E+00 0.21240296E+03</pdfrwt>
<pdfrwt beam="2">  1       21 0.79657804E-02 0.21240296E+03</pdfrwt>
<totfact> 0.37469243E+04</totfact>
</mgrwt>
</event>
<event>
 4    1  0.4199484E+000  0.1898400E+03  0.7546771E-02  0.1158606E+00
         21   -1    0    0  501  502  0.00000000000E+00  0.00000000000E+00  0.20318461676E+02  0.20318461676E+02  0.00000000000E+00 0. -1.
         21   -1    0    0  502  503 -0.00000000000E+00 -0.00000000000E+00 -0.17809268207E+04  0.17809268207E+04  0.00000000000E+00 0.  1.
          6    1    1    2  501    0 -0.69003700477E+02 -0.36725109544E+02 -0.82300906101E+03  0.84462012696E+03  0.17300000000E+03 0. -1.
         -6    1    1    2    0  503  0.69003700477E+02  0.36725109544E+02 -0.93759929800E+03  0.95662515541E+03  0.17300000000E+03 0. -1.
<mgrwt>
<rscale>  2 0.18984005E+03</rscale>
<asrwt>0</asrwt>
<pdfrwt beam="1">  1       21 0.31259171E-02 0.18984005E+03</pdfrwt>
<pdfrwt beam="2">  1       21 0.27398875E+00 0.18984005E+03</pdfrwt>
<totfact> 0.28563724E+04</totfact>
</mgrwt>
</event>
<event>
 4    1  0.4199484E+000  0.1989441E+03  0.7546771E-02  0.1150633E+00
         21   -1    0    0  503  502  0.00000000000E+00  0.00000000000E+00  0.10468318073E+04  0.10468318073E+04  0.00000000000E+00 0. -1.
         21   -1    0    0  501  503 -0.00000000000E+00 -0.00000000000E+00 -0.64900563611E+02  0.64900563611E+02  0.00000000000E+00 0. -1.
          6    1    1    2  501    0  0.46493274864E+02 -0.86533946446E+02  0.13182042265E+03  0.23865324704E+03  0.17300000000E+03 0. -1.
         -6    1    1    2    0  502 -0.46493274864E+02  0.86533946446E+02  0.85011082106E+03  0.87307912389E+03  0.17300000000E+03 0. -1.
<mgrwt>
<rscale>  2 0.19894408E+03</rscale>
<asrwt>0</asrwt>
<pdfrwt beam="1">  1       21 0.16105104E+00 0.19894408E+03</pdfrwt>
<pdfrwt beam="2">  1       21 0.99847028E-02 0.19894408E+03</pdfrwt>
<totfact> 0.20032799E+04</totfact>
</mgrwt>
</event>
<event>
 4    1  0.4199484E+000  0.1848294E+03  0.7546771E-02  0.1163209E+00
         21   -1    0    0  501  502  0.00000000000E+00  0.00000000000E+00  0.35393965307E+02  0.35393965307E+02  0.00000000000E+00 0. -1.
         21   -1    0    0  502  503 -0.00000000000E+00 -0.00000000000E+00 -0.10753400440E+04  0.10753400440E+04  0.00000000000E+00 0. -1.
          6    1    1    2  501    0  0.58680696747E+02  0.28097467774E+02 -0.34222695927E+03  0.38894881864E+03  0.17300000000E+03 0. -1.
         -6    1    1    2    0  503 -0.58680696747E+02 -0.28097467774E+02 -0.69771911944E+03  0.72178519069E+03  0.17300000000E+03 0. -1.
<mgrwt>
<rscale>  2 0.18482936E+03</rscale>
<asrwt>0</asrwt>
<pdfrwt beam="1">  1       21 0.54452251E-02 0.18482936E+03</pdfrwt>
<pdfrwt beam="2">  1       21 0.16543694E+00 0.18482936E+03</pdfrwt>
<totfact> 0.53736178E+04</totfact>
</mgrwt>
</event>
<event>
 4    1  0.4199484E+000  0.1789544E+03  0.7546771E-02  0.1168819E+00
         21   -1    0    0  503  502  0.00000000000E+00  0.00000000000E+00  0.43682461532E+02  0.43682461532E+02  0.00000000000E+00 0.  1.
         21   -1    0    0  501  503 -0.00000000000E+00 -0.00000000000E+00 -0.89254876501E+03  0.89254876501E+03  0.00000000000E+00 0.  1.
          6    1    1    2  501    0 -0.44332873772E+02 -0.11414490671E+02 -0.62227310569E+03  0.64749402496E+03  0.17300000000E+03 0. -1.
         -6    1    1    2    0  502  0.44332873772E+02  0.11414490671E+02 -0.22659319779E+03  0.28873720159E+03  0.17300000000E+03 0. -1.
<mgrwt>
<rscale>  2 0.17895445E+03</rscale>
<asrwt>0</asrwt>
<pdfrwt beam="1">  1       21 0.67203791E-02 0.17895445E+03</pdfrwt>
<pdfrwt beam="2">  1       21 0.13731519E+00 0.17895445E+03</pdfrwt>
<totfact> 0.61477790E+04</totfact>
</mgrwt>
</event>
<event>
 4    1  0.4199484E+000  0.2493780E+03  0.7546771E-02  0.1113699E+00
         21   -1    0    0  503  502  0.00000000000E+00  0.00000000000E+00  0.64914235404E+02  0.64914235404E+02  0.00000000000E+00 0. -1.
         21   -1    0    0  501  503 -0.00000000000E+00 -0.00000000000E+00 -0.13870010006E+04  0.13870010006E+04  0.00000000000E+00 0.  1.
          6    1    1    2  501    0  0.92645847931E+02  0.15387373411E+03 -0.10647724427E+04  0.10935857232E+04  0.17300000000E+03 0.  1.
         -6    1    1    2    0  502 -0.92645847931E+02 -0.15387373411E+03 -0.25731432241E+03  0.35832951274E+03  0.17300000000E+03 0. -1.
<mgrwt>
<rscale>  2 0.24937798E+03</rscale>
<asrwt>0</asrwt>
<pdfrwt beam="1">  1       21 0.99868063E-02 0.24937798E+03</pdfrwt>
<pdfrwt beam="2">  1       21 0.21338475E+00 0.24937798E+03</pdfrwt>
<totfact> 0.85924175E+03</totfact>
</mgrwt>
</event>
<event>
 4    1  0.4199484E+000  0.4560315E+03  0.7546771E-02  0.1025938E+00
         21   -1    0    0  503  502  0.00000000000E+00  0.00000000000E+00  0.44805842797E+03  0.44805842797E+03  0.00000000000E+00 0.  1.
         21   -1    0    0  501  503 -0.00000000000E+00 -0.00000000000E+00 -0.88252281600E+03  0.88252281600E+03  0.00000000000E+00 0. -1.
          6    1    1    2  501    0  0.33031994615E+03  0.26253475389E+03 -0.67530231192E+03  0.81486070976E+03  0.17300000000E+03 0. -1.
         -6    1    1    2    0  502 -0.33031994615E+03 -0.26253475389E+03  0.24083792390E+03  0.51572053421E+03  0.17300000000E+03 0.  1.
<mgrwt>
<rscale>  2 0.45603154E+03</rscale>
<asrwt>0</asrwt>
<pdfrwt beam="1">  1       21 0.68932067E-01 0.45603154E+03</pdfrwt>
<pdfrwt beam="2">  1       21 0.13577274E+00 0.45603154E+03</pdfrwt>
<totfact> 0.62070265E+02</totfact>
</mgrwt>
</event>
<event>
 4    1  0.4199484E+000  0.2525533E+03  0.7546771E-02  0.1111702E+00
         21   -1    0    0  501  502  0.00000000000E+00  0.00000000000E+00  0.13362488759E+03  0.13362488759E+03  0.00000000000E+00 0. -1.
         21   -1    0    0  502  503 -0.00000000000E+00 -0.00000000000E+00 -0.52624212711E+03  0.52624212711E+03  0.00000000000E+00 0.  1.
          6    1    1    2  501    0 -0.16013578451E+03  0.90612987144E+02 -0.95721729012E+02  0.27008486134E+03  0.17300000000E+03 0. -1.
         -6    1    1    2    0  503  0.16013578451E+03 -0.90612987144E+02 -0.29689551051E+03  0.38978215336E+03  0.17300000000E+03 0.  1.
<mgrwt>
<rscale>  2 0.25255333E+03</rscale>
<asrwt>0</asrwt>
<pdfrwt beam="1">  1       21 0.20557675E-01 0.25255333E+03</pdfrwt>
<pdfrwt beam="2">  1       21 0.80960327E-01 0.25255333E+03</pdfrwt>
<totfact> 0.28465063E+04</totfact>
</mgrwt>
</event>
<event>
 4    1  0.4199484E+000  0.1949413E+03  0.7546771E-02  0.1154079E+00
         21   -1    0    0  503  502  0.00000000000E+00  0.00000000000E+00  0.45547525096E+02  0.45547525096E+02  0.00000000000E+00 0.  1.
         21   -1    0    0  501  503 -0.00000000000E+00 -0.00000000000E+00 -0.97865710739E+03  0.97865710739E+03  0.00000000000E+00 0.  1.
          6    1    1    2  501    0 -0.39576062765E+02  0.80665100973E+02 -0.66320768062E+03  0.69126445800E+03  0.17300000000E+03 0.  1.
         -6    1    1    2    0  502  0.39576062765E+02 -0.80665100973E+02 -0.26990190167E+03  0.33294017448E+03  0.17300000000E+03 0.  1.
<mgrwt>
<rscale>  2 0.19494133E+03</rscale>
<asrwt>0</asrwt>
<pdfrwt beam="1">  1       21 0.70073117E-02 0.19494133E+03</pdfrwt>
<pdfrwt beam="2">  1       21 0.15056263E+00 0.19494133E+03</pdfrwt>
<totfact> 0.44630981E+04</totfact>
</mgrwt>
</event>
<event>
 4    1  0.4199484E+000  0.3021282E+03  0.7546771E-02  0.1084182E+00
         21   -1    0    0  503  502  0.00000000000E+00  0.00000000000E+00  0.13386862855E+04  0.13386862855E+04  0.00000000000E+00 0. -1.
         21   -1    0    0  501  503 -0.00000000000E+00 -0.00000000000E+00 -0.80886353250E+02  0.80886353250E+02  0.00000000000E+00 0.  1.
          6    1    1    2  501    0  0.24753528646E+03 -0.88730960789E+01  0.34766127091E+03  0.46059723096E+03  0.17300000000E+03 0.  1.
         -6    1    1    2    0  502 -0.24753528646E+03  0.88730960789E+01  0.91013866132E+03  0.95897540777E+03  0.17300000000E+03 0. -1.
<mgrwt>
<rscale>  2 0.30212820E+03</rscale>
<asrwt>0</asrwt>
<pdfrwt beam="1">  1       21 0.20595172E+00 0.30212820E+03</pdfrwt>
<pdfrwt beam="2">  1       21 0.12444055E-01 0.30212820E+03</pdfrwt>
<totfact> 0.62443954E+03</totfact>
</mgrwt>
</event>
<event>
 4    1  0.4199484E+000  0.2238766E+03  0.7546771E-02  0.1131025E+00
         21   -1    0    0  501  502  0.00000000000E+00  0.00000000000E+00  0.21275633496E+03  0.21275633496E+03  0.00000000000E+00 0.  1.
         21   -1    0    0  502  503 -0.00000000000E+00 -0.00000000000E+00 -0.37879292488E+03  0.37879292488E+03  0.00000000000E+00 0.  1.
          6    1    1    2  501    0 -0.11904602709E+03 -0.77587077844E+02  0.98848802152E+02  0.24472800596E+03  0.17300000000E+03 0.  1.
         -6    1    1    2    0  503  0.11904602709E+03  0.77587077844E+02 -0.26488539207E+03  0.34682125388E+03  0.17300000000E+03 0.  1.
<mgrwt>
<rscale>  2 0.22387655E+03</rscale>
<asrwt>0</asrwt>
<pdfrwt beam="1">  1       21 0.32731744E-01 0.22387655E+03</pdfrwt>
<pdfrwt beam="2">  1       21 0.58275834E-01 0.22387655E+03</pdfrwt>
<totfact> 0.24353160E+04</totfact>
</mgrwt>
</event>
<event>
 4    1  0.4199484E+000  0.2495107E+03  0.7546771E-02  0.1113614E+00
         21   -1    0    0  501  502  0.00000000000E+00  0.00000000000E+00  0.29529813180E+03  0.29529813180E+03  0.00000000000E+00 0. -1.
         21   -1    0    0  502  503 -0.00000000000E+00 -0.00000000000E+00 -0.23024820958E+03  0.23024820958E+03  0.00000000000E+00 0.  1.
          6    1    1    2  501    0  0.48174941891E+02  0.17322170298E+03  0.10885013724E+03  0.27222038092E+03  0.17300000000E+03 0. -1.
         -6    1    1    2    0  503 -0.48174941891E+02 -0.17322170298E+03 -0.43800215013E+02  0.25332596046E+03  0.17300000000E+03 0.  1.
<mgrwt>
<rscale>  2 0.24951069E+03</rscale>
<asrwt>0</asrwt>
<pdfrwt beam="1">  1       21 0.45430482E-01 0.24951069E+03</pdfrwt>
<pdfrwt beam="2">  1       21 0.35422801E-01 0.24951069E+03</pdfrwt>
<totfact> 0.34736027E+04</totfact>
</mgrwt>
</event>
<event>
 4    1  0.4199484E+000  0.2299828E+03  0.7546771E-02  0.1126652E+00
         21   -1    0    0  503  502  0.00000000000E+00  0.00000000000E+00  0.39703149970E+03  0.39703149970E+03  0.00000000000E+00 0. -1.
         21   -1    0    0  501  503 -0.00000000000E+00 -0.00000000000E+00 -0.16535405030E+03  0.16535405030E+03  0.00000000000E+00 0.  1.
          6    1    1    2  501    0 -0.11402390485E+03  0.99808086787E+02 -0.81227729913E+01  0.23012623602E+03  0.17300000000E+03 0.  1.
         -6    1    1    2    0  502  0.11402390485E+03 -0.99808086787E+02  0.23980022239E+03  0.33225931398E+03  0.17300000000E+03 0. -1.
<mgrwt>
<rscale>  2 0.22998284E+03</rscale>
<asrwt>0</asrwt>
<pdfrwt beam="1">  1       21 0.61081769E-01 0.22998284E+03</pdfrwt>
<pdfrwt beam="2">  1       21 0.25439085E-01 0.22998284E+03</pdfrwt>
<totfact> 0.35850461E+04</totfact>
</mgrwt>
</event>
<event>
 4    1  0.4199484E+000  0.1756610E+03  0.7546771E-02  0.1172070E+00
         21   -1    0    0  501  502  0.00000000000E+00  0.00000000000E+00  0.10283631708E+03  0.10283631708E+03  0.00000000000E+00 0.  1.
         21   -1    0    0  502  503 -0.00000000000E+00 -0.00000000000E+00 -0.33011136195E+03  0.33011136195E+03  0.00000000000E+00 0.  1.
          6    1    1    2  501    0 -0.27888095475E+02 -0.12248990935E+02 -0.48320398500E+02  0.18218574192E+03  0.17300000000E+03 0. -1.
         -6    1    1    2    0  503  0.27888095475E+02  0.12248990935E+02 -0.17895464637E+03  0.25076193712E+03  0.17300000000E+03 0. -1.
<mgrwt>
<rscale>  2 0.17566099E+03</rscale>
<asrwt>0</asrwt>
<pdfrwt beam="1">  1       21 0.15820972E-01 0.17566099E+03</pdfrwt>
<pdfrwt beam="2">  1       21 0.50786363E-01 0.17566099E+03</pdfrwt>
<totfact> 0.13205189E+05</totfact>
</mgrwt>
</event>
<event>
 4    1  0.4199484E+000  0.1739483E+03  0.7546771E-02  0.1173792E+00
         21   -1    0    0  503  502  0.00000000000E+00  0.00000000000E+00  0.30992894466E+03  0.30992894466E+03  0.00000000000E+00 0. -1.
         21   -1    0    0  501  503 -0.00000000000E+00 -0.00000000000E+00 -0.14918537064E+03  0.14918537064E+03  0.00000000000E+00 0. -1.
          6    1    1    2  501    0  0.15662156539E+02 -0.91499225296E+01 -0.54577091164E+02  0.18230930615E+03  0.17300000000E+03 0. -1.
         -6    1    1    2    0  502 -0.15662156539E+02  0.91499225296E+01  0.21532066519E+03  0.27680500915E+03  0.17300000000E+03 0. -1.
<mgrwt>
<rscale>  2 0.17394834E+03</rscale>
<asrwt>0</asrwt>
<pdfrwt beam="1">  1       21 0.47681376E-01 0.17394834E+03</pdfrwt>
<pdfrwt beam="2">  1       21 0.22951596E-01 0.17394834E+03</pdfrwt>
<totfact> 0.75532277E+04</totfact>
</mgrwt>
</event>
<event>
 4    1  0.4199484E+000  0.1852109E+03  0.7546771E-02  0.1162853E+00
         21   -1    0    0  501  502  0.00000000000E+00  0.00000000000E+00  0.18088180430E+03  0.18088180430E+03  0.00000000000E+00 0.  1.
         21   -1    0    0  502  503 -0.00000000000E+00 -0.00000000000E+00 -0.19059832180E+03  0.19059832180E+03  0.00000000000E+00 0.  1.
          6    1    1    2  501    0  0.52371979446E+02  0.40388767830E+02 -0.18003971843E+02  0.18608390527E+03  0.17300000000E+03 0. -1.
         -6    1    1    2    0  503 -0.52371979446E+02 -0.40388767830E+02  0.82874543388E+01  0.18539622083E+03  0.17300000000E+03 0. -1.
<mgrwt>
<rscale>  2 0.18521090E+03</rscale>
<asrwt>0</asrwt>
<pdfrwt beam="1">  1       21 0.27827970E-01 0.18521090E+03</pdfrwt>
<pdfrwt beam="2">  1       21 0.29322819E-01 0.18521090E+03</pdfrwt>
<totfact> 0.13769519E+05</totfact>
</mgrwt>
</event>
<event>
 4    1  0.4199484E+000  0.2012630E+03  0.7546771E-02  0.1148678E+00
         21   -1    0    0  501  502  0.00000000000E+00  0.00000000000E+00  0.81148038942E+03  0.81148038942E+03  0.00000000000E+00 0.  1.
         21   -1    0    0  502  503 -0.00000000000E+00 -0.00000000000E+00 -0.16049672608E+03  0.16049672608E+03  0.00000000000E+00 0. -1.
          6    1    1    2  501    0  0.10283923986E+03  0.13776314459E+01  0.72888670094E+03  0.75616309744E+03  0.17300000000E+03 0.  1.
         -6    1    1    2    0  503 -0.10283923986E+03 -0.13776314459E+01 -0.77903037599E+02  0.21581401806E+03  0.17300000000E+03 0. -1.
<mgrwt>
<rscale>  2 0.20126303E+03</rscale>
<asrwt>0</asrwt>
<pdfrwt beam="1">  1       21 0.12484313E+00 0.20126303E+03</pdfrwt>
<pdfrwt beam="2">  1       21 0.24691805E-01 0.20126303E+03</pdfrwt>
<totfact> 0.73730347E+03</totfact>
</mgrwt>
</event>
<event>
 4    1  0.4199484E+000  0.2112192E+03  0.7546771E-02  0.1140604E+00
         21   -1    0    0  501  502  0.00000000000E+00  0.00000000000E+00  0.35253912436E+03  0.35253912436E+03  0.00000000000E+00 0.  1.
         21   -1    0    0  502  503 -0.00000000000E+00 -0.00000000000E+00 -0.12732184755E+03  0.12732184755E+03  0.00000000000E+00 0.  1.
          6    1    1    2  501    0 -0.10296874052E+03 -0.63890576911E+02  0.93918771856E+02  0.23115861015E+03  0.17300000000E+03 0.  1.
         -6    1    1    2    0  503  0.10296874052E+03  0.63890576911E+02  0.13129850495E+03  0.24870236176E+03  0.17300000000E+03 0.  1.
<mgrwt>
<rscale>  2 0.21121924E+03</rscale>
<asrwt>0</asrwt>
<pdfrwt beam="1">  1       21 0.54236788E-01 0.21121924E+03</pdfrwt>
<pdfrwt beam="2">  1       21 0.19587977E-01 0.21121924E+03</pdfrwt>
<totfact> 0.76477196E+04</totfact>
</mgrwt>
</event>
<event>
 4    1  0.4199484E+000  0.2509508E+03  0.7546771E-02  0.1112705E+00
         21   -1    0    0  503  502  0.00000000000E+00  0.00000000000E+00  0.11748893354E+03  0.11748893354E+03  0.00000000000E+00 0.  1.
         21   -1    0    0  501  503 -0.00000000000E+00 -0.00000000000E+00 -0.14158960925E+04  0.14158960925E+04  0.00000000000E+00 0.  1.
          6    1    1    2  501    0 -0.86406613790E+02 -0.15994120943E+03 -0.12535925794E+04  0.12784641757E+04  0.17300000000E+03 0.  1.
         -6    1    1    2    0  502  0.86406613790E+02  0.15994120943E+03 -0.44814579510E+02  0.25492085030E+03  0.17300000000E+03 0.  1.
<mgrwt>
<rscale>  2 0.25095078E+03</rscale>
<asrwt>0</asrwt>
<pdfrwt beam="1">  1       21 0.18075220E-01 0.25095078E+03</pdfrwt>
<pdfrwt beam="2">  1       21 0.21783017E+00 0.25095078E+03</pdfrwt>
<totfact> 0.27390647E+03</totfact>
</mgrwt>
</event>
<event>
 4    1  0.4199484E+000  0.1804865E+03  0.7546771E-02  0.1167333E+00
         21   -1    0    0  503  502  0.00000000000E+00  0.00000000000E+00  0.92428975515E+03  0.92428975515E+03  0.00000000000E+00 0. -1.
         21   -1    0    0  501  503 -0.00000000000E+00 -0.00000000000E+00 -0.10198392326E+03  0.10198392326E+03  0.00000000000E+00 0. -1.
          6    1    1    2  501    0 -0.97701660477E+01  0.50506795921E+02 -0.39551370616E+01  0.18052987478E+03  0.17300000000E+03 0. -1.
         -6    1    1    2    0  502  0.97701660477E+01 -0.50506795921E+02  0.82626096894E+03  0.84574380363E+03  0.17300000000E+03 0. -1.
<mgrwt>
<rscale>  2 0.18048654E+03</rscale>
<asrwt>0</asrwt>
<pdfrwt beam="1">  1       21 0.14219842E+00 0.18048654E+03</pdfrwt>
<pdfrwt beam="2">  1       21 0.15689835E-01 0.18048654E+03</pdfrwt>
<totfact> 0.12530480E+04</totfact>
</mgrwt>
</event>
<event>
 4    1  0.4199484E+000  0.1836730E+03  0.7546771E-02  0.1164295E+00
         21   -1    0    0  503  502  0.00000000000E+00  0.00000000000E+00  0.36955547863E+02  0.36955547863E+02  0.00000000000E+00 0.  1.
         21   -1    0    0  501  503 -0.00000000000E+00 -0.00000000000E+00 -0.93215278488E+03  0.93215278488E+03  0.00000000000E+00 0. -1.
          6    1    1    2  501    0  0.55879172752E+02  0.26158581633E+02 -0.51728377411E+03  0.54892463626E+03  0.17300000000E+03 0. -1.
         -6    1    1    2    0  502 -0.55879172752E+02 -0.26158581633E+02 -0.37791346291E+03  0.42018369648E+03  0.17300000000E+03 0. -1.
<mgrwt>
<rscale>  2 0.18367295E+03</rscale>
<asrwt>0</asrwt>
<pdfrwt beam="1">  1       21 0.56854683E-02 0.18367295E+03</pdfrwt>
<pdfrwt beam="2">  1       21 0.14340814E+00 0.18367295E+03</pdfrwt>
<totfact> 0.73009298E+04</totfact>
</mgrwt>
</event>
<event>
 4    1  0.4199484E+000  0.1810083E+03  0.7546771E-02  0.1166831E+00
         21   -1    0    0  501  502  0.00000000000E+00  0.00000000000E+00  0.63214945575E+02  0.63214945575E+02  0.00000000000E+00 0.  1.
         21   -1    0    0  502  503 -0.00000000000E+00 -0.00000000000E+00 -0.61692546095E+03  0.61692546095E+03  0.00000000000E+00 0.  1.
          6    1    1    2  501    0  0.11370304960E+02 -0.52016388515E+02 -0.14088064678E+03  0.22937163109E+03  0.17300000000E+03 0.  1.
         -6    1    1    2    0  503 -0.11370304960E+02  0.52016388515E+02 -0.41282986860E+03  0.45076877544E+03  0.17300000000E+03 0.  1.
<mgrwt>
<rscale>  2 0.18100826E+03</rscale>
<asrwt>0</asrwt>
<pdfrwt beam="1">  1       21 0.97253767E-02 0.18100826E+03</pdfrwt>
<pdfrwt beam="2">  1       21 0.94911605E-01 0.18100826E+03</pdfrwt>
<totfact> 0.79529019E+04</totfact>
</mgrwt>
</event>
<event>
 4    1  0.4199484E+000  0.2173179E+03  0.7546771E-02  0.1135899E+00
         21   -1    0    0  503  502  0.00000000000E+00  0.00000000000E+00  0.11785279652E+04  0.11785279652E+04  0.00000000000E+00 0.  1.
         21   -1    0    0  501  503 -0.00000000000E+00 -0.00000000000E+00 -0.40168948269E+02  0.40168948269E+02  0.00000000000E+00 0.  1.
          6    1    1    2  501    0 -0.70432174653E+02 -0.11107374876E+03  0.53938769326E+03  0.58152055212E+03  0.17300000000E+03 0.  1.
         -6    1    1    2    0  502  0.70432174653E+02  0.11107374876E+03  0.59897132367E+03  0.63717636135E+03  0.17300000000E+03 0.  1.
<mgrwt>
<rscale>  2 0.21731790E+03</rscale>
<asrwt>0</asrwt>
<pdfrwt beam="1">  1       21 0.18131197E+00 0.21731790E+03</pdfrwt>
<pdfrwt beam="2">  1       21 0.61798391E-02 0.21731790E+03</pdfrwt>
<totfact> 0.32885198E+04</totfact>
</mgrwt>
</event>
<event>
 4    1  0.4199484E+000  0.4028659E+03  0.7546771E-02  0.1042792E+00
         21   -1    0    0  501  502  0.00000000000E+00  0.00000000000E+00  0.51997348595E+03  0.51997348595E+03  0.00000000000E+00 0.  1.
         21   -1    0    0  502  503 -0.00000000000E+00 -0.00000000000E+00 -0.53167984331E+03  0.53167984331E+03  0.00000000000E+00 0. -1.
          6    1    1    2  501    0 -0.27914441852E+03 -0.23334602116E+03  0.33204117821E+03  0.52206543269E+03  0.17300000000E+03 0.  1.
         -6    1    1    2    0  503  0.27914441852E+03  0.23334602116E+03 -0.34374753557E+03  0.52958789657E+03  0.17300000000E+03 0. -1.
<mgrwt>
<rscale>  2 0.40286595E+03</rscale>
<asrwt>0</asrwt>
<pdfrwt beam="1">  1       21 0.79995921E-01 0.40286595E+03</pdfrwt>
<pdfrwt beam="2">  1       21 0.81796899E-01 0.40286595E+03</pdfrwt>
<totfact> 0.15749388E+03</totfact>
</mgrwt>
</event>
<event>
 4    1  0.4199484E+000  0.1783608E+03  0.7546771E-02  0.1169399E+00
         21   -1    0    0  501  502  0.00000000000E+00  0.00000000000E+00  0.11604345338E+04  0.11604345338E+04  0.00000000000E+00 0. -1.
         21   -1    0    0  502  503 -0.00000000000E+00 -0.00000000000E+00 -0.63507087500E+02  0.63507087500E+02  0.00000000000E+00 0.  1.
          6    1    1    2  501    0  0.37570079364E+02  0.21727160697E+02  0.10098125364E+04  0.10254432891E+04  0.17300000000E+03 0. -1.
         -6    1    1    2    0  503 -0.37570079364E+02 -0.21727160697E+02  0.87114909873E+02  0.19849833223E+03  0.17300000000E+03 0.  1.
<mgrwt>
<rscale>  2 0.17836082E+03</rscale>
<asrwt>0</asrwt>
<pdfrwt beam="1">  1       21 0.17852837E+00 0.17836082E+03</pdfrwt>
<pdfrwt beam="2">  1       21 0.97703220E-02 0.17836082E+03</pdfrwt>
<totfact> 0.15915003E+04</totfact>
</mgrwt>
</event>
<event>
 4    1  0.4199484E+000  0.1929307E+03  0.7546771E-02  0.1155844E+00
         21   -1    0    0  501  502  0.00000000000E+00  0.00000000000E+00  0.43492574450E+03  0.43492574450E+03  0.00000000000E+00 0. -1.
         21   -1    0    0  502  503 -0.00000000000E+00 -0.00000000000E+00 -0.90251445254E+02  0.90251445254E+02  0.00000000000E+00 0. -1.
          6    1    1    2  501    0 -0.39266413299E+02  0.75837946382E+02  0.23205929645E+03  0.30178429779E+03  0.17300000000E+03 0. -1.
         -6    1    1    2    0  503  0.39266413299E+02 -0.75837946382E+02  0.11261500280E+03  0.22339289196E+03  0.17300000000E+03 0. -1.
<mgrwt>
<rscale>  2 0.19293067E+03</rscale>
<asrwt>0</asrwt>
<pdfrwt beam="1">  1       21 0.66911652E-01 0.19293067E+03</pdfrwt>
<pdfrwt beam="2">  1       21 0.13884838E-01 0.19293067E+03</pdfrwt>
<totfact> 0.92336600E+04</totfact>
</mgrwt>
</event>
<event>
 4    1  0.4199484E+000  0.2638436E+03  0.7546771E-02  0.1104856E+00
         21   -1    0    0  503  502  0.00000000000E+00  0.00000000000E+00  0.74878992758E+02  0.74878992758E+02  0.00000000000E+00 0. -1.
         21   -1    0    0  501  503 -0.00000000000E+00 -0.00000000000E+00 -0.93036644583E+03  0.93036644583E+03  0.00000000000E+00 0. -1.
          6    1    1    2  501    0 -0.15921797741E+03  0.11972500857E+03 -0.41408307321E+03  0.49099718281E+03  0.17300000000E+03 0. -1.
         -6    1    1    2    0  502  0.15921797741E+03 -0.11972500857E+03 -0.44140437987E+03  0.51424825578E+03  0.17300000000E+03 0. -1.
<mgrwt>
<rscale>  2 0.26384359E+03</rscale>
<asrwt>0</asrwt>
<pdfrwt beam="1">  1       21 0.11519845E-01 0.26384359E+03</pdfrwt>
<pdfrwt beam="2">  1       21 0.14313330E+00 0.26384359E+03</pdfrwt>
<totfact> 0.20460195E+04</totfact>
</mgrwt>
</event>
<event>
 4    1  0.4199484E+000  0.3093318E+03  0.7546771E-02  0.1080667E+00
         21   -1    0    0  501  502  0.00000000000E+00  0.00000000000E+00  0.11579134937E+03  0.11579134937E+03  0.00000000000E+00 0. -1.
         21   -1    0    0  502  503 -0.00000000000E+00 -0.00000000000E+00 -0.14347513252E+04  0.14347513252E+04  0.00000000000E+00 0. -1.
          6    1    1    2  501    0 -0.17066410972E+03 -0.19139209733E+03 -0.15463930341E+03  0.34583158825E+03  0.17300000000E+03 0. -1.
         -6    1    1    2    0  503  0.17066410972E+03  0.19139209733E+03 -0.11643206724E+04  0.12047110863E+04  0.17300000000E+03 0. -1.
<mgrwt>
<rscale>  2 0.30933182E+03</rscale>
<asrwt>0</asrwt>
<pdfrwt beam="1">  1       21 0.17814055E-01 0.30933182E+03</pdfrwt>
<pdfrwt beam="2">  1       21 0.22073096E+00 0.30933182E+03</pdfrwt>
<totfact> 0.25877079E+03</totfact>
</mgrwt>
</event>
<event>
 4    1  0.4199484E+000  0.1914820E+03  0.7546771E-02  0.1157131E+00
         21   -1    0    0  501  502  0.00000000000E+00  0.00000000000E+00  0.54879694116E+03  0.54879694116E+03  0.00000000000E+00 0. -1.
         21   -1    0    0  502  503 -0.00000000000E+00 -0.00000000000E+00 -0.68770203449E+02  0.68770203449E+02  0.00000000000E+00 0. -1.
          6    1    1    2  501    0  0.60207707811E+02  0.55779870906E+02  0.29213961752E+03  0.34930061294E+03  0.17300000000E+03 0. -1.
         -6    1    1    2    0  503 -0.60207707811E+02 -0.55779870906E+02  0.18788712019E+03  0.26826653167E+03  0.17300000000E+03 0. -1.
<mgrwt>
<rscale>  2 0.19148202E+03</rscale>
<asrwt>0</asrwt>
<pdfrwt beam="1">  1       21 0.84430296E-01 0.19148202E+03</pdfrwt>
<pdfrwt beam="2">  1       21 0.10580032E-01 0.19148202E+03</pdfrwt>
<totfact> 0.89407339E+04</totfact>
</mgrwt>
</event>
<event>
 4    1  0.4199484E+000  0.1846223E+03  0.7546771E-02  0.1163403E+00
         21   -1    0    0  503  502  0.00000000000E+00  0.00000000000E+00  0.27902485219E+03  0.27902485219E+03  0.00000000000E+00 0. -1.
         21   -1    0    0  501  503 -0.00000000000E+00 -0.00000000000E+00 -0.14410294626E+03  0.14410294626E+03  0.00000000000E+00 0. -1.
          6    1    1    2  501    0 -0.64302612634E+01 -0.64148541070E+02 -0.15097770859E+02  0.18523856582E+03  0.17300000000E+03 0. -1.
         -6    1    1    2    0  502  0.64302612634E+01  0.64148541070E+02  0.15001967679E+03  0.23788923264E+03  0.17300000000E+03 0. -1.
<mgrwt>
<rscale>  2 0.18462227E+03</rscale>
<asrwt>0</asrwt>
<pdfrwt beam="1">  1       21 0.42926900E-01 0.18462227E+03</pdfrwt>
<pdfrwt beam="2">  1       21 0.22169684E-01 0.18462227E+03</pdfrwt>
<totfact> 0.99592455E+04</totfact>
</mgrwt>
</event>
<event>
 4    1  0.4199484E+000  0.1868616E+03  0.7546771E-02  0.1161323E+00
         21   -1    0    0  501  502  0.00000000000E+00  0.00000000000E+00  0.91997579936E+02  0.91997579936E+02  0.00000000000E+00 0. -1.
         21   -1    0    0  502  503 -0.00000000000E+00 -0.00000000000E+00 -0.72559246928E+03  0.72559246928E+03  0.00000000000E+00 0. -1.
          6    1    1    2  501    0  0.70533631701E+02  0.36428731214E+01 -0.34487115334E+02  0.19001743301E+03  0.17300000000E+03 0. -1.
         -6    1    1    2    0  503 -0.70533631701E+02 -0.36428731214E+01 -0.59910777401E+03  0.62757261620E+03  0.17300000000E+03 0. -1.
<mgrwt>
<rscale>  2 0.18686162E+03</rscale>
<asrwt>0</asrwt>
<pdfrwt beam="1">  1       21 0.14153474E-01 0.18686162E+03</pdfrwt>
<pdfrwt beam="2">  1       21 0.11162961E+00 0.18686162E+03</pdfrwt>
<totfact> 0.27567980E+04</totfact>
</mgrwt>
</event>
<event>
 4    1  0.4199484E+000  0.2537951E+03  0.7546771E-02  0.1110930E+00
         21   -1    0    0  501  502  0.00000000000E+00  0.00000000000E+00  0.66867937037E+03  0.66867937037E+03  0.00000000000E+00 0.  1.
         21   -1    0    0  502  503 -0.00000000000E+00 -0.00000000000E+00 -0.96349101376E+02  0.96349101376E+02  0.00000000000E+00 0. -1.
          6    1    1    2  501    0  0.15405696069E+03  0.10367940972E+03  0.29194097884E+03  0.38683523916E+03  0.17300000000E+03 0. -1.
         -6    1    1    2    0  503 -0.15405696069E+03 -0.10367940972E+03  0.28038929016E+03  0.37819323258E+03  0.17300000000E+03 0.  1.
<mgrwt>
<rscale>  2 0.25379513E+03</rscale>
<asrwt>0</asrwt>
<pdfrwt beam="1">  1       21 0.10287375E+00 0.25379513E+03</pdfrwt>
<pdfrwt beam="2">  1       21 0.14822939E-01 0.25379513E+03</pdfrwt>
<totfact> 0.29796591E+04</totfact>
</mgrwt>
</event>
<event>
 4    1  0.4199484E+000  0.1812125E+03  0.7546771E-02  0.1166635E+00
         21   -1    0    0  501  502  0.00000000000E+00  0.00000000000E+00  0.64874297474E+02  0.64874297474E+02  0.00000000000E+00 0.  1.
         21   -1    0    0  502  503 -0.00000000000E+00 -0.00000000000E+00 -0.50826151105E+03  0.50826151105E+03  0.00000000000E+00 0.  1.
          6    1    1    2  501    0  0.11501094473E+02 -0.52694260794E+02 -0.20334712969E+03  0.27237477021E+03  0.17300000000E+03 0.  1.
         -6    1    1    2    0  503 -0.11501094473E+02  0.52694260794E+02 -0.24004008388E+03  0.30076103831E+03  0.17300000000E+03 0.  1.
<mgrwt>
<rscale>  2 0.18121247E+03</rscale>
<asrwt>0</asrwt>
<pdfrwt beam="1">  1       21 0.99806610E-02 0.18121247E+03</pdfrwt>
<pdfrwt beam="2">  1       21 0.78194080E-01 0.18121247E+03</pdfrwt>
<totfact> 0.11840403E+05</totfact>
</mgrwt>
</event>
<event>
 4    1  0.4199484E+000  0.1742699E+03  0.7546771E-02  0.1173467E+00
         21   -1    0    0  503  502  0.00000000000E+00  0.00000000000E+00  0.11207709324E+03  0.11207709324E+03  0.00000000000E+00 0.  1.
         21   -1    0    0  501  503 -0.00000000000E+00 -0.00000000000E+00 -0.37475225786E+03  0.37475225786E+03  0.00000000000E+00 0.  1.
          6    1    1    2  501    0  0.17691072189E+02  0.11314826931E+02 -0.25943118005E+03  0.31252925707E+03  0.17300000000E+03 0.  1.
         -6    1    1    2    0  502 -0.17691072189E+02 -0.11314826931E+02 -0.32439845651E+01  0.17430009403E+03  0.17300000000E+03 0.  1.
<mgrwt>
<rscale>  2 0.17426990E+03</rscale>
<asrwt>0</asrwt>
<pdfrwt beam="1">  1       21 0.17242630E-01 0.17426990E+03</pdfrwt>
<pdfrwt beam="2">  1       21 0.57654193E-01 0.17426990E+03</pdfrwt>
<totfact> 0.86415529E+04</totfact>
</mgrwt>
</event>
<event>
 4    1  0.4199484E+000  0.2057456E+03  0.7546771E-02  0.1144980E+00
         21   -1    0    0  501  502  0.00000000000E+00  0.00000000000E+00  0.16809910653E+03  0.16809910653E+03  0.00000000000E+00 0. -1.
         21   -1    0    0  502  503 -0.00000000000E+00 -0.00000000000E+00 -0.29071461580E+03  0.29071461580E+03  0.00000000000E+00 0. -1.
          6    1    1    2  501    0 -0.75887136063E+02 -0.81507112501E+02  0.22599488376E+02  0.20698309999E+03  0.17300000000E+03 0. -1.
         -6    1    1    2    0  503  0.75887136063E+02  0.81507112501E+02 -0.14521499764E+03  0.25183062234E+03  0.17300000000E+03 0. -1.
<mgrwt>
<rscale>  2 0.20574564E+03</rscale>
<asrwt>0</asrwt>
<pdfrwt beam="1">  1       21 0.25861401E-01 0.20574564E+03</pdfrwt>
<pdfrwt beam="2">  1       21 0.44725325E-01 0.20574564E+03</pdfrwt>
<totfact> 0.67723294E+04</totfact>
</mgrwt>
</event>
<event>
 4    1  0.4199484E+000  0.1811810E+03  0.7546771E-02  0.1166665E+00
         21   -1    0    0  503  502  0.00000000000E+00  0.00000000000E+00  0.37645566648E+03  0.37645566648E+03  0.00000000000E+00 0. -1.
         21   -1    0    0  501  503 -0.00000000000E+00 -0.00000000000E+00 -0.20476414001E+03  0.20476414001E+03  0.00000000000E+00 0. -1.
          6    1    1    2  501    0 -0.41333870725E+02  0.34482833415E+02 -0.13435699591E+03  0.22556231294E+03  0.17300000000E+03 0. -1.
         -6    1    1    2    0  502  0.41333870725E+02 -0.34482833415E+02  0.30604852237E+03  0.35565749355E+03  0.17300000000E+03 0. -1.
<mgrwt>
<rscale>  2 0.18118100E+03</rscale>
<asrwt>0</asrwt>
<pdfrwt beam="1">  1       21 0.57916256E-01 0.18118100E+03</pdfrwt>
<pdfrwt beam="2">  1       21 0.31502175E-01 0.18118100E+03</pdfrwt>
<totfact> 0.27243140E+04</totfact>
</mgrwt>
</event>
<event>
 4    1  0.4199484E+000  0.2814701E+03  0.7546771E-02  0.1094889E+00
         21   -1    0    0  501  502  0.00000000000E+00  0.00000000000E+00  0.91866764048E+02  0.91866764048E+02  0.00000000000E+00 0. -1.
         21   -1    0    0  502  503 -0.00000000000E+00 -0.00000000000E+00 -0.12907629183E+04  0.12907629183E+04  0.00000000000E+00 0.  1.
          6    1    1    2  501    0 -0.22184999462E+03 -0.88892589938E+01 -0.20119319964E+03  0.34598286463E+03  0.17300000000E+03 0. -1.
         -6    1    1    2    0  503  0.22184999462E+03  0.88892589938E+01 -0.99770295466E+03  0.10366468178E+04  0.17300000000E+03 0.  1.
<mgrwt>
<rscale>  2 0.28147014E+03</rscale>
<asrwt>0</asrwt>
<pdfrwt beam="1">  1       21 0.14133348E-01 0.28147014E+03</pdfrwt>
<pdfrwt beam="2">  1       21 0.19857892E+00 0.28147014E+03</pdfrwt>
<totfact> 0.56004184E+03</totfact>
</mgrwt>
</event>
<event>
 4    1  0.4199484E+000  0.2060004E+03  0.7546771E-02  0.1144773E+00
         21   -1    0    0  501  502  0.00000000000E+00  0.00000000000E+00  0.17801077854E+02  0.17801077854E+02  0.00000000000E+00 0. -1.
         21   -1    0    0  502  503 -0.00000000000E+00 -0.00000000000E+00 -0.23841025176E+04  0.23841025176E+04  0.00000000000E+00 0. -1.
          6    1    1    2  501    0  0.34295537465E+02  0.10644707636E+03 -0.11723532166E+04  0.11903143401E+04  0.17300000000E+03 0. -1.
         -6    1    1    2    0  503 -0.34295537465E+02 -0.10644707636E+03 -0.11939482232E+04  0.12115892553E+04  0.17300000000E+03 0. -1.
<mgrwt>
<rscale>  2 0.20600040E+03</rscale>
<asrwt>0</asrwt>
<pdfrwt beam="1">  1       21 0.27386296E-02 0.20600040E+03</pdfrwt>
<pdfrwt beam="2">  1       21 0.36678471E+00 0.20600040E+03</pdfrwt>
<totfact> 0.10060716E+04</totfact>
</mgrwt>
</event>
<event>
 4    1  0.4199484E+000  0.1735618E+03  0.7546771E-02  0.1174184E+00
         21   -1    0    0  501  502  0.00000000000E+00  0.00000000000E+00  0.60451508918E+02  0.60451508918E+02  0.00000000000E+00 0.  1.
         21   -1    0    0  502  503 -0.00000000000E+00 -0.00000000000E+00 -0.10611963525E+04  0.10611963525E+04  0.00000000000E+00 0.  1.
          6    1    1    2  501    0  0.12780994781E+02  0.55979401337E+01 -0.91922903508E+02  0.19640140262E+03  0.17300000000E+03 0.  1.
         -6    1    1    2    0  503 -0.12780994781E+02 -0.55979401337E+01 -0.90882194010E+03  0.92524645883E+03  0.17300000000E+03 0.  1.
<mgrwt>
<rscale>  2 0.17356178E+03</rscale>
<asrwt>0</asrwt>
<pdfrwt beam="1">  1       21 0.93002326E-02 0.17356178E+03</pdfrwt>
<pdfrwt beam="2">  1       21 0.16326097E+00 0.17356178E+03</pdfrwt>
<totfact> 0.22270030E+04</totfact>
</mgrwt>
</event>
<event>
 4    1  0.4199484E+000  0.2507331E+03  0.7546771E-02  0.1112842E+00
         21   -1    0    0  501  502  0.00000000000E+00  0.00000000000E+00  0.60435238672E+02  0.60435238672E+02  0.00000000000E+00 0. -1.
         21   -1    0    0  502  503 -0.00000000000E+00 -0.00000000000E+00 -0.11261280752E+04  0.11261280752E+04  0.00000000000E+00 0.  1.
          6    1    1    2  501    0 -0.80723226887E+02  0.16254804262E+03 -0.36900057202E+03  0.44612613426E+03  0.17300000000E+03 0.  1.
         -6    1    1    2    0  503  0.80723226887E+02 -0.16254804262E+03 -0.69669226448E+03  0.74043717958E+03  0.17300000000E+03 0. -1.
<mgrwt>
<rscale>  2 0.25073314E+03</rscale>
<asrwt>0</asrwt>
<pdfrwt beam="1">  1       21 0.92977285E-02 0.25073314E+03</pdfrwt>
<pdfrwt beam="2">  1       21 0.17325048E+00 0.25073314E+03</pdfrwt>
<totfact> 0.17987621E+04</totfact>
</mgrwt>
</event>
<event>
 4    1  0.4199484E+000  0.2109864E+03  0.7546771E-02  0.1140787E+00
         21   -1    0    0  501  502  0.00000000000E+00  0.00000000000E+00  0.60625735942E+02  0.60625735942E+02  0.00000000000E+00 0.  1.
         21   -1    0    0  502  503 -0.00000000000E+00 -0.00000000000E+00 -0.11282682860E+04  0.11282682860E+04  0.00000000000E+00 0.  1.
          6    1    1    2  501    0  0.23248818131E+02 -0.11851477638E+03 -0.18253777277E+03  0.27898978163E+03  0.17300000000E+03 0.  1.
         -6    1    1    2    0  503 -0.23248818131E+02  0.11851477638E+03 -0.88510477732E+03  0.90990424034E+03  0.17300000000E+03 0.  1.
<mgrwt>
<rscale>  2 0.21098640E+03</rscale>
<asrwt>0</asrwt>
<pdfrwt beam="1">  1       21 0.93270363E-02 0.21098640E+03</pdfrwt>
<pdfrwt beam="2">  1       21 0.17357974E+00 0.21098640E+03</pdfrwt>
<totfact> 0.18242947E+04</totfact>
</mgrwt>
</event>
<event>
 4    1  0.4199484E+000  0.2089098E+03  0.7546771E-02  0.1142432E+00
         21   -1    0    0  501  502  0.00000000000E+00  0.00000000000E+00  0.42185098713E+03  0.42185098713E+03  0.00000000000E+00 0.  1.
         21   -1    0    0  502  503 -0.00000000000E+00 -0.00000000000E+00 -0.18866423828E+03  0.18866423828E+03  0.00000000000E+00 0. -1.
          6    1    1    2  501    0 -0.11641394951E+03 -0.12731279992E+02  0.32173832298E+03  0.38361287987E+03  0.17300000000E+03 0.  1.
         -6    1    1    2    0  503  0.11641394951E+03  0.12731279992E+02 -0.88551574126E+02  0.22690234554E+03  0.17300000000E+03 0. -1.
<mgrwt>
<rscale>  2 0.20890977E+03</rscale>
<asrwt>0</asrwt>
<pdfrwt beam="1">  1       21 0.64900151E-01 0.20890977E+03</pdfrwt>
<pdfrwt beam="2">  1       21 0.29025268E-01 0.20890977E+03</pdfrwt>
<totfact> 0.24618931E+04</totfact>
</mgrwt>
</event>
<event>
 4    1  0.4199484E+000  0.1760416E+03  0.7546771E-02  0.1171690E+00
         21   -1    0    0  501  502  0.00000000000E+00  0.00000000000E+00  0.24014244099E+03  0.24014244099E+03  0.00000000000E+00 0. -1.
         21   -1    0    0  502  503 -0.00000000000E+00 -0.00000000000E+00 -0.72108915224E+03  0.72108915224E+03  0.00000000000E+00 0. -1.
          6    1    1    2  501    0 -0.25603771675E+02  0.20152136925E+02  0.19501680441E+03  0.26272079428E+03  0.17300000000E+03 0. -1.
         -6    1    1    2    0  503  0.25603771675E+02 -0.20152136925E+02 -0.67596351566E+03  0.69851079895E+03  0.17300000000E+03 0. -1.
<mgrwt>
<rscale>  2 0.17604165E+03</rscale>
<asrwt>0</asrwt>
<pdfrwt beam="1">  1       21 0.36944991E-01 0.17604165E+03</pdfrwt>
<pdfrwt beam="2">  1       21 0.11093679E+00 0.17604165E+03</pdfrwt>
<totfact> 0.45840213E+03</totfact>
</mgrwt>
</event>
<event>
 4    1  0.4199484E+000  0.1855313E+03  0.7546771E-02  0.1162555E+00
         21   -1    0    0  501  502  0.00000000000E+00  0.00000000000E+00  0.14546700466E+04  0.14546700466E+04  0.00000000000E+00 0.  1.
         21   -1    0    0  502  503 -0.00000000000E+00 -0.00000000000E+00 -0.29885900020E+02  0.29885900020E+02  0.00000000000E+00 0.  1.
          6    1    1    2  501    0  0.39286049627E+02  0.54308983161E+02  0.10511034363E+04  0.10673520006E+04  0.17300000000E+03 0.  1.
         -6    1    1    2    0  503 -0.39286049627E+02 -0.54308983161E+02  0.37368071021E+03  0.41720394596E+03  0.17300000000E+03 0.  1.
<mgrwt>
<rscale>  2 0.18553129E+03</rscale>
<asrwt>0</asrwt>
<pdfrwt beam="1">  1       21 0.22379534E+00 0.18553129E+03</pdfrwt>
<pdfrwt beam="2">  1       21 0.45978319E-02 0.18553129E+03</pdfrwt>
<totfact> 0.29724622E+04</totfact>
</mgrwt>
</event>
<event>
 4    1  0.4199484E+000  0.2481963E+03  0.7546771E-02  0.1114450E+00
         21   -1    0    0  501  502  0.00000000000E+00  0.00000000000E+00  0.80829289106E+03  0.80829289106E+03  0.00000000000E+00 0. -1.
         21   -1    0    0  502  503 -0.00000000000E+00 -0.00000000000E+00 -0.88241502918E+02  0.88241502918E+02  0.00000000000E+00 0. -1.
          6    1    1    2  501    0 -0.12761514426E+03  0.12404338347E+03  0.52553771005E+03  0.58119813379E+03  0.17300000000E+03 0. -1.
         -6    1    1    2    0  503  0.12761514426E+03 -0.12404338347E+03  0.19451367809E+03  0.31533626019E+03  0.17300000000E+03 0. -1.
<mgrwt>
<rscale>  2 0.24819627E+03</rscale>
<asrwt>0</asrwt>
<pdfrwt beam="1">  1       21 0.12435275E+00 0.24819627E+03</pdfrwt>
<pdfrwt beam="2">  1       21 0.13575616E-01 0.24819627E+03</pdfrwt>
<totfact> 0.22003447E+04</totfact>
</mgrwt>
</event>
<event>
 4    1  0.4199484E+000  0.1797910E+03  0.7546771E-02  0.1168005E+00
         21   -1    0    0  503  502  0.00000000000E+00  0.00000000000E+00  0.11090784717E+04  0.11090784717E+04  0.00000000000E+00 0. -1.
         21   -1    0    0  501  503 -0.00000000000E+00 -0.00000000000E+00 -0.44764102600E+03  0.44764102600E+03  0.00000000000E+00 0. -1.
          6    1    1    2  501    0 -0.30944394848E+02  0.37924296299E+02 -0.42187529570E+03  0.45858867512E+03  0.17300000000E+03 0. -1.
         -6    1    1    2    0  502  0.30944394848E+02 -0.37924296299E+02  0.10833127414E+04  0.10981308226E+04  0.17300000000E+03 0. -1.
<mgrwt>
<rscale>  2 0.17979101E+03</rscale>
<asrwt>0</asrwt>
<pdfrwt beam="1">  1       21 0.17062746E+00 0.17979101E+03</pdfrwt>
<pdfrwt beam="2">  1       21 0.68867850E-01 0.17979101E+03</pdfrwt>
<totfact> 0.41220153E+02</totfact>
</mgrwt>
</event>
<event>
 4    1  0.4199484E+000  0.1854474E+03  0.7546771E-02  0.1162633E+00
         21   -1    0    0  501  502  0.00000000000E+00  0.00000000000E+00  0.89199732772E+03  0.89199732772E+03  0.00000000000E+00 0.  1.
         21   -1    0    0  502  503 -0.00000000000E+00 -0.00000000000E+00 -0.42334228881E+02  0.42334228881E+02  0.00000000000E+00 0. -1.
          6    1    1    2  501    0  0.66613520963E+02 -0.49375413885E+01  0.56441718755E+03  0.59410226569E+03  0.17300000000E+03 0.  1.
         -6    1    1    2    0  503 -0.66613520963E+02  0.49375413885E+01  0.28524591128E+03  0.34022929091E+03  0.17300000000E+03 0. -1.
<mgrwt>
<rscale>  2 0.18544741E+03</rscale>
<asrwt>0</asrwt>
<pdfrwt beam="1">  1       21 0.13723034E+00 0.18544741E+03</pdfrwt>
<pdfrwt beam="2">  1       21 0.65129590E-02 0.18544741E+03</pdfrwt>
<totfact> 0.64767052E+04</totfact>
</mgrwt>
</event>
<event>
 4    1  0.4199484E+000  0.2712307E+03  0.7546771E-02  0.1100577E+00
         21   -1    0    0  503  502  0.00000000000E+00  0.00000000000E+00  0.12781808260E+04  0.12781808260E+04  0.00000000000E+00 0.  1.
         21   -1    0    0  501  503 -0.00000000000E+00 -0.00000000000E+00 -0.67475611471E+02  0.67475611471E+02  0.00000000000E+00 0. -1.
          6    1    1    2  501    0  0.19051208598E+03 -0.85686880759E+02  0.34736837028E+03  0.44071632726E+03  0.17300000000E+03 0. -1.
         -6    1    1    2    0  502 -0.19051208598E+03  0.85686880759E+02  0.86333684427E+03  0.90494011024E+03  0.17300000000E+03 0.  1.
<mgrwt>
<rscale>  2 0.27123071E+03</rscale>
<asrwt>0</asrwt>
<pdfrwt beam="1">  1       21 0.19664319E+00 0.27123071E+03</pdfrwt>
<pdfrwt beam="2">  1       21 0.10380864E-01 0.27123071E+03</pdfrwt>
<totfact> 0.10132151E+04</totfact>
</mgrwt>
</event>
<event>
 4    1  0.4199484E+000  0.1777064E+03  0.7546771E-02  0.1170041E+00
         21   -1    0    0  503  502  0.00000000000E+00  0.00000000000E+00  0.98883432481E+02  0.98883432481E+02  0.00000000000E+00 0.  1.
         21   -1    0    0  501  503 -0.00000000000E+00 -0.00000000000E+00 -0.89180942976E+03  0.89180942976E+03  0.00000000000E+00 0.  1.
          6    1    1    2  501    0  0.40109199050E+02 -0.64673271072E+01 -0.79332631163E+03  0.81298598443E+03  0.17300000000E+03 0.  1.
         -6    1    1    2    0  502 -0.40109199050E+02  0.64673271072E+01  0.40031434623E+00  0.17770687781E+03  0.17300000000E+03 0.  1.
<mgrwt>
<rscale>  2 0.17770643E+03</rscale>
<asrwt>0</asrwt>
<pdfrwt beam="1">  1       21 0.15212835E-01 0.17770643E+03</pdfrwt>
<pdfrwt beam="2">  1       21 0.13720146E+00 0.17770643E+03</pdfrwt>
<totfact> 0.14564647E+04</totfact>
</mgrwt>
</event>
<event>
 4    1  0.4199484E+000  0.1844794E+03  0.7546771E-02  0.1163537E+00
         21   -1    0    0  501  502  0.00000000000E+00  0.00000000000E+00  0.15355897145E+04  0.15355897145E+04  0.00000000000E+00 0.  1.
         21   -1    0    0  502  503 -0.00000000000E+00 -0.00000000000E+00 -0.22168978980E+02  0.22168978980E+02  0.00000000000E+00 0.  1.
          6    1    1    2  501    0 -0.17921089458E+02 -0.61502026690E+02  0.74350101763E+03  0.76604596987E+03  0.17300000000E+03 0.  1.
         -6    1    1    2    0  503  0.17921089458E+02  0.61502026690E+02  0.76991971789E+03  0.79171272361E+03  0.17300000000E+03 0.  1.
<mgrwt>
<rscale>  2 0.18447944E+03</rscale>
<asrwt>0</asrwt>
<pdfrwt beam="1">  1       21 0.23624449E+00 0.18447944E+03</pdfrwt>
<pdfrwt beam="2">  1       21 0.34106134E-02 0.18447944E+03</pdfrwt>
<totfact> 0.41280829E+04</totfact>
</mgrwt>
</event>
<event>
 4    1  0.4199484E+000  0.2113315E+03  0.7546771E-02  0.1140516E+00
         21   -1    0    0  503  502  0.00000000000E+00  0.00000000000E+00  0.49105091375E+03  0.49105091375E+03  0.00000000000E+00 0. -1.
         21   -1    0    0  501  503 -0.00000000000E+00 -0.00000000000E+00 -0.98560209887E+02  0.98560209887E+02  0.00000000000E+00 0. -1.
          6    1    1    2  501    0  0.10918609966E+03 -0.53013306562E+02  0.11432590897E+03  0.24027365335E+03  0.17300000000E+03 0. -1.
         -6    1    1    2    0  502 -0.10918609966E+03  0.53013306562E+02  0.27816479490E+03  0.34933747029E+03  0.17300000000E+03 0. -1.
<mgrwt>
<rscale>  2 0.21133153E+03</rscale>
<asrwt>0</asrwt>
<pdfrwt beam="1">  1       21 0.75546293E-01 0.21133153E+03</pdfrwt>
<pdfrwt beam="2">  1       21 0.15163109E-01 0.21133153E+03</pdfrwt>
<totfact> 0.59642615E+04</totfact>
</mgrwt>
</event>
<event>
 4    1  0.4199484E+000  0.1918884E+03  0.7546771E-02  0.1156769E+00
         21   -1    0    0  503  502  0.00000000000E+00  0.00000000000E+00  0.26047362603E+02  0.26047362603E+02  0.00000000000E+00 0.  1.
         21   -1    0    0  501  503 -0.00000000000E+00 -0.00000000000E+00 -0.20584087862E+04  0.20584087862E+04  0.00000000000E+00 0.  1.
          6    1    1    2  501    0 -0.16152192398E+02  0.81432667369E+02 -0.15994973984E+04  0.16109665112E+04  0.17300000000E+03 0.  1.
         -6    1    1    2    0  502  0.16152192398E+02 -0.81432667369E+02 -0.43286402521E+03  0.47348963765E+03  0.17300000000E+03 0.  1.
<mgrwt>
<rscale>  2 0.19188844E+03</rscale>
<asrwt>0</asrwt>
<pdfrwt beam="1">  1       21 0.40072855E-02 0.19188844E+03</pdfrwt>
<pdfrwt beam="2">  1       21 0.31667836E+00 0.19188844E+03</pdfrwt>
<totfact> 0.10695666E+04</totfact>
</mgrwt>
</event>
<event>
 4    1  0.4199484E+000  0.2036018E+03  0.7546771E-02  0.1146735E+00
         21   -1    0    0  503  502  0.00000000000E+00  0.00000000000E+00  0.20629950397E+03  0.20629950397E+03  0.00000000000E+00 0.  1.
         21   -1    0    0  501  503 -0.00000000000E+00 -0.00000000000E+00 -0.20284157846E+03  0.20284157846E+03  0.00000000000E+00 0.  1.
          6    1    1    2  501    0  0.10735068698E+03 -0.72615867999E+00 -0.18081331335E+02  0.20440311114E+03  0.17300000000E+03 0.  1.
         -6    1    1    2    0  502 -0.10735068698E+03  0.72615867999E+00  0.21539256847E+02  0.20473797129E+03  0.17300000000E+03 0.  1.
<mgrwt>
<rscale>  2 0.20360181E+03</rscale>
<asrwt>0</asrwt>
<pdfrwt beam="1">  1       21 0.31738385E-01 0.20360181E+03</pdfrwt>
<pdfrwt beam="2">  1       21 0.31206397E-01 0.20360181E+03</pdfrwt>
<totfact> 0.93750338E+04</totfact>
</mgrwt>
</event>
<event>
 4    1  0.4199484E+000  0.2872299E+03  0.7546771E-02  0.1091804E+00
         21   -1    0    0  503  502  0.00000000000E+00  0.00000000000E+00  0.11567765384E+03  0.11567765384E+03  0.00000000000E+00 0.  1.
         21   -1    0    0  501  503 -0.00000000000E+00 -0.00000000000E+00 -0.10779085847E+04  0.10779085847E+04  0.00000000000E+00 0. -1.
          6    1    1    2  501    0 -0.33633908460E+02 -0.22680553252E+03 -0.82825769444E+03  0.87664804669E+03  0.17300000000E+03 0. -1.
         -6    1    1    2    0  502  0.33633908460E+02  0.22680553252E+03 -0.13397323645E+03  0.31693819187E+03  0.17300000000E+03 0.  1.
<mgrwt>
<rscale>  2 0.28722985E+03</rscale>
<asrwt>0</asrwt>
<pdfrwt beam="1">  1       21 0.17796562E-01 0.28722985E+03</pdfrwt>
<pdfrwt beam="2">  1       21 0.16583209E+00 0.28722985E+03</pdfrwt>
<totfact> 0.61293846E+03</totfact>
</mgrwt>
</event>
<event>
 4    1  0.4199484E+000  0.4242977E+03  0.7546771E-02  0.1035677E+00
         21   -1    0    0  503  502  0.00000000000E+00  0.00000000000E+00  0.22436735022E+03  0.22436735022E+03  0.00000000000E+00 0.  1.
         21   -1    0    0  501  503 -0.00000000000E+00 -0.00000000000E+00 -0.88796817754E+03  0.88796817754E+03  0.00000000000E+00 0. -1.
          6    1    1    2  501    0  0.21594826076E+03 -0.32166107717E+03 -0.50446645378E+03  0.65917744416E+03  0.17300000000E+03 0. -1.
         -6    1    1    2    0  502 -0.21594826076E+03  0.32166107717E+03 -0.15913437354E+03  0.45315808360E+03  0.17300000000E+03 0.  1.
<mgrwt>
<rscale>  2 0.42429765E+03</rscale>
<asrwt>0</asrwt>
<pdfrwt beam="1">  1       21 0.34518054E-01 0.42429765E+03</pdfrwt>
<pdfrwt beam="2">  1       21 0.13661049E+00 0.42429765E+03</pdfrwt>
<totfact> 0.26875269E+03</totfact>
</mgrwt>
</event>
<event>
 4    1  0.4199484E+000  0.1744528E+03  0.7546771E-02  0.1173282E+00
         21   -1    0    0  501  502  0.00000000000E+00  0.00000000000E+00  0.77768109359E+03  0.77768109359E+03  0.00000000000E+00 0.  1.
         21   -1    0    0  502  503 -0.00000000000E+00 -0.00000000000E+00 -0.44214449304E+02  0.44214449304E+02  0.00000000000E+00 0.  1.
          6    1    1    2  501    0 -0.21866811612E+02 -0.51581054443E+01  0.50603490236E+03  0.53526169853E+03  0.17300000000E+03 0.  1.
         -6    1    1    2    0  503  0.21866811612E+02  0.51581054443E+01  0.22743174193E+03  0.28663384437E+03  0.17300000000E+03 0.  1.
<mgrwt>
<rscale>  2 0.17445275E+03</rscale>
<asrwt>0</asrwt>
<pdfrwt beam="1">  1       21 0.11964323E+00 0.17445275E+03</pdfrwt>
<pdfrwt beam="2">  1       21 0.68022236E-02 0.17445275E+03</pdfrwt>
<totfact> 0.85262587E+04</totfact>
</mgrwt>
</event>
<event>
 4    1  0.4199484E+000  0.2123891E+03  0.7546771E-02  0.1139688E+00
         21   -1    0    0  501  502  0.00000000000E+00  0.00000000000E+00  0.36514792518E+02  0.36514792518E+02  0.00000000000E+00 0. -1.
         21   -1    0    0  502  503 -0.00000000000E+00 -0.00000000000E+00 -0.12751758871E+04  0.12751758871E+04  0.00000000000E+00 0. -1.
          6    1    1    2  501    0 -0.11085415736E+03 -0.53772445459E+02 -0.50344912476E+03  0.54641572206E+03  0.17300000000E+03 0. -1.
         -6    1    1    2    0  503  0.11085415736E+03  0.53772445459E+02 -0.73521196982E+03  0.76527495755E+03  0.17300000000E+03 0. -1.
<mgrwt>
<rscale>  2 0.21238908E+03</rscale>
<asrwt>0</asrwt>
<pdfrwt beam="1">  1       21 0.56176602E-02 0.21238908E+03</pdfrwt>
<pdfrwt beam="2">  1       21 0.19618091E+00 0.21238908E+03</pdfrwt>
<totfact> 0.30933904E+04</totfact>
</mgrwt>
</event>
<event>
 4    1  0.4199484E+000  0.1902459E+03  0.7546771E-02  0.1158240E+00
         21   -1    0    0  503  502  0.00000000000E+00  0.00000000000E+00  0.68662748029E+03  0.68662748029E+03  0.00000000000E+00 0. -1.
         21   -1    0    0  501  503 -0.00000000000E+00 -0.00000000000E+00 -0.59944387342E+02  0.59944387342E+02  0.00000000000E+00 0. -1.
          6    1    1    2  501    0 -0.79065373994E+02 -0.36269476283E+01  0.18368063831E+03  0.26444671486E+03  0.17300000000E+03 0. -1.
         -6    1    1    2    0  502  0.79065373994E+02  0.36269476283E+01  0.44300245465E+03  0.48212515277E+03  0.17300000000E+03 0. -1.
<mgrwt>
<rscale>  2 0.19024586E+03</rscale>
<asrwt>0</asrwt>
<pdfrwt beam="1">  1       21 0.10563499E+00 0.19024586E+03</pdfrwt>
<pdfrwt beam="2">  1       21 0.92222139E-02 0.19024586E+03</pdfrwt>
<totfact> 0.67469816E+04</totfact>
</mgrwt>
</event>
<event>
 4    1  0.4199484E+000  0.1871029E+03  0.7546771E-02  0.1161101E+00
         21   -1    0    0  503  502  0.00000000000E+00  0.00000000000E+00  0.36034619850E+03  0.36034619850E+03  0.00000000000E+00 0.  1.
         21   -1    0    0  501  503 -0.00000000000E+00 -0.00000000000E+00 -0.98288793581E+02  0.98288793581E+02  0.00000000000E+00 0. -1.
          6    1    1    2  501    0  0.67056867482E+02 -0.24122049612E+02  0.10634104540E+03  0.21521132566E+03  0.17300000000E+03 0. -1.
         -6    1    1    2    0  502 -0.67056867482E+02  0.24122049612E+02  0.15571635951E+03  0.24342366642E+03  0.17300000000E+03 0. -1.
<mgrwt>
<rscale>  2 0.18710290E+03</rscale>
<asrwt>0</asrwt>
<pdfrwt beam="1">  1       21 0.55437876E-01 0.18710290E+03</pdfrwt>
<pdfrwt beam="2">  1       21 0.15121353E-01 0.18710290E+03</pdfrwt>
<totfact> 0.11880594E+05</totfact>
</mgrwt>
</event>
<event>
 4    1  0.4199484E+000  0.1880167E+03  0.7546771E-02  0.1160262E+00
         21   -1    0    0  503  502  0.00000000000E+00  0.00000000000E+00  0.74662444964E+02  0.74662444964E+02  0.00000000000E+00 0.  1.
         21   -1    0    0  501  503 -0.00000000000E+00 -0.00000000000E+00 -0.52275395391E+03  0.52275395391E+03  0.00000000000E+00 0.  1.
          6    1    1    2  501    0  0.70272636083E+02 -0.21978214388E+02 -0.31576482879E+03  0.36750198965E+03  0.17300000000E+03 0.  1.
         -6    1    1    2    0  502 -0.70272636083E+02  0.21978214388E+02 -0.13232668015E+03  0.22991440922E+03  0.17300000000E+03 0.  1.
<mgrwt>
<rscale>  2 0.18801672E+03</rscale>
<asrwt>0</asrwt>
<pdfrwt beam="1">  1       21 0.11486530E-01 0.18801672E+03</pdfrwt>
<pdfrwt beam="2">  1       21 0.80423686E-01 0.18801672E+03</pdfrwt>
<totfact> 0.86395039E+04</totfact>
</mgrwt>
</event>
<event>
 4    1  0.4199484E+000  0.2151092E+03  0.7546771E-02  0.1137583E+00
         21   -1    0    0  501  502  0.00000000000E+00  0.00000000000E+00  0.36417699802E+03  0.36417699802E+03  0.00000000000E+00 0. -1.
         21   -1    0    0  502  503 -0.00000000000E+00 -0.00000000000E+00 -0.12709455267E+03  0.12709455267E+03  0.00000000000E+00 0. -1.
          6    1    1    2  501    0  0.97728620256E+02  0.82414095318E+02  0.11443308250E+03  0.24365323042E+03  0.17300000000E+03 0. -1.
         -6    1    1    2    0  503 -0.97728620256E+02 -0.82414095318E+02  0.12264936286E+03  0.24761832027E+03  0.17300000000E+03 0. -1.
<mgrwt>
<rscale>  2 0.21510920E+03</rscale>
<asrwt>0</asrwt>
<pdfrwt beam="1">  1       21 0.56027230E-01 0.21510920E+03</pdfrwt>
<pdfrwt beam="2">  1       21 0.19553008E-01 0.21510920E+03</pdfrwt>
<totfact> 0.71506252E+04</totfact>
</mgrwt>
</event>
<event>
 4    1  0.4199484E+000  0.2340273E+03  0.7546771E-02  0.1123837E+00
         21   -1    0    0  503  502  0.00000000000E+00  0.00000000000E+00  0.32831417542E+03  0.32831417542E+03  0.00000000000E+00 0. -1.
         21   -1    0    0  501  503 -0.00000000000E+00 -0.00000000000E+00 -0.20633610376E+03  0.20633610376E+03  0.00000000000E+00 0.  1.
          6    1    1    2  501    0  0.35427116427E+02  0.15357314843E+03 -0.56001014086E+02  0.24063438257E+03  0.17300000000E+03 0.  1.
         -6    1    1    2    0  502 -0.35427116427E+02 -0.15357314843E+03  0.17797908574E+03  0.29401589661E+03  0.17300000000E+03 0. -1.
<mgrwt>
<rscale>  2 0.23402733E+03</rscale>
<asrwt>0</asrwt>
<pdfrwt beam="1">  1       21 0.50509873E-01 0.23402733E+03</pdfrwt>
<pdfrwt beam="2">  1       21 0.31744016E-01 0.23402733E+03</pdfrwt>
<totfact> 0.34864482E+04</totfact>
</mgrwt>
</event>
<event>
 4    1  0.4199484E+000  0.1754815E+03  0.7546771E-02  0.1172249E+00
         21   -1    0    0  503  502  0.00000000000E+00  0.00000000000E+00  0.18061776126E+04  0.18061776126E+04  0.00000000000E+00 0. -1.
         21   -1    0    0  501  503 -0.00000000000E+00 -0.00000000000E+00 -0.17090667278E+02  0.17090667278E+02  0.00000000000E+00 0. -1.
          6    1    1    2  501    0  0.29404281389E+02  0.36503534696E+00  0.84959711091E+03  0.86753040055E+03  0.17300000000E+03 0. -1.
         -6    1    1    2    0  502 -0.29404281389E+02 -0.36503534696E+00  0.93948983437E+03  0.95573787928E+03  0.17300000000E+03 0. -1.
<mgrwt>
<rscale>  2 0.17548147E+03</rscale>
<asrwt>0</asrwt>
<pdfrwt beam="1">  1       21 0.27787333E+00 0.17548147E+03</pdfrwt>
<pdfrwt beam="2">  1       21 0.26293348E-02 0.17548147E+03</pdfrwt>
<totfact> 0.36571421E+04</totfact>
</mgrwt>
</event>
<event>
 4    1  0.4199484E+000  0.2402524E+03  0.7546771E-02  0.1119625E+00
         21   -1    0    0  501  502  0.00000000000E+00  0.00000000000E+00  0.18965993244E+03  0.18965993244E+03  0.00000000000E+00 0. -1.
         21   -1    0    0  502  503 -0.00000000000E+00 -0.00000000000E+00 -0.30465068721E+03  0.30465068721E+03  0.00000000000E+00 0. -1.
          6    1    1    2  501    0  0.15088810214E+03  0.70887287398E+02 -0.65379922621E+02  0.24898948002E+03  0.17300000000E+03 0. -1.
         -6    1    1    2    0  503 -0.15088810214E+03 -0.70887287398E+02 -0.49610832156E+02  0.24532113963E+03  0.17300000000E+03 0. -1.
<mgrwt>
<rscale>  2 0.24025242E+03</rscale>
<asrwt>0</asrwt>
<pdfrwt beam="1">  1       21 0.29178451E-01 0.24025242E+03</pdfrwt>
<pdfrwt beam="2">  1       21 0.46869337E-01 0.24025242E+03</pdfrwt>
<totfact> 0.47955725E+04</totfact>
</mgrwt>
</event>
<event>
 4    1  0.4199484E+000  0.1843029E+03  0.7546771E-02  0.1163702E+00
         21   -1    0    0  501  502  0.00000000000E+00  0.00000000000E+00  0.17972496156E+03  0.17972496156E+03  0.00000000000E+00 0. -1.
         21   -1    0    0  502  503 -0.00000000000E+00 -0.00000000000E+00 -0.49875822173E+03  0.49875822173E+03  0.00000000000E+00 0. -1.
          6    1    1    2  501    0 -0.62416890465E+02  0.11944881594E+02  0.10783159799E+03  0.21353033025E+03  0.17300000000E+03 0. -1.
         -6    1    1    2    0  503  0.62416890465E+02 -0.11944881594E+02 -0.42686485817E+03  0.46495285304E+03  0.17300000000E+03 0. -1.
<mgrwt>
<rscale>  2 0.18430287E+03</rscale>
<asrwt>0</asrwt>
<pdfrwt beam="1">  1       21 0.27649994E-01 0.18430287E+03</pdfrwt>
<pdfrwt beam="2">  1       21 0.76732034E-01 0.18430287E+03</pdfrwt>
<totfact> 0.18954880E+04</totfact>
</mgrwt>
</event>
<event>
 4    1  0.4199484E+000  0.1811156E+03  0.7546771E-02  0.1166728E+00
         21   -1    0    0  501  502  0.00000000000E+00  0.00000000000E+00  0.20494499125E+03  0.20494499125E+03  0.00000000000E+00 0.  1.
         21   -1    0    0  502  503 -0.00000000000E+00 -0.00000000000E+00 -0.51663055069E+03  0.51663055069E+03  0.00000000000E+00 0.  1.
          6    1    1    2  501    0  0.46062593119E+02 -0.27424200086E+02  0.14389150500E+03  0.23131712960E+03  0.17300000000E+03 0.  1.
         -6    1    1    2    0  503 -0.46062593119E+02  0.27424200086E+02 -0.45557706444E+03  0.49025841235E+03  0.17300000000E+03 0.  1.
<mgrwt>
<rscale>  2 0.18111557E+03</rscale>
<asrwt>0</asrwt>
<pdfrwt beam="1">  1       21 0.31529999E-01 0.18111557E+03</pdfrwt>
<pdfrwt beam="2">  1       21 0.79481623E-01 0.18111557E+03</pdfrwt>
<totfact> 0.13597416E+04</totfact>
</mgrwt>
</event>
<event>
 4    1  0.4199484E+000  0.2023583E+03  0.7546771E-02  0.1147764E+00
         21   -1    0    0  503  502  0.00000000000E+00  0.00000000000E+00  0.26839280027E+03  0.26839280027E+03  0.00000000000E+00 0.  1.
         21   -1    0    0  501  503 -0.00000000000E+00 -0.00000000000E+00 -0.15106046934E+04  0.15106046934E+04  0.00000000000E+00 0.  1.
          6    1    1    2  501    0  0.36598193247E+02 -0.98389264379E+02 -0.14644897329E+04  0.14784042251E+04  0.17300000000E+03 0.  1.
         -6    1    1    2    0  502 -0.36598193247E+02  0.98389264379E+02  0.22227783972E+03  0.30059326859E+03  0.17300000000E+03 0.  1.
<mgrwt>
<rscale>  2 0.20235828E+03</rscale>
<asrwt>0</asrwt>
<pdfrwt beam="1">  1       21 0.41291200E-01 0.20235828E+03</pdfrwt>
<pdfrwt beam="2">  1       21 0.23240072E+00 0.20235828E+03</pdfrwt>
<totfact> 0.47193823E+02</totfact>
</mgrwt>
</event>
<event>
 4    1  0.4199484E+000  0.2066917E+03  0.7546771E-02  0.1144213E+00
         21   -1    0    0  501  502  0.00000000000E+00  0.00000000000E+00  0.31504494869E+02  0.31504494869E+02  0.00000000000E+00 0.  1.
         21   -1    0    0  502  503 -0.00000000000E+00 -0.00000000000E+00 -0.15332958172E+04  0.15332958172E+04  0.00000000000E+00 0.  1.
          6    1    1    2  501    0 -0.92518412273E+02 -0.65059867470E+02 -0.48487657976E+03  0.52709272482E+03  0.17300000000E+03 0.  1.
         -6    1    1    2    0  503  0.92518412273E+02  0.65059867470E+02 -0.10169147426E+04  0.10377075873E+04  0.17300000000E+03 0.  1.
<mgrwt>
<rscale>  2 0.20669166E+03</rscale>
<asrwt>0</asrwt>
<pdfrwt beam="1">  1       21 0.48468457E-02 0.20669166E+03</pdfrwt>
<pdfrwt beam="2">  1       21 0.23589165E+00 0.20669166E+03</pdfrwt>
<totfact> 0.22597184E+04</totfact>
</mgrwt>
</event>
<event>
 4    1  0.4199484E+000  0.1740242E+03  0.7546771E-02  0.1173715E+00
         21   -1    0    0  501  502  0.00000000000E+00  0.00000000000E+00  0.59699211212E+03  0.59699211212E+03  0.00000000000E+00 0. -1.
         21   -1    0    0  502  503 -0.00000000000E+00 -0.00000000000E+00 -0.74272076346E+02  0.74272076346E+02  0.00000000000E+00 0. -1.
          6    1    1    2  501    0 -0.68240149396E+01 -0.17574581315E+02  0.45032797712E+03  0.48278330550E+03  0.17300000000E+03 0. -1.
         -6    1    1    2    0  503  0.68240149396E+01  0.17574581315E+02  0.72392058652E+02  0.18848088297E+03  0.17300000000E+03 0. -1.
<mgrwt>
<rscale>  2 0.17402423E+03</rscale>
<asrwt>0</asrwt>
<pdfrwt beam="1">  1       21 0.91844937E-01 0.17402423E+03</pdfrwt>
<pdfrwt beam="2">  1       21 0.11426474E-01 0.17402423E+03</pdfrwt>
<totfact> 0.64750187E+04</totfact>
</mgrwt>
</event>
<event>
 4    1  0.4199484E+000  0.1895318E+03  0.7546771E-02  0.1158884E+00
         21   -1    0    0  501  502  0.00000000000E+00  0.00000000000E+00  0.46031058767E+03  0.46031058767E+03  0.00000000000E+00 0.  1.
         21   -1    0    0  502  503 -0.00000000000E+00 -0.00000000000E+00 -0.34382081307E+03  0.34382081307E+03  0.00000000000E+00 0.  1.
          6    1    1    2  501    0 -0.51052202010E+02 -0.58197596844E+02  0.41174811163E+03  0.45327562811E+03  0.17300000000E+03 0.  1.
         -6    1    1    2    0  503  0.51052202010E+02  0.58197596844E+02 -0.29525833703E+03  0.35085577264E+03  0.17300000000E+03 0.  1.
<mgrwt>
<rscale>  2 0.18953176E+03</rscale>
<asrwt>0</asrwt>
<pdfrwt beam="1">  1       21 0.70817013E-01 0.18953176E+03</pdfrwt>
<pdfrwt beam="2">  1       21 0.52895510E-01 0.18953176E+03</pdfrwt>
<totfact> 0.61311426E+03</totfact>
</mgrwt>
</event>
<event>
 4    1  0.4199484E+000  0.1884760E+03  0.7546771E-02  0.1159843E+00
         21   -1    0    0  501  502  0.00000000000E+00  0.00000000000E+00  0.34396617300E+03  0.34396617300E+03  0.00000000000E+00 0. -1.
         21   -1    0    0  502  503 -0.00000000000E+00 -0.00000000000E+00 -0.58082706851E+03  0.58082706851E+03  0.00000000000E+00 0. -1.
          6    1    1    2  501    0  0.28064827213E+02  0.69329432446E+02  0.30084696144E+03  0.35500999837E+03  0.17300000000E+03 0. -1.
         -6    1    1    2    0  503 -0.28064827213E+02 -0.69329432446E+02 -0.53770785696E+03  0.56978324314E+03  0.17300000000E+03 0. -1.
<mgrwt>
<rscale>  2 0.18847601E+03</rscale>
<asrwt>0</asrwt>
<pdfrwt beam="1">  1       21 0.52917873E-01 0.18847601E+03</pdfrwt>
<pdfrwt beam="2">  1       21 0.89358010E-01 0.18847601E+03</pdfrwt>
<totfact> 0.36268600E+03</totfact>
</mgrwt>
</event>
<event>
 4    1  0.4199484E+000  0.1748282E+03  0.7546771E-02  0.1172904E+00
         21   -1    0    0  503  502  0.00000000000E+00  0.00000000000E+00  0.11504747081E+04  0.11504747081E+04  0.00000000000E+00 0.  1.
         21   -1    0    0  501  503 -0.00000000000E+00 -0.00000000000E+00 -0.27258705858E+02  0.27258705858E+02  0.00000000000E+00 0. -1.
          6    1    1    2  501    0  0.81525077203E+01  0.23862655549E+02  0.46781663757E+03  0.49941695616E+03  0.17300000000E+03 0. -1.
         -6    1    1    2    0  502 -0.81525077203E+01 -0.23862655549E+02  0.65539936471E+03  0.67831645784E+03  0.17300000000E+03 0.  1.
<mgrwt>
<rscale>  2 0.17482817E+03</rscale>
<asrwt>0</asrwt>
<pdfrwt beam="1">  1       21 0.17699607E+00 0.17482817E+03</pdfrwt>
<pdfrwt beam="2">  1       21 0.41936480E-02 0.17482817E+03</pdfrwt>
<totfact> 0.69766937E+04</totfact>
</mgrwt>
</event>
<event>
 4    1  0.4199484E+000  0.2035849E+03  0.7546771E-02  0.1146749E+00
         21   -1    0    0  501  502  0.00000000000E+00  0.00000000000E+00  0.37074166127E+03  0.37074166127E+03  0.00000000000E+00 0. -1.
         21   -1    0    0  502  503 -0.00000000000E+00 -0.00000000000E+00 -0.19724114640E+03  0.19724114640E+03  0.00000000000E+00 0.  1.
          6    1    1    2  501    0 -0.78719306973E+02 -0.72945697280E+02  0.27366969176E+03  0.34108929070E+03  0.17300000000E+03 0. -1.
         -6    1    1    2    0  503  0.78719306973E+02  0.72945697280E+02 -0.10016917689E+03  0.22689351696E+03  0.17300000000E+03 0.  1.
<mgrwt>
<rscale>  2 0.20358488E+03</rscale>
<asrwt>0</asrwt>
<pdfrwt beam="1">  1       21 0.57037179E-01 0.20358488E+03</pdfrwt>
<pdfrwt beam="2">  1       21 0.30344792E-01 0.20358488E+03</pdfrwt>
<totfact> 0.29910851E+04</totfact>
</mgrwt>
</event>
<event>
 4    1  0.4199484E+000  0.2393857E+03  0.7546771E-02  0.1120203E+00
         21   -1    0    0  501  502  0.00000000000E+00  0.00000000000E+00  0.23635513538E+03  0.23635513538E+03  0.00000000000E+00 0.  1.
         21   -1    0    0  502  503 -0.00000000000E+00 -0.00000000000E+00 -0.41746977959E+03  0.41746977959E+03  0.00000000000E+00 0. -1.
          6    1    1    2  501    0  0.99722818494E+02 -0.13202978433E+03  0.12111116516E+03  0.26827862160E+03  0.17300000000E+03 0. -1.
         -6    1    1    2    0  503 -0.99722818494E+02  0.13202978433E+03 -0.30222580937E+03  0.38554629337E+03  0.17300000000E+03 0.  1.
<mgrwt>
<rscale>  2 0.23938568E+03</rscale>
<asrwt>0</asrwt>
<pdfrwt beam="1">  1       21 0.36362329E-01 0.23938568E+03</pdfrwt>
<pdfrwt beam="2">  1       21 0.64226120E-01 0.23938568E+03</pdfrwt>
<totfact> 0.15874895E+04</totfact>
</mgrwt>
</event>
<event>
 4    1  0.4199484E+000  0.1887000E+03  0.7546771E-02  0.1159639E+00
         21   -1    0    0  501  502  0.00000000000E+00  0.00000000000E+00  0.57148412543E+03  0.57148412543E+03  0.00000000000E+00 0. -1.
         21   -1    0    0  502  503 -0.00000000000E+00 -0.00000000000E+00 -0.13928994029E+03  0.13928994029E+03  0.00000000000E+00 0. -1.
          6    1    1    2  501    0  0.27209001006E+02 -0.70273479365E+02  0.48030013368E+03  0.51603867108E+03  0.17300000000E+03 0. -1.
         -6    1    1    2    0  503 -0.27209001006E+02  0.70273479365E+02 -0.48105948541E+02  0.19473539463E+03  0.17300000000E+03 0. -1.
<mgrwt>
<rscale>  2 0.18870000E+03</rscale>
<asrwt>0</asrwt>
<pdfrwt beam="1">  1       21 0.87920633E-01 0.18870000E+03</pdfrwt>
<pdfrwt beam="2">  1       21 0.21429222E-01 0.18870000E+03</pdfrwt>
<totfact> 0.22542643E+04</totfact>
</mgrwt>
</event>
<event>
 4    1  0.4199484E+000  0.2676423E+03  0.7546771E-02  0.1102637E+00
         21   -1    0    0  503  502  0.00000000000E+00  0.00000000000E+00  0.11982898499E+03  0.11982898499E+03  0.00000000000E+00 0. -1.
         21   -1    0    0  501  503 -0.00000000000E+00 -0.00000000000E+00 -0.97567555041E+03  0.97567555041E+03  0.00000000000E+00 0.  1.
          6    1    1    2  501    0  0.73862421067E+02  0.19038846264E+03 -0.76881175202E+03  0.81406629582E+03  0.17300000000E+03 0. -1.
         -6    1    1    2    0  502 -0.73862421067E+02 -0.19038846264E+03 -0.87034813409E+02  0.28143823958E+03  0.17300000000E+03 0. -1.
<mgrwt>
<rscale>  2 0.26764234E+03</rscale>
<asrwt>0</asrwt>
<pdfrwt beam="1">  1       21 0.18435228E-01 0.26764234E+03</pdfrwt>
<pdfrwt beam="2">  1       21 0.15010393E+00 0.26764234E+03</pdfrwt>
<totfact> 0.76123236E+03</totfact>
</mgrwt>
</event>
<event>
 4    1  0.4199484E+000  0.1953853E+03  0.7546771E-02  0.1153692E+00
         21   -1    0    0  501  502  0.00000000000E+00  0.00000000000E+00  0.60814206970E+03  0.60814206970E+03  0.00000000000E+00 0.  1.
         21   -1    0    0  502  503 -0.00000000000E+00 -0.00000000000E+00 -0.77185142597E+02  0.77185142597E+02  0.00000000000E+00 0.  1.
          6    1    1    2  501    0 -0.70018313745E+02  0.57825987290E+02  0.41354361025E+03  0.45737700712E+03  0.17300000000E+03 0.  1.
         -6    1    1    2    0  503  0.70018313745E+02 -0.57825987290E+02  0.11741331686E+03  0.22795020518E+03  0.17300000000E+03 0.  1.
<mgrwt>
<rscale>  2 0.19538528E+03</rscale>
<asrwt>0</asrwt>
<pdfrwt beam="1">  1       21 0.93560316E-01 0.19538528E+03</pdfrwt>
<pdfrwt beam="2">  1       21 0.11874638E-01 0.19538528E+03</pdfrwt>
<totfact> 0.57327938E+04</totfact>
</mgrwt>
</event>
<event>
 4    1  0.4199484E+000  0.3730431E+03  0.7546771E-02  0.1053535E+00
         21   -1    0    0  501  502  0.00000000000E+00  0.00000000000E+00  0.68257763217E+03  0.68257763217E+03  0.00000000000E+00 0.  1.
         21   -1    0    0  502  503 -0.00000000000E+00 -0.00000000000E+00 -0.23734217580E+03  0.23734217580E+03  0.00000000000E+00 0. -1.
          6    1    1    2  501    0  0.30839253649E+03 -0.11885354131E+03  0.39533520550E+03  0.54355408705E+03  0.17300000000E+03 0.  1.
         -6    1    1    2    0  503 -0.30839253649E+03  0.11885354131E+03  0.49900250878E+02  0.37636572092E+03  0.17300000000E+03 0.  1.
<mgrwt>
<rscale>  2 0.37304305E+03</rscale>
<asrwt>0</asrwt>
<pdfrwt beam="1">  1       21 0.10501194E+00 0.37304305E+03</pdfrwt>
<pdfrwt beam="2">  1       21 0.36514181E-01 0.37304305E+03</pdfrwt>
<totfact> 0.47650971E+03</totfact>
</mgrwt>
</event>
<event>
 4    1  0.4199484E+000  0.1983854E+03  0.7546771E-02  0.1151108E+00
         21   -1    0    0  503  502  0.00000000000E+00  0.00000000000E+00  0.40555525715E+02  0.40555525715E+02  0.00000000000E+00 0.  1.
         21   -1    0    0  501  503 -0.00000000000E+00 -0.00000000000E+00 -0.15638875559E+04  0.15638875559E+04  0.00000000000E+00 0. -1.
          6    1    1    2  501    0 -0.22780690240E+02 -0.94386536932E+02 -0.12558424864E+04  0.12714154037E+04  0.17300000000E+03 0. -1.
         -6    1    1    2    0  502  0.22780690240E+02  0.94386536932E+02 -0.26748954379E+03  0.33302767789E+03  0.17300000000E+03 0.  1.
<mgrwt>
<rscale>  2 0.19838543E+03</rscale>
<asrwt>0</asrwt>
<pdfrwt beam="1">  1       21 0.62393118E-02 0.19838543E+03</pdfrwt>
<pdfrwt beam="2">  1       21 0.24059808E+00 0.19838543E+03</pdfrwt>
<totfact> 0.13863279E+04</totfact>
</mgrwt>
</event>
<event>
 4    1  0.4199484E+000  0.1779054E+03  0.7546771E-02  0.1169846E+00
         21   -1    0    0  501  502  0.00000000000E+00  0.00000000000E+00  0.18986368285E+03  0.18986368285E+03  0.00000000000E+00 0.  1.
         21   -1    0    0  502  503 -0.00000000000E+00 -0.00000000000E+00 -0.16830688201E+03  0.16830688201E+03  0.00000000000E+00 0.  1.
          6    1    1    2  501    0  0.19298612040E+02  0.36727079652E+02 -0.67189899902E+01  0.17803218707E+03  0.17300000000E+03 0.  1.
         -6    1    1    2    0  503 -0.19298612040E+02 -0.36727079652E+02  0.28275790826E+02  0.18013837779E+03  0.17300000000E+03 0.  1.
<mgrwt>
<rscale>  2 0.17790535E+03</rscale>
<asrwt>0</asrwt>
<pdfrwt beam="1">  1       21 0.29209797E-01 0.17790535E+03</pdfrwt>
<pdfrwt beam="2">  1       21 0.25893367E-01 0.17790535E+03</pdfrwt>
<totfact> 0.15970649E+05</totfact>
</mgrwt>
</event>
<event>
 4    1  0.4199484E+000  0.3694113E+03  0.7546771E-02  0.1054918E+00
         21   -1    0    0  501  502  0.00000000000E+00  0.00000000000E+00  0.25770002275E+03  0.25770002275E+03  0.00000000000E+00 0.  1.
         21   -1    0    0  502  503 -0.00000000000E+00 -0.00000000000E+00 -0.53689371927E+03  0.53689371927E+03  0.00000000000E+00 0. -1.
          6    1    1    2  501    0 -0.23434735385E+03 -0.22719386545E+03 -0.18606601093E+03  0.41362458241E+03  0.17300000000E+03 0. -1.
         -6    1    1    2    0  503  0.23434735385E+03  0.22719386545E+03 -0.93127685595E+02  0.38096915961E+03  0.17300000000E+03 0.  1.
<mgrwt>
<rscale>  2 0.36941134E+03</rscale>
<asrwt>0</asrwt>
<pdfrwt beam="1">  1       21 0.39646157E-01 0.36941134E+03</pdfrwt>
<pdfrwt beam="2">  1       21 0.82599034E-01 0.36941134E+03</pdfrwt>
<totfact> 0.71414560E+03</totfact>
</mgrwt>
</event>
<event>
 4    1  0.4199484E+000  0.1861205E+03  0.7546771E-02  0.1162008E+00
         21   -1    0    0  503  502  0.00000000000E+00  0.00000000000E+00  0.39167028502E+02  0.39167028502E+02  0.00000000000E+00 0.  1.
         21   -1    0    0  501  503 -0.00000000000E+00 -0.00000000000E+00 -0.10801562573E+04  0.10801562573E+04  0.00000000000E+00 0.  1.
          6    1    1    2  501    0  0.68235992329E+02 -0.74631837415E+01 -0.75872477702E+03  0.78121964711E+03  0.17300000000E+03 0.  1.
         -6    1    1    2    0  502 -0.68235992329E+02  0.74631837415E+01 -0.28226445177E+03  0.33810363869E+03  0.17300000000E+03 0.  1.
<mgrwt>
<rscale>  2 0.18612052E+03</rscale>
<asrwt>0</asrwt>
<pdfrwt beam="1">  1       21 0.60256964E-02 0.18612052E+03</pdfrwt>
<pdfrwt beam="2">  1       21 0.16617789E+00 0.18612052E+03</pdfrwt>
<totfact> 0.44627798E+04</totfact>
</mgrwt>
</event>
<event>
 4    1  0.4199484E+000  0.1879174E+03  0.7546771E-02  0.1160353E+00
         21   -1    0    0  503  502  0.00000000000E+00  0.00000000000E+00  0.12328033296E+03  0.12328033296E+03  0.00000000000E+00 0.  1.
         21   -1    0    0  501  503 -0.00000000000E+00 -0.00000000000E+00 -0.36319984814E+03  0.36319984814E+03  0.00000000000E+00 0.  1.
          6    1    1    2  501    0 -0.18369589629E+01 -0.73352417778E+02 -0.23177915530E+03  0.29838654199E+03  0.17300000000E+03 0.  1.
         -6    1    1    2    0  502  0.18369589629E+01  0.73352417778E+02 -0.81403598862E+01  0.18809363910E+03  0.17300000000E+03 0.  1.
<mgrwt>
<rscale>  2 0.18791741E+03</rscale>
<asrwt>0</asrwt>
<pdfrwt beam="1">  1       21 0.18966205E-01 0.18791741E+03</pdfrwt>
<pdfrwt beam="2">  1       21 0.55876899E-01 0.18791741E+03</pdfrwt>
<totfact> 0.77016705E+04</totfact>
</mgrwt>
</event>
<event>
 4    1  0.4199484E+000  0.1969373E+03  0.7546771E-02  0.1152349E+00
         21   -1    0    0  503  502  0.00000000000E+00  0.00000000000E+00  0.22436537323E+04  0.22436537323E+04  0.00000000000E+00 0. -1.
         21   -1    0    0  501  503 -0.00000000000E+00 -0.00000000000E+00 -0.17488652725E+02  0.17488652725E+02  0.00000000000E+00 0.  1.
          6    1    1    2  501    0  0.90649740114E+02 -0.25257066544E+02  0.99144747987E+03  0.10108176889E+04  0.17300000000E+03 0. -1.
         -6    1    1    2    0  502 -0.90649740114E+02  0.25257066544E+02  0.12347175997E+04  0.12503246962E+04  0.17300000000E+03 0. -1.
<mgrwt>
<rscale>  2 0.19693729E+03</rscale>
<asrwt>0</asrwt>
<pdfrwt beam="1">  1       21 0.34517727E+00 0.19693729E+03</pdfrwt>
<pdfrwt beam="2">  1       21 0.26905637E-02 0.19693729E+03</pdfrwt>
<totfact> 0.14069644E+04</totfact>
</mgrwt>
</event>
<event>
 4    1  0.4199484E+000  0.2181347E+03  0.7546771E-02  0.1135281E+00
         21   -1    0    0  503  502  0.00000000000E+00  0.00000000000E+00  0.89297249895E+03  0.89297249895E+03  0.00000000000E+00 0.  1.
         21   -1    0    0  501  503 -0.00000000000E+00 -0.00000000000E+00 -0.53623976679E+02  0.53623976679E+02  0.00000000000E+00 0.  1.
          6    1    1    2  501    0 -0.14122120188E+02 -0.13211478027E+03  0.38208788367E+03  0.43997034024E+03  0.17300000000E+03 0.  1.
         -6    1    1    2    0  502  0.14122120188E+02  0.13211478027E+03  0.45726063860E+03  0.50662613538E+03  0.17300000000E+03 0.  1.
<mgrwt>
<rscale>  2 0.21813470E+03</rscale>
<asrwt>0</asrwt>
<pdfrwt beam="1">  1       21 0.13738037E+00 0.21813470E+03</pdfrwt>
<pdfrwt beam="2">  1       21 0.82498432E-02 0.21813470E+03</pdfrwt>
<totfact> 0.42129588E+04</totfact>
</mgrwt>
</event>
<event>
 4    1  0.4199484E+000  0.1934463E+03  0.7546771E-02  0.1155389E+00
         21   -1    0    0  501  502  0.00000000000E+00  0.00000000000E+00  0.63359284259E+03  0.63359284259E+03  0.00000000000E+00 0. -1.
         21   -1    0    0  502  503 -0.00000000000E+00 -0.00000000000E+00 -0.60383338876E+02  0.60383338876E+02  0.00000000000E+00 0. -1.
          6    1    1    2  501    0  0.67341231677E+02 -0.54383948495E+02  0.33792781443E+03  0.38937984424E+03  0.17300000000E+03 0. -1.
         -6    1    1    2    0  503 -0.67341231677E+02  0.54383948495E+02  0.23528168929E+03  0.30459633723E+03  0.17300000000E+03 0. -1.
<mgrwt>
<rscale>  2 0.19344626E+03</rscale>
<asrwt>0</asrwt>
<pdfrwt beam="1">  1       21 0.97475817E-01 0.19344626E+03</pdfrwt>
<pdfrwt beam="2">  1       21 0.92897449E-02 0.19344626E+03</pdfrwt>
<totfact> 0.80549409E+04</totfact>
</mgrwt>
</event>
<event>
 4    1  0.4199484E+000  0.1971688E+03  0.7546771E-02  0.1152150E+00
         21   -1    0    0  501  502  0.00000000000E+00  0.00000000000E+00  0.17133558663E+02  0.17133558663E+02  0.00000000000E+00 0.  1.
         21   -1    0    0  502  503 -0.00000000000E+00 -0.00000000000E+00 -0.22880558147E+04  0.22880558147E+04  0.00000000000E+00 0.  1.
          6    1    1    2  501    0  0.74367619944E+02  0.58446475303E+02 -0.10301930200E+04  0.10488914109E+04  0.17300000000E+03 0.  1.
         -6    1    1    2    0  503 -0.74367619944E+02 -0.58446475303E+02 -0.12407292361E+04  0.12562979625E+04  0.17300000000E+03 0.  1.
<mgrwt>
<rscale>  2 0.19716879E+03</rscale>
<asrwt>0</asrwt>
<pdfrwt beam="1">  1       21 0.26359323E-02 0.19716879E+03</pdfrwt>
<pdfrwt beam="2">  1       21 0.35200856E+00 0.19716879E+03</pdfrwt>
<totfact> 0.13259511E+04</totfact>
</mgrwt>
</event>
<event>
 4    1  0.4199484E+000  0.1993997E+03  0.7546771E-02  0.1150246E+00
         21   -1    0    0  501  502  0.00000000000E+00  0.00000000000E+00  0.19655678301E+03  0.19655678301E+03  0.00000000000E+00 0. -1.
         21   -1    0    0  502  503 -0.00000000000E+00 -0.00000000000E+00 -0.21694712537E+03  0.21694712537E+03  0.00000000000E+00 0. -1.
          6    1    1    2  501    0 -0.66826784231E+02 -0.73248961071E+02  0.43556340979E+02  0.20410140673E+03  0.17300000000E+03 0. -1.
         -6    1    1    2    0  503  0.66826784231E+02  0.73248961071E+02 -0.63946683335E+02  0.20940250165E+03  0.17300000000E+03 0. -1.
<mgrwt>
<rscale>  2 0.19939967E+03</rscale>
<asrwt>0</asrwt>
<pdfrwt beam="1">  1       21 0.30239505E-01 0.19939967E+03</pdfrwt>
<pdfrwt beam="2">  1       21 0.33376481E-01 0.19939967E+03</pdfrwt>
<totfact> 0.90452698E+04</totfact>
</mgrwt>
</event>
<event>
 4    1  0.4199484E+000  0.1980056E+03  0.7546771E-02  0.1151433E+00
         21   -1    0    0  501  502  0.00000000000E+00  0.00000000000E+00  0.54128907411E+02  0.54128907411E+02  0.00000000000E+00 0. -1.
         21   -1    0    0  502  503 -0.00000000000E+00 -0.00000000000E+00 -0.74023791503E+03  0.74023791503E+03  0.00000000000E+00 0.  1.
          6    1    1    2  501    0 -0.48581430150E+02  0.83168910512E+02 -0.28479642444E+03  0.34686485323E+03  0.17300000000E+03 0. -1.
         -6    1    1    2    0  503  0.48581430150E+02 -0.83168910512E+02 -0.40131258318E+03  0.44750196921E+03  0.17300000000E+03 0. -1.
<mgrwt>
<rscale>  2 0.19800561E+03</rscale>
<asrwt>0</asrwt>
<pdfrwt beam="1">  1       21 0.83275247E-02 0.19800561E+03</pdfrwt>
<pdfrwt beam="2">  1       21 0.11388275E+00 0.19800561E+03</pdfrwt>
<totfact> 0.67003213E+04</totfact>
</mgrwt>
</event>
<event>
 4    1  0.4199484E+000  0.1743042E+03  0.7546771E-02  0.1173432E+00
         21   -1    0    0  503  502  0.00000000000E+00  0.00000000000E+00  0.30380954155E+03  0.30380954155E+03  0.00000000000E+00 0.  1.
         21   -1    0    0  501  503 -0.00000000000E+00 -0.00000000000E+00 -0.10168645892E+03  0.10168645892E+03  0.00000000000E+00 0.  1.
          6    1    1    2  501    0  0.11957501179E+01  0.21249107769E+02  0.74976677919E+02  0.18974576841E+03  0.17300000000E+03 0.  1.
         -6    1    1    2    0  502 -0.11957501179E+01 -0.21249107769E+02  0.12714640471E+03  0.21575023205E+03  0.17300000000E+03 0.  1.
<mgrwt>
<rscale>  2 0.17430420E+03</rscale>
<asrwt>0</asrwt>
<pdfrwt beam="1">  1       21 0.46739929E-01 0.17430420E+03</pdfrwt>
<pdfrwt beam="2">  1       21 0.15644071E-01 0.17430420E+03</pdfrwt>
<totfact> 0.16016564E+05</totfact>
</mgrwt>
</event>
<event>
 4    1  0.4199484E+000  0.2043492E+03  0.7546771E-02  0.1146121E+00
         21   -1    0    0  503  502  0.00000000000E+00  0.00000000000E+00  0.54349459668E+03  0.54349459668E+03  0.00000000000E+00 0.  1.
         21   -1    0    0  501  503 -0.00000000000E+00 -0.00000000000E+00 -0.22312541303E+03  0.22312541303E+03  0.00000000000E+00 0.  1.
          6    1    1    2  501    0 -0.10072116207E+03 -0.41046631361E+02 -0.15018976543E+03  0.25360509473E+03  0.17300000000E+03 0.  1.
         -6    1    1    2    0  502  0.10072116207E+03  0.41046631361E+02  0.47055894908E+03  0.51301491498E+03  0.17300000000E+03 0.  1.
<mgrwt>
<rscale>  2 0.20434916E+03</rscale>
<asrwt>0</asrwt>
<pdfrwt beam="1">  1       21 0.83614553E-01 0.20434916E+03</pdfrwt>
<pdfrwt beam="2">  1       21 0.34326987E-01 0.20434916E+03</pdfrwt>
<totfact> 0.10092246E+04</totfact>
</mgrwt>
</event>
<event>
 4    1  0.4199484E+000  0.1848438E+03  0.7546771E-02  0.1163196E+00
         21   -1    0    0  501  502  0.00000000000E+00  0.00000000000E+00  0.32265967211E+03  0.32265967211E+03  0.00000000000E+00 0. -1.
         21   -1    0    0  502  503 -0.00000000000E+00 -0.00000000000E+00 -0.10608841605E+03  0.10608841605E+03  0.00000000000E+00 0.  1.
          6    1    1    2  501    0  0.64773280057E+00  0.65098354775E+02  0.11749978416E+03  0.21902834207E+03  0.17300000000E+03 0.  1.
         -6    1    1    2    0  503 -0.64773280057E+00 -0.65098354775E+02  0.99071471902E+02  0.20971974608E+03  0.17300000000E+03 0.  1.
<mgrwt>
<rscale>  2 0.18484376E+03</rscale>
<asrwt>0</asrwt>
<pdfrwt beam="1">  1       21 0.49639949E-01 0.18484376E+03</pdfrwt>
<pdfrwt beam="2">  1       21 0.16321295E-01 0.18484376E+03</pdfrwt>
<totfact> 0.13040265E+05</totfact>
</mgrwt>
</event>
<event>
 4    1  0.4199484E+000  0.2060723E+03  0.7546771E-02  0.1144715E+00
         21   -1    0    0  501  502  0.00000000000E+00  0.00000000000E+00  0.18223555578E+03  0.18223555578E+03  0.00000000000E+00 0.  1.
         21   -1    0    0  502  503 -0.00000000000E+00 -0.00000000000E+00 -0.23510588343E+03  0.23510588343E+03  0.00000000000E+00 0.  1.
          6    1    1    2  501    0  0.43390066632E+02 -0.10321874442E+03 -0.46057176810E+02  0.21115650740E+03  0.17300000000E+03 0.  1.
         -6    1    1    2    0  503 -0.43390066632E+02  0.10321874442E+03 -0.68131508338E+01  0.20618493181E+03  0.17300000000E+03 0.  1.
<mgrwt>
<rscale>  2 0.20607233E+03</rscale>
<asrwt>0</asrwt>
<pdfrwt beam="1">  1       21 0.28036239E-01 0.20607233E+03</pdfrwt>
<pdfrwt beam="2">  1       21 0.36170136E-01 0.20607233E+03</pdfrwt>
<totfact> 0.89084015E+04</totfact>
</mgrwt>
</event>
<event>
 4    1  0.4199484E+000  0.1880525E+03  0.7546771E-02  0.1160230E+00
         21   -1    0    0  501  502  0.00000000000E+00  0.00000000000E+00  0.87427003490E+02  0.87427003490E+02  0.00000000000E+00 0. -1.
         21   -1    0    0  502  503 -0.00000000000E+00 -0.00000000000E+00 -0.40705355740E+03  0.40705355740E+03  0.00000000000E+00 0. -1.
          6    1    1    2  501    0  0.72805194858E+02 -0.11582689789E+02 -0.17941619885E+03  0.25991138396E+03  0.17300000000E+03 0.  1.
         -6    1    1    2    0  503 -0.72805194858E+02  0.11582689789E+02 -0.14021035506E+03  0.23456917693E+03  0.17300000000E+03 0.  1.
<mgrwt>
<rscale>  2 0.18805253E+03</rscale>
<asrwt>0</asrwt>
<pdfrwt beam="1">  1       21 0.13450308E-01 0.18805253E+03</pdfrwt>
<pdfrwt beam="2">  1       21 0.62623626E-01 0.18805253E+03</pdfrwt>
<totfact> 0.11314844E+05</totfact>
</mgrwt>
</event>
<event>
 4    1  0.4199484E+000  0.1745076E+03  0.7546771E-02  0.1173227E+00
         21   -1    0    0  501  502  0.00000000000E+00  0.00000000000E+00  0.26534484620E+03  0.26534484620E+03  0.00000000000E+00 0. -1.
         21   -1    0    0  502  503 -0.00000000000E+00 -0.00000000000E+00 -0.13856936806E+03  0.13856936806E+03  0.00000000000E+00 0. -1.
          6    1    1    2  501    0  0.20076587678E+02 -0.10992123605E+02  0.14708926957E+03  0.22822828347E+03  0.17300000000E+03 0. -1.
         -6    1    1    2    0  503 -0.20076587678E+02  0.10992123605E+02 -0.20313791434E+02  0.17568593079E+03  0.17300000000E+03 0. -1.
<mgrwt>
<rscale>  2 0.17450758E+03</rscale>
<asrwt>0</asrwt>
<pdfrwt beam="1">  1       21 0.40822284E-01 0.17450758E+03</pdfrwt>
<pdfrwt beam="2">  1       21 0.21318364E-01 0.17450758E+03</pdfrwt>
<totfact> 0.11916080E+05</totfact>
</mgrwt>
</event>
<event>
 4    1  0.4199484E+000  0.2345292E+03  0.7546771E-02  0.1123492E+00
         21   -1    0    0  503  502  0.00000000000E+00  0.00000000000E+00  0.29417911540E+03  0.29417911540E+03  0.00000000000E+00 0. -1.
         21   -1    0    0  501  503 -0.00000000000E+00 -0.00000000000E+00 -0.19329883531E+03  0.19329883531E+03  0.00000000000E+00 0. -1.
          6    1    1    2  501    0  0.87710898759E+02 -0.13183986808E+03  0.63519240122E+01  0.23461521586E+03  0.17300000000E+03 0. -1.
         -6    1    1    2    0  502 -0.87710898759E+02  0.13183986808E+03  0.94528356079E+02  0.25286273486E+03  0.17300000000E+03 0. -1.
<mgrwt>
<rscale>  2 0.23452921E+03</rscale>
<asrwt>0</asrwt>
<pdfrwt beam="1">  1       21 0.45258325E-01 0.23452921E+03</pdfrwt>
<pdfrwt beam="2">  1       21 0.29738282E-01 0.23452921E+03</pdfrwt>
<totfact> 0.49796721E+04</totfact>
</mgrwt>
</event>
<event>
 4    1  0.4199484E+000  0.2969686E+03  0.7546771E-02  0.1086766E+00
         21   -1    0    0  503  502  0.00000000000E+00  0.00000000000E+00  0.21209942165E+03  0.21209942165E+03  0.00000000000E+00 0.  1.
         21   -1    0    0  501  503 -0.00000000000E+00 -0.00000000000E+00 -0.48933731794E+03  0.48933731794E+03  0.00000000000E+00 0. -1.
          6    1    1    2  501    0 -0.23624320404E+03  0.49502642591E+02 -0.27458054711E+03  0.40445622746E+03  0.17300000000E+03 0. -1.
         -6    1    1    2    0  502  0.23624320404E+03 -0.49502642591E+02 -0.26573491749E+01  0.29698051213E+03  0.17300000000E+03 0.  1.
<mgrwt>
<rscale>  2 0.29696862E+03</rscale>
<asrwt>0</asrwt>
<pdfrwt beam="1">  1       21 0.32630681E-01 0.29696862E+03</pdfrwt>
<pdfrwt beam="2">  1       21 0.75282664E-01 0.29696862E+03</pdfrwt>
<totfact> 0.13471078E+04</totfact>
</mgrwt>
</event>
<event>
 4    1  0.4199484E+000  0.1975534E+03  0.7546771E-02  0.1151820E+00
         21   -1    0    0  501  502  0.00000000000E+00  0.00000000000E+00  0.60002210420E+03  0.60002210420E+03  0.00000000000E+00 0.  1.
         21   -1    0    0  502  503 -0.00000000000E+00 -0.00000000000E+00 -0.10735643827E+03  0.10735643827E+03  0.00000000000E+00 0.  1.
          6    1    1    2  501    0  0.29170265055E+02  0.90815459631E+02  0.46838040002E+03  0.50833802847E+03  0.17300000000E+03 0.  1.
         -6    1    1    2    0  503 -0.29170265055E+02 -0.90815459631E+02  0.24285265922E+02  0.19904051400E+03  0.17300000000E+03 0.  1.
<mgrwt>
<rscale>  2 0.19755342E+03</rscale>
<asrwt>0</asrwt>
<pdfrwt beam="1">  1       21 0.92311091E-01 0.19755342E+03</pdfrwt>
<pdfrwt beam="2">  1       21 0.16516375E-01 0.19755342E+03</pdfrwt>
<totfact> 0.32496500E+04</totfact>
</mgrwt>
</event>
<event>
 4    1  0.4199484E+000  0.3844381E+03  0.7546771E-02  0.1049306E+00
         21   -1    0    0  503  502  0.00000000000E+00  0.00000000000E+00  0.38132259287E+03  0.38132259287E+03  0.00000000000E+00 0. -1.
         21   -1    0    0  501  503 -0.00000000000E+00 -0.00000000000E+00 -0.40780681450E+03  0.40780681450E+03  0.00000000000E+00 0.  1.
          6    1    1    2  501    0 -0.28300224855E+03  0.19435368682E+03 -0.10111714380E+03  0.39751390546E+03  0.17300000000E+03 0.  1.
         -6    1    1    2    0  502  0.28300224855E+03 -0.19435368682E+03  0.74632922167E+02  0.39161550191E+03  0.17300000000E+03 0.  1.
<mgrwt>
<rscale>  2 0.38443807E+03</rscale>
<asrwt>0</asrwt>
<pdfrwt beam="1">  1       21 0.58665014E-01 0.38443807E+03</pdfrwt>
<pdfrwt beam="2">  1       21 0.62739510E-01 0.38443807E+03</pdfrwt>
<totfact> 0.57772669E+03</totfact>
</mgrwt>
</event>
<event>
 4    1  0.4199484E+000  0.2294138E+03  0.7546771E-02  0.1127053E+00
         21   -1    0    0  503  502  0.00000000000E+00  0.00000000000E+00  0.34818584679E+03  0.34818584679E+03  0.00000000000E+00 0. -1.
         21   -1    0    0  501  503 -0.00000000000E+00 -0.00000000000E+00 -0.15183196448E+03  0.15183196448E+03  0.00000000000E+00 0.  1.
          6    1    1    2  501    0 -0.31877976055E+02 -0.14725994549E+03  0.81506653044E+02  0.24346258726E+03  0.17300000000E+03 0.  1.
         -6    1    1    2    0  502  0.31877976055E+02  0.14725994549E+03  0.11484722927E+03  0.25655522402E+03  0.17300000000E+03 0.  1.
<mgrwt>
<rscale>  2 0.22941381E+03</rscale>
<asrwt>0</asrwt>
<pdfrwt beam="1">  1       21 0.53567053E-01 0.22941381E+03</pdfrwt>
<pdfrwt beam="2">  1       21 0.23358764E-01 0.22941381E+03</pdfrwt>
<totfact> 0.55902773E+04</totfact>
</mgrwt>
</event>
<event>
 4    1  0.4199484E+000  0.3232539E+03  0.7546771E-02  0.1074161E+00
         21   -1    0    0  503  502  0.00000000000E+00  0.00000000000E+00  0.16984654342E+04  0.16984654342E+04  0.00000000000E+00 0.  1.
         21   -1    0    0  501  503 -0.00000000000E+00 -0.00000000000E+00 -0.77258456033E+02  0.77258456033E+02  0.00000000000E+00 0. -1.
          6    1    1    2  501    0  0.86084330186E+02 -0.25914011093E+03  0.40989833117E+03  0.52202466503E+03  0.17300000000E+03 0. -1.
         -6    1    1    2    0  502 -0.86084330186E+02  0.25914011093E+03  0.12113086470E+04  0.12536992252E+04  0.17300000000E+03 0.  1.
<mgrwt>
<rscale>  2 0.32325394E+03</rscale>
<asrwt>0</asrwt>
<pdfrwt beam="1">  1       21 0.26130235E+00 0.32325394E+03</pdfrwt>
<pdfrwt beam="2">  1       21 0.11885918E-01 0.32325394E+03</pdfrwt>
<totfact> 0.30476895E+03</totfact>
</mgrwt>
</event>
<event>
 4    1  0.4199484E+000  0.1927379E+03  0.7546771E-02  0.1156015E+00
         21   -1    0    0  501  502  0.00000000000E+00  0.00000000000E+00  0.20359416333E+03  0.20359416333E+03  0.00000000000E+00 0.  1.
         21   -1    0    0  502  503 -0.00000000000E+00 -0.00000000000E+00 -0.18778273805E+03  0.18778273805E+03  0.00000000000E+00 0. -1.
          6    1    1    2  501    0  0.75332806063E+02 -0.39292297639E+02 -0.25038550841E+02  0.19435751941E+03  0.17300000000E+03 0. -1.
         -6    1    1    2    0  503 -0.75332806063E+02  0.39292297639E+02  0.40849976119E+02  0.19701938197E+03  0.17300000000E+03 0.  1.
<mgrwt>
<rscale>  2 0.19273795E+03</rscale>
<asrwt>0</asrwt>
<pdfrwt beam="1">  1       21 0.31322179E-01 0.19273795E+03</pdfrwt>
<pdfrwt beam="2">  1       21 0.28889652E-01 0.19273795E+03</pdfrwt>
<totfact> 0.11232533E+05</totfact>
</mgrwt>
</event>
<event>
 4    1  0.4199484E+000  0.2505049E+03  0.7546771E-02  0.1112986E+00
         21   -1    0    0  501  502  0.00000000000E+00  0.00000000000E+00  0.23815904464E+03  0.23815904464E+03  0.00000000000E+00 0.  1.
         21   -1    0    0  502  503 -0.00000000000E+00 -0.00000000000E+00 -0.26854671778E+03  0.26854671778E+03  0.00000000000E+00 0.  1.
          6    1    1    2  501    0  0.16810369333E+03  0.67563535945E+02  0.19569549716E+02  0.25126808467E+03  0.17300000000E+03 0.  1.
         -6    1    1    2    0  503 -0.16810369333E+03 -0.67563535945E+02 -0.49957222857E+02  0.25543767775E+03  0.17300000000E+03 0.  1.
<mgrwt>
<rscale>  2 0.25050486E+03</rscale>
<asrwt>0</asrwt>
<pdfrwt beam="1">  1       21 0.36639853E-01 0.25050486E+03</pdfrwt>
<pdfrwt beam="2">  1       21 0.41314879E-01 0.25050486E+03</pdfrwt>
<totfact> 0.39443758E+04</totfact>
</mgrwt>
</event>
<event>
 4    1  0.4199484E+000  0.1836580E+03  0.7546771E-02  0.1164309E+00
         21   -1    0    0  501  502  0.00000000000E+00  0.00000000000E+00  0.12756882077E+04  0.12756882077E+04  0.00000000000E+00 0. -1.
         21   -1    0    0  502  503 -0.00000000000E+00 -0.00000000000E+00 -0.31763570813E+02  0.31763570813E+02  0.00000000000E+00 0. -1.
          6    1    1    2  501    0 -0.39195589139E+02 -0.47591565409E+02  0.88957014052E+03  0.90833104439E+03  0.17300000000E+03 0. -1.
         -6    1    1    2    0  503  0.39195589139E+02  0.47591565409E+02  0.35435449635E+03  0.39912073410E+03  0.17300000000E+03 0. -1.
<mgrwt>
<rscale>  2 0.18365797E+03</rscale>
<asrwt>0</asrwt>
<pdfrwt beam="1">  1       21 0.19625968E+00 0.18365797E+03</pdfrwt>
<pdfrwt beam="2">  1       21 0.48867042E-02 0.18365797E+03</pdfrwt>
<totfact> 0.39934179E+04</totfact>
</mgrwt>
</event>
<event>
 4    1  0.4199484E+000  0.2345503E+03  0.7546771E-02  0.1123477E+00
         21   -1    0    0  501  502  0.00000000000E+00  0.00000000000E+00  0.19734278186E+03  0.19734278186E+03  0.00000000000E+00 0.  1.
         21   -1    0    0  502  503 -0.00000000000E+00 -0.00000000000E+00 -0.27911155500E+03  0.27911155500E+03  0.00000000000E+00 0.  1.
          6    1    1    2  501    0  0.28454925372E+02  0.15580483594E+03 -0.32586865865E+02  0.23680315350E+03  0.17300000000E+03 0.  1.
         -6    1    1    2    0  503 -0.28454925372E+02 -0.15580483594E+03 -0.49181907272E+02  0.23965118335E+03  0.17300000000E+03 0.  1.
<mgrwt>
<rscale>  2 0.23455027E+03</rscale>
<asrwt>0</asrwt>
<pdfrwt beam="1">  1       21 0.30360428E-01 0.23455027E+03</pdfrwt>
<pdfrwt beam="2">  1       21 0.42940239E-01 0.23455027E+03</pdfrwt>
<totfact> 0.53280885E+04</totfact>
</mgrwt>
</event>
<event>
 4    1  0.4199484E+000  0.1906674E+03  0.7546771E-02  0.1157861E+00
         21   -1    0    0  503  502  0.00000000000E+00  0.00000000000E+00  0.27237595766E+04  0.27237595766E+04  0.00000000000E+00 0.  1.
         21   -1    0    0  501  503 -0.00000000000E+00 -0.00000000000E+00 -0.18905348743E+02  0.18905348743E+02  0.00000000000E+00 0.  1.
          6    1    1    2  501    0  0.18047345668E+02  0.78098336997E+02  0.60885556643E+03  0.63801187896E+03  0.17300000000E+03 0. -1.
         -6    1    1    2    0  502 -0.18047345668E+02 -0.78098336997E+02  0.20959986614E+04  0.21046530464E+04  0.17300000000E+03 0. -1.
<mgrwt>
<rscale>  2 0.19066740E+03</rscale>
<asrwt>0</asrwt>
<pdfrwt beam="1">  1       21 0.41903962E+00 0.19066740E+03</pdfrwt>
<pdfrwt beam="2">  1       21 0.29085174E-02 0.19066740E+03</pdfrwt>
<totfact> 0.44154452E+03</totfact>
</mgrwt>
</event>
<event>
 4    1  0.4199484E+000  0.2769340E+03  0.7546771E-02  0.1097375E+00
         21   -1    0    0  503  502  0.00000000000E+00  0.00000000000E+00  0.23839502672E+03  0.23839502672E+03  0.00000000000E+00 0.  1.
         21   -1    0    0  501  503 -0.00000000000E+00 -0.00000000000E+00 -0.33362922040E+03  0.33362922040E+03  0.00000000000E+00 0. -1.
          6    1    1    2  501    0  0.20640951540E+03 -0.64486796575E+02 -0.10169262695E+03  0.29501495785E+03  0.17300000000E+03 0. -1.
         -6    1    1    2    0  502 -0.20640951540E+03  0.64486796575E+02  0.64584332735E+01  0.27700928927E+03  0.17300000000E+03 0.  1.
<mgrwt>
<rscale>  2 0.27693399E+03</rscale>
<asrwt>0</asrwt>
<pdfrwt beam="1">  1       21 0.36676158E-01 0.27693399E+03</pdfrwt>
<pdfrwt beam="2">  1       21 0.51327572E-01 0.27693399E+03</pdfrwt>
<totfact> 0.24810723E+04</totfact>
</mgrwt>
</event>
<event>
 4    1  0.4199484E+000  0.3853051E+03  0.7546771E-02  0.1048990E+00
         21   -1    0    0  501  502  0.00000000000E+00  0.00000000000E+00  0.18509349343E+03  0.18509349343E+03  0.00000000000E+00 0. -1.
         21   -1    0    0  502  503 -0.00000000000E+00 -0.00000000000E+00 -0.88099263554E+03  0.88099263554E+03  0.00000000000E+00 0.  1.
          6    1    1    2  501    0  0.17183706948E+03 -0.29833371917E+03 -0.18841805221E+03  0.42890715643E+03  0.17300000000E+03 0.  1.
         -6    1    1    2    0  503 -0.17183706948E+03  0.29833371917E+03 -0.50748108990E+03  0.63717897254E+03  0.17300000000E+03 0.  1.
<mgrwt>
<rscale>  2 0.38530506E+03</rscale>
<asrwt>0</asrwt>
<pdfrwt beam="1">  1       21 0.28475922E-01 0.38530506E+03</pdfrwt>
<pdfrwt beam="2">  1       21 0.13553733E+00 0.38530506E+03</pdfrwt>
<totfact> 0.40908313E+03</totfact>
</mgrwt>
</event>
<event>
 4    1  0.4199484E+000  0.5958607E+03  0.7546771E-02  0.9914031E-01
         21   -1    0    0  501  502  0.00000000000E+00  0.00000000000E+00  0.44015663288E+03  0.44015663288E+03  0.00000000000E+00 0.  1.
         21   -1    0    0  502  503 -0.00000000000E+00 -0.00000000000E+00 -0.81643333884E+03  0.81643333884E+03  0.00000000000E+00 0. -1.
          6    1    1    2  501    0  0.28487948757E+03 -0.49392780079E+03 -0.25693470367E+03  0.64889555152E+03  0.17300000000E+03 0. -1.
         -6    1    1    2    0  503 -0.28487948757E+03  0.49392780079E+03 -0.11934200229E+03  0.60769442020E+03  0.17300000000E+03 0.  1.
<mgrwt>
<rscale>  2 0.59586072E+03</rscale>
<asrwt>0</asrwt>
<pdfrwt beam="1">  1       21 0.67716405E-01 0.59586072E+03</pdfrwt>
<pdfrwt beam="2">  1       21 0.12560513E+00 0.59586072E+03</pdfrwt>
<totfact> 0.75108343E+02</totfact>
</mgrwt>
</event>
<event>
 4    1  0.4199484E+000  0.1847572E+03  0.7546771E-02  0.1163277E+00
         21   -1    0    0  501  502  0.00000000000E+00  0.00000000000E+00  0.86619524508E+03  0.86619524508E+03  0.00000000000E+00 0. -1.
         21   -1    0    0  502  503 -0.00000000000E+00 -0.00000000000E+00 -0.46136901540E+02  0.46136901540E+02  0.00000000000E+00 0. -1.
          6    1    1    2  501    0  0.49119929658E+02 -0.42349206555E+02  0.58423528214E+03  0.61275287652E+03  0.17300000000E+03 0. -1.
         -6    1    1    2    0  503 -0.49119929658E+02  0.42349206555E+02  0.23582306140E+03  0.29957927010E+03  0.17300000000E+03 0. -1.
<mgrwt>
<rscale>  2 0.18475720E+03</rscale>
<asrwt>0</asrwt>
<pdfrwt beam="1">  1       21 0.13326079E+00 0.18475720E+03</pdfrwt>
<pdfrwt beam="2">  1       21 0.70979855E-02 0.18475720E+03</pdfrwt>
<totfact> 0.60197440E+04</totfact>
</mgrwt>
</event>
<event>
 4    1  0.4199484E+000  0.1737857E+03  0.7546771E-02  0.1173957E+00
         21   -1    0    0  501  502  0.00000000000E+00  0.00000000000E+00  0.65234886170E+03  0.65234886170E+03  0.00000000000E+00 0. -1.
         21   -1    0    0  502  503 -0.00000000000E+00 -0.00000000000E+00 -0.11880140861E+03  0.11880140861E+03  0.00000000000E+00 0. -1.
          6    1    1    2  501    0 -0.16128546061E+02 -0.35111032911E+01  0.56799246186E+03  0.59398391777E+03  0.17300000000E+03 0. -1.
         -6    1    1    2    0  503  0.16128546061E+02  0.35111032911E+01 -0.34445008770E+02  0.17716635254E+03  0.17300000000E+03 0. -1.
<mgrwt>
<rscale>  2 0.17378567E+03</rscale>
<asrwt>0</asrwt>
<pdfrwt beam="1">  1       21 0.10036136E+00 0.17378567E+03</pdfrwt>
<pdfrwt beam="2">  1       21 0.18277140E-01 0.17378567E+03</pdfrwt>
<totfact> 0.22473695E+04</totfact>
</mgrwt>
</event>
<event>
 4    1  0.4199484E+000  0.1798164E+03  0.7546771E-02  0.1167981E+00
         21   -1    0    0  503  502  0.00000000000E+00  0.00000000000E+00  0.52147701807E+03  0.52147701807E+03  0.00000000000E+00 0.  1.
         21   -1    0    0  501  503 -0.00000000000E+00 -0.00000000000E+00 -0.65725117199E+02  0.65725117199E+02  0.00000000000E+00 0.  1.
          6    1    1    2  501    0 -0.49022429476E+02  0.13158381700E+01  0.15802078642E+03  0.23938358123E+03  0.17300000000E+03 0. -1.
         -6    1    1    2    0  502  0.49022429476E+02 -0.13158381700E+01  0.29773111445E+03  0.34781855404E+03  0.17300000000E+03 0. -1.
<mgrwt>
<rscale>  2 0.17981638E+03</rscale>
<asrwt>0</asrwt>
<pdfrwt beam="1">  1       21 0.80227231E-01 0.17981638E+03</pdfrwt>
<pdfrwt beam="2">  1       21 0.10111557E-01 0.17981638E+03</pdfrwt>
<totfact> 0.10927305E+05</totfact>
</mgrwt>
</event>
<event>
 4    1  0.4199484E+000  0.1952092E+03  0.7546771E-02  0.1153845E+00
         21   -1    0    0  503  502  0.00000000000E+00  0.00000000000E+00  0.10078619911E+04  0.10078619911E+04  0.00000000000E+00 0.  1.
         21   -1    0    0  501  503 -0.00000000000E+00 -0.00000000000E+00 -0.39928838973E+02  0.39928838973E+02  0.00000000000E+00 0.  1.
          6    1    1    2  501    0 -0.79306893756E+02 -0.43451862587E+02  0.36326507506E+03  0.41239321348E+03  0.17300000000E+03 0.  1.
         -6    1    1    2    0  502  0.79306893756E+02  0.43451862587E+02  0.60466807710E+03  0.63539761663E+03  0.17300000000E+03 0.  1.
<mgrwt>
<rscale>  2 0.19520924E+03</rscale>
<asrwt>0</asrwt>
<pdfrwt beam="1">  1       21 0.15505567E+00 0.19520924E+03</pdfrwt>
<pdfrwt beam="2">  1       21 0.61428991E-02 0.19520924E+03</pdfrwt>
<totfact> 0.51782520E+04</totfact>
</mgrwt>
</event>
<event>
 4    1  0.4199484E+000  0.2581454E+03  0.7546771E-02  0.1108263E+00
         21   -1    0    0  503  502  0.00000000000E+00  0.00000000000E+00  0.14633760580E+03  0.14633760580E+03  0.00000000000E+00 0.  1.
         21   -1    0    0  501  503 -0.00000000000E+00 -0.00000000000E+00 -0.46083195859E+03  0.46083195859E+03  0.00000000000E+00 0.  1.
          6    1    1    2  501    0 -0.10730173819E+03  0.15873373901E+03 -0.19027100612E+03  0.32069006640E+03  0.17300000000E+03 0.  1.
         -6    1    1    2    0  502  0.10730173819E+03 -0.15873373901E+03 -0.12422334667E+03  0.28647949800E+03  0.17300000000E+03 0.  1.
<mgrwt>
<rscale>  2 0.25814543E+03</rscale>
<asrwt>0</asrwt>
<pdfrwt beam="1">  1       21 0.22513478E-01 0.25814543E+03</pdfrwt>
<pdfrwt beam="2">  1       21 0.70897224E-01 0.25814543E+03</pdfrwt>
<totfact> 0.32243699E+04</totfact>
</mgrwt>
</event>
<event>
 4    1  0.4199484E+000  0.1758434E+03  0.7546771E-02  0.1171888E+00
         21   -1    0    0  503  502  0.00000000000E+00  0.00000000000E+00  0.91702257902E+03  0.91702257902E+03  0.00000000000E+00 0.  1.
         21   -1    0    0  501  503 -0.00000000000E+00 -0.00000000000E+00 -0.96300781999E+02  0.96300781999E+02  0.00000000000E+00 0.  1.
          6    1    1    2  501    0 -0.31228758656E+02 -0.40822406777E+01  0.19213265565E+01  0.17585389263E+03  0.17300000000E+03 0.  1.
         -6    1    1    2    0  502  0.31228758656E+02  0.40822406777E+01  0.81880047047E+03  0.83746946840E+03  0.17300000000E+03 0.  1.
<mgrwt>
<rscale>  2 0.17584340E+03</rscale>
<asrwt>0</asrwt>
<pdfrwt beam="1">  1       21 0.14108039E+00 0.17584340E+03</pdfrwt>
<pdfrwt beam="2">  1       21 0.14815506E-01 0.17584340E+03</pdfrwt>
<totfact> 0.14244322E+04</totfact>
</mgrwt>
</event>
<event>
 4    1  0.4199484E+000  0.2256705E+03  0.7546771E-02  0.1129725E+00
         21   -1    0    0  501  502  0.00000000000E+00  0.00000000000E+00  0.18016571476E+03  0.18016571476E+03  0.00000000000E+00 0.  1.
         21   -1    0    0  502  503 -0.00000000000E+00 -0.00000000000E+00 -0.29381450507E+03  0.29381450507E+03  0.00000000000E+00 0. -1.
          6    1    1    2  501    0  0.14026626046E+03 -0.36380939854E+02 -0.10666010678E+02  0.22592246544E+03  0.17300000000E+03 0.  1.
         -6    1    1    2    0  503 -0.14026626046E+03  0.36380939854E+02 -0.10298277964E+03  0.24805775438E+03  0.17300000000E+03 0. -1.
<mgrwt>
<rscale>  2 0.22567055E+03</rscale>
<asrwt>0</asrwt>
<pdfrwt beam="1">  1       21 0.27717802E-01 0.22567055E+03</pdfrwt>
<pdfrwt beam="2">  1       21 0.45202231E-01 0.22567055E+03</pdfrwt>
<totfact> 0.57471031E+04</totfact>
</mgrwt>
</event>
<event>
 4    1  0.4199484E+000  0.1745886E+03  0.7546771E-02  0.1173145E+00
         21   -1    0    0  501  502  0.00000000000E+00  0.00000000000E+00  0.83303536191E+02  0.83303536191E+02  0.00000000000E+00 0.  1.
         21   -1    0    0  502  503 -0.00000000000E+00 -0.00000000000E+00 -0.39021816347E+03  0.39021816347E+03  0.00000000000E+00 0.  1.
          6    1    1    2  501    0  0.23368670875E+02  0.24656256369E+01 -0.94358663322E+02  0.19845586772E+03  0.17300000000E+03 0. -1.
         -6    1    1    2    0  503 -0.23368670875E+02 -0.24656256369E+01 -0.21255596396E+03  0.27506583195E+03  0.17300000000E+03 0. -1.
<mgrwt>
<rscale>  2 0.17458859E+03</rscale>
<asrwt>0</asrwt>
<pdfrwt beam="1">  1       21 0.12815929E-01 0.17458859E+03</pdfrwt>
<pdfrwt beam="2">  1       21 0.60033564E-01 0.17458859E+03</pdfrwt>
<totfact> 0.13582149E+05</totfact>
</mgrwt>
</event>
<event>
 4    1  0.4199484E+000  0.2094729E+03  0.7546771E-02  0.1141984E+00
         21   -1    0    0  503  502  0.00000000000E+00  0.00000000000E+00  0.11012511964E+04  0.11012511964E+04  0.00000000000E+00 0.  1.
         21   -1    0    0  501  503 -0.00000000000E+00 -0.00000000000E+00 -0.40127574177E+02  0.40127574177E+02  0.00000000000E+00 0.  1.
          6    1    1    2  501    0 -0.11519646485E+03 -0.26070679725E+02  0.48263737463E+03  0.52613471777E+03  0.17300000000E+03 0.  1.
         -6    1    1    2    0  502  0.11519646485E+03  0.26070679725E+02  0.57848624759E+03  0.61524405280E+03  0.17300000000E+03 0.  1.
<mgrwt>
<rscale>  2 0.20947292E+03</rscale>
<asrwt>0</asrwt>
<pdfrwt beam="1">  1       21 0.16942324E+00 0.20947292E+03</pdfrwt>
<pdfrwt beam="2">  1       21 0.61734738E-02 0.20947292E+03</pdfrwt>
<totfact> 0.40027684E+04</totfact>
</mgrwt>
</event>
<event>
 4    1  0.4199484E+000  0.2113048E+03  0.7546771E-02  0.1140537E+00
         21   -1    0    0  503  502  0.00000000000E+00  0.00000000000E+00  0.24223365640E+03  0.24223365640E+03  0.00000000000E+00 0. -1.
         21   -1    0    0  501  503 -0.00000000000E+00 -0.00000000000E+00 -0.32944654905E+03  0.32944654905E+03  0.00000000000E+00 0. -1.
          6    1    1    2  501    0 -0.11007436524E+03  0.51032940442E+02 -0.23331922284E+03  0.31478180799E+03  0.17300000000E+03 0. -1.
         -6    1    1    2    0  502  0.11007436524E+03 -0.51032940442E+02  0.14610633020E+03  0.25689839746E+03  0.17300000000E+03 0. -1.
<mgrwt>
<rscale>  2 0.21130482E+03</rscale>
<asrwt>0</asrwt>
<pdfrwt beam="1">  1       21 0.37266716E-01 0.21130482E+03</pdfrwt>
<pdfrwt beam="2">  1       21 0.50684084E-01 0.21130482E+03</pdfrwt>
<totfact> 0.25452167E+04</totfact>
</mgrwt>
</event>
<event>
 4    1  0.4199484E+000  0.1828339E+03  0.7546771E-02  0.1165088E+00
         21   -1    0    0  503  502  0.00000000000E+00  0.00000000000E+00  0.25308259805E+03  0.25308259805E+03  0.00000000000E+00 0. -1.
         21   -1    0    0  501  503 -0.00000000000E+00 -0.00000000000E+00 -0.16927712914E+03  0.16927712914E+03  0.00000000000E+00 0. -1.
          6    1    1    2  501    0  0.23989707371E+02  0.54071495425E+02 -0.57085388325E+02  0.19153844063E+03  0.17300000000E+03 0. -1.
         -6    1    1    2    0  502 -0.23989707371E+02 -0.54071495425E+02  0.14089085724E+03  0.23082128656E+03  0.17300000000E+03 0. -1.
<mgrwt>
<rscale>  2 0.18283389E+03</rscale>
<asrwt>0</asrwt>
<pdfrwt beam="1">  1       21 0.38935784E-01 0.18283389E+03</pdfrwt>
<pdfrwt beam="2">  1       21 0.26042635E-01 0.18283389E+03</pdfrwt>
<totfact> 0.89432166E+04</totfact>
</mgrwt>
</event>
<event>
 4    1  0.4199484E+000  0.1994003E+03  0.7546771E-02  0.1150246E+00
         21   -1    0    0  501  502  0.00000000000E+00  0.00000000000E+00  0.98625565085E+02  0.98625565085E+02  0.00000000000E+00 0.  1.
         21   -1    0    0  502  503 -0.00000000000E+00 -0.00000000000E+00 -0.96398893320E+03  0.96398893320E+03  0.00000000000E+00 0.  1.
          6    1    1    2  501    0  0.84429736404E+02 -0.51991305520E+02 -0.27424759077E+02  0.20127740472E+03  0.17300000000E+03 0.  1.
         -6    1    1    2    0  503 -0.84429736404E+02  0.51991305520E+02 -0.83793860904E+03  0.86133709357E+03  0.17300000000E+03 0.  1.
<mgrwt>
<rscale>  2 0.19940029E+03</rscale>
<asrwt>0</asrwt>
<pdfrwt beam="1">  1       21 0.15173164E-01 0.19940029E+03</pdfrwt>
<pdfrwt beam="2">  1       21 0.14830599E+00 0.19940029E+03</pdfrwt>
<totfact> 0.11772036E+04</totfact>
</mgrwt>
</event>
<event>
 4    1  0.4199484E+000  0.1828535E+03  0.7546771E-02  0.1165070E+00
         21   -1    0    0  503  502  0.00000000000E+00  0.00000000000E+00  0.62332665304E+03  0.62332665304E+03  0.00000000000E+00 0.  1.
         21   -1    0    0  501  503 -0.00000000000E+00 -0.00000000000E+00 -0.53732199086E+02  0.53732199086E+02  0.00000000000E+00 0.  1.
          6    1    1    2  501    0 -0.26659240145E+02  0.52874121320E+02  0.27079201741E+03  0.32674715681E+03  0.17300000000E+03 0.  1.
         -6    1    1    2    0  502  0.26659240145E+02 -0.52874121320E+02  0.29880243655E+03  0.35031169532E+03  0.17300000000E+03 0.  1.
<mgrwt>
<rscale>  2 0.18285346E+03</rscale>
<asrwt>0</asrwt>
<pdfrwt beam="1">  1       21 0.95896403E-01 0.18285346E+03</pdfrwt>
<pdfrwt beam="2">  1       21 0.82664926E-02 0.18285346E+03</pdfrwt>
<totfact> 0.10311385E+05</totfact>
</mgrwt>
</event>
<event>
 4    1  0.4199484E+000  0.1933259E+03  0.7546771E-02  0.1155495E+00
         21   -1    0    0  501  502  0.00000000000E+00  0.00000000000E+00  0.89765021201E+03  0.89765021201E+03  0.00000000000E+00 0. -1.
         21   -1    0    0  502  503 -0.00000000000E+00 -0.00000000000E+00 -0.20389441004E+03  0.20389441004E+03  0.00000000000E+00 0. -1.
          6    1    1    2  501    0  0.85575467000E+02 -0.11079305367E+02  0.83820704903E+03  0.86021274613E+03  0.17300000000E+03 0. -1.
         -6    1    1    2    0  503 -0.85575467000E+02  0.11079305367E+02 -0.14445124706E+03  0.24133187593E+03  0.17300000000E+03 0. -1.
<mgrwt>
<rscale>  2 0.19332592E+03</rscale>
<asrwt>0</asrwt>
<pdfrwt beam="1">  1       21 0.13810003E+00 0.19332592E+03</pdfrwt>
<pdfrwt beam="2">  1       21 0.31368371E-01 0.19332592E+03</pdfrwt>
<totfact> 0.36183264E+03</totfact>
</mgrwt>
</event>
<event>
 4    1  0.4199484E+000  0.2093482E+03  0.7546771E-02  0.1142083E+00
         21   -1    0    0  503  502  0.00000000000E+00  0.00000000000E+00  0.12117562884E+04  0.12117562884E+04  0.00000000000E+00 0. -1.
         21   -1    0    0  501  503 -0.00000000000E+00 -0.00000000000E+00 -0.40993911243E+02  0.40993911243E+02  0.00000000000E+00 0. -1.
          6    1    1    2  501    0  0.45124247547E+02  0.10891044303E+03  0.37046511625E+03  0.42552448188E+03  0.17300000000E+03 0. -1.
         -6    1    1    2    0  502 -0.45124247547E+02 -0.10891044303E+03  0.80029726094E+03  0.82722571780E+03  0.17300000000E+03 0. -1.
<mgrwt>
<rscale>  2 0.20934823E+03</rscale>
<asrwt>0</asrwt>
<pdfrwt beam="1">  1       21 0.18642402E+00 0.20934823E+03</pdfrwt>
<pdfrwt beam="2">  1       21 0.63067565E-02 0.20934823E+03</pdfrwt>
<totfact> 0.29480457E+04</totfact>
</mgrwt>
</event>
<event>
 4    1  0.4199484E+000  0.1774946E+03  0.7546771E-02  0.1170250E+00
         21   -1    0    0  503  502  0.00000000000E+00  0.00000000000E+00  0.29944130603E+03  0.29944130603E+03  0.00000000000E+00 0. -1.
         21   -1    0    0  501  503 -0.00000000000E+00 -0.00000000000E+00 -0.17003185024E+03  0.17003185024E+03  0.00000000000E+00 0. -1.
          6    1    1    2  501    0  0.36334724913E+02 -0.15973002781E+02 -0.80230812695E+02  0.19478534944E+03  0.17300000000E+03 0. -1.
         -6    1    1    2    0  502 -0.36334724913E+02  0.15973002781E+02  0.20964026848E+03  0.27468780683E+03  0.17300000000E+03 0. -1.
<mgrwt>
<rscale>  2 0.17749465E+03</rscale>
<asrwt>0</asrwt>
<pdfrwt beam="1">  1       21 0.46067893E-01 0.17749465E+03</pdfrwt>
<pdfrwt beam="2">  1       21 0.26158746E-01 0.17749465E+03</pdfrwt>
<totfact> 0.63135268E+04</totfact>
</mgrwt>
</event>
<event>
 4    1  0.4199484E+000  0.1896716E+03  0.7546771E-02  0.1158758E+00
         21   -1    0    0  501  502  0.00000000000E+00  0.00000000000E+00  0.89026535569E+02  0.89026535569E+02  0.00000000000E+00 0.  1.
         21   -1    0    0  502  503 -0.00000000000E+00 -0.00000000000E+00 -0.44436847023E+03  0.44436847023E+03  0.00000000000E+00 0. -1.
          6    1    1    2  501    0  0.20310471509E+02  0.75058666426E+02 -0.97383393943E+02  0.21321079727E+03  0.17300000000E+03 0.  1.
         -6    1    1    2    0  503 -0.20310471509E+02 -0.75058666426E+02 -0.25795854072E+03  0.32018420852E+03  0.17300000000E+03 0. -1.
<mgrwt>
<rscale>  2 0.18967161E+03</rscale>
<asrwt>0</asrwt>
<pdfrwt beam="1">  1       21 0.13696390E-01 0.18967161E+03</pdfrwt>
<pdfrwt beam="2">  1       21 0.68364382E-01 0.18967161E+03</pdfrwt>
<totfact> 0.90408882E+04</totfact>
</mgrwt>
</event>
<event>
 4    1  0.4199484E+000  0.2000042E+03  0.7546771E-02  0.1149735E+00
         21   -1    0    0  501  502  0.00000000000E+00  0.00000000000E+00  0.24603214875E+03  0.24603214875E+03  0.00000000000E+00 0.  1.
         21   -1    0    0  502  503 -0.00000000000E+00 -0.00000000000E+00 -0.27517630640E+03  0.27517630640E+03  0.00000000000E+00 0.  1.
          6    1    1    2  501    0 -0.30506794215E+02 -0.95613971642E+02  0.15212346261E+03  0.25128319471E+03  0.17300000000E+03 0.  1.
         -6    1    1    2    0  503  0.30506794215E+02  0.95613971642E+02 -0.18126762026E+03  0.26992526043E+03  0.17300000000E+03 0.  1.
<mgrwt>
<rscale>  2 0.20000424E+03</rscale>
<asrwt>0</asrwt>
<pdfrwt beam="1">  1       21 0.37851100E-01 0.20000424E+03</pdfrwt>
<pdfrwt beam="2">  1       21 0.42334816E-01 0.20000424E+03</pdfrwt>
<totfact> 0.35999128E+04</totfact>
</mgrwt>
</event>
<event>
 4    1  0.4199484E+000  0.2020528E+03  0.7546771E-02  0.1148019E+00
         21   -1    0    0  503  502  0.00000000000E+00  0.00000000000E+00  0.58338525670E+03  0.58338525670E+03  0.00000000000E+00 0. -1.
         21   -1    0    0  501  503 -0.00000000000E+00 -0.00000000000E+00 -0.14032355781E+03  0.14032355781E+03  0.00000000000E+00 0.  1.
          6    1    1    2  501    0 -0.10164470573E+03  0.23763235059E+02 -0.34669985432E+02  0.20500572049E+03  0.17300000000E+03 0.  1.
         -6    1    1    2    0  502  0.10164470573E+03 -0.23763235059E+02  0.47773168432E+03  0.51870309402E+03  0.17300000000E+03 0. -1.
<mgrwt>
<rscale>  2 0.20205281E+03</rscale>
<asrwt>0</asrwt>
<pdfrwt beam="1">  1       21 0.89751576E-01 0.20205281E+03</pdfrwt>
<pdfrwt beam="2">  1       21 0.21588240E-01 0.20205281E+03</pdfrwt>
<totfact> 0.21028136E+04</totfact>
</mgrwt>
</event>
<event>
 4    1  0.4199484E+000  0.1864843E+03  0.7546771E-02  0.1161671E+00
         21   -1    0    0  503  502  0.00000000000E+00  0.00000000000E+00  0.12930522522E+04  0.12930522522E+04  0.00000000000E+00 0. -1.
         21   -1    0    0  501  503 -0.00000000000E+00 -0.00000000000E+00 -0.35173044126E+02  0.35173044126E+02  0.00000000000E+00 0. -1.
          6    1    1    2  501    0 -0.38188698144E+02  0.58215428579E+02  0.30675464825E+03  0.35899140242E+03  0.17300000000E+03 0. -1.
         -6    1    1    2    0  502  0.38188698144E+02 -0.58215428579E+02  0.95112455982E+03  0.96923389390E+03  0.17300000000E+03 0. -1.
<mgrwt>
<rscale>  2 0.18648435E+03</rscale>
<asrwt>0</asrwt>
<pdfrwt beam="1">  1       21 0.19893108E+00 0.18648435E+03</pdfrwt>
<pdfrwt beam="2">  1       21 0.54112386E-02 0.18648435E+03</pdfrwt>
<totfact> 0.32221960E+04</totfact>
</mgrwt>
</event>
<event>
 4    1  0.4199484E+000  0.1993341E+03  0.7546771E-02  0.1150302E+00
         21   -1    0    0  501  502  0.00000000000E+00  0.00000000000E+00  0.57017351160E+03  0.57017351160E+03  0.00000000000E+00 0.  1.
         21   -1    0    0  502  503 -0.00000000000E+00 -0.00000000000E+00 -0.76432606836E+02  0.76432606836E+02  0.00000000000E+00 0. -1.
          6    1    1    2  501    0  0.99020607616E+02  0.31490927519E-01  0.34291183281E+03  0.39663913928E+03  0.17300000000E+03 0.  1.
         -6    1    1    2    0  503 -0.99020607616E+02 -0.31490927519E-01  0.15082907196E+03  0.24996697916E+03  0.17300000000E+03 0. -1.
<mgrwt>
<rscale>  2 0.19933410E+03</rscale>
<asrwt>0</asrwt>
<pdfrwt beam="1">  1       21 0.87718999E-01 0.19933410E+03</pdfrwt>
<pdfrwt beam="2">  1       21 0.11758863E-01 0.19933410E+03</pdfrwt>
<totfact> 0.67619342E+04</totfact>
</mgrwt>
</event>
<event>
 4    1  0.4199484E+000  0.2119522E+03  0.7546771E-02  0.1140029E+00
         21   -1    0    0  501  502  0.00000000000E+00  0.00000000000E+00  0.10808581836E+04  0.10808581836E+04  0.00000000000E+00 0. -1.
         21   -1    0    0  502  503 -0.00000000000E+00 -0.00000000000E+00 -0.43146907456E+02  0.43146907456E+02  0.00000000000E+00 0. -1.
          6    1    1    2  501    0 -0.80425894393E+02 -0.92338676627E+02  0.62653249873E+03  0.66141267576E+03  0.17300000000E+03 0. -1.
         -6    1    1    2    0  503  0.80425894393E+02  0.92338676627E+02  0.41117877737E+03  0.46259241525E+03  0.17300000000E+03 0. -1.
<mgrwt>
<rscale>  2 0.21195225E+03</rscale>
<asrwt>0</asrwt>
<pdfrwt beam="1">  1       21 0.16628585E+00 0.21195225E+03</pdfrwt>
<pdfrwt beam="2">  1       21 0.66379866E-02 0.21195225E+03</pdfrwt>
<totfact> 0.37135382E+04</totfact>
</mgrwt>
</event>
<event>
 4    1  0.4199484E+000  0.1942575E+03  0.7546771E-02  0.1154676E+00
         21   -1    0    0  503  502  0.00000000000E+00  0.00000000000E+00  0.78602941824E+03  0.78602941824E+03  0.00000000000E+00 0. -1.
         21   -1    0    0  501  503 -0.00000000000E+00 -0.00000000000E+00 -0.49485069902E+02  0.49485069902E+02  0.00000000000E+00 0. -1.
          6    1    1    2  501    0  0.69277555910E+02 -0.54841556637E+02  0.29610564229E+03  0.35413913577E+03  0.17300000000E+03 0.  1.
         -6    1    1    2    0  502 -0.69277555910E+02  0.54841556637E+02  0.44043870605E+03  0.48137535237E+03  0.17300000000E+03 0.  1.
<mgrwt>
<rscale>  2 0.19425750E+03</rscale>
<asrwt>0</asrwt>
<pdfrwt beam="1">  1       21 0.12092759E+00 0.19425750E+03</pdfrwt>
<pdfrwt beam="2">  1       21 0.76130882E-02 0.19425750E+03</pdfrwt>
<totfact> 0.67716849E+04</totfact>
</mgrwt>
</event>
<event>
 4    1  0.4199484E+000  0.2579405E+03  0.7546771E-02  0.1108387E+00
         21   -1    0    0  503  502  0.00000000000E+00  0.00000000000E+00  0.79792795994E+03  0.79792795994E+03  0.00000000000E+00 0. -1.
         21   -1    0    0  501  503 -0.00000000000E+00 -0.00000000000E+00 -0.89267699442E+02  0.89267699442E+02  0.00000000000E+00 0.  1.
          6    1    1    2  501    0 -0.15053186191E+03 -0.11808668468E+03  0.24043131485E+03  0.35261951692E+03  0.17300000000E+03 0.  1.
         -6    1    1    2    0  502  0.15053186191E+03  0.11808668468E+03  0.46822894565E+03  0.53457614246E+03  0.17300000000E+03 0. -1.
<mgrwt>
<rscale>  2 0.25794051E+03</rscale>
<asrwt>0</asrwt>
<pdfrwt beam="1">  1       21 0.12275814E+00 0.25794051E+03</pdfrwt>
<pdfrwt beam="2">  1       21 0.13733493E-01 0.25794051E+03</pdfrwt>
<totfact> 0.22149853E+04</totfact>
</mgrwt>
</event>
<event>
 4    1  0.4199484E+000  0.1746903E+03  0.7546771E-02  0.1173043E+00
         21   -1    0    0  503  502  0.00000000000E+00  0.00000000000E+00  0.23804772400E+03  0.23804772400E+03  0.00000000000E+00 0.  1.
         21   -1    0    0  501  503 -0.00000000000E+00 -0.00000000000E+00 -0.13065744432E+03  0.13065744432E+03  0.00000000000E+00 0.  1.
          6    1    1    2  501    0  0.22600230086E+02 -0.87718919192E+01  0.28390770585E+02  0.17698235037E+03  0.17300000000E+03 0. -1.
         -6    1    1    2    0  502 -0.22600230086E+02  0.87718919192E+01  0.78999509096E+02  0.19172281796E+03  0.17300000000E+03 0. -1.
<mgrwt>
<rscale>  2 0.17469034E+03</rscale>
<asrwt>0</asrwt>
<pdfrwt beam="1">  1       21 0.36622727E-01 0.17469034E+03</pdfrwt>
<pdfrwt beam="2">  1       21 0.20101145E-01 0.17469034E+03</pdfrwt>
<totfact> 0.16534637E+05</totfact>
</mgrwt>
</event>
<event>
 4    1  0.4199484E+000  0.1852396E+03  0.7546771E-02  0.1162826E+00
         21   -1    0    0  503  502  0.00000000000E+00  0.00000000000E+00  0.93063397617E+03  0.93063397617E+03  0.00000000000E+00 0. -1.
         21   -1    0    0  501  503 -0.00000000000E+00 -0.00000000000E+00 -0.46234076421E+03  0.46234076421E+03  0.00000000000E+00 0. -1.
          6    1    1    2  501    0  0.32925039385E+02 -0.57451220287E+02 -0.43399165359E+03  0.47187122853E+03  0.17300000000E+03 0. -1.
         -6    1    1    2    0  502 -0.32925039385E+02  0.57451220287E+02  0.90228486555E+03  0.92110351185E+03  0.17300000000E+03 0. -1.
<mgrwt>
<rscale>  2 0.18523958E+03</rscale>
<asrwt>0</asrwt>
<pdfrwt beam="1">  1       21 0.14317446E+00 0.18523958E+03</pdfrwt>
<pdfrwt beam="2">  1       21 0.71129348E-01 0.18523958E+03</pdfrwt>
<totfact> 0.60895301E+02</totfact>
</mgrwt>
</event>
<event>
 4    1  0.4199484E+000  0.1889411E+03  0.7546771E-02  0.1159420E+00
         21   -1    0    0  501  502  0.00000000000E+00  0.00000000000E+00  0.12512268069E+04  0.12512268069E+04  0.00000000000E+00 0. -1.
         21   -1    0    0  502  503 -0.00000000000E+00 -0.00000000000E+00 -0.47500149631E+02  0.47500149631E+02  0.00000000000E+00 0.  1.
          6    1    1    2  501    0 -0.73866155901E+01  0.75598859484E+02  0.10122226693E+04  0.10297055317E+04  0.17300000000E+03 0. -1.
         -6    1    1    2    0  503  0.73866155901E+01 -0.75598859484E+02  0.19150398799E+03  0.26902142491E+03  0.17300000000E+03 0.  1.
<mgrwt>
<rscale>  2 0.18894113E+03</rscale>
<asrwt>0</asrwt>
<pdfrwt beam="1">  1       21 0.19249641E+00 0.18894113E+03</pdfrwt>
<pdfrwt beam="2">  1       21 0.73077163E-02 0.18894113E+03</pdfrwt>
<totfact> 0.21148097E+04</totfact>
</mgrwt>
</event>
<event>
 4    1  0.4199484E+000  0.1849565E+03  0.7546771E-02  0.1163090E+00
         21   -1    0    0  501  502  0.00000000000E+00  0.00000000000E+00  0.53631160477E+02  0.53631160477E+02  0.00000000000E+00 0.  1.
         21   -1    0    0  502  503 -0.00000000000E+00 -0.00000000000E+00 -0.13139113614E+04  0.13139113614E+04  0.00000000000E+00 0. -1.
          6    1    1    2  501    0 -0.16265179885E+02  0.63366877295E+02 -0.13966249685E+03  0.23176395371E+03  0.17300000000E+03 0.  1.
         -6    1    1    2    0  503  0.16265179885E+02 -0.63366877295E+02 -0.11206177041E+04  0.11357785682E+04  0.17300000000E+03 0. -1.
<mgrwt>
<rscale>  2 0.18495653E+03</rscale>
<asrwt>0</asrwt>
<pdfrwt beam="1">  1       21 0.82509469E-02 0.18495653E+03</pdfrwt>
<pdfrwt beam="2">  1       21 0.20214023E+00 0.18495653E+03</pdfrwt>
<totfact> 0.14886377E+04</totfact>
</mgrwt>
</event>
<event>
 4    1  0.4199484E+000  0.2152448E+03  0.7546771E-02  0.1137479E+00
         21   -1    0    0  501  502  0.00000000000E+00  0.00000000000E+00  0.32336670410E+03  0.32336670410E+03  0.00000000000E+00 0. -1.
         21   -1    0    0  502  503 -0.00000000000E+00 -0.00000000000E+00 -0.16065167311E+03  0.16065167311E+03  0.00000000000E+00 0. -1.
          6    1    1    2  501    0  0.12728179858E+03  0.14165505614E+02  0.16095041951E+03  0.26876635828E+03  0.17300000000E+03 0. -1.
         -6    1    1    2    0  503 -0.12728179858E+03 -0.14165505614E+02  0.17646114841E+01  0.21525201893E+03  0.17300000000E+03 0. -1.
<mgrwt>
<rscale>  2 0.21524479E+03</rscale>
<asrwt>0</asrwt>
<pdfrwt beam="1">  1       21 0.49748724E-01 0.21524479E+03</pdfrwt>
<pdfrwt beam="2">  1       21 0.24715642E-01 0.21524479E+03</pdfrwt>
<totfact> 0.58996033E+04</totfact>
</mgrwt>
</event>
<event>
 4    1  0.4199484E+000  0.2169342E+03  0.7546771E-02  0.1136190E+00
         21   -1    0    0  501  502  0.00000000000E+00  0.00000000000E+00  0.27214360263E+02  0.27214360263E+02  0.00000000000E+00 0.  1.
         21   -1    0    0  502  503 -0.00000000000E+00 -0.00000000000E+00 -0.17303999098E+04  0.17303999098E+04  0.00000000000E+00 0. -1.
          6    1    1    2  501    0 -0.10937572720E+03 -0.71891559727E+02 -0.82894330684E+03  0.85685906193E+03  0.17300000000E+03 0. -1.
         -6    1    1    2    0  503  0.10937572720E+03  0.71891559727E+02 -0.87424224273E+03  0.90075520817E+03  0.17300000000E+03 0. -1.
<mgrwt>
<rscale>  2 0.21693420E+03</rscale>
<asrwt>0</asrwt>
<pdfrwt beam="1">  1       21 0.41868240E-02 0.21693420E+03</pdfrwt>
<pdfrwt beam="2">  1       21 0.26621541E+00 0.21693420E+03</pdfrwt>
<totfact> 0.18995363E+04</totfact>
</mgrwt>
</event>
<event>
 4    1  0.4199484E+000  0.1780497E+03  0.7546771E-02  0.1169704E+00
         21   -1    0    0  501  502  0.00000000000E+00  0.00000000000E+00  0.12845031527E+03  0.12845031527E+03  0.00000000000E+00 0.  1.
         21   -1    0    0  502  503 -0.00000000000E+00 -0.00000000000E+00 -0.58433411957E+03  0.58433411957E+03  0.00000000000E+00 0.  1.
          6    1    1    2  501    0 -0.18598220186E+02  0.37772963452E+02  0.42924827214E+02  0.18315084317E+03  0.17300000000E+03 0.  1.
         -6    1    1    2    0  503  0.18598220186E+02 -0.37772963452E+02 -0.49880863151E+03  0.52963359168E+03  0.17300000000E+03 0.  1.
<mgrwt>
<rscale>  2 0.17804969E+03</rscale>
<asrwt>0</asrwt>
<pdfrwt beam="1">  1       21 0.19761587E-01 0.17804969E+03</pdfrwt>
<pdfrwt beam="2">  1       21 0.89897558E-01 0.17804969E+03</pdfrwt>
<totfact> 0.25078134E+04</totfact>
</mgrwt>
</event>
<event>
 4    1  0.4199484E+000  0.1732308E+03  0.7546771E-02  0.1174520E+00
         21   -1    0    0  503  502  0.00000000000E+00  0.00000000000E+00  0.20612480271E+02  0.20612480271E+02  0.00000000000E+00 0. -1.
         21   -1    0    0  501  503 -0.00000000000E+00 -0.00000000000E+00 -0.14792709223E+04  0.14792709223E+04  0.00000000000E+00 0. -1.
          6    1    1    2  501    0 -0.61129878775E+01  0.65224696925E+01 -0.82367040835E+03  0.84168987925E+03  0.17300000000E+03 0. -1.
         -6    1    1    2    0  502  0.61129878775E+01 -0.65224696925E+01 -0.63498803365E+03  0.65819352330E+03  0.17300000000E+03 0. -1.
<mgrwt>
<rscale>  2 0.17323080E+03</rscale>
<asrwt>0</asrwt>
<pdfrwt beam="1">  1       21 0.31711511E-02 0.17323080E+03</pdfrwt>
<pdfrwt beam="2">  1       21 0.22758012E+00 0.17323080E+03</pdfrwt>
<totfact> 0.52948804E+04</totfact>
</mgrwt>
</event>
<event>
 4    1  0.4199484E+000  0.1908048E+03  0.7546771E-02  0.1157737E+00
         21   -1    0    0  501  502  0.00000000000E+00  0.00000000000E+00  0.17383742094E+04  0.17383742094E+04  0.00000000000E+00 0. -1.
         21   -1    0    0  502  503 -0.00000000000E+00 -0.00000000000E+00 -0.34096626685E+02  0.34096626685E+02  0.00000000000E+00 0. -1.
          6    1    1    2  501    0 -0.65696794694E+02  0.46490849762E+02  0.14025902535E+04  0.14155090559E+04  0.17300000000E+03 0. -1.
         -6    1    1    2    0  503  0.65696794694E+02 -0.46490849762E+02  0.30168732918E+03  0.35696178021E+03  0.17300000000E+03 0. -1.
<mgrwt>
<rscale>  2 0.19080479E+03</rscale>
<asrwt>0</asrwt>
<pdfrwt beam="1">  1       21 0.26744212E+00 0.19080479E+03</pdfrwt>
<pdfrwt beam="2">  1       21 0.52456362E-02 0.19080479E+03</pdfrwt>
<totfact> 0.13066028E+04</totfact>
</mgrwt>
</event>
<event>
 4    1  0.4199484E+000  0.2181604E+03  0.7546771E-02  0.1135262E+00
         21   -1    0    0  503  502  0.00000000000E+00  0.00000000000E+00  0.34167746063E+03  0.34167746063E+03  0.00000000000E+00 0. -1.
         21   -1    0    0  501  503 -0.00000000000E+00 -0.00000000000E+00 -0.13967153122E+03  0.13967153122E+03  0.00000000000E+00 0. -1.
          6    1    1    2  501    0 -0.10503316352E+03  0.81443273611E+02  0.11349862197E+03  0.24591850163E+03  0.17300000000E+03 0. -1.
         -6    1    1    2    0  502  0.10503316352E+03 -0.81443273611E+02  0.88507307443E+02  0.23543049022E+03  0.17300000000E+03 0. -1.
<mgrwt>
<rscale>  2 0.21816043E+03</rscale>
<asrwt>0</asrwt>
<pdfrwt beam="1">  1       21 0.52565763E-01 0.21816043E+03</pdfrwt>
<pdfrwt beam="2">  1       21 0.21487928E-01 0.21816043E+03</pdfrwt>
<totfact> 0.68468952E+04</totfact>
</mgrwt>
</event>
<event>
 4    1  0.4199484E+000  0.2543135E+03  0.7546771E-02  0.1110609E+00
         21   -1    0    0  501  502  0.00000000000E+00  0.00000000000E+00  0.21608979294E+04  0.21608979294E+04  0.00000000000E+00 0. -1.
         21   -1    0    0  502  503 -0.00000000000E+00 -0.00000000000E+00 -0.31684156455E+02  0.31684156455E+02  0.00000000000E+00 0.  1.
          6    1    1    2  501    0  0.17463941902E+03  0.65172374351E+02  0.13225694658E+04  0.13467981871E+04  0.17300000000E+03 0. -1.
         -6    1    1    2    0  503 -0.17463941902E+03 -0.65172374351E+02  0.80664430716E+03  0.84578389872E+03  0.17300000000E+03 0.  1.
<mgrwt>
<rscale>  2 0.25431352E+03</rscale>
<asrwt>0</asrwt>
<pdfrwt beam="1">  1       21 0.33244572E+00 0.25431352E+03</pdfrwt>
<pdfrwt beam="2">  1       21 0.48744873E-02 0.25431352E+03</pdfrwt>
<totfact> 0.58302040E+03</totfact>
</mgrwt>
</event>
<event>
 4    1  0.4199484E+000  0.1946063E+03  0.7546771E-02  0.1154371E+00
         21   -1    0    0  501  502  0.00000000000E+00  0.00000000000E+00  0.30796311713E+02  0.30796311713E+02  0.00000000000E+00 0.  1.
         21   -1    0    0  502  503 -0.00000000000E+00 -0.00000000000E+00 -0.15088959338E+04  0.15088959338E+04  0.00000000000E+00 0.  1.
          6    1    1    2  501    0 -0.32771185447E+02 -0.82877341605E+02 -0.40792328199E+03  0.45196571589E+03  0.17300000000E+03 0.  1.
         -6    1    1    2    0  503  0.32771185447E+02  0.82877341605E+02 -0.10701763400E+04  0.10877265296E+04  0.17300000000E+03 0.  1.
<mgrwt>
<rscale>  2 0.19460628E+03</rscale>
<asrwt>0</asrwt>
<pdfrwt beam="1">  1       21 0.47378941E-02 0.19460628E+03</pdfrwt>
<pdfrwt beam="2">  1       21 0.23213784E+00 0.19460628E+03</pdfrwt>
<totfact> 0.24977331E+04</totfact>
</mgrwt>
</event>
<event>
 4    1  0.4199484E+000  0.2286468E+03  0.7546771E-02  0.1127596E+00
         21   -1    0    0  503  502  0.00000000000E+00  0.00000000000E+00  0.53355957899E+02  0.53355957899E+02  0.00000000000E+00 0.  1.
         21   -1    0    0  501  503 -0.00000000000E+00 -0.00000000000E+00 -0.15651448344E+04  0.15651448344E+04  0.00000000000E+00 0.  1.
          6    1    1    2  501    0  0.69418713341E+02  0.13240628132E+03 -0.12507780952E+04  0.12715051020E+04  0.17300000000E+03 0.  1.
         -6    1    1    2    0  502 -0.69418713341E+02 -0.13240628132E+03 -0.26101078127E+03  0.34699569022E+03  0.17300000000E+03 0.  1.
<mgrwt>
<rscale>  2 0.22864685E+03</rscale>
<asrwt>0</asrwt>
<pdfrwt beam="1">  1       21 0.82086097E-02 0.22864685E+03</pdfrwt>
<pdfrwt beam="2">  1       21 0.24079149E+00 0.22864685E+03</pdfrwt>
<totfact> 0.83731286E+03</totfact>
</mgrwt>
</event>
<event>
 4    1  0.4199484E+000  0.1789301E+03  0.7546771E-02  0.1168843E+00
         21   -1    0    0  501  502  0.00000000000E+00  0.00000000000E+00  0.16072936442E+04  0.16072936442E+04  0.00000000000E+00 0.  1.
         21   -1    0    0  502  503 -0.00000000000E+00 -0.00000000000E+00 -0.34522005473E+02  0.34522005473E+02  0.00000000000E+00 0.  1.
          6    1    1    2  501    0 -0.41066909405E+02 -0.20011933494E+02  0.13202918923E+04  0.13323613059E+04  0.17300000000E+03 0.  1.
         -6    1    1    2    0  503  0.41066909405E+02  0.20011933494E+02  0.25247974636E+03  0.30945434373E+03  0.17300000000E+03 0.  1.
<mgrwt>
<rscale>  2 0.17893007E+03</rscale>
<asrwt>0</asrwt>
<pdfrwt beam="1">  1       21 0.24727589E+00 0.17893007E+03</pdfrwt>
<pdfrwt beam="2">  1       21 0.53110790E-02 0.17893007E+03</pdfrwt>
<totfact> 0.16962078E+04</totfact>
</mgrwt>
</event>
<event>
 4    1  0.4199484E+000  0.2278995E+03  0.7546771E-02  0.1128127E+00
         21   -1    0    0  501  502  0.00000000000E+00  0.00000000000E+00  0.18370126895E+02  0.18370126895E+02  0.00000000000E+00 0. -1.
         21   -1    0    0  502  503 -0.00000000000E+00 -0.00000000000E+00 -0.28699346668E+04  0.28699346668E+04  0.00000000000E+00 0. -1.
          6    1    1    2  501    0  0.13013298976E+03 -0.71236168022E+02 -0.12498004494E+04  0.12704091270E+04  0.17300000000E+03 0. -1.
         -6    1    1    2    0  503 -0.13013298976E+03  0.71236168022E+02 -0.16017640905E+04  0.16178956667E+04  0.17300000000E+03 0. -1.
<mgrwt>
<rscale>  2 0.22789951E+03</rscale>
<asrwt>0</asrwt>
<pdfrwt beam="1">  1       21 0.28261744E-02 0.22789951E+03</pdfrwt>
<pdfrwt beam="2">  1       21 0.44152824E+00 0.22789951E+03</pdfrwt>
<totfact> 0.31506511E+03</totfact>
</mgrwt>
</event>
<event>
 4    1  0.4199484E+000  0.1761188E+03  0.7546771E-02  0.1171613E+00
         21   -1    0    0  501  502  0.00000000000E+00  0.00000000000E+00  0.29815301156E+03  0.29815301156E+03  0.00000000000E+00 0.  1.
         21   -1    0    0  502  503 -0.00000000000E+00 -0.00000000000E+00 -0.11056007700E+03  0.11056007700E+03  0.00000000000E+00 0.  1.
          6    1    1    2  501    0  0.31648047068E+01 -0.32845331118E+02  0.14344882544E+03  0.22714620244E+03  0.17300000000E+03 0.  1.
         -6    1    1    2    0  503 -0.31648047068E+01  0.32845331118E+02  0.44144109123E+02  0.18156688612E+03  0.17300000000E+03 0.  1.
<mgrwt>
<rscale>  2 0.17611880E+03</rscale>
<asrwt>0</asrwt>
<pdfrwt beam="1">  1       21 0.45869694E-01 0.17611880E+03</pdfrwt>
<pdfrwt beam="2">  1       21 0.17009243E-01 0.17611880E+03</pdfrwt>
<totfact> 0.14276717E+05</totfact>
</mgrwt>
</event>
<event>
 4    1  0.4199484E+000  0.1937706E+03  0.7546771E-02  0.1155104E+00
         21   -1    0    0  503  502  0.00000000000E+00  0.00000000000E+00  0.66076623337E+03  0.66076623337E+03  0.00000000000E+00 0.  1.
         21   -1    0    0  501  503 -0.00000000000E+00 -0.00000000000E+00 -0.94390573448E+02  0.94390573448E+02  0.00000000000E+00 0.  1.
          6    1    1    2  501    0  0.79603797922E+02 -0.35795204699E+02  0.44985274181E+02  0.19892394581E+03  0.17300000000E+03 0.  1.
         -6    1    1    2    0  502 -0.79603797922E+02  0.35795204699E+02  0.52139038574E+03  0.55623286101E+03  0.17300000000E+03 0.  1.
<mgrwt>
<rscale>  2 0.19377064E+03</rscale>
<asrwt>0</asrwt>
<pdfrwt beam="1">  1       21 0.10165634E+00 0.19377064E+03</pdfrwt>
<pdfrwt beam="2">  1       21 0.14521627E-01 0.19377064E+03</pdfrwt>
<totfact> 0.32830652E+04</totfact>
</mgrwt>
</event>
<event>
 4    1  0.4199484E+000  0.2878124E+03  0.7546771E-02  0.1091497E+00
         21   -1    0    0  501  502  0.00000000000E+00  0.00000000000E+00  0.14329347824E+04  0.14329347824E+04  0.00000000000E+00 0. -1.
         21   -1    0    0  502  503 -0.00000000000E+00 -0.00000000000E+00 -0.63212421338E+02  0.63212421338E+02  0.00000000000E+00 0.  1.
          6    1    1    2  501    0 -0.22980494018E+03 -0.98313143025E+01  0.90358359022E+03  0.94831390889E+03  0.17300000000E+03 0.  1.
         -6    1    1    2    0  503  0.22980494018E+03  0.98313143025E+01  0.46613877086E+03  0.54783329487E+03  0.17300000000E+03 0. -1.
<mgrwt>
<rscale>  2 0.28781238E+03</rscale>
<asrwt>0</asrwt>
<pdfrwt beam="1">  1       21 0.22045148E+00 0.28781238E+03</pdfrwt>
<pdfrwt beam="2">  1       21 0.97249890E-02 0.28781238E+03</pdfrwt>
<totfact> 0.79292409E+03</totfact>
</mgrwt>
</event>
<event>
 4    1  0.4199484E+000  0.2825630E+03  0.7546771E-02  0.1094297E+00
         21   -1    0    0  503  502  0.00000000000E+00  0.00000000000E+00  0.75720964676E+03  0.75720964676E+03  0.00000000000E+00 0.  1.
         21   -1    0    0  501  503 -0.00000000000E+00 -0.00000000000E+00 -0.10920103102E+03  0.10920103102E+03  0.00000000000E+00 0. -1.
          6    1    1    2  501    0 -0.12462737186E+03  0.18542077486E+03  0.24363185038E+03  0.37309291615E+03  0.17300000000E+03 0. -1.
         -6    1    1    2    0  502  0.12462737186E+03 -0.18542077486E+03  0.40437676537E+03  0.49331776163E+03  0.17300000000E+03 0.  1.
<mgrwt>
<rscale>  2 0.28256299E+03</rscale>
<asrwt>0</asrwt>
<pdfrwt beam="1">  1       21 0.11649379E+00 0.28256299E+03</pdfrwt>
<pdfrwt beam="2">  1       21 0.16800159E-01 0.28256299E+03</pdfrwt>
<totfact> 0.17231832E+04</totfact>
</mgrwt>
</event>
<event>
 4    1  0.4199484E+000  0.3373169E+03  0.7546771E-02  0.1067944E+00
         21   -1    0    0  501  502  0.00000000000E+00  0.00000000000E+00  0.54574180943E+03  0.54574180943E+03  0.00000000000E+00 0. -1.
         21   -1    0    0  502  503 -0.00000000000E+00 -0.00000000000E+00 -0.20869451398E+03  0.20869451398E+03  0.00000000000E+00 0. -1.
          6    1    1    2  501    0  0.28182465196E+03 -0.66547567755E+02  0.18027905346E+03  0.38246993391E+03  0.17300000000E+03 0. -1.
         -6    1    1    2    0  503 -0.28182465196E+03  0.66547567755E+02  0.15676824200E+03  0.37196638951E+03  0.17300000000E+03 0. -1.
<mgrwt>
<rscale>  2 0.33731693E+03</rscale>
<asrwt>0</asrwt>
<pdfrwt beam="1">  1       21 0.83960278E-01 0.33731693E+03</pdfrwt>
<pdfrwt beam="2">  1       21 0.32106849E-01 0.33731693E+03</pdfrwt>
<totfact> 0.10657966E+04</totfact>
</mgrwt>
</event>
<event>
 4    1  0.4199484E+000  0.1978124E+03  0.7546771E-02  0.1151598E+00
         21   -1    0    0  501  502  0.00000000000E+00  0.00000000000E+00  0.69383170434E+03  0.69383170434E+03  0.00000000000E+00 0.  1.
         21   -1    0    0  502  503 -0.00000000000E+00 -0.00000000000E+00 -0.64639388215E+02  0.64639388215E+02  0.00000000000E+00 0.  1.
          6    1    1    2  501    0 -0.91265359595E+02  0.29518948464E+02  0.45002091228E+03  0.49157761917E+03  0.17300000000E+03 0.  1.
         -6    1    1    2    0  503  0.91265359595E+02 -0.29518948464E+02  0.17917140385E+03  0.26689347339E+03  0.17300000000E+03 0.  1.
<mgrwt>
<rscale>  2 0.19781237E+03</rscale>
<asrwt>0</asrwt>
<pdfrwt beam="1">  1       21 0.10674333E+00 0.19781237E+03</pdfrwt>
<pdfrwt beam="2">  1       21 0.99445218E-02 0.19781237E+03</pdfrwt>
<totfact> 0.57397863E+04</totfact>
</mgrwt>
</event>
<event>
 4    1  0.4199484E+000  0.1924375E+03  0.7546771E-02  0.1156281E+00
         21   -1    0    0  503  502  0.00000000000E+00  0.00000000000E+00  0.21695765537E+03  0.21695765537E+03  0.00000000000E+00 0. -1.
         21   -1    0    0  501  503 -0.00000000000E+00 -0.00000000000E+00 -0.19363995662E+03  0.19363995662E+03  0.00000000000E+00 0. -1.
          6    1    1    2  501    0  0.50735768800E+02 -0.67298363983E+02 -0.59020667184E+02  0.20128494028E+03  0.17300000000E+03 0. -1.
         -6    1    1    2    0  502 -0.50735768800E+02  0.67298363983E+02  0.82338365935E+02  0.20931267170E+03  0.17300000000E+03 0. -1.
<mgrwt>
<rscale>  2 0.19243749E+03</rscale>
<asrwt>0</asrwt>
<pdfrwt beam="1">  1       21 0.33378101E-01 0.19243749E+03</pdfrwt>
<pdfrwt beam="2">  1       21 0.29790763E-01 0.19243749E+03</pdfrwt>
<totfact> 0.93392256E+04</totfact>
</mgrwt>
</event>
<event>
 4    1  0.4199484E+000  0.2000392E+03  0.7546771E-02  0.1149706E+00
         21   -1    0    0  503  502  0.00000000000E+00  0.00000000000E+00  0.30946177819E+02  0.30946177819E+02  0.00000000000E+00 0. -1.
         21   -1    0    0  501  503 -0.00000000000E+00 -0.00000000000E+00 -0.14411564353E+04  0.14411564353E+04  0.00000000000E+00 0. -1.
          6    1    1    2  501    0 -0.99310514461E+02 -0.14970167646E+02 -0.94104696235E+03  0.96207331817E+03  0.17300000000E+03 0. -1.
         -6    1    1    2    0  502  0.99310514461E+02  0.14970167646E+02 -0.46916329516E+03  0.51002929497E+03  0.17300000000E+03 0. -1.
<mgrwt>
<rscale>  2 0.20003921E+03</rscale>
<asrwt>0</asrwt>
<pdfrwt beam="1">  1       21 0.47609519E-02 0.20003921E+03</pdfrwt>
<pdfrwt beam="2">  1       21 0.22171631E+00 0.20003921E+03</pdfrwt>
<totfact> 0.28535351E+04</totfact>
</mgrwt>
</event>
<event>
 4    1  0.4199484E+000  0.3036524E+03  0.7546771E-02  0.1083429E+00
         21   -1    0    0  503  502  0.00000000000E+00  0.00000000000E+00  0.69754056703E+03  0.69754056703E+03  0.00000000000E+00 0.  1.
         21   -1    0    0  501  503 -0.00000000000E+00 -0.00000000000E+00 -0.13979734745E+03  0.13979734745E+03  0.00000000000E+00 0.  1.
          6    1    1    2  501    0 -0.50698256726E+02  0.24434701540E+03  0.18117822299E+03  0.35359627494E+03  0.17300000000E+03 0.  1.
         -6    1    1    2    0  502  0.50698256726E+02 -0.24434701540E+03  0.37656499660E+03  0.48374163954E+03  0.17300000000E+03 0.  1.
<mgrwt>
<rscale>  2 0.30365240E+03</rscale>
<asrwt>0</asrwt>
<pdfrwt beam="1">  1       21 0.10731393E+00 0.30365240E+03</pdfrwt>
<pdfrwt beam="2">  1       21 0.21507285E-01 0.30365240E+03</pdfrwt>
<totfact> 0.13137585E+04</totfact>
</mgrwt>
</event>
<event>
 4    1  0.4199484E+000  0.2029905E+03  0.7546771E-02  0.1147240E+00
         21   -1    0    0  501  502  0.00000000000E+00  0.00000000000E+00  0.76500558498E+02  0.76500558498E+02  0.00000000000E+00 0. -1.
         21   -1    0    0  502  503 -0.00000000000E+00 -0.00000000000E+00 -0.56042273641E+03  0.56042273641E+03  0.00000000000E+00 0. -1.
          6    1    1    2  501    0  0.51588513089E+02 -0.92815787737E+02 -0.17915513456E+03  0.27074288056E+03  0.17300000000E+03 0. -1.
         -6    1    1    2    0  503 -0.51588513089E+02  0.92815787737E+02 -0.30476704335E+03  0.36618041434E+03  0.17300000000E+03 0. -1.
<mgrwt>
<rscale>  2 0.20299051E+03</rscale>
<asrwt>0</asrwt>
<pdfrwt beam="1">  1       21 0.11769316E-01 0.20299051E+03</pdfrwt>
<pdfrwt beam="2">  1       21 0.86218886E-01 0.20299051E+03</pdfrwt>
<totfact> 0.70125574E+04</totfact>
</mgrwt>
</event>
<event>
 4    1  0.4199484E+000  0.2017783E+03  0.7546771E-02  0.1148247E+00
         21   -1    0    0  501  502  0.00000000000E+00  0.00000000000E+00  0.64905930128E+03  0.64905930128E+03  0.00000000000E+00 0. -1.
         21   -1    0    0  502  503 -0.00000000000E+00 -0.00000000000E+00 -0.63120436891E+02  0.63120436891E+02  0.00000000000E+00 0. -1.
          6    1    1    2  501    0  0.83851735609E+02 -0.61272982400E+02  0.32103045882E+03  0.37917680234E+03  0.17300000000E+03 0. -1.
         -6    1    1    2    0  503 -0.83851735609E+02  0.61272982400E+02  0.26490840557E+03  0.33300293584E+03  0.17300000000E+03 0. -1.
<mgrwt>
<rscale>  2 0.20177832E+03</rscale>
<asrwt>0</asrwt>
<pdfrwt beam="1">  1       21 0.99855272E-01 0.20177832E+03</pdfrwt>
<pdfrwt beam="2">  1       21 0.97108369E-02 0.20177832E+03</pdfrwt>
<totfact> 0.70095448E+04</totfact>
</mgrwt>
</event>
<event>
 4    1  0.4199484E+000  0.2316087E+03  0.7546771E-02  0.1125513E+00
         21   -1    0    0  501  502  0.00000000000E+00  0.00000000000E+00  0.18453520142E+03  0.18453520142E+03  0.00000000000E+00 0.  1.
         21   -1    0    0  502  503 -0.00000000000E+00 -0.00000000000E+00 -0.29609712153E+03  0.29609712153E+03  0.00000000000E+00 0.  1.
          6    1    1    2  501    0  0.71592000922E+02 -0.13633847835E+03 -0.23306912571E+02  0.23277845142E+03  0.17300000000E+03 0.  1.
         -6    1    1    2    0  503 -0.71592000922E+02  0.13633847835E+03 -0.88255007541E+02  0.24785387152E+03  0.17300000000E+03 0.  1.
<mgrwt>
<rscale>  2 0.23160871E+03</rscale>
<asrwt>0</asrwt>
<pdfrwt beam="1">  1       21 0.28390031E-01 0.23160871E+03</pdfrwt>
<pdfrwt beam="2">  1       21 0.45553403E-01 0.23160871E+03</pdfrwt>
<totfact> 0.53853184E+04</totfact>
</mgrwt>
</event>
<event>
 4    1  0.4199484E+000  0.2168367E+03  0.7546771E-02  0.1136264E+00
         21   -1    0    0  503  502  0.00000000000E+00  0.00000000000E+00  0.37187722154E+03  0.37187722154E+03  0.00000000000E+00 0. -1.
         21   -1    0    0  501  503 -0.00000000000E+00 -0.00000000000E+00 -0.13448337543E+03  0.13448337543E+03  0.00000000000E+00 0. -1.
          6    1    1    2  501    0 -0.13067265206E+03 -0.37143645956E+01  0.56758351755E+02  0.22414202862E+03  0.17300000000E+03 0. -1.
         -6    1    1    2    0  502  0.13067265206E+03  0.37143645956E+01  0.18063549436E+03  0.28221856835E+03  0.17300000000E+03 0. -1.
<mgrwt>
<rscale>  2 0.21683666E+03</rscale>
<asrwt>0</asrwt>
<pdfrwt beam="1">  1       21 0.57211880E-01 0.21683666E+03</pdfrwt>
<pdfrwt beam="2">  1       21 0.20689750E-01 0.21683666E+03</pdfrwt>
<totfact> 0.61470172E+04</totfact>
</mgrwt>
</event>
<event>
 4    1  0.4199484E+000  0.1905111E+03  0.7546771E-02  0.1158001E+00
         21   -1    0    0  501  502  0.00000000000E+00  0.00000000000E+00  0.11397390542E+03  0.11397390542E+03  0.00000000000E+00 0. -1.
         21   -1    0    0  502  503 -0.00000000000E+00 -0.00000000000E+00 -0.34572562257E+03  0.34572562257E+03  0.00000000000E+00 0. -1.
          6    1    1    2  501    0  0.41588207146E+02  0.68087572139E+02 -0.51310420898E+02  0.19729991319E+03  0.17300000000E+03 0. -1.
         -6    1    1    2    0  503 -0.41588207146E+02 -0.68087572139E+02 -0.18044129625E+03  0.26239961479E+03  0.17300000000E+03 0. -1.
<mgrwt>
<rscale>  2 0.19051115E+03</rscale>
<asrwt>0</asrwt>
<pdfrwt beam="1">  1       21 0.17534447E-01 0.19051115E+03</pdfrwt>
<pdfrwt beam="2">  1       21 0.53188557E-01 0.19051115E+03</pdfrwt>
<totfact> 0.98729428E+04</totfact>
</mgrwt>
</event>
<event>
 4    1  0.4199484E+000  0.1822019E+03  0.7546771E-02  0.1165689E+00
         21   -1    0    0  503  502  0.00000000000E+00  0.00000000000E+00  0.30814968178E+03  0.30814968178E+03  0.00000000000E+00 0. -1.
         21   -1    0    0  501  503 -0.00000000000E+00 -0.00000000000E+00 -0.12464989093E+03  0.12464989093E+03  0.00000000000E+00 0.  1.
          6    1    1    2  501    0  0.39401678688E+02 -0.41425066709E+02  0.12026424628E+02  0.18259836616E+03  0.17300000000E+03 0.  1.
         -6    1    1    2    0  502 -0.39401678688E+02  0.41425066709E+02  0.17147336622E+03  0.25020120655E+03  0.17300000000E+03 0. -1.
<mgrwt>
<rscale>  2 0.18220189E+03</rscale>
<asrwt>0</asrwt>
<pdfrwt beam="1">  1       21 0.47407643E-01 0.18220189E+03</pdfrwt>
<pdfrwt beam="2">  1       21 0.19176906E-01 0.18220189E+03</pdfrwt>
<totfact> 0.10665662E+05</totfact>
</mgrwt>
</event>
<event>
 4    1  0.4199484E+000  0.3204505E+03  0.7546771E-02  0.1075442E+00
         21   -1    0    0  501  502  0.00000000000E+00  0.00000000000E+00  0.17685147342E+03  0.17685147342E+03  0.00000000000E+00 0.  1.
         21   -1    0    0  502  503 -0.00000000000E+00 -0.00000000000E+00 -0.76886575101E+03  0.76886575101E+03  0.00000000000E+00 0. -1.
          6    1    1    2  501    0  0.23885788140E+03 -0.12532526377E+03 -0.62050174728E+02  0.32640271664E+03  0.17300000000E+03 0. -1.
         -6    1    1    2    0  503 -0.23885788140E+03  0.12532526377E+03 -0.52996410286E+03  0.61931450780E+03  0.17300000000E+03 0.  1.
<mgrwt>
<rscale>  2 0.32045048E+03</rscale>
<asrwt>0</asrwt>
<pdfrwt beam="1">  1       21 0.27207918E-01 0.32045048E+03</pdfrwt>
<pdfrwt beam="2">  1       21 0.11828704E+00 0.32045048E+03</pdfrwt>
<totfact> 0.65226158E+03</totfact>
</mgrwt>
</event>
<event>
 4    1  0.4199484E+000  0.1760487E+03  0.7546771E-02  0.1171683E+00
         21   -1    0    0  503  502  0.00000000000E+00  0.00000000000E+00  0.18816599204E+03  0.18816599204E+03  0.00000000000E+00 0.  1.
         21   -1    0    0  501  503 -0.00000000000E+00 -0.00000000000E+00 -0.42420695024E+03  0.42420695024E+03  0.00000000000E+00 0.  1.
          6    1    1    2  501    0 -0.22808332654E+02  0.23321917337E+02 -0.35749640010E+03  0.39849317177E+03  0.17300000000E+03 0.  1.
         -6    1    1    2    0  502  0.22808332654E+02 -0.23321917337E+02  0.12145544190E+03  0.21387977051E+03  0.17300000000E+03 0.  1.
<mgrwt>
<rscale>  2 0.17604866E+03</rscale>
<asrwt>0</asrwt>
<pdfrwt beam="1">  1       21 0.28948614E-01 0.17604866E+03</pdfrwt>
<pdfrwt beam="2">  1       21 0.65262607E-01 0.17604866E+03</pdfrwt>
<totfact> 0.24912875E+04</totfact>
</mgrwt>
</event>
<event>
 4    1  0.4199484E+000  0.1782731E+03  0.7546771E-02  0.1169485E+00
         21   -1    0    0  503  502  0.00000000000E+00  0.00000000000E+00  0.25228174574E+03  0.25228174574E+03  0.00000000000E+00 0. -1.
         21   -1    0    0  501  503 -0.00000000000E+00 -0.00000000000E+00 -0.23707121879E+03  0.23707121879E+03  0.00000000000E+00 0. -1.
          6    1    1    2  501    0 -0.39831658729E+02 -0.16301041170E+02 -0.15988969420E+03  0.23947024719E+03  0.17300000000E+03 0.  1.
         -6    1    1    2    0  502  0.39831658729E+02  0.16301041170E+02  0.17510022115E+03  0.24988271734E+03  0.17300000000E+03 0.  1.
<mgrwt>
<rscale>  2 0.17827306E+03</rscale>
<asrwt>0</asrwt>
<pdfrwt beam="1">  1       21 0.38812576E-01 0.17827306E+03</pdfrwt>
<pdfrwt beam="2">  1       21 0.36472495E-01 0.17827306E+03</pdfrwt>
<totfact> 0.46725998E+04</totfact>
</mgrwt>
</event>
<event>
 4    1  0.4199484E+000  0.2341619E+03  0.7546771E-02  0.1123744E+00
         21   -1    0    0  501  502  0.00000000000E+00  0.00000000000E+00  0.13959525339E+03  0.13959525339E+03  0.00000000000E+00 0.  1.
         21   -1    0    0  502  503 -0.00000000000E+00 -0.00000000000E+00 -0.48260839784E+03  0.48260839784E+03  0.00000000000E+00 0. -1.
          6    1    1    2  501    0  0.17299998364E+02  0.15685510444E+03 -0.37296715806E+02  0.23711359881E+03  0.17300000000E+03 0.  1.
         -6    1    1    2    0  503 -0.17299998364E+02 -0.15685510444E+03 -0.30571642864E+03  0.38509005242E+03  0.17300000000E+03 0. -1.
<mgrwt>
<rscale>  2 0.23416194E+03</rscale>
<asrwt>0</asrwt>
<pdfrwt beam="1">  1       21 0.21476193E-01 0.23416194E+03</pdfrwt>
<pdfrwt beam="2">  1       21 0.74247445E-01 0.23416194E+03</pdfrwt>
<totfact> 0.32147519E+04</totfact>
</mgrwt>
</event>
<event>
 4    1  0.4199484E+000  0.1986821E+03  0.7546771E-02  0.1150856E+00
         21   -1    0    0  501  502  0.00000000000E+00  0.00000000000E+00  0.32241295032E+03  0.32241295032E+03  0.00000000000E+00 0. -1.
         21   -1    0    0  502  503 -0.00000000000E+00 -0.00000000000E+00 -0.26025421910E+03  0.26025421910E+03  0.00000000000E+00 0. -1.
          6    1    1    2  501    0 -0.66920333998E+02 -0.71184515426E+02  0.24308473714E+03  0.31395024410E+03  0.17300000000E+03 0. -1.
         -6    1    1    2    0  503  0.66920333998E+02  0.71184515426E+02 -0.18092600592E+03  0.26871692532E+03  0.17300000000E+03 0. -1.
<mgrwt>
<rscale>  2 0.19868207E+03</rscale>
<asrwt>0</asrwt>
<pdfrwt beam="1">  1       21 0.49601992E-01 0.19868207E+03</pdfrwt>
<pdfrwt beam="2">  1       21 0.40039111E-01 0.19868207E+03</pdfrwt>
<totfact> 0.23209881E+04</totfact>
</mgrwt>
</event>
<event>
 4    1  0.4199484E+000  0.1731896E+03  0.7546771E-02  0.1174562E+00
         21   -1    0    0  501  502  0.00000000000E+00  0.00000000000E+00  0.34115131832E+03  0.34115131832E+03  0.00000000000E+00 0.  1.
         21   -1    0    0  502  503 -0.00000000000E+00 -0.00000000000E+00 -0.90617924160E+02  0.90617924160E+02  0.00000000000E+00 0.  1.
          6    1    1    2  501    0 -0.33653024971E+01 -0.73700000725E+01  0.16250446216E+03  0.23749177330E+03  0.17300000000E+03 0.  1.
         -6    1    1    2    0  503  0.33653024971E+01  0.73700000725E+01  0.88028931992E+02  0.19427746918E+03  0.17300000000E+03 0.  1.
<mgrwt>
<rscale>  2 0.17318961E+03</rscale>
<asrwt>0</asrwt>
<pdfrwt beam="1">  1       21 0.52484818E-01 0.17318961E+03</pdfrwt>
<pdfrwt beam="2">  1       21 0.13941219E-01 0.17318961E+03</pdfrwt>
<totfact> 0.15522823E+05</totfact>
</mgrwt>
</event>
<event>
 4    1  0.4199484E+000  0.1978204E+03  0.7546771E-02  0.1151591E+00
         21   -1    0    0  501  502  0.00000000000E+00  0.00000000000E+00  0.19868462016E+03  0.19868462016E+03  0.00000000000E+00 0.  1.
         21   -1    0    0  502  503 -0.00000000000E+00 -0.00000000000E+00 -0.19811079109E+03  0.19811079109E+03  0.00000000000E+00 0. -1.
          6    1    1    2  501    0  0.35598727329E+02  0.89087925585E+02  0.15407757220E+02  0.19841957276E+03  0.17300000000E+03 0. -1.
         -6    1    1    2    0  503 -0.35598727329E+02 -0.89087925585E+02 -0.14833928147E+02  0.19837583849E+03  0.17300000000E+03 0.  1.
<mgrwt>
<rscale>  2 0.19782044E+03</rscale>
<asrwt>0</asrwt>
<pdfrwt beam="1">  1       21 0.30566865E-01 0.19782044E+03</pdfrwt>
<pdfrwt beam="2">  1       21 0.30478583E-01 0.19782044E+03</pdfrwt>
<totfact> 0.10593883E+05</totfact>
</mgrwt>
</event>
<event>
 4    1  0.4199484E+000  0.1964201E+03  0.7546771E-02  0.1152795E+00
         21   -1    0    0  503  502  0.00000000000E+00  0.00000000000E+00  0.23344042582E+03  0.23344042582E+03  0.00000000000E+00 0.  1.
         21   -1    0    0  501  503 -0.00000000000E+00 -0.00000000000E+00 -0.23845612006E+03  0.23845612006E+03  0.00000000000E+00 0.  1.
          6    1    1    2  501    0  0.92906956974E+02  0.44907852515E+01 -0.13322264609E+03  0.23733761446E+03  0.17300000000E+03 0.  1.
         -6    1    1    2    0  502 -0.92906956974E+02 -0.44907852515E+01  0.12820695185E+03  0.23455893142E+03  0.17300000000E+03 0.  1.
<mgrwt>
<rscale>  2 0.19642014E+03</rscale>
<asrwt>0</asrwt>
<pdfrwt beam="1">  1       21 0.35913912E-01 0.19642014E+03</pdfrwt>
<pdfrwt beam="2">  1       21 0.36685557E-01 0.19642014E+03</pdfrwt>
<totfact> 0.53479960E+04</totfact>
</mgrwt>
</event>
<event>
 4    1  0.4199484E+000  0.2440400E+03  0.7546771E-02  0.1117130E+00
         21   -1    0    0  501  502  0.00000000000E+00  0.00000000000E+00  0.56473221134E+03  0.56473221134E+03  0.00000000000E+00 0.  1.
         21   -1    0    0  502  503 -0.00000000000E+00 -0.00000000000E+00 -0.16830932907E+03  0.16830932907E+03  0.00000000000E+00 0.  1.
          6    1    1    2  501    0  0.13497169807E+03 -0.10681363539E+03  0.42218762276E+03  0.48764526122E+03  0.17300000000E+03 0.  1.
         -6    1    1    2    0  503 -0.13497169807E+03  0.10681363539E+03 -0.25764740488E+02  0.24539627919E+03  0.17300000000E+03 0.  1.
<mgrwt>
<rscale>  2 0.24403998E+03</rscale>
<asrwt>0</asrwt>
<pdfrwt beam="1">  1       21 0.86881877E-01 0.24403998E+03</pdfrwt>
<pdfrwt beam="2">  1       21 0.25893743E-01 0.24403998E+03</pdfrwt>
<totfact> 0.15657483E+04</totfact>
</mgrwt>
</event>
<event>
 4    1  0.4199484E+000  0.2454821E+03  0.7546771E-02  0.1116194E+00
         21   -1    0    0  501  502  0.00000000000E+00  0.00000000000E+00  0.41951245170E+03  0.41951245170E+03  0.00000000000E+00 0.  1.
         21   -1    0    0  502  503 -0.00000000000E+00 -0.00000000000E+00 -0.15832316683E+03  0.15832316683E+03  0.00000000000E+00 0. -1.
          6    1    1    2  501    0 -0.10470391438E+03  0.13917461868E+03  0.21856091557E+03  0.32867971946E+03  0.17300000000E+03 0.  1.
         -6    1    1    2    0  503  0.10470391438E+03 -0.13917461868E+03  0.42628369300E+02  0.24915589907E+03  0.17300000000E+03 0. -1.
<mgrwt>
<rscale>  2 0.24548215E+03</rscale>
<asrwt>0</asrwt>
<pdfrwt beam="1">  1       21 0.64540377E-01 0.24548215E+03</pdfrwt>
<pdfrwt beam="2">  1       21 0.24357410E-01 0.24548215E+03</pdfrwt>
<totfact> 0.34324958E+04</totfact>
</mgrwt>
</event>
<event>
 4    1  0.4199484E+000  0.1758830E+03  0.7546771E-02  0.1171848E+00
         21   -1    0    0  503  502  0.00000000000E+00  0.00000000000E+00  0.19502772381E+03  0.19502772381E+03  0.00000000000E+00 0. -1.
         21   -1    0    0  501  503 -0.00000000000E+00 -0.00000000000E+00 -0.35717335953E+03  0.35717335953E+03  0.00000000000E+00 0. -1.
          6    1    1    2  501    0 -0.23066024874E+02  0.21766549990E+02 -0.28693141246E+03  0.33654785642E+03  0.17300000000E+03 0. -1.
         -6    1    1    2    0  502  0.23066024874E+02 -0.21766549990E+02  0.12478577674E+03  0.21565322692E+03  0.17300000000E+03 0. -1.
<mgrwt>
<rscale>  2 0.17588298E+03</rscale>
<asrwt>0</asrwt>
<pdfrwt beam="1">  1       21 0.30004265E-01 0.17588298E+03</pdfrwt>
<pdfrwt beam="2">  1       21 0.54949747E-01 0.17588298E+03</pdfrwt>
<totfact> 0.33591417E+04</totfact>
</mgrwt>
</event>
<event>
 4    1  0.4199484E+000  0.1784778E+03  0.7546771E-02  0.1169284E+00
         21   -1    0    0  501  502  0.00000000000E+00  0.00000000000E+00  0.30069512875E+03  0.30069512875E+03  0.00000000000E+00 0.  1.
         21   -1    0    0  502  503 -0.00000000000E+00 -0.00000000000E+00 -0.11481163611E+03  0.11481163611E+03  0.00000000000E+00 0.  1.
          6    1    1    2  501    0  0.41665180773E+02 -0.13760168377E+02  0.15070661823E+03  0.23359540728E+03  0.17300000000E+03 0.  1.
         -6    1    1    2    0  503 -0.41665180773E+02  0.13760168377E+02  0.35176874410E+02  0.18191135758E+03  0.17300000000E+03 0.  1.
<mgrwt>
<rscale>  2 0.17847781E+03</rscale>
<asrwt>0</asrwt>
<pdfrwt beam="1">  1       21 0.46260789E-01 0.17847781E+03</pdfrwt>
<pdfrwt beam="2">  1       21 0.17663329E-01 0.17847781E+03</pdfrwt>
<totfact> 0.13078353E+05</totfact>
</mgrwt>
</event>
<event>
 4    1  0.4199484E+000  0.2410529E+03  0.7546771E-02  0.1119093E+00
         21   -1    0    0  503  502  0.00000000000E+00  0.00000000000E+00  0.41043978442E+03  0.41043978442E+03  0.00000000000E+00 0. -1.
         21   -1    0    0  501  503 -0.00000000000E+00 -0.00000000000E+00 -0.38127443888E+03  0.38127443888E+03  0.00000000000E+00 0.  1.
          6    1    1    2  501    0  0.16785615340E+03 -0.13515378645E+01 -0.29929210653E+03  0.38429452236E+03  0.17300000000E+03 0.  1.
         -6    1    1    2    0  502 -0.16785615340E+03  0.13515378645E+01  0.32845745208E+03  0.40741970094E+03  0.17300000000E+03 0. -1.
<mgrwt>
<rscale>  2 0.24105293E+03</rscale>
<asrwt>0</asrwt>
<pdfrwt beam="1">  1       21 0.63144582E-01 0.24105293E+03</pdfrwt>
<pdfrwt beam="2">  1       21 0.58657606E-01 0.24105293E+03</pdfrwt>
<totfact> 0.61045630E+03</totfact>
</mgrwt>
</event>
<event>
 4    1  0.4199484E+000  0.1901036E+03  0.7546771E-02  0.1158368E+00
         21   -1    0    0  503  502  0.00000000000E+00  0.00000000000E+00  0.11268904676E+03  0.11268904676E+03  0.00000000000E+00 0. -1.
         21   -1    0    0  501  503 -0.00000000000E+00 -0.00000000000E+00 -0.32342574787E+03  0.32342574787E+03  0.00000000000E+00 0. -1.
          6    1    1    2  501    0 -0.18575135627E+02 -0.76585601654E+02 -0.12538619714E+03  0.22773029767E+03  0.17300000000E+03 0. -1.
         -6    1    1    2    0  502  0.18575135627E+02  0.76585601654E+02 -0.85350503975E+02  0.20838449696E+03  0.17300000000E+03 0. -1.
<mgrwt>
<rscale>  2 0.19010363E+03</rscale>
<asrwt>0</asrwt>
<pdfrwt beam="1">  1       21 0.17336777E-01 0.19010363E+03</pdfrwt>
<pdfrwt beam="2">  1       21 0.49757807E-01 0.19010363E+03</pdfrwt>
<totfact> 0.11593211E+05</totfact>
</mgrwt>
</event>
<event>
 4    1  0.4199484E+000  0.1809141E+03  0.7546771E-02  0.1166921E+00
         21   -1    0    0  503  502  0.00000000000E+00  0.00000000000E+00  0.19300290039E+03  0.19300290039E+03  0.00000000000E+00 0.  1.
         21   -1    0    0  501  503 -0.00000000000E+00 -0.00000000000E+00 -0.16959073751E+03  0.16959073751E+03  0.00000000000E+00 0.  1.
          6    1    1    2  501    0 -0.52503287616E+02 -0.66561590002E+01  0.12975441018E+02  0.18137877972E+03  0.17300000000E+03 0. -1.
         -6    1    1    2    0  502  0.52503287616E+02  0.66561590002E+01  0.10436721864E+02  0.18121485818E+03  0.17300000000E+03 0. -1.
<mgrwt>
<rscale>  2 0.18091407E+03</rscale>
<asrwt>0</asrwt>
<pdfrwt beam="1">  1       21 0.29692754E-01 0.18091407E+03</pdfrwt>
<pdfrwt beam="2">  1       21 0.26090883E-01 0.18091407E+03</pdfrwt>
<totfact> 0.15232135E+05</totfact>
</mgrwt>
</event>
<event>
 4    1  0.4199484E+000  0.2483027E+03  0.7546771E-02  0.1114382E+00
         21   -1    0    0  503  502  0.00000000000E+00  0.00000000000E+00  0.42378257924E+03  0.42378257924E+03  0.00000000000E+00 0. -1.
         21   -1    0    0  501  503 -0.00000000000E+00 -0.00000000000E+00 -0.18715161138E+03  0.18715161138E+03  0.00000000000E+00 0.  1.
          6    1    1    2  501    0  0.66596795469E+01 -0.17799123600E+03 -0.25816047079E+02  0.24964114186E+03  0.17300000000E+03 0.  1.
         -6    1    1    2    0  502 -0.66596795469E+01  0.17799123600E+03  0.26244701494E+03  0.36129304875E+03  0.17300000000E+03 0. -1.
<mgrwt>
<rscale>  2 0.24830270E+03</rscale>
<asrwt>0</asrwt>
<pdfrwt beam="1">  1       21 0.65197320E-01 0.24830270E+03</pdfrwt>
<pdfrwt beam="2">  1       21 0.28792556E-01 0.24830270E+03</pdfrwt>
<totfact> 0.24266718E+04</totfact>
</mgrwt>
</event>
<event>
 4    1  0.4199484E+000  0.2130637E+03  0.7546771E-02  0.1139163E+00
         21   -1    0    0  501  502  0.00000000000E+00  0.00000000000E+00  0.60487989839E+03  0.60487989839E+03  0.00000000000E+00 0. -1.
         21   -1    0    0  502  503 -0.00000000000E+00 -0.00000000000E+00 -0.75874160218E+02  0.75874160218E+02  0.00000000000E+00 0. -1.
          6    1    1    2  501    0  0.33518247264E+02 -0.11976503587E+03  0.29998114637E+03  0.36794676911E+03  0.17300000000E+03 0. -1.
         -6    1    1    2    0  503 -0.33518247264E+02  0.11976503587E+03  0.22902459180E+03  0.31280728950E+03  0.17300000000E+03 0. -1.
<mgrwt>
<rscale>  2 0.21306369E+03</rscale>
<asrwt>0</asrwt>
<pdfrwt beam="1">  1       21 0.93058443E-01 0.21306369E+03</pdfrwt>
<pdfrwt beam="2">  1       21 0.11672948E-01 0.21306369E+03</pdfrwt>
<totfact> 0.59349201E+04</totfact>
</mgrwt>
</event>
<event>
 4    1  0.4199484E+000  0.1797940E+03  0.7546771E-02  0.1168003E+00
         21   -1    0    0  501  502  0.00000000000E+00  0.00000000000E+00  0.51580992405E+03  0.51580992405E+03  0.00000000000E+00 0. -1.
         21   -1    0    0  502  503 -0.00000000000E+00 -0.00000000000E+00 -0.63287701653E+02  0.63287701653E+02  0.00000000000E+00 0. -1.
          6    1    1    2  501    0  0.45977423001E+02  0.16820931098E+02  0.25486408261E+03  0.31189993228E+03  0.17300000000E+03 0. -1.
         -6    1    1    2    0  503 -0.45977423001E+02 -0.16820931098E+02  0.19765813978E+03  0.26719769342E+03  0.17300000000E+03 0. -1.
<mgrwt>
<rscale>  2 0.17979396E+03</rscale>
<asrwt>0</asrwt>
<pdfrwt beam="1">  1       21 0.79355370E-01 0.17979396E+03</pdfrwt>
<pdfrwt beam="2">  1       21 0.97365698E-02 0.17979396E+03</pdfrwt>
<totfact> 0.11971458E+05</totfact>
</mgrwt>
</event>
<event>
 4    1  0.4199484E+000  0.2346651E+03  0.7546771E-02  0.1123399E+00
         21   -1    0    0  501  502  0.00000000000E+00  0.00000000000E+00  0.44017071698E+03  0.44017071698E+03  0.00000000000E+00 0. -1.
         21   -1    0    0  502  503 -0.00000000000E+00 -0.00000000000E+00 -0.24852891060E+03  0.24852891060E+03  0.00000000000E+00 0.  1.
          6    1    1    2  501    0  0.15365638922E+03  0.39094846952E+02  0.33848778201E+03  0.41187579630E+03  0.17300000000E+03 0. -1.
         -6    1    1    2    0  503 -0.15365638922E+03 -0.39094846952E+02 -0.14684597564E+03  0.27682383128E+03  0.17300000000E+03 0.  1.
<mgrwt>
<rscale>  2 0.23466507E+03</rscale>
<asrwt>0</asrwt>
<pdfrwt beam="1">  1       21 0.67718572E-01 0.23466507E+03</pdfrwt>
<pdfrwt beam="2">  1       21 0.38235217E-01 0.23466507E+03</pdfrwt>
<totfact> 0.12808983E+04</totfact>
</mgrwt>
</event>
<event>
 4    1  0.4199484E+000  0.1795338E+03  0.7546771E-02  0.1168255E+00
         21   -1    0    0  501  502  0.00000000000E+00  0.00000000000E+00  0.30400758535E+03  0.30400758535E+03  0.00000000000E+00 0. -1.
         21   -1    0    0  502  503 -0.00000000000E+00 -0.00000000000E+00 -0.22154745078E+03  0.22154745078E+03  0.00000000000E+00 0. -1.
          6    1    1    2  501    0  0.43339309501E+02 -0.20618105023E+02  0.23098279975E+03  0.29254992015E+03  0.17300000000E+03 0. -1.
         -6    1    1    2    0  503 -0.43339309501E+02  0.20618105023E+02 -0.14852266517E+03  0.23300511598E+03  0.17300000000E+03 0. -1.
<mgrwt>
<rscale>  2 0.17953385E+03</rscale>
<asrwt>0</asrwt>
<pdfrwt beam="1">  1       21 0.46770398E-01 0.17953385E+03</pdfrwt>
<pdfrwt beam="2">  1       21 0.34084223E-01 0.17953385E+03</pdfrwt>
<totfact> 0.36545193E+04</totfact>
</mgrwt>
</event>
<event>
 4    1  0.4199484E+000  0.1839082E+03  0.7546771E-02  0.1164073E+00
         21   -1    0    0  503  502  0.00000000000E+00  0.00000000000E+00  0.36143693106E+02  0.36143693106E+02  0.00000000000E+00 0. -1.
         21   -1    0    0  501  503 -0.00000000000E+00 -0.00000000000E+00 -0.94651927332E+03  0.94651927332E+03  0.00000000000E+00 0.  1.
          6    1    1    2  501    0  0.20872156555E+02 -0.58801193032E+02 -0.50754483043E+03  0.53983699588E+03  0.17300000000E+03 0.  1.
         -6    1    1    2    0  502 -0.20872156555E+02  0.58801193032E+02 -0.40283074978E+03  0.44282597054E+03  0.17300000000E+03 0.  1.
<mgrwt>
<rscale>  2 0.18390820E+03</rscale>
<asrwt>0</asrwt>
<pdfrwt beam="1">  1       21 0.55605684E-02 0.18390820E+03</pdfrwt>
<pdfrwt beam="2">  1       21 0.14561834E+00 0.18390820E+03</pdfrwt>
<totfact> 0.72859187E+04</totfact>
</mgrwt>
</event>
<event>
 4    1  0.4199484E+000  0.2134764E+03  0.7546771E-02  0.1138842E+00
         21   -1    0    0  503  502  0.00000000000E+00  0.00000000000E+00  0.40482437783E+03  0.40482437783E+03  0.00000000000E+00 0.  1.
         21   -1    0    0  501  503 -0.00000000000E+00 -0.00000000000E+00 -0.11437739656E+03  0.11437739656E+03  0.00000000000E+00 0.  1.
          6    1    1    2  501    0 -0.73983142266E+02 -0.10084484648E+03  0.11261477771E+03  0.24135922721E+03  0.17300000000E+03 0.  1.
         -6    1    1    2    0  502  0.73983142266E+02  0.10084484648E+03  0.17783220355E+03  0.27784254718E+03  0.17300000000E+03 0.  1.
<mgrwt>
<rscale>  2 0.21347644E+03</rscale>
<asrwt>0</asrwt>
<pdfrwt beam="1">  1       21 0.62280673E-01 0.21347644E+03</pdfrwt>
<pdfrwt beam="2">  1       21 0.17596523E-01 0.21347644E+03</pdfrwt>
<totfact> 0.69356347E+04</totfact>
</mgrwt>
</event>
<event>
 4    1  0.4199484E+000  0.1908688E+03  0.7546771E-02  0.1157680E+00
         21   -1    0    0  503  502  0.00000000000E+00  0.00000000000E+00  0.10935784083E+04  0.10935784083E+04  0.00000000000E+00 0. -1.
         21   -1    0    0  501  503 -0.00000000000E+00 -0.00000000000E+00 -0.33770612674E+02  0.33770612674E+02  0.00000000000E+00 0. -1.
          6    1    1    2  501    0  0.78346541411E+02  0.19071617569E+02  0.46432290146E+03  0.50202257317E+03  0.17300000000E+03 0. -1.
         -6    1    1    2    0  502 -0.78346541411E+02 -0.19071617569E+02  0.59548489417E+03  0.62532644781E+03  0.17300000000E+03 0. -1.
<mgrwt>
<rscale>  2 0.19086882E+03</rscale>
<asrwt>0</asrwt>
<pdfrwt beam="1">  1       21 0.16824280E+00 0.19086882E+03</pdfrwt>
<pdfrwt beam="2">  1       21 0.51954797E-02 0.19086882E+03</pdfrwt>
<totfact> 0.55395235E+04</totfact>
</mgrwt>
</event>
<event>
 4    1  0.4199484E+000  0.2073226E+03  0.7546771E-02  0.1143704E+00
         21   -1    0    0  501  502  0.00000000000E+00  0.00000000000E+00  0.60643190675E+02  0.60643190675E+02  0.00000000000E+00 0. -1.
         21   -1    0    0  502  503 -0.00000000000E+00 -0.00000000000E+00 -0.72578644247E+03  0.72578644247E+03  0.00000000000E+00 0. -1.
          6    1    1    2  501    0  0.11279541766E+03 -0.18189817668E+02 -0.27238039386E+03  0.34230652152E+03  0.17300000000E+03 0. -1.
         -6    1    1    2    0  503 -0.11279541766E+03  0.18189817668E+02 -0.39276285793E+03  0.44412311163E+03  0.17300000000E+03 0. -1.
<mgrwt>
<rscale>  2 0.20732264E+03</rscale>
<asrwt>0</asrwt>
<pdfrwt beam="1">  1       21 0.93297220E-02 0.20732264E+03</pdfrwt>
<pdfrwt beam="2">  1       21 0.11165945E+00 0.20732264E+03</pdfrwt>
<totfact> 0.57329657E+04</totfact>
</mgrwt>
</event>
<event>
 4    1  0.4199484E+000  0.2962271E+03  0.7546771E-02  0.1087142E+00
         21   -1    0    0  503  502  0.00000000000E+00  0.00000000000E+00  0.53211653476E+03  0.53211653476E+03  0.00000000000E+00 0.  1.
         21   -1    0    0  501  503 -0.00000000000E+00 -0.00000000000E+00 -0.33266514682E+03  0.33266514682E+03  0.00000000000E+00 0.  1.
          6    1    1    2  501    0 -0.15899886687E+03  0.18039089315E+03 -0.20732689616E+03  0.36157289150E+03  0.17300000000E+03 0.  1.
         -6    1    1    2    0  502  0.15899886687E+03 -0.18039089315E+03  0.40677828410E+03  0.50320879008E+03  0.17300000000E+03 0.  1.
<mgrwt>
<rscale>  2 0.29622713E+03</rscale>
<asrwt>0</asrwt>
<pdfrwt beam="1">  1       21 0.81864082E-01 0.29622713E+03</pdfrwt>
<pdfrwt beam="2">  1       21 0.51179254E-01 0.29622713E+03</pdfrwt>
<totfact> 0.44281930E+03</totfact>
</mgrwt>
</event>
<event>
 4    1  0.4199484E+000  0.2414418E+03  0.7546771E-02  0.1118836E+00
         21   -1    0    0  501  502  0.00000000000E+00  0.00000000000E+00  0.96108160795E+03  0.96108160795E+03  0.00000000000E+00 0.  1.
         21   -1    0    0  502  503 -0.00000000000E+00 -0.00000000000E+00 -0.79873292696E+02  0.79873292696E+02  0.00000000000E+00 0.  1.
          6    1    1    2  501    0  0.16335832471E+03 -0.40978048387E+02  0.69591050305E+03  0.73660408019E+03  0.17300000000E+03 0.  1.
         -6    1    1    2    0  503 -0.16335832471E+03  0.40978048387E+02  0.18529781221E+03  0.30435082046E+03  0.17300000000E+03 0.  1.
<mgrwt>
<rscale>  2 0.24144180E+03</rscale>
<asrwt>0</asrwt>
<pdfrwt beam="1">  1       21 0.14785870E+00 0.24144180E+03</pdfrwt>
<pdfrwt beam="2">  1       21 0.12288200E-01 0.24144180E+03</pdfrwt>
<totfact> 0.16922217E+04</totfact>
</mgrwt>
</event>
<event>
 4    1  0.4199484E+000  0.2813297E+03  0.7546771E-02  0.1094965E+00
         21   -1    0    0  501  502  0.00000000000E+00  0.00000000000E+00  0.44521030929E+03  0.44521030929E+03  0.00000000000E+00 0.  1.
         21   -1    0    0  502  503 -0.00000000000E+00 -0.00000000000E+00 -0.39206748585E+03  0.39206748585E+03  0.00000000000E+00 0.  1.
          6    1    1    2  501    0 -0.11553296271E+03 -0.18939254356E+03  0.33607422207E+03  0.43828333732E+03  0.17300000000E+03 0.  1.
         -6    1    1    2    0  503  0.11553296271E+03  0.18939254356E+03 -0.28293139864E+03  0.39899445782E+03  0.17300000000E+03 0.  1.
<mgrwt>
<rscale>  2 0.28132970E+03</rscale>
<asrwt>0</asrwt>
<pdfrwt beam="1">  1       21 0.68493893E-01 0.28132970E+03</pdfrwt>
<pdfrwt beam="2">  1       21 0.60318075E-01 0.28132970E+03</pdfrwt>
<totfact> 0.46948515E+03</totfact>
</mgrwt>
</event>
<event>
 4    1  0.4199484E+000  0.2008453E+03  0.7546771E-02  0.1149028E+00
         21   -1    0    0  503  502  0.00000000000E+00  0.00000000000E+00  0.20116704364E+03  0.20116704364E+03  0.00000000000E+00 0. -1.
         21   -1    0    0  501  503 -0.00000000000E+00 -0.00000000000E+00 -0.20617451337E+03  0.20617451337E+03  0.00000000000E+00 0.  1.
          6    1    1    2  501    0 -0.99745148359E+02  0.21464572962E+02 -0.36221187589E+02  0.20408526881E+03  0.17300000000E+03 0.  1.
         -6    1    1    2    0  502  0.99745148359E+02 -0.21464572962E+02  0.31213717860E+02  0.20325628821E+03  0.17300000000E+03 0. -1.
<mgrwt>
<rscale>  2 0.20084527E+03</rscale>
<asrwt>0</asrwt>
<pdfrwt beam="1">  1       21 0.30948776E-01 0.20084527E+03</pdfrwt>
<pdfrwt beam="2">  1       21 0.31719156E-01 0.20084527E+03</pdfrwt>
<totfact> 0.95506585E+04</totfact>
</mgrwt>
</event>
<event>
 4    1  0.4199484E+000  0.1876851E+03  0.7546771E-02  0.1160566E+00
         21   -1    0    0  503  502  0.00000000000E+00  0.00000000000E+00  0.17507543789E+03  0.17507543789E+03  0.00000000000E+00 0. -1.
         21   -1    0    0  501  503 -0.00000000000E+00 -0.00000000000E+00 -0.27474025366E+03  0.27474025366E+03  0.00000000000E+00 0.  1.
          6    1    1    2  501    0  0.69570175175E+02  0.21370660039E+02 -0.16619060276E+03  0.25068911191E+03  0.17300000000E+03 0.  1.
         -6    1    1    2    0  502 -0.69570175175E+02 -0.21370660039E+02  0.66525786989E+02  0.19912657964E+03  0.17300000000E+03 0. -1.
<mgrwt>
<rscale>  2 0.18768515E+03</rscale>
<asrwt>0</asrwt>
<pdfrwt beam="1">  1       21 0.26934683E-01 0.18768515E+03</pdfrwt>
<pdfrwt beam="2">  1       21 0.42267731E-01 0.18768515E+03</pdfrwt>
<totfact> 0.70870153E+04</totfact>
</mgrwt>
</event>
<event>
 4    1  0.4199484E+000  0.2149696E+03  0.7546771E-02  0.1137690E+00
         21   -1    0    0  501  502  0.00000000000E+00  0.00000000000E+00  0.17218031209E+03  0.17218031209E+03  0.00000000000E+00 0.  1.
         21   -1    0    0  502  503 -0.00000000000E+00 -0.00000000000E+00 -0.81593782667E+03  0.81593782667E+03  0.00000000000E+00 0. -1.
          6    1    1    2  501    0 -0.99402880879E+02 -0.80012369411E+02  0.82846551563E+02  0.23038112573E+03  0.17300000000E+03 0.  1.
         -6    1    1    2    0  503  0.99402880879E+02  0.80012369411E+02 -0.72660406615E+03  0.75773701304E+03  0.17300000000E+03 0. -1.
<mgrwt>
<rscale>  2 0.21496956E+03</rscale>
<asrwt>0</asrwt>
<pdfrwt beam="1">  1       21 0.26489278E-01 0.21496956E+03</pdfrwt>
<pdfrwt beam="2">  1       21 0.12552890E+00 0.21496956E+03</pdfrwt>
<totfact> 0.62912508E+03</totfact>
</mgrwt>
</event>
<event>
 4    1  0.4199484E+000  0.2053824E+03  0.7546771E-02  0.1145276E+00
         21   -1    0    0  503  502  0.00000000000E+00  0.00000000000E+00  0.59034824598E+03  0.59034824598E+03  0.00000000000E+00 0.  1.
         21   -1    0    0  501  503 -0.00000000000E+00 -0.00000000000E+00 -0.75394169995E+02  0.75394169995E+02  0.00000000000E+00 0.  1.
          6    1    1    2  501    0  0.75233377898E+02 -0.81196472512E+02  0.18136717772E+03  0.27399996615E+03  0.17300000000E+03 0.  1.
         -6    1    1    2    0  502 -0.75233377898E+02  0.81196472512E+02  0.33358689827E+03  0.39174244983E+03  0.17300000000E+03 0.  1.
<mgrwt>
<rscale>  2 0.20538240E+03</rscale>
<asrwt>0</asrwt>
<pdfrwt beam="1">  1       21 0.90822804E-01 0.20538240E+03</pdfrwt>
<pdfrwt beam="2">  1       21 0.11599103E-01 0.20538240E+03</pdfrwt>
<totfact> 0.63754502E+04</totfact>
</mgrwt>
</event>
<event>
 4    1  0.4199484E+000  0.2533999E+03  0.7546771E-02  0.1111175E+00
         21   -1    0    0  503  502  0.00000000000E+00  0.00000000000E+00  0.11909523370E+04  0.11909523370E+04  0.00000000000E+00 0.  1.
         21   -1    0    0  501  503 -0.00000000000E+00 -0.00000000000E+00 -0.59332760672E+02  0.59332760672E+02  0.00000000000E+00 0.  1.
          6    1    1    2  501    0  0.11966273292E+03 -0.14129174705E+03  0.37692505759E+03  0.45418501349E+03  0.17300000000E+03 0.  1.
         -6    1    1    2    0  502 -0.11966273292E+03  0.14129174705E+03  0.75469451875E+03  0.79610008420E+03  0.17300000000E+03 0.  1.
<mgrwt>
<rscale>  2 0.25339994E+03</rscale>
<asrwt>0</asrwt>
<pdfrwt beam="1">  1       21 0.18322342E+00 0.25339994E+03</pdfrwt>
<pdfrwt beam="2">  1       21 0.91281180E-02 0.25339994E+03</pdfrwt>
<totfact> 0.15824883E+04</totfact>
</mgrwt>
</event>
<event>
 4    1  0.4199484E+000  0.1755924E+03  0.7546771E-02  0.1172138E+00
         21   -1    0    0  503  502  0.00000000000E+00  0.00000000000E+00  0.15378245028E+03  0.15378245028E+03  0.00000000000E+00 0.  1.
         21   -1    0    0  501  503 -0.00000000000E+00 -0.00000000000E+00 -0.23609468699E+03  0.23609468699E+03  0.00000000000E+00 0.  1.
          6    1    1    2  501    0  0.17251616265E+02  0.24618337511E+02 -0.11685248620E+03  0.21091985287E+03  0.17300000000E+03 0. -1.
         -6    1    1    2    0  502 -0.17251616265E+02 -0.24618337511E+02  0.34540249489E+02  0.17895728440E+03  0.17300000000E+03 0. -1.
<mgrwt>
<rscale>  2 0.17559237E+03</rscale>
<asrwt>0</asrwt>
<pdfrwt beam="1">  1       21 0.23658839E-01 0.17559237E+03</pdfrwt>
<pdfrwt beam="2">  1       21 0.36322259E-01 0.17559237E+03</pdfrwt>
<totfact> 0.12370951E+05</totfact>
</mgrwt>
</event>
<event>
 4    1  0.4199484E+000  0.1776863E+03  0.7546771E-02  0.1170061E+00
         21   -1    0    0  501  502  0.00000000000E+00  0.00000000000E+00  0.78387867182E+03  0.78387867182E+03  0.00000000000E+00 0. -1.
         21   -1    0    0  502  503 -0.00000000000E+00 -0.00000000000E+00 -0.12442483312E+03  0.12442483312E+03  0.00000000000E+00 0. -1.
          6    1    1    2  501    0  0.20803066667E+02  0.34794670795E+02  0.70320783743E+03  0.72530938180E+03  0.17300000000E+03 0. -1.
         -6    1    1    2    0  503 -0.20803066667E+02 -0.34794670795E+02 -0.43753998727E+02  0.18299412314E+03  0.17300000000E+03 0. -1.
<mgrwt>
<rscale>  2 0.17768634E+03</rscale>
<asrwt>0</asrwt>
<pdfrwt beam="1">  1       21 0.12059672E+00 0.17768634E+03</pdfrwt>
<pdfrwt beam="2">  1       21 0.19142282E-01 0.17768634E+03</pdfrwt>
<totfact> 0.13203154E+04</totfact>
</mgrwt>
</event>
<event>
 4    1  0.4199484E+000  0.1917030E+03  0.7546771E-02  0.1156934E+00
         21   -1    0    0  501  502  0.00000000000E+00  0.00000000000E+00  0.10270538843E+03  0.10270538843E+03  0.00000000000E+00 0.  1.
         21   -1    0    0  502  503 -0.00000000000E+00 -0.00000000000E+00 -0.61154588676E+03  0.61154588676E+03  0.00000000000E+00 0.  1.
          6    1    1    2  501    0 -0.40164375119E+02 -0.72165650156E+02 -0.24387981787E+02  0.19324810930E+03  0.17300000000E+03 0.  1.
         -6    1    1    2    0  503  0.40164375119E+02  0.72165650156E+02 -0.48445251654E+03  0.52100316589E+03  0.17300000000E+03 0.  1.
<mgrwt>
<rscale>  2 0.19170305E+03</rscale>
<asrwt>0</asrwt>
<pdfrwt beam="1">  1       21 0.15800829E-01 0.19170305E+03</pdfrwt>
<pdfrwt beam="2">  1       21 0.94083983E-01 0.19170305E+03</pdfrwt>
<totfact> 0.33825072E+04</totfact>
</mgrwt>
</event>
<event>
 4    1  0.4199484E+000  0.2563539E+03  0.7546771E-02  0.1109354E+00
         21   -1    0    0  501  502  0.00000000000E+00  0.00000000000E+00  0.23925098170E+03  0.23925098170E+03  0.00000000000E+00 0. -1.
         21   -1    0    0  502  503 -0.00000000000E+00 -0.00000000000E+00 -0.61383656159E+03  0.61383656159E+03  0.00000000000E+00 0. -1.
          6    1    1    2  501    0  0.18396946415E+03  0.44085516084E+02  0.12976452478E+03  0.28732582265E+03  0.17300000000E+03 0. -1.
         -6    1    1    2    0  503 -0.18396946415E+03 -0.44085516084E+02 -0.50435010466E+03  0.56576172064E+03  0.17300000000E+03 0. -1.
<mgrwt>
<rscale>  2 0.25635385E+03</rscale>
<asrwt>0</asrwt>
<pdfrwt beam="1">  1       21 0.36807844E-01 0.25635385E+03</pdfrwt>
<pdfrwt beam="2">  1       21 0.94436392E-01 0.25635385E+03</pdfrwt>
<totfact> 0.64058613E+03</totfact>
</mgrwt>
</event>
<event>
 4    1  0.4199484E+000  0.2128438E+03  0.7546771E-02  0.1139334E+00
         21   -1    0    0  501  502  0.00000000000E+00  0.00000000000E+00  0.24681171249E+03  0.24681171249E+03  0.00000000000E+00 0.  1.
         21   -1    0    0  502  503 -0.00000000000E+00 -0.00000000000E+00 -0.25245333270E+03  0.25245333270E+03  0.00000000000E+00 0.  1.
          6    1    1    2  501    0  0.78069446638E+02  0.96325672370E+02  0.12759443987E+03  0.24815884981E+03  0.17300000000E+03 0.  1.
         -6    1    1    2    0  503 -0.78069446638E+02 -0.96325672370E+02 -0.13323606008E+03  0.25110619538E+03  0.17300000000E+03 0.  1.
<mgrwt>
<rscale>  2 0.21284378E+03</rscale>
<asrwt>0</asrwt>
<pdfrwt beam="1">  1       21 0.37971033E-01 0.21284378E+03</pdfrwt>
<pdfrwt beam="2">  1       21 0.38838974E-01 0.21284378E+03</pdfrwt>
<totfact> 0.42325735E+04</totfact>
</mgrwt>
</event>
<event>
 4    1  0.4199484E+000  0.1873201E+03  0.7546771E-02  0.1160901E+00
         21   -1    0    0  503  502  0.00000000000E+00  0.00000000000E+00  0.15132788644E+03  0.15132788644E+03  0.00000000000E+00 0.  1.
         21   -1    0    0  501  503 -0.00000000000E+00 -0.00000000000E+00 -0.38210006698E+03  0.38210006698E+03  0.00000000000E+00 0.  1.
          6    1    1    2  501    0  0.71572480724E+02  0.60981498366E+01 -0.28262284380E+03  0.33906412265E+03  0.17300000000E+03 0.  1.
         -6    1    1    2    0  502 -0.71572480724E+02 -0.60981498366E+01  0.51850663266E+02  0.19436383076E+03  0.17300000000E+03 0.  1.
<mgrwt>
<rscale>  2 0.18732007E+03</rscale>
<asrwt>0</asrwt>
<pdfrwt beam="1">  1       21 0.23281213E-01 0.18732007E+03</pdfrwt>
<pdfrwt beam="2">  1       21 0.58784625E-01 0.18732007E+03</pdfrwt>
<totfact> 0.47078918E+04</totfact>
</mgrwt>
</event>
<event>
 4    1  0.4199484E+000  0.3969665E+03  0.7546771E-02  0.1044835E+00
         21   -1    0    0  501  502  0.00000000000E+00  0.00000000000E+00  0.64204416932E+03  0.64204416932E+03  0.00000000000E+00 0.  1.
         21   -1    0    0  502  503 -0.00000000000E+00 -0.00000000000E+00 -0.12032236405E+04  0.12032236405E+04  0.00000000000E+00 0. -1.
          6    1    1    2  501    0  0.16057329675E+03 -0.31917019913E+03  0.54258164845E+03  0.67229252925E+03  0.17300000000E+03 0.  1.
         -6    1    1    2    0  503 -0.16057329675E+03  0.31917019913E+03 -0.11037611196E+04  0.11729752806E+04  0.17300000000E+03 0. -1.
<mgrwt>
<rscale>  2 0.39696650E+03</rscale>
<asrwt>0</asrwt>
<pdfrwt beam="1">  1       21 0.98776027E-01 0.39696650E+03</pdfrwt>
<pdfrwt beam="2">  1       21 0.18511133E+00 0.39696650E+03</pdfrwt>
<totfact> 0.11744522E+02</totfact>
</mgrwt>
</event>
<event>
 4    1  0.4199484E+000  0.1996108E+03  0.7546771E-02  0.1150068E+00
         21   -1    0    0  503  502  0.00000000000E+00  0.00000000000E+00  0.10547093081E+03  0.10547093081E+03  0.00000000000E+00 0.  1.
         21   -1    0    0  501  503 -0.00000000000E+00 -0.00000000000E+00 -0.53175408151E+03  0.53175408151E+03  0.00000000000E+00 0.  1.
          6    1    1    2  501    0  0.13135821730E+02  0.98706240613E+02 -0.38459087406E+03  0.43330660295E+03  0.17300000000E+03 0.  1.
         -6    1    1    2    0  502 -0.13135821730E+02 -0.98706240613E+02 -0.41692276634E+02  0.20391840937E+03  0.17300000000E+03 0.  1.
<mgrwt>
<rscale>  2 0.19961080E+03</rscale>
<asrwt>0</asrwt>
<pdfrwt beam="1">  1       21 0.16226298E-01 0.19961080E+03</pdfrwt>
<pdfrwt beam="2">  1       21 0.81808318E-01 0.19961080E+03</pdfrwt>
<totfact> 0.44271716E+04</totfact>
</mgrwt>
</event>
<event>
 4    1  0.4199484E+000  0.2498062E+03  0.7546771E-02  0.1113427E+00
         21   -1    0    0  503  502  0.00000000000E+00  0.00000000000E+00  0.66656989829E+02  0.66656989829E+02  0.00000000000E+00 0.  1.
         21   -1    0    0  501  503 -0.00000000000E+00 -0.00000000000E+00 -0.93625674489E+03  0.93625674489E+03  0.00000000000E+00 0.  1.
          6    1    1    2  501    0 -0.18012564658E+03  0.53766884673E+01 -0.43924277595E+03  0.50530918610E+03  0.17300000000E+03 0.  1.
         -6    1    1    2    0  502  0.18012564658E+03 -0.53766884673E+01 -0.43035697912E+03  0.49760454862E+03  0.17300000000E+03 0.  1.
<mgrwt>
<rscale>  2 0.24980624E+03</rscale>
<asrwt>0</asrwt>
<pdfrwt beam="1">  1       21 0.10254922E-01 0.24980624E+03</pdfrwt>
<pdfrwt beam="2">  1       21 0.14403949E+00 0.24980624E+03</pdfrwt>
<totfact> 0.24953372E+04</totfact>
</mgrwt>
</event>
<event>
 4    1  0.4199484E+000  0.1878791E+03  0.7546771E-02  0.1160388E+00
         21   -1    0    0  503  502  0.00000000000E+00  0.00000000000E+00  0.33563006132E+02  0.33563006132E+02  0.00000000000E+00 0. -1.
         21   -1    0    0  501  503 -0.00000000000E+00 -0.00000000000E+00 -0.11071405151E+04  0.11071405151E+04  0.00000000000E+00 0.  1.
          6    1    1    2  501    0  0.64132262714E+02 -0.35448517137E+02 -0.66440807242E+03  0.69046117283E+03  0.17300000000E+03 0.  1.
         -6    1    1    2    0  502 -0.64132262714E+02  0.35448517137E+02 -0.40916943652E+03  0.45024234837E+03  0.17300000000E+03 0. -1.
<mgrwt>
<rscale>  2 0.18787907E+03</rscale>
<asrwt>0</asrwt>
<pdfrwt beam="1">  1       21 0.51635400E-02 0.18787907E+03</pdfrwt>
<pdfrwt beam="2">  1       21 0.17032929E+00 0.18787907E+03</pdfrwt>
<totfact> 0.54208629E+04</totfact>
</mgrwt>
</event>
<event>
 4    1  0.4199484E+000  0.2013282E+03  0.7546771E-02  0.1148623E+00
         21   -1    0    0  503  502  0.00000000000E+00  0.00000000000E+00  0.11252977762E+04  0.11252977762E+04  0.00000000000E+00 0.  1.
         21   -1    0    0  501  503 -0.00000000000E+00 -0.00000000000E+00 -0.64677494535E+02  0.64677494535E+02  0.00000000000E+00 0. -1.
          6    1    1    2  501    0  0.96202143748E+02 -0.36731295590E+02  0.13425860303E+03  0.24198845639E+03  0.17300000000E+03 0. -1.
         -6    1    1    2    0  502 -0.96202143748E+02  0.36731295590E+02  0.92636167865E+03  0.94798681436E+03  0.17300000000E+03 0.  1.
<mgrwt>
<rscale>  2 0.20132819E+03</rscale>
<asrwt>0</asrwt>
<pdfrwt beam="1">  1       21 0.17312272E+00 0.20132819E+03</pdfrwt>
<pdfrwt beam="2">  1       21 0.99503846E-02 0.20132819E+03</pdfrwt>
<totfact> 0.16506319E+04</totfact>
</mgrwt>
</event>
<event>
 4    1  0.4199484E+000  0.1940273E+03  0.7546771E-02  0.1154878E+00
         21   -1    0    0  501  502  0.00000000000E+00  0.00000000000E+00  0.23646309344E+03  0.23646309344E+03  0.00000000000E+00 0. -1.
         21   -1    0    0  502  503 -0.00000000000E+00 -0.00000000000E+00 -0.17924461537E+04  0.17924461537E+04  0.00000000000E+00 0.  1.
          6    1    1    2  501    0 -0.40834499389E+02  0.77782656318E+02  0.19036313234E+03  0.27181743895E+03  0.17300000000E+03 0. -1.
         -6    1    1    2    0  503  0.40834499389E+02 -0.77782656318E+02 -0.17463461926E+04  0.17570918082E+04  0.17300000000E+03 0.  1.
<mgrwt>
<rscale>  2 0.19402731E+03</rscale>
<asrwt>0</asrwt>
<pdfrwt beam="1">  1       21 0.36378937E-01 0.19402731E+03</pdfrwt>
<pdfrwt beam="2">  1       21 0.27576095E+00 0.19402731E+03</pdfrwt>
<totfact> 0.34239746E+02</totfact>
</mgrwt>
</event>
<event>
 4    1  0.4199484E+000  0.2290611E+03  0.7546771E-02  0.1127302E+00
         21   -1    0    0  501  502  0.00000000000E+00  0.00000000000E+00  0.17283085506E+03  0.17283085506E+03  0.00000000000E+00 0. -1.
         21   -1    0    0  502  503 -0.00000000000E+00 -0.00000000000E+00 -0.34601782857E+03  0.34601782857E+03  0.00000000000E+00 0. -1.
          6    1    1    2  501    0 -0.13677126417E+03 -0.61916116399E+02  0.42531085746E+01  0.22910057422E+03  0.17300000000E+03 0. -1.
         -6    1    1    2    0  503  0.13677126417E+03  0.61916116399E+02 -0.17744008209E+03  0.28974810941E+03  0.17300000000E+03 0. -1.
<mgrwt>
<rscale>  2 0.22906109E+03</rscale>
<asrwt>0</asrwt>
<pdfrwt beam="1">  1       21 0.26589363E-01 0.22906109E+03</pdfrwt>
<pdfrwt beam="2">  1       21 0.53233511E-01 0.22906109E+03</pdfrwt>
<totfact> 0.44199409E+04</totfact>
</mgrwt>
</event>
<event>
 4    1  0.4199484E+000  0.1966978E+03  0.7546771E-02  0.1152555E+00
         21   -1    0    0  503  502  0.00000000000E+00  0.00000000000E+00  0.44970959939E+03  0.44970959939E+03  0.00000000000E+00 0.  1.
         21   -1    0    0  501  503 -0.00000000000E+00 -0.00000000000E+00 -0.13477331088E+03  0.13477331088E+03  0.00000000000E+00 0. -1.
          6    1    1    2  501    0  0.92171137344E+02  0.16293919198E+02 -0.18276698645E+02  0.19754505328E+03  0.17300000000E+03 0. -1.
         -6    1    1    2    0  502 -0.92171137344E+02 -0.16293919198E+02  0.33321298716E+03  0.38693785699E+03  0.17300000000E+03 0.  1.
<mgrwt>
<rscale>  2 0.19669776E+03</rscale>
<asrwt>0</asrwt>
<pdfrwt beam="1">  1       21 0.69186092E-01 0.19669776E+03</pdfrwt>
<pdfrwt beam="2">  1       21 0.20734356E-01 0.19669776E+03</pdfrwt>
<totfact> 0.40938418E+04</totfact>
</mgrwt>
</event>
<event>
 4    1  0.4199484E+000  0.1996816E+03  0.7546771E-02  0.1150008E+00
         21   -1    0    0  501  502  0.00000000000E+00  0.00000000000E+00  0.10483490426E+04  0.10483490426E+04  0.00000000000E+00 0.  1.
         21   -1    0    0  502  503 -0.00000000000E+00 -0.00000000000E+00 -0.76666711402E+02  0.76666711402E+02  0.00000000000E+00 0.  1.
          6    1    1    2  501    0 -0.82090772951E+02 -0.56611381808E+02  0.88514516940E+03  0.90738895434E+03  0.17300000000E+03 0.  1.
         -6    1    1    2    0  503  0.82090772951E+02  0.56611381808E+02  0.86537161785E+02  0.21762679964E+03  0.17300000000E+03 0.  1.
<mgrwt>
<rscale>  2 0.19968161E+03</rscale>
<asrwt>0</asrwt>
<pdfrwt beam="1">  1       21 0.16128446E+00 0.19968161E+03</pdfrwt>
<pdfrwt beam="2">  1       21 0.11794879E-01 0.19968161E+03</pdfrwt>
<totfact> 0.14830894E+04</totfact>
</mgrwt>
</event>
<event>
 4    1  0.4199484E+000  0.1926865E+03  0.7546771E-02  0.1156060E+00
         21   -1    0    0  503  502  0.00000000000E+00  0.00000000000E+00  0.13477968924E+03  0.13477968924E+03  0.00000000000E+00 0. -1.
         21   -1    0    0  501  503 -0.00000000000E+00 -0.00000000000E+00 -0.36554453483E+03  0.36554453483E+03  0.00000000000E+00 0. -1.
          6    1    1    2  501    0  0.16769034557E+02 -0.83173863821E+02 -0.23956094239E+03  0.30743704601E+03  0.17300000000E+03 0. -1.
         -6    1    1    2    0  502 -0.16769034557E+02  0.83173863821E+02  0.87960967920E+01  0.19288717806E+03  0.17300000000E+03 0. -1.
<mgrwt>
<rscale>  2 0.19268651E+03</rscale>
<asrwt>0</asrwt>
<pdfrwt beam="1">  1       21 0.20735337E-01 0.19268651E+03</pdfrwt>
<pdfrwt beam="2">  1       21 0.56237621E-01 0.19268651E+03</pdfrwt>
<totfact> 0.64199822E+04</totfact>
</mgrwt>
</event>
<event>
 4    1  0.4199484E+000  0.2258263E+03  0.7546771E-02  0.1129612E+00
         21   -1    0    0  503  502  0.00000000000E+00  0.00000000000E+00  0.88244528396E+03  0.88244528396E+03  0.00000000000E+00 0.  1.
         21   -1    0    0  501  503 -0.00000000000E+00 -0.00000000000E+00 -0.96091421200E+02  0.96091421200E+02  0.00000000000E+00 0. -1.
          6    1    1    2  501    0  0.12842209125E+03  0.67648267647E+02  0.84285557176E+02  0.24104268665E+03  0.17300000000E+03 0. -1.
         -6    1    1    2    0  502 -0.12842209125E+03 -0.67648267647E+02  0.70206830559E+03  0.73749401852E+03  0.17300000000E+03 0.  1.
<mgrwt>
<rscale>  2 0.22582631E+03</rscale>
<asrwt>0</asrwt>
<pdfrwt beam="1">  1       21 0.13576081E+00 0.22582631E+03</pdfrwt>
<pdfrwt beam="2">  1       21 0.14783296E-01 0.22582631E+03</pdfrwt>
<totfact> 0.15262344E+04</totfact>
</mgrwt>
</event>
<event>
 4    1  0.4199484E+000  0.1738598E+03  0.7546771E-02  0.1173881E+00
         21   -1    0    0  503  502  0.00000000000E+00  0.00000000000E+00  0.77103384753E+03  0.77103384753E+03  0.00000000000E+00 0.  1.
         21   -1    0    0  501  503 -0.00000000000E+00 -0.00000000000E+00 -0.39310391694E+02  0.39310391694E+02  0.00000000000E+00 0.  1.
          6    1    1    2  501    0 -0.12831681839E+02  0.11558302877E+02  0.38698701196E+03  0.42424779769E+03  0.17300000000E+03 0.  1.
         -6    1    1    2    0  502  0.12831681839E+02 -0.11558302877E+02  0.34473644388E+03  0.38609644153E+03  0.17300000000E+03 0.  1.
<mgrwt>
<rscale>  2 0.17385985E+03</rscale>
<asrwt>0</asrwt>
<pdfrwt beam="1">  1       21 0.11862058E+00 0.17385985E+03</pdfrwt>
<pdfrwt beam="2">  1       21 0.60477531E-02 0.17385985E+03</pdfrwt>
<totfact> 0.10656540E+05</totfact>
</mgrwt>
</event>
<event>
 4    1  0.4199484E+000  0.1983358E+03  0.7546771E-02  0.1151151E+00
         21   -1    0    0  501  502  0.00000000000E+00  0.00000000000E+00  0.23374192918E+03  0.23374192918E+03  0.00000000000E+00 0.  1.
         21   -1    0    0  502  503 -0.00000000000E+00 -0.00000000000E+00 -0.49278118287E+03  0.49278118287E+03  0.00000000000E+00 0.  1.
          6    1    1    2  501    0 -0.15726628376E+02 -0.95711976978E+02  0.16525621220E+03  0.25816027008E+03  0.17300000000E+03 0.  1.
         -6    1    1    2    0  503  0.15726628376E+02  0.95711976978E+02 -0.42429546588E+03  0.46836284198E+03  0.17300000000E+03 0.  1.
<mgrwt>
<rscale>  2 0.19833585E+03</rscale>
<asrwt>0</asrwt>
<pdfrwt beam="1">  1       21 0.35960297E-01 0.19833585E+03</pdfrwt>
<pdfrwt beam="2">  1       21 0.75812489E-01 0.19833585E+03</pdfrwt>
<totfact> 0.11529720E+04</totfact>
</mgrwt>
</event>
<event>
 4    1  0.4199484E+000  0.2049431E+03  0.7546771E-02  0.1145634E+00
         21   -1    0    0  503  502  0.00000000000E+00  0.00000000000E+00  0.11686356882E+03  0.11686356882E+03  0.00000000000E+00 0. -1.
         21   -1    0    0  501  503 -0.00000000000E+00 -0.00000000000E+00 -0.42271031859E+03  0.42271031859E+03  0.00000000000E+00 0. -1.
          6    1    1    2  501    0  0.86644301087E+02 -0.67567958049E+02 -0.25732575945E+03  0.32896536344E+03  0.17300000000E+03 0. -1.
         -6    1    1    2    0  502 -0.86644301087E+02  0.67567958049E+02 -0.48520990328E+02  0.21060852397E+03  0.17300000000E+03 0. -1.
<mgrwt>
<rscale>  2 0.20494307E+03</rscale>
<asrwt>0</asrwt>
<pdfrwt beam="1">  1       21 0.17979010E-01 0.20494307E+03</pdfrwt>
<pdfrwt beam="2">  1       21 0.65032358E-01 0.20494307E+03</pdfrwt>
<totfact> 0.60904719E+04</totfact>
</mgrwt>
</event>
<event>
 4    1  0.4199484E+000  0.1774849E+03  0.7546771E-02  0.1170260E+00
         21   -1    0    0  503  502  0.00000000000E+00  0.00000000000E+00  0.32677094467E+02  0.32677094467E+02  0.00000000000E+00 0.  1.
         21   -1    0    0  501  503 -0.00000000000E+00 -0.00000000000E+00 -0.12742613691E+04  0.12742613691E+04  0.00000000000E+00 0. -1.
          6    1    1    2  501    0  0.23864200276E+02  0.31660706114E+02 -0.94323729145E+03  0.95979033562E+03  0.17300000000E+03 0. -1.
         -6    1    1    2    0  502 -0.23864200276E+02 -0.31660706114E+02 -0.29834698322E+03  0.34714812798E+03  0.17300000000E+03 0.  1.
<mgrwt>
<rscale>  2 0.17748493E+03</rscale>
<asrwt>0</asrwt>
<pdfrwt beam="1">  1       21 0.50272448E-02 0.17748493E+03</pdfrwt>
<pdfrwt beam="2">  1       21 0.19604023E+00 0.17748493E+03</pdfrwt>
<totfact> 0.38352125E+04</totfact>
</mgrwt>
</event>
<event>
 4    1  0.4199484E+000  0.2232359E+03  0.7546771E-02  0.1131493E+00
         21   -1    0    0  503  502  0.00000000000E+00  0.00000000000E+00  0.22730846498E+03  0.22730846498E+03  0.00000000000E+00 0.  1.
         21   -1    0    0  501  503 -0.00000000000E+00 -0.00000000000E+00 -0.26624477368E+03  0.26624477368E+03  0.00000000000E+00 0. -1.
          6    1    1    2  501    0  0.95000640009E+00 -0.14108279468E+03 -0.12316170123E+03  0.25495698091E+03  0.17300000000E+03 0.  1.
         -6    1    1    2    0  502 -0.95000640009E+00  0.14108279468E+03  0.84225392526E+02  0.23859625775E+03  0.17300000000E+03 0.  1.
<mgrwt>
<rscale>  2 0.22323588E+03</rscale>
<asrwt>0</asrwt>
<pdfrwt beam="1">  1       21 0.34970533E-01 0.22323588E+03</pdfrwt>
<pdfrwt beam="2">  1       21 0.40960735E-01 0.22323588E+03</pdfrwt>
<totfact> 0.44589904E+04</totfact>
</mgrwt>
</event>
<event>
 4    1  0.4199484E+000  0.1882523E+03  0.7546771E-02  0.1160047E+00
         21   -1    0    0  501  502  0.00000000000E+00  0.00000000000E+00  0.74800623597E+03  0.74800623597E+03  0.00000000000E+00 0. -1.
         21   -1    0    0  502  503 -0.00000000000E+00 -0.00000000000E+00 -0.48470565261E+02  0.48470565261E+02  0.00000000000E+00 0.  1.
          6    1    1    2  501    0  0.64525894595E+02  0.36692270833E+02  0.40956232539E+03  0.45075515770E+03  0.17300000000E+03 0.  1.
         -6    1    1    2    0  503 -0.64525894595E+02 -0.36692270833E+02  0.28997334532E+03  0.34572164353E+03  0.17300000000E+03 0.  1.
<mgrwt>
<rscale>  2 0.18825226E+03</rscale>
<asrwt>0</asrwt>
<pdfrwt beam="1">  1       21 0.11507787E+00 0.18825226E+03</pdfrwt>
<pdfrwt beam="2">  1       21 0.74570106E-02 0.18825226E+03</pdfrwt>
<totfact> 0.79516609E+04</totfact>
</mgrwt>
</event>
<event>
 4    1  0.4199484E+000  0.1801529E+03  0.7546771E-02  0.1167655E+00
         21   -1    0    0  503  502  0.00000000000E+00  0.00000000000E+00  0.52850473540E+03  0.52850473540E+03  0.00000000000E+00 0. -1.
         21   -1    0    0  501  503 -0.00000000000E+00 -0.00000000000E+00 -0.68401706640E+02  0.68401706640E+02  0.00000000000E+00 0. -1.
          6    1    1    2  501    0 -0.38046782421E+02 -0.32840768223E+02  0.13462742413E+03  0.22489912636E+03  0.17300000000E+03 0. -1.
         -6    1    1    2    0  502  0.38046782421E+02  0.32840768223E+02  0.32547560463E+03  0.37200731568E+03  0.17300000000E+03 0. -1.
<mgrwt>
<rscale>  2 0.18015292E+03</rscale>
<asrwt>0</asrwt>
<pdfrwt beam="1">  1       21 0.81308418E-01 0.18015292E+03</pdfrwt>
<pdfrwt beam="2">  1       21 0.10523340E-01 0.18015292E+03</pdfrwt>
<totfact> 0.98781791E+04</totfact>
</mgrwt>
</event>
<event>
 4    1  0.4199484E+000  0.1740720E+03  0.7546771E-02  0.1173667E+00
         21   -1    0    0  503  502  0.00000000000E+00  0.00000000000E+00  0.15581223298E+04  0.15581223298E+04  0.00000000000E+00 0. -1.
         21   -1    0    0  501  503 -0.00000000000E+00 -0.00000000000E+00 -0.54680555652E+02  0.54680555652E+02  0.00000000000E+00 0. -1.
          6    1    1    2  501    0  0.11543410851E+02  0.15452968996E+02  0.10441117201E+03  0.20298457435E+03  0.17300000000E+03 0. -1.
         -6    1    1    2    0  502 -0.11543410851E+02 -0.15452968996E+02  0.13990306021E+04  0.14098183111E+04  0.17300000000E+03 0. -1.
<mgrwt>
<rscale>  2 0.17407195E+03</rscale>
<asrwt>0</asrwt>
<pdfrwt beam="1">  1       21 0.23971109E+00 0.17407195E+03</pdfrwt>
<pdfrwt beam="2">  1       21 0.84123944E-02 0.17407195E+03</pdfrwt>
<totfact> 0.85643430E+03</totfact>
</mgrwt>
</event>
<event>
 4    1  0.4199484E+000  0.2268350E+03  0.7546771E-02  0.1128887E+00
         21   -1    0    0  503  502  0.00000000000E+00  0.00000000000E+00  0.10550673221E+03  0.10550673221E+03  0.00000000000E+00 0. -1.
         21   -1    0    0  501  503 -0.00000000000E+00 -0.00000000000E+00 -0.50450891329E+03  0.50450891329E+03  0.00000000000E+00 0. -1.
          6    1    1    2  501    0  0.29417423354E+02 -0.14373487157E+03 -0.14380377446E+03  0.26857703485E+03  0.17300000000E+03 0. -1.
         -6    1    1    2    0  502 -0.29417423354E+02  0.14373487157E+03 -0.25519840661E+03  0.34143861065E+03  0.17300000000E+03 0. -1.
<mgrwt>
<rscale>  2 0.22683496E+03</rscale>
<asrwt>0</asrwt>
<pdfrwt beam="1">  1       21 0.16231805E-01 0.22683496E+03</pdfrwt>
<pdfrwt beam="2">  1       21 0.77616754E-01 0.22683496E+03</pdfrwt>
<totfact> 0.49191297E+04</totfact>
</mgrwt>
</event>
<event>
 4    1  0.4199484E+000  0.1845556E+03  0.7546771E-02  0.1163465E+00
         21   -1    0    0  503  502  0.00000000000E+00  0.00000000000E+00  0.26591627721E+03  0.26591627721E+03  0.00000000000E+00 0. -1.
         21   -1    0    0  501  503 -0.00000000000E+00 -0.00000000000E+00 -0.17009351257E+03  0.17009351257E+03  0.00000000000E+00 0. -1.
          6    1    1    2  501    0 -0.55138142870E+02 -0.33038932672E+02 -0.60424802218E+02  0.19419562970E+03  0.17300000000E+03 0. -1.
         -6    1    1    2    0  502  0.55138142870E+02  0.33038932672E+02  0.15624756686E+03  0.24181416009E+03  0.17300000000E+03 0. -1.
<mgrwt>
<rscale>  2 0.18455564E+03</rscale>
<asrwt>0</asrwt>
<pdfrwt beam="1">  1       21 0.40910196E-01 0.18455564E+03</pdfrwt>
<pdfrwt beam="2">  1       21 0.26168233E-01 0.18455564E+03</pdfrwt>
<totfact> 0.80141763E+04</totfact>
</mgrwt>
</event>
<event>
 4    1  0.4199484E+000  0.1736361E+03  0.7546771E-02  0.1174108E+00
         21   -1    0    0  503  502  0.00000000000E+00  0.00000000000E+00  0.42446818748E+02  0.42446818748E+02  0.00000000000E+00 0. -1.
         21   -1    0    0  501  503 -0.00000000000E+00 -0.00000000000E+00 -0.10278170242E+04  0.10278170242E+04  0.00000000000E+00 0. -1.
          6    1    1    2  501    0  0.99705254727E+00 -0.14815443955E+02 -0.79012160012E+03  0.80897566989E+03  0.17300000000E+03 0. -1.
         -6    1    1    2    0  502 -0.99705254727E+00  0.14815443955E+02 -0.19524860531E+03  0.26128817303E+03  0.17300000000E+03 0. -1.
<mgrwt>
<rscale>  2 0.17363609E+03</rscale>
<asrwt>0</asrwt>
<pdfrwt beam="1">  1       21 0.65302805E-02 0.17363609E+03</pdfrwt>
<pdfrwt beam="2">  1       21 0.15812568E+00 0.17363609E+03</pdfrwt>
<totfact> 0.44804850E+04</totfact>
</mgrwt>
</event>
<event>
 4    1  0.4199484E+000  0.1867158E+03  0.7546771E-02  0.1161457E+00
         21   -1    0    0  503  502  0.00000000000E+00  0.00000000000E+00  0.17343813638E+04  0.17343813638E+04  0.00000000000E+00 0.  1.
         21   -1    0    0  501  503 -0.00000000000E+00 -0.00000000000E+00 -0.69530248612E+02  0.69530248612E+02  0.00000000000E+00 0.  1.
          6    1    1    2  501    0  0.45982031453E+02 -0.53098353086E+02  0.71940971272E+02  0.20009569127E+03  0.17300000000E+03 0.  1.
         -6    1    1    2    0  502 -0.45982031453E+02  0.53098353086E+02  0.15929101439E+04  0.16038159211E+04  0.17300000000E+03 0.  1.
<mgrwt>
<rscale>  2 0.18671578E+03</rscale>
<asrwt>0</asrwt>
<pdfrwt beam="1">  1       21 0.26682787E+00 0.18671578E+03</pdfrwt>
<pdfrwt beam="2">  1       21 0.10696963E-01 0.18671578E+03</pdfrwt>
<totfact> 0.38451422E+03</totfact>
</mgrwt>
</event>
<event>
 4    1  0.4199484E+000  0.2339398E+03  0.7546771E-02  0.1123897E+00
         21   -1    0    0  501  502  0.00000000000E+00  0.00000000000E+00  0.35210775516E+04  0.35210775516E+04  0.00000000000E+00 0.  1.
         21   -1    0    0  502  503 -0.00000000000E+00 -0.00000000000E+00 -0.20720508752E+03  0.20720508752E+03  0.00000000000E+00 0. -1.
          6    1    1    2  501    0  0.45238853068E+02  0.15083852509E+03  0.34497980870E+04  0.34577210205E+04  0.17300000000E+03 0.  1.
         -6    1    1    2    0  503 -0.45238853068E+02 -0.15083852509E+03 -0.13592562295E+03  0.27056161859E+03  0.17300000000E+03 0. -1.
<mgrwt>
<rscale>  2 0.23393977E+03</rscale>
<asrwt>0</asrwt>
<pdfrwt beam="1">  1       21 0.54170420E+00 0.23393977E+03</pdfrwt>
<pdfrwt beam="2">  1       21 0.31877708E-01 0.23393977E+03</pdfrwt>
<totfact> 0.82659344E+00</totfact>
</mgrwt>
</event>
<event>
 4    1  0.4199484E+000  0.2480079E+03  0.7546771E-02  0.1114570E+00
         21   -1    0    0  501  502  0.00000000000E+00  0.00000000000E+00  0.59994865060E+03  0.59994865060E+03  0.00000000000E+00 0.  1.
         21   -1    0    0  502  503 -0.00000000000E+00 -0.00000000000E+00 -0.29980860114E+03  0.29980860114E+03  0.00000000000E+00 0. -1.
          6    1    1    2  501    0  0.15644273887E+03  0.84288712995E+02  0.51501059312E+03  0.57161510539E+03  0.17300000000E+03 0.  1.
         -6    1    1    2    0  503 -0.15644273887E+03 -0.84288712995E+02 -0.21487054366E+03  0.32814214636E+03  0.17300000000E+03 0. -1.
<mgrwt>
<rscale>  2 0.24800790E+03</rscale>
<asrwt>0</asrwt>
<pdfrwt beam="1">  1       21 0.92299792E-01 0.24800790E+03</pdfrwt>
<pdfrwt beam="2">  1       21 0.46124400E-01 0.24800790E+03</pdfrwt>
<totfact> 0.42861125E+03</totfact>
</mgrwt>
</event>
<event>
 4    1  0.4199484E+000  0.1948532E+03  0.7546771E-02  0.1154155E+00
         21   -1    0    0  503  502  0.00000000000E+00  0.00000000000E+00  0.26447560027E+03  0.26447560027E+03  0.00000000000E+00 0. -1.
         21   -1    0    0  501  503 -0.00000000000E+00 -0.00000000000E+00 -0.40537219349E+03  0.40537219349E+03  0.00000000000E+00 0. -1.
          6    1    1    2  501    0  0.89518327928E+02  0.50251568816E+01 -0.33961116018E+03  0.39153993839E+03  0.17300000000E+03 0. -1.
         -6    1    1    2    0  502 -0.89518327928E+02 -0.50251568816E+01  0.19871456696E+03  0.27830785537E+03  0.17300000000E+03 0. -1.
<mgrwt>
<rscale>  2 0.19485324E+03</rscale>
<asrwt>0</asrwt>
<pdfrwt beam="1">  1       21 0.40688554E-01 0.19485324E+03</pdfrwt>
<pdfrwt beam="2">  1       21 0.62364953E-01 0.19485324E+03</pdfrwt>
<totfact> 0.13854375E+04</totfact>
</mgrwt>
</event>
<event>
 4    1  0.4199484E+000  0.2411994E+03  0.7546771E-02  0.1118996E+00
         21   -1    0    0  501  502  0.00000000000E+00  0.00000000000E+00  0.13731438779E+03  0.13731438779E+03  0.00000000000E+00 0.  1.
         21   -1    0    0  502  503 -0.00000000000E+00 -0.00000000000E+00 -0.76194879056E+03  0.76194879056E+03  0.00000000000E+00 0.  1.
          6    1    1    2  501    0 -0.16282168668E+03  0.41680517587E+02 -0.12728252628E+02  0.24153504014E+03  0.17300000000E+03 0.  1.
         -6    1    1    2    0  503  0.16282168668E+03 -0.41680517587E+02 -0.61190615014E+03  0.65772813820E+03  0.17300000000E+03 0.  1.
<mgrwt>
<rscale>  2 0.24119943E+03</rscale>
<asrwt>0</asrwt>
<pdfrwt beam="1">  1       21 0.21125290E-01 0.24119943E+03</pdfrwt>
<pdfrwt beam="2">  1       21 0.11722289E+00 0.24119943E+03</pdfrwt>
<totfact> 0.11294068E+04</totfact>
</mgrwt>
</event>
<event>
 4    1  0.4199484E+000  0.2327402E+03  0.7546771E-02  0.1124726E+00
         21   -1    0    0  501  502  0.00000000000E+00  0.00000000000E+00  0.10822416120E+04  0.10822416120E+04  0.00000000000E+00 0.  1.
         21   -1    0    0  502  503 -0.00000000000E+00 -0.00000000000E+00 -0.51808931248E+02  0.51808931248E+02  0.00000000000E+00 0.  1.
          6    1    1    2  501    0 -0.15562184426E+03 -0.45644537119E+01  0.41078782435E+03  0.47213835820E+03  0.17300000000E+03 0.  1.
         -6    1    1    2    0  503  0.15562184426E+03  0.45644537119E+01  0.61964485637E+03  0.66191218502E+03  0.17300000000E+03 0.  1.
<mgrwt>
<rscale>  2 0.23274018E+03</rscale>
<asrwt>0</asrwt>
<pdfrwt beam="1">  1       21 0.16649869E+00 0.23274018E+03</pdfrwt>
<pdfrwt beam="2">  1       21 0.79706056E-02 0.23274018E+03</pdfrwt>
<totfact> 0.26603845E+04</totfact>
</mgrwt>
</event>
<event>
 4    1  0.4199484E+000  0.2480651E+03  0.7546771E-02  0.1114534E+00
         21   -1    0    0  501  502  0.00000000000E+00  0.00000000000E+00  0.74267484395E+03  0.74267484395E+03  0.00000000000E+00 0. -1.
         21   -1    0    0  502  503 -0.00000000000E+00 -0.00000000000E+00 -0.25996557314E+03  0.25996557314E+03  0.00000000000E+00 0.  1.
          6    1    1    2  501    0  0.46645914550E+02 -0.17155594321E+03  0.65514112138E+03  0.70053277719E+03  0.17300000000E+03 0. -1.
         -6    1    1    2    0  503 -0.46645914550E+02  0.17155594321E+03 -0.17243185057E+03  0.30210763990E+03  0.17300000000E+03 0.  1.
<mgrwt>
<rscale>  2 0.24806508E+03</rscale>
<asrwt>0</asrwt>
<pdfrwt beam="1">  1       21 0.11425767E+00 0.24806508E+03</pdfrwt>
<pdfrwt beam="2">  1       21 0.39994704E-01 0.24806508E+03</pdfrwt>
<totfact> 0.34391598E+03</totfact>
</mgrwt>
</event>
<event>
 4    1  0.4199484E+000  0.1793199E+03  0.7546771E-02  0.1168463E+00
         21   -1    0    0  501  502  0.00000000000E+00  0.00000000000E+00  0.32623292157E+03  0.32623292157E+03  0.00000000000E+00 0.  1.
         21   -1    0    0  502  503 -0.00000000000E+00 -0.00000000000E+00 -0.19004707351E+03  0.19004707351E+03  0.00000000000E+00 0.  1.
          6    1    1    2  501    0  0.23016784658E+02 -0.41192971601E+02  0.24719028094E+03  0.30538282250E+03  0.17300000000E+03 0.  1.
         -6    1    1    2    0  503 -0.23016784658E+02  0.41192971601E+02 -0.11100443288E+03  0.21089717259E+03  0.17300000000E+03 0.  1.
<mgrwt>
<rscale>  2 0.17931992E+03</rscale>
<asrwt>0</asrwt>
<pdfrwt beam="1">  1       21 0.50189680E-01 0.17931992E+03</pdfrwt>
<pdfrwt beam="2">  1       21 0.29238011E-01 0.17931992E+03</pdfrwt>
<totfact> 0.42633241E+04</totfact>
</mgrwt>
</event>
<event>
 4    1  0.4199484E+000  0.1911972E+03  0.7546771E-02  0.1157386E+00
         21   -1    0    0  503  502  0.00000000000E+00  0.00000000000E+00  0.28316488489E+02  0.28316488489E+02  0.00000000000E+00 0. -1.
         21   -1    0    0  501  503 -0.00000000000E+00 -0.00000000000E+00 -0.13801140038E+04  0.13801140038E+04  0.00000000000E+00 0. -1.
          6    1    1    2  501    0 -0.80850783673E+02  0.95133519322E+01 -0.85485259577E+03  0.87597335210E+03  0.17300000000E+03 0. -1.
         -6    1    1    2    0  502  0.80850783673E+02 -0.95133519322E+01 -0.49694491952E+03  0.53245714017E+03  0.17300000000E+03 0. -1.
<mgrwt>
<rscale>  2 0.19119716E+03</rscale>
<asrwt>0</asrwt>
<pdfrwt beam="1">  1       21 0.43563810E-02 0.19119716E+03</pdfrwt>
<pdfrwt beam="2">  1       21 0.21232532E+00 0.19119716E+03</pdfrwt>
<totfact> 0.38139333E+04</totfact>
</mgrwt>
</event>
<event>
 4    1  0.4199484E+000  0.2284757E+03  0.7546771E-02  0.1127717E+00
         21   -1    0    0  501  502  0.00000000000E+00  0.00000000000E+00  0.89431616379E+02  0.89431616379E+02  0.00000000000E+00 0.  1.
         21   -1    0    0  502  503 -0.00000000000E+00 -0.00000000000E+00 -0.58536882913E+03  0.58536882913E+03  0.00000000000E+00 0.  1.
          6    1    1    2  501    0  0.67603156520E+01 -0.14908535639E+03 -0.26598907738E+03  0.35064417098E+03  0.17300000000E+03 0.  1.
         -6    1    1    2    0  503 -0.67603156520E+01  0.14908535639E+03 -0.22994813537E+03  0.32415627453E+03  0.17300000000E+03 0.  1.
<mgrwt>
<rscale>  2 0.22847570E+03</rscale>
<asrwt>0</asrwt>
<pdfrwt beam="1">  1       21 0.13758710E-01 0.22847570E+03</pdfrwt>
<pdfrwt beam="2">  1       21 0.90056743E-01 0.22847570E+03</pdfrwt>
<totfact> 0.47299944E+04</totfact>
</mgrwt>
</event>
<event>
 4    1  0.4199484E+000  0.1799304E+03  0.7546771E-02  0.1167870E+00
         21   -1    0    0  503  502  0.00000000000E+00  0.00000000000E+00  0.45325998810E+02  0.45325998810E+02  0.00000000000E+00 0.  1.
         21   -1    0    0  501  503 -0.00000000000E+00 -0.00000000000E+00 -0.71686760370E+03  0.71686760370E+03  0.00000000000E+00 0.  1.
          6    1    1    2  501    0  0.35738727957E+02 -0.34185942898E+02 -0.35871768000E+03  0.40131447683E+03  0.17300000000E+03 0.  1.
         -6    1    1    2    0  502 -0.35738727957E+02  0.34185942898E+02 -0.31282392488E+03  0.36087912567E+03  0.17300000000E+03 0.  1.
<mgrwt>
<rscale>  2 0.17993036E+03</rscale>
<asrwt>0</asrwt>
<pdfrwt beam="1">  1       21 0.69732309E-02 0.17993036E+03</pdfrwt>
<pdfrwt beam="2">  1       21 0.11028732E+00 0.17993036E+03</pdfrwt>
<totfact> 0.99355593E+04</totfact>
</mgrwt>
</event>
<event>
 4    1  0.4199484E+000  0.1996424E+03  0.7546771E-02  0.1150041E+00
         21   -1    0    0  501  502  0.00000000000E+00  0.00000000000E+00  0.26385023589E+03  0.26385023589E+03  0.00000000000E+00 0. -1.
         21   -1    0    0  502  503 -0.00000000000E+00 -0.00000000000E+00 -0.38674604744E+03  0.38674604744E+03  0.00000000000E+00 0. -1.
          6    1    1    2  501    0 -0.61985688307E+02 -0.78011893806E+02  0.19249497973E+03  0.27732904347E+03  0.17300000000E+03 0. -1.
         -6    1    1    2    0  503  0.61985688307E+02  0.78011893806E+02 -0.31539079128E+03  0.37326723986E+03  0.17300000000E+03 0. -1.
<mgrwt>
<rscale>  2 0.19964238E+03</rscale>
<asrwt>0</asrwt>
<pdfrwt beam="1">  1       21 0.40592344E-01 0.19964238E+03</pdfrwt>
<pdfrwt beam="2">  1       21 0.59499392E-01 0.19964238E+03</pdfrwt>
<totfact> 0.15357311E+04</totfact>
</mgrwt>
</event>
<event>
 4    1  0.4199484E+000  0.2143358E+03  0.7546771E-02  0.1138178E+00
         21   -1    0    0  503  502  0.00000000000E+00  0.00000000000E+00  0.95586597475E+02  0.95586597475E+02  0.00000000000E+00 0. -1.
         21   -1    0    0  501  503 -0.00000000000E+00 -0.00000000000E+00 -0.60220067090E+03  0.60220067090E+03  0.00000000000E+00 0. -1.
          6    1    1    2  501    0 -0.50112445701E+01  0.12643459898E+03 -0.41008086675E+03  0.46271604432E+03  0.17300000000E+03 0. -1.
         -6    1    1    2    0  502  0.50112445701E+01 -0.12643459898E+03 -0.96533206672E+02  0.23507122406E+03  0.17300000000E+03 0. -1.
<mgrwt>
<rscale>  2 0.21433577E+03</rscale>
<asrwt>0</asrwt>
<pdfrwt beam="1">  1       21 0.14705630E-01 0.21433577E+03</pdfrwt>
<pdfrwt beam="2">  1       21 0.92646259E-01 0.21433577E+03</pdfrwt>
<totfact> 0.39493363E+04</totfact>
</mgrwt>
</event>
<event>
 4    1  0.4199484E+000  0.2012419E+03  0.7546771E-02  0.1148695E+00
         21   -1    0    0  501  502  0.00000000000E+00  0.00000000000E+00  0.10132462468E+04  0.10132462468E+04  0.00000000000E+00 0. -1.
         21   -1    0    0  502  503 -0.00000000000E+00 -0.00000000000E+00 -0.56199582675E+02  0.56199582675E+02  0.00000000000E+00 0. -1.
          6    1    1    2  501    0 -0.69611014654E+02  0.75654644648E+02  0.76588636480E+03  0.79188398292E+03  0.17300000000E+03 0. -1.
         -6    1    1    2    0  503  0.69611014654E+02 -0.75654644648E+02  0.19116029928E+03  0.27756184651E+03  0.17300000000E+03 0. -1.
<mgrwt>
<rscale>  2 0.20124194E+03</rscale>
<asrwt>0</asrwt>
<pdfrwt beam="1">  1       21 0.15588402E+00 0.20124194E+03</pdfrwt>
<pdfrwt beam="2">  1       21 0.86460904E-02 0.20124194E+03</pdfrwt>
<totfact> 0.28132407E+04</totfact>
</mgrwt>
</event>
<event>
 4    1  0.4199484E+000  0.2189320E+03  0.7546771E-02  0.1134682E+00
         21   -1    0    0  503  502  0.00000000000E+00  0.00000000000E+00  0.29530574876E+03  0.29530574876E+03  0.00000000000E+00 0. -1.
         21   -1    0    0  501  503 -0.00000000000E+00 -0.00000000000E+00 -0.24976693629E+03  0.24976693629E+03  0.00000000000E+00 0.  1.
          6    1    1    2  501    0  0.13414097505E+03  0.29005397821E+01 -0.13850034552E+03  0.25906284957E+03  0.17300000000E+03 0.  1.
         -6    1    1    2    0  502 -0.13414097505E+03 -0.29005397821E+01  0.18403915799E+03  0.28600983548E+03  0.17300000000E+03 0. -1.
<mgrwt>
<rscale>  2 0.21893199E+03</rscale>
<asrwt>0</asrwt>
<pdfrwt beam="1">  1       21 0.45431654E-01 0.21893199E+03</pdfrwt>
<pdfrwt beam="2">  1       21 0.38425682E-01 0.21893199E+03</pdfrwt>
<totfact> 0.29922773E+04</totfact>
</mgrwt>
</event>
<event>
 4    1  0.4199484E+000  0.2038287E+03  0.7546771E-02  0.1146548E+00
         21   -1    0    0  503  502  0.00000000000E+00  0.00000000000E+00  0.10625289664E+03  0.10625289664E+03  0.00000000000E+00 0.  1.
         21   -1    0    0  501  503 -0.00000000000E+00 -0.00000000000E+00 -0.41411684676E+03  0.41411684676E+03  0.00000000000E+00 0.  1.
          6    1    1    2  501    0 -0.75946388683E+02  0.76480668547E+02 -0.21538922340E+03  0.29654453995E+03  0.17300000000E+03 0.  1.
         -6    1    1    2    0  502  0.75946388683E+02 -0.76480668547E+02 -0.92474726721E+02  0.22382520345E+03  0.17300000000E+03 0.  1.
<mgrwt>
<rscale>  2 0.20382872E+03</rscale>
<asrwt>0</asrwt>
<pdfrwt beam="1">  1       21 0.16346600E-01 0.20382872E+03</pdfrwt>
<pdfrwt beam="2">  1       21 0.63710284E-01 0.20382872E+03</pdfrwt>
<totfact> 0.75944243E+04</totfact>
</mgrwt>
</event>
<event>
 4    1  0.4199484E+000  0.2315468E+03  0.7546771E-02  0.1125556E+00
         21   -1    0    0  503  502  0.00000000000E+00  0.00000000000E+00  0.28325801222E+03  0.28325801222E+03  0.00000000000E+00 0.  1.
         21   -1    0    0  501  503 -0.00000000000E+00 -0.00000000000E+00 -0.28807975125E+03  0.28807975125E+03  0.00000000000E+00 0. -1.
          6    1    1    2  501    0  0.15389391037E+03 -0.12601737495E+01 -0.16970990561E+03  0.28708078262E+03  0.17300000000E+03 0.  1.
         -6    1    1    2    0  502 -0.15389391037E+03  0.12601737495E+01  0.16488816658E+03  0.28425698085E+03  0.17300000000E+03 0.  1.
<mgrwt>
<rscale>  2 0.23154681E+03</rscale>
<asrwt>0</asrwt>
<pdfrwt beam="1">  1       21 0.43578156E-01 0.23154681E+03</pdfrwt>
<pdfrwt beam="2">  1       21 0.44319962E-01 0.23154681E+03</pdfrwt>
<totfact> 0.24223040E+04</totfact>
</mgrwt>
</event>
<event>
 4    1  0.4199484E+000  0.2442717E+03  0.7546771E-02  0.1116979E+00
         21   -1    0    0  503  502  0.00000000000E+00  0.00000000000E+00  0.25371263720E+03  0.25371263720E+03  0.00000000000E+00 0.  1.
         21   -1    0    0  501  503 -0.00000000000E+00 -0.00000000000E+00 -0.24347799530E+03  0.24347799530E+03  0.00000000000E+00 0. -1.
          6    1    1    2  501    0  0.16783318060E+03  0.39644570198E+02 -0.40770238211E+02  0.24765072336E+03  0.17300000000E+03 0. -1.
         -6    1    1    2    0  502 -0.16783318060E+03 -0.39644570198E+02  0.51004880110E+02  0.24953990914E+03  0.17300000000E+03 0. -1.
<mgrwt>
<rscale>  2 0.24427171E+03</rscale>
<asrwt>0</asrwt>
<pdfrwt beam="1">  1       21 0.39032713E-01 0.24427171E+03</pdfrwt>
<pdfrwt beam="2">  1       21 0.37458153E-01 0.24427171E+03</pdfrwt>
<totfact> 0.42462161E+04</totfact>
</mgrwt>
</event>
<event>
 4    1  0.4199484E+000  0.2570544E+03  0.7546771E-02  0.1108926E+00
         21   -1    0    0  501  502  0.00000000000E+00  0.00000000000E+00  0.12374292650E+04  0.12374292650E+04  0.00000000000E+00 0.  1.
         21   -1    0    0  502  503 -0.00000000000E+00 -0.00000000000E+00 -0.13274259846E+03  0.13274259846E+03  0.00000000000E+00 0.  1.
          6    1    1    2  501    0  0.17330415581E+03 -0.78189660713E+02  0.10820031364E+04  0.11121185821E+04  0.17300000000E+03 0.  1.
         -6    1    1    2    0  503 -0.17330415581E+03  0.78189660713E+02  0.22683530098E+02  0.25805328132E+03  0.17300000000E+03 0.  1.
<mgrwt>
<rscale>  2 0.25705438E+03</rscale>
<asrwt>0</asrwt>
<pdfrwt beam="1">  1       21 0.19037373E+00 0.25705438E+03</pdfrwt>
<pdfrwt beam="2">  1       21 0.20421939E-01 0.25705438E+03</pdfrwt>
<totfact> 0.32605956E+03</totfact>
</mgrwt>
</event>
<event>
 4    1  0.4199484E+000  0.2286593E+03  0.7546771E-02  0.1127587E+00
         21   -1    0    0  503  502  0.00000000000E+00  0.00000000000E+00  0.26654830706E+04  0.26654830706E+04  0.00000000000E+00 0. -1.
         21   -1    0    0  501  503 -0.00000000000E+00 -0.00000000000E+00 -0.48926005513E+02  0.48926005513E+02  0.00000000000E+00 0. -1.
          6    1    1    2  501    0  0.83929008603E+02 -0.12374170318E+03  0.25780229847E+03  0.34459702943E+03  0.17300000000E+03 0. -1.
         -6    1    1    2    0  502 -0.83929008603E+02  0.12374170318E+03  0.23587547666E+04  0.23698120466E+04  0.17300000000E+03 0. -1.
<mgrwt>
<rscale>  2 0.22865933E+03</rscale>
<asrwt>0</asrwt>
<pdfrwt beam="1">  1       21 0.41007421E+00 0.22865933E+03</pdfrwt>
<pdfrwt beam="2">  1       21 0.75270798E-02 0.22865933E+03</pdfrwt>
<totfact> 0.95421464E+02</totfact>
</mgrwt>
</event>
<event>
 4    1  0.4199484E+000  0.2061366E+03  0.7546771E-02  0.1144662E+00
         21   -1    0    0  501  502  0.00000000000E+00  0.00000000000E+00  0.19487504607E+03  0.19487504607E+03  0.00000000000E+00 0. -1.
         21   -1    0    0  502  503 -0.00000000000E+00 -0.00000000000E+00 -0.28804238742E+03  0.28804238742E+03  0.00000000000E+00 0. -1.
          6    1    1    2  501    0 -0.83880407018E+01 -0.11177178261E+03  0.72442780415E+02  0.21849541654E+03  0.17300000000E+03 0. -1.
         -6    1    1    2    0  503  0.83880407018E+01  0.11177178261E+03 -0.16561012176E+03  0.26442201694E+03  0.17300000000E+03 0. -1.
<mgrwt>
<rscale>  2 0.20613658E+03</rscale>
<asrwt>0</asrwt>
<pdfrwt beam="1">  1       21 0.29980776E-01 0.20613658E+03</pdfrwt>
<pdfrwt beam="2">  1       21 0.44314213E-01 0.20613658E+03</pdfrwt>
<totfact> 0.51839452E+04</totfact>
</mgrwt>
</event>
<event>
 4    1  0.4199484E+000  0.1751656E+03  0.7546771E-02  0.1172566E+00
         21   -1    0    0  503  502  0.00000000000E+00  0.00000000000E+00  0.22576040745E+03  0.22576040745E+03  0.00000000000E+00 0.  1.
         21   -1    0    0  501  503 -0.00000000000E+00 -0.00000000000E+00 -0.13786027498E+03  0.13786027498E+03  0.00000000000E+00 0.  1.
          6    1    1    2  501    0 -0.22917871963E+02 -0.15125138838E+02  0.22323109593E+02  0.17658233179E+03  0.17300000000E+03 0.  1.
         -6    1    1    2    0  502  0.22917871963E+02  0.15125138838E+02  0.65577022878E+02  0.18703835064E+03  0.17300000000E+03 0.  1.
<mgrwt>
<rscale>  2 0.17516563E+03</rscale>
<asrwt>0</asrwt>
<pdfrwt beam="1">  1       21 0.34732370E-01 0.17516563E+03</pdfrwt>
<pdfrwt beam="2">  1       21 0.21209273E-01 0.17516563E+03</pdfrwt>
<totfact> 0.16613063E+05</totfact>
</mgrwt>
</event>
<event>
 4    1  0.4199484E+000  0.2765075E+03  0.7546771E-02  0.1097612E+00
         21   -1    0    0  503  502  0.00000000000E+00  0.00000000000E+00  0.57359541056E+03  0.57359541056E+03  0.00000000000E+00 0. -1.
         21   -1    0    0  501  503 -0.00000000000E+00 -0.00000000000E+00 -0.14235598490E+03  0.14235598490E+03  0.00000000000E+00 0.  1.
          6    1    1    2  501    0 -0.34250332332E+02 -0.21296554652E+03  0.12529745569E+03  0.30357183939E+03  0.17300000000E+03 0.  1.
         -6    1    1    2    0  502  0.34250332332E+02  0.21296554652E+03  0.30594196997E+03  0.41237955607E+03  0.17300000000E+03 0. -1.
<mgrwt>
<rscale>  2 0.27650752E+03</rscale>
<asrwt>0</asrwt>
<pdfrwt beam="1">  1       21 0.88245446E-01 0.27650752E+03</pdfrwt>
<pdfrwt beam="2">  1       21 0.21900921E-01 0.27650752E+03</pdfrwt>
<totfact> 0.20482700E+04</totfact>
</mgrwt>
</event>
<event>
 4    1  0.4199484E+000  0.2155336E+03  0.7546771E-02  0.1137257E+00
         21   -1    0    0  503  502  0.00000000000E+00  0.00000000000E+00  0.43670047389E+03  0.43670047389E+03  0.00000000000E+00 0.  1.
         21   -1    0    0  501  503 -0.00000000000E+00 -0.00000000000E+00 -0.21916329204E+03  0.21916329204E+03  0.00000000000E+00 0. -1.
          6    1    1    2  501    0  0.45042281631E+02 -0.12040315709E+03 -0.12648084746E+03  0.24990424595E+03  0.17300000000E+03 0. -1.
         -6    1    1    2    0  502 -0.45042281631E+02  0.12040315709E+03  0.34401802931E+03  0.40595951998E+03  0.17300000000E+03 0.  1.
<mgrwt>
<rscale>  2 0.21553359E+03</rscale>
<asrwt>0</asrwt>
<pdfrwt beam="1">  1       21 0.67184688E-01 0.21553359E+03</pdfrwt>
<pdfrwt beam="2">  1       21 0.33717430E-01 0.21553359E+03</pdfrwt>
<totfact> 0.16943356E+04</totfact>
</mgrwt>
</event>
<event>
 4    1  0.4199484E+000  0.2049489E+03  0.7546771E-02  0.1145630E+00
         21   -1    0    0  503  502  0.00000000000E+00  0.00000000000E+00  0.96861389450E+03  0.96861389450E+03  0.00000000000E+00 0. -1.
         21   -1    0    0  501  503 -0.00000000000E+00 -0.00000000000E+00 -0.43530068697E+02  0.43530068697E+02  0.00000000000E+00 0. -1.
          6    1    1    2  501    0  0.10943658198E+03  0.99338273726E+01  0.43138836521E+03  0.47759812399E+03  0.17300000000E+03 0. -1.
         -6    1    1    2    0  502 -0.10943658198E+03 -0.99338273726E+01  0.49369546059E+03  0.53454583920E+03  0.17300000000E+03 0. -1.
<mgrwt>
<rscale>  2 0.20494889E+03</rscale>
<asrwt>0</asrwt>
<pdfrwt beam="1">  1       21 0.14901751E+00 0.20494889E+03</pdfrwt>
<pdfrwt beam="2">  1       21 0.66969344E-02 0.20494889E+03</pdfrwt>
<totfact> 0.49306376E+04</totfact>
</mgrwt>
</event>
<event>
 4    1  0.4199484E+000  0.2279953E+03  0.7546771E-02  0.1128059E+00
         21   -1    0    0  503  502  0.00000000000E+00  0.00000000000E+00  0.20432924846E+03  0.20432924846E+03  0.00000000000E+00 0.  1.
         21   -1    0    0  501  503 -0.00000000000E+00 -0.00000000000E+00 -0.25568245994E+03  0.25568245994E+03  0.00000000000E+00 0. -1.
          6    1    1    2  501    0 -0.14808951664E+03 -0.11060361229E+02 -0.41951409195E+02  0.23182268496E+03  0.17300000000E+03 0. -1.
         -6    1    1    2    0  502  0.14808951664E+03  0.11060361229E+02 -0.94018022839E+01  0.22818902343E+03  0.17300000000E+03 0.  1.
<mgrwt>
<rscale>  2 0.22799526E+03</rscale>
<asrwt>0</asrwt>
<pdfrwt beam="1">  1       21 0.31435269E-01 0.22799526E+03</pdfrwt>
<pdfrwt beam="2">  1       21 0.39335763E-01 0.22799526E+03</pdfrwt>
<totfact> 0.59654140E+04</totfact>
</mgrwt>
</event>
<event>
 4    1  0.4199484E+000  0.2030256E+03  0.7546771E-02  0.1147211E+00
         21   -1    0    0  503  502  0.00000000000E+00  0.00000000000E+00  0.24197111358E+03  0.24197111358E+03  0.00000000000E+00 0.  1.
         21   -1    0    0  501  503 -0.00000000000E+00 -0.00000000000E+00 -0.40274400315E+03  0.40274400315E+03  0.00000000000E+00 0.  1.
          6    1    1    2  501    0  0.67228655830E+02  0.82284376252E+02 -0.32525735622E+03  0.38342112425E+03  0.17300000000E+03 0.  1.
         -6    1    1    2    0  502 -0.67228655830E+02 -0.82284376252E+02  0.16448446665E+03  0.26129399249E+03  0.17300000000E+03 0.  1.
<mgrwt>
<rscale>  2 0.20302564E+03</rscale>
<asrwt>0</asrwt>
<pdfrwt beam="1">  1       21 0.37226325E-01 0.20302564E+03</pdfrwt>
<pdfrwt beam="2">  1       21 0.61960616E-01 0.20302564E+03</pdfrwt>
<totfact> 0.16718518E+04</totfact>
</mgrwt>
</event>
<event>
 4    1  0.4199484E+000  0.2123812E+03  0.7546771E-02  0.1139694E+00
         21   -1    0    0  501  502  0.00000000000E+00  0.00000000000E+00  0.73513695784E+03  0.73513695784E+03  0.00000000000E+00 0. -1.
         21   -1    0    0  502  503 -0.00000000000E+00 -0.00000000000E+00 -0.99250339824E+02  0.99250339824E+02  0.00000000000E+00 0. -1.
          6    1    1    2  501    0 -0.12213830945E+03 -0.16094027851E+02  0.57572569443E+03  0.61364962282E+03  0.17300000000E+03 0. -1.
         -6    1    1    2    0  503  0.12213830945E+03  0.16094027851E+02  0.60160923591E+02  0.22073767484E+03  0.17300000000E+03 0. -1.
<mgrwt>
<rscale>  2 0.21238122E+03</rscale>
<asrwt>0</asrwt>
<pdfrwt beam="1">  1       21 0.11309799E+00 0.21238122E+03</pdfrwt>
<pdfrwt beam="2">  1       21 0.15269283E-01 0.21238122E+03</pdfrwt>
<totfact> 0.22911190E+04</totfact>
</mgrwt>
</event>
<event>
 4    1  0.4199484E+000  0.2139044E+03  0.7546771E-02  0.1138511E+00
         21   -1    0    0  503  502  0.00000000000E+00  0.00000000000E+00  0.40371039098E+02  0.40371039098E+02  0.00000000000E+00 0. -1.
         21   -1    0    0  501  503 -0.00000000000E+00 -0.00000000000E+00 -0.11530585784E+04  0.11530585784E+04  0.00000000000E+00 0. -1.
          6    1    1    2  501    0  0.12572466289E+03 -0.44042492029E+01 -0.63432908989E+03  0.66942399311E+03  0.17300000000E+03 0. -1.
         -6    1    1    2    0  502 -0.12572466289E+03  0.44042492029E+01 -0.47835844944E+03  0.52400562441E+03  0.17300000000E+03 0. -1.
<mgrwt>
<rscale>  2 0.21390439E+03</rscale>
<asrwt>0</asrwt>
<pdfrwt beam="1">  1       21 0.62109282E-02 0.21390439E+03</pdfrwt>
<pdfrwt beam="2">  1       21 0.17739365E+00 0.21390439E+03</pdfrwt>
<totfact> 0.34755933E+04</totfact>
</mgrwt>
</event>
<event>
 4    1  0.4199484E+000  0.2018032E+03  0.7546771E-02  0.1148227E+00
         21   -1    0    0  503  502  0.00000000000E+00  0.00000000000E+00  0.11355461599E+04  0.11355461599E+04  0.00000000000E+00 0.  1.
         21   -1    0    0  501  503 -0.00000000000E+00 -0.00000000000E+00 -0.80711458922E+02  0.80711458922E+02  0.00000000000E+00 0.  1.
          6    1    1    2  501    0 -0.38846513661E+02 -0.96366323713E+02  0.74102531556E+02  0.21497838299E+03  0.17300000000E+03 0.  1.
         -6    1    1    2    0  502  0.38846513661E+02  0.96366323713E+02  0.98073216938E+03  0.10012792358E+04  0.17300000000E+03 0.  1.
<mgrwt>
<rscale>  2 0.20180317E+03</rscale>
<asrwt>0</asrwt>
<pdfrwt beam="1">  1       21 0.17469940E+00 0.20180317E+03</pdfrwt>
<pdfrwt beam="2">  1       21 0.12417148E-01 0.20180317E+03</pdfrwt>
<totfact> 0.10843963E+04</totfact>
</mgrwt>
</event>
<event>
 4    1  0.4199484E+000  0.2369294E+03  0.7546771E-02  0.1121855E+00
         21   -1    0    0  503  502  0.00000000000E+00  0.00000000000E+00  0.13393764214E+03  0.13393764214E+03  0.00000000000E+00 0.  1.
         21   -1    0    0  501  503 -0.00000000000E+00 -0.00000000000E+00 -0.65586916527E+03  0.65586916527E+03  0.00000000000E+00 0.  1.
          6    1    1    2  501    0  0.14063496036E+03  0.80176838942E+02 -0.49822843651E+03  0.55169474578E+03  0.17300000000E+03 0.  1.
         -6    1    1    2    0  502 -0.14063496036E+03 -0.80176838942E+02 -0.23703086627E+02  0.23811206163E+03  0.17300000000E+03 0.  1.
<mgrwt>
<rscale>  2 0.23692935E+03</rscale>
<asrwt>0</asrwt>
<pdfrwt beam="1">  1       21 0.20605791E-01 0.23692935E+03</pdfrwt>
<pdfrwt beam="2">  1       21 0.10090295E+00 0.23692935E+03</pdfrwt>
<totfact> 0.17083347E+04</totfact>
</mgrwt>
</event>
<event>
 4    1  0.4199484E+000  0.1929072E+03  0.7546771E-02  0.1155865E+00
         21   -1    0    0  503  502  0.00000000000E+00  0.00000000000E+00  0.85016834549E+02  0.85016834549E+02  0.00000000000E+00 0. -1.
         21   -1    0    0  501  503 -0.00000000000E+00 -0.00000000000E+00 -0.47779371019E+03  0.47779371019E+03  0.00000000000E+00 0.  1.
          6    1    1    2  501    0  0.83887316018E+02 -0.15719673419E+02 -0.27789000143E+03  0.33828396772E+03  0.17300000000E+03 0.  1.
         -6    1    1    2    0  502 -0.83887316018E+02  0.15719673419E+02 -0.11488687421E+03  0.22452657701E+03  0.17300000000E+03 0. -1.
<mgrwt>
<rscale>  2 0.19290721E+03</rscale>
<asrwt>0</asrwt>
<pdfrwt beam="1">  1       21 0.13079513E-01 0.19290721E+03</pdfrwt>
<pdfrwt beam="2">  1       21 0.73506723E-01 0.19290721E+03</pdfrwt>
<totfact> 0.83595311E+04</totfact>
</mgrwt>
</event>
<event>
 4    1  0.4199484E+000  0.2168847E+03  0.7546771E-02  0.1136227E+00
         21   -1    0    0  501  502  0.00000000000E+00  0.00000000000E+00  0.15514821965E+04  0.15514821965E+04  0.00000000000E+00 0.  1.
         21   -1    0    0  502  503 -0.00000000000E+00 -0.00000000000E+00 -0.11504031711E+03  0.11504031711E+03  0.00000000000E+00 0.  1.
          6    1    1    2  501    0 -0.11549444316E+03  0.61408539973E+02  0.14332985612E+04  0.14496150319E+04  0.17300000000E+03 0.  1.
         -6    1    1    2    0  503  0.11549444316E+03 -0.61408539973E+02  0.31433182133E+01  0.21690748173E+03  0.17300000000E+03 0.  1.
<mgrwt>
<rscale>  2 0.21688470E+03</rscale>
<asrwt>0</asrwt>
<pdfrwt beam="1">  1       21 0.23868955E+00 0.21688470E+03</pdfrwt>
<pdfrwt beam="2">  1       21 0.17698512E-01 0.21688470E+03</pdfrwt>
<totfact> 0.21896763E+03</totfact>
</mgrwt>
</event>
<event>
 4    1  0.4199484E+000  0.2253672E+03  0.7546771E-02  0.1129944E+00
         21   -1    0    0  503  502  0.00000000000E+00  0.00000000000E+00  0.17625595246E+03  0.17625595246E+03  0.00000000000E+00 0.  1.
         21   -1    0    0  501  503 -0.00000000000E+00 -0.00000000000E+00 -0.28870863945E+03  0.28870863945E+03  0.00000000000E+00 0.  1.
          6    1    1    2  501    0 -0.66731592933E+02 -0.12809480242E+03 -0.66336283913E+02  0.23492740680E+03  0.17300000000E+03 0.  1.
         -6    1    1    2    0  502  0.66731592933E+02  0.12809480242E+03 -0.46116403074E+02  0.23003718511E+03  0.17300000000E+03 0.  1.
<mgrwt>
<rscale>  2 0.22536722E+03</rscale>
<asrwt>0</asrwt>
<pdfrwt beam="1">  1       21 0.27116301E-01 0.22536722E+03</pdfrwt>
<pdfrwt beam="2">  1       21 0.44416713E-01 0.22536722E+03</pdfrwt>
<totfact> 0.62178916E+04</totfact>
</mgrwt>
</event>
<event>
 4    1  0.4199484E+000  0.1799424E+03  0.7546771E-02  0.1167859E+00
         21   -1    0    0  503  502  0.00000000000E+00  0.00000000000E+00  0.22743639481E+03  0.22743639481E+03  0.00000000000E+00 0. -1.
         21   -1    0    0  501  503 -0.00000000000E+00 -0.00000000000E+00 -0.59208366181E+03  0.59208366181E+03  0.00000000000E+00 0. -1.
          6    1    1    2  501    0  0.28015455181E+02 -0.40809471368E+02 -0.53943845746E+03  0.56865906136E+03  0.17300000000E+03 0. -1.
         -6    1    1    2    0  502 -0.28015455181E+02  0.40809471368E+02  0.17479119046E+03  0.25086099526E+03  0.17300000000E+03 0. -1.
<mgrwt>
<rscale>  2 0.17994243E+03</rscale>
<asrwt>0</asrwt>
<pdfrwt beam="1">  1       21 0.34990215E-01 0.17994243E+03</pdfrwt>
<pdfrwt beam="2">  1       21 0.91089794E-01 0.17994243E+03</pdfrwt>
<totfact> 0.81199117E+03</totfact>
</mgrwt>
</event>
<event>
 4    1  0.4199484E+000  0.2681274E+03  0.7546771E-02  0.1102356E+00
         21   -1    0    0  501  502  0.00000000000E+00  0.00000000000E+00  0.12530772807E+04  0.12530772807E+04  0.00000000000E+00 0. -1.
         21   -1    0    0  502  503 -0.00000000000E+00 -0.00000000000E+00 -0.67008110787E+02  0.67008110787E+02  0.00000000000E+00 0. -1.
          6    1    1    2  501    0 -0.16097463495E+03  0.12669055230E+03  0.84332557617E+03  0.88492392700E+03  0.17300000000E+03 0. -1.
         -6    1    1    2    0  503  0.16097463495E+03 -0.12669055230E+03  0.34274359378E+03  0.43516146454E+03  0.17300000000E+03 0. -1.
<mgrwt>
<rscale>  2 0.26812745E+03</rscale>
<asrwt>0</asrwt>
<pdfrwt beam="1">  1       21 0.19278110E+00 0.26812745E+03</pdfrwt>
<pdfrwt beam="2">  1       21 0.10308941E-01 0.26812745E+03</pdfrwt>
<totfact> 0.10901020E+04</totfact>
</mgrwt>
</event>
<event>
 4    1  0.4199484E+000  0.2429697E+03  0.7546771E-02  0.1117830E+00
         21   -1    0    0  503  502  0.00000000000E+00  0.00000000000E+00  0.12228932356E+03  0.12228932356E+03  0.00000000000E+00 0.  1.
         21   -1    0    0  501  503 -0.00000000000E+00 -0.00000000000E+00 -0.77940645678E+03  0.77940645678E+03  0.00000000000E+00 0.  1.
          6    1    1    2  501    0  0.16471057481E+03 -0.44448796911E+02 -0.60670938580E+03  0.65355225332E+03  0.17300000000E+03 0.  1.
         -6    1    1    2    0  502 -0.16471057481E+03  0.44448796911E+02 -0.50407747419E+02  0.24814352702E+03  0.17300000000E+03 0.  1.
<mgrwt>
<rscale>  2 0.24296969E+03</rscale>
<asrwt>0</asrwt>
<pdfrwt beam="1">  1       21 0.18813742E-01 0.24296969E+03</pdfrwt>
<pdfrwt beam="2">  1       21 0.11990869E+00 0.24296969E+03</pdfrwt>
<totfact> 0.13257873E+04</totfact>
</mgrwt>
</event>
<event>
 4    1  0.4199484E+000  0.1929237E+03  0.7546771E-02  0.1155850E+00
         21   -1    0    0  503  502  0.00000000000E+00  0.00000000000E+00  0.53563713376E+03  0.53563713376E+03  0.00000000000E+00 0. -1.
         21   -1    0    0  501  503 -0.00000000000E+00 -0.00000000000E+00 -0.13682018570E+03  0.13682018570E+03  0.00000000000E+00 0. -1.
          6    1    1    2  501    0  0.83705265885E+02  0.16851725802E+02 -0.36463216825E+02  0.19633929403E+03  0.17300000000E+03 0. -1.
         -6    1    1    2    0  502 -0.83705265885E+02 -0.16851725802E+02  0.43528016488E+03  0.47611802543E+03  0.17300000000E+03 0. -1.
<mgrwt>
<rscale>  2 0.19292370E+03</rscale>
<asrwt>0</asrwt>
<pdfrwt beam="1">  1       21 0.82405712E-01 0.19292370E+03</pdfrwt>
<pdfrwt beam="2">  1       21 0.21049260E-01 0.19292370E+03</pdfrwt>
<totfact> 0.26972772E+04</totfact>
</mgrwt>
</event>
<event>
 4    1  0.4199484E+000  0.2319242E+03  0.7546771E-02  0.1125293E+00
         21   -1    0    0  501  502  0.00000000000E+00  0.00000000000E+00  0.13140332149E+03  0.13140332149E+03  0.00000000000E+00 0.  1.
         21   -1    0    0  502  503 -0.00000000000E+00 -0.00000000000E+00 -0.51544515790E+03  0.51544515790E+03  0.00000000000E+00 0.  1.
          6    1    1    2  501    0  0.59968674097E+02  0.14235032346E+03 -0.45281719809E+02  0.23630338679E+03  0.17300000000E+03 0.  1.
         -6    1    1    2    0  503 -0.59968674097E+02 -0.14235032346E+03 -0.33876011660E+03  0.41054509260E+03  0.17300000000E+03 0.  1.
<mgrwt>
<rscale>  2 0.23192425E+03</rscale>
<asrwt>0</asrwt>
<pdfrwt beam="1">  1       21 0.20215896E-01 0.23192425E+03</pdfrwt>
<pdfrwt beam="2">  1       21 0.79299252E-01 0.23192425E+03</pdfrwt>
<totfact> 0.31092152E+04</totfact>
</mgrwt>
</event>
<event>
 4    1  0.4199484E+000  0.1979699E+03  0.7546771E-02  0.1151463E+00
         21   -1    0    0  503  502  0.00000000000E+00  0.00000000000E+00  0.17374001003E+03  0.17374001003E+03  0.00000000000E+00 0.  1.
         21   -1    0    0  501  503 -0.00000000000E+00 -0.00000000000E+00 -0.26630716356E+03  0.26630716356E+03  0.00000000000E+00 0. -1.
          6    1    1    2  501    0 -0.11902682975E+02  0.95506092497E+02 -0.13232855746E+03  0.23812378017E+03  0.17300000000E+03 0. -1.
         -6    1    1    2    0  502  0.11902682975E+02 -0.95506092497E+02  0.39761403919E+02  0.20192339341E+03  0.17300000000E+03 0.  1.
<mgrwt>
<rscale>  2 0.19796992E+03</rscale>
<asrwt>0</asrwt>
<pdfrwt beam="1">  1       21 0.26729233E-01 0.19796992E+03</pdfrwt>
<pdfrwt beam="2">  1       21 0.40970333E-01 0.19796992E+03</pdfrwt>
<totfact> 0.76287557E+04</totfact>
</mgrwt>
</event>
<event>
 4    1  0.4199484E+000  0.1766705E+03  0.7546771E-02  0.1171065E+00
         21   -1    0    0  501  502  0.00000000000E+00  0.00000000000E+00  0.16288454925E+03  0.16288454925E+03  0.00000000000E+00 0. -1.
         21   -1    0    0  502  503 -0.00000000000E+00 -0.00000000000E+00 -0.34572684133E+03  0.34572684133E+03  0.00000000000E+00 0. -1.
          6    1    1    2  501    0 -0.21935412622E+02 -0.28325255087E+02  0.78362470993E+02  0.19326965427E+03  0.17300000000E+03 0. -1.
         -6    1    1    2    0  503  0.21935412622E+02  0.28325255087E+02 -0.26120476307E+03  0.31534173630E+03  0.17300000000E+03 0. -1.
<mgrwt>
<rscale>  2 0.17667055E+03</rscale>
<asrwt>0</asrwt>
<pdfrwt beam="1">  1       21 0.25059162E-01 0.17667055E+03</pdfrwt>
<pdfrwt beam="2">  1       21 0.53188745E-01 0.17667055E+03</pdfrwt>
<totfact> 0.50859366E+04</totfact>
</mgrwt>
</event>
<event>
 4    1  0.4199484E+000  0.1775175E+03  0.7546771E-02  0.1170228E+00
         21   -1    0    0  501  502  0.00000000000E+00  0.00000000000E+00  0.11370504446E+03  0.11370504446E+03  0.00000000000E+00 0.  1.
         21   -1    0    0  502  503 -0.00000000000E+00 -0.00000000000E+00 -0.28870491236E+03  0.28870491236E+03  0.00000000000E+00 0.  1.
          6    1    1    2  501    0  0.17286825093E+02 -0.35841537546E+02 -0.47233409554E+02  0.18369388970E+03  0.17300000000E+03 0. -1.
         -6    1    1    2    0  503 -0.17286825093E+02  0.35841537546E+02 -0.12776645835E+03  0.21871606712E+03  0.17300000000E+03 0. -1.
<mgrwt>
<rscale>  2 0.17751746E+03</rscale>
<asrwt>0</asrwt>
<pdfrwt beam="1">  1       21 0.17493084E-01 0.17751746E+03</pdfrwt>
<pdfrwt beam="2">  1       21 0.44416141E-01 0.17751746E+03</pdfrwt>
<totfact> 0.14477644E+05</totfact>
</mgrwt>
</event>
<event>
 4    1  0.4199484E+000  0.1786530E+03  0.7546771E-02  0.1169113E+00
         21   -1    0    0  501  502  0.00000000000E+00  0.00000000000E+00  0.70517846455E+03  0.70517846455E+03  0.00000000000E+00 0. -1.
         21   -1    0    0  502  503 -0.00000000000E+00 -0.00000000000E+00 -0.10176317259E+03  0.10176317259E+03  0.00000000000E+00 0. -1.
          6    1    1    2  501    0  0.31505068962E+02  0.31548757720E+02  0.60235017360E+03  0.62828546467E+03  0.17300000000E+03 0. -1.
         -6    1    1    2    0  503 -0.31505068962E+02 -0.31548757720E+02  0.10651183693E+01  0.17865617247E+03  0.17300000000E+03 0. -1.
<mgrwt>
<rscale>  2 0.17865300E+03</rscale>
<asrwt>0</asrwt>
<pdfrwt beam="1">  1       21 0.10848899E+00 0.17865300E+03</pdfrwt>
<pdfrwt beam="2">  1       21 0.15655873E-01 0.17865300E+03</pdfrwt>
<totfact> 0.24708959E+04</totfact>
</mgrwt>
</event>
<event>
 4    1  0.4199484E+000  0.3218914E+03  0.7546771E-02  0.1074782E+00
         21   -1    0    0  501  502  0.00000000000E+00  0.00000000000E+00  0.83725401786E+02  0.83725401786E+02  0.00000000000E+00 0. -1.
         21   -1    0    0  502  503 -0.00000000000E+00 -0.00000000000E+00 -0.17544642632E+04  0.17544642632E+04  0.00000000000E+00 0. -1.
          6    1    1    2  501    0  0.90487565300E+02  0.25592393688E+03 -0.33648623602E+03  0.46565765104E+03  0.17300000000E+03 0. -1.
         -6    1    1    2    0  503 -0.90487565300E+02 -0.25592393688E+03 -0.13342526254E+04  0.13725320139E+04  0.17300000000E+03 0. -1.
<mgrwt>
<rscale>  2 0.32189138E+03</rscale>
<asrwt>0</asrwt>
<pdfrwt beam="1">  1       21 0.12880832E-01 0.32189138E+03</pdfrwt>
<pdfrwt beam="2">  1       21 0.26991756E+00 0.32189138E+03</pdfrwt>
<totfact> 0.23421473E+03</totfact>
</mgrwt>
</event>
<event>
 4    1  0.4199484E+000  0.2113629E+03  0.7546771E-02  0.1140491E+00
         21   -1    0    0  501  502  0.00000000000E+00  0.00000000000E+00  0.53912120588E+02  0.53912120588E+02  0.00000000000E+00 0. -1.
         21   -1    0    0  502  503 -0.00000000000E+00 -0.00000000000E+00 -0.84392083107E+03  0.84392083107E+03  0.00000000000E+00 0. -1.
          6    1    1    2  501    0 -0.32544109046E+02  0.11698783708E+03 -0.33461678960E+03  0.39578108714E+03  0.17300000000E+03 0. -1.
         -6    1    1    2    0  503  0.32544109046E+02 -0.11698783708E+03 -0.45539192088E+03  0.50205186451E+03  0.17300000000E+03 0. -1.
<mgrwt>
<rscale>  2 0.21136289E+03</rscale>
<asrwt>0</asrwt>
<pdfrwt beam="1">  1       21 0.82941726E-02 0.21136289E+03</pdfrwt>
<pdfrwt beam="2">  1       21 0.12983397E+00 0.21136289E+03</pdfrwt>
<totfact> 0.48374470E+04</totfact>
</mgrwt>
</event>
<event>
 4    1  0.4199484E+000  0.1876819E+03  0.7546771E-02  0.1160569E+00
         21   -1    0    0  503  502  0.00000000000E+00  0.00000000000E+00  0.24584339410E+03  0.24584339410E+03  0.00000000000E+00 0.  1.
         21   -1    0    0  501  503 -0.00000000000E+00 -0.00000000000E+00 -0.16187415304E+03  0.16187415304E+03  0.00000000000E+00 0. -1.
          6    1    1    2  501    0 -0.16813881070E+02  0.70801113485E+02 -0.27107078395E+02  0.18962937000E+03  0.17300000000E+03 0. -1.
         -6    1    1    2    0  502  0.16813881070E+02 -0.70801113485E+02  0.11107631946E+03  0.21808817715E+03  0.17300000000E+03 0.  1.
<mgrwt>
<rscale>  2 0.18768192E+03</rscale>
<asrwt>0</asrwt>
<pdfrwt beam="1">  1       21 0.37822061E-01 0.18768192E+03</pdfrwt>
<pdfrwt beam="2">  1       21 0.24903716E-01 0.18768192E+03</pdfrwt>
<totfact> 0.10306084E+05</totfact>
</mgrwt>
</event>
<event>
 4    1  0.4199484E+000  0.1730163E+03  0.7546771E-02  0.1174738E+00
         21   -1    0    0  501  502  0.00000000000E+00  0.00000000000E+00  0.15177691837E+03  0.15177691837E+03  0.00000000000E+00 0.  1.
         21   -1    0    0  502  503 -0.00000000000E+00 -0.00000000000E+00 -0.49863571454E+03  0.49863571454E+03  0.00000000000E+00 0.  1.
          6    1    1    2  501    0  0.20456823154E+01  0.12074198535E+01  0.79409877007E+02  0.19036956491E+03  0.17300000000E+03 0.  1.
         -6    1    1    2    0  503 -0.20456823154E+01 -0.12074198535E+01 -0.42626867318E+03  0.46004306800E+03  0.17300000000E+03 0.  1.
<mgrwt>
<rscale>  2 0.17301631E+03</rscale>
<asrwt>0</asrwt>
<pdfrwt beam="1">  1       21 0.23350295E-01 0.17301631E+03</pdfrwt>
<pdfrwt beam="2">  1       21 0.76713188E-01 0.17301631E+03</pdfrwt>
<totfact> 0.26367278E+04</totfact>
</mgrwt>
</event>
<event>
 4    1  0.4199484E+000  0.1861544E+03  0.7546771E-02  0.1161976E+00
         21   -1    0    0  501  502  0.00000000000E+00  0.00000000000E+00  0.42270268502E+03  0.42270268502E+03  0.00000000000E+00 0. -1.
         21   -1    0    0  502  503 -0.00000000000E+00 -0.00000000000E+00 -0.92555832975E+02  0.92555832975E+02  0.00000000000E+00 0.  1.
          6    1    1    2  501    0 -0.75442176082E+01  0.68319354488E+02  0.25215711496E+03  0.31342728031E+03  0.17300000000E+03 0. -1.
         -6    1    1    2    0  503  0.75442176082E+01 -0.68319354488E+02  0.77989737091E+02  0.20183123769E+03  0.17300000000E+03 0.  1.
<mgrwt>
<rscale>  2 0.18615437E+03</rscale>
<asrwt>0</asrwt>
<pdfrwt beam="1">  1       21 0.65031181E-01 0.18615437E+03</pdfrwt>
<pdfrwt beam="2">  1       21 0.14239359E-01 0.18615437E+03</pdfrwt>
<totfact> 0.94118463E+04</totfact>
</mgrwt>
</event>
<event>
 4    1  0.4199484E+000  0.1809364E+03  0.7546771E-02  0.1166900E+00
         21   -1    0    0  503  502  0.00000000000E+00  0.00000000000E+00  0.43162423038E+03  0.43162423038E+03  0.00000000000E+00 0.  1.
         21   -1    0    0  501  503 -0.00000000000E+00 -0.00000000000E+00 -0.78716530655E+02  0.78716530655E+02  0.00000000000E+00 0.  1.
          6    1    1    2  501    0 -0.38044797336E+02 -0.36899498961E+02  0.12774570332E+03  0.22148802303E+03  0.17300000000E+03 0. -1.
         -6    1    1    2    0  502  0.38044797336E+02  0.36899498961E+02  0.22516199641E+03  0.28885273801E+03  0.17300000000E+03 0. -1.
<mgrwt>
<rscale>  2 0.18093640E+03</rscale>
<asrwt>0</asrwt>
<pdfrwt beam="1">  1       21 0.66403726E-01 0.18093640E+03</pdfrwt>
<pdfrwt beam="2">  1       21 0.12110236E-01 0.18093640E+03</pdfrwt>
<totfact> 0.12060311E+05</totfact>
</mgrwt>
</event>
<event>
 4    1  0.4199484E+000  0.1992761E+03  0.7546771E-02  0.1150351E+00
         21   -1    0    0  501  502  0.00000000000E+00  0.00000000000E+00  0.21850252470E+04  0.21850252470E+04  0.00000000000E+00 0.  1.
         21   -1    0    0  502  503 -0.00000000000E+00 -0.00000000000E+00 -0.18330961193E+02  0.18330961193E+02  0.00000000000E+00 0.  1.
          6    1    1    2  501    0 -0.72220431079E+02 -0.67573584271E+02  0.98145316985E+03  0.10014795577E+04  0.17300000000E+03 0.  1.
         -6    1    1    2    0  503  0.72220431079E+02  0.67573584271E+02  0.11852411160E+04  0.12018766505E+04  0.17300000000E+03 0.  1.
<mgrwt>
<rscale>  2 0.19927614E+03</rscale>
<asrwt>0</asrwt>
<pdfrwt beam="1">  1       21 0.33615752E+00 0.19927614E+03</pdfrwt>
<pdfrwt beam="2">  1       21 0.28201496E-02 0.19927614E+03</pdfrwt>
<totfact> 0.14668630E+04</totfact>
</mgrwt>
</event>
<event>
 4    1  0.4199484E+000  0.2114873E+03  0.7546771E-02  0.1140394E+00
         21   -1    0    0  503  502  0.00000000000E+00  0.00000000000E+00  0.82382499026E+03  0.82382499026E+03  0.00000000000E+00 0. -1.
         21   -1    0    0  501  503 -0.00000000000E+00 -0.00000000000E+00 -0.10475602705E+03  0.10475602705E+03  0.00000000000E+00 0.  1.
          6    1    1    2  501    0  0.31430112515E+02 -0.11751599110E+03  0.37284772193E+02  0.21474872380E+03  0.17300000000E+03 0.  1.
         -6    1    1    2    0  502 -0.31430112515E+02  0.11751599110E+03  0.68178419102E+03  0.71383229351E+03  0.17300000000E+03 0. -1.
<mgrwt>
<rscale>  2 0.21148726E+03</rscale>
<asrwt>0</asrwt>
<pdfrwt beam="1">  1       21 0.12674230E+00 0.21148726E+03</pdfrwt>
<pdfrwt beam="2">  1       21 0.16116312E-01 0.21148726E+03</pdfrwt>
<totfact> 0.15657016E+04</totfact>
</mgrwt>
</event>
<event>
 4    1  0.4199484E+000  0.2490624E+03  0.7546771E-02  0.1113899E+00
         21   -1    0    0  501  502  0.00000000000E+00  0.00000000000E+00  0.17693599422E+03  0.17693599422E+03  0.00000000000E+00 0.  1.
         21   -1    0    0  502  503 -0.00000000000E+00 -0.00000000000E+00 -0.35464962675E+03  0.35464962675E+03  0.00000000000E+00 0. -1.
          6    1    1    2  501    0  0.16037673425E+03  0.79889754066E+02 -0.60421209478E+02  0.25628654324E+03  0.17300000000E+03 0. -1.
         -6    1    1    2    0  503 -0.16037673425E+03 -0.79889754066E+02 -0.11729242305E+03  0.27529907773E+03  0.17300000000E+03 0.  1.
<mgrwt>
<rscale>  2 0.24906238E+03</rscale>
<asrwt>0</asrwt>
<pdfrwt beam="1">  1       21 0.27220922E-01 0.24906238E+03</pdfrwt>
<pdfrwt beam="2">  1       21 0.54561481E-01 0.24906238E+03</pdfrwt>
<totfact> 0.39744384E+04</totfact>
</mgrwt>
</event>
<event>
 4    1  0.4199484E+000  0.2366550E+03  0.7546771E-02  0.1122041E+00
         21   -1    0    0  503  502  0.00000000000E+00  0.00000000000E+00  0.74500050589E+02  0.74500050589E+02  0.00000000000E+00 0. -1.
         21   -1    0    0  501  503 -0.00000000000E+00 -0.00000000000E+00 -0.85675394490E+03  0.85675394490E+03  0.00000000000E+00 0.  1.
          6    1    1    2  501    0  0.16139338589E+03 -0.53613344419E+01 -0.55413481901E+03  0.60255370429E+03  0.17300000000E+03 0.  1.
         -6    1    1    2    0  502 -0.16139338589E+03  0.53613344419E+01 -0.22811907531E+03  0.32870029120E+03  0.17300000000E+03 0. -1.
<mgrwt>
<rscale>  2 0.23665496E+03</rscale>
<asrwt>0</asrwt>
<pdfrwt beam="1">  1       21 0.11461546E-01 0.23665496E+03</pdfrwt>
<pdfrwt beam="2">  1       21 0.13180830E+00 0.23665496E+03</pdfrwt>
<totfact> 0.25917268E+04</totfact>
</mgrwt>
</event>
<event>
 4    1  0.4199484E+000  0.1950875E+03  0.7546771E-02  0.1153951E+00
         21   -1    0    0  503  502  0.00000000000E+00  0.00000000000E+00  0.24521540900E+03  0.24521540900E+03  0.00000000000E+00 0.  1.
         21   -1    0    0  501  503 -0.00000000000E+00 -0.00000000000E+00 -0.16678318869E+03  0.16678318869E+03  0.00000000000E+00 0.  1.
          6    1    1    2  501    0  0.88462768721E+02  0.17448589421E+02  0.93488000512E+02  0.21633104484E+03  0.17300000000E+03 0.  1.
         -6    1    1    2    0  502 -0.88462768721E+02 -0.17448589421E+02 -0.15055780205E+02  0.19566755285E+03  0.17300000000E+03 0.  1.
<mgrwt>
<rscale>  2 0.19508745E+03</rscale>
<asrwt>0</asrwt>
<pdfrwt beam="1">  1       21 0.37725447E-01 0.19508745E+03</pdfrwt>
<pdfrwt beam="2">  1       21 0.25658952E-01 0.19508745E+03</pdfrwt>
<totfact> 0.97568587E+04</totfact>
</mgrwt>
</event>
<event>
 4    1  0.4199484E+000  0.1758192E+03  0.7546771E-02  0.1171912E+00
         21   -1    0    0  501  502  0.00000000000E+00  0.00000000000E+00  0.54520367628E+03  0.54520367628E+03  0.00000000000E+00 0. -1.
         21   -1    0    0  502  503 -0.00000000000E+00 -0.00000000000E+00 -0.84990395674E+02  0.84990395674E+02  0.00000000000E+00 0. -1.
          6    1    1    2  501    0  0.15199260674E+02  0.27429368667E+02  0.41190426475E+03  0.44785880712E+03  0.17300000000E+03 0.  1.
         -6    1    1    2    0  503 -0.15199260674E+02 -0.27429368667E+02  0.48309015853E+02  0.18233526484E+03  0.17300000000E+03 0.  1.
<mgrwt>
<rscale>  2 0.17581919E+03</rscale>
<asrwt>0</asrwt>
<pdfrwt beam="1">  1       21 0.83877487E-01 0.17581919E+03</pdfrwt>
<pdfrwt beam="2">  1       21 0.13075446E-01 0.17581919E+03</pdfrwt>
<totfact> 0.62619891E+04</totfact>
</mgrwt>
</event>
<event>
 4    1  0.4199484E+000  0.2490803E+03  0.7546771E-02  0.1113887E+00
         21   -1    0    0  501  502  0.00000000000E+00  0.00000000000E+00  0.26422344440E+03  0.26422344440E+03  0.00000000000E+00 0. -1.
         21   -1    0    0  502  503 -0.00000000000E+00 -0.00000000000E+00 -0.37264197625E+03  0.37264197625E+03  0.00000000000E+00 0.  1.
          6    1    1    2  501    0 -0.17538364016E+03  0.36777084298E+02  0.13945732981E+03  0.28546334616E+03  0.17300000000E+03 0. -1.
         -6    1    1    2    0  503  0.17538364016E+03 -0.36777084298E+02 -0.24787586166E+03  0.35140207449E+03  0.17300000000E+03 0.  1.
<mgrwt>
<rscale>  2 0.24908026E+03</rscale>
<asrwt>0</asrwt>
<pdfrwt beam="1">  1       21 0.40649761E-01 0.24908026E+03</pdfrwt>
<pdfrwt beam="2">  1       21 0.57329535E-01 0.24908026E+03</pdfrwt>
<totfact> 0.16125577E+04</totfact>
</mgrwt>
</event>
<event>
 4    1  0.4199484E+000  0.2061003E+03  0.7546771E-02  0.1144692E+00
         21   -1    0    0  501  502  0.00000000000E+00  0.00000000000E+00  0.95518365306E+03  0.95518365306E+03  0.00000000000E+00 0.  1.
         21   -1    0    0  502  503 -0.00000000000E+00 -0.00000000000E+00 -0.70514102892E+02  0.70514102892E+02  0.00000000000E+00 0.  1.
          6    1    1    2  501    0  0.79267566021E+02 -0.79151644890E+02  0.75401079367E+03  0.78167103496E+03  0.17300000000E+03 0.  1.
         -6    1    1    2    0  503 -0.79267566021E+02  0.79151644890E+02  0.13065875650E+03  0.24402672100E+03  0.17300000000E+03 0.  1.
<mgrwt>
<rscale>  2 0.20610029E+03</rscale>
<asrwt>0</asrwt>
<pdfrwt beam="1">  1       21 0.14695132E+00 0.20610029E+03</pdfrwt>
<pdfrwt beam="2">  1       21 0.10848324E-01 0.20610029E+03</pdfrwt>
<totfact> 0.21964684E+04</totfact>
</mgrwt>
</event>
<event>
 4    1  0.4199484E+000  0.1997017E+03  0.7546771E-02  0.1149991E+00
         21   -1    0    0  501  502  0.00000000000E+00  0.00000000000E+00  0.12370201103E+03  0.12370201103E+03  0.00000000000E+00 0.  1.
         21   -1    0    0  502  503 -0.00000000000E+00 -0.00000000000E+00 -0.58643457380E+03  0.58643457380E+03  0.00000000000E+00 0. -1.
          6    1    1    2  501    0 -0.84269301343E+01  0.99401961201E+02  0.68862895701E+01  0.19982037941E+03  0.17300000000E+03 0.  1.
         -6    1    1    2    0  503  0.84269301343E+01 -0.99401961201E+02 -0.46961885234E+03  0.51031620542E+03  0.17300000000E+03 0. -1.
<mgrwt>
<rscale>  2 0.19970169E+03</rscale>
<asrwt>0</asrwt>
<pdfrwt beam="1">  1       21 0.19031079E-01 0.19970169E+03</pdfrwt>
<pdfrwt beam="2">  1       21 0.90220702E-01 0.19970169E+03</pdfrwt>
<totfact> 0.26343228E+04</totfact>
</mgrwt>
</event>
<event>
 4    1  0.4199484E+000  0.1744411E+03  0.7546771E-02  0.1173294E+00
         21   -1    0    0  501  502  0.00000000000E+00  0.00000000000E+00  0.31150298130E+04  0.31150298130E+04  0.00000000000E+00 0. -1.
         21   -1    0    0  502  503 -0.00000000000E+00 -0.00000000000E+00 -0.10234957360E+02  0.10234957360E+02  0.00000000000E+00 0. -1.
          6    1    1    2  501    0  0.17957533298E+01 -0.22303908583E+02  0.18859328785E+04  0.18939832394E+04  0.17300000000E+03 0.  1.
         -6    1    1    2    0  503 -0.17957533298E+01  0.22303908583E+02  0.12188619771E+04  0.12312815309E+04  0.17300000000E+03 0.  1.
<mgrwt>
<rscale>  2 0.17444108E+03</rscale>
<asrwt>0</asrwt>
<pdfrwt beam="1">  1       21 0.47923460E+00 0.17444108E+03</pdfrwt>
<pdfrwt beam="2">  1       21 0.15746113E-02 0.17444108E+03</pdfrwt>
<totfact> 0.49240743E+03</totfact>
</mgrwt>
</event>
<event>
 4    1  0.4199484E+000  0.2218770E+03  0.7546771E-02  0.1132491E+00
         21   -1    0    0  501  502  0.00000000000E+00  0.00000000000E+00  0.26154416609E+03  0.26154416609E+03  0.00000000000E+00 0. -1.
         21   -1    0    0  502  503 -0.00000000000E+00 -0.00000000000E+00 -0.21138393543E+03  0.21138393543E+03  0.00000000000E+00 0.  1.
          6    1    1    2  501    0 -0.13306176972E+03  0.39937189418E+02  0.10334717214E+03  0.24476529911E+03  0.17300000000E+03 0.  1.
         -6    1    1    2    0  503  0.13306176972E+03 -0.39937189418E+02 -0.53186941475E+02  0.22816280241E+03  0.17300000000E+03 0. -1.
<mgrwt>
<rscale>  2 0.22187702E+03</rscale>
<asrwt>0</asrwt>
<pdfrwt beam="1">  1       21 0.40237564E-01 0.22187702E+03</pdfrwt>
<pdfrwt beam="2">  1       21 0.32520605E-01 0.22187702E+03</pdfrwt>
<totfact> 0.53427585E+04</totfact>
</mgrwt>
</event>
<event>
 4    1  0.4199484E+000  0.1760273E+03  0.7546771E-02  0.1171704E+00
         21   -1    0    0  503  502  0.00000000000E+00  0.00000000000E+00  0.71651262556E+02  0.71651262556E+02  0.00000000000E+00 0.  1.
         21   -1    0    0  501  503 -0.00000000000E+00 -0.00000000000E+00 -0.46195078347E+03  0.46195078347E+03  0.00000000000E+00 0.  1.
          6    1    1    2  501    0  0.23446424954E+02 -0.22513829630E+02 -0.26257220154E+03  0.31611670058E+03  0.17300000000E+03 0.  1.
         -6    1    1    2    0  502 -0.23446424954E+02  0.22513829630E+02 -0.12772731938E+03  0.21748534545E+03  0.17300000000E+03 0.  1.
<mgrwt>
<rscale>  2 0.17602729E+03</rscale>
<asrwt>0</asrwt>
<pdfrwt beam="1">  1       21 0.11023271E-01 0.17602729E+03</pdfrwt>
<pdfrwt beam="2">  1       21 0.71069353E-01 0.17602729E+03</pdfrwt>
<totfact> 0.12308873E+05</totfact>
</mgrwt>
</event>
<event>
 4    1  0.4199484E+000  0.1866840E+03  0.7546771E-02  0.1161487E+00
         21   -1    0    0  503  502  0.00000000000E+00  0.00000000000E+00  0.17077021166E+03  0.17077021166E+03  0.00000000000E+00 0.  1.
         21   -1    0    0  501  503 -0.00000000000E+00 -0.00000000000E+00 -0.20593432968E+03  0.20593432968E+03  0.00000000000E+00 0. -1.
          6    1    1    2  501    0 -0.49012136341E+02  0.50197047252E+02 -0.35450977380E+02  0.19002027486E+03  0.17300000000E+03 0. -1.
         -6    1    1    2    0  502  0.49012136341E+02 -0.50197047252E+02  0.28685936616E+00  0.18668426648E+03  0.17300000000E+03 0. -1.
<mgrwt>
<rscale>  2 0.18668405E+03</rscale>
<asrwt>0</asrwt>
<pdfrwt beam="1">  1       21 0.26272340E-01 0.18668405E+03</pdfrwt>
<pdfrwt beam="2">  1       21 0.31682204E-01 0.18668405E+03</pdfrwt>
<totfact> 0.13219234E+05</totfact>
</mgrwt>
</event>
<event>
 4    1  0.4199484E+000  0.1776819E+03  0.7546771E-02  0.1170066E+00
         21   -1    0    0  503  502  0.00000000000E+00  0.00000000000E+00  0.17699232531E+03  0.17699232531E+03  0.00000000000E+00 0. -1.
         21   -1    0    0  501  503 -0.00000000000E+00 -0.00000000000E+00 -0.20557052858E+03  0.20557052858E+03  0.00000000000E+00 0. -1.
          6    1    1    2  501    0 -0.28194413641E+02 -0.29102096867E+02 -0.83863242420E+02  0.19647875313E+03  0.17300000000E+03 0. -1.
         -6    1    1    2    0  502  0.28194413641E+02  0.29102096867E+02  0.55285039150E+02  0.18608410076E+03  0.17300000000E+03 0. -1.
<mgrwt>
<rscale>  2 0.17768190E+03</rscale>
<asrwt>0</asrwt>
<pdfrwt beam="1">  1       21 0.27229589E-01 0.17768190E+03</pdfrwt>
<pdfrwt beam="2">  1       21 0.31626235E-01 0.17768190E+03</pdfrwt>
<totfact> 0.12422563E+05</totfact>
</mgrwt>
</event>
<event>
 4    1  0.4199484E+000  0.1744191E+03  0.7546771E-02  0.1173316E+00
         21   -1    0    0  503  502  0.00000000000E+00  0.00000000000E+00  0.63760440644E+03  0.63760440644E+03  0.00000000000E+00 0. -1.
         21   -1    0    0  501  503 -0.00000000000E+00 -0.00000000000E+00 -0.95892809463E+02  0.95892809463E+02  0.00000000000E+00 0. -1.
          6    1    1    2  501    0  0.64473034327E+01  0.21247142255E+02  0.10894879018E+02  0.17475899738E+03  0.17300000000E+03 0. -1.
         -6    1    1    2    0  502 -0.64473034327E+01 -0.21247142255E+02  0.53081671796E+03  0.55873821853E+03  0.17300000000E+03 0. -1.
<mgrwt>
<rscale>  2 0.17441906E+03</rscale>
<asrwt>0</asrwt>
<pdfrwt beam="1">  1       21 0.98092983E-01 0.17441906E+03</pdfrwt>
<pdfrwt beam="2">  1       21 0.14752740E-01 0.17441906E+03</pdfrwt>
<totfact> 0.35089573E+04</totfact>
</mgrwt>
</event>
<event>
 4    1  0.4199484E+000  0.1863618E+03  0.7546771E-02  0.1161784E+00
         21   -1    0    0  503  502  0.00000000000E+00  0.00000000000E+00  0.79329484953E+02  0.79329484953E+02  0.00000000000E+00 0. -1.
         21   -1    0    0  501  503 -0.00000000000E+00 -0.00000000000E+00 -0.53228891763E+03  0.53228891763E+03  0.00000000000E+00 0. -1.
          6    1    1    2  501    0 -0.55489615579E+02 -0.41504314525E+02 -0.35532241918E+03  0.40122902081E+03  0.17300000000E+03 0. -1.
         -6    1    1    2    0  502  0.55489615579E+02  0.41504314525E+02 -0.97637013494E+02  0.21038938178E+03  0.17300000000E+03 0. -1.
<mgrwt>
<rscale>  2 0.18636176E+03</rscale>
<asrwt>0</asrwt>
<pdfrwt beam="1">  1       21 0.12204537E-01 0.18636176E+03</pdfrwt>
<pdfrwt beam="2">  1       21 0.81890600E-01 0.18636176E+03</pdfrwt>
<totfact> 0.74469530E+04</totfact>
</mgrwt>
</event>
<event>
 4    1  0.4199484E+000  0.1777790E+03  0.7546771E-02  0.1169970E+00
         21   -1    0    0  501  502  0.00000000000E+00  0.00000000000E+00  0.89487818922E+02  0.89487818922E+02  0.00000000000E+00 0.  1.
         21   -1    0    0  502  503 -0.00000000000E+00 -0.00000000000E+00 -0.35331745331E+03  0.35331745331E+03  0.00000000000E+00 0. -1.
          6    1    1    2  501    0 -0.32142230814E+02 -0.25362325755E+02 -0.12755901218E+03  0.21880738598E+03  0.17300000000E+03 0. -1.
         -6    1    1    2    0  503  0.32142230814E+02  0.25362325755E+02 -0.13627062220E+03  0.22399788625E+03  0.17300000000E+03 0.  1.
<mgrwt>
<rscale>  2 0.17777899E+03</rscale>
<asrwt>0</asrwt>
<pdfrwt beam="1">  1       21 0.13767357E-01 0.17777899E+03</pdfrwt>
<pdfrwt beam="2">  1       21 0.54356532E-01 0.17777899E+03</pdfrwt>
<totfact> 0.14728617E+05</totfact>
</mgrwt>
</event>
<event>
 4    1  0.4199484E+000  0.1789300E+03  0.7546771E-02  0.1168843E+00
         21   -1    0    0  503  502  0.00000000000E+00  0.00000000000E+00  0.36687865319E+03  0.36687865319E+03  0.00000000000E+00 0.  1.
         21   -1    0    0  501  503 -0.00000000000E+00 -0.00000000000E+00 -0.16685661692E+03  0.16685661692E+03  0.00000000000E+00 0.  1.
          6    1    1    2  501    0 -0.24928823338E+01  0.45615063237E+02 -0.84301889714E+02  0.19779473468E+03  0.17300000000E+03 0.  1.
         -6    1    1    2    0  502  0.24928823338E+01 -0.45615063237E+02  0.28432392598E+03  0.33594053543E+03  0.17300000000E+03 0.  1.
<mgrwt>
<rscale>  2 0.17893001E+03</rscale>
<asrwt>0</asrwt>
<pdfrwt beam="1">  1       21 0.56442869E-01 0.17893001E+03</pdfrwt>
<pdfrwt beam="2">  1       21 0.25670249E-01 0.17893001E+03</pdfrwt>
<totfact> 0.42805715E+04</totfact>
</mgrwt>
</event>
<event>
 4    1  0.4199484E+000  0.2594281E+03  0.7546771E-02  0.1107487E+00
         21   -1    0    0  503  502  0.00000000000E+00  0.00000000000E+00  0.31981052382E+03  0.31981052382E+03  0.00000000000E+00 0. -1.
         21   -1    0    0  501  503 -0.00000000000E+00 -0.00000000000E+00 -0.21999187174E+03  0.21999187174E+03  0.00000000000E+00 0.  1.
          6    1    1    2  501    0  0.18822370470E+03 -0.44111049336E+02  0.10613077358E+03  0.28029750050E+03  0.17300000000E+03 0.  1.
         -6    1    1    2    0  502 -0.18822370470E+03  0.44111049336E+02 -0.63121215046E+01  0.25950489506E+03  0.17300000000E+03 0. -1.
<mgrwt>
<rscale>  2 0.25942812E+03</rscale>
<asrwt>0</asrwt>
<pdfrwt beam="1">  1       21 0.49201619E-01 0.25942812E+03</pdfrwt>
<pdfrwt beam="2">  1       21 0.33844903E-01 0.25942812E+03</pdfrwt>
<totfact> 0.32086923E+04</totfact>
</mgrwt>
</event>
<event>
 4    1  0.4199484E+000  0.1886898E+03  0.7546771E-02  0.1159648E+00
         21   -1    0    0  501  502  0.00000000000E+00  0.00000000000E+00  0.48721385918E+02  0.48721385918E+02  0.00000000000E+00 0. -1.
         21   -1    0    0  502  503 -0.00000000000E+00 -0.00000000000E+00 -0.85053291834E+03  0.85053291834E+03  0.00000000000E+00 0. -1.
          6    1    1    2  501    0 -0.58922497627E+02 -0.46936015960E+02 -0.23218114786E+03  0.29918545376E+03  0.17300000000E+03 0. -1.
         -6    1    1    2    0  503  0.58922497627E+02  0.46936015960E+02 -0.56963038457E+03  0.60006885050E+03  0.17300000000E+03 0. -1.
<mgrwt>
<rscale>  2 0.18868983E+03</rscale>
<asrwt>0</asrwt>
<pdfrwt beam="1">  1       21 0.74955980E-02 0.18868983E+03</pdfrwt>
<pdfrwt beam="2">  1       21 0.13085122E+00 0.18868983E+03</pdfrwt>
<totfact> 0.57252620E+04</totfact>
</mgrwt>
</event>
<event>
 4    1  0.4199484E+000  0.1802485E+03  0.7546771E-02  0.1167563E+00
         21   -1    0    0  503  502  0.00000000000E+00  0.00000000000E+00  0.17853994659E+03  0.17853994659E+03  0.00000000000E+00 0. -1.
         21   -1    0    0  501  503 -0.00000000000E+00 -0.00000000000E+00 -0.18491970523E+03  0.18491970523E+03  0.00000000000E+00 0. -1.
          6    1    1    2  501    0 -0.50251643169E+02  0.59400720648E+01 -0.26129023245E+02  0.18213247364E+03  0.17300000000E+03 0. -1.
         -6    1    1    2    0  502  0.50251643169E+02 -0.59400720648E+01  0.19749264605E+02  0.18132717819E+03  0.17300000000E+03 0. -1.
<mgrwt>
<rscale>  2 0.18024847E+03</rscale>
<asrwt>0</asrwt>
<pdfrwt beam="1">  1       21 0.27467684E-01 0.18024847E+03</pdfrwt>
<pdfrwt beam="2">  1       21 0.28449185E-01 0.18024847E+03</pdfrwt>
<totfact> 0.14996711E+05</totfact>
</mgrwt>
</event>
<event>
 4    1  0.4199484E+000  0.2145624E+03  0.7546771E-02  0.1138003E+00
         21   -1    0    0  501  502  0.00000000000E+00  0.00000000000E+00  0.47356824408E+03  0.47356824408E+03  0.00000000000E+00 0. -1.
         21   -1    0    0  502  503 -0.00000000000E+00 -0.00000000000E+00 -0.10489942024E+03  0.10489942024E+03  0.00000000000E+00 0. -1.
          6    1    1    2  501    0  0.46106782747E+02 -0.11824635752E+03  0.26262721101E+03  0.33913137343E+03  0.17300000000E+03 0. -1.
         -6    1    1    2    0  503 -0.46106782747E+02  0.11824635752E+03  0.10604161283E+03  0.23933629088E+03  0.17300000000E+03 0. -1.
<mgrwt>
<rscale>  2 0.21456243E+03</rscale>
<asrwt>0</asrwt>
<pdfrwt beam="1">  1       21 0.72856652E-01 0.21456243E+03</pdfrwt>
<pdfrwt beam="2">  1       21 0.16138373E-01 0.21456243E+03</pdfrwt>
<totfact> 0.57612477E+04</totfact>
</mgrwt>
</event>
<event>
 4    1  0.4199484E+000  0.2284553E+03  0.7546771E-02  0.1127732E+00
         21   -1    0    0  503  502  0.00000000000E+00  0.00000000000E+00  0.59765117002E+03  0.59765117002E+03  0.00000000000E+00 0.  1.
         21   -1    0    0  501  503 -0.00000000000E+00 -0.00000000000E+00 -0.12432938593E+03  0.12432938593E+03  0.00000000000E+00 0.  1.
          6    1    1    2  501    0  0.56013940552E+02  0.13829404669E+03  0.39728845403E+02  0.23188399264E+03  0.17300000000E+03 0.  1.
         -6    1    1    2    0  502 -0.56013940552E+02 -0.13829404669E+03  0.43359293869E+03  0.49009656331E+03  0.17300000000E+03 0.  1.
<mgrwt>
<rscale>  2 0.22845526E+03</rscale>
<asrwt>0</asrwt>
<pdfrwt beam="1">  1       21 0.91946332E-01 0.22845526E+03</pdfrwt>
<pdfrwt beam="2">  1       21 0.19127598E-01 0.22845526E+03</pdfrwt>
<totfact> 0.24576283E+04</totfact>
</mgrwt>
</event>
<event>
 4    1  0.4199484E+000  0.1913885E+03  0.7546771E-02  0.1157215E+00
         21   -1    0    0  503  502  0.00000000000E+00  0.00000000000E+00  0.11283207971E+03  0.11283207971E+03  0.00000000000E+00 0. -1.
         21   -1    0    0  501  503 -0.00000000000E+00 -0.00000000000E+00 -0.32582006847E+03  0.32582006847E+03  0.00000000000E+00 0. -1.
          6    1    1    2  501    0 -0.10218480090E+02  0.81216569590E+02 -0.11970619188E+03  0.22574126979E+03  0.17300000000E+03 0. -1.
         -6    1    1    2    0  502  0.10218480090E+02 -0.81216569590E+02 -0.93281796874E+02  0.21291087840E+03  0.17300000000E+03 0. -1.
<mgrwt>
<rscale>  2 0.19138848E+03</rscale>
<asrwt>0</asrwt>
<pdfrwt beam="1">  1       21 0.17358782E-01 0.19138848E+03</pdfrwt>
<pdfrwt beam="2">  1       21 0.50126163E-01 0.19138848E+03</pdfrwt>
<totfact> 0.11384625E+05</totfact>
</mgrwt>
</event>
<event>
 4    1  0.4199484E+000  0.2009274E+03  0.7546771E-02  0.1148959E+00
         21   -1    0    0  501  502  0.00000000000E+00  0.00000000000E+00  0.87391019427E+02  0.87391019427E+02  0.00000000000E+00 0. -1.
         21   -1    0    0  502  503 -0.00000000000E+00 -0.00000000000E+00 -0.47232939780E+03  0.47232939780E+03  0.00000000000E+00 0. -1.
          6    1    1    2  501    0  0.44084564253E+02 -0.92191953456E+02 -0.23392063464E+03  0.30836774863E+03  0.17300000000E+03 0. -1.
         -6    1    1    2    0  503 -0.44084564253E+02  0.92191953456E+02 -0.15101774374E+03  0.25135266860E+03  0.17300000000E+03 0. -1.
<mgrwt>
<rscale>  2 0.20092736E+03</rscale>
<asrwt>0</asrwt>
<pdfrwt beam="1">  1       21 0.13444772E-01 0.20092736E+03</pdfrwt>
<pdfrwt beam="2">  1       21 0.72666060E-01 0.20092736E+03</pdfrwt>
<totfact> 0.81311242E+04</totfact>
</mgrwt>
</event>
<event>
 4    1  0.4199484E+000  0.2344010E+03  0.7546771E-02  0.1123580E+00
         21   -1    0    0  501  502  0.00000000000E+00  0.00000000000E+00  0.41903445059E+03  0.41903445059E+03  0.00000000000E+00 0.  1.
         21   -1    0    0  502  503 -0.00000000000E+00 -0.00000000000E+00 -0.27252318147E+03  0.27252318147E+03  0.00000000000E+00 0.  1.
          6    1    1    2  501    0 -0.87453535949E+02  0.13178283894E+03  0.32232831817E+03  0.39854658734E+03  0.17300000000E+03 0.  1.
         -6    1    1    2    0  503  0.87453535949E+02 -0.13178283894E+03 -0.17581704905E+03  0.29301104472E+03  0.17300000000E+03 0.  1.
<mgrwt>
<rscale>  2 0.23440102E+03</rscale>
<asrwt>0</asrwt>
<pdfrwt beam="1">  1       21 0.64466839E-01 0.23440102E+03</pdfrwt>
<pdfrwt beam="2">  1       21 0.41926643E-01 0.23440102E+03</pdfrwt>
<totfact> 0.11835881E+04</totfact>
</mgrwt>
</event>
<event>
 4    1  0.4199484E+000  0.1785921E+03  0.7546771E-02  0.1169173E+00
         21   -1    0    0  501  502  0.00000000000E+00  0.00000000000E+00  0.93841061497E+02  0.93841061497E+02  0.00000000000E+00 0. -1.
         21   -1    0    0  502  503 -0.00000000000E+00 -0.00000000000E+00 -0.37635622536E+03  0.37635622536E+03  0.00000000000E+00 0. -1.
          6    1    1    2  501    0  0.75438854064E+01 -0.43694774573E+02 -0.68071688947E+02  0.19112534727E+03  0.17300000000E+03 0. -1.
         -6    1    1    2    0  503 -0.75438854064E+01  0.43694774573E+02 -0.21444347492E+03  0.27907193959E+03  0.17300000000E+03 0. -1.
<mgrwt>
<rscale>  2 0.17859211E+03</rscale>
<asrwt>0</asrwt>
<pdfrwt beam="1">  1       21 0.14437086E-01 0.17859211E+03</pdfrwt>
<pdfrwt beam="2">  1       21 0.57900960E-01 0.17859211E+03</pdfrwt>
<totfact> 0.11819990E+05</totfact>
</mgrwt>
</event>
<event>
 4    1  0.4199484E+000  0.2378528E+03  0.7546771E-02  0.1121232E+00
         21   -1    0    0  503  502  0.00000000000E+00  0.00000000000E+00  0.16920335003E+04  0.16920335003E+04  0.00000000000E+00 0. -1.
         21   -1    0    0  501  503 -0.00000000000E+00 -0.00000000000E+00 -0.68120820892E+02  0.68120820892E+02  0.00000000000E+00 0.  1.
          6    1    1    2  501    0 -0.16041988438E+03 -0.30173222894E+02  0.18396484896E+03  0.30069424394E+03  0.17300000000E+03 0.  1.
         -6    1    1    2    0  502  0.16041988438E+03  0.30173222894E+02  0.14399478305E+04  0.14594600773E+04  0.17300000000E+03 0. -1.
<mgrwt>
<rscale>  2 0.23785282E+03</rscale>
<asrwt>0</asrwt>
<pdfrwt beam="1">  1       21 0.26031281E+00 0.23785282E+03</pdfrwt>
<pdfrwt beam="2">  1       21 0.10480128E-01 0.23785282E+03</pdfrwt>
<totfact> 0.41321283E+03</totfact>
</mgrwt>
</event>
<event>
 4    1  0.4199484E+000  0.1756372E+03  0.7546771E-02  0.1172093E+00
         21   -1    0    0  501  502  0.00000000000E+00  0.00000000000E+00  0.34438004989E+02  0.34438004989E+02  0.00000000000E+00 0. -1.
         21   -1    0    0  502  503 -0.00000000000E+00 -0.00000000000E+00 -0.12039390048E+04  0.12039390048E+04  0.00000000000E+00 0. -1.
          6    1    1    2  501    0  0.18489258215E+02 -0.24032564952E+02 -0.27148146346E+03  0.32334285496E+03  0.17300000000E+03 0. -1.
         -6    1    1    2    0  503 -0.18489258215E+02  0.24032564952E+02 -0.89801953636E+03  0.91503415485E+03  0.17300000000E+03 0. -1.
<mgrwt>
<rscale>  2 0.17563717E+03</rscale>
<asrwt>0</asrwt>
<pdfrwt beam="1">  1       21 0.52981542E-02 0.17563717E+03</pdfrwt>
<pdfrwt beam="2">  1       21 0.18522140E+00 0.17563717E+03</pdfrwt>
<totfact> 0.41365021E+04</totfact>
</mgrwt>
</event>
<event>
 4    1  0.4199484E+000  0.2357818E+03  0.7546771E-02  0.1122635E+00
         21   -1    0    0  503  502  0.00000000000E+00  0.00000000000E+00  0.97228226828E+03  0.97228226828E+03  0.00000000000E+00 0.  1.
         21   -1    0    0  501  503 -0.00000000000E+00 -0.00000000000E+00 -0.58731703311E+02  0.58731703311E+02  0.00000000000E+00 0. -1.
          6    1    1    2  501    0  0.95185700573E+02  0.12885554488E+03  0.37292689103E+03  0.44121144035E+03  0.17300000000E+03 0. -1.
         -6    1    1    2    0  502 -0.95185700573E+02 -0.12885554488E+03  0.54062367394E+03  0.58980253124E+03  0.17300000000E+03 0.  1.
<mgrwt>
<rscale>  2 0.23578183E+03</rscale>
<asrwt>0</asrwt>
<pdfrwt beam="1">  1       21 0.14958188E+00 0.23578183E+03</pdfrwt>
<pdfrwt beam="2">  1       21 0.90356474E-02 0.23578183E+03</pdfrwt>
<totfact> 0.28470917E+04</totfact>
</mgrwt>
</event>
<event>
 4    1  0.4199484E+000  0.1941347E+03  0.7546771E-02  0.1154784E+00
         21   -1    0    0  503  502  0.00000000000E+00  0.00000000000E+00  0.65199333462E+02  0.65199333462E+02  0.00000000000E+00 0.  1.
         21   -1    0    0  501  503 -0.00000000000E+00 -0.00000000000E+00 -0.72220846731E+03  0.72220846731E+03  0.00000000000E+00 0.  1.
          6    1    1    2  501    0 -0.11666919491E+02  0.87310716593E+02 -0.50440343569E+03  0.54047303742E+03  0.17300000000E+03 0.  1.
         -6    1    1    2    0  502  0.11666919491E+02 -0.87310716593E+02 -0.15260569817E+03  0.24693476336E+03  0.17300000000E+03 0.  1.
<mgrwt>
<rscale>  2 0.19413469E+03</rscale>
<asrwt>0</asrwt>
<pdfrwt beam="1">  1       21 0.10030667E-01 0.19413469E+03</pdfrwt>
<pdfrwt beam="2">  1       21 0.11110899E+00 0.19413469E+03</pdfrwt>
<totfact> 0.51407877E+04</totfact>
</mgrwt>
</event>
<event>
 4    1  0.4199484E+000  0.1925794E+03  0.7546771E-02  0.1156155E+00
         21   -1    0    0  503  502  0.00000000000E+00  0.00000000000E+00  0.15510788900E+03  0.15510788900E+03  0.00000000000E+00 0.  1.
         21   -1    0    0  501  503 -0.00000000000E+00 -0.00000000000E+00 -0.58068727079E+03  0.58068727079E+03  0.00000000000E+00 0. -1.
          6    1    1    2  501    0  0.84426445057E+02  0.54781644166E+01 -0.49495551410E+03  0.53110055154E+03  0.17300000000E+03 0. -1.
         -6    1    1    2    0  502 -0.84426445057E+02 -0.54781644166E+01  0.69376132305E+02  0.20469460824E+03  0.17300000000E+03 0. -1.
<mgrwt>
<rscale>  2 0.19257942E+03</rscale>
<asrwt>0</asrwt>
<pdfrwt beam="1">  1       21 0.23862752E-01 0.19257942E+03</pdfrwt>
<pdfrwt beam="2">  1       21 0.89336502E-01 0.19257942E+03</pdfrwt>
<totfact> 0.17690416E+04</totfact>
</mgrwt>
</event>
<event>
 4    1  0.4199484E+000  0.1863972E+03  0.7546771E-02  0.1161752E+00
         21   -1    0    0  501  502  0.00000000000E+00  0.00000000000E+00  0.97279456925E+02  0.97279456925E+02  0.00000000000E+00 0. -1.
         21   -1    0    0  502  503 -0.00000000000E+00 -0.00000000000E+00 -0.41987400515E+03  0.41987400515E+03  0.00000000000E+00 0. -1.
          6    1    1    2  501    0  0.52251385448E+02 -0.45658555882E+02 -0.61360078556E+02  0.19623702568E+03  0.17300000000E+03 0. -1.
         -6    1    1    2    0  503 -0.52251385448E+02  0.45658555882E+02 -0.26123446967E+03  0.32091643639E+03  0.17300000000E+03 0. -1.
<mgrwt>
<rscale>  2 0.18639719E+03</rscale>
<asrwt>0</asrwt>
<pdfrwt beam="1">  1       21 0.14966071E-01 0.18639719E+03</pdfrwt>
<pdfrwt beam="2">  1       21 0.64596000E-01 0.18639719E+03</pdfrwt>
<totfact> 0.87241976E+04</totfact>
</mgrwt>
</event>
<event>
 4    1  0.4199484E+000  0.1800739E+03  0.7546771E-02  0.1167732E+00
         21   -1    0    0  503  502  0.00000000000E+00  0.00000000000E+00  0.28942614392E+03  0.28942614392E+03  0.00000000000E+00 0.  1.
         21   -1    0    0  501  503 -0.00000000000E+00 -0.00000000000E+00 -0.12844856364E+03  0.12844856364E+03  0.00000000000E+00 0.  1.
          6    1    1    2  501    0 -0.49893400401E+02  0.28724246714E+01  0.58062835694E+01  0.18016746420E+03  0.17300000000E+03 0.  1.
         -6    1    1    2    0  502  0.49893400401E+02 -0.28724246714E+01  0.15517129671E+03  0.23770724337E+03  0.17300000000E+03 0.  1.
<mgrwt>
<rscale>  2 0.18007388E+03</rscale>
<asrwt>0</asrwt>
<pdfrwt beam="1">  1       21 0.44527099E-01 0.18007388E+03</pdfrwt>
<pdfrwt beam="2">  1       21 0.19761318E-01 0.18007388E+03</pdfrwt>
<totfact> 0.11483066E+05</totfact>
</mgrwt>
</event>
<event>
 4    1  0.4199484E+000  0.1843261E+03  0.7546771E-02  0.1163681E+00
         21   -1    0    0  501  502  0.00000000000E+00  0.00000000000E+00  0.96273220877E+03  0.96273220877E+03  0.00000000000E+00 0.  1.
         21   -1    0    0  502  503 -0.00000000000E+00 -0.00000000000E+00 -0.37651973496E+02  0.37651973496E+02  0.00000000000E+00 0.  1.
          6    1    1    2  501    0 -0.38829993206E+01 -0.63498385734E+02  0.58778384731E+03  0.61600809559E+03  0.17300000000E+03 0.  1.
         -6    1    1    2    0  503  0.38829993206E+01  0.63498385734E+02  0.33729638797E+03  0.38437608668E+03  0.17300000000E+03 0.  1.
<mgrwt>
<rscale>  2 0.18432613E+03</rscale>
<asrwt>0</asrwt>
<pdfrwt beam="1">  1       21 0.14811263E+00 0.18432613E+03</pdfrwt>
<pdfrwt beam="2">  1       21 0.57926120E-02 0.18432613E+03</pdfrwt>
<totfact> 0.64990904E+04</totfact>
</mgrwt>
</event>
<event>
 4    1  0.4199484E+000  0.1730677E+03  0.7546771E-02  0.1174686E+00
         21   -1    0    0  503  502  0.00000000000E+00  0.00000000000E+00  0.44453708327E+02  0.44453708327E+02  0.00000000000E+00 0.  1.
         21   -1    0    0  501  503 -0.00000000000E+00 -0.00000000000E+00 -0.67675009928E+03  0.67675009928E+03  0.00000000000E+00 0.  1.
          6    1    1    2  501    0 -0.63086852590E+00  0.47992904087E+01 -0.34000000636E+03  0.38151334905E+03  0.17300000000E+03 0. -1.
         -6    1    1    2    0  502  0.63086852590E+00 -0.47992904087E+01 -0.29229638459E+03  0.33969045855E+03  0.17300000000E+03 0. -1.
<mgrwt>
<rscale>  2 0.17306771E+03</rscale>
<asrwt>0</asrwt>
<pdfrwt beam="1">  1       21 0.68390325E-02 0.17306771E+03</pdfrwt>
<pdfrwt beam="2">  1       21 0.10411539E+00 0.17306771E+03</pdfrwt>
<totfact> 0.11832648E+05</totfact>
</mgrwt>
</event>
<event>
 4    1  0.4199484E+000  0.1826147E+03  0.7546771E-02  0.1165296E+00
         21   -1    0    0  503  502  0.00000000000E+00  0.00000000000E+00  0.90156120755E+02  0.90156120755E+02  0.00000000000E+00 0. -1.
         21   -1    0    0  501  503 -0.00000000000E+00 -0.00000000000E+00 -0.13062308740E+04  0.13062308740E+04  0.00000000000E+00 0. -1.
          6    1    1    2  501    0  0.83276525084E+00  0.58467521521E+02 -0.11991660888E+04  0.12129911183E+04  0.17300000000E+03 0. -1.
         -6    1    1    2    0  502 -0.83276525084E+00 -0.58467521521E+02 -0.16908664465E+02  0.18339587647E+03  0.17300000000E+03 0. -1.
<mgrwt>
<rscale>  2 0.18261474E+03</rscale>
<asrwt>0</asrwt>
<pdfrwt beam="1">  1       21 0.13870173E-01 0.18261474E+03</pdfrwt>
<pdfrwt beam="2">  1       21 0.20095858E+00 0.18261474E+03</pdfrwt>
<totfact> 0.60420500E+03</totfact>
</mgrwt>
</event>
<event>
 4    1  0.4199484E+000  0.2282733E+03  0.7546771E-02  0.1127861E+00
         21   -1    0    0  501  502  0.00000000000E+00  0.00000000000E+00  0.66686940552E+03  0.66686940552E+03  0.00000000000E+00 0.  1.
         21   -1    0    0  502  503 -0.00000000000E+00 -0.00000000000E+00 -0.21170948777E+03  0.21170948777E+03  0.00000000000E+00 0. -1.
          6    1    1    2  501    0 -0.13881449861E+03  0.53946448690E+02  0.57650764988E+03  0.62005625125E+03  0.17300000000E+03 0.  1.
         -6    1    1    2    0  503  0.13881449861E+03 -0.53946448690E+02 -0.12134773213E+03  0.25852264204E+03  0.17300000000E+03 0. -1.
<mgrwt>
<rscale>  2 0.22827327E+03</rscale>
<asrwt>0</asrwt>
<pdfrwt beam="1">  1       21 0.10259529E+00 0.22827327E+03</pdfrwt>
<pdfrwt beam="2">  1       21 0.32570691E-01 0.22827327E+03</pdfrwt>
<totfact> 0.68295663E+03</totfact>
</mgrwt>
</event>
<event>
 4    1  0.4199484E+000  0.2261073E+03  0.7546771E-02  0.1129410E+00
         21   -1    0    0  503  502  0.00000000000E+00  0.00000000000E+00  0.27024559166E+03  0.27024559166E+03  0.00000000000E+00 0.  1.
         21   -1    0    0  501  503 -0.00000000000E+00 -0.00000000000E+00 -0.26447489121E+03  0.26447489121E+03  0.00000000000E+00 0. -1.
          6    1    1    2  501    0 -0.52829641906E+02  0.13566326209E+03 -0.13977176294E+03  0.26582068667E+03  0.17300000000E+03 0.  1.
         -6    1    1    2    0  502  0.52829641906E+02 -0.13566326209E+03  0.14554246340E+03  0.26889979620E+03  0.17300000000E+03 0.  1.
<mgrwt>
<rscale>  2 0.22610726E+03</rscale>
<asrwt>0</asrwt>
<pdfrwt beam="1">  1       21 0.41576245E-01 0.22610726E+03</pdfrwt>
<pdfrwt beam="2">  1       21 0.40688445E-01 0.22610726E+03</pdfrwt>
<totfact> 0.31853165E+04</totfact>
</mgrwt>
</event>
<event>
 4    1  0.4199484E+000  0.1859300E+03  0.7546771E-02  0.1162184E+00
         21   -1    0    0  503  502  0.00000000000E+00  0.00000000000E+00  0.10243732526E+04  0.10243732526E+04  0.00000000000E+00 0.  1.
         21   -1    0    0  501  503 -0.00000000000E+00 -0.00000000000E+00 -0.49419070430E+02  0.49419070430E+02  0.00000000000E+00 0.  1.
          6    1    1    2  501    0  0.22445057293E+02 -0.64321011672E+02  0.18513394542E+03  0.26238245156E+03  0.17300000000E+03 0.  1.
         -6    1    1    2    0  502 -0.22445057293E+02  0.64321011672E+02  0.78982023679E+03  0.81140987151E+03  0.17300000000E+03 0.  1.
<mgrwt>
<rscale>  2 0.18593002E+03</rscale>
<asrwt>0</asrwt>
<pdfrwt beam="1">  1       21 0.15759587E+00 0.18593002E+03</pdfrwt>
<pdfrwt beam="2">  1       21 0.76029347E-02 0.18593002E+03</pdfrwt>
<totfact> 0.34512820E+04</totfact>
</mgrwt>
</event>
<event>
 4    1  0.4199484E+000  0.2799272E+03  0.7546771E-02  0.1095729E+00
         21   -1    0    0  503  502  0.00000000000E+00  0.00000000000E+00  0.26347023731E+03  0.26347023731E+03  0.00000000000E+00 0. -1.
         21   -1    0    0  501  503 -0.00000000000E+00 -0.00000000000E+00 -0.29980293860E+03  0.29980293860E+03  0.00000000000E+00 0.  1.
          6    1    1    2  501    0 -0.21753208481E+03  0.33317324343E+02  0.69838198070E+01  0.28001433135E+03  0.17300000000E+03 0. -1.
         -6    1    1    2    0  502  0.21753208481E+03 -0.33317324343E+02 -0.43316521100E+02  0.28325884456E+03  0.17300000000E+03 0. -1.
<mgrwt>
<rscale>  2 0.27992723E+03</rscale>
<asrwt>0</asrwt>
<pdfrwt beam="1">  1       21 0.40533883E-01 0.27992723E+03</pdfrwt>
<pdfrwt beam="2">  1       21 0.46123529E-01 0.27992723E+03</pdfrwt>
<totfact> 0.25312370E+04</totfact>
</mgrwt>
</event>
<event>
 4    1  0.4199484E+000  0.1868508E+03  0.7546771E-02  0.1161333E+00
         21   -1    0    0  501  502  0.00000000000E+00  0.00000000000E+00  0.29697379996E+03  0.29697379996E+03  0.00000000000E+00 0.  1.
         21   -1    0    0  502  503 -0.00000000000E+00 -0.00000000000E+00 -0.12181611868E+03  0.12181611868E+03  0.00000000000E+00 0.  1.
          6    1    1    2  501    0 -0.64767044096E+02 -0.28097280353E+02  0.12670354194E+03  0.22575875333E+03  0.17300000000E+03 0.  1.
         -6    1    1    2    0  503  0.64767044096E+02  0.28097280353E+02  0.48454139341E+02  0.19303116532E+03  0.17300000000E+03 0.  1.
<mgrwt>
<rscale>  2 0.18685082E+03</rscale>
<asrwt>0</asrwt>
<pdfrwt beam="1">  1       21 0.45688277E-01 0.18685082E+03</pdfrwt>
<pdfrwt beam="2">  1       21 0.18740941E-01 0.18685082E+03</pdfrwt>
<totfact> 0.11991507E+05</totfact>
</mgrwt>
</event>
<event>
 4    1  0.4199484E+000  0.1884669E+03  0.7546771E-02  0.1159851E+00
         21   -1    0    0  501  502  0.00000000000E+00  0.00000000000E+00  0.90119597462E+02  0.90119597462E+02  0.00000000000E+00 0. -1.
         21   -1    0    0  502  503 -0.00000000000E+00 -0.00000000000E+00 -0.51142097929E+03  0.51142097929E+03  0.00000000000E+00 0.  1.
          6    1    1    2  501    0  0.34941190177E+02 -0.66105235812E+02 -0.66618883686E+02  0.19989463384E+03  0.17300000000E+03 0. -1.
         -6    1    1    2    0  503 -0.34941190177E+02  0.66105235812E+02 -0.35468249814E+03  0.40164594291E+03  0.17300000000E+03 0.  1.
<mgrwt>
<rscale>  2 0.18846694E+03</rscale>
<asrwt>0</asrwt>
<pdfrwt beam="1">  1       21 0.13864553E-01 0.18846694E+03</pdfrwt>
<pdfrwt beam="2">  1       21 0.78680151E-01 0.18846694E+03</pdfrwt>
<totfact> 0.64742261E+04</totfact>
</mgrwt>
</event>
<event>
 4    1  0.4199484E+000  0.2662999E+03  0.7546771E-02  0.1103416E+00
         21   -1    0    0  501  502  0.00000000000E+00  0.00000000000E+00  0.91434368288E+02  0.91434368288E+02  0.00000000000E+00 0. -1.
         21   -1    0    0  502  503 -0.00000000000E+00 -0.00000000000E+00 -0.85337007834E+03  0.85337007834E+03  0.00000000000E+00 0.  1.
          6    1    1    2  501    0 -0.17076840274E+03 -0.10874192484E+03 -0.23834956654E+03  0.35738798170E+03  0.17300000000E+03 0. -1.
         -6    1    1    2    0  503  0.17076840274E+03  0.10874192484E+03 -0.52358614351E+03  0.58741646493E+03  0.17300000000E+03 0.  1.
<mgrwt>
<rscale>  2 0.26629993E+03</rscale>
<asrwt>0</asrwt>
<pdfrwt beam="1">  1       21 0.14066826E-01 0.26629993E+03</pdfrwt>
<pdfrwt beam="2">  1       21 0.13128770E+00 0.26629993E+03</pdfrwt>
<totfact> 0.17806484E+04</totfact>
</mgrwt>
</event>
<event>
 4    1  0.4199484E+000  0.1863559E+03  0.7546771E-02  0.1161790E+00
         21   -1    0    0  503  502  0.00000000000E+00  0.00000000000E+00  0.10501317415E+03  0.10501317415E+03  0.00000000000E+00 0.  1.
         21   -1    0    0  501  503 -0.00000000000E+00 -0.00000000000E+00 -0.46971586200E+03  0.46971586200E+03  0.00000000000E+00 0.  1.
          6    1    1    2  501    0  0.29333183275E+02  0.62762147390E+02 -0.33867971422E+03  0.38656496428E+03  0.17300000000E+03 0.  1.
         -6    1    1    2    0  502 -0.29333183275E+02 -0.62762147390E+02 -0.26022973628E+02  0.18816407187E+03  0.17300000000E+03 0.  1.
<mgrwt>
<rscale>  2 0.18635590E+03</rscale>
<asrwt>0</asrwt>
<pdfrwt beam="1">  1       21 0.16155873E-01 0.18635590E+03</pdfrwt>
<pdfrwt beam="2">  1       21 0.72263977E-01 0.18635590E+03</pdfrwt>
<totfact> 0.59326633E+04</totfact>
</mgrwt>
</event>
<event>
 4    1  0.4199484E+000  0.1753204E+03  0.7546771E-02  0.1172410E+00
         21   -1    0    0  503  502  0.00000000000E+00  0.00000000000E+00  0.85430288184E+02  0.85430288184E+02  0.00000000000E+00 0. -1.
         21   -1    0    0  501  503 -0.00000000000E+00 -0.00000000000E+00 -0.51791896548E+03  0.51791896548E+03  0.00000000000E+00 0. -1.
          6    1    1    2  501    0 -0.57952832738E+01 -0.27832824433E+02 -0.38293411416E+03  0.42116004940E+03  0.17300000000E+03 0. -1.
         -6    1    1    2    0  502  0.57952832738E+01  0.27832824433E+02 -0.49554563144E+02  0.18218920427E+03  0.17300000000E+03 0. -1.
<mgrwt>
<rscale>  2 0.17532043E+03</rscale>
<asrwt>0</asrwt>
<pdfrwt beam="1">  1       21 0.13143122E-01 0.17532043E+03</pdfrwt>
<pdfrwt beam="2">  1       21 0.79679839E-01 0.17532043E+03</pdfrwt>
<totfact> 0.69704197E+04</totfact>
</mgrwt>
</event>
<event>
 4    1  0.4199484E+000  0.1863835E+03  0.7546771E-02  0.1161764E+00
         21   -1    0    0  501  502  0.00000000000E+00  0.00000000000E+00  0.72728377938E+03  0.72728377938E+03  0.00000000000E+00 0. -1.
         21   -1    0    0  502  503 -0.00000000000E+00 -0.00000000000E+00 -0.51064039797E+02  0.51064039797E+02  0.00000000000E+00 0.  1.
          6    1    1    2  501    0  0.34501551720E+02 -0.60161756320E+02  0.43702717640E+03  0.47511214140E+03  0.17300000000E+03 0. -1.
         -6    1    1    2    0  503 -0.34501551720E+02  0.60161756320E+02  0.23919256319E+03  0.30323567778E+03  0.17300000000E+03 0.  1.
<mgrwt>
<rscale>  2 0.18638346E+03</rscale>
<asrwt>0</asrwt>
<pdfrwt beam="1">  1       21 0.11188980E+00 0.18638346E+03</pdfrwt>
<pdfrwt beam="2">  1       21 0.78560066E-02 0.18638346E+03</pdfrwt>
<totfact> 0.77839373E+04</totfact>
</mgrwt>
</event>
<event>
 4    1  0.4199484E+000  0.3617918E+03  0.7546771E-02  0.1057877E+00
         21   -1    0    0  503  502  0.00000000000E+00  0.00000000000E+00  0.12091441325E+03  0.12091441325E+03  0.00000000000E+00 0. -1.
         21   -1    0    0  501  503 -0.00000000000E+00 -0.00000000000E+00 -0.15170142670E+04  0.15170142670E+04  0.00000000000E+00 0.  1.
          6    1    1    2  501    0 -0.29518360549E+03 -0.11760500029E+03 -0.11363362737E+04  0.11925407431E+04  0.17300000000E+03 0.  1.
         -6    1    1    2    0  502  0.29518360549E+03  0.11760500029E+03 -0.25976358008E+03  0.44538793717E+03  0.17300000000E+03 0. -1.
<mgrwt>
<rscale>  2 0.36179179E+03</rscale>
<asrwt>0</asrwt>
<pdfrwt beam="1">  1       21 0.18602218E-01 0.36179179E+03</pdfrwt>
<pdfrwt beam="2">  1       21 0.23338681E+00 0.36179179E+03</pdfrwt>
<totfact> 0.19267491E+03</totfact>
</mgrwt>
</event>
<event>
 4    1  0.4199484E+000  0.1962613E+03  0.7546771E-02  0.1152932E+00
         21   -1    0    0  503  502  0.00000000000E+00  0.00000000000E+00  0.22422794340E+03  0.22422794340E+03  0.00000000000E+00 0. -1.
         21   -1    0    0  501  503 -0.00000000000E+00 -0.00000000000E+00 -0.23413766418E+03  0.23413766418E+03  0.00000000000E+00 0. -1.
          6    1    1    2  501    0  0.36293537515E+02 -0.85277751785E+02 -0.12322670550E+03  0.23173980401E+03  0.17300000000E+03 0. -1.
         -6    1    1    2    0  502 -0.36293537515E+02  0.85277751785E+02  0.11331698472E+03  0.22662580356E+03  0.17300000000E+03 0. -1.
<mgrwt>
<rscale>  2 0.19626135E+03</rscale>
<asrwt>0</asrwt>
<pdfrwt beam="1">  1       21 0.34496607E-01 0.19626135E+03</pdfrwt>
<pdfrwt beam="2">  1       21 0.36021179E-01 0.19626135E+03</pdfrwt>
<totfact> 0.60090917E+04</totfact>
</mgrwt>
</event>
<event>
 4    1  0.4199484E+000  0.3435670E+03  0.7546771E-02  0.1065287E+00
         21   -1    0    0  503  502  0.00000000000E+00  0.00000000000E+00  0.31039691450E+03  0.31039691450E+03  0.00000000000E+00 0.  1.
         21   -1    0    0  501  503 -0.00000000000E+00 -0.00000000000E+00 -0.45280706102E+03  0.45280706102E+03  0.00000000000E+00 0.  1.
          6    1    1    2  501    0  0.26599830537E+03  0.13173528460E+03 -0.22392609302E+03  0.41009898659E+03  0.17300000000E+03 0.  1.
         -6    1    1    2    0  502 -0.26599830537E+03 -0.13173528460E+03  0.81515946498E+02  0.35310498892E+03  0.17300000000E+03 0.  1.
<mgrwt>
<rscale>  2 0.34356700E+03</rscale>
<asrwt>0</asrwt>
<pdfrwt beam="1">  1       21 0.47753372E-01 0.34356700E+03</pdfrwt>
<pdfrwt beam="2">  1       21 0.69662625E-01 0.34356700E+03</pdfrwt>
<totfact> 0.72248787E+03</totfact>
</mgrwt>
</event>
<event>
 4    1  0.4199484E+000  0.2220207E+03  0.7546771E-02  0.1132385E+00
         21   -1    0    0  503  502  0.00000000000E+00  0.00000000000E+00  0.17763925801E+03  0.17763925801E+03  0.00000000000E+00 0. -1.
         21   -1    0    0  501  503 -0.00000000000E+00 -0.00000000000E+00 -0.33039865491E+03  0.33039865491E+03  0.00000000000E+00 0. -1.
          6    1    1    2  501    0 -0.12906096406E+02 -0.13855548385E+03 -0.17803000566E+03  0.28458368250E+03  0.17300000000E+03 0. -1.
         -6    1    1    2    0  502  0.12906096406E+02  0.13855548385E+03  0.25270608763E+02  0.22345423043E+03  0.17300000000E+03 0. -1.
<mgrwt>
<rscale>  2 0.22202070E+03</rscale>
<asrwt>0</asrwt>
<pdfrwt beam="1">  1       21 0.27329117E-01 0.22202070E+03</pdfrwt>
<pdfrwt beam="2">  1       21 0.50830562E-01 0.22202070E+03</pdfrwt>
<totfact> 0.46345771E+04</totfact>
</mgrwt>
</event>
<event>
 4    1  0.4199484E+000  0.1838491E+03  0.7546771E-02  0.1164129E+00
         21   -1    0    0  501  502  0.00000000000E+00  0.00000000000E+00  0.69014502158E+02  0.69014502158E+02  0.00000000000E+00 0. -1.
         21   -1    0    0  502  503 -0.00000000000E+00 -0.00000000000E+00 -0.65269598137E+03  0.65269598137E+03  0.00000000000E+00 0. -1.
          6    1    1    2  501    0 -0.94885797466E+01  0.61493586266E+02 -0.11154437020E+03  0.21504102125E+03  0.17300000000E+03 0. -1.
         -6    1    1    2    0  503  0.94885797466E+01 -0.61493586266E+02 -0.47213710901E+03  0.50666946227E+03  0.17300000000E+03 0. -1.
<mgrwt>
<rscale>  2 0.18384911E+03</rscale>
<asrwt>0</asrwt>
<pdfrwt beam="1">  1       21 0.10617616E-01 0.18384911E+03</pdfrwt>
<pdfrwt beam="2">  1       21 0.10041477E+00 0.18384911E+03</pdfrwt>
<totfact> 0.59573954E+04</totfact>
</mgrwt>
</event>
<event>
 4    1  0.4199484E+000  0.1826265E+03  0.7546771E-02  0.1165285E+00
         21   -1    0    0  503  502  0.00000000000E+00  0.00000000000E+00  0.20816857851E+04  0.20816857851E+04  0.00000000000E+00 0. -1.
         21   -1    0    0  501  503 -0.00000000000E+00 -0.00000000000E+00 -0.41258987919E+02  0.41258987919E+02  0.00000000000E+00 0. -1.
          6    1    1    2  501    0  0.11539588721E+02  0.57361065819E+02  0.19003872483E+03  0.26356625526E+03  0.17300000000E+03 0. -1.
         -6    1    1    2    0  502 -0.11539588721E+02 -0.57361065819E+02  0.18503880723E+04  0.18593785177E+04  0.17300000000E+03 0. -1.
<mgrwt>
<rscale>  2 0.18262654E+03</rscale>
<asrwt>0</asrwt>
<pdfrwt beam="1">  1       21 0.32025927E+00 0.18262654E+03</pdfrwt>
<pdfrwt beam="2">  1       21 0.63475382E-02 0.18262654E+03</pdfrwt>
<totfact> 0.47285228E+03</totfact>
</mgrwt>
</event>
<event>
 4    1  0.4199484E+000  0.1829829E+03  0.7546771E-02  0.1164947E+00
         21   -1    0    0  503  502  0.00000000000E+00  0.00000000000E+00  0.18478626664E+03  0.18478626664E+03  0.00000000000E+00 0.  1.
         21   -1    0    0  501  503 -0.00000000000E+00 -0.00000000000E+00 -0.18138667663E+03  0.18138667663E+03  0.00000000000E+00 0.  1.
          6    1    1    2  501    0  0.51935722487E+02  0.29264638316E+02  0.76185353039E+01  0.18314142187E+03  0.17300000000E+03 0.  1.
         -6    1    1    2    0  502 -0.51935722487E+02 -0.29264638316E+02 -0.42189452998E+01  0.18303152140E+03  0.17300000000E+03 0.  1.
<mgrwt>
<rscale>  2 0.18298289E+03</rscale>
<asrwt>0</asrwt>
<pdfrwt beam="1">  1       21 0.28428656E-01 0.18298289E+03</pdfrwt>
<pdfrwt beam="2">  1       21 0.27905643E-01 0.18298289E+03</pdfrwt>
<totfact> 0.14553481E+05</totfact>
</mgrwt>
</event>
<event>
 4    1  0.4199484E+000  0.2451402E+03  0.7546771E-02  0.1116415E+00
         21   -1    0    0  501  502  0.00000000000E+00  0.00000000000E+00  0.61833696008E+03  0.61833696008E+03  0.00000000000E+00 0. -1.
         21   -1    0    0  502  503 -0.00000000000E+00 -0.00000000000E+00 -0.16363601504E+03  0.16363601504E+03  0.00000000000E+00 0.  1.
          6    1    1    2  501    0  0.52067046969E+02 -0.16569169847E+03  0.47650554568E+03  0.53586495629E+03  0.17300000000E+03 0. -1.
         -6    1    1    2    0  503 -0.52067046969E+02  0.16569169847E+03 -0.21804600638E+02  0.24610801882E+03  0.17300000000E+03 0.  1.
<mgrwt>
<rscale>  2 0.24514020E+03</rscale>
<asrwt>0</asrwt>
<pdfrwt beam="1">  1       21 0.95128762E-01 0.24514020E+03</pdfrwt>
<pdfrwt beam="2">  1       21 0.25174772E-01 0.24514020E+03</pdfrwt>
<totfact> 0.13366731E+04</totfact>
</mgrwt>
</event>
<event>
 4    1  0.4199484E+000  0.1997346E+03  0.7546771E-02  0.1149963E+00
         21   -1    0    0  503  502  0.00000000000E+00  0.00000000000E+00  0.16849792352E+04  0.16849792352E+04  0.00000000000E+00 0.  1.
         21   -1    0    0  501  503 -0.00000000000E+00 -0.00000000000E+00 -0.23733378268E+02  0.23733378268E+02  0.00000000000E+00 0.  1.
          6    1    1    2  501    0 -0.98817510828E+02 -0.14141937236E+02  0.78868581982E+03  0.81358417956E+03  0.17300000000E+03 0.  1.
         -6    1    1    2    0  502  0.98817510828E+02  0.14141937236E+02  0.87256003707E+03  0.89512843388E+03  0.17300000000E+03 0.  1.
<mgrwt>
<rscale>  2 0.19973456E+03</rscale>
<asrwt>0</asrwt>
<pdfrwt beam="1">  1       21 0.25922748E+00 0.19973456E+03</pdfrwt>
<pdfrwt beam="2">  1       21 0.36512903E-02 0.19973456E+03</pdfrwt>
<totfact> 0.26637802E+04</totfact>
</mgrwt>
</event>
<event>
 4    1  0.4199484E+000  0.6072814E+03  0.7546771E-02  0.9890413E-01
         21   -1    0    0  501  502  0.00000000000E+00  0.00000000000E+00  0.98804922665E+03  0.98804922665E+03  0.00000000000E+00 0.  1.
         21   -1    0    0  502  503 -0.00000000000E+00 -0.00000000000E+00 -0.52516734941E+03  0.52516734941E+03  0.00000000000E+00 0. -1.
          6    1    1    2  501    0 -0.43756327710E+03  0.38392723863E+03  0.63837490147E+03  0.88108640941E+03  0.17300000000E+03 0.  1.
         -6    1    1    2    0  503  0.43756327710E+03 -0.38392723863E+03 -0.17549302423E+03  0.63213016664E+03  0.17300000000E+03 0. -1.
<mgrwt>
<rscale>  2 0.60728144E+03</rscale>
<asrwt>0</asrwt>
<pdfrwt beam="1">  1       21 0.15200757E+00 0.60728144E+03</pdfrwt>
<pdfrwt beam="2">  1       21 0.80794977E-01 0.60728144E+03</pdfrwt>
<totfact> 0.29993733E+02</totfact>
</mgrwt>
</event>
<event>
 4    1  0.4199484E+000  0.1859234E+03  0.7546771E-02  0.1162190E+00
         21   -1    0    0  501  502  0.00000000000E+00  0.00000000000E+00  0.10618924113E+03  0.10618924113E+03  0.00000000000E+00 0. -1.
         21   -1    0    0  502  503 -0.00000000000E+00 -0.00000000000E+00 -0.44204333890E+03  0.44204333890E+03  0.00000000000E+00 0. -1.
          6    1    1    2  501    0 -0.33123591010E+02 -0.59509238524E+02 -0.27194406926E+02  0.18790172303E+03  0.17300000000E+03 0. -1.
         -6    1    1    2    0  503  0.33123591010E+02  0.59509238524E+02 -0.30865969084E+03  0.36033085699E+03  0.17300000000E+03 0. -1.
<mgrwt>
<rscale>  2 0.18592343E+03</rscale>
<asrwt>0</asrwt>
<pdfrwt beam="1">  1       21 0.16336807E-01 0.18592343E+03</pdfrwt>
<pdfrwt beam="2">  1       21 0.68006666E-01 0.18592343E+03</pdfrwt>
<totfact> 0.66463029E+04</totfact>
</mgrwt>
</event>
<event>
 4    1  0.4199484E+000  0.2294571E+03  0.7546771E-02  0.1127022E+00
         21   -1    0    0  501  502  0.00000000000E+00  0.00000000000E+00  0.11612898838E+03  0.11612898838E+03  0.00000000000E+00 0. -1.
         21   -1    0    0  502  503 -0.00000000000E+00 -0.00000000000E+00 -0.45341749688E+03  0.45341749688E+03  0.00000000000E+00 0. -1.
          6    1    1    2  501    0 -0.14700157904E+03  0.33347805219E+02 -0.16604850625E+03  0.28323602663E+03  0.17300000000E+03 0. -1.
         -6    1    1    2    0  503  0.14700157904E+03 -0.33347805219E+02 -0.17124000225E+03  0.28631045864E+03  0.17300000000E+03 0. -1.
<mgrwt>
<rscale>  2 0.22945706E+03</rscale>
<asrwt>0</asrwt>
<pdfrwt beam="1">  1       21 0.17865998E-01 0.22945706E+03</pdfrwt>
<pdfrwt beam="2">  1       21 0.69756538E-01 0.22945706E+03</pdfrwt>
<totfact> 0.52247364E+04</totfact>
</mgrwt>
</event>
<event>
 4    1  0.4199484E+000  0.3056288E+03  0.7546771E-02  0.1082460E+00
         21   -1    0    0  501  502  0.00000000000E+00  0.00000000000E+00  0.14449233290E+03  0.14449233290E+03  0.00000000000E+00 0. -1.
         21   -1    0    0  502  503 -0.00000000000E+00 -0.00000000000E+00 -0.82876454056E+03  0.82876454056E+03  0.00000000000E+00 0.  1.
          6    1    1    2  501    0 -0.23003488233E+03  0.10278078862E+03 -0.11390378104E+03  0.32616408284E+03  0.17300000000E+03 0. -1.
         -6    1    1    2    0  503  0.23003488233E+03 -0.10278078862E+03 -0.57036842662E+03  0.64709279063E+03  0.17300000000E+03 0.  1.
<mgrwt>
<rscale>  2 0.30562876E+03</rscale>
<asrwt>0</asrwt>
<pdfrwt beam="1">  1       21 0.22229590E-01 0.30562876E+03</pdfrwt>
<pdfrwt beam="2">  1       21 0.12750224E+00 0.30562876E+03</pdfrwt>
<totfact> 0.80198185E+03</totfact>
</mgrwt>
</event>
<event>
 4    1  0.4199484E+000  0.2107841E+03  0.7546771E-02  0.1140947E+00
         21   -1    0    0  501  502  0.00000000000E+00  0.00000000000E+00  0.77731052475E+02  0.77731052475E+02  0.00000000000E+00 0. -1.
         21   -1    0    0  502  503 -0.00000000000E+00 -0.00000000000E+00 -0.95454021489E+03  0.95454021489E+03  0.00000000000E+00 0. -1.
          6    1    1    2  501    0  0.68086819118E+02 -0.99323392376E+02 -0.11148542043E+03  0.23845114841E+03  0.17300000000E+03 0. -1.
         -6    1    1    2    0  503 -0.68086819118E+02  0.99323392376E+02 -0.76532374198E+03  0.79382011895E+03  0.17300000000E+03 0. -1.
<mgrwt>
<rscale>  2 0.21078413E+03</rscale>
<asrwt>0</asrwt>
<pdfrwt beam="1">  1       21 0.11958625E-01 0.21078413E+03</pdfrwt>
<pdfrwt beam="2">  1       21 0.14685232E+00 0.21078413E+03</pdfrwt>
<totfact> 0.18433770E+04</totfact>
</mgrwt>
</event>
<event>
 4    1  0.4199484E+000  0.2039783E+03  0.7546771E-02  0.1146425E+00
         21   -1    0    0  503  502  0.00000000000E+00  0.00000000000E+00  0.23751113358E+03  0.23751113358E+03  0.00000000000E+00 0.  1.
         21   -1    0    0  501  503 -0.00000000000E+00 -0.00000000000E+00 -0.66489383476E+03  0.66489383476E+03  0.00000000000E+00 0.  1.
          6    1    1    2  501    0 -0.10353658100E+03  0.30956653268E+02 -0.60091924282E+03  0.63459520514E+03  0.17300000000E+03 0.  1.
         -6    1    1    2    0  502  0.10353658100E+03 -0.30956653268E+02  0.17353654164E+03  0.26780976321E+03  0.17300000000E+03 0.  1.
<mgrwt>
<rscale>  2 0.20397828E+03</rscale>
<asrwt>0</asrwt>
<pdfrwt beam="1">  1       21 0.36540174E-01 0.20397828E+03</pdfrwt>
<pdfrwt beam="2">  1       21 0.10229136E+00 0.20397828E+03</pdfrwt>
<totfact> 0.55689329E+03</totfact>
</mgrwt>
</event>
<event>
 4    1  0.4199484E+000  0.2036640E+03  0.7546771E-02  0.1146684E+00
         21   -1    0    0  503  502  0.00000000000E+00  0.00000000000E+00  0.19038999425E+03  0.19038999425E+03  0.00000000000E+00 0.  1.
         21   -1    0    0  501  503 -0.00000000000E+00 -0.00000000000E+00 -0.42827207372E+03  0.42827207372E+03  0.00000000000E+00 0.  1.
          6    1    1    2  501    0 -0.24885304809E+02  0.10455020181E+03 -0.33575905846E+03  0.39269984522E+03  0.17300000000E+03 0.  1.
         -6    1    1    2    0  502  0.24885304809E+02 -0.10455020181E+03  0.97876978994E+02  0.22596222275E+03  0.17300000000E+03 0.  1.
<mgrwt>
<rscale>  2 0.20366400E+03</rscale>
<asrwt>0</asrwt>
<pdfrwt beam="1">  1       21 0.29290768E-01 0.20366400E+03</pdfrwt>
<pdfrwt beam="2">  1       21 0.65888011E-01 0.20366400E+03</pdfrwt>
<totfact> 0.23471831E+04</totfact>
</mgrwt>
</event>
<event>
 4    1  0.4199484E+000  0.1743941E+03  0.7546771E-02  0.1173341E+00
         21   -1    0    0  503  502  0.00000000000E+00  0.00000000000E+00  0.57553571296E+02  0.57553571296E+02  0.00000000000E+00 0. -1.
         21   -1    0    0  501  503 -0.00000000000E+00 -0.00000000000E+00 -0.11047541402E+04  0.11047541402E+04  0.00000000000E+00 0. -1.
          6    1    1    2  501    0 -0.74243095003E+01 -0.20716672052E+02 -0.94334956547E+03  0.95933398957E+03  0.17300000000E+03 0. -1.
         -6    1    1    2    0  502  0.74243095003E+01  0.20716672052E+02 -0.10385100340E+03  0.20297372190E+03  0.17300000000E+03 0. -1.
<mgrwt>
<rscale>  2 0.17439410E+03</rscale>
<asrwt>0</asrwt>
<pdfrwt beam="1">  1       21 0.88543964E-02 0.17439410E+03</pdfrwt>
<pdfrwt beam="2">  1       21 0.16996216E+00 0.17439410E+03</pdfrwt>
<totfact> 0.21741280E+04</totfact>
</mgrwt>
</event>
<event>
 4    1  0.4199484E+000  0.2786714E+03  0.7546771E-02  0.1096417E+00
         21   -1    0    0  503  502  0.00000000000E+00  0.00000000000E+00  0.36884303123E+03  0.36884303123E+03  0.00000000000E+00 0. -1.
         21   -1    0    0  501  503 -0.00000000000E+00 -0.00000000000E+00 -0.24143744809E+03  0.24143744809E+03  0.00000000000E+00 0.  1.
          6    1    1    2  501    0  0.10570375335E+03 -0.19119490431E+03 -0.45448451676E+02  0.28235321260E+03  0.17300000000E+03 0.  1.
         -6    1    1    2    0  502 -0.10570375335E+03  0.19119490431E+03  0.17285403482E+03  0.32792726672E+03  0.17300000000E+03 0. -1.
<mgrwt>
<rscale>  2 0.27867145E+03</rscale>
<asrwt>0</asrwt>
<pdfrwt beam="1">  1       21 0.56745082E-01 0.27867145E+03</pdfrwt>
<pdfrwt beam="2">  1       21 0.37144223E-01 0.27867145E+03</pdfrwt>
<totfact> 0.19518847E+04</totfact>
</mgrwt>
</event>
<event>
 4    1  0.4199484E+000  0.2826744E+03  0.7546771E-02  0.1094237E+00
         21   -1    0    0  501  502  0.00000000000E+00  0.00000000000E+00  0.97645638432E+02  0.97645638432E+02  0.00000000000E+00 0.  1.
         21   -1    0    0  502  503 -0.00000000000E+00 -0.00000000000E+00 -0.85143074056E+03  0.85143074056E+03  0.00000000000E+00 0. -1.
          6    1    1    2  501    0 -0.14996408218E+03  0.16579086667E+03 -0.28330516572E+03  0.40020826371E+03  0.17300000000E+03 0.  1.
         -6    1    1    2    0  503  0.14996408218E+03 -0.16579086667E+03 -0.47047993640E+03  0.54886811528E+03  0.17300000000E+03 0.  1.
<mgrwt>
<rscale>  2 0.28267444E+03</rscale>
<asrwt>0</asrwt>
<pdfrwt beam="1">  1       21 0.15022406E-01 0.28267444E+03</pdfrwt>
<pdfrwt beam="2">  1       21 0.13098934E+00 0.28267444E+03</pdfrwt>
<totfact> 0.15752589E+04</totfact>
</mgrwt>
</event>
<event>
 4    1  0.4199484E+000  0.1920583E+03  0.7546771E-02  0.1156618E+00
         21   -1    0    0  503  502  0.00000000000E+00  0.00000000000E+00  0.83804167781E+03  0.83804167781E+03  0.00000000000E+00 0.  1.
         21   -1    0    0  501  503 -0.00000000000E+00 -0.00000000000E+00 -0.62777133807E+02  0.62777133807E+02  0.00000000000E+00 0.  1.
          6    1    1    2  501    0 -0.10598942406E+02  0.82734890576E+02  0.14139834602E+03  0.23849505646E+03  0.17300000000E+03 0.  1.
         -6    1    1    2    0  502  0.10598942406E+02 -0.82734890576E+02  0.63386619798E+03  0.66232375515E+03  0.17300000000E+03 0.  1.
<mgrwt>
<rscale>  2 0.19205832E+03</rscale>
<asrwt>0</asrwt>
<pdfrwt beam="1">  1       21 0.12892948E+00 0.19205832E+03</pdfrwt>
<pdfrwt beam="2">  1       21 0.96580212E-02 0.19205832E+03</pdfrwt>
<totfact> 0.38096151E+04</totfact>
</mgrwt>
</event>
<event>
 4    1  0.4199484E+000  0.2008019E+03  0.7546771E-02  0.1149064E+00
         21   -1    0    0  501  502  0.00000000000E+00  0.00000000000E+00  0.16245790711E+03  0.16245790711E+03  0.00000000000E+00 0. -1.
         21   -1    0    0  502  503 -0.00000000000E+00 -0.00000000000E+00 -0.25534447546E+03  0.25534447546E+03  0.00000000000E+00 0.  1.
          6    1    1    2  501    0  0.11459839116E+02  0.10129703515E+03 -0.11490507513E+02  0.20113042785E+03  0.17300000000E+03 0.  1.
         -6    1    1    2    0  503 -0.11459839116E+02 -0.10129703515E+03 -0.81396060840E+02  0.21667195472E+03  0.17300000000E+03 0. -1.
<mgrwt>
<rscale>  2 0.20080194E+03</rscale>
<asrwt>0</asrwt>
<pdfrwt beam="1">  1       21 0.24993524E-01 0.20080194E+03</pdfrwt>
<pdfrwt beam="2">  1       21 0.39283765E-01 0.20080194E+03</pdfrwt>
<totfact> 0.94355650E+04</totfact>
</mgrwt>
</event>
<event>
 4    1  0.4199484E+000  0.2181203E+03  0.7546771E-02  0.1135292E+00
         21   -1    0    0  503  502  0.00000000000E+00  0.00000000000E+00  0.36150908672E+03  0.36150908672E+03  0.00000000000E+00 0. -1.
         21   -1    0    0  501  503 -0.00000000000E+00 -0.00000000000E+00 -0.13386212302E+03  0.13386212302E+03  0.00000000000E+00 0. -1.
          6    1    1    2  501    0 -0.94615270012E+02 -0.93249241950E+02  0.81662324163E+02  0.23290600171E+03  0.17300000000E+03 0. -1.
         -6    1    1    2    0  502  0.94615270012E+02  0.93249241950E+02  0.14598463954E+03  0.26246520803E+03  0.17300000000E+03 0. -1.
<mgrwt>
<rscale>  2 0.21812031E+03</rscale>
<asrwt>0</asrwt>
<pdfrwt beam="1">  1       21 0.55616782E-01 0.21812031E+03</pdfrwt>
<pdfrwt beam="2">  1       21 0.20594173E-01 0.21812031E+03</pdfrwt>
<totfact> 0.65821456E+04</totfact>
</mgrwt>
</event>
<event>
 4    1  0.4199484E+000  0.2522485E+03  0.7546771E-02  0.1111892E+00
         21   -1    0    0  501  502  0.00000000000E+00  0.00000000000E+00  0.63517181571E+03  0.63517181571E+03  0.00000000000E+00 0. -1.
         21   -1    0    0  502  503 -0.00000000000E+00 -0.00000000000E+00 -0.35382126528E+03  0.35382126528E+03  0.00000000000E+00 0. -1.
          6    1    1    2  501    0 -0.11078945860E+03 -0.14637617360E+03  0.55935723207E+03  0.61360394507E+03  0.17300000000E+03 0. -1.
         -6    1    1    2    0  503  0.11078945860E+03  0.14637617360E+03 -0.27800668164E+03  0.37538913593E+03  0.17300000000E+03 0. -1.
<mgrwt>
<rscale>  2 0.25224847E+03</rscale>
<asrwt>0</asrwt>
<pdfrwt beam="1">  1       21 0.97718741E-01 0.25224847E+03</pdfrwt>
<pdfrwt beam="2">  1       21 0.54434041E-01 0.25224847E+03</pdfrwt>
<totfact> 0.26385241E+03</totfact>
</mgrwt>
</event>
<event>
 4    1  0.4199484E+000  0.1799361E+03  0.7546771E-02  0.1167865E+00
         21   -1    0    0  501  502  0.00000000000E+00  0.00000000000E+00  0.50291012693E+03  0.50291012693E+03  0.00000000000E+00 0.  1.
         21   -1    0    0  502  503 -0.00000000000E+00 -0.00000000000E+00 -0.64621821191E+02  0.64621821191E+02  0.00000000000E+00 0.  1.
          6    1    1    2  501    0 -0.48864038578E+02  0.77660861064E+01  0.20176063410E+03  0.27034119152E+03  0.17300000000E+03 0. -1.
         -6    1    1    2    0  503  0.48864038578E+02 -0.77660861064E+01  0.23652767164E+03  0.29719075660E+03  0.17300000000E+03 0. -1.
<mgrwt>
<rscale>  2 0.17993612E+03</rscale>
<asrwt>0</asrwt>
<pdfrwt beam="1">  1       21 0.77370786E-01 0.17993612E+03</pdfrwt>
<pdfrwt beam="2">  1       21 0.99418190E-02 0.17993612E+03</pdfrwt>
<totfact> 0.12214495E+05</totfact>
</mgrwt>
</event>
<event>
 4    1  0.4199484E+000  0.2649122E+03  0.7546771E-02  0.1104227E+00
         21   -1    0    0  501  502  0.00000000000E+00  0.00000000000E+00  0.12394348440E+04  0.12394348440E+04  0.00000000000E+00 0.  1.
         21   -1    0    0  502  503 -0.00000000000E+00 -0.00000000000E+00 -0.14238700159E+03  0.14238700159E+03  0.00000000000E+00 0.  1.
          6    1    1    2  501    0 -0.19108037125E+03 -0.61137062725E+02  0.10847446936E+04  0.11166241530E+04  0.17300000000E+03 0.  1.
         -6    1    1    2    0  503  0.19108037125E+03  0.61137062725E+02  0.12303148844E+02  0.26519769265E+03  0.17300000000E+03 0.  1.
<mgrwt>
<rscale>  2 0.26491215E+03</rscale>
<asrwt>0</asrwt>
<pdfrwt beam="1">  1       21 0.19068228E+00 0.26491215E+03</pdfrwt>
<pdfrwt beam="2">  1       21 0.21905693E-01 0.26491215E+03</pdfrwt>
<totfact> 0.28258440E+03</totfact>
</mgrwt>
</event>
<event>
 4    1  0.4199484E+000  0.2143280E+03  0.7546771E-02  0.1138184E+00
         21   -1    0    0  501  502  0.00000000000E+00  0.00000000000E+00  0.26026465799E+03  0.26026465799E+03  0.00000000000E+00 0. -1.
         21   -1    0    0  502  503 -0.00000000000E+00 -0.00000000000E+00 -0.29752252163E+03  0.29752252163E+03  0.00000000000E+00 0. -1.
          6    1    1    2  501    0 -0.92659487051E+02 -0.86149474788E+02  0.15924531908E+03  0.26701232967E+03  0.17300000000E+03 0. -1.
         -6    1    1    2    0  503  0.92659487051E+02  0.86149474788E+02 -0.19650318271E+03  0.29077484995E+03  0.17300000000E+03 0. -1.
<mgrwt>
<rscale>  2 0.21432805E+03</rscale>
<asrwt>0</asrwt>
<pdfrwt beam="1">  1       21 0.40040717E-01 0.21432805E+03</pdfrwt>
<pdfrwt beam="2">  1       21 0.45772695E-01 0.21432805E+03</pdfrwt>
<totfact> 0.27177800E+04</totfact>
</mgrwt>
</event>
<event>
 4    1  0.4199484E+000  0.1893328E+03  0.7546771E-02  0.1159064E+00
         21   -1    0    0  501  502  0.00000000000E+00  0.00000000000E+00  0.56445768081E+02  0.56445768081E+02  0.00000000000E+00 0.  1.
         21   -1    0    0  502  503 -0.00000000000E+00 -0.00000000000E+00 -0.69403200013E+03  0.69403200013E+03  0.00000000000E+00 0.  1.
          6    1    1    2  501    0  0.31811322485E+02  0.70042495798E+02 -0.20941992625E+03  0.28231829018E+03  0.17300000000E+03 0.  1.
         -6    1    1    2    0  503 -0.31811322485E+02 -0.70042495798E+02 -0.42816630580E+03  0.46815947804E+03  0.17300000000E+03 0.  1.
<mgrwt>
<rscale>  2 0.18933281E+03</rscale>
<asrwt>0</asrwt>
<pdfrwt beam="1">  1       21 0.86839646E-02 0.18933281E+03</pdfrwt>
<pdfrwt beam="2">  1       21 0.10677415E+00 0.18933281E+03</pdfrwt>
<totfact> 0.73091145E+04</totfact>
</mgrwt>
</event>
<event>
 4    1  0.4199484E+000  0.1892896E+03  0.7546771E-02  0.1159104E+00
         21   -1    0    0  503  502  0.00000000000E+00  0.00000000000E+00  0.58506822547E+03  0.58506822547E+03  0.00000000000E+00 0.  1.
         21   -1    0    0  501  503 -0.00000000000E+00 -0.00000000000E+00 -0.62139256179E+02  0.62139256179E+02  0.00000000000E+00 0.  1.
          6    1    1    2  501    0  0.56601423472E+01  0.76612648820E+02  0.22257099913E+03  0.29217868646E+03  0.17300000000E+03 0.  1.
         -6    1    1    2    0  502 -0.56601423472E+01 -0.76612648820E+02  0.30035797016E+03  0.35502879518E+03  0.17300000000E+03 0.  1.
<mgrwt>
<rscale>  2 0.18928955E+03</rscale>
<asrwt>0</asrwt>
<pdfrwt beam="1">  1       21 0.90010493E-01 0.18928955E+03</pdfrwt>
<pdfrwt beam="2">  1       21 0.95598859E-02 0.18928955E+03</pdfrwt>
<totfact> 0.92398013E+04</totfact>
</mgrwt>
</event>
<event>
 4    1  0.4199484E+000  0.2261541E+03  0.7546771E-02  0.1129376E+00
         21   -1    0    0  501  502  0.00000000000E+00  0.00000000000E+00  0.25828580394E+03  0.25828580394E+03  0.00000000000E+00 0. -1.
         21   -1    0    0  502  503 -0.00000000000E+00 -0.00000000000E+00 -0.20001870012E+03  0.20001870012E+03  0.00000000000E+00 0. -1.
          6    1    1    2  501    0  0.13929023843E+03  0.42601525214E+02  0.52042353088E+02  0.23206479049E+03  0.17300000000E+03 0. -1.
         -6    1    1    2    0  503 -0.13929023843E+03 -0.42601525214E+02  0.62247507323E+01  0.22623971356E+03  0.17300000000E+03 0. -1.
<mgrwt>
<rscale>  2 0.22615406E+03</rscale>
<asrwt>0</asrwt>
<pdfrwt beam="1">  1       21 0.39736277E-01 0.22615406E+03</pdfrwt>
<pdfrwt beam="2">  1       21 0.30772108E-01 0.22615406E+03</pdfrwt>
<totfact> 0.60989648E+04</totfact>
</mgrwt>
</event>
<event>
 4    1  0.4199484E+000  0.2280329E+03  0.7546771E-02  0.1128032E+00
         21   -1    0    0  503  502  0.00000000000E+00  0.00000000000E+00  0.59347967898E+03  0.59347967898E+03  0.00000000000E+00 0.  1.
         21   -1    0    0  501  503 -0.00000000000E+00 -0.00000000000E+00 -0.25916926460E+03  0.25916926460E+03  0.00000000000E+00 0.  1.
          6    1    1    2  501    0  0.99503329949E+01 -0.14822611719E+03 -0.17969868115E+03  0.29032844668E+03  0.17300000000E+03 0.  1.
         -6    1    1    2    0  502 -0.99503329949E+01  0.14822611719E+03  0.51400909553E+03  0.56232049690E+03  0.17300000000E+03 0.  1.
<mgrwt>
<rscale>  2 0.22803287E+03</rscale>
<asrwt>0</asrwt>
<pdfrwt beam="1">  1       21 0.91304566E-01 0.22803287E+03</pdfrwt>
<pdfrwt beam="2">  1       21 0.39872194E-01 0.22803287E+03</pdfrwt>
<totfact> 0.60043356E+03</totfact>
</mgrwt>
</event>
<event>
 4    1  0.4199484E+000  0.1802615E+03  0.7546771E-02  0.1167550E+00
         21   -1    0    0  503  502  0.00000000000E+00  0.00000000000E+00  0.12406300513E+04  0.12406300513E+04  0.00000000000E+00 0. -1.
         21   -1    0    0  501  503 -0.00000000000E+00 -0.00000000000E+00 -0.36784644679E+02  0.36784644679E+02  0.00000000000E+00 0.  1.
          6    1    1    2  501    0 -0.20353865854E+02 -0.46377987206E+02  0.25917291951E+03  0.31569732302E+03  0.17300000000E+03 0.  1.
         -6    1    1    2    0  502  0.20353865854E+02  0.46377987206E+02  0.94467248709E+03  0.96171737294E+03  0.17300000000E+03 0. -1.
<mgrwt>
<rscale>  2 0.18026147E+03</rscale>
<asrwt>0</asrwt>
<pdfrwt beam="1">  1       21 0.19086613E+00 0.18026147E+03</pdfrwt>
<pdfrwt beam="2">  1       21 0.56591771E-02 0.18026147E+03</pdfrwt>
<totfact> 0.33830045E+04</totfact>
</mgrwt>
</event>
<event>
 4    1  0.4199484E+000  0.1925273E+03  0.7546771E-02  0.1156201E+00
         21   -1    0    0  503  502  0.00000000000E+00  0.00000000000E+00  0.17529603618E+03  0.17529603618E+03  0.00000000000E+00 0.  1.
         21   -1    0    0  501  503 -0.00000000000E+00 -0.00000000000E+00 -0.21803582246E+03  0.21803582246E+03  0.00000000000E+00 0.  1.
          6    1    1    2  501    0  0.71555502450E+02  0.44917482184E+02 -0.55543481203E+02  0.20037926150E+03  0.17300000000E+03 0.  1.
         -6    1    1    2    0  502 -0.71555502450E+02 -0.44917482184E+02  0.12803694917E+02  0.19295259713E+03  0.17300000000E+03 0.  1.
<mgrwt>
<rscale>  2 0.19252732E+03</rscale>
<asrwt>0</asrwt>
<pdfrwt beam="1">  1       21 0.26968621E-01 0.19252732E+03</pdfrwt>
<pdfrwt beam="2">  1       21 0.33543973E-01 0.19252732E+03</pdfrwt>
<totfact> 0.11213583E+05</totfact>
</mgrwt>
</event>
<event>
 4    1  0.4199484E+000  0.2385341E+03  0.7546771E-02  0.1120773E+00
         21   -1    0    0  501  502  0.00000000000E+00  0.00000000000E+00  0.24373132487E+03  0.24373132487E+03  0.00000000000E+00 0.  1.
         21   -1    0    0  502  503 -0.00000000000E+00 -0.00000000000E+00 -0.23599586024E+03  0.23599586024E+03  0.00000000000E+00 0.  1.
          6    1    1    2  501    0 -0.30571338451E+02 -0.16135336374E+03  0.28792227839E+02  0.24026549297E+03  0.17300000000E+03 0.  1.
         -6    1    1    2    0  503  0.30571338451E+02  0.16135336374E+03 -0.21056763214E+02  0.23946169214E+03  0.17300000000E+03 0.  1.
<mgrwt>
<rscale>  2 0.23853410E+03</rscale>
<asrwt>0</asrwt>
<pdfrwt beam="1">  1       21 0.37497127E-01 0.23853410E+03</pdfrwt>
<pdfrwt beam="2">  1       21 0.36307055E-01 0.23853410E+03</pdfrwt>
<totfact> 0.49141200E+04</totfact>
</mgrwt>
</event>
<event>
 4    1  0.4199484E+000  0.1739291E+03  0.7546771E-02  0.1173811E+00
         21   -1    0    0  503  502  0.00000000000E+00  0.00000000000E+00  0.63341392145E+03  0.63341392145E+03  0.00000000000E+00 0. -1.
         21   -1    0    0  501  503 -0.00000000000E+00 -0.00000000000E+00 -0.52995347538E+02  0.52995347538E+02  0.00000000000E+00 0. -1.
          6    1    1    2  501    0  0.33164221504E+01  0.17644417603E+02  0.18232917477E+03  0.25198264246E+03  0.17300000000E+03 0. -1.
         -6    1    1    2    0  502 -0.33164221504E+01 -0.17644417603E+02  0.39808939914E+03  0.43442662653E+03  0.17300000000E+03 0. -1.
<mgrwt>
<rscale>  2 0.17392908E+03</rscale>
<asrwt>0</asrwt>
<pdfrwt beam="1">  1       21 0.97448290E-01 0.17392908E+03</pdfrwt>
<pdfrwt beam="2">  1       21 0.81531309E-02 0.17392908E+03</pdfrwt>
<totfact> 0.10209859E+05</totfact>
</mgrwt>
</event>
<event>
 4    1  0.4199484E+000  0.1909961E+03  0.7546771E-02  0.1157566E+00
         21   -1    0    0  503  502  0.00000000000E+00  0.00000000000E+00  0.10390896474E+03  0.10390896474E+03  0.00000000000E+00 0.  1.
         21   -1    0    0  501  503 -0.00000000000E+00 -0.00000000000E+00 -0.37950583685E+03  0.37950583685E+03  0.00000000000E+00 0.  1.
          6    1    1    2  501    0  0.12301307675E+02  0.79994966218E+02 -0.20395901256E+03  0.27942583201E+03  0.17300000000E+03 0.  1.
         -6    1    1    2    0  502 -0.12301307675E+02 -0.79994966218E+02 -0.71637859545E+02  0.20398896958E+03  0.17300000000E+03 0.  1.
<mgrwt>
<rscale>  2 0.19099612E+03</rscale>
<asrwt>0</asrwt>
<pdfrwt beam="1">  1       21 0.15985995E-01 0.19099612E+03</pdfrwt>
<pdfrwt beam="2">  1       21 0.58385513E-01 0.19099612E+03</pdfrwt>
<totfact> 0.96006376E+04</totfact>
</mgrwt>
</event>
<event>
 4    1  0.4199484E+000  0.2006938E+03  0.7546771E-02  0.1149155E+00
         21   -1    0    0  503  502  0.00000000000E+00  0.00000000000E+00  0.34535664527E+02  0.34535664527E+02  0.00000000000E+00 0. -1.
         21   -1    0    0  501  503 -0.00000000000E+00 -0.00000000000E+00 -0.12013310299E+04  0.12013310299E+04  0.00000000000E+00 0. -1.
          6    1    1    2  501    0 -0.21541234911E+02 -0.99423162849E+02 -0.68895981572E+03  0.71759572029E+03  0.17300000000E+03 0. -1.
         -6    1    1    2    0  502  0.21541234911E+02  0.99423162849E+02 -0.47783554965E+03  0.51827097412E+03  0.17300000000E+03 0. -1.
<mgrwt>
<rscale>  2 0.20069377E+03</rscale>
<asrwt>0</asrwt>
<pdfrwt beam="1">  1       21 0.53131802E-02 0.20069377E+03</pdfrwt>
<pdfrwt beam="2">  1       21 0.18482012E+00 0.20069377E+03</pdfrwt>
<totfact> 0.40747809E+04</totfact>
</mgrwt>
</event>
<event>
 4    1  0.4199484E+000  0.1735709E+03  0.7546771E-02  0.1174174E+00
         21   -1    0    0  503  502  0.00000000000E+00  0.00000000000E+00  0.28632758574E+03  0.28632758574E+03  0.00000000000E+00 0.  1.
         21   -1    0    0  501  503 -0.00000000000E+00 -0.00000000000E+00 -0.11800653746E+03  0.11800653746E+03  0.00000000000E+00 0.  1.
          6    1    1    2  501    0 -0.12465739555E+02  0.65155832532E+01  0.17607785277E+02  0.17446169090E+03  0.17300000000E+03 0.  1.
         -6    1    1    2    0  502  0.12465739555E+02 -0.65155832532E+01  0.15071326301E+03  0.22987243231E+03  0.17300000000E+03 0.  1.
<mgrwt>
<rscale>  2 0.17357087E+03</rscale>
<asrwt>0</asrwt>
<pdfrwt beam="1">  1       21 0.44050398E-01 0.17357087E+03</pdfrwt>
<pdfrwt beam="2">  1       21 0.18154852E-01 0.17357087E+03</pdfrwt>
<totfact> 0.13769159E+05</totfact>
</mgrwt>
</event>
<event>
 4    1  0.4199484E+000  0.1882246E+03  0.7546771E-02  0.1160072E+00
         21   -1    0    0  501  502  0.00000000000E+00  0.00000000000E+00  0.26536732231E+03  0.26536732231E+03  0.00000000000E+00 0.  1.
         21   -1    0    0  502  503 -0.00000000000E+00 -0.00000000000E+00 -0.19657523280E+03  0.19657523280E+03  0.00000000000E+00 0.  1.
          6    1    1    2  501    0  0.73182134350E+02  0.11994298414E+02  0.16522314128E+03  0.25045393668E+03  0.17300000000E+03 0. -1.
         -6    1    1    2    0  503 -0.73182134350E+02 -0.11994298414E+02 -0.96431051763E+02  0.21148861843E+03  0.17300000000E+03 0. -1.
<mgrwt>
<rscale>  2 0.18822457E+03</rscale>
<asrwt>0</asrwt>
<pdfrwt beam="1">  1       21 0.40825742E-01 0.18822457E+03</pdfrwt>
<pdfrwt beam="2">  1       21 0.30242344E-01 0.18822457E+03</pdfrwt>
<totfact> 0.60748548E+04</totfact>
</mgrwt>
</event>
<event>
 4    1  0.4199484E+000  0.2004399E+03  0.7546771E-02  0.1149368E+00
         21   -1    0    0  501  502  0.00000000000E+00  0.00000000000E+00  0.75064437493E+02  0.75064437493E+02  0.00000000000E+00 0.  1.
         21   -1    0    0  502  503 -0.00000000000E+00 -0.00000000000E+00 -0.59458234458E+03  0.59458234458E+03  0.00000000000E+00 0. -1.
          6    1    1    2  501    0 -0.72026656302E+02 -0.71128812258E+02 -0.15396579968E+03  0.25274812486E+03  0.17300000000E+03 0.  1.
         -6    1    1    2    0  503  0.72026656302E+02  0.71128812258E+02 -0.36555210741E+03  0.41689865721E+03  0.17300000000E+03 0. -1.
<mgrwt>
<rscale>  2 0.20043988E+03</rscale>
<asrwt>0</asrwt>
<pdfrwt beam="1">  1       21 0.11548375E-01 0.20043988E+03</pdfrwt>
<pdfrwt beam="2">  1       21 0.91474208E-01 0.20043988E+03</pdfrwt>
<totfact> 0.63346000E+04</totfact>
</mgrwt>
</event>
<event>
 4    1  0.4199484E+000  0.2074296E+03  0.7546771E-02  0.1143618E+00
         21   -1    0    0  503  502  0.00000000000E+00  0.00000000000E+00  0.33044100473E+03  0.33044100473E+03  0.00000000000E+00 0.  1.
         21   -1    0    0  501  503 -0.00000000000E+00 -0.00000000000E+00 -0.15308561441E+03  0.15308561441E+03  0.00000000000E+00 0.  1.
          6    1    1    2  501    0  0.39093014845E+02  0.10756294857E+03 -0.47767898465E+01  0.20748462458E+03  0.17300000000E+03 0.  1.
         -6    1    1    2    0  502 -0.39093014845E+02 -0.10756294857E+03  0.18213218016E+03  0.27604199457E+03  0.17300000000E+03 0.  1.
<mgrwt>
<rscale>  2 0.20742963E+03</rscale>
<asrwt>0</asrwt>
<pdfrwt beam="1">  1       21 0.50837077E-01 0.20742963E+03</pdfrwt>
<pdfrwt beam="2">  1       21 0.23551633E-01 0.20742963E+03</pdfrwt>
<totfact> 0.62031982E+04</totfact>
</mgrwt>
</event>
<event>
 4    1  0.4199484E+000  0.2415693E+03  0.7546771E-02  0.1118752E+00
         21   -1    0    0  501  502  0.00000000000E+00  0.00000000000E+00  0.96862078421E+02  0.96862078421E+02  0.00000000000E+00 0.  1.
         21   -1    0    0  502  503 -0.00000000000E+00 -0.00000000000E+00 -0.72840407602E+03  0.72840407602E+03  0.00000000000E+00 0. -1.
          6    1    1    2  501    0 -0.15585324650E+03 -0.64315586198E+02 -0.14419238928E+03  0.28133107578E+03  0.17300000000E+03 0.  1.
         -6    1    1    2    0  503  0.15585324650E+03  0.64315586198E+02 -0.48734960832E+03  0.54393507866E+03  0.17300000000E+03 0.  1.
<mgrwt>
<rscale>  2 0.24156930E+03</rscale>
<asrwt>0</asrwt>
<pdfrwt beam="1">  1       21 0.14901859E-01 0.24156930E+03</pdfrwt>
<pdfrwt beam="2">  1       21 0.11206216E+00 0.24156930E+03</pdfrwt>
<totfact> 0.24112828E+04</totfact>
</mgrwt>
</event>
<event>
 4    1  0.4199484E+000  0.1733782E+03  0.7546771E-02  0.1174370E+00
         21   -1    0    0  503  502  0.00000000000E+00  0.00000000000E+00  0.13098535156E+03  0.13098535156E+03  0.00000000000E+00 0.  1.
         21   -1    0    0  501  503 -0.00000000000E+00 -0.00000000000E+00 -0.42993740895E+03  0.42993740895E+03  0.00000000000E+00 0.  1.
          6    1    1    2  501    0 -0.11144412159E+02 -0.26093871484E+01 -0.34097621322E+03  0.38252422774E+03  0.17300000000E+03 0.  1.
         -6    1    1    2    0  502  0.11144412159E+02  0.26093871484E+01  0.42024155830E+02  0.17839853278E+03  0.17300000000E+03 0.  1.
<mgrwt>
<rscale>  2 0.17337822E+03</rscale>
<asrwt>0</asrwt>
<pdfrwt beam="1">  1       21 0.20151593E-01 0.17337822E+03</pdfrwt>
<pdfrwt beam="2">  1       21 0.66144215E-01 0.17337822E+03</pdfrwt>
<totfact> 0.48205109E+04</totfact>
</mgrwt>
</event>
<event>
 4    1  0.4199484E+000  0.1798852E+03  0.7546771E-02  0.1167914E+00
         21   -1    0    0  501  502  0.00000000000E+00  0.00000000000E+00  0.18955541619E+03  0.18955541619E+03  0.00000000000E+00 0.  1.
         21   -1    0    0  502  503 -0.00000000000E+00 -0.00000000000E+00 -0.17850938286E+03  0.17850938286E+03  0.00000000000E+00 0.  1.
          6    1    1    2  501    0  0.44981771065E+02  0.20157323325E+02  0.43994772595E+02  0.18518697964E+03  0.17300000000E+03 0.  1.
         -6    1    1    2    0  503 -0.44981771065E+02 -0.20157323325E+02 -0.32948739263E+02  0.18287781941E+03  0.17300000000E+03 0.  1.
<mgrwt>
<rscale>  2 0.17988518E+03</rscale>
<asrwt>0</asrwt>
<pdfrwt beam="1">  1       21 0.29162372E-01 0.17988518E+03</pdfrwt>
<pdfrwt beam="2">  1       21 0.27462982E-01 0.17988518E+03</pdfrwt>
<totfact> 0.14300974E+05</totfact>
</mgrwt>
</event>
<event>
 4    1  0.4199484E+000  0.2555333E+03  0.7546771E-02  0.1109857E+00
         21   -1    0    0  503  502  0.00000000000E+00  0.00000000000E+00  0.25093970962E+03  0.25093970962E+03  0.00000000000E+00 0.  1.
         21   -1    0    0  501  503 -0.00000000000E+00 -0.00000000000E+00 -0.41705774274E+03  0.41705774274E+03  0.00000000000E+00 0.  1.
          6    1    1    2  501    0 -0.13270297197E+03  0.13325981913E+03 -0.28788476431E+03  0.38493492396E+03  0.17300000000E+03 0.  1.
         -6    1    1    2    0  502  0.13270297197E+03 -0.13325981913E+03  0.12176673119E+03  0.28306252840E+03  0.17300000000E+03 0.  1.
<mgrwt>
<rscale>  2 0.25553328E+03</rscale>
<asrwt>0</asrwt>
<pdfrwt beam="1">  1       21 0.38606109E-01 0.25553328E+03</pdfrwt>
<pdfrwt beam="2">  1       21 0.64162729E-01 0.25553328E+03</pdfrwt>
<totfact> 0.13985148E+04</totfact>
</mgrwt>
</event>
<event>
 4    1  0.4199484E+000  0.2624902E+03  0.7546771E-02  0.1105656E+00
         21   -1    0    0  503  502  0.00000000000E+00  0.00000000000E+00  0.12069054914E+04  0.12069054914E+04  0.00000000000E+00 0. -1.
         21   -1    0    0  501  503 -0.00000000000E+00 -0.00000000000E+00 -0.12347689912E+03  0.12347689912E+03  0.00000000000E+00 0.  1.
          6    1    1    2  501    0 -0.13441134842E+03  0.14458793739E+03  0.53963542077E+02  0.26797974942E+03  0.17300000000E+03 0.  1.
         -6    1    1    2    0  502  0.13441134842E+03 -0.14458793739E+03  0.10294650502E+04  0.10624026411E+04  0.17300000000E+03 0. -1.
<mgrwt>
<rscale>  2 0.26249016E+03</rscale>
<asrwt>0</asrwt>
<pdfrwt beam="1">  1       21 0.18567776E+00 0.26249016E+03</pdfrwt>
<pdfrwt beam="2">  1       21 0.18996447E-01 0.26249016E+03</pdfrwt>
<totfact> 0.40012079E+03</totfact>
</mgrwt>
</event>
<event>
 4    1  0.4199484E+000  0.2672055E+03  0.7546771E-02  0.1102890E+00
         21   -1    0    0  501  502  0.00000000000E+00  0.00000000000E+00  0.20354872705E+03  0.20354872705E+03  0.00000000000E+00 0.  1.
         21   -1    0    0  502  503 -0.00000000000E+00 -0.00000000000E+00 -0.13050644066E+04  0.13050644066E+04  0.00000000000E+00 0.  1.
          6    1    1    2  501    0  0.85742897552E+02 -0.18471042614E+03  0.94262049337E+02  0.28334452518E+03  0.17300000000E+03 0.  1.
         -6    1    1    2    0  503 -0.85742897552E+02  0.18471042614E+03 -0.11957777289E+04  0.12252686085E+04  0.17300000000E+03 0.  1.
<mgrwt>
<rscale>  2 0.26720551E+03</rscale>
<asrwt>0</asrwt>
<pdfrwt beam="1">  1       21 0.31315190E-01 0.26720551E+03</pdfrwt>
<pdfrwt beam="2">  1       21 0.20077913E+00 0.26720551E+03</pdfrwt>
<totfact> 0.12122248E+03</totfact>
</mgrwt>
</event>
<event>
 4    1  0.4199484E+000  0.2386639E+03  0.7546771E-02  0.1120686E+00
         21   -1    0    0  501  502  0.00000000000E+00  0.00000000000E+00  0.11693047994E+03  0.11693047994E+03  0.00000000000E+00 0. -1.
         21   -1    0    0  502  503 -0.00000000000E+00 -0.00000000000E+00 -0.77442388931E+03  0.77442388931E+03  0.00000000000E+00 0. -1.
          6    1    1    2  501    0 -0.16438652166E+03 -0.29241291484E+01 -0.57294510056E+02  0.24544477977E+03  0.17300000000E+03 0. -1.
         -6    1    1    2    0  503  0.16438652166E+03  0.29241291484E+01 -0.60019889932E+03  0.64590958947E+03  0.17300000000E+03 0. -1.
<mgrwt>
<rscale>  2 0.23866395E+03</rscale>
<asrwt>0</asrwt>
<pdfrwt beam="1">  1       21 0.17989304E-01 0.23866395E+03</pdfrwt>
<pdfrwt beam="2">  1       21 0.11914214E+00 0.23866395E+03</pdfrwt>
<totfact> 0.14679692E+04</totfact>
</mgrwt>
</event>
<event>
 4    1  0.4199484E+000  0.2456234E+03  0.7546771E-02  0.1116102E+00
         21   -1    0    0  503  502  0.00000000000E+00  0.00000000000E+00  0.56903615833E+02  0.56903615833E+02  0.00000000000E+00 0. -1.
         21   -1    0    0  501  503 -0.00000000000E+00 -0.00000000000E+00 -0.11193160775E+04  0.11193160775E+04  0.00000000000E+00 0. -1.
          6    1    1    2  501    0 -0.79076162876E+02 -0.15539895684E+03 -0.66632870377E+03  0.71015830403E+03  0.17300000000E+03 0. -1.
         -6    1    1    2    0  502  0.79076162876E+02  0.15539895684E+03 -0.39608375788E+03  0.46606138928E+03  0.17300000000E+03 0. -1.
<mgrwt>
<rscale>  2 0.24562344E+03</rscale>
<asrwt>0</asrwt>
<pdfrwt beam="1">  1       21 0.87544025E-02 0.24562344E+03</pdfrwt>
<pdfrwt beam="2">  1       21 0.17220247E+00 0.24562344E+03</pdfrwt>
<totfact> 0.20405864E+04</totfact>
</mgrwt>
</event>
<event>
 4    1  0.4199484E+000  0.1852459E+03  0.7546771E-02  0.1162820E+00
         21   -1    0    0  501  502  0.00000000000E+00  0.00000000000E+00  0.12134905734E+03  0.12134905734E+03  0.00000000000E+00 0. -1.
         21   -1    0    0  502  503 -0.00000000000E+00 -0.00000000000E+00 -0.53545993217E+03  0.53545993217E+03  0.00000000000E+00 0. -1.
          6    1    1    2  501    0  0.16750852041E+02  0.64081636467E+02  0.18536812211E+02  0.18617105195E+03  0.17300000000E+03 0. -1.
         -6    1    1    2    0  503 -0.16750852041E+02 -0.64081636467E+02 -0.43264768703E+03  0.47063793756E+03  0.17300000000E+03 0. -1.
<mgrwt>
<rscale>  2 0.18524591E+03</rscale>
<asrwt>0</asrwt>
<pdfrwt beam="1">  1       21 0.18669085E-01 0.18524591E+03</pdfrwt>
<pdfrwt beam="2">  1       21 0.82378454E-01 0.18524591E+03</pdfrwt>
<totfact> 0.33905192E+04</totfact>
</mgrwt>
</event>
<event>
 4    1  0.4199484E+000  0.1801266E+03  0.7546771E-02  0.1167681E+00
         21   -1    0    0  503  502  0.00000000000E+00  0.00000000000E+00  0.23761335581E+02  0.23761335581E+02  0.00000000000E+00 0.  1.
         21   -1    0    0  501  503 -0.00000000000E+00 -0.00000000000E+00 -0.16415750720E+04  0.16415750720E+04  0.00000000000E+00 0.  1.
          6    1    1    2  501    0 -0.45239925297E+01 -0.49961384974E+02 -0.11503918927E+04  0.11644084822E+04  0.17300000000E+03 0.  1.
         -6    1    1    2    0  502  0.45239925297E+01  0.49961384974E+02 -0.46742184370E+03  0.50092792542E+03  0.17300000000E+03 0.  1.
<mgrwt>
<rscale>  2 0.18012664E+03</rscale>
<asrwt>0</asrwt>
<pdfrwt beam="1">  1       21 0.36555892E-02 0.18012664E+03</pdfrwt>
<pdfrwt beam="2">  1       21 0.25255007E+00 0.18012664E+03</pdfrwt>
<totfact> 0.29579203E+04</totfact>
</mgrwt>
</event>
<event>
 4    1  0.4199484E+000  0.1989743E+03  0.7546771E-02  0.1150607E+00
         21   -1    0    0  501  502  0.00000000000E+00  0.00000000000E+00  0.41936063005E+02  0.41936063005E+02  0.00000000000E+00 0. -1.
         21   -1    0    0  502  503 -0.00000000000E+00 -0.00000000000E+00 -0.12034190932E+04  0.12034190932E+04  0.00000000000E+00 0. -1.
          6    1    1    2  501    0  0.14146482974E+02 -0.97271051596E+02 -0.29167810393E+03  0.35308199723E+03  0.17300000000E+03 0. -1.
         -6    1    1    2    0  503 -0.14146482974E+02  0.97271051596E+02 -0.86980492622E+03  0.89227315893E+03  0.17300000000E+03 0. -1.
<mgrwt>
<rscale>  2 0.19897432E+03</rscale>
<asrwt>0</asrwt>
<pdfrwt beam="1">  1       21 0.64517017E-02 0.19897432E+03</pdfrwt>
<pdfrwt beam="2">  1       21 0.18514141E+00 0.19897432E+03</pdfrwt>
<totfact> 0.29119159E+04</totfact>
</mgrwt>
</event>
<event>
 4    1  0.4199484E+000  0.1796298E+03  0.7546771E-02  0.1168162E+00
         21   -1    0    0  503  502  0.00000000000E+00  0.00000000000E+00  0.12554364503E+03  0.12554364503E+03  0.00000000000E+00 0. -1.
         21   -1    0    0  501  503 -0.00000000000E+00 -0.00000000000E+00 -0.39586525467E+03  0.39586525467E+03  0.00000000000E+00 0. -1.
          6    1    1    2  501    0  0.39625808749E+02 -0.27706915087E+02 -0.28955985684E+03  0.34075179905E+03  0.17300000000E+03 0. -1.
         -6    1    1    2    0  502 -0.39625808749E+02  0.27706915087E+02  0.19238247200E+02  0.18065710066E+03  0.17300000000E+03 0. -1.
<mgrwt>
<rscale>  2 0.17962984E+03</rscale>
<asrwt>0</asrwt>
<pdfrwt beam="1">  1       21 0.19314407E-01 0.17962984E+03</pdfrwt>
<pdfrwt beam="2">  1       21 0.60902347E-01 0.17962984E+03</pdfrwt>
<totfact> 0.62177024E+04</totfact>
</mgrwt>
</event>
<event>
 4    1  0.4199484E+000  0.2191426E+03  0.7546771E-02  0.1134524E+00
         21   -1    0    0  503  502  0.00000000000E+00  0.00000000000E+00  0.50924721352E+03  0.50924721352E+03  0.00000000000E+00 0.  1.
         21   -1    0    0  501  503 -0.00000000000E+00 -0.00000000000E+00 -0.21188588184E+03  0.21188588184E+03  0.00000000000E+00 0.  1.
          6    1    1    2  501    0 -0.79223005962E+02 -0.10871153533E+03 -0.11991974941E+03  0.24980838434E+03  0.17300000000E+03 0.  1.
         -6    1    1    2    0  502  0.79223005962E+02  0.10871153533E+03  0.41728108109E+03  0.47132471102E+03  0.17300000000E+03 0.  1.
<mgrwt>
<rscale>  2 0.21914261E+03</rscale>
<asrwt>0</asrwt>
<pdfrwt beam="1">  1       21 0.78345725E-01 0.21914261E+03</pdfrwt>
<pdfrwt beam="2">  1       21 0.32597828E-01 0.21914261E+03</pdfrwt>
<totfact> 0.12836869E+04</totfact>
</mgrwt>
</event>
<event>
 4    1  0.4199484E+000  0.1981733E+03  0.7546771E-02  0.1151289E+00
         21   -1    0    0  503  502  0.00000000000E+00  0.00000000000E+00  0.29478492516E+03  0.29478492516E+03  0.00000000000E+00 0. -1.
         21   -1    0    0  501  503 -0.00000000000E+00 -0.00000000000E+00 -0.14051813831E+03  0.14051813831E+03  0.00000000000E+00 0.  1.
          6    1    1    2  501    0 -0.19077493109E+02  0.94761292928E+02  0.12671945951E+03  0.23522430742E+03  0.17300000000E+03 0. -1.
         -6    1    1    2    0  502  0.19077493109E+02 -0.94761292928E+02  0.27547327339E+02  0.20007875605E+03  0.17300000000E+03 0.  1.
<mgrwt>
<rscale>  2 0.19817329E+03</rscale>
<asrwt>0</asrwt>
<pdfrwt beam="1">  1       21 0.45351527E-01 0.19817329E+03</pdfrwt>
<pdfrwt beam="2">  1       21 0.21618175E-01 0.19817329E+03</pdfrwt>
<totfact> 0.92826849E+04</totfact>
</mgrwt>
</event>
<event>
 4    1  0.4199484E+000  0.2374567E+03  0.7546771E-02  0.1121499E+00
         21   -1    0    0  501  502  0.00000000000E+00  0.00000000000E+00  0.89969061379E+02  0.89969061379E+02  0.00000000000E+00 0.  1.
         21   -1    0    0  502  503 -0.00000000000E+00 -0.00000000000E+00 -0.69509050978E+03  0.69509050978E+03  0.00000000000E+00 0.  1.
          6    1    1    2  501    0  0.32709042670E+01 -0.16262217785E+03 -0.17945531993E+03  0.29764052714E+03  0.17300000000E+03 0.  1.
         -6    1    1    2    0  503 -0.32709042670E+01  0.16262217785E+03 -0.42566612848E+03  0.48741904402E+03  0.17300000000E+03 0.  1.
<mgrwt>
<rscale>  2 0.23745667E+03</rscale>
<asrwt>0</asrwt>
<pdfrwt beam="1">  1       21 0.13841394E-01 0.23745667E+03</pdfrwt>
<pdfrwt beam="2">  1       21 0.10693700E+00 0.23745667E+03</pdfrwt>
<totfact> 0.30981168E+04</totfact>
</mgrwt>
</event>
<event>
 4    1  0.4199484E+000  0.1985680E+03  0.7546771E-02  0.1150953E+00
         21   -1    0    0  503  502  0.00000000000E+00  0.00000000000E+00  0.10598202676E+03  0.10598202676E+03  0.00000000000E+00 0. -1.
         21   -1    0    0  501  503 -0.00000000000E+00 -0.00000000000E+00 -0.39979108401E+03  0.39979108401E+03  0.00000000000E+00 0. -1.
          6    1    1    2  501    0  0.88289463119E+02  0.41294108409E+02 -0.80274065781E+02  0.21418020059E+03  0.17300000000E+03 0.  1.
         -6    1    1    2    0  502 -0.88289463119E+02 -0.41294108409E+02 -0.21353499146E+03  0.29159291018E+03  0.17300000000E+03 0.  1.
<mgrwt>
<rscale>  2 0.19856795E+03</rscale>
<asrwt>0</asrwt>
<pdfrwt beam="1">  1       21 0.16304927E-01 0.19856795E+03</pdfrwt>
<pdfrwt beam="2">  1       21 0.61506320E-01 0.19856795E+03</pdfrwt>
<totfact> 0.82534217E+04</totfact>
</mgrwt>
</event>
<event>
 4    1  0.4199484E+000  0.2005244E+03  0.7546771E-02  0.1149297E+00
         21   -1    0    0  501  502  0.00000000000E+00  0.00000000000E+00  0.57743303281E+02  0.57743303281E+02  0.00000000000E+00 0. -1.
         21   -1    0    0  502  503 -0.00000000000E+00 -0.00000000000E+00 -0.92742013462E+03  0.92742013462E+03  0.00000000000E+00 0.  1.
          6    1    1    2  501    0 -0.68107629503E+02  0.75115738693E+02 -0.18896916273E+03  0.27553469447E+03  0.17300000000E+03 0. -1.
         -6    1    1    2    0  503  0.68107629503E+02 -0.75115738693E+02 -0.68070766861E+03  0.70962874343E+03  0.17300000000E+03 0.  1.
<mgrwt>
<rscale>  2 0.20052437E+03</rscale>
<asrwt>0</asrwt>
<pdfrwt beam="1">  1       21 0.88835846E-02 0.20052437E+03</pdfrwt>
<pdfrwt beam="2">  1       21 0.14268003E+00 0.20052437E+03</pdfrwt>
<totfact> 0.33884828E+04</totfact>
</mgrwt>
</event>
<event>
 4    1  0.4199484E+000  0.2021910E+03  0.7546771E-02  0.1147904E+00
         21   -1    0    0  501  502  0.00000000000E+00  0.00000000000E+00  0.30321557104E+02  0.30321557104E+02  0.00000000000E+00 0. -1.
         21   -1    0    0  502  503 -0.00000000000E+00 -0.00000000000E+00 -0.16545576361E+04  0.16545576361E+04  0.00000000000E+00 0. -1.
          6    1    1    2  501    0 -0.68335259627E+02 -0.79262117294E+02 -0.44964710355E+03  0.49301491730E+03  0.17300000000E+03 0. -1.
         -6    1    1    2    0  503  0.68335259627E+02  0.79262117294E+02 -0.11745889754E+04  0.11918642759E+04  0.17300000000E+03 0. -1.
<mgrwt>
<rscale>  2 0.20219098E+03</rscale>
<asrwt>0</asrwt>
<pdfrwt beam="1">  1       21 0.46648563E-02 0.20219098E+03</pdfrwt>
<pdfrwt beam="2">  1       21 0.25454726E+00 0.20219098E+03</pdfrwt>
<totfact> 0.18757252E+04</totfact>
</mgrwt>
</event>
<event>
 4    1  0.4199484E+000  0.2689981E+03  0.7546771E-02  0.1101854E+00
         21   -1    0    0  501  502  0.00000000000E+00  0.00000000000E+00  0.47880253617E+03  0.47880253617E+03  0.00000000000E+00 0.  1.
         21   -1    0    0  502  503 -0.00000000000E+00 -0.00000000000E+00 -0.20565487664E+03  0.20565487664E+03  0.00000000000E+00 0. -1.
          6    1    1    2  501    0 -0.84237272014E+01 -0.20581545411E+03  0.31279434910E+03  0.41255334826E+03  0.17300000000E+03 0.  1.
         -6    1    1    2    0  503  0.84237272014E+01  0.20581545411E+03 -0.39646689568E+02  0.27190406456E+03  0.17300000000E+03 0. -1.
<mgrwt>
<rscale>  2 0.26899807E+03</rscale>
<asrwt>0</asrwt>
<pdfrwt beam="1">  1       21 0.73661928E-01 0.26899807E+03</pdfrwt>
<pdfrwt beam="2">  1       21 0.31639212E-01 0.26899807E+03</pdfrwt>
<totfact> 0.15232481E+04</totfact>
</mgrwt>
</event>
<event>
 4    1  0.4199484E+000  0.2321590E+03  0.7546771E-02  0.1125129E+00
         21   -1    0    0  501  502  0.00000000000E+00  0.00000000000E+00  0.63633575455E+03  0.63633575455E+03  0.00000000000E+00 0.  1.
         21   -1    0    0  502  503 -0.00000000000E+00 -0.00000000000E+00 -0.18178573947E+03  0.18178573947E+03  0.00000000000E+00 0. -1.
          6    1    1    2  501    0 -0.43917345843E+02 -0.14845890674E+03  0.52621576071E+03  0.57515285540E+03  0.17300000000E+03 0.  1.
         -6    1    1    2    0  503  0.43917345843E+02  0.14845890674E+03 -0.71665745634E+02  0.24296863862E+03  0.17300000000E+03 0. -1.
<mgrwt>
<rscale>  2 0.23215895E+03</rscale>
<asrwt>0</asrwt>
<pdfrwt beam="1">  1       21 0.97897807E-01 0.23215895E+03</pdfrwt>
<pdfrwt beam="2">  1       21 0.27967037E-01 0.23215895E+03</pdfrwt>
<totfact> 0.10269401E+04</totfact>
</mgrwt>
</event>
<event>
 4    1  0.4199484E+000  0.1861820E+03  0.7546771E-02  0.1161951E+00
         21   -1    0    0  501  502  0.00000000000E+00  0.00000000000E+00  0.10165046962E+03  0.10165046962E+03  0.00000000000E+00 0. -1.
         21   -1    0    0  502  503 -0.00000000000E+00 -0.00000000000E+00 -0.38344728489E+03  0.38344728489E+03  0.00000000000E+00 0. -1.
          6    1    1    2  501    0 -0.48842342454E+02 -0.48468006375E+02 -0.60207333847E+02  0.19567484536E+03  0.17300000000E+03 0. -1.
         -6    1    1    2    0  503  0.48842342454E+02  0.48468006375E+02 -0.22158948142E+03  0.28942290914E+03  0.17300000000E+03 0. -1.
<mgrwt>
<rscale>  2 0.18618196E+03</rscale>
<asrwt>0</asrwt>
<pdfrwt beam="1">  1       21 0.15638534E-01 0.18618196E+03</pdfrwt>
<pdfrwt beam="2">  1       21 0.58991890E-01 0.18618196E+03</pdfrwt>
<totfact> 0.97934504E+04</totfact>
</mgrwt>
</event>
<event>
 4    1  0.4199484E+000  0.2311522E+03  0.7546771E-02  0.1125831E+00
         21   -1    0    0  501  502  0.00000000000E+00  0.00000000000E+00  0.14347042907E+03  0.14347042907E+03  0.00000000000E+00 0.  1.
         21   -1    0    0  502  503 -0.00000000000E+00 -0.00000000000E+00 -0.49764470974E+03  0.49764470974E+03  0.00000000000E+00 0.  1.
          6    1    1    2  501    0 -0.11644849112E+03  0.99710103952E+02 -0.16285614918E+02  0.23172521910E+03  0.17300000000E+03 0.  1.
         -6    1    1    2    0  503  0.11644849112E+03 -0.99710103952E+02 -0.33788866575E+03  0.40938991970E+03  0.17300000000E+03 0.  1.
<mgrwt>
<rscale>  2 0.23115224E+03</rscale>
<asrwt>0</asrwt>
<pdfrwt beam="1">  1       21 0.22072374E-01 0.23115224E+03</pdfrwt>
<pdfrwt beam="2">  1       21 0.76560725E-01 0.23115224E+03</pdfrwt>
<totfact> 0.28533501E+04</totfact>
</mgrwt>
</event>
<event>
 4    1  0.4199484E+000  0.1794727E+03  0.7546771E-02  0.1168314E+00
         21   -1    0    0  501  502  0.00000000000E+00  0.00000000000E+00  0.71462114761E+02  0.71462114761E+02  0.00000000000E+00 0.  1.
         21   -1    0    0  502  503 -0.00000000000E+00 -0.00000000000E+00 -0.10573576315E+04  0.10573576315E+04  0.00000000000E+00 0. -1.
          6    1    1    2  501    0 -0.19617826464E+02  0.43550029632E+02 -0.65440970209E+02  0.19103137119E+03  0.17300000000E+03 0.  1.
         -6    1    1    2    0  503  0.19617826464E+02 -0.43550029632E+02 -0.92045454654E+03  0.93778837509E+03  0.17300000000E+03 0. -1.
<mgrwt>
<rscale>  2 0.17947274E+03</rscale>
<asrwt>0</asrwt>
<pdfrwt beam="1">  1       21 0.10994171E-01 0.17947274E+03</pdfrwt>
<pdfrwt beam="2">  1       21 0.16267041E+00 0.17947274E+03</pdfrwt>
<totfact> 0.16667978E+04</totfact>
</mgrwt>
</event>
<event>
 4    1  0.4199484E+000  0.1777711E+03  0.7546771E-02  0.1169978E+00
         21   -1    0    0  503  502  0.00000000000E+00  0.00000000000E+00  0.16341818255E+03  0.16341818255E+03  0.00000000000E+00 0.  1.
         21   -1    0    0  501  503 -0.00000000000E+00 -0.00000000000E+00 -0.22309859598E+03  0.22309859598E+03  0.00000000000E+00 0.  1.
          6    1    1    2  501    0  0.40902414989E+02 -0.75309595735E+00 -0.10036954405E+03  0.20414852456E+03  0.17300000000E+03 0. -1.
         -6    1    1    2    0  502 -0.40902414989E+02  0.75309595735E+00  0.40689130625E+02  0.18236825397E+03  0.17300000000E+03 0. -1.
<mgrwt>
<rscale>  2 0.17777113E+03</rscale>
<asrwt>0</asrwt>
<pdfrwt beam="1">  1       21 0.25141259E-01 0.17777113E+03</pdfrwt>
<pdfrwt beam="2">  1       21 0.34322860E-01 0.17777113E+03</pdfrwt>
<totfact> 0.12321456E+05</totfact>
</mgrwt>
</event>
<event>
 4    1  0.4199484E+000  0.2019798E+03  0.7546771E-02  0.1148079E+00
         21   -1    0    0  501  502  0.00000000000E+00  0.00000000000E+00  0.33579266312E+03  0.33579266312E+03  0.00000000000E+00 0. -1.
         21   -1    0    0  502  503 -0.00000000000E+00 -0.00000000000E+00 -0.52915492122E+03  0.52915492122E+03  0.00000000000E+00 0. -1.
          6    1    1    2  501    0 -0.51634253337E+02 -0.90557921936E+02  0.28291295823E+03  0.34761411835E+03  0.17300000000E+03 0. -1.
         -6    1    1    2    0  503  0.51634253337E+02  0.90557921936E+02 -0.47627521633E+03  0.51733346599E+03  0.17300000000E+03 0. -1.
<mgrwt>
<rscale>  2 0.20197978E+03</rscale>
<asrwt>0</asrwt>
<pdfrwt beam="1">  1       21 0.51660410E-01 0.20197978E+03</pdfrwt>
<pdfrwt beam="2">  1       21 0.81408449E-01 0.20197978E+03</pdfrwt>
<totfact> 0.46705848E+03</totfact>
</mgrwt>
</event>
<event>
 4    1  0.4199484E+000  0.2064763E+03  0.7546771E-02  0.1144387E+00
         21   -1    0    0  503  502  0.00000000000E+00  0.00000000000E+00  0.15744204994E+04  0.15744204994E+04  0.00000000000E+00 0. -1.
         21   -1    0    0  501  503 -0.00000000000E+00 -0.00000000000E+00 -0.27334804012E+02  0.27334804012E+02  0.00000000000E+00 0. -1.
          6    1    1    2  501    0  0.10225364030E+03  0.47409316296E+02  0.85114115427E+03  0.87582744575E+03  0.17300000000E+03 0. -1.
         -6    1    1    2    0  502 -0.10225364030E+03 -0.47409316296E+02  0.69594454111E+03  0.72592785766E+03  0.17300000000E+03 0. -1.
<mgrwt>
<rscale>  2 0.20647627E+03</rscale>
<asrwt>0</asrwt>
<pdfrwt beam="1">  1       21 0.24221847E+00 0.20647627E+03</pdfrwt>
<pdfrwt beam="2">  1       21 0.42053557E-02 0.20647627E+03</pdfrwt>
<totfact> 0.26331898E+04</totfact>
</mgrwt>
</event>
<event>
 4    1  0.4199484E+000  0.1946464E+03  0.7546771E-02  0.1154336E+00
         21   -1    0    0  503  502  0.00000000000E+00  0.00000000000E+00  0.48028895778E+03  0.48028895778E+03  0.00000000000E+00 0.  1.
         21   -1    0    0  501  503 -0.00000000000E+00 -0.00000000000E+00 -0.46611883247E+03  0.46611883247E+03  0.00000000000E+00 0.  1.
          6    1    1    2  501    0  0.57312172909E+02  0.68363222998E+02 -0.42422250231E+03  0.46674612681E+03  0.17300000000E+03 0.  1.
         -6    1    1    2    0  502 -0.57312172909E+02 -0.68363222998E+02  0.43839262763E+03  0.47966166345E+03  0.17300000000E+03 0.  1.
<mgrwt>
<rscale>  2 0.19464639E+03</rscale>
<asrwt>0</asrwt>
<pdfrwt beam="1">  1       21 0.73890609E-01 0.19464639E+03</pdfrwt>
<pdfrwt beam="2">  1       21 0.71710590E-01 0.19464639E+03</pdfrwt>
<totfact> 0.28824952E+03</totfact>
</mgrwt>
</event>
<event>
 4    1  0.4199484E+000  0.2023860E+03  0.7546771E-02  0.1147741E+00
         21   -1    0    0  501  502  0.00000000000E+00  0.00000000000E+00  0.20213453301E+03  0.20213453301E+03  0.00000000000E+00 0. -1.
         21   -1    0    0  502  503 -0.00000000000E+00 -0.00000000000E+00 -0.20955865110E+03  0.20955865110E+03  0.00000000000E+00 0. -1.
          6    1    1    2  501    0 -0.73888406583E+02  0.74643028511E+02  0.33696721016E+02  0.20517199453E+03  0.17300000000E+03 0. -1.
         -6    1    1    2    0  503  0.73888406583E+02 -0.74643028511E+02 -0.41120839106E+02  0.20652118957E+03  0.17300000000E+03 0. -1.
<mgrwt>
<rscale>  2 0.20238596E+03</rscale>
<asrwt>0</asrwt>
<pdfrwt beam="1">  1       21 0.31097620E-01 0.20238596E+03</pdfrwt>
<pdfrwt beam="2">  1       21 0.32239793E-01 0.20238596E+03</pdfrwt>
<totfact> 0.91575273E+04</totfact>
</mgrwt>
</event>
<event>
 4    1  0.4199484E+000  0.1921928E+03  0.7546771E-02  0.1156498E+00
         21   -1    0    0  503  502  0.00000000000E+00  0.00000000000E+00  0.79706460922E+03  0.79706460922E+03  0.00000000000E+00 0. -1.
         21   -1    0    0  501  503 -0.00000000000E+00 -0.00000000000E+00 -0.46905484634E+02  0.46905484634E+02  0.00000000000E+00 0.  1.
          6    1    1    2  501    0 -0.77314156726E+02 -0.32118133950E+02  0.32885300435E+03  0.38089677319E+03  0.17300000000E+03 0.  1.
         -6    1    1    2    0  502  0.77314156726E+02  0.32118133950E+02  0.42130612023E+03  0.46307332066E+03  0.17300000000E+03 0.  1.
<mgrwt>
<rscale>  2 0.19219275E+03</rscale>
<asrwt>0</asrwt>
<pdfrwt beam="1">  1       21 0.12262531E+00 0.19219275E+03</pdfrwt>
<pdfrwt beam="2">  1       21 0.72162290E-02 0.19219275E+03</pdfrwt>
<totfact> 0.71839059E+04</totfact>
</mgrwt>
</event>
<event>
 4    1  0.4199484E+000  0.2095444E+03  0.7546771E-02  0.1141927E+00
         21   -1    0    0  501  502  0.00000000000E+00  0.00000000000E+00  0.17938724172E+03  0.17938724172E+03  0.00000000000E+00 0.  1.
         21   -1    0    0  502  503 -0.00000000000E+00 -0.00000000000E+00 -0.25869600505E+03  0.25869600505E+03  0.00000000000E+00 0. -1.
          6    1    1    2  501    0 -0.11640004906E+03 -0.20757485493E+02 -0.90473264713E+02  0.22824166196E+03  0.17300000000E+03 0.  1.
         -6    1    1    2    0  503  0.11640004906E+03  0.20757485493E+02  0.11164501384E+02  0.20984158481E+03  0.17300000000E+03 0.  1.
<mgrwt>
<rscale>  2 0.20954437E+03</rscale>
<asrwt>0</asrwt>
<pdfrwt beam="1">  1       21 0.27598037E-01 0.20954437E+03</pdfrwt>
<pdfrwt beam="2">  1       21 0.39799385E-01 0.20954437E+03</pdfrwt>
<totfact> 0.75681844E+04</totfact>
</mgrwt>
</event>
<event>
 4    1  0.4199484E+000  0.1745709E+03  0.7546771E-02  0.1173163E+00
         21   -1    0    0  501  502  0.00000000000E+00  0.00000000000E+00  0.11852062428E+03  0.11852062428E+03  0.00000000000E+00 0. -1.
         21   -1    0    0  502  503 -0.00000000000E+00 -0.00000000000E+00 -0.26089677810E+03  0.26089677810E+03  0.00000000000E+00 0. -1.
          6    1    1    2  501    0  0.20764490102E+02  0.10715811107E+02 -0.48387665346E+02  0.18115286035E+03  0.17300000000E+03 0.  1.
         -6    1    1    2    0  503 -0.20764490102E+02 -0.10715811107E+02 -0.93988488478E+02  0.19826454202E+03  0.17300000000E+03 0.  1.
<mgrwt>
<rscale>  2 0.17457088E+03</rscale>
<asrwt>0</asrwt>
<pdfrwt beam="1">  1       21 0.18233942E-01 0.17457088E+03</pdfrwt>
<pdfrwt beam="2">  1       21 0.40137966E-01 0.17457088E+03</pdfrwt>
<totfact> 0.16490767E+05</totfact>
</mgrwt>
</event>
<event>
 4    1  0.4199484E+000  0.1744926E+03  0.7546771E-02  0.1173242E+00
         21   -1    0    0  503  502  0.00000000000E+00  0.00000000000E+00  0.78971811504E+02  0.78971811504E+02  0.00000000000E+00 0.  1.
         21   -1    0    0  501  503 -0.00000000000E+00 -0.00000000000E+00 -0.67450631267E+03  0.67450631267E+03  0.00000000000E+00 0.  1.
          6    1    1    2  501    0  0.10353098941E+02 -0.20285210376E+02 -0.54435008314E+03  0.57163335228E+03  0.17300000000E+03 0.  1.
         -6    1    1    2    0  502 -0.10353098941E+02  0.20285210376E+02 -0.51184418022E+02  0.18184477190E+03  0.17300000000E+03 0.  1.
<mgrwt>
<rscale>  2 0.17449263E+03</rscale>
<asrwt>0</asrwt>
<pdfrwt beam="1">  1       21 0.12149510E-01 0.17449263E+03</pdfrwt>
<pdfrwt beam="2">  1       21 0.10377020E+00 0.17449263E+03</pdfrwt>
<totfact> 0.43550710E+04</totfact>
</mgrwt>
</event>
<event>
 4    1  0.4199484E+000  0.2532537E+03  0.7546771E-02  0.1111266E+00
         21   -1    0    0  501  502  0.00000000000E+00  0.00000000000E+00  0.22378348923E+03  0.22378348923E+03  0.00000000000E+00 0.  1.
         21   -1    0    0  502  503 -0.00000000000E+00 -0.00000000000E+00 -0.43066237255E+03  0.43066237255E+03  0.00000000000E+00 0. -1.
          6    1    1    2  501    0  0.16124302109E+03 -0.90604264313E+02  0.85813727739E+02  0.26739753258E+03  0.17300000000E+03 0.  1.
         -6    1    1    2    0  503 -0.16124302109E+03  0.90604264313E+02 -0.29269261106E+03  0.38704832920E+03  0.17300000000E+03 0. -1.
<mgrwt>
<rscale>  2 0.25325372E+03</rscale>
<asrwt>0</asrwt>
<pdfrwt beam="1">  1       21 0.34428229E-01 0.25325372E+03</pdfrwt>
<pdfrwt beam="2">  1       21 0.66255749E-01 0.25325372E+03</pdfrwt>
<totfact> 0.16424385E+04</totfact>
</mgrwt>
</event>
<event>
 4    1  0.4199484E+000  0.2444922E+03  0.7546771E-02  0.1116836E+00
         21   -1    0    0  501  502  0.00000000000E+00  0.00000000000E+00  0.70637074286E+03  0.70637074286E+03  0.00000000000E+00 0.  1.
         21   -1    0    0  502  503 -0.00000000000E+00 -0.00000000000E+00 -0.84679443619E+02  0.84679443619E+02  0.00000000000E+00 0. -1.
          6    1    1    2  501    0 -0.11883430554E+03  0.12540266663E+03  0.30079017540E+03  0.38762243303E+03  0.17300000000E+03 0.  1.
         -6    1    1    2    0  503  0.11883430554E+03 -0.12540266663E+03  0.32090112385E+03  0.40342775346E+03  0.17300000000E+03 0.  1.
<mgrwt>
<rscale>  2 0.24449217E+03</rscale>
<asrwt>0</asrwt>
<pdfrwt beam="1">  1       21 0.10867242E+00 0.24449217E+03</pdfrwt>
<pdfrwt beam="2">  1       21 0.13027607E-01 0.24449217E+03</pdfrwt>
<totfact> 0.33144984E+04</totfact>
</mgrwt>
</event>
<event>
 4    1  0.4199484E+000  0.1910500E+03  0.7546771E-02  0.1157518E+00
         21   -1    0    0  503  502  0.00000000000E+00  0.00000000000E+00  0.63528723153E+03  0.63528723153E+03  0.00000000000E+00 0. -1.
         21   -1    0    0  501  503 -0.00000000000E+00 -0.00000000000E+00 -0.61043947749E+02  0.61043947749E+02  0.00000000000E+00 0.  1.
          6    1    1    2  501    0 -0.56476441290E+02 -0.58150703014E+02  0.20269489987E+03  0.27854140647E+03  0.17300000000E+03 0. -1.
         -6    1    1    2    0  502  0.56476441290E+02  0.58150703014E+02  0.37154838391E+03  0.41778977281E+03  0.17300000000E+03 0. -1.
<mgrwt>
<rscale>  2 0.19104997E+03</rscale>
<asrwt>0</asrwt>
<pdfrwt beam="1">  1       21 0.97736493E-01 0.19104997E+03</pdfrwt>
<pdfrwt beam="2">  1       21 0.93913770E-02 0.19104997E+03</pdfrwt>
<totfact> 0.78608286E+04</totfact>
</mgrwt>
</event>
<event>
 4    1  0.4199484E+000  0.2233496E+03  0.7546771E-02  0.1131410E+00
         21   -1    0    0  501  502  0.00000000000E+00  0.00000000000E+00  0.16553476533E+04  0.16553476533E+04  0.00000000000E+00 0. -1.
         21   -1    0    0  502  503 -0.00000000000E+00 -0.00000000000E+00 -0.31844986721E+02  0.31844986721E+02  0.00000000000E+00 0. -1.
          6    1    1    2  501    0 -0.75821006993E+02  0.11919407096E+03  0.10071952970E+04  0.10316624535E+04  0.17300000000E+03 0. -1.
         -6    1    1    2    0  503  0.75821006993E+02 -0.11919407096E+03  0.61630736963E+03  0.65553018658E+03  0.17300000000E+03 0. -1.
<mgrwt>
<rscale>  2 0.22334962E+03</rscale>
<asrwt>0</asrwt>
<pdfrwt beam="1">  1       21 0.25466880E+00 0.22334962E+03</pdfrwt>
<pdfrwt beam="2">  1       21 0.48992300E-02 0.22334962E+03</pdfrwt>
<totfact> 0.16929357E+04</totfact>
</mgrwt>
</event>
<event>
 4    1  0.4199484E+000  0.1901611E+03  0.7546771E-02  0.1158316E+00
         21   -1    0    0  501  502  0.00000000000E+00  0.00000000000E+00  0.71976348237E+02  0.71976348237E+02  0.00000000000E+00 0. -1.
         21   -1    0    0  502  503 -0.00000000000E+00 -0.00000000000E+00 -0.53974443942E+03  0.53974443942E+03  0.00000000000E+00 0. -1.
          6    1    1    2  501    0  0.51777564082E+02  0.59593128039E+02 -0.15343615100E+03  0.24434383456E+03  0.17300000000E+03 0. -1.
         -6    1    1    2    0  503 -0.51777564082E+02 -0.59593128039E+02 -0.31433194018E+03  0.36737695310E+03  0.17300000000E+03 0. -1.
<mgrwt>
<rscale>  2 0.19016113E+03</rscale>
<asrwt>0</asrwt>
<pdfrwt beam="1">  1       21 0.11073284E-01 0.19016113E+03</pdfrwt>
<pdfrwt beam="2">  1       21 0.83037606E-01 0.19016113E+03</pdfrwt>
<totfact> 0.85690656E+04</totfact>
</mgrwt>
</event>
<event>
 4    1  0.4199484E+000  0.2007637E+03  0.7546771E-02  0.1149096E+00
         21   -1    0    0  501  502  0.00000000000E+00  0.00000000000E+00  0.13617119204E+03  0.13617119204E+03  0.00000000000E+00 0.  1.
         21   -1    0    0  502  503 -0.00000000000E+00 -0.00000000000E+00 -0.30345941201E+03  0.30345941201E+03  0.00000000000E+00 0.  1.
          6    1    1    2  501    0 -0.10033955160E+03  0.17579531409E+02 -0.49170266701E+02  0.20669731655E+03  0.17300000000E+03 0.  1.
         -6    1    1    2    0  503  0.10033955160E+03 -0.17579531409E+02 -0.11811795327E+03  0.23293328750E+03  0.17300000000E+03 0.  1.
<mgrwt>
<rscale>  2 0.20076371E+03</rscale>
<asrwt>0</asrwt>
<pdfrwt beam="1">  1       21 0.20949415E-01 0.20076371E+03</pdfrwt>
<pdfrwt beam="2">  1       21 0.46686062E-01 0.20076371E+03</pdfrwt>
<totfact> 0.92660413E+04</totfact>
</mgrwt>
</event>
<event>
 4    1  0.4199484E+000  0.2485440E+03  0.7546771E-02  0.1114228E+00
         21   -1    0    0  501  502  0.00000000000E+00  0.00000000000E+00  0.41818864553E+03  0.41818864553E+03  0.00000000000E+00 0.  1.
         21   -1    0    0  502  503 -0.00000000000E+00 -0.00000000000E+00 -0.32450598301E+03  0.32450598301E+03  0.00000000000E+00 0.  1.
          6    1    1    2  501    0  0.98755403998E+02 -0.14863540568E+03  0.32093243604E+03  0.40592085699E+03  0.17300000000E+03 0.  1.
         -6    1    1    2    0  503 -0.98755403998E+02  0.14863540568E+03 -0.22724977352E+03  0.33677377155E+03  0.17300000000E+03 0.  1.
<mgrwt>
<rscale>  2 0.24854399E+03</rscale>
<asrwt>0</asrwt>
<pdfrwt beam="1">  1       21 0.64336715E-01 0.24854399E+03</pdfrwt>
<pdfrwt beam="2">  1       21 0.49923997E-01 0.24854399E+03</pdfrwt>
<totfact> 0.82162840E+03</totfact>
</mgrwt>
</event>
<event>
 4    1  0.4199484E+000  0.2732284E+03  0.7546771E-02  0.1099446E+00
         21   -1    0    0  501  502  0.00000000000E+00  0.00000000000E+00  0.13051423987E+03  0.13051423987E+03  0.00000000000E+00 0.  1.
         21   -1    0    0  502  503 -0.00000000000E+00 -0.00000000000E+00 -0.94154522586E+03  0.94154522586E+03  0.00000000000E+00 0. -1.
          6    1    1    2  501    0  0.20255483443E+03  0.60797322726E+02 -0.69697663541E+02  0.28197790641E+03  0.17300000000E+03 0.  1.
         -6    1    1    2    0  503 -0.20255483443E+03 -0.60797322726E+02 -0.74133332245E+03  0.79008155932E+03  0.17300000000E+03 0. -1.
<mgrwt>
<rscale>  2 0.27322843E+03</rscale>
<asrwt>0</asrwt>
<pdfrwt beam="1">  1       21 0.20079114E-01 0.27322843E+03</pdfrwt>
<pdfrwt beam="2">  1       21 0.14485311E+00 0.27322843E+03</pdfrwt>
<totfact> 0.71049442E+03</totfact>
</mgrwt>
</event>
<event>
 4    1  0.4199484E+000  0.2312153E+03  0.7546771E-02  0.1125787E+00
         21   -1    0    0  501  502  0.00000000000E+00  0.00000000000E+00  0.10433139296E+04  0.10433139296E+04  0.00000000000E+00 0. -1.
         21   -1    0    0  502  503 -0.00000000000E+00 -0.00000000000E+00 -0.12130450159E+03  0.12130450159E+03  0.00000000000E+00 0. -1.
          6    1    1    2  501    0 -0.15275915412E+03 -0.14005211436E+02  0.90355329965E+03  0.93266771705E+03  0.17300000000E+03 0. -1.
         -6    1    1    2    0  503  0.15275915412E+03  0.14005211436E+02  0.18456128358E+02  0.23195071414E+03  0.17300000000E+03 0. -1.
<mgrwt>
<rscale>  2 0.23121528E+03</rscale>
<asrwt>0</asrwt>
<pdfrwt beam="1">  1       21 0.16050983E+00 0.23121528E+03</pdfrwt>
<pdfrwt beam="2">  1       21 0.18662232E-01 0.23121528E+03</pdfrwt>
<totfact> 0.63587665E+03</totfact>
</mgrwt>
</event>
<event>
 4    1  0.4199484E+000  0.2769701E+03  0.7546771E-02  0.1097355E+00
         21   -1    0    0  501  502  0.00000000000E+00  0.00000000000E+00  0.20425829419E+03  0.20425829419E+03  0.00000000000E+00 0. -1.
         21   -1    0    0  502  503 -0.00000000000E+00 -0.00000000000E+00 -0.39328417253E+03  0.39328417253E+03  0.00000000000E+00 0. -1.
          6    1    1    2  501    0  0.12142492066E+03 -0.17899555800E+03 -0.31097066805E+02  0.27871033118E+03  0.17300000000E+03 0. -1.
         -6    1    1    2    0  503 -0.12142492066E+03  0.17899555800E+03 -0.15792881154E+03  0.31883213554E+03  0.17300000000E+03 0. -1.
<mgrwt>
<rscale>  2 0.27697007E+03</rscale>
<asrwt>0</asrwt>
<pdfrwt beam="1">  1       21 0.31424353E-01 0.27697007E+03</pdfrwt>
<pdfrwt beam="2">  1       21 0.60505257E-01 0.27697007E+03</pdfrwt>
<totfact> 0.23747947E+04</totfact>
</mgrwt>
</event>
<event>
 4    1  0.4199484E+000  0.2582203E+03  0.7546771E-02  0.1108217E+00
         21   -1    0    0  503  502  0.00000000000E+00  0.00000000000E+00  0.38232436809E+03  0.38232436809E+03  0.00000000000E+00 0.  1.
         21   -1    0    0  501  503 -0.00000000000E+00 -0.00000000000E+00 -0.82243188638E+03  0.82243188638E+03  0.00000000000E+00 0. -1.
          6    1    1    2  501    0 -0.14279767076E+03  0.12789665549E+03 -0.75476227013E+03  0.79771161059E+03  0.17300000000E+03 0. -1.
         -6    1    1    2    0  502  0.14279767076E+03 -0.12789665549E+03  0.31465475183E+03  0.40704464388E+03  0.17300000000E+03 0.  1.
<mgrwt>
<rscale>  2 0.25822031E+03</rscale>
<asrwt>0</asrwt>
<pdfrwt beam="1">  1       21 0.58819133E-01 0.25822031E+03</pdfrwt>
<pdfrwt beam="2">  1       21 0.12652798E+00 0.25822031E+03</pdfrwt>
<totfact> 0.11813549E+03</totfact>
</mgrwt>
</event>
<event>
 4    1  0.4199484E+000  0.1840896E+03  0.7546771E-02  0.1163903E+00
         21   -1    0    0  503  502  0.00000000000E+00  0.00000000000E+00  0.20698552520E+03  0.20698552520E+03  0.00000000000E+00 0.  1.
         21   -1    0    0  501  503 -0.00000000000E+00 -0.00000000000E+00 -0.16473944718E+03  0.16473944718E+03  0.00000000000E+00 0. -1.
          6    1    1    2  501    0  0.56948246769E+02 -0.26774684828E+02  0.65477757064E+01  0.18420602575E+03  0.17300000000E+03 0. -1.
         -6    1    1    2    0  502 -0.56948246769E+02  0.26774684828E+02  0.35698302314E+02  0.18751894663E+03  0.17300000000E+03 0.  1.
<mgrwt>
<rscale>  2 0.18408962E+03</rscale>
<asrwt>0</asrwt>
<pdfrwt beam="1">  1       21 0.31843927E-01 0.18408962E+03</pdfrwt>
<pdfrwt beam="2">  1       21 0.25344530E-01 0.18408962E+03</pdfrwt>
<totfact> 0.14032139E+05</totfact>
</mgrwt>
</event>
<event>
 4    1  0.4199484E+000  0.1999622E+03  0.7546771E-02  0.1149771E+00
         21   -1    0    0  503  502  0.00000000000E+00  0.00000000000E+00  0.26664588063E+03  0.26664588063E+03  0.00000000000E+00 0. -1.
         21   -1    0    0  501  503 -0.00000000000E+00 -0.00000000000E+00 -0.16844777704E+03  0.16844777704E+03  0.00000000000E+00 0.  1.
          6    1    1    2  501    0 -0.10017163382E+03  0.46383151192E+01 -0.22982104916E+02  0.20127853173E+03  0.17300000000E+03 0.  1.
         -6    1    1    2    0  502  0.10017163382E+03 -0.46383151192E+01  0.12118020850E+03  0.23381512595E+03  0.17300000000E+03 0. -1.
<mgrwt>
<rscale>  2 0.19996217E+03</rscale>
<asrwt>0</asrwt>
<pdfrwt beam="1">  1       21 0.41022443E-01 0.19996217E+03</pdfrwt>
<pdfrwt beam="2">  1       21 0.25915043E-01 0.19996217E+03</pdfrwt>
<totfact> 0.80678989E+04</totfact>
</mgrwt>
</event>
<event>
 4    1  0.4199484E+000  0.1793052E+03  0.7546771E-02  0.1168477E+00
         21   -1    0    0  501  502  0.00000000000E+00  0.00000000000E+00  0.29420237697E+03  0.29420237697E+03  0.00000000000E+00 0.  1.
         21   -1    0    0  502  503 -0.00000000000E+00 -0.00000000000E+00 -0.84041116735E+03  0.84041116735E+03  0.00000000000E+00 0.  1.
          6    1    1    2  501    0  0.28187237029E+02 -0.37773679314E+02  0.25603460783E+03  0.31257653716E+03  0.17300000000E+03 0.  1.
         -6    1    1    2    0  503 -0.28187237029E+02  0.37773679314E+02 -0.80224339820E+03  0.82203700716E+03  0.17300000000E+03 0.  1.
<mgrwt>
<rscale>  2 0.17930525E+03</rscale>
<asrwt>0</asrwt>
<pdfrwt beam="1">  1       21 0.45261904E-01 0.17930525E+03</pdfrwt>
<pdfrwt beam="2">  1       21 0.12929403E+00 0.17930525E+03</pdfrwt>
<totfact> 0.20783140E+03</totfact>
</mgrwt>
</event>
<event>
 4    1  0.4199484E+000  0.2642726E+03  0.7546771E-02  0.1104603E+00
         21   -1    0    0  501  502  0.00000000000E+00  0.00000000000E+00  0.74015614862E+03  0.74015614862E+03  0.00000000000E+00 0.  1.
         21   -1    0    0  502  503 -0.00000000000E+00 -0.00000000000E+00 -0.21196543362E+03  0.21196543362E+03  0.00000000000E+00 0.  1.
          6    1    1    2  501    0 -0.51014153505E+02 -0.19315430489E+03  0.61870157162E+03  0.67277906038E+03  0.17300000000E+03 0.  1.
         -6    1    1    2    0  503  0.51014153505E+02  0.19315430489E+03 -0.90510856619E+02  0.27934252187E+03  0.17300000000E+03 0.  1.
<mgrwt>
<rscale>  2 0.26427264E+03</rscale>
<asrwt>0</asrwt>
<pdfrwt beam="1">  1       21 0.11387018E+00 0.26427264E+03</pdfrwt>
<pdfrwt beam="2">  1       21 0.32610067E-01 0.26427264E+03</pdfrwt>
<totfact> 0.51701730E+03</totfact>
</mgrwt>
</event>
<event>
 4    1  0.4199484E+000  0.1889989E+03  0.7546771E-02  0.1159367E+00
         21   -1    0    0  503  502  0.00000000000E+00  0.00000000000E+00  0.36915658104E+03  0.36915658104E+03  0.00000000000E+00 0.  1.
         21   -1    0    0  501  503 -0.00000000000E+00 -0.00000000000E+00 -0.12042133629E+03  0.12042133629E+03  0.00000000000E+00 0. -1.
          6    1    1    2  501    0  0.79094723900E+01 -0.75690287566E+02  0.15866267944E+02  0.18966369669E+03  0.17300000000E+03 0. -1.
         -6    1    1    2    0  502 -0.79094723900E+01  0.75690287566E+02  0.23286897680E+03  0.29991422064E+03  0.17300000000E+03 0.  1.
<mgrwt>
<rscale>  2 0.18899889E+03</rscale>
<asrwt>0</asrwt>
<pdfrwt beam="1">  1       21 0.56793320E-01 0.18899889E+03</pdfrwt>
<pdfrwt beam="2">  1       21 0.18526360E-01 0.18899889E+03</pdfrwt>
<totfact> 0.77679289E+04</totfact>
</mgrwt>
</event>
<event>
 4    1  0.4199484E+000  0.2516878E+03  0.7546771E-02  0.1112243E+00
         21   -1    0    0  503  502  0.00000000000E+00  0.00000000000E+00  0.44220370470E+03  0.44220370470E+03  0.00000000000E+00 0.  1.
         21   -1    0    0  501  503 -0.00000000000E+00 -0.00000000000E+00 -0.18159246833E+03  0.18159246833E+03  0.00000000000E+00 0.  1.
          6    1    1    2  501    0 -0.17941312918E+02 -0.18192266749E+03 -0.13008891795E+02  0.25202376658E+03  0.17300000000E+03 0.  1.
         -6    1    1    2    0  502  0.17941312918E+02  0.18192266749E+03  0.27362012817E+03  0.37177240645E+03  0.17300000000E+03 0.  1.
<mgrwt>
<rscale>  2 0.25168780E+03</rscale>
<asrwt>0</asrwt>
<pdfrwt beam="1">  1       21 0.68031339E-01 0.25168780E+03</pdfrwt>
<pdfrwt beam="2">  1       21 0.27937303E-01 0.25168780E+03</pdfrwt>
<totfact> 0.23398342E+04</totfact>
</mgrwt>
</event>
<event>
 4    1  0.4199484E+000  0.1758957E+03  0.7546771E-02  0.1171835E+00
         21   -1    0    0  501  502  0.00000000000E+00  0.00000000000E+00  0.99217511453E+03  0.99217511453E+03  0.00000000000E+00 0.  1.
         21   -1    0    0  502  503 -0.00000000000E+00 -0.00000000000E+00 -0.66122646414E+02  0.66122646414E+02  0.00000000000E+00 0.  1.
          6    1    1    2  501    0  0.30976963813E+02 -0.71224618581E+01  0.84767125008E+03  0.86572850823E+03  0.17300000000E+03 0.  1.
         -6    1    1    2    0  503 -0.30976963813E+02  0.71224618581E+01  0.78381218037E+02  0.19256925271E+03  0.17300000000E+03 0.  1.
<mgrwt>
<rscale>  2 0.17589571E+03</rscale>
<asrwt>0</asrwt>
<pdfrwt beam="1">  1       21 0.15264231E+00 0.17589571E+03</pdfrwt>
<pdfrwt beam="2">  1       21 0.10172716E-01 0.17589571E+03</pdfrwt>
<totfact> 0.22726013E+04</totfact>
</mgrwt>
</event>
<event>
 4    1  0.4199484E+000  0.2686878E+03  0.7546771E-02  0.1102033E+00
         21   -1    0    0  503  502  0.00000000000E+00  0.00000000000E+00  0.91931690223E+03  0.91931690223E+03  0.00000000000E+00 0.  1.
         21   -1    0    0  501  503 -0.00000000000E+00 -0.00000000000E+00 -0.13886607122E+03  0.13886607122E+03  0.00000000000E+00 0. -1.
          6    1    1    2  501    0 -0.39643678600E+02 -0.20172382668E+03  0.41467178600E+02  0.27186881102E+03  0.17300000000E+03 0. -1.
         -6    1    1    2    0  502  0.39643678600E+02  0.20172382668E+03  0.73898365241E+03  0.78631416243E+03  0.17300000000E+03 0.  1.
<mgrwt>
<rscale>  2 0.26868778E+03</rscale>
<asrwt>0</asrwt>
<pdfrwt beam="1">  1       21 0.14143337E+00 0.26868778E+03</pdfrwt>
<pdfrwt beam="2">  1       21 0.21364011E-01 0.26868778E+03</pdfrwt>
<totfact> 0.67473947E+03</totfact>
</mgrwt>
</event>
<event>
 4    1  0.4199484E+000  0.1801192E+03  0.7546771E-02  0.1167688E+00
         21   -1    0    0  503  502  0.00000000000E+00  0.00000000000E+00  0.26637741085E+02  0.26637741085E+02  0.00000000000E+00 0.  1.
         21   -1    0    0  501  503 -0.00000000000E+00 -0.00000000000E+00 -0.14188117433E+04  0.14188117433E+04  0.00000000000E+00 0.  1.
          6    1    1    2  501    0  0.50059009894E+02 -0.28314766328E+01 -0.96803135756E+03  0.98464594192E+03  0.17300000000E+03 0.  1.
         -6    1    1    2    0  502 -0.50059009894E+02  0.28314766328E+01 -0.42414264470E+03  0.46080354250E+03  0.17300000000E+03 0.  1.
<mgrwt>
<rscale>  2 0.18011919E+03</rscale>
<asrwt>0</asrwt>
<pdfrwt beam="1">  1       21 0.40981136E-02 0.18011919E+03</pdfrwt>
<pdfrwt beam="2">  1       21 0.21827875E+00 0.18011919E+03</pdfrwt>
<totfact> 0.39140368E+04</totfact>
</mgrwt>
</event>
<event>
 4    1  0.4199484E+000  0.2196092E+03  0.7546771E-02  0.1134175E+00
         21   -1    0    0  503  502  0.00000000000E+00  0.00000000000E+00  0.10824156484E+03  0.10824156484E+03  0.00000000000E+00 0.  1.
         21   -1    0    0  501  503 -0.00000000000E+00 -0.00000000000E+00 -0.45905141340E+03  0.45905141340E+03  0.00000000000E+00 0.  1.
          6    1    1    2  501    0 -0.13153705991E+03  0.31578224911E+02 -0.22403052135E+03  0.31371620442E+03  0.17300000000E+03 0.  1.
         -6    1    1    2    0  502  0.13153705991E+03 -0.31578224911E+02 -0.12677932720E+03  0.25357677383E+03  0.17300000000E+03 0.  1.
<mgrwt>
<rscale>  2 0.21960916E+03</rscale>
<asrwt>0</asrwt>
<pdfrwt beam="1">  1       21 0.16652548E-01 0.21960916E+03</pdfrwt>
<pdfrwt beam="2">  1       21 0.70623294E-01 0.21960916E+03</pdfrwt>
<totfact> 0.58146595E+04</totfact>
</mgrwt>
</event>
<event>
 4    1  0.4199484E+000  0.2035100E+03  0.7546771E-02  0.1146811E+00
         21   -1    0    0  503  502  0.00000000000E+00  0.00000000000E+00  0.13429426905E+03  0.13429426905E+03  0.00000000000E+00 0. -1.
         21   -1    0    0  501  503 -0.00000000000E+00 -0.00000000000E+00 -0.31168781622E+03  0.31168781622E+03  0.00000000000E+00 0.  1.
          6    1    1    2  501    0  0.33929969526E+02 -0.10166645749E+03 -0.11160025574E+03  0.23210111696E+03  0.17300000000E+03 0.  1.
         -6    1    1    2    0  502 -0.33929969526E+02  0.10166645749E+03 -0.65793291433E+02  0.21388096832E+03  0.17300000000E+03 0. -1.
<mgrwt>
<rscale>  2 0.20350998E+03</rscale>
<asrwt>0</asrwt>
<pdfrwt beam="1">  1       21 0.20660657E-01 0.20350998E+03</pdfrwt>
<pdfrwt beam="2">  1       21 0.47951972E-01 0.20350998E+03</pdfrwt>
<totfact> 0.89877419E+04</totfact>
</mgrwt>
</event>
<event>
 4    1  0.4199484E+000  0.1951664E+03  0.7546771E-02  0.1153882E+00
         21   -1    0    0  501  502  0.00000000000E+00  0.00000000000E+00  0.33461107084E+03  0.33461107084E+03  0.00000000000E+00 0. -1.
         21   -1    0    0  502  503 -0.00000000000E+00 -0.00000000000E+00 -0.13346643791E+03  0.13346643791E+03  0.00000000000E+00 0. -1.
          6    1    1    2  501    0  0.77171938265E+02 -0.46961788540E+02  0.19033491930E+03  0.27261199377E+03  0.17300000000E+03 0. -1.
         -6    1    1    2    0  503 -0.77171938265E+02  0.46961788540E+02  0.10809713632E+02  0.19546551498E+03  0.17300000000E+03 0. -1.
<mgrwt>
<rscale>  2 0.19516638E+03</rscale>
<asrwt>0</asrwt>
<pdfrwt beam="1">  1       21 0.51478626E-01 0.19516638E+03</pdfrwt>
<pdfrwt beam="2">  1       21 0.20533298E-01 0.19516638E+03</pdfrwt>
<totfact> 0.78702709E+04</totfact>
</mgrwt>
</event>
<event>
 4    1  0.4199484E+000  0.1973818E+03  0.7546771E-02  0.1151967E+00
         21   -1    0    0  501  502  0.00000000000E+00  0.00000000000E+00  0.26075384717E+03  0.26075384717E+03  0.00000000000E+00 0. -1.
         21   -1    0    0  502  503 -0.00000000000E+00 -0.00000000000E+00 -0.31569411425E+03  0.31569411425E+03  0.00000000000E+00 0. -1.
          6    1    1    2  501    0 -0.15873914749E+02 -0.93694079828E+02  0.18171007913E+03  0.26828737320E+03  0.17300000000E+03 0. -1.
         -6    1    1    2    0  503  0.15873914749E+02  0.93694079828E+02 -0.23665034622E+03  0.30816058821E+03  0.17300000000E+03 0. -1.
<mgrwt>
<rscale>  2 0.19738177E+03</rscale>
<asrwt>0</asrwt>
<pdfrwt beam="1">  1       21 0.40115977E-01 0.19738177E+03</pdfrwt>
<pdfrwt beam="2">  1       21 0.48568325E-01 0.19738177E+03</pdfrwt>
<totfact> 0.24174196E+04</totfact>
</mgrwt>
</event>
<event>
 4    1  0.4199484E+000  0.1788132E+03  0.7546771E-02  0.1168957E+00
         21   -1    0    0  501  502  0.00000000000E+00  0.00000000000E+00  0.15057418692E+03  0.15057418692E+03  0.00000000000E+00 0.  1.
         21   -1    0    0  502  503 -0.00000000000E+00 -0.00000000000E+00 -0.25497165462E+03  0.25497165462E+03  0.00000000000E+00 0.  1.
          6    1    1    2  501    0  0.20382842774E+02 -0.40369495702E+02  0.30707725053E+02  0.18143076046E+03  0.17300000000E+03 0.  1.
         -6    1    1    2    0  503 -0.20382842774E+02  0.40369495702E+02 -0.13510519275E+03  0.22411508109E+03  0.17300000000E+03 0.  1.
<mgrwt>
<rscale>  2 0.17881319E+03</rscale>
<asrwt>0</asrwt>
<pdfrwt beam="1">  1       21 0.23165260E-01 0.17881319E+03</pdfrwt>
<pdfrwt beam="2">  1       21 0.39226408E-01 0.17881319E+03</pdfrwt>
<totfact> 0.11026068E+05</totfact>
</mgrwt>
</event>
<event>
 4    1  0.4199484E+000  0.2755796E+03  0.7546771E-02  0.1098128E+00
         21   -1    0    0  501  502  0.00000000000E+00  0.00000000000E+00  0.43879002898E+03  0.43879002898E+03  0.00000000000E+00 0. -1.
         21   -1    0    0  502  503 -0.00000000000E+00 -0.00000000000E+00 -0.32705550290E+03  0.32705550290E+03  0.00000000000E+00 0. -1.
          6    1    1    2  501    0  0.21169301683E+03 -0.34657795666E+02  0.31861058012E+03  0.42125621412E+03  0.17300000000E+03 0. -1.
         -6    1    1    2    0  503 -0.21169301683E+03  0.34657795666E+02 -0.20687605403E+03  0.34458931775E+03  0.17300000000E+03 0. -1.
<mgrwt>
<rscale>  2 0.27557956E+03</rscale>
<asrwt>0</asrwt>
<pdfrwt beam="1">  1       21 0.67506159E-01 0.27557956E+03</pdfrwt>
<pdfrwt beam="2">  1       21 0.50316231E-01 0.27557956E+03</pdfrwt>
<totfact> 0.71642768E+03</totfact>
</mgrwt>
</event>
<event>
 4    1  0.4199484E+000  0.2137271E+03  0.7546771E-02  0.1138648E+00
         21   -1    0    0  503  502  0.00000000000E+00  0.00000000000E+00  0.20032520802E+03  0.20032520802E+03  0.00000000000E+00 0. -1.
         21   -1    0    0  501  503 -0.00000000000E+00 -0.00000000000E+00 -0.40118425965E+03  0.40118425965E+03  0.00000000000E+00 0.  1.
          6    1    1    2  501    0 -0.22541653429E+02 -0.12345900924E+03 -0.29801853284E+03  0.36673464388E+03  0.17300000000E+03 0.  1.
         -6    1    1    2    0  502  0.22541653429E+02  0.12345900924E+03  0.97159481209E+02  0.23477482380E+03  0.17300000000E+03 0.  1.
<mgrwt>
<rscale>  2 0.21372705E+03</rscale>
<asrwt>0</asrwt>
<pdfrwt beam="1">  1       21 0.30819263E-01 0.21372705E+03</pdfrwt>
<pdfrwt beam="2">  1       21 0.61720655E-01 0.21372705E+03</pdfrwt>
<totfact> 0.24357510E+04</totfact>
</mgrwt>
</event>
<event>
 4    1  0.4199484E+000  0.2084476E+03  0.7546771E-02  0.1142801E+00
         21   -1    0    0  501  502  0.00000000000E+00  0.00000000000E+00  0.25006106611E+03  0.25006106611E+03  0.00000000000E+00 0.  1.
         21   -1    0    0  502  503 -0.00000000000E+00 -0.00000000000E+00 -0.18250558976E+03  0.18250558976E+03  0.00000000000E+00 0. -1.
          6    1    1    2  501    0  0.11453074423E+03  0.20102156850E+02  0.81125736837E+02  0.22367783364E+03  0.17300000000E+03 0.  1.
         -6    1    1    2    0  503 -0.11453074423E+03 -0.20102156850E+02 -0.13570260483E+02  0.20888882223E+03  0.17300000000E+03 0. -1.
<mgrwt>
<rscale>  2 0.20844757E+03</rscale>
<asrwt>0</asrwt>
<pdfrwt beam="1">  1       21 0.38470933E-01 0.20844757E+03</pdfrwt>
<pdfrwt beam="2">  1       21 0.28077783E-01 0.20844757E+03</pdfrwt>
<totfact> 0.78423314E+04</totfact>
</mgrwt>
</event>
<event>
 4    1  0.4199484E+000  0.3500989E+03  0.7546771E-02  0.1062574E+00
         21   -1    0    0  501  502  0.00000000000E+00  0.00000000000E+00  0.18957997708E+03  0.18957997708E+03  0.00000000000E+00 0.  1.
         21   -1    0    0  502  503 -0.00000000000E+00 -0.00000000000E+00 -0.70316265440E+03  0.70316265440E+03  0.00000000000E+00 0. -1.
          6    1    1    2  501    0 -0.18447792244E+03 -0.24209122462E+03 -0.13011387337E+03  0.37349549522E+03  0.17300000000E+03 0.  1.
         -6    1    1    2    0  503  0.18447792244E+03  0.24209122462E+03 -0.38346880396E+03  0.51924713626E+03  0.17300000000E+03 0. -1.
<mgrwt>
<rscale>  2 0.35009894E+03</rscale>
<asrwt>0</asrwt>
<pdfrwt beam="1">  1       21 0.29166150E-01 0.35009894E+03</pdfrwt>
<pdfrwt beam="2">  1       21 0.10817887E+00 0.35009894E+03</pdfrwt>
<totfact> 0.70059307E+03</totfact>
</mgrwt>
</event>
<event>
 4    1  0.4199484E+000  0.2140517E+03  0.7546771E-02  0.1138397E+00
         21   -1    0    0  503  502  0.00000000000E+00  0.00000000000E+00  0.29109687816E+03  0.29109687816E+03  0.00000000000E+00 0.  1.
         21   -1    0    0  501  503 -0.00000000000E+00 -0.00000000000E+00 -0.15763420290E+03  0.15763420290E+03  0.00000000000E+00 0.  1.
          6    1    1    2  501    0 -0.12604153213E+03 -0.16298326119E+01  0.58049911255E+02  0.22178348986E+03  0.17300000000E+03 0.  1.
         -6    1    1    2    0  502  0.12604153213E+03  0.16298326119E+01  0.75412764002E+02  0.22694759120E+03  0.17300000000E+03 0.  1.
<mgrwt>
<rscale>  2 0.21405169E+03</rscale>
<asrwt>0</asrwt>
<pdfrwt beam="1">  1       21 0.44784135E-01 0.21405169E+03</pdfrwt>
<pdfrwt beam="2">  1       21 0.24251416E-01 0.21405169E+03</pdfrwt>
<totfact> 0.76108631E+04</totfact>
</mgrwt>
</event>
<event>
 4    1  0.4199484E+000  0.2010558E+03  0.7546771E-02  0.1148851E+00
         21   -1    0    0  503  502  0.00000000000E+00  0.00000000000E+00  0.79838263397E+02  0.79838263397E+02  0.00000000000E+00 0.  1.
         21   -1    0    0  501  503 -0.00000000000E+00 -0.00000000000E+00 -0.50792214532E+03  0.50792214532E+03  0.00000000000E+00 0.  1.
          6    1    1    2  501    0  0.87963356494E+02  0.52505970453E+02 -0.23056530155E+03  0.30591467323E+03  0.17300000000E+03 0.  1.
         -6    1    1    2    0  502 -0.87963356494E+02 -0.52505970453E+02 -0.19751858037E+03  0.28184573548E+03  0.17300000000E+03 0.  1.
<mgrwt>
<rscale>  2 0.20105579E+03</rscale>
<asrwt>0</asrwt>
<pdfrwt beam="1">  1       21 0.12282810E-01 0.20105579E+03</pdfrwt>
<pdfrwt beam="2">  1       21 0.78141867E-01 0.20105579E+03</pdfrwt>
<totfact> 0.81322081E+04</totfact>
</mgrwt>
</event>
<event>
 4    1  0.4199484E+000  0.2388923E+03  0.7546771E-02  0.1120533E+00
         21   -1    0    0  503  502  0.00000000000E+00  0.00000000000E+00  0.37370683538E+03  0.37370683538E+03  0.00000000000E+00 0.  1.
         21   -1    0    0  501  503 -0.00000000000E+00 -0.00000000000E+00 -0.16011602009E+03  0.16011602009E+03  0.00000000000E+00 0. -1.
          6    1    1    2  501    0  0.14969176069E+03 -0.68795968489E+02  0.49399049850E+02  0.24394625356E+03  0.17300000000E+03 0.  1.
         -6    1    1    2    0  502 -0.14969176069E+03  0.68795968489E+02  0.16419176544E+03  0.28987660191E+03  0.17300000000E+03 0.  1.
<mgrwt>
<rscale>  2 0.23889225E+03</rscale>
<asrwt>0</asrwt>
<pdfrwt beam="1">  1       21 0.57493359E-01 0.23889225E+03</pdfrwt>
<pdfrwt beam="2">  1       21 0.24633234E-01 0.23889225E+03</pdfrwt>
<totfact> 0.43272898E+04</totfact>
</mgrwt>
</event>
<event>
 4    1  0.4199484E+000  0.3146677E+03  0.7546771E-02  0.1078130E+00
         21   -1    0    0  501  502  0.00000000000E+00  0.00000000000E+00  0.76650731617E+03  0.76650731617E+03  0.00000000000E+00 0.  1.
         21   -1    0    0  502  503 -0.00000000000E+00 -0.00000000000E+00 -0.15045263003E+03  0.15045263003E+03  0.00000000000E+00 0. -1.
          6    1    1    2  501    0  0.14685459119E+03 -0.21799189575E+03  0.48043375383E+03  0.57431030757E+03  0.17300000000E+03 0.  1.
         -6    1    1    2    0  503 -0.14685459119E+03  0.21799189575E+03  0.13562093232E+03  0.34264963863E+03  0.17300000000E+03 0. -1.
<mgrwt>
<rscale>  2 0.31466766E+03</rscale>
<asrwt>0</asrwt>
<pdfrwt beam="1">  1       21 0.11792420E+00 0.31466766E+03</pdfrwt>
<pdfrwt beam="2">  1       21 0.23146559E-01 0.31466766E+03</pdfrwt>
<totfact> 0.90068298E+03</totfact>
</mgrwt>
</event>
<event>
 4    1  0.4199484E+000  0.1865422E+03  0.7546771E-02  0.1161617E+00
         21   -1    0    0  501  502  0.00000000000E+00  0.00000000000E+00  0.10795769800E+03  0.10795769800E+03  0.00000000000E+00 0.  1.
         21   -1    0    0  502  503 -0.00000000000E+00 -0.00000000000E+00 -0.37494308797E+03  0.37494308797E+03  0.00000000000E+00 0. -1.
          6    1    1    2  501    0  0.17661808419E+02  0.67506083358E+02 -0.43046165235E+02  0.19144446482E+03  0.17300000000E+03 0.  1.
         -6    1    1    2    0  503 -0.17661808419E+02 -0.67506083358E+02 -0.22393922473E+03  0.29145632116E+03  0.17300000000E+03 0. -1.
<mgrwt>
<rscale>  2 0.18654225E+03</rscale>
<asrwt>0</asrwt>
<pdfrwt beam="1">  1       21 0.16608877E-01 0.18654225E+03</pdfrwt>
<pdfrwt beam="2">  1       21 0.57683551E-01 0.18654225E+03</pdfrwt>
<totfact> 0.92008792E+04</totfact>
</mgrwt>
</event>
<event>
 4    1  0.4199484E+000  0.2407708E+03  0.7546771E-02  0.1119280E+00
         21   -1    0    0  503  502  0.00000000000E+00  0.00000000000E+00  0.44749443776E+03  0.44749443776E+03  0.00000000000E+00 0. -1.
         21   -1    0    0  501  503 -0.00000000000E+00 -0.00000000000E+00 -0.20123770932E+03  0.20123770932E+03  0.00000000000E+00 0. -1.
          6    1    1    2  501    0  0.14803248461E+03  0.78281305538E+02 -0.70477644043E+02  0.25087382806E+03  0.17300000000E+03 0. -1.
         -6    1    1    2    0  502 -0.14803248461E+03 -0.78281305538E+02  0.31673437248E+03  0.39785831901E+03  0.17300000000E+03 0. -1.
<mgrwt>
<rscale>  2 0.24077080E+03</rscale>
<asrwt>0</asrwt>
<pdfrwt beam="1">  1       21 0.68845298E-01 0.24077080E+03</pdfrwt>
<pdfrwt beam="2">  1       21 0.30959648E-01 0.24077080E+03</pdfrwt>
<totfact> 0.18741618E+04</totfact>
</mgrwt>
</event>
<event>
 4    1  0.4199484E+000  0.3455934E+03  0.7546771E-02  0.1064438E+00
         21   -1    0    0  503  502  0.00000000000E+00  0.00000000000E+00  0.15116511841E+03  0.15116511841E+03  0.00000000000E+00 0. -1.
         21   -1    0    0  501  503 -0.00000000000E+00 -0.00000000000E+00 -0.79024537614E+03  0.79024537614E+03  0.00000000000E+00 0. -1.
          6    1    1    2  501    0  0.29851181089E+03 -0.19912557608E+02 -0.32603231572E+03  0.47511249413E+03  0.17300000000E+03 0. -1.
         -6    1    1    2    0  502 -0.29851181089E+03  0.19912557608E+02 -0.31304794201E+03  0.46629800041E+03  0.17300000000E+03 0. -1.
<mgrwt>
<rscale>  2 0.34559342E+03</rscale>
<asrwt>0</asrwt>
<pdfrwt beam="1">  1       21 0.23256172E-01 0.34559342E+03</pdfrwt>
<pdfrwt beam="2">  1       21 0.12157621E+00 0.34559342E+03</pdfrwt>
<totfact> 0.81536136E+03</totfact>
</mgrwt>
</event>
<event>
 4    1  0.4199484E+000  0.1859022E+03  0.7546771E-02  0.1162210E+00
         21   -1    0    0  503  502  0.00000000000E+00  0.00000000000E+00  0.32197536379E+03  0.32197536379E+03  0.00000000000E+00 0.  1.
         21   -1    0    0  501  503 -0.00000000000E+00 -0.00000000000E+00 -0.13006532898E+03  0.13006532898E+03  0.00000000000E+00 0. -1.
          6    1    1    2  501    0 -0.44251751630E+02 -0.51695200395E+02  0.14710363346E+01  0.18590797512E+03  0.17300000000E+03 0. -1.
         -6    1    1    2    0  502  0.44251751630E+02  0.51695200395E+02  0.19043899847E+03  0.26613271765E+03  0.17300000000E+03 0.  1.
<mgrwt>
<rscale>  2 0.18590216E+03</rscale>
<asrwt>0</asrwt>
<pdfrwt beam="1">  1       21 0.49534671E-01 0.18590216E+03</pdfrwt>
<pdfrwt beam="2">  1       21 0.20010051E-01 0.18590216E+03</pdfrwt>
<totfact> 0.89839523E+04</totfact>
</mgrwt>
</event>
<event>
 4    1  0.4199484E+000  0.2419378E+03  0.7546771E-02  0.1118509E+00
         21   -1    0    0  503  502  0.00000000000E+00  0.00000000000E+00  0.35509834799E+03  0.35509834799E+03  0.00000000000E+00 0. -1.
         21   -1    0    0  501  503 -0.00000000000E+00 -0.00000000000E+00 -0.18538413514E+03  0.18538413514E+03  0.00000000000E+00 0.  1.
          6    1    1    2  501    0  0.11479267753E+03  0.12420768249E+03 -0.51080402339E+01  0.24199173390E+03  0.17300000000E+03 0.  1.
         -6    1    1    2    0  502 -0.11479267753E+03 -0.12420768249E+03  0.17482225309E+03  0.29849074923E+03  0.17300000000E+03 0. -1.
<mgrwt>
<rscale>  2 0.24193782E+03</rscale>
<asrwt>0</asrwt>
<pdfrwt beam="1">  1       21 0.54630515E-01 0.24193782E+03</pdfrwt>
<pdfrwt beam="2">  1       21 0.28520636E-01 0.24193782E+03</pdfrwt>
<totfact> 0.36312051E+04</totfact>
</mgrwt>
</event>
<event>
 4    1  0.4199484E+000  0.2603817E+03  0.7546771E-02  0.1106914E+00
         21   -1    0    0  501  502  0.00000000000E+00  0.00000000000E+00  0.97755983950E+03  0.97755983950E+03  0.00000000000E+00 0.  1.
         21   -1    0    0  502  503 -0.00000000000E+00 -0.00000000000E+00 -0.10825880272E+03  0.10825880272E+03  0.00000000000E+00 0. -1.
          6    1    1    2  501    0  0.10218069835E+03 -0.16561616561E+03  0.76010632119E+03  0.80346762781E+03  0.17300000000E+03 0.  1.
         -6    1    1    2    0  503 -0.10218069835E+03  0.16561616561E+03  0.10919471559E+03  0.28235101441E+03  0.17300000000E+03 0. -1.
<mgrwt>
<rscale>  2 0.26038166E+03</rscale>
<asrwt>0</asrwt>
<pdfrwt beam="1">  1       21 0.15039382E+00 0.26038166E+03</pdfrwt>
<pdfrwt beam="2">  1       21 0.16655201E-01 0.26038166E+03</pdfrwt>
<totfact> 0.91848718E+03</totfact>
</mgrwt>
</event>
<event>
 4    1  0.4199484E+000  0.2685656E+03  0.7546771E-02  0.1102103E+00
         21   -1    0    0  503  502  0.00000000000E+00  0.00000000000E+00  0.58758069211E+03  0.58758069211E+03  0.00000000000E+00 0. -1.
         21   -1    0    0  501  503 -0.00000000000E+00 -0.00000000000E+00 -0.12524386919E+03  0.12524386919E+03  0.00000000000E+00 0. -1.
          6    1    1    2  501    0 -0.64887915734E+02  0.19490519791E+03  0.18090841884E+03  0.32381373317E+03  0.17300000000E+03 0. -1.
         -6    1    1    2    0  502  0.64887915734E+02 -0.19490519791E+03  0.28142840408E+03  0.38901082813E+03  0.17300000000E+03 0. -1.
<mgrwt>
<rscale>  2 0.26856559E+03</rscale>
<asrwt>0</asrwt>
<pdfrwt beam="1">  1       21 0.90397028E-01 0.26856559E+03</pdfrwt>
<pdfrwt beam="2">  1       21 0.19268288E-01 0.26856559E+03</pdfrwt>
<totfact> 0.24745865E+04</totfact>
</mgrwt>
</event>
<event>
 4    1  0.4199484E+000  0.2261699E+03  0.7546771E-02  0.1129365E+00
         21   -1    0    0  501  502  0.00000000000E+00  0.00000000000E+00  0.82633619419E+02  0.82633619419E+02  0.00000000000E+00 0. -1.
         21   -1    0    0  502  503 -0.00000000000E+00 -0.00000000000E+00 -0.88108237731E+03  0.88108237731E+03  0.00000000000E+00 0.  1.
          6    1    1    2  501    0 -0.13231047366E+03  0.60973278605E+02 -0.13643746399E+03  0.26413629763E+03  0.17300000000E+03 0. -1.
         -6    1    1    2    0  503  0.13231047366E+03 -0.60973278605E+02 -0.66201129390E+03  0.69957969910E+03  0.17300000000E+03 0. -1.
<mgrwt>
<rscale>  2 0.22616985E+03</rscale>
<asrwt>0</asrwt>
<pdfrwt beam="1">  1       21 0.12712865E-01 0.22616985E+03</pdfrwt>
<pdfrwt beam="2">  1       21 0.13555113E+00 0.22616985E+03</pdfrwt>
<totfact> 0.20144881E+04</totfact>
</mgrwt>
</event>
<event>
 4    1  0.4199484E+000  0.1895411E+03  0.7546771E-02  0.1158876E+00
         21   -1    0    0  501  502  0.00000000000E+00  0.00000000000E+00  0.10441501070E+03  0.10441501070E+03  0.00000000000E+00 0. -1.
         21   -1    0    0  502  503 -0.00000000000E+00 -0.00000000000E+00 -0.34715446281E+03  0.34715446281E+03  0.00000000000E+00 0. -1.
          6    1    1    2  501    0  0.28134960009E+02  0.72147357576E+02 -0.10007876786E+03  0.21433986320E+03  0.17300000000E+03 0. -1.
         -6    1    1    2    0  503 -0.28134960009E+02 -0.72147357576E+02 -0.14266068425E+03  0.23722961032E+03  0.17300000000E+03 0. -1.
<mgrwt>
<rscale>  2 0.18954107E+03</rscale>
<asrwt>0</asrwt>
<pdfrwt beam="1">  1       21 0.16063848E-01 0.18954107E+03</pdfrwt>
<pdfrwt beam="2">  1       21 0.53408378E-01 0.18954107E+03</pdfrwt>
<totfact> 0.11500575E+05</totfact>
</mgrwt>
</event>
<event>
 4    1  0.4199484E+000  0.2278304E+03  0.7546771E-02  0.1128176E+00
         21   -1    0    0  501  502  0.00000000000E+00  0.00000000000E+00  0.44165683142E+03  0.44165683142E+03  0.00000000000E+00 0. -1.
         21   -1    0    0  502  503 -0.00000000000E+00 -0.00000000000E+00 -0.19289313013E+03  0.19289313013E+03  0.00000000000E+00 0. -1.
          6    1    1    2  501    0 -0.12218704454E+03  0.83952521512E+02  0.32270112257E+03  0.39502242244E+03  0.17300000000E+03 0. -1.
         -6    1    1    2    0  503  0.12218704454E+03 -0.83952521512E+02 -0.73937421284E+02  0.23952753910E+03  0.17300000000E+03 0. -1.
<mgrwt>
<rscale>  2 0.22783042E+03</rscale>
<asrwt>0</asrwt>
<pdfrwt beam="1">  1       21 0.67947204E-01 0.22783042E+03</pdfrwt>
<pdfrwt beam="2">  1       21 0.29675866E-01 0.22783042E+03</pdfrwt>
<totfact> 0.21103840E+04</totfact>
</mgrwt>
</event>
<event>
 4    1  0.4199484E+000  0.2393298E+03  0.7546771E-02  0.1120240E+00
         21   -1    0    0  503  502  0.00000000000E+00  0.00000000000E+00  0.14298892237E+04  0.14298892237E+04  0.00000000000E+00 0. -1.
         21   -1    0    0  501  503 -0.00000000000E+00 -0.00000000000E+00 -0.42031644109E+02  0.42031644109E+02  0.00000000000E+00 0. -1.
          6    1    1    2  501    0 -0.15546704427E+03 -0.56389342584E+02  0.53445808966E+03  0.58559730995E+03  0.17300000000E+03 0. -1.
         -6    1    1    2    0  502  0.15546704427E+03  0.56389342584E+02  0.85339948993E+03  0.88632355787E+03  0.17300000000E+03 0. -1.
<mgrwt>
<rscale>  2 0.23932981E+03</rscale>
<asrwt>0</asrwt>
<pdfrwt beam="1">  1       21 0.21998292E+00 0.23932981E+03</pdfrwt>
<pdfrwt beam="2">  1       21 0.64664079E-02 0.23932981E+03</pdfrwt>
<totfact> 0.16841849E+04</totfact>
</mgrwt>
</event>
<event>
 4    1  0.4199484E+000  0.3675457E+03  0.7546771E-02  0.1055635E+00
         21   -1    0    0  501  502  0.00000000000E+00  0.00000000000E+00  0.44525078422E+03  0.44525078422E+03  0.00000000000E+00 0.  1.
         21   -1    0    0  502  503 -0.00000000000E+00 -0.00000000000E+00 -0.55789006031E+03  0.55789006031E+03  0.00000000000E+00 0. -1.
          6    1    1    2  501    0 -0.11946397678E+03 -0.30147832928E+03  0.28243995810E+03  0.46353225854E+03  0.17300000000E+03 0.  1.
         -6    1    1    2    0  503  0.11946397678E+03  0.30147832928E+03 -0.39507923419E+03  0.53960858598E+03  0.17300000000E+03 0. -1.
<mgrwt>
<rscale>  2 0.36754568E+03</rscale>
<asrwt>0</asrwt>
<pdfrwt beam="1">  1       21 0.68500121E-01 0.36754568E+03</pdfrwt>
<pdfrwt beam="2">  1       21 0.85829240E-01 0.36754568E+03</pdfrwt>
<totfact> 0.20343888E+03</totfact>
</mgrwt>
</event>
<event>
 4    1  0.4199484E+000  0.2097643E+03  0.7546771E-02  0.1141753E+00
         21   -1    0    0  503  502  0.00000000000E+00  0.00000000000E+00  0.33960410228E+03  0.33960410228E+03  0.00000000000E+00 0. -1.
         21   -1    0    0  501  503 -0.00000000000E+00 -0.00000000000E+00 -0.29309374274E+03  0.29309374274E+03  0.00000000000E+00 0. -1.
          6    1    1    2  501    0  0.38350665127E+02  0.11225552307E+03 -0.21304229339E+03  0.29897841853E+03  0.17300000000E+03 0. -1.
         -6    1    1    2    0  502 -0.38350665127E+02 -0.11225552307E+03  0.25955265292E+03  0.33371942649E+03  0.17300000000E+03 0. -1.
<mgrwt>
<rscale>  2 0.20976433E+03</rscale>
<asrwt>0</asrwt>
<pdfrwt beam="1">  1       21 0.52246785E-01 0.20976433E+03</pdfrwt>
<pdfrwt beam="2">  1       21 0.45091345E-01 0.20976433E+03</pdfrwt>
<totfact> 0.16228314E+04</totfact>
</mgrwt>
</event>
<event>
 4    1  0.4199484E+000  0.6053431E+03  0.7546771E-02  0.9894383E-01
         21   -1    0    0  503  502  0.00000000000E+00  0.00000000000E+00  0.25150127789E+03  0.25150127789E+03  0.00000000000E+00 0. -1.
         21   -1    0    0  501  503 -0.00000000000E+00 -0.00000000000E+00 -0.15929282777E+04  0.15929282777E+04  0.00000000000E+00 0.  1.
          6    1    1    2  501    0  0.38743914312E+03 -0.43174311816E+03 -0.94009687098E+03  0.11181334162E+04  0.17300000000E+03 0.  1.
         -6    1    1    2    0  502 -0.38743914312E+03  0.43174311816E+03 -0.40133012879E+03  0.72629613931E+03  0.17300000000E+03 0. -1.
<mgrwt>
<rscale>  2 0.60534305E+03</rscale>
<asrwt>0</asrwt>
<pdfrwt beam="1">  1       21 0.38692505E-01 0.60534305E+03</pdfrwt>
<pdfrwt beam="2">  1       21 0.24506589E+00 0.60534305E+03</pdfrwt>
<totfact> 0.34420747E+02</totfact>
</mgrwt>
</event>
<event>
 4    1  0.4199484E+000  0.2121423E+03  0.7546771E-02  0.1139881E+00
         21   -1    0    0  501  502  0.00000000000E+00  0.00000000000E+00  0.65462309525E+02  0.65462309525E+02  0.00000000000E+00 0. -1.
         21   -1    0    0  502  503 -0.00000000000E+00 -0.00000000000E+00 -0.69134053422E+03  0.69134053422E+03  0.00000000000E+00 0. -1.
          6    1    1    2  501    0  0.95284916088E+02 -0.77434656337E+02 -0.34119842633E+03  0.40177195941E+03  0.17300000000E+03 0. -1.
         -6    1    1    2    0  503 -0.95284916088E+02  0.77434656337E+02 -0.28467979836E+03  0.35503088433E+03  0.17300000000E+03 0. -1.
<mgrwt>
<rscale>  2 0.21214227E+03</rscale>
<asrwt>0</asrwt>
<pdfrwt beam="1">  1       21 0.10071124E-01 0.21214227E+03</pdfrwt>
<pdfrwt beam="2">  1       21 0.10636008E+00 0.21214227E+03</pdfrwt>
<totfact> 0.56215614E+04</totfact>
</mgrwt>
</event>
<event>
 4    1  0.4199484E+000  0.1751762E+03  0.7546771E-02  0.1172555E+00
         21   -1    0    0  501  502  0.00000000000E+00  0.00000000000E+00  0.13194185062E+03  0.13194185062E+03  0.00000000000E+00 0.  1.
         21   -1    0    0  502  503 -0.00000000000E+00 -0.00000000000E+00 -0.52590520183E+03  0.52590520183E+03  0.00000000000E+00 0.  1.
          6    1    1    2  501    0 -0.25650324070E+02  0.99877214636E+01  0.48668914463E+02  0.18181132236E+03  0.17300000000E+03 0.  1.
         -6    1    1    2    0  503  0.25650324070E+02 -0.99877214636E+01 -0.44263226568E+03  0.47603573009E+03  0.17300000000E+03 0.  1.
<mgrwt>
<rscale>  2 0.17517618E+03</rscale>
<asrwt>0</asrwt>
<pdfrwt beam="1">  1       21 0.20298747E-01 0.17517618E+03</pdfrwt>
<pdfrwt beam="2">  1       21 0.80908491E-01 0.17517618E+03</pdfrwt>
<totfact> 0.30394565E+04</totfact>
</mgrwt>
</event>
<event>
 4    1  0.4199484E+000  0.1987975E+03  0.7546771E-02  0.1150758E+00
         21   -1    0    0  503  502  0.00000000000E+00  0.00000000000E+00  0.11095258880E+03  0.11095258880E+03  0.00000000000E+00 0. -1.
         21   -1    0    0  501  503 -0.00000000000E+00 -0.00000000000E+00 -0.12880068317E+04  0.12880068317E+04  0.00000000000E+00 0.  1.
          6    1    1    2  501    0 -0.71808724566E+02 -0.66595376755E+02 -0.11834776040E+04  0.12000581970E+04  0.17300000000E+03 0.  1.
         -6    1    1    2    0  502  0.71808724566E+02  0.66595376755E+02  0.64233610883E+01  0.19890122347E+03  0.17300000000E+03 0. -1.
<mgrwt>
<rscale>  2 0.19879748E+03</rscale>
<asrwt>0</asrwt>
<pdfrwt beam="1">  1       21 0.17069629E-01 0.19879748E+03</pdfrwt>
<pdfrwt beam="2">  1       21 0.19815490E+00 0.19879748E+03</pdfrwt>
<totfact> 0.42480461E+03</totfact>
</mgrwt>
</event>
<event>
 4    1  0.4199484E+000  0.2014264E+03  0.7546771E-02  0.1148541E+00
         21   -1    0    0  503  502  0.00000000000E+00  0.00000000000E+00  0.25072101220E+03  0.25072101220E+03  0.00000000000E+00 0. -1.
         21   -1    0    0  501  503 -0.00000000000E+00 -0.00000000000E+00 -0.26389148266E+03  0.26389148266E+03  0.00000000000E+00 0. -1.
          6    1    1    2  501    0  0.27750517130E+02  0.99365569357E+02 -0.16660806135E+03  0.26140170941E+03  0.17300000000E+03 0.  1.
         -6    1    1    2    0  502 -0.27750517130E+02 -0.99365569357E+02  0.15343759088E+03  0.25321078546E+03  0.17300000000E+03 0.  1.
<mgrwt>
<rscale>  2 0.20142643E+03</rscale>
<asrwt>0</asrwt>
<pdfrwt beam="1">  1       21 0.38572463E-01 0.20142643E+03</pdfrwt>
<pdfrwt beam="2">  1       21 0.40598690E-01 0.20142643E+03</pdfrwt>
<totfact> 0.37710177E+04</totfact>
</mgrwt>
</event>
<event>
 4    1  0.4199484E+000  0.1737775E+03  0.7546771E-02  0.1173965E+00
         21   -1    0    0  503  502  0.00000000000E+00  0.00000000000E+00  0.82471080284E+02  0.82471080284E+02  0.00000000000E+00 0.  1.
         21   -1    0    0  501  503 -0.00000000000E+00 -0.00000000000E+00 -0.99028630687E+03  0.99028630687E+03  0.00000000000E+00 0.  1.
          6    1    1    2  501    0  0.10530172949E+02  0.12599126690E+02 -0.87972472221E+03  0.89672415458E+03  0.17300000000E+03 0.  1.
         -6    1    1    2    0  502 -0.10530172949E+02 -0.12599126690E+02 -0.28090504377E+02  0.17603323258E+03  0.17300000000E+03 0.  1.
<mgrwt>
<rscale>  2 0.17377751E+03</rscale>
<asrwt>0</asrwt>
<pdfrwt beam="1">  1       21 0.12687858E-01 0.17377751E+03</pdfrwt>
<pdfrwt beam="2">  1       21 0.15235174E+00 0.17377751E+03</pdfrwt>
<totfact> 0.15443979E+04</totfact>
</mgrwt>
</event>
<event>
 4    1  0.4199484E+000  0.1915144E+03  0.7546771E-02  0.1157103E+00
         21   -1    0    0  501  502  0.00000000000E+00  0.00000000000E+00  0.19857934292E+03  0.19857934292E+03  0.00000000000E+00 0. -1.
         21   -1    0    0  502  503 -0.00000000000E+00 -0.00000000000E+00 -0.37495089754E+03  0.37495089754E+03  0.00000000000E+00 0. -1.
          6    1    1    2  501    0  0.39965161619E+01 -0.82053518013E+02  0.11608283464E+03  0.22394860227E+03  0.17300000000E+03 0. -1.
         -6    1    1    2    0  503 -0.39965161619E+01  0.82053518013E+02 -0.29245438926E+03  0.34958163819E+03  0.17300000000E+03 0. -1.
<mgrwt>
<rscale>  2 0.19151436E+03</rscale>
<asrwt>0</asrwt>
<pdfrwt beam="1">  1       21 0.30550668E-01 0.19151436E+03</pdfrwt>
<pdfrwt beam="2">  1       21 0.57684753E-01 0.19151436E+03</pdfrwt>
<totfact> 0.29010669E+04</totfact>
</mgrwt>
</event>
<event>
 4    1  0.4199484E+000  0.2458796E+03  0.7546771E-02  0.1115937E+00
         21   -1    0    0  503  502  0.00000000000E+00  0.00000000000E+00  0.48303751144E+03  0.48303751144E+03  0.00000000000E+00 0. -1.
         21   -1    0    0  501  503 -0.00000000000E+00 -0.00000000000E+00 -0.12668315293E+03  0.12668315293E+03  0.00000000000E+00 0. -1.
          6    1    1    2  501    0 -0.81242912820E+02  0.15468475436E+03  0.21160973306E+03  0.32440015913E+03  0.17300000000E+03 0. -1.
         -6    1    1    2    0  502  0.81242912820E+02 -0.15468475436E+03  0.14474462544E+03  0.28532050524E+03  0.17300000000E+03 0. -1.
<mgrwt>
<rscale>  2 0.24587961E+03</rscale>
<asrwt>0</asrwt>
<pdfrwt beam="1">  1       21 0.74313462E-01 0.24587961E+03</pdfrwt>
<pdfrwt beam="2">  1       21 0.19489716E-01 0.24587961E+03</pdfrwt>
<totfact> 0.38309585E+04</totfact>
</mgrwt>
</event>
<event>
 4    1  0.4199484E+000  0.1884876E+03  0.7546771E-02  0.1159833E+00
         21   -1    0    0  501  502  0.00000000000E+00  0.00000000000E+00  0.48503126321E+03  0.48503126321E+03  0.00000000000E+00 0.  1.
         21   -1    0    0  502  503 -0.00000000000E+00 -0.00000000000E+00 -0.90546625247E+02  0.90546625247E+02  0.00000000000E+00 0.  1.
          6    1    1    2  501    0  0.28603308428E+02 -0.69140593724E+02  0.32303163087E+03  0.37400134424E+03  0.17300000000E+03 0.  1.
         -6    1    1    2    0  503 -0.28603308428E+02  0.69140593724E+02  0.71453007090E+02  0.20157654421E+03  0.17300000000E+03 0.  1.
<mgrwt>
<rscale>  2 0.18848759E+03</rscale>
<asrwt>0</asrwt>
<pdfrwt beam="1">  1       21 0.74620193E-01 0.18848759E+03</pdfrwt>
<pdfrwt beam="2">  1       21 0.13930250E-01 0.18848759E+03</pdfrwt>
<totfact> 0.72279863E+04</totfact>
</mgrwt>
</event>
<event>
 4    1  0.4199484E+000  0.1813787E+03  0.7546771E-02  0.1166475E+00
         21   -1    0    0  503  502  0.00000000000E+00  0.00000000000E+00  0.25072603429E+03  0.25072603429E+03  0.00000000000E+00 0.  1.
         21   -1    0    0  501  503 -0.00000000000E+00 -0.00000000000E+00 -0.18402544180E+03  0.18402544180E+03  0.00000000000E+00 0.  1.
          6    1    1    2  501    0 -0.34315501416E+02  0.42328243786E+02 -0.83101145978E+02  0.19950948429E+03  0.17300000000E+03 0.  1.
         -6    1    1    2    0  502  0.34315501416E+02 -0.42328243786E+02  0.14980173846E+03  0.23524199180E+03  0.17300000000E+03 0.  1.
<mgrwt>
<rscale>  2 0.18137870E+03</rscale>
<asrwt>0</asrwt>
<pdfrwt beam="1">  1       21 0.38573236E-01 0.18137870E+03</pdfrwt>
<pdfrwt beam="2">  1       21 0.28311606E-01 0.18137870E+03</pdfrwt>
<totfact> 0.77643674E+04</totfact>
</mgrwt>
</event>
<event>
 4    1  0.4199484E+000  0.2051182E+03  0.7546771E-02  0.1145491E+00
         21   -1    0    0  501  502  0.00000000000E+00  0.00000000000E+00  0.56534556774E+03  0.56534556774E+03  0.00000000000E+00 0.  1.
         21   -1    0    0  502  503 -0.00000000000E+00 -0.00000000000E+00 -0.74934744727E+02  0.74934744727E+02  0.00000000000E+00 0.  1.
          6    1    1    2  501    0  0.10683296407E+03  0.27040446795E+02  0.21869247516E+03  0.29983306467E+03  0.17300000000E+03 0.  1.
         -6    1    1    2    0  503 -0.10683296407E+03 -0.27040446795E+02  0.27171834785E+03  0.34044724780E+03  0.17300000000E+03 0.  1.
<mgrwt>
<rscale>  2 0.20511818E+03</rscale>
<asrwt>0</asrwt>
<pdfrwt beam="1">  1       21 0.86976238E-01 0.20511818E+03</pdfrwt>
<pdfrwt beam="2">  1       21 0.11528423E-01 0.20511818E+03</pdfrwt>
<totfact> 0.71247974E+04</totfact>
</mgrwt>
</event>
<event>
 4    1  0.4199484E+000  0.1859655E+03  0.7546771E-02  0.1162151E+00
         21   -1    0    0  501  502  0.00000000000E+00  0.00000000000E+00  0.11255695107E+03  0.11255695107E+03  0.00000000000E+00 0.  1.
         21   -1    0    0  502  503 -0.00000000000E+00 -0.00000000000E+00 -0.30864223973E+03  0.30864223973E+03  0.00000000000E+00 0.  1.
          6    1    1    2  501    0  0.29575948089E+02 -0.61477061077E+02 -0.11218520085E+03  0.21718352846E+03  0.17300000000E+03 0.  1.
         -6    1    1    2    0  503 -0.29575948089E+02  0.61477061077E+02 -0.83900087811E+02  0.20401566234E+03  0.17300000000E+03 0.  1.
<mgrwt>
<rscale>  2 0.18596550E+03</rscale>
<asrwt>0</asrwt>
<pdfrwt beam="1">  1       21 0.17316454E-01 0.18596550E+03</pdfrwt>
<pdfrwt beam="2">  1       21 0.47483421E-01 0.18596550E+03</pdfrwt>
<totfact> 0.12821116E+05</totfact>
</mgrwt>
</event>
<event>
 4    1  0.4199484E+000  0.1839542E+03  0.7546771E-02  0.1164030E+00
         21   -1    0    0  501  502  0.00000000000E+00  0.00000000000E+00  0.10484982251E+04  0.10484982251E+04  0.00000000000E+00 0.  1.
         21   -1    0    0  502  503 -0.00000000000E+00 -0.00000000000E+00 -0.33212076995E+02  0.33212076995E+02  0.00000000000E+00 0.  1.
          6    1    1    2  501    0  0.20968464743E+02 -0.58910792629E+02  0.59854403390E+03  0.62617419184E+03  0.17300000000E+03 0.  1.
         -6    1    1    2    0  503 -0.20968464743E+02  0.58910792629E+02  0.41674211424E+03  0.45553611029E+03  0.17300000000E+03 0.  1.
<mgrwt>
<rscale>  2 0.18395423E+03</rscale>
<asrwt>0</asrwt>
<pdfrwt beam="1">  1       21 0.16130739E+00 0.18395423E+03</pdfrwt>
<pdfrwt beam="2">  1       21 0.51095511E-02 0.18395423E+03</pdfrwt>
<totfact> 0.64145472E+04</totfact>
</mgrwt>
</event>
<event>
 4    1  0.4199484E+000  0.1887435E+03  0.7546771E-02  0.1159600E+00
         21   -1    0    0  501  502  0.00000000000E+00  0.00000000000E+00  0.84958463329E+02  0.84958463329E+02  0.00000000000E+00 0. -1.
         21   -1    0    0  502  503 -0.00000000000E+00 -0.00000000000E+00 -0.42511635589E+03  0.42511635589E+03  0.00000000000E+00 0. -1.
          6    1    1    2  501    0 -0.68167002329E+02  0.32378600672E+02 -0.14027853646E+03  0.23516415922E+03  0.17300000000E+03 0. -1.
         -6    1    1    2    0  503  0.68167002329E+02 -0.32378600672E+02 -0.19987935609E+03  0.27491066000E+03  0.17300000000E+03 0. -1.
<mgrwt>
<rscale>  2 0.18874351E+03</rscale>
<asrwt>0</asrwt>
<pdfrwt beam="1">  1       21 0.13070532E-01 0.18874351E+03</pdfrwt>
<pdfrwt beam="2">  1       21 0.65402518E-01 0.18874351E+03</pdfrwt>
<totfact> 0.10840613E+05</totfact>
</mgrwt>
</event>
<event>
 4    1  0.4199484E+000  0.1842809E+03  0.7546771E-02  0.1163723E+00
         21   -1    0    0  503  502  0.00000000000E+00  0.00000000000E+00  0.89605789895E+03  0.89605789895E+03  0.00000000000E+00 0. -1.
         21   -1    0    0  501  503 -0.00000000000E+00 -0.00000000000E+00 -0.10476643081E+03  0.10476643081E+03  0.00000000000E+00 0. -1.
          6    1    1    2  501    0 -0.31090267338E+02  0.55351867062E+02 -0.41379457656E+01  0.18432730808E+03  0.17300000000E+03 0. -1.
         -6    1    1    2    0  502  0.31090267338E+02 -0.55351867062E+02  0.79542941390E+03  0.81649702168E+03  0.17300000000E+03 0. -1.
<mgrwt>
<rscale>  2 0.18428086E+03</rscale>
<asrwt>0</asrwt>
<pdfrwt beam="1">  1       21 0.13785506E+00 0.18428086E+03</pdfrwt>
<pdfrwt beam="2">  1       21 0.16117913E-01 0.18428086E+03</pdfrwt>
<totfact> 0.12886914E+04</totfact>
</mgrwt>
</event>
<event>
 4    1  0.4199484E+000  0.2338208E+03  0.7546771E-02  0.1123979E+00
         21   -1    0    0  503  502  0.00000000000E+00  0.00000000000E+00  0.24424086272E+03  0.24424086272E+03  0.00000000000E+00 0.  1.
         21   -1    0    0  501  503 -0.00000000000E+00 -0.00000000000E+00 -0.26477306499E+03  0.26477306499E+03  0.00000000000E+00 0.  1.
          6    1    1    2  501    0  0.13423839652E+03  0.81995219125E+02 -0.11032873178E+03  0.25854321131E+03  0.17300000000E+03 0.  1.
         -6    1    1    2    0  502 -0.13423839652E+03 -0.81995219125E+02  0.89796529515E+02  0.25047071640E+03  0.17300000000E+03 0.  1.
<mgrwt>
<rscale>  2 0.23382079E+03</rscale>
<asrwt>0</asrwt>
<pdfrwt beam="1">  1       21 0.37575518E-01 0.23382079E+03</pdfrwt>
<pdfrwt beam="2">  1       21 0.40734317E-01 0.23382079E+03</pdfrwt>
<totfact> 0.38868693E+04</totfact>
</mgrwt>
</event>
<event>
 4    1  0.4199484E+000  0.2005624E+03  0.7546771E-02  0.1149265E+00
         21   -1    0    0  503  502  0.00000000000E+00  0.00000000000E+00  0.44515535216E+03  0.44515535216E+03  0.00000000000E+00 0.  1.
         21   -1    0    0  501  503 -0.00000000000E+00 -0.00000000000E+00 -0.11650678726E+03  0.11650678726E+03  0.00000000000E+00 0.  1.
          6    1    1    2  501    0 -0.17836593679E+01 -0.10145491439E+03  0.31291326990E+02  0.20298873920E+03  0.17300000000E+03 0.  1.
         -6    1    1    2    0  502  0.17836593679E+01  0.10145491439E+03  0.29735723791E+03  0.35867340023E+03  0.17300000000E+03 0.  1.
<mgrwt>
<rscale>  2 0.20056241E+03</rscale>
<asrwt>0</asrwt>
<pdfrwt beam="1">  1       21 0.68485438E-01 0.20056241E+03</pdfrwt>
<pdfrwt beam="2">  1       21 0.17924121E-01 0.20056241E+03</pdfrwt>
<totfact> 0.54804880E+04</totfact>
</mgrwt>
</event>
<event>
 4    1  0.4199484E+000  0.1794152E+03  0.7546771E-02  0.1168370E+00
         21   -1    0    0  503  502  0.00000000000E+00  0.00000000000E+00  0.13727973305E+04  0.13727973305E+04  0.00000000000E+00 0. -1.
         21   -1    0    0  501  503 -0.00000000000E+00 -0.00000000000E+00 -0.23467162151E+02  0.23467162151E+02  0.00000000000E+00 0. -1.
          6    1    1    2  501    0 -0.14673718278E+02 -0.45227175239E+02  0.69443790648E+03  0.71724042088E+03  0.17300000000E+03 0. -1.
         -6    1    1    2    0  502  0.14673718278E+02  0.45227175239E+02  0.65489226185E+03  0.67902407175E+03  0.17300000000E+03 0. -1.
<mgrwt>
<rscale>  2 0.17941520E+03</rscale>
<asrwt>0</asrwt>
<pdfrwt beam="1">  1       21 0.21119953E+00 0.17941520E+03</pdfrwt>
<pdfrwt beam="2">  1       21 0.36103337E-02 0.17941520E+03</pdfrwt>
<totfact> 0.53527023E+04</totfact>
</mgrwt>
</event>
<event>
 4    1  0.4199484E+000  0.1805053E+03  0.7546771E-02  0.1167315E+00
         21   -1    0    0  503  502  0.00000000000E+00  0.00000000000E+00  0.34270773186E+02  0.34270773186E+02  0.00000000000E+00 0. -1.
         21   -1    0    0  501  503 -0.00000000000E+00 -0.00000000000E+00 -0.12673489738E+04  0.12673489738E+04  0.00000000000E+00 0. -1.
          6    1    1    2  501    0  0.45002460062E+02 -0.25058928554E+02 -0.94183314406E+03  0.95897437013E+03  0.17300000000E+03 0. -1.
         -6    1    1    2    0  502 -0.45002460062E+02  0.25058928554E+02 -0.29124505653E+03  0.34264537683E+03  0.17300000000E+03 0. -1.
<mgrwt>
<rscale>  2 0.18050532E+03</rscale>
<asrwt>0</asrwt>
<pdfrwt beam="1">  1       21 0.52724260E-02 0.18050532E+03</pdfrwt>
<pdfrwt beam="2">  1       21 0.19497679E+00 0.18050532E+03</pdfrwt>
<totfact> 0.35867084E+04</totfact>
</mgrwt>
</event>
<event>
 4    1  0.4199484E+000  0.1749497E+03  0.7546771E-02  0.1172782E+00
         21   -1    0    0  501  502  0.00000000000E+00  0.00000000000E+00  0.28312412641E+03  0.28312412641E+03  0.00000000000E+00 0. -1.
         21   -1    0    0  502  503 -0.00000000000E+00 -0.00000000000E+00 -0.12074527876E+03  0.12074527876E+03  0.00000000000E+00 0. -1.
          6    1    1    2  501    0  0.15496340718E+02 -0.20935080182E+02  0.14652311374E+03  0.22820262272E+03  0.17300000000E+03 0. -1.
         -6    1    1    2    0  503 -0.15496340718E+02  0.20935080182E+02  0.15855733905E+02  0.17566678245E+03  0.17300000000E+03 0. -1.
<mgrwt>
<rscale>  2 0.17494975E+03</rscale>
<asrwt>0</asrwt>
<pdfrwt beam="1">  1       21 0.43557558E-01 0.17494975E+03</pdfrwt>
<pdfrwt beam="2">  1       21 0.18576197E-01 0.17494975E+03</pdfrwt>
<totfact> 0.13497621E+05</totfact>
</mgrwt>
</event>
<event>
 4    1  0.4199484E+000  0.2407254E+03  0.7546771E-02  0.1119310E+00
         21   -1    0    0  501  502  0.00000000000E+00  0.00000000000E+00  0.10658472952E+04  0.10658472952E+04  0.00000000000E+00 0. -1.
         21   -1    0    0  502  503 -0.00000000000E+00 -0.00000000000E+00 -0.71952065354E+02  0.71952065354E+02  0.00000000000E+00 0.  1.
          6    1    1    2  501    0  0.10782440619E+03 -0.12803763252E+03  0.77817977784E+03  0.81456276894E+03  0.17300000000E+03 0. -1.
         -6    1    1    2    0  503 -0.10782440619E+03  0.12803763252E+03  0.21571545196E+03  0.32323659156E+03  0.17300000000E+03 0.  1.
<mgrwt>
<rscale>  2 0.24072544E+03</rscale>
<asrwt>0</asrwt>
<pdfrwt beam="1">  1       21 0.16397650E+00 0.24072544E+03</pdfrwt>
<pdfrwt beam="2">  1       21 0.11069549E-01 0.24072544E+03</pdfrwt>
<totfact> 0.15453877E+04</totfact>
</mgrwt>
</event>
<event>
 4    1  0.4199484E+000  0.2139274E+03  0.7546771E-02  0.1138493E+00
         21   -1    0    0  501  502  0.00000000000E+00  0.00000000000E+00  0.45114049477E+02  0.45114049477E+02  0.00000000000E+00 0.  1.
         21   -1    0    0  502  503 -0.00000000000E+00 -0.00000000000E+00 -0.10304065347E+04  0.10304065347E+04  0.00000000000E+00 0.  1.
          6    1    1    2  501    0  0.54043327515E+02 -0.11364521249E+03 -0.42567863634E+03  0.47641076500E+03  0.17300000000E+03 0.  1.
         -6    1    1    2    0  503 -0.54043327515E+02  0.11364521249E+03 -0.55961384889E+03  0.59910981918E+03  0.17300000000E+03 0.  1.
<mgrwt>
<rscale>  2 0.21392736E+03</rscale>
<asrwt>0</asrwt>
<pdfrwt beam="1">  1       21 0.69406238E-02 0.21392736E+03</pdfrwt>
<pdfrwt beam="2">  1       21 0.15852406E+00 0.21392736E+03</pdfrwt>
<totfact> 0.39112898E+04</totfact>
</mgrwt>
</event>
<event>
 4    1  0.4199484E+000  0.1828011E+03  0.7546771E-02  0.1165119E+00
         21   -1    0    0  503  502  0.00000000000E+00  0.00000000000E+00  0.27649264910E+03  0.27649264910E+03  0.00000000000E+00 0.  1.
         21   -1    0    0  501  503 -0.00000000000E+00 -0.00000000000E+00 -0.16519006882E+03  0.16519006882E+03  0.00000000000E+00 0.  1.
          6    1    1    2  501    0  0.74138977714E+01 -0.58585529739E+02 -0.58754904632E+02  0.19201137725E+03  0.17300000000E+03 0.  1.
         -6    1    1    2    0  502 -0.74138977714E+01  0.58585529739E+02  0.17005748492E+03  0.24967134067E+03  0.17300000000E+03 0.  1.
<mgrwt>
<rscale>  2 0.18280107E+03</rscale>
<asrwt>0</asrwt>
<pdfrwt beam="1">  1       21 0.42537331E-01 0.18280107E+03</pdfrwt>
<pdfrwt beam="2">  1       21 0.25413857E-01 0.18280107E+03</pdfrwt>
<totfact> 0.78359620E+04</totfact>
</mgrwt>
</event>
<event>
 4    1  0.4199484E+000  0.2428415E+03  0.7546771E-02  0.1117914E+00
         21   -1    0    0  501  502  0.00000000000E+00  0.00000000000E+00  0.30825102922E+03  0.30825102922E+03  0.00000000000E+00 0.  1.
         21   -1    0    0  502  503 -0.00000000000E+00 -0.00000000000E+00 -0.25460684674E+03  0.25460684674E+03  0.00000000000E+00 0.  1.
          6    1    1    2  501    0  0.16426077340E+03 -0.45402676696E+02  0.16714196392E+03  0.29480237589E+03  0.17300000000E+03 0.  1.
         -6    1    1    2    0  503 -0.16426077340E+03  0.45402676696E+02 -0.11349778143E+03  0.26805550007E+03  0.17300000000E+03 0.  1.
<mgrwt>
<rscale>  2 0.24284152E+03</rscale>
<asrwt>0</asrwt>
<pdfrwt beam="1">  1       21 0.47423235E-01 0.24284152E+03</pdfrwt>
<pdfrwt beam="2">  1       21 0.39170284E-01 0.24284152E+03</pdfrwt>
<totfact> 0.26031545E+04</totfact>
</mgrwt>
</event>
<event>
 4    1  0.4199484E+000  0.1946117E+03  0.7546771E-02  0.1154366E+00
         21   -1    0    0  503  502  0.00000000000E+00  0.00000000000E+00  0.30383483161E+02  0.30383483161E+02  0.00000000000E+00 0. -1.
         21   -1    0    0  501  503 -0.00000000000E+00 -0.00000000000E+00 -0.12846535588E+04  0.12846535588E+04  0.00000000000E+00 0. -1.
          6    1    1    2  501    0  0.89074316587E+02  0.32384229204E+01 -0.74041407829E+03  0.76556301412E+03  0.17300000000E+03 0. -1.
         -6    1    1    2    0  502 -0.89074316587E+02 -0.32384229204E+01 -0.51385599733E+03  0.54947402782E+03  0.17300000000E+03 0. -1.
<mgrwt>
<rscale>  2 0.19461172E+03</rscale>
<asrwt>0</asrwt>
<pdfrwt beam="1">  1       21 0.46743804E-02 0.19461172E+03</pdfrwt>
<pdfrwt beam="2">  1       21 0.19763908E+00 0.19461172E+03</pdfrwt>
<totfact> 0.41864947E+04</totfact>
</mgrwt>
</event>
<event>
 4    1  0.4199484E+000  0.2089709E+03  0.7546771E-02  0.1142384E+00
         21   -1    0    0  501  502  0.00000000000E+00  0.00000000000E+00  0.26014578567E+03  0.26014578567E+03  0.00000000000E+00 0. -1.
         21   -1    0    0  502  503 -0.00000000000E+00 -0.00000000000E+00 -0.21623647137E+03  0.21623647137E+03  0.00000000000E+00 0.  1.
          6    1    1    2  501    0 -0.10912297811E+03 -0.42801926701E+02  0.13461345915E+03  0.24857516503E+03  0.17300000000E+03 0. -1.
         -6    1    1    2    0  503  0.10912297811E+03  0.42801926701E+02 -0.90704144853E+02  0.22780709202E+03  0.17300000000E+03 0.  1.
<mgrwt>
<rscale>  2 0.20897088E+03</rscale>
<asrwt>0</asrwt>
<pdfrwt beam="1">  1       21 0.40022428E-01 0.20897088E+03</pdfrwt>
<pdfrwt beam="2">  1       21 0.33267150E-01 0.20897088E+03</pdfrwt>
<totfact> 0.51944861E+04</totfact>
</mgrwt>
</event>
<event>
 4    1  0.4199484E+000  0.1818287E+03  0.7546771E-02  0.1166045E+00
         21   -1    0    0  501  502  0.00000000000E+00  0.00000000000E+00  0.38776050228E+03  0.38776050228E+03  0.00000000000E+00 0. -1.
         21   -1    0    0  502  503 -0.00000000000E+00 -0.00000000000E+00 -0.12785139077E+03  0.12785139077E+03  0.00000000000E+00 0. -1.
          6    1    1    2  501    0 -0.12449951411E+02  0.54568185895E+02  0.27874840167E+03  0.33280979498E+03  0.17300000000E+03 0. -1.
         -6    1    1    2    0  503  0.12449951411E+02 -0.54568185895E+02 -0.18839290163E+02  0.18280209806E+03  0.17300000000E+03 0. -1.
<mgrwt>
<rscale>  2 0.18182873E+03</rscale>
<asrwt>0</asrwt>
<pdfrwt beam="1">  1       21 0.59655461E-01 0.18182873E+03</pdfrwt>
<pdfrwt beam="2">  1       21 0.19669445E-01 0.18182873E+03</pdfrwt>
<totfact> 0.62770015E+04</totfact>
</mgrwt>
</event>
<event>
 4    1  0.4199484E+000  0.2342122E+03  0.7546771E-02  0.1123710E+00
         21   -1    0    0  501  502  0.00000000000E+00  0.00000000000E+00  0.30044388809E+03  0.30044388809E+03  0.00000000000E+00 0.  1.
         21   -1    0    0  502  503 -0.00000000000E+00 -0.00000000000E+00 -0.25252986856E+03  0.25252986856E+03  0.00000000000E+00 0. -1.
          6    1    1    2  501    0 -0.15688079499E+03  0.17741522624E+02  0.16947225533E+03  0.28909547003E+03  0.17300000000E+03 0.  1.
         -6    1    1    2    0  503  0.15688079499E+03 -0.17741522624E+02 -0.12155823580E+03  0.26387828663E+03  0.17300000000E+03 0. -1.
<mgrwt>
<rscale>  2 0.23421218E+03</rscale>
<asrwt>0</asrwt>
<pdfrwt beam="1">  1       21 0.46222137E-01 0.23421218E+03</pdfrwt>
<pdfrwt beam="2">  1       21 0.38850749E-01 0.23421218E+03</pdfrwt>
<totfact> 0.28028234E+04</totfact>
</mgrwt>
</event>
<event>
 4    1  0.4199484E+000  0.2374846E+03  0.7546771E-02  0.1121480E+00
         21   -1    0    0  501  502  0.00000000000E+00  0.00000000000E+00  0.28972035830E+03  0.28972035830E+03  0.00000000000E+00 0.  1.
         21   -1    0    0  502  503 -0.00000000000E+00 -0.00000000000E+00 -0.28895343552E+03  0.28895343552E+03  0.00000000000E+00 0. -1.
          6    1    1    2  501    0  0.15428770375E+03  0.51625804242E+02  0.16566147462E+03  0.28955594169E+03  0.17300000000E+03 0.  1.
         -6    1    1    2    0  503 -0.15428770375E+03 -0.51625804242E+02 -0.16489455184E+03  0.28911785213E+03  0.17300000000E+03 0. -1.
<mgrwt>
<rscale>  2 0.23748457E+03</rscale>
<asrwt>0</asrwt>
<pdfrwt beam="1">  1       21 0.44572363E-01 0.23748457E+03</pdfrwt>
<pdfrwt beam="2">  1       21 0.44454374E-01 0.23748457E+03</pdfrwt>
<totfact> 0.22913156E+04</totfact>
</mgrwt>
</event>
<event>
 4    1  0.4199484E+000  0.1779106E+03  0.7546771E-02  0.1169841E+00
         21   -1    0    0  503  502  0.00000000000E+00  0.00000000000E+00  0.24719549881E+03  0.24719549881E+03  0.00000000000E+00 0. -1.
         21   -1    0    0  501  503 -0.00000000000E+00 -0.00000000000E+00 -0.58891393908E+03  0.58891393908E+03  0.00000000000E+00 0. -1.
          6    1    1    2  501    0  0.20482530427E+02 -0.36105856146E+02 -0.54068390517E+03  0.56920229463E+03  0.17300000000E+03 0. -1.
         -6    1    1    2    0  502 -0.20482530427E+02  0.36105856146E+02  0.19896546490E+03  0.26690714326E+03  0.17300000000E+03 0. -1.
<mgrwt>
<rscale>  2 0.17791056E+03</rscale>
<asrwt>0</asrwt>
<pdfrwt beam="1">  1       21 0.38030077E-01 0.17791056E+03</pdfrwt>
<pdfrwt beam="2">  1       21 0.90602144E-01 0.17791056E+03</pdfrwt>
<totfact> 0.69754463E+03</totfact>
</mgrwt>
</event>
<event>
 4    1  0.4199484E+000  0.2981388E+03  0.7546771E-02  0.1086175E+00
         21   -1    0    0  503  502  0.00000000000E+00  0.00000000000E+00  0.55164496851E+03  0.55164496851E+03  0.00000000000E+00 0. -1.
         21   -1    0    0  501  503 -0.00000000000E+00 -0.00000000000E+00 -0.19304122654E+03  0.19304122654E+03  0.00000000000E+00 0.  1.
          6    1    1    2  501    0  0.19740979764E+03  0.14137589132E+03  0.27915302793E+02  0.29944287432E+03  0.17300000000E+03 0.  1.
         -6    1    1    2    0  502 -0.19740979764E+03 -0.14137589132E+03  0.33068843918E+03  0.44524332073E+03  0.17300000000E+03 0. -1.
<mgrwt>
<rscale>  2 0.29813884E+03</rscale>
<asrwt>0</asrwt>
<pdfrwt beam="1">  1       21 0.84868456E-01 0.29813884E+03</pdfrwt>
<pdfrwt beam="2">  1       21 0.29698650E-01 0.29813884E+03</pdfrwt>
<totfact> 0.12331805E+04</totfact>
</mgrwt>
</event>
<event>
 4    1  0.4199484E+000  0.1762746E+03  0.7546771E-02  0.1171458E+00
         21   -1    0    0  501  502  0.00000000000E+00  0.00000000000E+00  0.14886764771E+03  0.14886764771E+03  0.00000000000E+00 0.  1.
         21   -1    0    0  502  503 -0.00000000000E+00 -0.00000000000E+00 -0.30942890704E+03  0.30942890704E+03  0.00000000000E+00 0.  1.
          6    1    1    2  501    0 -0.33751086197E+02  0.21452223743E+01  0.50443096632E+02  0.18335005808E+03  0.17300000000E+03 0. -1.
         -6    1    1    2    0  503  0.33751086197E+02 -0.21452223743E+01 -0.21100435596E+03  0.27494649667E+03  0.17300000000E+03 0. -1.
<mgrwt>
<rscale>  2 0.17627461E+03</rscale>
<asrwt>0</asrwt>
<pdfrwt beam="1">  1       21 0.22902715E-01 0.17627461E+03</pdfrwt>
<pdfrwt beam="2">  1       21 0.47604447E-01 0.17627461E+03</pdfrwt>
<totfact> 0.76013273E+04</totfact>
</mgrwt>
</event>
<event>
 4    1  0.4199484E+000  0.1832819E+03  0.7546771E-02  0.1164664E+00
         21   -1    0    0  501  502  0.00000000000E+00  0.00000000000E+00  0.10476543080E+04  0.10476543080E+04  0.00000000000E+00 0.  1.
         21   -1    0    0  502  503 -0.00000000000E+00 -0.00000000000E+00 -0.33949921434E+02  0.33949921434E+02  0.00000000000E+00 0.  1.
          6    1    1    2  501    0  0.33825106239E+02  0.50190769992E+02  0.63430571321E+03  0.66025448807E+03  0.17300000000E+03 0.  1.
         -6    1    1    2    0  503 -0.33825106239E+02 -0.50190769992E+02  0.37939867337E+03  0.42134974138E+03  0.17300000000E+03 0.  1.
<mgrwt>
<rscale>  2 0.18328189E+03</rscale>
<asrwt>0</asrwt>
<pdfrwt beam="1">  1       21 0.16117756E+00 0.18328189E+03</pdfrwt>
<pdfrwt beam="2">  1       21 0.52230656E-02 0.18328189E+03</pdfrwt>
<totfact> 0.61956094E+04</totfact>
</mgrwt>
</event>
<event>
 4    1  0.4199484E+000  0.2316335E+03  0.7546771E-02  0.1125495E+00
         21   -1    0    0  503  502  0.00000000000E+00  0.00000000000E+00  0.10889840303E+03  0.10889840303E+03  0.00000000000E+00 0. -1.
         21   -1    0    0  501  503 -0.00000000000E+00 -0.00000000000E+00 -0.59455012703E+03  0.59455012703E+03  0.00000000000E+00 0.  1.
          6    1    1    2  501    0  0.15245984579E+03 -0.21933201979E+02 -0.38840269664E+03  0.45222861993E+03  0.17300000000E+03 0. -1.
         -6    1    1    2    0  502 -0.15245984579E+03  0.21933201979E+02 -0.97249027353E+02  0.25121991013E+03  0.17300000000E+03 0. -1.
<mgrwt>
<rscale>  2 0.23163348E+03</rscale>
<asrwt>0</asrwt>
<pdfrwt beam="1">  1       21 0.16753601E-01 0.23163348E+03</pdfrwt>
<pdfrwt beam="2">  1       21 0.91469249E-01 0.23163348E+03</pdfrwt>
<totfact> 0.31762115E+04</totfact>
</mgrwt>
</event>
<event>
 4    1  0.4199484E+000  0.2201941E+03  0.7546771E-02  0.1133738E+00
         21   -1    0    0  501  502  0.00000000000E+00  0.00000000000E+00  0.34540937982E+03  0.34540937982E+03  0.00000000000E+00 0. -1.
         21   -1    0    0  502  503 -0.00000000000E+00 -0.00000000000E+00 -0.14050836954E+03  0.14050836954E+03  0.00000000000E+00 0.  1.
          6    1    1    2  501    0 -0.13007854739E+03  0.40447562067E+02  0.94851667692E+02  0.23975460920E+03  0.17300000000E+03 0.  1.
         -6    1    1    2    0  503  0.13007854739E+03 -0.40447562067E+02  0.11004934259E+03  0.24616314016E+03  0.17300000000E+03 0. -1.
<mgrwt>
<rscale>  2 0.22019408E+03</rscale>
<asrwt>0</asrwt>
<pdfrwt beam="1">  1       21 0.53139904E-01 0.22019408E+03</pdfrwt>
<pdfrwt beam="2">  1       21 0.21616672E-01 0.22019408E+03</pdfrwt>
<totfact> 0.66111434E+04</totfact>
</mgrwt>
</event>
<event>
 4    1  0.4199484E+000  0.2216999E+03  0.7546771E-02  0.1132622E+00
         21   -1    0    0  503  502  0.00000000000E+00  0.00000000000E+00  0.35334289326E+03  0.35334289326E+03  0.00000000000E+00 0. -1.
         21   -1    0    0  501  503 -0.00000000000E+00 -0.00000000000E+00 -0.25176877690E+03  0.25176877690E+03  0.00000000000E+00 0. -1.
          6    1    1    2  501    0  0.13391405283E+03  0.35901076779E+02 -0.15160882431E+03  0.26858163836E+03  0.17300000000E+03 0. -1.
         -6    1    1    2    0  502 -0.13391405283E+03 -0.35901076779E+02  0.25318294066E+03  0.33653003179E+03  0.17300000000E+03 0. -1.
<mgrwt>
<rscale>  2 0.22169993E+03</rscale>
<asrwt>0</asrwt>
<pdfrwt beam="1">  1       21 0.54360445E-01 0.22169993E+03</pdfrwt>
<pdfrwt beam="2">  1       21 0.38733658E-01 0.22169993E+03</pdfrwt>
<totfact> 0.20205858E+04</totfact>
</mgrwt>
</event>
<event>
 4    1  0.4199484E+000  0.1816224E+03  0.7546771E-02  0.1166242E+00
         21   -1    0    0  501  502  0.00000000000E+00  0.00000000000E+00  0.19439535516E+03  0.19439535516E+03  0.00000000000E+00 0.  1.
         21   -1    0    0  502  503 -0.00000000000E+00 -0.00000000000E+00 -0.18238610107E+03  0.18238610107E+03  0.00000000000E+00 0.  1.
          6    1    1    2  501    0 -0.44222687530E+02 -0.33196999763E+02  0.55712112798E+02  0.18997506783E+03  0.17300000000E+03 0.  1.
         -6    1    1    2    0  503  0.44222687530E+02  0.33196999763E+02 -0.43702858706E+02  0.18680638839E+03  0.17300000000E+03 0.  1.
<mgrwt>
<rscale>  2 0.18162237E+03</rscale>
<asrwt>0</asrwt>
<pdfrwt beam="1">  1       21 0.29906978E-01 0.18162237E+03</pdfrwt>
<pdfrwt beam="2">  1       21 0.28059400E-01 0.18162237E+03</pdfrwt>
<totfact> 0.13057024E+05</totfact>
</mgrwt>
</event>
<event>
 4    1  0.4199484E+000  0.2248738E+03  0.7546771E-02  0.1130301E+00
         21   -1    0    0  501  502  0.00000000000E+00  0.00000000000E+00  0.64792953103E+02  0.64792953103E+02  0.00000000000E+00 0.  1.
         21   -1    0    0  502  503 -0.00000000000E+00 -0.00000000000E+00 -0.78122522284E+03  0.78122522284E+03  0.00000000000E+00 0.  1.
          6    1    1    2  501    0 -0.97948601075E+02  0.10509652141E+03 -0.34496365812E+03  0.41178651349E+03  0.17300000000E+03 0.  1.
         -6    1    1    2    0  503  0.97948601075E+02 -0.10509652141E+03 -0.37146861161E+03  0.43423166245E+03  0.17300000000E+03 0.  1.
<mgrwt>
<rscale>  2 0.22487376E+03</rscale>
<asrwt>0</asrwt>
<pdfrwt beam="1">  1       21 0.99681470E-02 0.22487376E+03</pdfrwt>
<pdfrwt beam="2">  1       21 0.12018849E+00 0.22487376E+03</pdfrwt>
<totfact> 0.42200534E+04</totfact>
</mgrwt>
</event>
<event>
 4    1  0.4199484E+000  0.1745006E+03  0.7546771E-02  0.1173234E+00
         21   -1    0    0  503  502  0.00000000000E+00  0.00000000000E+00  0.16667343478E+03  0.16667343478E+03  0.00000000000E+00 0. -1.
         21   -1    0    0  501  503 -0.00000000000E+00 -0.00000000000E+00 -0.18339439810E+03  0.18339439810E+03  0.00000000000E+00 0. -1.
          6    1    1    2  501    0 -0.20297664981E+02  0.10461990227E+02  0.24465654682E+01  0.17451771866E+03  0.17300000000E+03 0.  1.
         -6    1    1    2    0  502  0.20297664981E+02 -0.10461990227E+02 -0.19167528789E+02  0.17555011422E+03  0.17300000000E+03 0.  1.
<mgrwt>
<rscale>  2 0.17450057E+03</rscale>
<asrwt>0</asrwt>
<pdfrwt beam="1">  1       21 0.25642067E-01 0.17450057E+03</pdfrwt>
<pdfrwt beam="2">  1       21 0.28214523E-01 0.17450057E+03</pdfrwt>
<totfact> 0.17418808E+05</totfact>
</mgrwt>
</event>
<event>
 4    1  0.4199484E+000  0.1739408E+03  0.7546771E-02  0.1173799E+00
         21   -1    0    0  503  502  0.00000000000E+00  0.00000000000E+00  0.87468730299E+03  0.87468730299E+03  0.00000000000E+00 0. -1.
         21   -1    0    0  501  503 -0.00000000000E+00 -0.00000000000E+00 -0.44794154447E+02  0.44794154447E+02  0.00000000000E+00 0. -1.
          6    1    1    2  501    0 -0.12161507198E+01 -0.18025809245E+02  0.19551888588E+03  0.26169265094E+03  0.17300000000E+03 0. -1.
         -6    1    1    2    0  502  0.12161507198E+01  0.18025809245E+02  0.63437426267E+03  0.65778880650E+03  0.17300000000E+03 0. -1.
<mgrwt>
<rscale>  2 0.17394082E+03</rscale>
<asrwt>0</asrwt>
<pdfrwt beam="1">  1       21 0.13456726E+00 0.17394082E+03</pdfrwt>
<pdfrwt beam="2">  1       21 0.68914090E-02 0.17394082E+03</pdfrwt>
<totfact> 0.62148260E+04</totfact>
</mgrwt>
</event>
<event>
 4    1  0.4199484E+000  0.1783326E+03  0.7546771E-02  0.1169427E+00
         21   -1    0    0  503  502  0.00000000000E+00  0.00000000000E+00  0.15594767848E+03  0.15594767848E+03  0.00000000000E+00 0. -1.
         21   -1    0    0  501  503 -0.00000000000E+00 -0.00000000000E+00 -0.43210900438E+03  0.43210900438E+03  0.00000000000E+00 0. -1.
          6    1    1    2  501    0  0.41987307429E+02 -0.10516168645E+02 -0.35174384031E+03  0.39436816933E+03  0.17300000000E+03 0. -1.
         -6    1    1    2    0  502 -0.41987307429E+02  0.10516168645E+02  0.75582514410E+02  0.19368851353E+03  0.17300000000E+03 0. -1.
<mgrwt>
<rscale>  2 0.17833262E+03</rscale>
<asrwt>0</asrwt>
<pdfrwt beam="1">  1       21 0.23991951E-01 0.17833262E+03</pdfrwt>
<pdfrwt beam="2">  1       21 0.66478307E-01 0.17833262E+03</pdfrwt>
<totfact> 0.34254745E+04</totfact>
</mgrwt>
</event>
<event>
 4    1  0.4199484E+000  0.1771052E+03  0.7546771E-02  0.1170634E+00
         21   -1    0    0  503  502  0.00000000000E+00  0.00000000000E+00  0.37981652820E+03  0.37981652820E+03  0.00000000000E+00 0. -1.
         21   -1    0    0  501  503 -0.00000000000E+00 -0.00000000000E+00 -0.12236469378E+03  0.12236469378E+03  0.00000000000E+00 0. -1.
          6    1    1    2  501    0  0.18420896753E+02  0.33134904160E+02 -0.14442101255E+02  0.17769306570E+03  0.17300000000E+03 0. -1.
         -6    1    1    2    0  502 -0.18420896753E+02 -0.33134904160E+02  0.27189393567E+03  0.32448815628E+03  0.17300000000E+03 0. -1.
<mgrwt>
<rscale>  2 0.17710520E+03</rscale>
<asrwt>0</asrwt>
<pdfrwt beam="1">  1       21 0.58433312E-01 0.17710520E+03</pdfrwt>
<pdfrwt beam="2">  1       21 0.18825338E-01 0.17710520E+03</pdfrwt>
<totfact> 0.71330463E+04</totfact>
</mgrwt>
</event>
<event>
 4    1  0.4199484E+000  0.2701425E+03  0.7546771E-02  0.1101198E+00
         21   -1    0    0  501  502  0.00000000000E+00  0.00000000000E+00  0.11437801973E+04  0.11437801973E+04  0.00000000000E+00 0.  1.
         21   -1    0    0  502  503 -0.00000000000E+00 -0.00000000000E+00 -0.69689681492E+02  0.69689681492E+02  0.00000000000E+00 0. -1.
          6    1    1    2  501    0  0.19789062653E+02  0.20653412344E+03  0.71338043774E+03  0.76281622957E+03  0.17300000000E+03 0.  1.
         -6    1    1    2    0  503 -0.19789062653E+02 -0.20653412344E+03  0.36071007811E+03  0.45065364927E+03  0.17300000000E+03 0. -1.
<mgrwt>
<rscale>  2 0.27014246E+03</rscale>
<asrwt>0</asrwt>
<pdfrwt beam="1">  1       21 0.17596617E+00 0.27014246E+03</pdfrwt>
<pdfrwt beam="2">  1       21 0.10721490E-01 0.27014246E+03</pdfrwt>
<totfact> 0.13214633E+04</totfact>
</mgrwt>
</event>
<event>
 4    1  0.4199484E+000  0.2038440E+03  0.7546771E-02  0.1146536E+00
         21   -1    0    0  501  502  0.00000000000E+00  0.00000000000E+00  0.13404625445E+03  0.13404625445E+03  0.00000000000E+00 0. -1.
         21   -1    0    0  502  503 -0.00000000000E+00 -0.00000000000E+00 -0.97301458647E+03  0.97301458647E+03  0.00000000000E+00 0.  1.
          6    1    1    2  501    0 -0.83790523988E+02  0.67842021016E+02  0.37444197073E+02  0.20725457684E+03  0.17300000000E+03 0. -1.
         -6    1    1    2    0  503  0.83790523988E+02 -0.67842021016E+02 -0.87641252909E+03  0.89980626408E+03  0.17300000000E+03 0.  1.
<mgrwt>
<rscale>  2 0.20384404E+03</rscale>
<asrwt>0</asrwt>
<pdfrwt beam="1">  1       21 0.20622500E-01 0.20384404E+03</pdfrwt>
<pdfrwt beam="2">  1       21 0.14969456E+00 0.20384404E+03</pdfrwt>
<totfact> 0.64913976E+03</totfact>
</mgrwt>
</event>
<event>
 4    1  0.4199484E+000  0.3497742E+03  0.7546771E-02  0.1062708E+00
         21   -1    0    0  503  502  0.00000000000E+00  0.00000000000E+00  0.54241983764E+03  0.54241983764E+03  0.00000000000E+00 0.  1.
         21   -1    0    0  501  503 -0.00000000000E+00 -0.00000000000E+00 -0.24715998191E+03  0.24715998191E+03  0.00000000000E+00 0. -1.
          6    1    1    2  501    0 -0.17569818684E+03 -0.24807886232E+03  0.30890018676E+02  0.35113554084E+03  0.17300000000E+03 0. -1.
         -6    1    1    2    0  502  0.17569818684E+03  0.24807886232E+03  0.26436983705E+03  0.43844427871E+03  0.17300000000E+03 0.  1.
<mgrwt>
<rscale>  2 0.34977418E+03</rscale>
<asrwt>0</asrwt>
<pdfrwt beam="1">  1       21 0.83449205E-01 0.34977418E+03</pdfrwt>
<pdfrwt beam="2">  1       21 0.38024613E-01 0.34977418E+03</pdfrwt>
<totfact> 0.76535000E+03</totfact>
</mgrwt>
</event>
<event>
 4    1  0.4199484E+000  0.1780402E+03  0.7546771E-02  0.1169713E+00
         21   -1    0    0  501  502  0.00000000000E+00  0.00000000000E+00  0.83078903528E+02  0.83078903528E+02  0.00000000000E+00 0. -1.
         21   -1    0    0  502  503 -0.00000000000E+00 -0.00000000000E+00 -0.38260221347E+03  0.38260221347E+03  0.00000000000E+00 0. -1.
          6    1    1    2  501    0  0.23047347220E+02 -0.35187201052E+02 -0.16200268434E+03  0.24071391539E+03  0.17300000000E+03 0.  1.
         -6    1    1    2    0  503 -0.23047347220E+02  0.35187201052E+02 -0.13752062561E+03  0.22496720161E+03  0.17300000000E+03 0.  1.
<mgrwt>
<rscale>  2 0.17804022E+03</rscale>
<asrwt>0</asrwt>
<pdfrwt beam="1">  1       21 0.12781370E-01 0.17804022E+03</pdfrwt>
<pdfrwt beam="2">  1       21 0.58861879E-01 0.17804022E+03</pdfrwt>
<totfact> 0.14218458E+05</totfact>
</mgrwt>
</event>
<event>
 4    1  0.4199484E+000  0.1873950E+03  0.7546771E-02  0.1160832E+00
         21   -1    0    0  501  502  0.00000000000E+00  0.00000000000E+00  0.12072555465E+03  0.12072555465E+03  0.00000000000E+00 0.  1.
         21   -1    0    0  502  503 -0.00000000000E+00 -0.00000000000E+00 -0.30078227179E+03  0.30078227179E+03  0.00000000000E+00 0. -1.
          6    1    1    2  501    0  0.49527673344E+02 -0.52296084098E+02 -0.12826473359E+03  0.22708745611E+03  0.17300000000E+03 0.  1.
         -6    1    1    2    0  503 -0.49527673344E+02  0.52296084098E+02 -0.51791983546E+02  0.19442037033E+03  0.17300000000E+03 0. -1.
<mgrwt>
<rscale>  2 0.18739496E+03</rscale>
<asrwt>0</asrwt>
<pdfrwt beam="1">  1       21 0.18573162E-01 0.18739496E+03</pdfrwt>
<pdfrwt beam="2">  1       21 0.46274196E-01 0.18739496E+03</pdfrwt>
<totfact> 0.11875159E+05</totfact>
</mgrwt>
</event>
<event>
 4    1  0.4199484E+000  0.2486368E+03  0.7546771E-02  0.1114169E+00
         21   -1    0    0  501  502  0.00000000000E+00  0.00000000000E+00  0.69323071778E+02  0.69323071778E+02  0.00000000000E+00 0.  1.
         21   -1    0    0  502  503 -0.00000000000E+00 -0.00000000000E+00 -0.10574738989E+04  0.10574738989E+04  0.00000000000E+00 0.  1.
          6    1    1    2  501    0 -0.72943883689E+02  0.16300449237E+03 -0.27105404657E+03  0.36781866573E+03  0.17300000000E+03 0.  1.
         -6    1    1    2    0  503  0.72943883689E+02 -0.16300449237E+03 -0.71709678055E+03  0.75897830495E+03  0.17300000000E+03 0.  1.
<mgrwt>
<rscale>  2 0.24863683E+03</rscale>
<asrwt>0</asrwt>
<pdfrwt beam="1">  1       21 0.10665088E-01 0.24863683E+03</pdfrwt>
<pdfrwt beam="2">  1       21 0.16268829E+00 0.24863683E+03</pdfrwt>
<totfact> 0.16799844E+04</totfact>
</mgrwt>
</event>
<event>
 4    1  0.4199484E+000  0.1908345E+03  0.7546771E-02  0.1157711E+00
         21   -1    0    0  503  502  0.00000000000E+00  0.00000000000E+00  0.38129567222E+03  0.38129567222E+03  0.00000000000E+00 0. -1.
         21   -1    0    0  501  503 -0.00000000000E+00 -0.00000000000E+00 -0.96885320810E+02  0.96885320810E+02  0.00000000000E+00 0. -1.
          6    1    1    2  501    0  0.12154450544E+01  0.80544060923E+02  0.17068400217E+03  0.25602900549E+03  0.17300000000E+03 0. -1.
         -6    1    1    2    0  502 -0.12154450544E+01 -0.80544060923E+02  0.11372634925E+03  0.22215198754E+03  0.17300000000E+03 0. -1.
<mgrwt>
<rscale>  2 0.19083454E+03</rscale>
<asrwt>0</asrwt>
<pdfrwt beam="1">  1       21 0.58660872E-01 0.19083454E+03</pdfrwt>
<pdfrwt beam="2">  1       21 0.14905434E-01 0.19083454E+03</pdfrwt>
<totfact> 0.10799884E+05</totfact>
</mgrwt>
</event>
<event>
 4    1  0.4199484E+000  0.1788791E+03  0.7546771E-02  0.1168892E+00
         21   -1    0    0  501  502  0.00000000000E+00  0.00000000000E+00  0.23050216696E+03  0.23050216696E+03  0.00000000000E+00 0.  1.
         21   -1    0    0  502  503 -0.00000000000E+00 -0.00000000000E+00 -0.23707256734E+03  0.23707256734E+03  0.00000000000E+00 0.  1.
          6    1    1    2  501    0  0.40685626833E+02  0.20332661660E+02  0.14722219538E+03  0.23167242428E+03  0.17300000000E+03 0.  1.
         -6    1    1    2    0  503 -0.40685626833E+02 -0.20332661660E+02 -0.15379259576E+03  0.23590231002E+03  0.17300000000E+03 0.  1.
<mgrwt>
<rscale>  2 0.17887911E+03</rscale>
<asrwt>0</asrwt>
<pdfrwt beam="1">  1       21 0.35461872E-01 0.17887911E+03</pdfrwt>
<pdfrwt beam="2">  1       21 0.36472702E-01 0.17887911E+03</pdfrwt>
<totfact> 0.55933921E+04</totfact>
</mgrwt>
</event>
<event>
 4    1  0.4199484E+000  0.1968503E+03  0.7546771E-02  0.1152424E+00
         21   -1    0    0  501  502  0.00000000000E+00  0.00000000000E+00  0.14929927572E+03  0.14929927572E+03  0.00000000000E+00 0. -1.
         21   -1    0    0  502  503 -0.00000000000E+00 -0.00000000000E+00 -0.26875896672E+03  0.26875896672E+03  0.00000000000E+00 0. -1.
          6    1    1    2  501    0  0.92037255267E+02  0.18713116690E+02 -0.98430999551E+02  0.22008793417E+03  0.17300000000E+03 0.  1.
         -6    1    1    2    0  503 -0.92037255267E+02 -0.18713116690E+02 -0.21028691443E+02  0.19797030827E+03  0.17300000000E+03 0.  1.
<mgrwt>
<rscale>  2 0.19685029E+03</rscale>
<asrwt>0</asrwt>
<pdfrwt beam="1">  1       21 0.22969119E-01 0.19685029E+03</pdfrwt>
<pdfrwt beam="2">  1       21 0.41347533E-01 0.19685029E+03</pdfrwt>
<totfact> 0.10005773E+05</totfact>
</mgrwt>
</event>
<event>
 4    1  0.4199484E+000  0.2691419E+03  0.7546771E-02  0.1101772E+00
         21   -1    0    0  503  502  0.00000000000E+00  0.00000000000E+00  0.19935614655E+03  0.19935614655E+03  0.00000000000E+00 0.  1.
         21   -1    0    0  501  503 -0.00000000000E+00 -0.00000000000E+00 -0.42818415877E+03  0.42818415877E+03  0.00000000000E+00 0.  1.
          6    1    1    2  501    0 -0.54474191683E+02  0.19884905518E+03 -0.23650284161E+03  0.35828895935E+03  0.17300000000E+03 0.  1.
         -6    1    1    2    0  502  0.54474191683E+02 -0.19884905518E+03  0.76748293899E+01  0.26925134598E+03  0.17300000000E+03 0.  1.
<mgrwt>
<rscale>  2 0.26914194E+03</rscale>
<asrwt>0</asrwt>
<pdfrwt beam="1">  1       21 0.30670177E-01 0.26914194E+03</pdfrwt>
<pdfrwt beam="2">  1       21 0.65874485E-01 0.26914194E+03</pdfrwt>
<totfact> 0.20760372E+04</totfact>
</mgrwt>
</event>
<event>
 4    1  0.4199484E+000  0.2053138E+03  0.7546771E-02  0.1145332E+00
         21   -1    0    0  501  502  0.00000000000E+00  0.00000000000E+00  0.47568479039E+03  0.47568479039E+03  0.00000000000E+00 0.  1.
         21   -1    0    0  502  503 -0.00000000000E+00 -0.00000000000E+00 -0.14343187690E+03  0.14343187690E+03  0.00000000000E+00 0. -1.
          6    1    1    2  501    0  0.92380076742E+02 -0.60751112777E+02  0.35749420100E+03  0.41225705577E+03  0.17300000000E+03 0.  1.
         -6    1    1    2    0  503 -0.92380076742E+02  0.60751112777E+02 -0.25241287506E+02  0.20685961152E+03  0.17300000000E+03 0. -1.
<mgrwt>
<rscale>  2 0.20531385E+03</rscale>
<asrwt>0</asrwt>
<pdfrwt beam="1">  1       21 0.73182275E-01 0.20531385E+03</pdfrwt>
<pdfrwt beam="2">  1       21 0.22066443E-01 0.20531385E+03</pdfrwt>
<totfact> 0.32007881E+04</totfact>
</mgrwt>
</event>
<event>
 4    1  0.4199484E+000  0.2793961E+03  0.7546771E-02  0.1096019E+00
         21   -1    0    0  501  502  0.00000000000E+00  0.00000000000E+00  0.11379418873E+04  0.11379418873E+04  0.00000000000E+00 0.  1.
         21   -1    0    0  502  503 -0.00000000000E+00 -0.00000000000E+00 -0.69965160249E+02  0.69965160249E+02  0.00000000000E+00 0. -1.
          6    1    1    2  501    0  0.11762791765E+03 -0.18519406017E+03  0.44960734267E+03  0.52934764523E+03  0.17300000000E+03 0.  1.
         -6    1    1    2    0  503 -0.11762791765E+03  0.18519406017E+03  0.61836938436E+03  0.67855940230E+03  0.17300000000E+03 0. -1.
<mgrwt>
<rscale>  2 0.27939608E+03</rscale>
<asrwt>0</asrwt>
<pdfrwt beam="1">  1       21 0.17506797E+00 0.27939608E+03</pdfrwt>
<pdfrwt beam="2">  1       21 0.10763872E-01 0.27939608E+03</pdfrwt>
<totfact> 0.13245136E+04</totfact>
</mgrwt>
</event>
<event>
 4    1  0.4199484E+000  0.1831396E+03  0.7546771E-02  0.1164799E+00
         21   -1    0    0  501  502  0.00000000000E+00  0.00000000000E+00  0.12285521605E+03  0.12285521605E+03  0.00000000000E+00 0.  1.
         21   -1    0    0  502  503 -0.00000000000E+00 -0.00000000000E+00 -0.64469429996E+03  0.64469429996E+03  0.00000000000E+00 0. -1.
          6    1    1    2  501    0 -0.59529332454E+02 -0.82082033471E+01  0.30480351580E+02  0.18565874032E+03  0.17300000000E+03 0.  1.
         -6    1    1    2    0  503  0.59529332454E+02  0.82082033471E+01 -0.55231943549E+03  0.58189077570E+03  0.17300000000E+03 0. -1.
<mgrwt>
<rscale>  2 0.18313961E+03</rscale>
<asrwt>0</asrwt>
<pdfrwt beam="1">  1       21 0.18900803E-01 0.18313961E+03</pdfrwt>
<pdfrwt beam="2">  1       21 0.99183738E-01 0.18313961E+03</pdfrwt>
<totfact> 0.21591301E+04</totfact>
</mgrwt>
</event>
<event>
 4    1  0.4199484E+000  0.2127512E+03  0.7546771E-02  0.1139406E+00
         21   -1    0    0  501  502  0.00000000000E+00  0.00000000000E+00  0.17748531244E+03  0.17748531244E+03  0.00000000000E+00 0. -1.
         21   -1    0    0  502  503 -0.00000000000E+00 -0.00000000000E+00 -0.35201465489E+03  0.35201465489E+03  0.00000000000E+00 0.  1.
          6    1    1    2  501    0  0.30482369577E+02 -0.12002032999E+03  0.51704993382E+02  0.21894396727E+03  0.17300000000E+03 0. -1.
         -6    1    1    2    0  503 -0.30482369577E+02  0.12002032999E+03 -0.22623433583E+03  0.31055600006E+03  0.17300000000E+03 0.  1.
<mgrwt>
<rscale>  2 0.21275116E+03</rscale>
<asrwt>0</asrwt>
<pdfrwt beam="1">  1       21 0.27305433E-01 0.21275116E+03</pdfrwt>
<pdfrwt beam="2">  1       21 0.54156101E-01 0.21275116E+03</pdfrwt>
<totfact> 0.40799128E+04</totfact>
</mgrwt>
</event>
<event>
 4    1  0.4199484E+000  0.1935884E+03  0.7546771E-02  0.1155264E+00
         21   -1    0    0  503  502  0.00000000000E+00  0.00000000000E+00  0.33974383588E+03  0.33974383588E+03  0.00000000000E+00 0. -1.
         21   -1    0    0  501  503 -0.00000000000E+00 -0.00000000000E+00 -0.14625962635E+03  0.14625962635E+03  0.00000000000E+00 0. -1.
          6    1    1    2  501    0 -0.71123685605E+02 -0.49888955948E+02 -0.23735407176E+02  0.19503808893E+03  0.17300000000E+03 0. -1.
         -6    1    1    2    0  502  0.71123685605E+02  0.49888955948E+02  0.21721961671E+03  0.29096537331E+03  0.17300000000E+03 0. -1.
<mgrwt>
<rscale>  2 0.19358845E+03</rscale>
<asrwt>0</asrwt>
<pdfrwt beam="1">  1       21 0.52268282E-01 0.19358845E+03</pdfrwt>
<pdfrwt beam="2">  1       21 0.22501481E-01 0.19358845E+03</pdfrwt>
<totfact> 0.64219155E+04</totfact>
</mgrwt>
</event>
<event>
 4    1  0.4199484E+000  0.1975770E+03  0.7546771E-02  0.1151800E+00
         21   -1    0    0  503  502  0.00000000000E+00  0.00000000000E+00  0.58640043686E+03  0.58640043686E+03  0.00000000000E+00 0.  1.
         21   -1    0    0  501  503 -0.00000000000E+00 -0.00000000000E+00 -0.68340398238E+02  0.68340398238E+02  0.00000000000E+00 0.  1.
          6    1    1    2  501    0 -0.95432875894E+02  0.46910363552E+00  0.31172157503E+03  0.36906231750E+03  0.17300000000E+03 0.  1.
         -6    1    1    2    0  502  0.95432875894E+02 -0.46910363552E+00  0.20633846360E+03  0.28567851760E+03  0.17300000000E+03 0.  1.
<mgrwt>
<rscale>  2 0.19757696E+03</rscale>
<asrwt>0</asrwt>
<pdfrwt beam="1">  1       21 0.90215448E-01 0.19757696E+03</pdfrwt>
<pdfrwt beam="2">  1       21 0.10513908E-01 0.19757696E+03</pdfrwt>
<totfact> 0.77411855E+04</totfact>
</mgrwt>
</event>
<event>
 4    1  0.4199484E+000  0.1814599E+03  0.7546771E-02  0.1166398E+00
         21   -1    0    0  503  502  0.00000000000E+00  0.00000000000E+00  0.10379932993E+04  0.10379932993E+04  0.00000000000E+00 0.  1.
         21   -1    0    0  501  503 -0.00000000000E+00 -0.00000000000E+00 -0.66609090391E+02  0.66609090391E+02  0.00000000000E+00 0. -1.
          6    1    1    2  501    0  0.45803780869E+02  0.30011693641E+02  0.85987804640E+02  0.20080236713E+03  0.17300000000E+03 0. -1.
         -6    1    1    2    0  502 -0.45803780869E+02 -0.30011693641E+02  0.88539640432E+03  0.90380002261E+03  0.17300000000E+03 0.  1.
<mgrwt>
<rscale>  2 0.18145988E+03</rscale>
<asrwt>0</asrwt>
<pdfrwt beam="1">  1       21 0.15969126E+00 0.18145988E+03</pdfrwt>
<pdfrwt beam="2">  1       21 0.10247553E-01 0.18145988E+03</pdfrwt>
<totfact> 0.19814818E+04</totfact>
</mgrwt>
</event>
<event>
 4    1  0.4199484E+000  0.1922078E+03  0.7546771E-02  0.1156485E+00
         21   -1    0    0  501  502  0.00000000000E+00  0.00000000000E+00  0.49159884916E+03  0.49159884916E+03  0.00000000000E+00 0. -1.
         21   -1    0    0  502  503 -0.00000000000E+00 -0.00000000000E+00 -0.93422882015E+02  0.93422882015E+02  0.00000000000E+00 0. -1.
          6    1    1    2  501    0  0.64477170375E+02 -0.53455842452E+02  0.32845232105E+03  0.38055848407E+03  0.17300000000E+03 0. -1.
         -6    1    1    2    0  503 -0.64477170375E+02  0.53455842452E+02  0.69723646090E+02  0.20446324710E+03  0.17300000000E+03 0. -1.
<mgrwt>
<rscale>  2 0.19220778E+03</rscale>
<asrwt>0</asrwt>
<pdfrwt beam="1">  1       21 0.75630591E-01 0.19220778E+03</pdfrwt>
<pdfrwt beam="2">  1       21 0.14372751E-01 0.19220778E+03</pdfrwt>
<totfact> 0.66173123E+04</totfact>
</mgrwt>
</event>
<event>
 4    1  0.4199484E+000  0.2406182E+03  0.7546771E-02  0.1119382E+00
         21   -1    0    0  503  502  0.00000000000E+00  0.00000000000E+00  0.85166267079E+03  0.85166267079E+03  0.00000000000E+00 0.  1.
         21   -1    0    0  501  503 -0.00000000000E+00 -0.00000000000E+00 -0.68370353102E+02  0.68370353102E+02  0.00000000000E+00 0.  1.
          6    1    1    2  501    0 -0.96988099829E+02 -0.13624036582E+03  0.35694464956E+03  0.43047254458E+03  0.17300000000E+03 0.  1.
         -6    1    1    2    0  502  0.96988099829E+02  0.13624036582E+03  0.42634766813E+03  0.48956047931E+03  0.17300000000E+03 0.  1.
<mgrwt>
<rscale>  2 0.24061822E+03</rscale>
<asrwt>0</asrwt>
<pdfrwt beam="1">  1       21 0.13102502E+00 0.24061822E+03</pdfrwt>
<pdfrwt beam="2">  1       21 0.10518516E-01 0.24061822E+03</pdfrwt>
<totfact> 0.30614587E+04</totfact>
</mgrwt>
</event>
<event>
 4    1  0.4199484E+000  0.1831890E+03  0.7546771E-02  0.1164752E+00
         21   -1    0    0  503  502  0.00000000000E+00  0.00000000000E+00  0.39611902091E+02  0.39611902091E+02  0.00000000000E+00 0.  1.
         21   -1    0    0  501  503 -0.00000000000E+00 -0.00000000000E+00 -0.84770732229E+03  0.84770732229E+03  0.00000000000E+00 0.  1.
          6    1    1    2  501    0  0.38103187250E+02  0.46662324020E+02 -0.41516217348E+03  0.45378172688E+03  0.17300000000E+03 0. -1.
         -6    1    1    2    0  502 -0.38103187250E+02 -0.46662324020E+02 -0.39293324671E+03  0.43353749750E+03  0.17300000000E+03 0. -1.
<mgrwt>
<rscale>  2 0.18318904E+03</rscale>
<asrwt>0</asrwt>
<pdfrwt beam="1">  1       21 0.60941390E-02 0.18318904E+03</pdfrwt>
<pdfrwt beam="2">  1       21 0.13041651E+00 0.18318904E+03</pdfrwt>
<totfact> 0.82687140E+04</totfact>
</mgrwt>
</event>
<event>
 4    1  0.4199484E+000  0.1829119E+03  0.7546771E-02  0.1165014E+00
         21   -1    0    0  503  502  0.00000000000E+00  0.00000000000E+00  0.34473966162E+02  0.34473966162E+02  0.00000000000E+00 0. -1.
         21   -1    0    0  501  503 -0.00000000000E+00 -0.00000000000E+00 -0.10974544664E+04  0.10974544664E+04  0.00000000000E+00 0. -1.
          6    1    1    2  501    0 -0.36920192829E+02  0.46525969978E+02 -0.72399015011E+03  0.74673857807E+03  0.17300000000E+03 0. -1.
         -6    1    1    2    0  502  0.36920192829E+02 -0.46525969978E+02 -0.33899035009E+03  0.38518985445E+03  0.17300000000E+03 0. -1.
<mgrwt>
<rscale>  2 0.18291191E+03</rscale>
<asrwt>0</asrwt>
<pdfrwt beam="1">  1       21 0.53036875E-02 0.18291191E+03</pdfrwt>
<pdfrwt beam="2">  1       21 0.16883914E+00 0.18291191E+03</pdfrwt>
<totfact> 0.53218370E+04</totfact>
</mgrwt>
</event>
<event>
 4    1  0.4199484E+000  0.2436791E+03  0.7546771E-02  0.1117366E+00
         21   -1    0    0  503  502  0.00000000000E+00  0.00000000000E+00  0.92970699980E+02  0.92970699980E+02  0.00000000000E+00 0. -1.
         21   -1    0    0  501  503 -0.00000000000E+00 -0.00000000000E+00 -0.92312182290E+03  0.92312182290E+03  0.00000000000E+00 0. -1.
          6    1    1    2  501    0 -0.58107956037E+02  0.16147439178E+03 -0.69708417408E+03  0.73844827815E+03  0.17300000000E+03 0. -1.
         -6    1    1    2    0  502  0.58107956037E+02 -0.16147439178E+03 -0.13306694885E+03  0.27764424473E+03  0.17300000000E+03 0. -1.
<mgrwt>
<rscale>  2 0.24367912E+03</rscale>
<asrwt>0</asrwt>
<pdfrwt beam="1">  1       21 0.14303185E-01 0.24367912E+03</pdfrwt>
<pdfrwt beam="2">  1       21 0.14201874E+00 0.24367912E+03</pdfrwt>
<totfact> 0.14269439E+04</totfact>
</mgrwt>
</event>
<event>
 4    1  0.4199484E+000  0.2027728E+03  0.7546771E-02  0.1147420E+00
         21   -1    0    0  503  502  0.00000000000E+00  0.00000000000E+00  0.54765411409E+03  0.54765411409E+03  0.00000000000E+00 0.  1.
         21   -1    0    0  501  503 -0.00000000000E+00 -0.00000000000E+00 -0.11805379215E+03  0.11805379215E+03  0.00000000000E+00 0.  1.
          6    1    1    2  501    0 -0.93757591195E+02  0.48962422934E+02  0.13971624156E+02  0.20325356343E+03  0.17300000000E+03 0.  1.
         -6    1    1    2    0  502  0.93757591195E+02 -0.48962422934E+02  0.41562869778E+03  0.46245434281E+03  0.17300000000E+03 0.  1.
<mgrwt>
<rscale>  2 0.20277279E+03</rscale>
<asrwt>0</asrwt>
<pdfrwt beam="1">  1       21 0.84254477E-01 0.20277279E+03</pdfrwt>
<pdfrwt beam="2">  1       21 0.18162122E-01 0.20277279E+03</pdfrwt>
<totfact> 0.33574272E+04</totfact>
</mgrwt>
</event>
<event>
 4    1  0.4199484E+000  0.1943220E+03  0.7546771E-02  0.1154620E+00
         21   -1    0    0  503  502  0.00000000000E+00  0.00000000000E+00  0.35436233659E+03  0.35436233659E+03  0.00000000000E+00 0.  1.
         21   -1    0    0  501  503 -0.00000000000E+00 -0.00000000000E+00 -0.10771866264E+03  0.10771866264E+03  0.00000000000E+00 0.  1.
          6    1    1    2  501    0  0.35861292962E+02  0.80907399196E+02  0.99365458520E+02  0.21825337093E+03  0.17300000000E+03 0. -1.
         -6    1    1    2    0  502 -0.35861292962E+02 -0.80907399196E+02  0.14727821543E+03  0.24382762829E+03  0.17300000000E+03 0. -1.
<mgrwt>
<rscale>  2 0.19432200E+03</rscale>
<asrwt>0</asrwt>
<pdfrwt beam="1">  1       21 0.54517282E-01 0.19432200E+03</pdfrwt>
<pdfrwt beam="2">  1       21 0.16572102E-01 0.19432200E+03</pdfrwt>
<totfact> 0.10383130E+05</totfact>
</mgrwt>
</event>
<event>
 4    1  0.4199484E+000  0.2001742E+03  0.7546771E-02  0.1149592E+00
         21   -1    0    0  501  502  0.00000000000E+00  0.00000000000E+00  0.71542881071E+02  0.71542881071E+02  0.00000000000E+00 0.  1.
         21   -1    0    0  502  503 -0.00000000000E+00 -0.00000000000E+00 -0.62647020632E+03  0.62647020632E+03  0.00000000000E+00 0. -1.
          6    1    1    2  501    0  0.95317817309E+02  0.32483917759E+02 -0.16384819670E+03  0.25868112179E+03  0.17300000000E+03 0. -1.
         -6    1    1    2    0  503 -0.95317817309E+02 -0.32483917759E+02 -0.39107912855E+03  0.43933196560E+03  0.17300000000E+03 0. -1.
<mgrwt>
<rscale>  2 0.20017415E+03</rscale>
<asrwt>0</asrwt>
<pdfrwt beam="1">  1       21 0.11006597E-01 0.20017415E+03</pdfrwt>
<pdfrwt beam="2">  1       21 0.96380035E-01 0.20017415E+03</pdfrwt>
<totfact> 0.61084757E+04</totfact>
</mgrwt>
</event>
<event>
 4    1  0.4199484E+000  0.1871909E+03  0.7546771E-02  0.1161020E+00
         21   -1    0    0  501  502  0.00000000000E+00  0.00000000000E+00  0.14223004335E+03  0.14223004335E+03  0.00000000000E+00 0.  1.
         21   -1    0    0  502  503 -0.00000000000E+00 -0.00000000000E+00 -0.31040815761E+03  0.31040815761E+03  0.00000000000E+00 0.  1.
          6    1    1    2  501    0  0.69876828226E+02  0.15121221118E+02  0.18710909221E+02  0.18812368425E+03  0.17300000000E+03 0.  1.
         -6    1    1    2    0  503 -0.69876828226E+02 -0.15121221118E+02 -0.18688902348E+03  0.26451451671E+03  0.17300000000E+03 0.  1.
<mgrwt>
<rscale>  2 0.18719087E+03</rscale>
<asrwt>0</asrwt>
<pdfrwt beam="1">  1       21 0.21881545E-01 0.18719087E+03</pdfrwt>
<pdfrwt beam="2">  1       21 0.47755101E-01 0.18719087E+03</pdfrwt>
<totfact> 0.81928543E+04</totfact>
</mgrwt>
</event>
<event>
 4    1  0.4199484E+000  0.2903795E+03  0.7546771E-02  0.1090151E+00
         21   -1    0    0  503  502  0.00000000000E+00  0.00000000000E+00  0.28974514778E+03  0.28974514778E+03  0.00000000000E+00 0.  1.
         21   -1    0    0  501  503 -0.00000000000E+00 -0.00000000000E+00 -0.30990787104E+03  0.30990787104E+03  0.00000000000E+00 0.  1.
          6    1    1    2  501    0  0.47874888980E+02  0.22825264545E+03 -0.84109886767E+02  0.30231564333E+03  0.17300000000E+03 0.  1.
         -6    1    1    2    0  502 -0.47874888980E+02 -0.22825264545E+03  0.63947163505E+02  0.29733737550E+03  0.17300000000E+03 0.  1.
<mgrwt>
<rscale>  2 0.29037954E+03</rscale>
<asrwt>0</asrwt>
<pdfrwt beam="1">  1       21 0.44576177E-01 0.29037954E+03</pdfrwt>
<pdfrwt beam="2">  1       21 0.47678134E-01 0.29037954E+03</pdfrwt>
<totfact> 0.19343338E+04</totfact>
</mgrwt>
</event>
<event>
 4    1  0.4199484E+000  0.1834350E+03  0.7546771E-02  0.1164519E+00
         21   -1    0    0  503  502  0.00000000000E+00  0.00000000000E+00  0.93106487134E+02  0.93106487134E+02  0.00000000000E+00 0. -1.
         21   -1    0    0  501  503 -0.00000000000E+00 -0.00000000000E+00 -0.82877137400E+03  0.82877137400E+03  0.00000000000E+00 0. -1.
          6    1    1    2  501    0 -0.20304514719E+02  0.57507599300E+02 -0.71397779692E+03  0.73716530832E+03  0.17300000000E+03 0. -1.
         -6    1    1    2    0  502  0.20304514719E+02 -0.57507599300E+02 -0.21687089941E+02  0.18471255281E+03  0.17300000000E+03 0. -1.
<mgrwt>
<rscale>  2 0.18343499E+03</rscale>
<asrwt>0</asrwt>
<pdfrwt beam="1">  1       21 0.14324075E-01 0.18343499E+03</pdfrwt>
<pdfrwt beam="2">  1       21 0.12750329E+00 0.18343499E+03</pdfrwt>
<totfact> 0.19477237E+04</totfact>
</mgrwt>
</event>
<event>
 4    1  0.4199484E+000  0.1968584E+03  0.7546771E-02  0.1152417E+00
         21   -1    0    0  501  502  0.00000000000E+00  0.00000000000E+00  0.31084829147E+03  0.31084829147E+03  0.00000000000E+00 0. -1.
         21   -1    0    0  502  503 -0.00000000000E+00 -0.00000000000E+00 -0.14160374209E+03  0.14160374209E+03  0.00000000000E+00 0.  1.
          6    1    1    2  501    0  0.89045624762E+02 -0.29918003712E+02  0.16285560406E+03  0.25549003505E+03  0.17300000000E+03 0. -1.
         -6    1    1    2    0  503 -0.89045624762E+02  0.29918003712E+02  0.63889453233E+01  0.19696199851E+03  0.17300000000E+03 0.  1.
<mgrwt>
<rscale>  2 0.19685835E+03</rscale>
<asrwt>0</asrwt>
<pdfrwt beam="1">  1       21 0.47822814E-01 0.19685835E+03</pdfrwt>
<pdfrwt beam="2">  1       21 0.21785191E-01 0.19685835E+03</pdfrwt>
<totfact> 0.82042884E+04</totfact>
</mgrwt>
</event>
<event>
 4    1  0.4199484E+000  0.1861915E+03  0.7546771E-02  0.1161942E+00
         21   -1    0    0  501  502  0.00000000000E+00  0.00000000000E+00  0.35254257577E+03  0.35254257577E+03  0.00000000000E+00 0.  1.
         21   -1    0    0  502  503 -0.00000000000E+00 -0.00000000000E+00 -0.83533096835E+03  0.83533096835E+03  0.00000000000E+00 0.  1.
          6    1    1    2  501    0 -0.19411758740E+02 -0.66041417557E+02  0.31648924348E+03  0.36719576039E+03  0.17300000000E+03 0.  1.
         -6    1    1    2    0  503  0.19411758740E+02  0.66041417557E+02 -0.79927763606E+03  0.82067778374E+03  0.17300000000E+03 0.  1.
<mgrwt>
<rscale>  2 0.18619153E+03</rscale>
<asrwt>0</asrwt>
<pdfrwt beam="1">  1       21 0.54237319E-01 0.18619153E+03</pdfrwt>
<pdfrwt beam="2">  1       21 0.12851246E+00 0.18619153E+03</pdfrwt>
<totfact> 0.14387135E+03</totfact>
</mgrwt>
</event>
<event>
 4    1  0.4199484E+000  0.1816378E+03  0.7546771E-02  0.1166227E+00
         21   -1    0    0  503  502  0.00000000000E+00  0.00000000000E+00  0.28076581546E+03  0.28076581546E+03  0.00000000000E+00 0.  1.
         21   -1    0    0  501  503 -0.00000000000E+00 -0.00000000000E+00 -0.12498377753E+03  0.12498377753E+03  0.00000000000E+00 0.  1.
          6    1    1    2  501    0 -0.13431871404E+02  0.53692259136E+02  0.28274663216E+02  0.18382527150E+03  0.17300000000E+03 0.  1.
         -6    1    1    2    0  502  0.13431871404E+02 -0.53692259136E+02  0.12750737471E+03  0.22192432149E+03  0.17300000000E+03 0.  1.
<mgrwt>
<rscale>  2 0.18163775E+03</rscale>
<asrwt>0</asrwt>
<pdfrwt beam="1">  1       21 0.43194741E-01 0.18163775E+03</pdfrwt>
<pdfrwt beam="2">  1       21 0.19228273E-01 0.18163775E+03</pdfrwt>
<totfact> 0.12848848E+05</totfact>
</mgrwt>
</event>
<event>
 4    1  0.4199484E+000  0.1826825E+03  0.7546771E-02  0.1165232E+00
         21   -1    0    0  503  502  0.00000000000E+00  0.00000000000E+00  0.37850312033E+03  0.37850312033E+03  0.00000000000E+00 0.  1.
         21   -1    0    0  501  503 -0.00000000000E+00 -0.00000000000E+00 -0.91554041707E+02  0.91554041707E+02  0.00000000000E+00 0.  1.
          6    1    1    2  501    0  0.28054187219E+02 -0.51544604150E+02  0.98293617003E+02  0.20744762901E+03  0.17300000000E+03 0. -1.
         -6    1    1    2    0  502 -0.28054187219E+02  0.51544604150E+02  0.18865546162E+03  0.26260953302E+03  0.17300000000E+03 0. -1.
<mgrwt>
<rscale>  2 0.18268247E+03</rscale>
<asrwt>0</asrwt>
<pdfrwt beam="1">  1       21 0.58231249E-01 0.18268247E+03</pdfrwt>
<pdfrwt beam="2">  1       21 0.14085237E-01 0.18268247E+03</pdfrwt>
<totfact> 0.12192916E+05</totfact>
</mgrwt>
</event>
<event>
 4    1  0.4199484E+000  0.2028618E+03  0.7546771E-02  0.1147347E+00
         21   -1    0    0  503  502  0.00000000000E+00  0.00000000000E+00  0.56326891779E+03  0.56326891779E+03  0.00000000000E+00 0. -1.
         21   -1    0    0  501  503 -0.00000000000E+00 -0.00000000000E+00 -0.14354623239E+03  0.14354623239E+03  0.00000000000E+00 0. -1.
          6    1    1    2  501    0  0.43491553579E+02 -0.96604253642E+02 -0.37783639996E+02  0.20635043132E+03  0.17300000000E+03 0. -1.
         -6    1    1    2    0  502 -0.43491553579E+02  0.96604253642E+02  0.45750632539E+03  0.50046471886E+03  0.17300000000E+03 0. -1.
<mgrwt>
<rscale>  2 0.20286177E+03</rscale>
<asrwt>0</asrwt>
<pdfrwt beam="1">  1       21 0.86656755E-01 0.20286177E+03</pdfrwt>
<pdfrwt beam="2">  1       21 0.22084036E-01 0.20286177E+03</pdfrwt>
<totfact> 0.21835761E+04</totfact>
</mgrwt>
</event>
<event>
 4    1  0.4199484E+000  0.2295594E+03  0.7546771E-02  0.1126950E+00
         21   -1    0    0  503  502  0.00000000000E+00  0.00000000000E+00  0.52020572996E+03  0.52020572996E+03  0.00000000000E+00 0. -1.
         21   -1    0    0  501  503 -0.00000000000E+00 -0.00000000000E+00 -0.10590057991E+03  0.10590057991E+03  0.00000000000E+00 0. -1.
          6    1    1    2  501    0  0.26716906359E+02  0.14850839099E+03  0.14191284556E+03  0.26988292094E+03  0.17300000000E+03 0. -1.
         -6    1    1    2    0  502 -0.26716906359E+02 -0.14850839099E+03  0.27239230448E+03  0.35622338893E+03  0.17300000000E+03 0. -1.
<mgrwt>
<rscale>  2 0.22955944E+03</rscale>
<asrwt>0</asrwt>
<pdfrwt beam="1">  1       21 0.80031649E-01 0.22955944E+03</pdfrwt>
<pdfrwt beam="2">  1       21 0.16292397E-01 0.22955944E+03</pdfrwt>
<totfact> 0.45525245E+04</totfact>
</mgrwt>
</event>
<event>
 4    1  0.4199484E+000  0.2386697E+03  0.7546771E-02  0.1120682E+00
         21   -1    0    0  503  502  0.00000000000E+00  0.00000000000E+00  0.40221903176E+03  0.40221903176E+03  0.00000000000E+00 0. -1.
         21   -1    0    0  501  503 -0.00000000000E+00 -0.00000000000E+00 -0.14282332578E+03  0.14282332578E+03  0.00000000000E+00 0.  1.
          6    1    1    2  501    0  0.92463443500E+02  0.13595855679E+03  0.10470810115E+03  0.26062809517E+03  0.17300000000E+03 0. -1.
         -6    1    1    2    0  502 -0.92463443500E+02 -0.13595855679E+03  0.15468760483E+03  0.28441426236E+03  0.17300000000E+03 0.  1.
<mgrwt>
<rscale>  2 0.23866968E+03</rscale>
<asrwt>0</asrwt>
<pdfrwt beam="1">  1       21 0.61879851E-01 0.23866968E+03</pdfrwt>
<pdfrwt beam="2">  1       21 0.21972819E-01 0.23866968E+03</pdfrwt>
<totfact> 0.45913125E+04</totfact>
</mgrwt>
</event>
<event>
 4    1  0.4199484E+000  0.2092953E+03  0.7546771E-02  0.1142125E+00
         21   -1    0    0  503  502  0.00000000000E+00  0.00000000000E+00  0.33234698501E+03  0.33234698501E+03  0.00000000000E+00 0.  1.
         21   -1    0    0  501  503 -0.00000000000E+00 -0.00000000000E+00 -0.15003033757E+03  0.15003033757E+03  0.00000000000E+00 0.  1.
          6    1    1    2  501    0 -0.59978986411E+02 -0.10138069626E+03  0.70920142625E+01  0.20941542697E+03  0.17300000000E+03 0.  1.
         -6    1    1    2    0  502  0.59978986411E+02  0.10138069626E+03  0.17522463317E+03  0.27296189561E+03  0.17300000000E+03 0.  1.
<mgrwt>
<rscale>  2 0.20929530E+03</rscale>
<asrwt>0</asrwt>
<pdfrwt beam="1">  1       21 0.51130305E-01 0.20929530E+03</pdfrwt>
<pdfrwt beam="2">  1       21 0.23081590E-01 0.20929530E+03</pdfrwt>
<totfact> 0.63627921E+04</totfact>
</mgrwt>
</event>
<event>
 4    1  0.4199484E+000  0.1972119E+03  0.7546771E-02  0.1152113E+00
         21   -1    0    0  503  502  0.00000000000E+00  0.00000000000E+00  0.27522663510E+03  0.27522663510E+03  0.00000000000E+00 0.  1.
         21   -1    0    0  501  503 -0.00000000000E+00 -0.00000000000E+00 -0.20574654352E+03  0.20574654352E+03  0.00000000000E+00 0.  1.
          6    1    1    2  501    0  0.43729195428E+02 -0.83971993350E+02 -0.99842114198E+02  0.22104521250E+03  0.17300000000E+03 0.  1.
         -6    1    1    2    0  502 -0.43729195428E+02  0.83971993350E+02  0.16932220578E+03  0.25992796612E+03  0.17300000000E+03 0.  1.
<mgrwt>
<rscale>  2 0.19721191E+03</rscale>
<asrwt>0</asrwt>
<pdfrwt beam="1">  1       21 0.42342559E-01 0.19721191E+03</pdfrwt>
<pdfrwt beam="2">  1       21 0.31653314E-01 0.19721191E+03</pdfrwt>
<totfact> 0.51382636E+04</totfact>
</mgrwt>
</event>
<event>
 4    1  0.4199484E+000  0.2667765E+03  0.7546771E-02  0.1103139E+00
         21   -1    0    0  501  502  0.00000000000E+00  0.00000000000E+00  0.14948689466E+03  0.14948689466E+03  0.00000000000E+00 0.  1.
         21   -1    0    0  502  503 -0.00000000000E+00 -0.00000000000E+00 -0.10569793373E+04  0.10569793373E+04  0.00000000000E+00 0.  1.
          6    1    1    2  501    0 -0.45581634934E+02 -0.19789642509E+03 -0.65506783609E+01  0.26685687530E+03  0.17300000000E+03 0.  1.
         -6    1    1    2    0  503  0.45581634934E+02  0.19789642509E+03 -0.90094176429E+03  0.93960935667E+03  0.17300000000E+03 0.  1.
<mgrwt>
<rscale>  2 0.26677646E+03</rscale>
<asrwt>0</asrwt>
<pdfrwt beam="1">  1       21 0.22997983E-01 0.26677646E+03</pdfrwt>
<pdfrwt beam="2">  1       21 0.16261221E+00 0.26677646E+03</pdfrwt>
<totfact> 0.40400540E+03</totfact>
</mgrwt>
</event>
<event>
 4    1  0.4199484E+000  0.2035316E+03  0.7546771E-02  0.1146793E+00
         21   -1    0    0  501  502  0.00000000000E+00  0.00000000000E+00  0.11342979369E+03  0.11342979369E+03  0.00000000000E+00 0.  1.
         21   -1    0    0  502  503 -0.00000000000E+00 -0.00000000000E+00 -0.37926685481E+03  0.37926685481E+03  0.00000000000E+00 0.  1.
          6    1    1    2  501    0  0.28148313391E+02 -0.10345905614E+03 -0.85483221568E+02  0.22075435446E+03  0.17300000000E+03 0.  1.
         -6    1    1    2    0  503 -0.28148313391E+02  0.10345905614E+03 -0.18035383955E+03  0.27194229403E+03  0.17300000000E+03 0.  1.
<mgrwt>
<rscale>  2 0.20353158E+03</rscale>
<asrwt>0</asrwt>
<pdfrwt beam="1">  1       21 0.17450737E-01 0.20353158E+03</pdfrwt>
<pdfrwt beam="2">  1       21 0.58348747E-01 0.20353158E+03</pdfrwt>
<totfact> 0.81395969E+04</totfact>
</mgrwt>
</event>
<event>
 4    1  0.4199484E+000  0.1821450E+03  0.7546771E-02  0.1165743E+00
         21   -1    0    0  503  502  0.00000000000E+00  0.00000000000E+00  0.10741351263E+02  0.10741351263E+02  0.00000000000E+00 0. -1.
         21   -1    0    0  501  503 -0.00000000000E+00 -0.00000000000E+00 -0.31685095068E+04  0.31685095068E+04  0.00000000000E+00 0. -1.
          6    1    1    2  501    0  0.56740065550E+02 -0.53263494272E+01 -0.18311718963E+04  0.18402084988E+04  0.17300000000E+03 0.  1.
         -6    1    1    2    0  502 -0.56740065550E+02  0.53263494272E+01 -0.13265962592E+04  0.13390423593E+04  0.17300000000E+03 0.  1.
<mgrwt>
<rscale>  2 0.18214501E+03</rscale>
<asrwt>0</asrwt>
<pdfrwt beam="1">  1       21 0.16525150E-02 0.18214501E+03</pdfrwt>
<pdfrwt beam="2">  1       21 0.48746318E+00 0.18214501E+03</pdfrwt>
<totfact> 0.39493620E+03</totfact>
</mgrwt>
</event>
<event>
 4    1  0.4199484E+000  0.1959242E+03  0.7546771E-02  0.1153224E+00
         21   -1    0    0  503  502  0.00000000000E+00  0.00000000000E+00  0.61846352428E+03  0.61846352428E+03  0.00000000000E+00 0. -1.
         21   -1    0    0  501  503 -0.00000000000E+00 -0.00000000000E+00 -0.28114329261E+03  0.28114329261E+03  0.00000000000E+00 0. -1.
          6    1    1    2  501    0  0.60319513644E+02  0.69417909787E+02 -0.22840011139E+03  0.30092009040E+03  0.17300000000E+03 0. -1.
         -6    1    1    2    0  502 -0.60319513644E+02 -0.69417909787E+02  0.56572034306E+03  0.59868672649E+03  0.17300000000E+03 0. -1.
<mgrwt>
<rscale>  2 0.19592419E+03</rscale>
<asrwt>0</asrwt>
<pdfrwt beam="1">  1       21 0.95148234E-01 0.19592419E+03</pdfrwt>
<pdfrwt beam="2">  1       21 0.43252815E-01 0.19592419E+03</pdfrwt>
<totfact> 0.47308584E+03</totfact>
</mgrwt>
</event>
<event>
 4    1  0.4199484E+000  0.2073381E+03  0.7546771E-02  0.1143691E+00
         21   -1    0    0  503  502  0.00000000000E+00  0.00000000000E+00  0.99474552319E+02  0.99474552319E+02  0.00000000000E+00 0. -1.
         21   -1    0    0  501  503 -0.00000000000E+00 -0.00000000000E+00 -0.58750316197E+03  0.58750316197E+03  0.00000000000E+00 0. -1.
          6    1    1    2  501    0 -0.80911404798E+02 -0.80705715952E+02 -0.42063906082E+03  0.46896299161E+03  0.17300000000E+03 0. -1.
         -6    1    1    2    0  502  0.80911404798E+02  0.80705715952E+02 -0.67389548836E+02  0.21801472268E+03  0.17300000000E+03 0. -1.
<mgrwt>
<rscale>  2 0.20733805E+03</rscale>
<asrwt>0</asrwt>
<pdfrwt beam="1">  1       21 0.15303777E-01 0.20733805E+03</pdfrwt>
<pdfrwt beam="2">  1       21 0.90385101E-01 0.20733805E+03</pdfrwt>
<totfact> 0.39036770E+04</totfact>
</mgrwt>
</event>
<event>
 4    1  0.4199484E+000  0.1908039E+03  0.7546771E-02  0.1157738E+00
         21   -1    0    0  501  502  0.00000000000E+00  0.00000000000E+00  0.22049831769E+03  0.22049831769E+03  0.00000000000E+00 0.  1.
         21   -1    0    0  502  503 -0.00000000000E+00 -0.00000000000E+00 -0.39583760466E+03  0.39583760466E+03  0.00000000000E+00 0.  1.
          6    1    1    2  501    0 -0.49974201433E+02  0.63084935576E+02  0.14760776144E+03  0.24123470136E+03  0.17300000000E+03 0.  1.
         -6    1    1    2    0  503  0.49974201433E+02 -0.63084935576E+02 -0.32294704841E+03  0.37510122098E+03  0.17300000000E+03 0.  1.
<mgrwt>
<rscale>  2 0.19080390E+03</rscale>
<asrwt>0</asrwt>
<pdfrwt beam="1">  1       21 0.33922818E-01 0.19080390E+03</pdfrwt>
<pdfrwt beam="2">  1       21 0.60898093E-01 0.19080390E+03</pdfrwt>
<totfact> 0.21035410E+04</totfact>
</mgrwt>
</event>
<event>
 4    1  0.4199484E+000  0.1842805E+03  0.7546771E-02  0.1163723E+00
         21   -1    0    0  503  502  0.00000000000E+00  0.00000000000E+00  0.26971280429E+03  0.26971280429E+03  0.00000000000E+00 0.  1.
         21   -1    0    0  501  503 -0.00000000000E+00 -0.00000000000E+00 -0.15478120384E+03  0.15478120384E+03  0.00000000000E+00 0.  1.
          6    1    1    2  501    0 -0.50777496502E+01  0.63281347898E+02 -0.34202932114E+02  0.18742772767E+03  0.17300000000E+03 0.  1.
         -6    1    1    2    0  502  0.50777496502E+01 -0.63281347898E+02  0.14913453256E+03  0.23706628047E+03  0.17300000000E+03 0.  1.
<mgrwt>
<rscale>  2 0.18428053E+03</rscale>
<asrwt>0</asrwt>
<pdfrwt beam="1">  1       21 0.41494277E-01 0.18428053E+03</pdfrwt>
<pdfrwt beam="2">  1       21 0.23812493E-01 0.18428053E+03</pdfrwt>
<totfact> 0.93228886E+04</totfact>
</mgrwt>
</event>
<event>
 4    1  0.4199484E+000  0.1989186E+03  0.7546771E-02  0.1150655E+00
         21   -1    0    0  503  502  0.00000000000E+00  0.00000000000E+00  0.34824738922E+03  0.34824738922E+03  0.00000000000E+00 0.  1.
         21   -1    0    0  501  503 -0.00000000000E+00 -0.00000000000E+00 -0.43560280956E+03  0.43560280956E+03  0.00000000000E+00 0. -1.
          6    1    1    2  501    0  0.95822985226E+02 -0.21390609104E+02 -0.38063329726E+03  0.42947678591E+03  0.17300000000E+03 0. -1.
         -6    1    1    2    0  502 -0.95822985226E+02  0.21390609104E+02  0.29327787692E+03  0.35437341286E+03  0.17300000000E+03 0.  1.
<mgrwt>
<rscale>  2 0.19891858E+03</rscale>
<asrwt>0</asrwt>
<pdfrwt beam="1">  1       21 0.53576522E-01 0.19891858E+03</pdfrwt>
<pdfrwt beam="2">  1       21 0.67015816E-01 0.19891858E+03</pdfrwt>
<totfact> 0.66907503E+03</totfact>
</mgrwt>
</event>
<event>
 4    1  0.4199484E+000  0.1934433E+03  0.7546771E-02  0.1155392E+00
         21   -1    0    0  501  502  0.00000000000E+00  0.00000000000E+00  0.16268601685E+03  0.16268601685E+03  0.00000000000E+00 0.  1.
         21   -1    0    0  502  503 -0.00000000000E+00 -0.00000000000E+00 -0.23341324666E+03  0.23341324666E+03  0.00000000000E+00 0.  1.
          6    1    1    2  501    0  0.84011664596E+02  0.20817486056E+02 -0.11469104152E+02  0.19378304328E+03  0.17300000000E+03 0.  1.
         -6    1    1    2    0  503 -0.84011664596E+02 -0.20817486056E+02 -0.59258125657E+02  0.20231622024E+03  0.17300000000E+03 0.  1.
<mgrwt>
<rscale>  2 0.19344334E+03</rscale>
<asrwt>0</asrwt>
<pdfrwt beam="1">  1       21 0.25028618E-01 0.19344334E+03</pdfrwt>
<pdfrwt beam="2">  1       21 0.35909730E-01 0.19344334E+03</pdfrwt>
<totfact> 0.11299459E+05</totfact>
</mgrwt>
</event>
<event>
 4    1  0.4199484E+000  0.2422772E+03  0.7546771E-02  0.1118285E+00
         21   -1    0    0  501  502  0.00000000000E+00  0.00000000000E+00  0.44301932451E+02  0.44301932451E+02  0.00000000000E+00 0. -1.
         21   -1    0    0  502  503 -0.00000000000E+00 -0.00000000000E+00 -0.20412821221E+04  0.20412821221E+04  0.00000000000E+00 0.  1.
          6    1    1    2  501    0 -0.11066840631E+02  0.16925350627E+03 -0.38075708927E+03  0.45130276464E+03  0.17300000000E+03 0. -1.
         -6    1    1    2    0  503  0.11066840631E+02 -0.16925350627E+03 -0.16162231004E+04  0.16342812900E+04  0.17300000000E+03 0.  1.
<mgrwt>
<rscale>  2 0.24227716E+03</rscale>
<asrwt>0</asrwt>
<pdfrwt beam="1">  1       21 0.68156823E-02 0.24227716E+03</pdfrwt>
<pdfrwt beam="2">  1       21 0.31404339E+00 0.24227716E+03</pdfrwt>
<totfact> 0.42518783E+03</totfact>
</mgrwt>
</event>
<event>
 4    1  0.4199484E+000  0.1944158E+03  0.7546771E-02  0.1154538E+00
         21   -1    0    0  503  502  0.00000000000E+00  0.00000000000E+00  0.34094684248E+02  0.34094684248E+02  0.00000000000E+00 0.  1.
         21   -1    0    0  501  503 -0.00000000000E+00 -0.00000000000E+00 -0.11100627225E+04  0.11100627225E+04  0.00000000000E+00 0.  1.
          6    1    1    2  501    0 -0.87627694236E+02 -0.13779431970E+02 -0.51724223864E+03  0.55257308926E+03  0.17300000000E+03 0.  1.
         -6    1    1    2    0  502  0.87627694236E+02  0.13779431970E+02 -0.55872579961E+03  0.59158431748E+03  0.17300000000E+03 0.  1.
<mgrwt>
<rscale>  2 0.19441575E+03</rscale>
<asrwt>0</asrwt>
<pdfrwt beam="1">  1       21 0.52453369E-02 0.19441575E+03</pdfrwt>
<pdfrwt beam="2">  1       21 0.17077885E+00 0.19441575E+03</pdfrwt>
<totfact> 0.52199286E+04</totfact>
</mgrwt>
</event>
<event>
 4    1  0.4199484E+000  0.2109670E+03  0.7546771E-02  0.1140803E+00
         21   -1    0    0  503  502  0.00000000000E+00  0.00000000000E+00  0.59198344835E+03  0.59198344835E+03  0.00000000000E+00 0. -1.
         21   -1    0    0  501  503 -0.00000000000E+00 -0.00000000000E+00 -0.76887869405E+03  0.76887869405E+03  0.00000000000E+00 0.  1.
          6    1    1    2  501    0 -0.43463356230E+02 -0.11264548096E+03 -0.73475592652E+03  0.76444315634E+03  0.17300000000E+03 0.  1.
         -6    1    1    2    0  502  0.43463356230E+02  0.11264548096E+03  0.55786068083E+03  0.59641898606E+03  0.17300000000E+03 0. -1.
<mgrwt>
<rscale>  2 0.21096698E+03</rscale>
<asrwt>0</asrwt>
<pdfrwt beam="1">  1       21 0.91074376E-01 0.21096698E+03</pdfrwt>
<pdfrwt beam="2">  1       21 0.11828903E+00 0.21096698E+03</pdfrwt>
<totfact> 0.54842505E+02</totfact>
</mgrwt>
</event>
<event>
 4    1  0.4199484E+000  0.2006855E+03  0.7546771E-02  0.1149162E+00
         21   -1    0    0  503  502  0.00000000000E+00  0.00000000000E+00  0.13918127714E+03  0.13918127714E+03  0.00000000000E+00 0.  1.
         21   -1    0    0  501  503 -0.00000000000E+00 -0.00000000000E+00 -0.37071900714E+03  0.37071900714E+03  0.00000000000E+00 0. -1.
          6    1    1    2  501    0 -0.47495772689E+01  0.10160267459E+03 -0.23519881761E+03  0.30918141240E+03  0.17300000000E+03 0. -1.
         -6    1    1    2    0  502  0.47495772689E+01 -0.10160267459E+03  0.36610876148E+01  0.20071887189E+03  0.17300000000E+03 0. -1.
<mgrwt>
<rscale>  2 0.20068548E+03</rscale>
<asrwt>0</asrwt>
<pdfrwt beam="1">  1       21 0.21412504E-01 0.20068548E+03</pdfrwt>
<pdfrwt beam="2">  1       21 0.57033693E-01 0.20068548E+03</pdfrwt>
<totfact> 0.58437748E+04</totfact>
</mgrwt>
</event>
<event>
 4    1  0.4199484E+000  0.1832451E+03  0.7546771E-02  0.1164699E+00
         21   -1    0    0  501  502  0.00000000000E+00  0.00000000000E+00  0.15483030043E+03  0.15483030043E+03  0.00000000000E+00 0.  1.
         21   -1    0    0  502  503 -0.00000000000E+00 -0.00000000000E+00 -0.30191993363E+03  0.30191993363E+03  0.00000000000E+00 0.  1.
          6    1    1    2  501    0 -0.60328278131E+02  0.32017795794E+01  0.47662335834E+02  0.18934215271E+03  0.17300000000E+03 0.  1.
         -6    1    1    2    0  503  0.60328278131E+02 -0.32017795794E+01 -0.19475196903E+03  0.26740808136E+03  0.17300000000E+03 0.  1.
<mgrwt>
<rscale>  2 0.18324506E+03</rscale>
<asrwt>0</asrwt>
<pdfrwt beam="1">  1       21 0.23820047E-01 0.18324506E+03</pdfrwt>
<pdfrwt beam="2">  1       21 0.46449220E-01 0.18324506E+03</pdfrwt>
<totfact> 0.74016416E+04</totfact>
</mgrwt>
</event>
<event>
 4    1  0.4199484E+000  0.2259045E+03  0.7546771E-02  0.1129556E+00
         21   -1    0    0  501  502  0.00000000000E+00  0.00000000000E+00  0.10758926112E+03  0.10758926112E+03  0.00000000000E+00 0.  1.
         21   -1    0    0  502  503 -0.00000000000E+00 -0.00000000000E+00 -0.73257226569E+03  0.73257226569E+03  0.00000000000E+00 0. -1.
          6    1    1    2  501    0  0.42836513327E+02  0.13881242161E+03 -0.63077461154E+02  0.23454556353E+03  0.17300000000E+03 0. -1.
         -6    1    1    2    0  503 -0.42836513327E+02 -0.13881242161E+03 -0.56190554341E+03  0.60561596328E+03  0.17300000000E+03 0.  1.
<mgrwt>
<rscale>  2 0.22590453E+03</rscale>
<asrwt>0</asrwt>
<pdfrwt beam="1">  1       21 0.16552194E-01 0.22590453E+03</pdfrwt>
<pdfrwt beam="2">  1       21 0.11270342E+00 0.22590453E+03</pdfrwt>
<totfact> 0.19773142E+04</totfact>
</mgrwt>
</event>
<event>
 4    1  0.4199484E+000  0.2095783E+03  0.7546771E-02  0.1141900E+00
         21   -1    0    0  503  502  0.00000000000E+00  0.00000000000E+00  0.53524883999E+02  0.53524883999E+02  0.00000000000E+00 0. -1.
         21   -1    0    0  501  503 -0.00000000000E+00 -0.00000000000E+00 -0.82274213538E+03  0.82274213538E+03  0.00000000000E+00 0.  1.
          6    1    1    2  501    0 -0.83240854161E+02  0.84053757744E+02 -0.40691073603E+03  0.45771106725E+03  0.17300000000E+03 0. -1.
         -6    1    1    2    0  502  0.83240854161E+02 -0.84053757744E+02 -0.36230651535E+03  0.41855595212E+03  0.17300000000E+03 0.  1.
<mgrwt>
<rscale>  2 0.20957832E+03</rscale>
<asrwt>0</asrwt>
<pdfrwt beam="1">  1       21 0.82345978E-02 0.20957832E+03</pdfrwt>
<pdfrwt beam="2">  1       21 0.12657571E+00 0.20957832E+03</pdfrwt>
<totfact> 0.52280915E+04</totfact>
</mgrwt>
</event>
<event>
 4    1  0.4199484E+000  0.2272498E+03  0.7546771E-02  0.1128591E+00
         21   -1    0    0  501  502  0.00000000000E+00  0.00000000000E+00  0.29353655863E+03  0.29353655863E+03  0.00000000000E+00 0. -1.
         21   -1    0    0  502  503 -0.00000000000E+00 -0.00000000000E+00 -0.18297981822E+03  0.18297981822E+03  0.00000000000E+00 0. -1.
          6    1    1    2  501    0  0.12369681264E+03 -0.80078572005E+02  0.10203821146E+03  0.24910695644E+03  0.17300000000E+03 0. -1.
         -6    1    1    2    0  503 -0.12369681264E+03  0.80078572005E+02  0.85185289517E+01  0.22740942040E+03  0.17300000000E+03 0. -1.
<mgrwt>
<rscale>  2 0.22724982E+03</rscale>
<asrwt>0</asrwt>
<pdfrwt beam="1">  1       21 0.45159470E-01 0.22724982E+03</pdfrwt>
<pdfrwt beam="2">  1       21 0.28150741E-01 0.22724982E+03</pdfrwt>
<totfact> 0.55839660E+04</totfact>
</mgrwt>
</event>
<event>
 4    1  0.4199484E+000  0.1749469E+03  0.7546771E-02  0.1172785E+00
         21   -1    0    0  501  502  0.00000000000E+00  0.00000000000E+00  0.92375925996E+03  0.92375925996E+03  0.00000000000E+00 0. -1.
         21   -1    0    0  502  503 -0.00000000000E+00 -0.00000000000E+00 -0.11878898341E+03  0.11878898341E+03  0.00000000000E+00 0. -1.
          6    1    1    2  501    0  0.19356038570E+02  0.17400535777E+02  0.84513288141E+03  0.86305041691E+03  0.17300000000E+03 0. -1.
         -6    1    1    2    0  503 -0.19356038570E+02 -0.17400535777E+02 -0.40162604864E+02  0.17949782646E+03  0.17300000000E+03 0. -1.
<mgrwt>
<rscale>  2 0.17494695E+03</rscale>
<asrwt>0</asrwt>
<pdfrwt beam="1">  1       21 0.14211680E+00 0.17494695E+03</pdfrwt>
<pdfrwt beam="2">  1       21 0.18275229E-01 0.17494695E+03</pdfrwt>
<totfact> 0.95251210E+03</totfact>
</mgrwt>
</event>
<event>
 4    1  0.4199484E+000  0.1880427E+03  0.7546771E-02  0.1160239E+00
         21   -1    0    0  503  502  0.00000000000E+00  0.00000000000E+00  0.57256059254E+03  0.57256059254E+03  0.00000000000E+00 0. -1.
         21   -1    0    0  501  503 -0.00000000000E+00 -0.00000000000E+00 -0.61759923343E+02  0.61759923343E+02  0.00000000000E+00 0. -1.
          6    1    1    2  501    0  0.71778980081E+02 -0.16698502521E+02  0.25352498155E+03  0.31565008829E+03  0.17300000000E+03 0.  1.
         -6    1    1    2    0  502 -0.71778980081E+02  0.16698502521E+02  0.25727568764E+03  0.31867042759E+03  0.17300000000E+03 0.  1.
<mgrwt>
<rscale>  2 0.18804271E+03</rscale>
<asrwt>0</asrwt>
<pdfrwt beam="1">  1       21 0.88086242E-01 0.18804271E+03</pdfrwt>
<pdfrwt beam="2">  1       21 0.95015270E-02 0.18804271E+03</pdfrwt>
<totfact> 0.98224319E+04</totfact>
</mgrwt>
</event>
<event>
 4    1  0.4199484E+000  0.1922609E+03  0.7546771E-02  0.1156438E+00
         21   -1    0    0  501  502  0.00000000000E+00  0.00000000000E+00  0.11080998232E+03  0.11080998232E+03  0.00000000000E+00 0. -1.
         21   -1    0    0  502  503 -0.00000000000E+00 -0.00000000000E+00 -0.43167819306E+03  0.43167819306E+03  0.00000000000E+00 0.  1.
          6    1    1    2  501    0 -0.77947009485E+02 -0.30975933312E+02 -0.31131963549E+02  0.19476509925E+03  0.17300000000E+03 0.  1.
         -6    1    1    2    0  503  0.77947009485E+02  0.30975933312E+02 -0.28973624720E+03  0.34772307613E+03  0.17300000000E+03 0.  1.
<mgrwt>
<rscale>  2 0.19226088E+03</rscale>
<asrwt>0</asrwt>
<pdfrwt beam="1">  1       21 0.17047689E-01 0.19226088E+03</pdfrwt>
<pdfrwt beam="2">  1       21 0.66412031E-01 0.19226088E+03</pdfrwt>
<totfact> 0.64562141E+04</totfact>
</mgrwt>
</event>
<event>
 4    1  0.4199484E+000  0.2596711E+03  0.7546771E-02  0.1107341E+00
         21   -1    0    0  503  502  0.00000000000E+00  0.00000000000E+00  0.61526940816E+03  0.61526940816E+03  0.00000000000E+00 0. -1.
         21   -1    0    0  501  503 -0.00000000000E+00 -0.00000000000E+00 -0.14822423524E+03  0.14822423524E+03  0.00000000000E+00 0. -1.
          6    1    1    2  501    0 -0.19364122342E+03  0.17771871594E+01  0.38634010114E+02  0.26252936700E+03  0.17300000000E+03 0. -1.
         -6    1    1    2    0  502  0.19364122342E+03 -0.17771871594E+01  0.42841116281E+03  0.50096427639E+03  0.17300000000E+03 0. -1.
<mgrwt>
<rscale>  2 0.25967110E+03</rscale>
<asrwt>0</asrwt>
<pdfrwt beam="1">  1       21 0.94656830E-01 0.25967110E+03</pdfrwt>
<pdfrwt beam="2">  1       21 0.22803729E-01 0.25967110E+03</pdfrwt>
<totfact> 0.16219667E+04</totfact>
</mgrwt>
</event>
<event>
 4    1  0.4199484E+000  0.2160154E+03  0.7546771E-02  0.1136889E+00
         21   -1    0    0  501  502  0.00000000000E+00  0.00000000000E+00  0.49450844572E+03  0.49450844572E+03  0.00000000000E+00 0. -1.
         21   -1    0    0  502  503 -0.00000000000E+00 -0.00000000000E+00 -0.94791770597E+02  0.94791770597E+02  0.00000000000E+00 0. -1.
          6    1    1    2  501    0  0.12660740589E+03  0.26536715843E+02  0.21970633875E+03  0.30811281668E+03  0.17300000000E+03 0. -1.
         -6    1    1    2    0  503 -0.12660740589E+03 -0.26536715843E+02  0.18001033637E+03  0.28118739964E+03  0.17300000000E+03 0. -1.
<mgrwt>
<rscale>  2 0.21601535E+03</rscale>
<asrwt>0</asrwt>
<pdfrwt beam="1">  1       21 0.76078221E-01 0.21601535E+03</pdfrwt>
<pdfrwt beam="2">  1       21 0.14583350E-01 0.21601535E+03</pdfrwt>
<totfact> 0.62905875E+04</totfact>
</mgrwt>
</event>
<event>
 4    1  0.4199484E+000  0.2153638E+03  0.7546771E-02  0.1137387E+00
         21   -1    0    0  503  502  0.00000000000E+00  0.00000000000E+00  0.10513167942E+03  0.10513167942E+03  0.00000000000E+00 0.  1.
         21   -1    0    0  501  503 -0.00000000000E+00 -0.00000000000E+00 -0.44227825602E+03  0.44227825602E+03  0.00000000000E+00 0. -1.
          6    1    1    2  501    0 -0.10955949392E+03  0.66702903839E+02 -0.15490853449E+03  0.26528892579E+03  0.17300000000E+03 0. -1.
         -6    1    1    2    0  502  0.10955949392E+03 -0.66702903839E+02 -0.18223804211E+03  0.28212100964E+03  0.17300000000E+03 0.  1.
<mgrwt>
<rscale>  2 0.21536379E+03</rscale>
<asrwt>0</asrwt>
<pdfrwt beam="1">  1       21 0.16174104E-01 0.21536379E+03</pdfrwt>
<pdfrwt beam="2">  1       21 0.68042810E-01 0.21536379E+03</pdfrwt>
<totfact> 0.66728739E+04</totfact>
</mgrwt>
</event>
<event>
 4    1  0.4199484E+000  0.3273419E+03  0.7546771E-02  0.1072319E+00
         21   -1    0    0  503  502  0.00000000000E+00  0.00000000000E+00  0.14536494331E+03  0.14536494331E+03  0.00000000000E+00 0. -1.
         21   -1    0    0  501  503 -0.00000000000E+00 -0.00000000000E+00 -0.77727067636E+03  0.77727067636E+03  0.00000000000E+00 0. -1.
          6    1    1    2  501    0  0.18145854851E+03 -0.21046735894E+03 -0.42078921365E+03  0.53311938282E+03  0.17300000000E+03 0. -1.
         -6    1    1    2    0  502 -0.18145854851E+03  0.21046735894E+03 -0.21111651940E+03  0.38951623685E+03  0.17300000000E+03 0. -1.
<mgrwt>
<rscale>  2 0.32734189E+03</rscale>
<asrwt>0</asrwt>
<pdfrwt beam="1">  1       21 0.22363838E-01 0.32734189E+03</pdfrwt>
<pdfrwt beam="2">  1       21 0.11958010E+00 0.32734189E+03</pdfrwt>
<totfact> 0.92362028E+03</totfact>
</mgrwt>
</event>
<event>
 4    1  0.4199484E+000  0.2409211E+03  0.7546771E-02  0.1119181E+00
         21   -1    0    0  501  502  0.00000000000E+00  0.00000000000E+00  0.46799080462E+03  0.46799080462E+03  0.00000000000E+00 0. -1.
         21   -1    0    0  502  503 -0.00000000000E+00 -0.00000000000E+00 -0.20809097886E+03  0.20809097886E+03  0.00000000000E+00 0.  1.
          6    1    1    2  501    0  0.13360348786E+03 -0.10131182734E+03  0.34480737312E+03  0.42063654487E+03  0.17300000000E+03 0. -1.
         -6    1    1    2    0  503 -0.13360348786E+03  0.10131182734E+03 -0.84907547359E+02  0.25544523860E+03  0.17300000000E+03 0.  1.
<mgrwt>
<rscale>  2 0.24092110E+03</rscale>
<asrwt>0</asrwt>
<pdfrwt beam="1">  1       21 0.71998585E-01 0.24092110E+03</pdfrwt>
<pdfrwt beam="2">  1       21 0.32013997E-01 0.24092110E+03</pdfrwt>
<totfact> 0.15883081E+04</totfact>
</mgrwt>
</event>
<event>
 4    1  0.4199484E+000  0.1873851E+03  0.7546771E-02  0.1160841E+00
         21   -1    0    0  501  502  0.00000000000E+00  0.00000000000E+00  0.18238549542E+03  0.18238549542E+03  0.00000000000E+00 0.  1.
         21   -1    0    0  502  503 -0.00000000000E+00 -0.00000000000E+00 -0.27972530553E+03  0.27972530553E+03  0.00000000000E+00 0.  1.
          6    1    1    2  501    0  0.21911767525E+02 -0.68586063105E+02  0.80338307290E+02  0.20388088980E+03  0.17300000000E+03 0.  1.
         -6    1    1    2    0  503 -0.21911767525E+02  0.68586063105E+02 -0.17767811740E+03  0.25822991115E+03  0.17300000000E+03 0.  1.
<mgrwt>
<rscale>  2 0.18738509E+03</rscale>
<asrwt>0</asrwt>
<pdfrwt beam="1">  1       21 0.28059307E-01 0.18738509E+03</pdfrwt>
<pdfrwt beam="2">  1       21 0.43034663E-01 0.18738509E+03</pdfrwt>
<totfact> 0.63147184E+04</totfact>
</mgrwt>
</event>
<event>
 4    1  0.4199484E+000  0.1760812E+03  0.7546771E-02  0.1171651E+00
         21   -1    0    0  503  502  0.00000000000E+00  0.00000000000E+00  0.51592952258E+02  0.51592952258E+02  0.00000000000E+00 0.  1.
         21   -1    0    0  501  503 -0.00000000000E+00 -0.00000000000E+00 -0.13647811801E+04  0.13647811801E+04  0.00000000000E+00 0.  1.
          6    1    1    2  501    0 -0.15043027310E+01 -0.32761412201E+02 -0.11863994592E+04  0.11993949515E+04  0.17300000000E+03 0.  1.
         -6    1    1    2    0  502  0.15043027310E+01  0.32761412201E+02 -0.12678876872E+03  0.21697918087E+03  0.17300000000E+03 0.  1.
<mgrwt>
<rscale>  2 0.17608115E+03</rscale>
<asrwt>0</asrwt>
<pdfrwt beam="1">  1       21 0.79373790E-02 0.17608115E+03</pdfrwt>
<pdfrwt beam="2">  1       21 0.20996629E+00 0.17608115E+03</pdfrwt>
<totfact> 0.14322640E+04</totfact>
</mgrwt>
</event>
<event>
 4    1  0.4199484E+000  0.3464504E+03  0.7546771E-02  0.1064081E+00
         21   -1    0    0  503  502  0.00000000000E+00  0.00000000000E+00  0.44773010443E+03  0.44773010443E+03  0.00000000000E+00 0.  1.
         21   -1    0    0  501  503 -0.00000000000E+00 -0.00000000000E+00 -0.27442208112E+03  0.27442208112E+03  0.00000000000E+00 0. -1.
          6    1    1    2  501    0  0.28478094530E+03 -0.94861283843E+02  0.31766025327E+02  0.34790362220E+03  0.17300000000E+03 0. -1.
         -6    1    1    2    0  502 -0.28478094530E+03  0.94861283843E+02  0.14154199799E+03  0.37424856335E+03  0.17300000000E+03 0.  1.
<mgrwt>
<rscale>  2 0.34645036E+03</rscale>
<asrwt>0</asrwt>
<pdfrwt beam="1">  1       21 0.68881555E-01 0.34645036E+03</pdfrwt>
<pdfrwt beam="2">  1       21 0.42218782E-01 0.34645036E+03</pdfrwt>
<totfact> 0.95642322E+03</totfact>
</mgrwt>
</event>
<event>
 4    1  0.4199484E+000  0.2633929E+03  0.7546771E-02  0.1105122E+00
         21   -1    0    0  501  502  0.00000000000E+00  0.00000000000E+00  0.38167761600E+03  0.38167761600E+03  0.00000000000E+00 0. -1.
         21   -1    0    0  502  503 -0.00000000000E+00 -0.00000000000E+00 -0.18821671042E+03  0.18821671042E+03  0.00000000000E+00 0.  1.
          6    1    1    2  501    0  0.10520890596E+03  0.16845748447E+03  0.14948434488E+03  0.30285542315E+03  0.17300000000E+03 0. -1.
         -6    1    1    2    0  503 -0.10520890596E+03 -0.16845748447E+03  0.43976560690E+02  0.26703890327E+03  0.17300000000E+03 0.  1.
<mgrwt>
<rscale>  2 0.26339293E+03</rscale>
<asrwt>0</asrwt>
<pdfrwt beam="1">  1       21 0.58719633E-01 0.26339293E+03</pdfrwt>
<pdfrwt beam="2">  1       21 0.28956417E-01 0.26339293E+03</pdfrwt>
<totfact> 0.29928878E+04</totfact>
</mgrwt>
</event>
<event>
 4    1  0.4199484E+000  0.1824218E+03  0.7546771E-02  0.1165480E+00
         21   -1    0    0  501  502  0.00000000000E+00  0.00000000000E+00  0.32262888885E+03  0.32262888885E+03  0.00000000000E+00 0. -1.
         21   -1    0    0  502  503 -0.00000000000E+00 -0.00000000000E+00 -0.17950946725E+03  0.17950946725E+03  0.00000000000E+00 0. -1.
          6    1    1    2  501    0 -0.52936120727E+02  0.23376788234E+02  0.23531451861E+03  0.29774255620E+03  0.17300000000E+03 0. -1.
         -6    1    1    2    0  503  0.52936120727E+02 -0.23376788234E+02 -0.92195097007E+02  0.20439579990E+03  0.17300000000E+03 0. -1.
<mgrwt>
<rscale>  2 0.18242178E+03</rscale>
<asrwt>0</asrwt>
<pdfrwt beam="1">  1       21 0.49635214E-01 0.18242178E+03</pdfrwt>
<pdfrwt beam="2">  1       21 0.27616841E-01 0.18242178E+03</pdfrwt>
<totfact> 0.48645048E+04</totfact>
</mgrwt>
</event>
<event>
 4    1  0.4199484E+000  0.2208425E+03  0.7546771E-02  0.1133256E+00
         21   -1    0    0  503  502  0.00000000000E+00  0.00000000000E+00  0.99632192572E+03  0.99632192572E+03  0.00000000000E+00 0.  1.
         21   -1    0    0  501  503 -0.00000000000E+00 -0.00000000000E+00 -0.56619229948E+02  0.56619229948E+02  0.00000000000E+00 0. -1.
          6    1    1    2  501    0 -0.46893453443E+02  0.12900942561E+03  0.27610825092E+03  0.35356356444E+03  0.17300000000E+03 0. -1.
         -6    1    1    2    0  502  0.46893453443E+02 -0.12900942561E+03  0.66359444486E+03  0.69937759123E+03  0.17300000000E+03 0.  1.
<mgrwt>
<rscale>  2 0.22084254E+03</rscale>
<asrwt>0</asrwt>
<pdfrwt beam="1">  1       21 0.15328028E+00 0.22084254E+03</pdfrwt>
<pdfrwt beam="2">  1       21 0.87106515E-02 0.22084254E+03</pdfrwt>
<totfact> 0.28698561E+04</totfact>
</mgrwt>
</event>
<event>
 4    1  0.4199484E+000  0.5551088E+03  0.7546771E-02  0.1000318E+00
         21   -1    0    0  503  502  0.00000000000E+00  0.00000000000E+00  0.12984366718E+04  0.12984366718E+04  0.00000000000E+00 0.  1.
         21   -1    0    0  501  503 -0.00000000000E+00 -0.00000000000E+00 -0.34925173101E+03  0.34925173101E+03  0.00000000000E+00 0. -1.
          6    1    1    2  501    0  0.10492258326E+03  0.51692168339E+03  0.82003076666E+01  0.55516936180E+03  0.17300000000E+03 0. -1.
         -6    1    1    2    0  502 -0.10492258326E+03 -0.51692168339E+03  0.94098463316E+03  0.10925190411E+04  0.17300000000E+03 0.  1.
<mgrwt>
<rscale>  2 0.55510880E+03</rscale>
<asrwt>0</asrwt>
<pdfrwt beam="1">  1       21 0.19975949E+00 0.55510880E+03</pdfrwt>
<pdfrwt beam="2">  1       21 0.53731036E-01 0.55510880E+03</pdfrwt>
<totfact> 0.34443318E+02</totfact>
</mgrwt>
</event>
<event>
 4    1  0.4199484E+000  0.3821311E+03  0.7546771E-02  0.1050149E+00
         21   -1    0    0  501  502  0.00000000000E+00  0.00000000000E+00  0.22155406948E+03  0.22155406948E+03  0.00000000000E+00 0. -1.
         21   -1    0    0  502  503 -0.00000000000E+00 -0.00000000000E+00 -0.16071022761E+04  0.16071022761E+04  0.00000000000E+00 0. -1.
          6    1    1    2  501    0  0.29844203494E+03  0.16440050089E+03  0.94685744186E+01  0.38224838366E+03  0.17300000000E+03 0. -1.
         -6    1    1    2    0  503 -0.29844203494E+03 -0.16440050089E+03 -0.13950167811E+04  0.14464079619E+04  0.17300000000E+03 0. -1.
<mgrwt>
<rscale>  2 0.38213109E+03</rscale>
<asrwt>0</asrwt>
<pdfrwt beam="1">  1       21 0.34085244E-01 0.38213109E+03</pdfrwt>
<pdfrwt beam="2">  1       21 0.24724649E+00 0.38213109E+03</pdfrwt>
<totfact> 0.48244278E+02</totfact>
</mgrwt>
</event>
<event>
 4    1  0.4199484E+000  0.2149145E+03  0.7546771E-02  0.1137732E+00
         21   -1    0    0  501  502  0.00000000000E+00  0.00000000000E+00  0.14404036328E+04  0.14404036328E+04  0.00000000000E+00 0.  1.
         21   -1    0    0  502  503 -0.00000000000E+00 -0.00000000000E+00 -0.32704652137E+02  0.32704652137E+02  0.00000000000E+00 0. -1.
          6    1    1    2  501    0  0.91816011313E+02  0.88482078477E+02  0.80676174905E+03  0.83489686661E+03  0.17300000000E+03 0. -1.
         -6    1    1    2    0  503 -0.91816011313E+02 -0.88482078477E+02  0.60093723162E+03  0.63821141834E+03  0.17300000000E+03 0.  1.
<mgrwt>
<rscale>  2 0.21491454E+03</rscale>
<asrwt>0</asrwt>
<pdfrwt beam="1">  1       21 0.22160051E+00 0.21491454E+03</pdfrwt>
<pdfrwt beam="2">  1       21 0.50314861E-02 0.21491454E+03</pdfrwt>
<totfact> 0.25738761E+04</totfact>
</mgrwt>
</event>
<event>
 4    1  0.4199484E+000  0.2151299E+03  0.7546771E-02  0.1137567E+00
         21   -1    0    0  501  502  0.00000000000E+00  0.00000000000E+00  0.98934465315E+03  0.98934465315E+03  0.00000000000E+00 0.  1.
         21   -1    0    0  502  503 -0.00000000000E+00 -0.00000000000E+00 -0.57901767515E+02  0.57901767515E+02  0.00000000000E+00 0. -1.
          6    1    1    2  501    0 -0.48434045773E+02 -0.11834698599E+03  0.69521645154E+03  0.72774087447E+03  0.17300000000E+03 0.  1.
         -6    1    1    2    0  503  0.48434045773E+02  0.11834698599E+03  0.23622643409E+03  0.31950554619E+03  0.17300000000E+03 0. -1.
<mgrwt>
<rscale>  2 0.21512988E+03</rscale>
<asrwt>0</asrwt>
<pdfrwt beam="1">  1       21 0.15220686E+00 0.21512988E+03</pdfrwt>
<pdfrwt beam="2">  1       21 0.89079650E-02 0.21512988E+03</pdfrwt>
<totfact> 0.28207038E+04</totfact>
</mgrwt>
</event>
<event>
 4    1  0.4199484E+000  0.2244522E+03  0.7546771E-02  0.1130607E+00
         21   -1    0    0  503  502  0.00000000000E+00  0.00000000000E+00  0.62288107216E+03  0.62288107216E+03  0.00000000000E+00 0.  1.
         21   -1    0    0  501  503 -0.00000000000E+00 -0.00000000000E+00 -0.10106330335E+03  0.10106330335E+03  0.00000000000E+00 0.  1.
          6    1    1    2  501    0  0.12621056038E+03 -0.67235964203E+02  0.99148626792E+02  0.24537569282E+03  0.17300000000E+03 0.  1.
         -6    1    1    2    0  502 -0.12621056038E+03  0.67235964203E+02  0.42266914202E+03  0.47856868269E+03  0.17300000000E+03 0.  1.
<mgrwt>
<rscale>  2 0.22445218E+03</rscale>
<asrwt>0</asrwt>
<pdfrwt beam="1">  1       21 0.95827855E-01 0.22445218E+03</pdfrwt>
<pdfrwt beam="2">  1       21 0.15548201E-01 0.22445218E+03</pdfrwt>
<totfact> 0.32785702E+04</totfact>
</mgrwt>
</event>
<event>
 4    1  0.4199484E+000  0.1765633E+03  0.7546771E-02  0.1171171E+00
         21   -1    0    0  501  502  0.00000000000E+00  0.00000000000E+00  0.15700865703E+03  0.15700865703E+03  0.00000000000E+00 0. -1.
         21   -1    0    0  502  503 -0.00000000000E+00 -0.00000000000E+00 -0.25180564576E+03  0.25180564576E+03  0.00000000000E+00 0. -1.
          6    1    1    2  501    0 -0.29680605263E+02  0.19095724195E+02  0.46602571293E+02  0.18260992487E+03  0.17300000000E+03 0. -1.
         -6    1    1    2    0  503  0.29680605263E+02 -0.19095724195E+02 -0.14139956003E+03  0.22620437792E+03  0.17300000000E+03 0. -1.
<mgrwt>
<rscale>  2 0.17656326E+03</rscale>
<asrwt>0</asrwt>
<pdfrwt beam="1">  1       21 0.24155178E-01 0.17656326E+03</pdfrwt>
<pdfrwt beam="2">  1       21 0.38739330E-01 0.17656326E+03</pdfrwt>
<totfact> 0.10453357E+05</totfact>
</mgrwt>
</event>
<event>
 4    1  0.4199484E+000  0.1786011E+03  0.7546771E-02  0.1169164E+00
         21   -1    0    0  501  502  0.00000000000E+00  0.00000000000E+00  0.99530925845E+02  0.99530925845E+02  0.00000000000E+00 0.  1.
         21   -1    0    0  502  503 -0.00000000000E+00 -0.00000000000E+00 -0.81775048116E+03  0.81775048116E+03  0.00000000000E+00 0. -1.
          6    1    1    2  501    0  0.29406705834E+02  0.33235724878E+02 -0.14620466946E+01  0.17860712566E+03  0.17300000000E+03 0.  1.
         -6    1    1    2    0  503 -0.29406705834E+02 -0.33235724878E+02 -0.71675750862E+03  0.73867428134E+03  0.17300000000E+03 0. -1.
<mgrwt>
<rscale>  2 0.17860114E+03</rscale>
<asrwt>0</asrwt>
<pdfrwt beam="1">  1       21 0.15312450E-01 0.17860114E+03</pdfrwt>
<pdfrwt beam="2">  1       21 0.12580777E+00 0.17860114E+03</pdfrwt>
<totfact> 0.17900010E+04</totfact>
</mgrwt>
</event>
<event>
 4    1  0.4199484E+000  0.2315761E+03  0.7546771E-02  0.1125535E+00
         21   -1    0    0  503  502  0.00000000000E+00  0.00000000000E+00  0.15834268830E+03  0.15834268830E+03  0.00000000000E+00 0.  1.
         21   -1    0    0  501  503 -0.00000000000E+00 -0.00000000000E+00 -0.36725277549E+03  0.36725277549E+03  0.00000000000E+00 0. -1.
          6    1    1    2  501    0  0.13912683032E+03 -0.65895648722E+02 -0.17775687327E+03  0.29193324139E+03  0.17300000000E+03 0.  1.
         -6    1    1    2    0  502 -0.13912683032E+03  0.65895648722E+02 -0.31153213923E+02  0.23366222239E+03  0.17300000000E+03 0. -1.
<mgrwt>
<rscale>  2 0.23157615E+03</rscale>
<asrwt>0</asrwt>
<pdfrwt beam="1">  1       21 0.24360414E-01 0.23157615E+03</pdfrwt>
<pdfrwt beam="2">  1       21 0.56500426E-01 0.23157615E+03</pdfrwt>
<totfact> 0.46028421E+04</totfact>
</mgrwt>
</event>
<event>
 4    1  0.4199484E+000  0.1757031E+03  0.7546771E-02  0.1172028E+00
         21   -1    0    0  503  502  0.00000000000E+00  0.00000000000E+00  0.20052072975E+03  0.20052072975E+03  0.00000000000E+00 0.  1.
         21   -1    0    0  501  503 -0.00000000000E+00 -0.00000000000E+00 -0.17198579345E+03  0.17198579345E+03  0.00000000000E+00 0.  1.
          6    1    1    2  501    0  0.10985424024E+02 -0.28668532758E+02 -0.46035858692E+02  0.18163387514E+03  0.17300000000E+03 0.  1.
         -6    1    1    2    0  502 -0.10985424024E+02  0.28668532758E+02  0.74570794997E+02  0.19087264806E+03  0.17300000000E+03 0.  1.
<mgrwt>
<rscale>  2 0.17570306E+03</rscale>
<asrwt>0</asrwt>
<pdfrwt beam="1">  1       21 0.30849343E-01 0.17570306E+03</pdfrwt>
<pdfrwt beam="2">  1       21 0.26459353E-01 0.17570306E+03</pdfrwt>
<totfact> 0.13789137E+05</totfact>
</mgrwt>
</event>
<event>
 4    1  0.4199484E+000  0.2047905E+03  0.7546771E-02  0.1145759E+00
         21   -1    0    0  501  502  0.00000000000E+00  0.00000000000E+00  0.55979974659E+02  0.55979974659E+02  0.00000000000E+00 0.  1.
         21   -1    0    0  502  503 -0.00000000000E+00 -0.00000000000E+00 -0.20153737581E+04  0.20153737581E+04  0.00000000000E+00 0.  1.
          6    1    1    2  501    0  0.10396074235E+03 -0.34674290275E+02 -0.15878535111E+03  0.25913689449E+03  0.17300000000E+03 0.  1.
         -6    1    1    2    0  503 -0.10396074235E+03  0.34674290275E+02 -0.18006084323E+04  0.18122168383E+04  0.17300000000E+03 0.  1.
<mgrwt>
<rscale>  2 0.20479048E+03</rscale>
<asrwt>0</asrwt>
<pdfrwt beam="1">  1       21 0.86123034E-02 0.20479048E+03</pdfrwt>
<pdfrwt beam="2">  1       21 0.31005752E+00 0.20479048E+03</pdfrwt>
<totfact> 0.31061706E+03</totfact>
</mgrwt>
</event>
<event>
 4    1  0.4199484E+000  0.1803780E+03  0.7546771E-02  0.1167438E+00
         21   -1    0    0  501  502  0.00000000000E+00  0.00000000000E+00  0.44801214308E+02  0.44801214308E+02  0.00000000000E+00 0. -1.
         21   -1    0    0  502  503 -0.00000000000E+00 -0.00000000000E+00 -0.92200810142E+03  0.92200810142E+03  0.00000000000E+00 0. -1.
          6    1    1    2  501    0  0.31156378208E+02 -0.40453499035E+02 -0.21585222873E+03  0.28129768953E+03  0.17300000000E+03 0.  1.
         -6    1    1    2    0  503 -0.31156378208E+02  0.40453499035E+02 -0.66135465838E+03  0.68551162620E+03  0.17300000000E+03 0.  1.
<mgrwt>
<rscale>  2 0.18037795E+03</rscale>
<asrwt>0</asrwt>
<pdfrwt beam="1">  1       21 0.68924950E-02 0.18037795E+03</pdfrwt>
<pdfrwt beam="2">  1       21 0.14184739E+00 0.18037795E+03</pdfrwt>
<totfact> 0.54094831E+04</totfact>
</mgrwt>
</event>
<event>
 4    1  0.4199484E+000  0.2440239E+03  0.7546771E-02  0.1117141E+00
         21   -1    0    0  501  502  0.00000000000E+00  0.00000000000E+00  0.11251515606E+03  0.11251515606E+03  0.00000000000E+00 0.  1.
         21   -1    0    0  502  503 -0.00000000000E+00 -0.00000000000E+00 -0.54528761682E+03  0.54528761682E+03  0.00000000000E+00 0.  1.
          6    1    1    2  501    0 -0.10034619037E+03 -0.13981876042E+03 -0.15996488629E+03  0.29178143966E+03  0.17300000000E+03 0.  1.
         -6    1    1    2    0  503  0.10034619037E+03  0.13981876042E+03 -0.27280757446E+03  0.36602133322E+03  0.17300000000E+03 0.  1.
<mgrwt>
<rscale>  2 0.24402386E+03</rscale>
<asrwt>0</asrwt>
<pdfrwt beam="1">  1       21 0.17310024E-01 0.24402386E+03</pdfrwt>
<pdfrwt beam="2">  1       21 0.83890404E-01 0.24402386E+03</pdfrwt>
<totfact> 0.36320685E+04</totfact>
</mgrwt>
</event>
<event>
 4    1  0.4199484E+000  0.2944951E+03  0.7546771E-02  0.1088025E+00
         21   -1    0    0  503  502  0.00000000000E+00  0.00000000000E+00  0.25065510506E+03  0.25065510506E+03  0.00000000000E+00 0. -1.
         21   -1    0    0  501  503 -0.00000000000E+00 -0.00000000000E+00 -0.50108016599E+03  0.50108016599E+03  0.00000000000E+00 0. -1.
          6    1    1    2  501    0 -0.21222912286E+03  0.10843058040E+03 -0.33431319070E+03  0.44552519663E+03  0.17300000000E+03 0. -1.
         -6    1    1    2    0  502  0.21222912286E+03 -0.10843058040E+03  0.83888129767E+02  0.30621007441E+03  0.17300000000E+03 0. -1.
<mgrwt>
<rscale>  2 0.29449515E+03</rscale>
<asrwt>0</asrwt>
<pdfrwt beam="1">  1       21 0.38562324E-01 0.29449515E+03</pdfrwt>
<pdfrwt beam="2">  1       21 0.77089256E-01 0.29449515E+03</pdfrwt>
<totfact> 0.91381837E+03</totfact>
</mgrwt>
</event>
<event>
 4    1  0.4199484E+000  0.2165762E+03  0.7546771E-02  0.1136462E+00
         21   -1    0    0  503  502  0.00000000000E+00  0.00000000000E+00  0.56544536851E+03  0.56544536851E+03  0.00000000000E+00 0.  1.
         21   -1    0    0  501  503 -0.00000000000E+00 -0.00000000000E+00 -0.95682969470E+02  0.95682969470E+02  0.00000000000E+00 0.  1.
          6    1    1    2  501    0  0.99853826259E+02 -0.83698576188E+02  0.11430635729E+03  0.24489014188E+03  0.17300000000E+03 0.  1.
         -6    1    1    2    0  502 -0.99853826259E+02  0.83698576188E+02  0.35545604175E+03  0.41623819610E+03  0.17300000000E+03 0.  1.
<mgrwt>
<rscale>  2 0.21657617E+03</rscale>
<asrwt>0</asrwt>
<pdfrwt beam="1">  1       21 0.86991593E-01 0.21657617E+03</pdfrwt>
<pdfrwt beam="2">  1       21 0.14720457E-01 0.21657617E+03</pdfrwt>
<totfact> 0.45574396E+04</totfact>
</mgrwt>
</event>
<event>
 4    1  0.4199484E+000  0.2513096E+03  0.7546771E-02  0.1112480E+00
         21   -1    0    0  501  502  0.00000000000E+00  0.00000000000E+00  0.13330860791E+03  0.13330860791E+03  0.00000000000E+00 0.  1.
         21   -1    0    0  502  503 -0.00000000000E+00 -0.00000000000E+00 -0.55177397281E+03  0.55177397281E+03  0.00000000000E+00 0.  1.
          6    1    1    2  501    0  0.14332297694E+03  0.11263233414E+03 -0.80433332760E+02  0.26386746565E+03  0.17300000000E+03 0.  1.
         -6    1    1    2    0  503 -0.14332297694E+03 -0.11263233414E+03 -0.33803203214E+03  0.42121511507E+03  0.17300000000E+03 0.  1.
<mgrwt>
<rscale>  2 0.25130961E+03</rscale>
<asrwt>0</asrwt>
<pdfrwt beam="1">  1       21 0.20509017E-01 0.25130961E+03</pdfrwt>
<pdfrwt beam="2">  1       21 0.84888300E-01 0.25130961E+03</pdfrwt>
<totfact> 0.25663675E+04</totfact>
</mgrwt>
</event>
<event>
 4    1  0.4199484E+000  0.3400634E+03  0.7546771E-02  0.1066769E+00
         21   -1    0    0  501  502  0.00000000000E+00  0.00000000000E+00  0.51552431039E+03  0.51552431039E+03  0.00000000000E+00 0. -1.
         21   -1    0    0  502  503 -0.00000000000E+00 -0.00000000000E+00 -0.28943605527E+03  0.28943605527E+03  0.00000000000E+00 0. -1.
          6    1    1    2  501    0  0.57816239709E+02  0.28700418648E+03  0.30394488536E+03  0.45609825034E+03  0.17300000000E+03 0. -1.
         -6    1    1    2    0  503 -0.57816239709E+02 -0.28700418648E+03 -0.77856630229E+02  0.34886211532E+03  0.17300000000E+03 0. -1.
<mgrwt>
<rscale>  2 0.34006341E+03</rscale>
<asrwt>0</asrwt>
<pdfrwt beam="1">  1       21 0.79311432E-01 0.34006341E+03</pdfrwt>
<pdfrwt beam="2">  1       21 0.44528624E-01 0.34006341E+03</pdfrwt>
<totfact> 0.62437470E+03</totfact>
</mgrwt>
</event>
<event>
 4    1  0.4199484E+000  0.2216919E+03  0.7546771E-02  0.1132628E+00
         21   -1    0    0  503  502  0.00000000000E+00  0.00000000000E+00  0.12401306701E+04  0.12401306701E+04  0.00000000000E+00 0. -1.
         21   -1    0    0  501  503 -0.00000000000E+00 -0.00000000000E+00 -0.75903165161E+02  0.75903165161E+02  0.00000000000E+00 0. -1.
          6    1    1    2  501    0 -0.13788279960E+03  0.14374165923E+02  0.12723518346E+03  0.25560922319E+03  0.17300000000E+03 0. -1.
         -6    1    1    2    0  502  0.13788279960E+03 -0.14374165923E+02  0.10369923215E+04  0.10604246120E+04  0.17300000000E+03 0. -1.
<mgrwt>
<rscale>  2 0.22169187E+03</rscale>
<asrwt>0</asrwt>
<pdfrwt beam="1">  1       21 0.19078932E+00 0.22169187E+03</pdfrwt>
<pdfrwt beam="2">  1       21 0.11677411E-01 0.22169187E+03</pdfrwt>
<totfact> 0.92774903E+03</totfact>
</mgrwt>
</event>
<event>
 4    1  0.4199484E+000  0.1740394E+03  0.7546771E-02  0.1173700E+00
         21   -1    0    0  503  502  0.00000000000E+00  0.00000000000E+00  0.30298061856E+03  0.30298061856E+03  0.00000000000E+00 0. -1.
         21   -1    0    0  501  503 -0.00000000000E+00 -0.00000000000E+00 -0.12645200032E+03  0.12645200032E+03  0.00000000000E+00 0. -1.
          6    1    1    2  501    0 -0.18984879496E+02 -0.54223643984E+00 -0.99912997664E+01  0.17432597552E+03  0.17300000000E+03 0. -1.
         -6    1    1    2    0  502  0.18984879496E+02  0.54223643984E+00  0.18651991800E+03  0.25510664335E+03  0.17300000000E+03 0. -1.
<mgrwt>
<rscale>  2 0.17403942E+03</rscale>
<asrwt>0</asrwt>
<pdfrwt beam="1">  1       21 0.46612403E-01 0.17403942E+03</pdfrwt>
<pdfrwt beam="2">  1       21 0.19454154E-01 0.17403942E+03</pdfrwt>
<totfact> 0.10786986E+05</totfact>
</mgrwt>
</event>
<event>
 4    1  0.4199484E+000  0.2169368E+03  0.7546771E-02  0.1136188E+00
         21   -1    0    0  501  502  0.00000000000E+00  0.00000000000E+00  0.14013998850E+04  0.14013998850E+04  0.00000000000E+00 0.  1.
         21   -1    0    0  502  503 -0.00000000000E+00 -0.00000000000E+00 -0.38475027670E+02  0.38475027670E+02  0.00000000000E+00 0.  1.
          6    1    1    2  501    0  0.54502023024E+02  0.11900461514E+03  0.93820731250E+03  0.96296133368E+03  0.17300000000E+03 0.  1.
         -6    1    1    2    0  503 -0.54502023024E+02 -0.11900461514E+03  0.42471754483E+03  0.47691357899E+03  0.17300000000E+03 0.  1.
<mgrwt>
<rscale>  2 0.21693679E+03</rscale>
<asrwt>0</asrwt>
<pdfrwt beam="1">  1       21 0.21559994E+00 0.21693679E+03</pdfrwt>
<pdfrwt beam="2">  1       21 0.59192361E-02 0.21693679E+03</pdfrwt>
<totfact> 0.21213616E+04</totfact>
</mgrwt>
</event>
<event>
 4    1  0.4199484E+000  0.1898639E+03  0.7546771E-02  0.1158584E+00
         21   -1    0    0  503  502  0.00000000000E+00  0.00000000000E+00  0.24203978281E+03  0.24203978281E+03  0.00000000000E+00 0. -1.
         21   -1    0    0  501  503 -0.00000000000E+00 -0.00000000000E+00 -0.23890574262E+03  0.23890574262E+03  0.00000000000E+00 0.  1.
          6    1    1    2  501    0 -0.77713237185E+02 -0.89426412108E+01 -0.14600432108E+03  0.23951112675E+03  0.17300000000E+03 0. -1.
         -6    1    1    2    0  502  0.77713237185E+02  0.89426412108E+01  0.14913836126E+03  0.24143439868E+03  0.17300000000E+03 0. -1.
<mgrwt>
<rscale>  2 0.18986395E+03</rscale>
<asrwt>0</asrwt>
<pdfrwt beam="1">  1       21 0.37236890E-01 0.18986395E+03</pdfrwt>
<pdfrwt beam="2">  1       21 0.36754730E-01 0.18986395E+03</pdfrwt>
<totfact> 0.49722413E+04</totfact>
</mgrwt>
</event>
<event>
 4    1  0.4199484E+000  0.1973914E+03  0.7546771E-02  0.1151959E+00
         21   -1    0    0  501  502  0.00000000000E+00  0.00000000000E+00  0.62756613830E+02  0.62756613830E+02  0.00000000000E+00 0.  1.
         21   -1    0    0  502  503 -0.00000000000E+00 -0.00000000000E+00 -0.12974424493E+04  0.12974424493E+04  0.00000000000E+00 0.  1.
          6    1    1    2  501    0 -0.45290425922E+02  0.83565204476E+02 -0.12622330213E+03  0.23429828868E+03  0.17300000000E+03 0.  1.
         -6    1    1    2    0  503  0.45290425922E+02 -0.83565204476E+02 -0.11084625333E+04  0.11259007744E+04  0.17300000000E+03 0.  1.
<mgrwt>
<rscale>  2 0.19739140E+03</rscale>
<asrwt>0</asrwt>
<pdfrwt beam="1">  1       21 0.96548640E-02 0.19739140E+03</pdfrwt>
<pdfrwt beam="2">  1       21 0.19960652E+00 0.19739140E+03</pdfrwt>
<totfact> 0.11614105E+04</totfact>
</mgrwt>
</event>
<event>
 4    1  0.4199484E+000  0.2479222E+03  0.7546771E-02  0.1114625E+00
         21   -1    0    0  503  502  0.00000000000E+00  0.00000000000E+00  0.42061465836E+03  0.42061465836E+03  0.00000000000E+00 0. -1.
         21   -1    0    0  501  503 -0.00000000000E+00 -0.00000000000E+00 -0.15969877118E+03  0.15969877118E+03  0.00000000000E+00 0. -1.
          6    1    1    2  501    0 -0.16771110332E+03  0.58390276053E+02  0.45888525401E+02  0.25213328871E+03  0.17300000000E+03 0. -1.
         -6    1    1    2    0  502  0.16771110332E+03 -0.58390276053E+02  0.21502736178E+03  0.32818014082E+03  0.17300000000E+03 0. -1.
<mgrwt>
<rscale>  2 0.24792224E+03</rscale>
<asrwt>0</asrwt>
<pdfrwt beam="1">  1       21 0.64709947E-01 0.24792224E+03</pdfrwt>
<pdfrwt beam="2">  1       21 0.24569042E-01 0.24792224E+03</pdfrwt>
<totfact> 0.33531512E+04</totfact>
</mgrwt>
</event>
<event>
 4    1  0.4199484E+000  0.2197941E+03  0.7546771E-02  0.1134037E+00
         21   -1    0    0  501  502  0.00000000000E+00  0.00000000000E+00  0.66814570623E+03  0.66814570623E+03  0.00000000000E+00 0. -1.
         21   -1    0    0  502  503 -0.00000000000E+00 -0.00000000000E+00 -0.13317199854E+03  0.13317199854E+03  0.00000000000E+00 0. -1.
          6    1    1    2  501    0  0.29333910409E+02  0.13236295580E+03  0.53835861952E+03  0.58149757831E+03  0.17300000000E+03 0. -1.
         -6    1    1    2    0  503 -0.29333910409E+02 -0.13236295580E+03 -0.33849118331E+01  0.21982012646E+03  0.17300000000E+03 0. -1.
<mgrwt>
<rscale>  2 0.21979406E+03</rscale>
<asrwt>0</asrwt>
<pdfrwt beam="1">  1       21 0.10279164E+00 0.21979406E+03</pdfrwt>
<pdfrwt beam="2">  1       21 0.20488000E-01 0.21979406E+03</pdfrwt>
<totfact> 0.16678273E+04</totfact>
</mgrwt>
</event>
<event>
 4    1  0.4199484E+000  0.2112271E+03  0.7546771E-02  0.1140598E+00
         21   -1    0    0  503  502  0.00000000000E+00  0.00000000000E+00  0.11128408697E+04  0.11128408697E+04  0.00000000000E+00 0. -1.
         21   -1    0    0  501  503 -0.00000000000E+00 -0.00000000000E+00 -0.86779668595E+02  0.86779668595E+02  0.00000000000E+00 0. -1.
          6    1    1    2  501    0 -0.11132065183E+03  0.47912550977E+02  0.73081633185E+02  0.22351247208E+03  0.17300000000E+03 0. -1.
         -6    1    1    2    0  502  0.11132065183E+03 -0.47912550977E+02  0.95297956793E+03  0.97610806622E+03  0.17300000000E+03 0. -1.
<mgrwt>
<rscale>  2 0.21122713E+03</rscale>
<asrwt>0</asrwt>
<pdfrwt beam="1">  1       21 0.17120628E+00 0.21122713E+03</pdfrwt>
<pdfrwt beam="2">  1       21 0.13350719E-01 0.21122713E+03</pdfrwt>
<totfact> 0.99939241E+03</totfact>
</mgrwt>
</event>
<event>
 4    1  0.4199484E+000  0.2817193E+03  0.7546771E-02  0.1094754E+00
         21   -1    0    0  503  502  0.00000000000E+00  0.00000000000E+00  0.86285020929E+02  0.86285020929E+02  0.00000000000E+00 0. -1.
         21   -1    0    0  501  503 -0.00000000000E+00 -0.00000000000E+00 -0.17111645161E+04  0.17111645161E+04  0.00000000000E+00 0. -1.
          6    1    1    2  501    0  0.14610734172E+03 -0.16759901609E+03 -0.14236160356E+04  0.14512230712E+04  0.17300000000E+03 0. -1.
         -6    1    1    2    0  502 -0.14610734172E+03  0.16759901609E+03 -0.20126345956E+03  0.34622646585E+03  0.17300000000E+03 0. -1.
<mgrwt>
<rscale>  2 0.28171934E+03</rscale>
<asrwt>0</asrwt>
<pdfrwt beam="1">  1       21 0.13274619E-01 0.28171934E+03</pdfrwt>
<pdfrwt beam="2">  1       21 0.26325606E+00 0.28171934E+03</pdfrwt>
<totfact> 0.25011325E+03</totfact>
</mgrwt>
</event>
<event>
 4    1  0.4199484E+000  0.1870386E+03  0.7546771E-02  0.1161160E+00
         21   -1    0    0  501  502  0.00000000000E+00  0.00000000000E+00  0.19627248643E+03  0.19627248643E+03  0.00000000000E+00 0. -1.
         21   -1    0    0  502  503 -0.00000000000E+00 -0.00000000000E+00 -0.43767663058E+03  0.43767663058E+03  0.00000000000E+00 0. -1.
          6    1    1    2  501    0  0.67171350938E+02 -0.23290458874E+02  0.12333966526E+03  0.22404488141E+03  0.17300000000E+03 0. -1.
         -6    1    1    2    0  503 -0.67171350938E+02  0.23290458874E+02 -0.36474380940E+03  0.40990423560E+03  0.17300000000E+03 0. -1.
<mgrwt>
<rscale>  2 0.18703859E+03</rscale>
<asrwt>0</asrwt>
<pdfrwt beam="1">  1       21 0.30195767E-01 0.18703859E+03</pdfrwt>
<pdfrwt beam="2">  1       21 0.67334865E-01 0.18703859E+03</pdfrwt>
<totfact> 0.21302094E+04</totfact>
</mgrwt>
</event>
<event>
 4    1  0.4199484E+000  0.2560895E+03  0.7546771E-02  0.1109516E+00
         21   -1    0    0  503  502  0.00000000000E+00  0.00000000000E+00  0.40331366523E+03  0.40331366523E+03  0.00000000000E+00 0. -1.
         21   -1    0    0  501  503 -0.00000000000E+00 -0.00000000000E+00 -0.19234712375E+03  0.19234712375E+03  0.00000000000E+00 0.  1.
          6    1    1    2  501    0 -0.11903038610E+03 -0.14657629628E+03 -0.11626627158E+02  0.25635331460E+03  0.17300000000E+03 0.  1.
         -6    1    1    2    0  502  0.11903038610E+03  0.14657629628E+03  0.22259316864E+03  0.33930747438E+03  0.17300000000E+03 0. -1.
<mgrwt>
<rscale>  2 0.25608952E+03</rscale>
<asrwt>0</asrwt>
<pdfrwt beam="1">  1       21 0.62048256E-01 0.25608952E+03</pdfrwt>
<pdfrwt beam="2">  1       21 0.29591865E-01 0.25608952E+03</pdfrwt>
<totfact> 0.25535993E+04</totfact>
</mgrwt>
</event>
<event>
 4    1  0.4199484E+000  0.2267464E+03  0.7546771E-02  0.1128951E+00
         21   -1    0    0  501  502  0.00000000000E+00  0.00000000000E+00  0.67920335207E+03  0.67920335207E+03  0.00000000000E+00 0.  1.
         21   -1    0    0  502  503 -0.00000000000E+00 -0.00000000000E+00 -0.12749422704E+03  0.12749422704E+03  0.00000000000E+00 0.  1.
          6    1    1    2  501    0  0.58879762040E+02 -0.13423159871E+03  0.53294560700E+03  0.57917611181E+03  0.17300000000E+03 0.  1.
         -6    1    1    2    0  503 -0.58879762040E+02  0.13423159871E+03  0.18763518030E+02  0.22752146729E+03  0.17300000000E+03 0.  1.
<mgrwt>
<rscale>  2 0.22674644E+03</rscale>
<asrwt>0</asrwt>
<pdfrwt beam="1">  1       21 0.10449282E+00 0.22674644E+03</pdfrwt>
<pdfrwt beam="2">  1       21 0.19614497E-01 0.22674644E+03</pdfrwt>
<totfact> 0.17326745E+04</totfact>
</mgrwt>
</event>
<event>
 4    1  0.4199484E+000  0.1849803E+03  0.7546771E-02  0.1163068E+00
         21   -1    0    0  503  502  0.00000000000E+00  0.00000000000E+00  0.10898409744E+03  0.10898409744E+03  0.00000000000E+00 0.  1.
         21   -1    0    0  501  503 -0.00000000000E+00 -0.00000000000E+00 -0.32365397996E+03  0.32365397996E+03  0.00000000000E+00 0.  1.
          6    1    1    2  501    0  0.22412965679E+02  0.61533423510E+02 -0.14475359604E+03  0.23488573138E+03  0.17300000000E+03 0.  1.
         -6    1    1    2    0  502 -0.22412965679E+02 -0.61533423510E+02 -0.69916286479E+02  0.19775234601E+03  0.17300000000E+03 0.  1.
<mgrwt>
<rscale>  2 0.18498028E+03</rscale>
<asrwt>0</asrwt>
<pdfrwt beam="1">  1       21 0.16766784E-01 0.18498028E+03</pdfrwt>
<pdfrwt beam="2">  1       21 0.49792919E-01 0.18498028E+03</pdfrwt>
<totfact> 0.12332169E+05</totfact>
</mgrwt>
</event>
<event>
 4    1  0.4199484E+000  0.2429186E+03  0.7546771E-02  0.1117864E+00
         21   -1    0    0  503  502  0.00000000000E+00  0.00000000000E+00  0.51417010216E+03  0.51417010216E+03  0.00000000000E+00 0. -1.
         21   -1    0    0  501  503 -0.00000000000E+00 -0.00000000000E+00 -0.49347708834E+03  0.49347708834E+03  0.00000000000E+00 0. -1.
          6    1    1    2  501    0  0.11256681681E+03  0.12809821483E+03 -0.43101941602E+03  0.49475971731E+03  0.17300000000E+03 0. -1.
         -6    1    1    2    0  502 -0.11256681681E+03 -0.12809821483E+03  0.45171242983E+03  0.51288747319E+03  0.17300000000E+03 0. -1.
<mgrwt>
<rscale>  2 0.24291859E+03</rscale>
<asrwt>0</asrwt>
<pdfrwt beam="1">  1       21 0.79103093E-01 0.24291859E+03</pdfrwt>
<pdfrwt beam="2">  1       21 0.75919552E-01 0.24291859E+03</pdfrwt>
<totfact> 0.20948256E+03</totfact>
</mgrwt>
</event>
<event>
 4    1  0.4199484E+000  0.2097548E+03  0.7546771E-02  0.1141760E+00
         21   -1    0    0  501  502  0.00000000000E+00  0.00000000000E+00  0.81263781271E+03  0.81263781271E+03  0.00000000000E+00 0.  1.
         21   -1    0    0  502  503 -0.00000000000E+00 -0.00000000000E+00 -0.14477707175E+03  0.14477707175E+03  0.00000000000E+00 0. -1.
          6    1    1    2  501    0  0.11049995240E+03 -0.43102600693E+02  0.71269609826E+03  0.74292180082E+03  0.17300000000E+03 0.  1.
         -6    1    1    2    0  503 -0.11049995240E+03  0.43102600693E+02 -0.44835357297E+02  0.21449308365E+03  0.17300000000E+03 0. -1.
<mgrwt>
<rscale>  2 0.20975479E+03</rscale>
<asrwt>0</asrwt>
<pdfrwt beam="1">  1       21 0.12502120E+00 0.20975479E+03</pdfrwt>
<pdfrwt beam="2">  1       21 0.22273396E-01 0.20975479E+03</pdfrwt>
<totfact> 0.88804691E+03</totfact>
</mgrwt>
</event>
<event>
 4    1  0.4199484E+000  0.1887875E+03  0.7546771E-02  0.1159559E+00
         21   -1    0    0  501  502  0.00000000000E+00  0.00000000000E+00  0.98905545658E+03  0.98905545658E+03  0.00000000000E+00 0. -1.
         21   -1    0    0  502  503 -0.00000000000E+00 -0.00000000000E+00 -0.38650354303E+02  0.38650354303E+02  0.00000000000E+00 0. -1.
          6    1    1    2  501    0  0.16561109707E+02  0.73739067691E+02  0.60886775131E+03  0.63746424138E+03  0.17300000000E+03 0. -1.
         -6    1    1    2    0  503 -0.16561109707E+02 -0.73739067691E+02  0.34153735097E+03  0.39024156950E+03  0.17300000000E+03 0. -1.
<mgrwt>
<rscale>  2 0.18878750E+03</rscale>
<asrwt>0</asrwt>
<pdfrwt beam="1">  1       21 0.15216236E+00 0.18878750E+03</pdfrwt>
<pdfrwt beam="2">  1       21 0.59462091E-02 0.18878750E+03</pdfrwt>
<totfact> 0.57756597E+04</totfact>
</mgrwt>
</event>
<event>
 4    1  0.4199484E+000  0.1760736E+03  0.7546771E-02  0.1171658E+00
         21   -1    0    0  501  502  0.00000000000E+00  0.00000000000E+00  0.84563207473E+03  0.84563207473E+03  0.00000000000E+00 0. -1.
         21   -1    0    0  502  503 -0.00000000000E+00 -0.00000000000E+00 -0.45875899889E+02  0.45875899889E+02  0.00000000000E+00 0. -1.
          6    1    1    2  501    0 -0.80063090801E+01 -0.31761947057E+02  0.59965373301E+03  0.62496921666E+03  0.17300000000E+03 0.  1.
         -6    1    1    2    0  503  0.80063090801E+01  0.31761947057E+02  0.20010244183E+03  0.26653875796E+03  0.17300000000E+03 0.  1.
<mgrwt>
<rscale>  2 0.17607363E+03</rscale>
<asrwt>0</asrwt>
<pdfrwt beam="1">  1       21 0.13009723E+00 0.17607363E+03</pdfrwt>
<pdfrwt beam="2">  1       21 0.70578314E-02 0.17607363E+03</pdfrwt>
<totfact> 0.64880511E+04</totfact>
</mgrwt>
</event>
<event>
 4    1  0.4199484E+000  0.3166764E+03  0.7546771E-02  0.1077189E+00
         21   -1    0    0  503  502  0.00000000000E+00  0.00000000000E+00  0.28703317347E+03  0.28703317347E+03  0.00000000000E+00 0.  1.
         21   -1    0    0  501  503 -0.00000000000E+00 -0.00000000000E+00 -0.46525234048E+03  0.46525234048E+03  0.00000000000E+00 0.  1.
          6    1    1    2  501    0  0.18966016260E+03 -0.18542915309E+03 -0.27682345399E+03  0.42061285379E+03  0.17300000000E+03 0.  1.
         -6    1    1    2    0  502 -0.18966016260E+03  0.18542915309E+03  0.98604286982E+02  0.33167266017E+03  0.17300000000E+03 0.  1.
<mgrwt>
<rscale>  2 0.31667641E+03</rscale>
<asrwt>0</asrwt>
<pdfrwt beam="1">  1       21 0.44158950E-01 0.31667641E+03</pdfrwt>
<pdfrwt beam="2">  1       21 0.71577283E-01 0.31667641E+03</pdfrwt>
<totfact> 0.80983198E+03</totfact>
</mgrwt>
</event>
<event>
 4    1  0.4199484E+000  0.1861770E+03  0.7546771E-02  0.1161955E+00
         21   -1    0    0  501  502  0.00000000000E+00  0.00000000000E+00  0.55032371899E+02  0.55032371899E+02  0.00000000000E+00 0.  1.
         21   -1    0    0  502  503 -0.00000000000E+00 -0.00000000000E+00 -0.11305641308E+04  0.11305641308E+04  0.00000000000E+00 0. -1.
          6    1    1    2  501    0 -0.50978479913E+02 -0.46196117504E+02 -0.14325750347E+03  0.23491402467E+03  0.17300000000E+03 0.  1.
         -6    1    1    2    0  503  0.50978479913E+02  0.46196117504E+02 -0.93227425543E+03  0.95068247802E+03  0.17300000000E+03 0. -1.
<mgrwt>
<rscale>  2 0.18617703E+03</rscale>
<asrwt>0</asrwt>
<pdfrwt beam="1">  1       21 0.84665188E-02 0.18617703E+03</pdfrwt>
<pdfrwt beam="2">  1       21 0.17393294E+00 0.18617703E+03</pdfrwt>
<totfact> 0.21874514E+04</totfact>
</mgrwt>
</event>
<event>
 4    1  0.4199484E+000  0.1903990E+03  0.7546771E-02  0.1158102E+00
         21   -1    0    0  501  502  0.00000000000E+00  0.00000000000E+00  0.68925813134E+02  0.68925813134E+02  0.00000000000E+00 0. -1.
         21   -1    0    0  502  503 -0.00000000000E+00 -0.00000000000E+00 -0.66123678455E+03  0.66123678455E+03  0.00000000000E+00 0.  1.
          6    1    1    2  501    0  0.61711102320E+02  0.50144805927E+02 -0.13102266144E+03  0.23112485700E+03  0.17300000000E+03 0. -1.
         -6    1    1    2    0  503 -0.61711102320E+02 -0.50144805927E+02 -0.46128830997E+03  0.49903774068E+03  0.17300000000E+03 0.  1.
<mgrwt>
<rscale>  2 0.19039895E+03</rscale>
<asrwt>0</asrwt>
<pdfrwt beam="1">  1       21 0.10603971E-01 0.19039895E+03</pdfrwt>
<pdfrwt beam="2">  1       21 0.10172874E+00 0.19039895E+03</pdfrwt>
<totfact> 0.57710454E+04</totfact>
</mgrwt>
</event>
<event>
 4    1  0.4199484E+000  0.1844582E+03  0.7546771E-02  0.1163557E+00
         21   -1    0    0  503  502  0.00000000000E+00  0.00000000000E+00  0.84157486123E+02  0.84157486123E+02  0.00000000000E+00 0. -1.
         21   -1    0    0  501  503 -0.00000000000E+00 -0.00000000000E+00 -0.41931844641E+03  0.41931844641E+03  0.00000000000E+00 0. -1.
          6    1    1    2  501    0 -0.53771242972E+02 -0.34705764511E+02 -0.11993790262E+03  0.22002258326E+03  0.17300000000E+03 0.  1.
         -6    1    1    2    0  502  0.53771242972E+02  0.34705764511E+02 -0.21522305767E+03  0.28345334928E+03  0.17300000000E+03 0.  1.
<mgrwt>
<rscale>  2 0.18445822E+03</rscale>
<asrwt>0</asrwt>
<pdfrwt beam="1">  1       21 0.12947306E-01 0.18445822E+03</pdfrwt>
<pdfrwt beam="2">  1       21 0.64510530E-01 0.18445822E+03</pdfrwt>
<totfact> 0.11379000E+05</totfact>
</mgrwt>
</event>
<event>
 4    1  0.4199484E+000  0.4048878E+03  0.7546771E-02  0.1042100E+00
         21   -1    0    0  501  502  0.00000000000E+00  0.00000000000E+00  0.57950250428E+03  0.57950250428E+03  0.00000000000E+00 0.  1.
         21   -1    0    0  502  503 -0.00000000000E+00 -0.00000000000E+00 -0.28290212120E+03  0.28290212120E+03  0.00000000000E+00 0. -1.
          6    1    1    2  501    0 -0.15993263570E+03  0.32928208104E+03  0.14522267446E+03  0.43014388527E+03  0.17300000000E+03 0.  1.
         -6    1    1    2    0  503  0.15993263570E+03 -0.32928208104E+03  0.15137770862E+03  0.43226074021E+03  0.17300000000E+03 0. -1.
<mgrwt>
<rscale>  2 0.40488781E+03</rscale>
<asrwt>0</asrwt>
<pdfrwt beam="1">  1       21 0.89154231E-01 0.40488781E+03</pdfrwt>
<pdfrwt beam="2">  1       21 0.43523403E-01 0.40488781E+03</pdfrwt>
<totfact> 0.48616825E+03</totfact>
</mgrwt>
</event>
<event>
 4    1  0.4199484E+000  0.4300265E+03  0.7546771E-02  0.1033852E+00
         21   -1    0    0  501  502  0.00000000000E+00  0.00000000000E+00  0.33553688632E+03  0.33553688632E+03  0.00000000000E+00 0. -1.
         21   -1    0    0  502  503 -0.00000000000E+00 -0.00000000000E+00 -0.98822017164E+03  0.98822017164E+03  0.00000000000E+00 0.  1.
          6    1    1    2  501    0  0.24169030347E+03  0.31077259704E+03  0.11384755034E+03  0.44484162865E+03  0.17300000000E+03 0. -1.
         -6    1    1    2    0  503 -0.24169030347E+03 -0.31077259704E+03 -0.76653083566E+03  0.87891542931E+03  0.17300000000E+03 0.  1.
<mgrwt>
<rscale>  2 0.43002652E+03</rscale>
<asrwt>0</asrwt>
<pdfrwt beam="1">  1       21 0.51621059E-01 0.43002652E+03</pdfrwt>
<pdfrwt beam="2">  1       21 0.15203387E+00 0.43002652E+03</pdfrwt>
<totfact> 0.87349293E+02</totfact>
</mgrwt>
</event>
<event>
 4    1  0.4199484E+000  0.2129387E+03  0.7546771E-02  0.1139260E+00
         21   -1    0    0  503  502  0.00000000000E+00  0.00000000000E+00  0.10129182087E+04  0.10129182087E+04  0.00000000000E+00 0. -1.
         21   -1    0    0  501  503 -0.00000000000E+00 -0.00000000000E+00 -0.94752206799E+02  0.94752206799E+02  0.00000000000E+00 0. -1.
          6    1    1    2  501    0 -0.67534202731E+02 -0.10417790671E+03  0.56813641920E+02  0.22038760104E+03  0.17300000000E+03 0. -1.
         -6    1    1    2    0  502  0.67534202731E+02  0.10417790671E+03  0.86135235999E+03  0.88728281447E+03  0.17300000000E+03 0. -1.
<mgrwt>
<rscale>  2 0.21293873E+03</rscale>
<asrwt>0</asrwt>
<pdfrwt beam="1">  1       21 0.15583356E+00 0.21293873E+03</pdfrwt>
<pdfrwt beam="2">  1       21 0.14577263E-01 0.21293873E+03</pdfrwt>
<totfact> 0.10998329E+04</totfact>
</mgrwt>
</event>
<event>
 4    1  0.4199484E+000  0.2184721E+03  0.7546771E-02  0.1135027E+00
         21   -1    0    0  501  502  0.00000000000E+00  0.00000000000E+00  0.23653364032E+02  0.23653364032E+02  0.00000000000E+00 0.  1.
         21   -1    0    0  502  503 -0.00000000000E+00 -0.00000000000E+00 -0.23813959200E+04  0.23813959200E+04  0.00000000000E+00 0. -1.
          6    1    1    2  501    0 -0.46744749542E+02 -0.12496388130E+03 -0.70905292960E+03  0.74194750502E+03  0.17300000000E+03 0.  1.
         -6    1    1    2    0  503  0.46744749542E+02  0.12496388130E+03 -0.16486896264E+04  0.16631017791E+04  0.17300000000E+03 0. -1.
<mgrwt>
<rscale>  2 0.21847207E+03</rscale>
<asrwt>0</asrwt>
<pdfrwt beam="1">  1       21 0.36389780E-02 0.21847207E+03</pdfrwt>
<pdfrwt beam="2">  1       21 0.36636871E+00 0.21847207E+03</pdfrwt>
<totfact> 0.62184203E+03</totfact>
</mgrwt>
</event>
<event>
 4    1  0.4199484E+000  0.2121906E+03  0.7546771E-02  0.1139843E+00
         21   -1    0    0  503  502  0.00000000000E+00  0.00000000000E+00  0.20705263690E+03  0.20705263690E+03  0.00000000000E+00 0.  1.
         21   -1    0    0  501  503 -0.00000000000E+00 -0.00000000000E+00 -0.22673691252E+03  0.22673691252E+03  0.00000000000E+00 0. -1.
          6    1    1    2  501    0  0.12096044368E+03 -0.21550039041E+02 -0.53723882879E+02  0.21888601762E+03  0.17300000000E+03 0. -1.
         -6    1    1    2    0  502 -0.12096044368E+03  0.21550039041E+02  0.34039607263E+02  0.21490353180E+03  0.17300000000E+03 0. -1.
<mgrwt>
<rscale>  2 0.21219056E+03</rscale>
<asrwt>0</asrwt>
<pdfrwt beam="1">  1       21 0.31854252E-01 0.21219056E+03</pdfrwt>
<pdfrwt beam="2">  1       21 0.34882602E-01 0.21219056E+03</pdfrwt>
<totfact> 0.74443580E+04</totfact>
</mgrwt>
</event>
<event>
 4    1  0.4199484E+000  0.2474127E+03  0.7546771E-02  0.1114951E+00
         21   -1    0    0  503  502  0.00000000000E+00  0.00000000000E+00  0.59154609960E+03  0.59154609960E+03  0.00000000000E+00 0.  1.
         21   -1    0    0  501  503 -0.00000000000E+00 -0.00000000000E+00 -0.13065055376E+03  0.13065055376E+03  0.00000000000E+00 0.  1.
          6    1    1    2  501    0 -0.37346387118E+02  0.17288522383E+03  0.65775323244E+02  0.25600673116E+03  0.17300000000E+03 0.  1.
         -6    1    1    2    0  502  0.37346387118E+02 -0.17288522383E+03  0.39512022260E+03  0.46618992219E+03  0.17300000000E+03 0.  1.
<mgrwt>
<rscale>  2 0.24741272E+03</rscale>
<asrwt>0</asrwt>
<pdfrwt beam="1">  1       21 0.91007091E-01 0.24741272E+03</pdfrwt>
<pdfrwt beam="2">  1       21 0.20100086E-01 0.24741272E+03</pdfrwt>
<totfact> 0.22722217E+04</totfact>
</mgrwt>
</event>
<event>
 4    1  0.4199484E+000  0.1833926E+03  0.7546771E-02  0.1164559E+00
         21   -1    0    0  503  502  0.00000000000E+00  0.00000000000E+00  0.27438026670E+03  0.27438026670E+03  0.00000000000E+00 0. -1.
         21   -1    0    0  501  503 -0.00000000000E+00 -0.00000000000E+00 -0.21183993370E+03  0.21183993370E+03  0.00000000000E+00 0. -1.
          6    1    1    2  501    0  0.50373673019E+01 -0.60650439904E+02 -0.12653943187E+03  0.22281175631E+03  0.17300000000E+03 0. -1.
         -6    1    1    2    0  502 -0.50373673019E+01  0.60650439904E+02  0.18907976487E+03  0.26340844408E+03  0.17300000000E+03 0. -1.
<mgrwt>
<rscale>  2 0.18339261E+03</rscale>
<asrwt>0</asrwt>
<pdfrwt beam="1">  1       21 0.42212349E-01 0.18339261E+03</pdfrwt>
<pdfrwt beam="2">  1       21 0.32590759E-01 0.18339261E+03</pdfrwt>
<totfact> 0.49145076E+04</totfact>
</mgrwt>
</event>
<event>
 4    1  0.4199484E+000  0.2728408E+03  0.7546771E-02  0.1099665E+00
         21   -1    0    0  501  502  0.00000000000E+00  0.00000000000E+00  0.59060857887E+03  0.59060857887E+03  0.00000000000E+00 0.  1.
         21   -1    0    0  502  503 -0.00000000000E+00 -0.00000000000E+00 -0.31713996362E+03  0.31713996362E+03  0.00000000000E+00 0. -1.
          6    1    1    2  501    0 -0.20665549934E+03  0.42504152824E+02  0.48905401034E+03  0.56001421718E+03  0.17300000000E+03 0.  1.
         -6    1    1    2    0  503  0.20665549934E+03 -0.42504152824E+02 -0.21558539509E+03  0.34773432530E+03  0.17300000000E+03 0. -1.
<mgrwt>
<rscale>  2 0.27284079E+03</rscale>
<asrwt>0</asrwt>
<pdfrwt beam="1">  1       21 0.90862858E-01 0.27284079E+03</pdfrwt>
<pdfrwt beam="2">  1       21 0.48790764E-01 0.27284079E+03</pdfrwt>
<totfact> 0.38949650E+03</totfact>
</mgrwt>
</event>
<event>
 4    1  0.4199484E+000  0.1773627E+03  0.7546771E-02  0.1170380E+00
         21   -1    0    0  503  502  0.00000000000E+00  0.00000000000E+00  0.72172377252E+03  0.72172377252E+03  0.00000000000E+00 0.  1.
         21   -1    0    0  501  503 -0.00000000000E+00 -0.00000000000E+00 -0.43608066328E+02  0.43608066328E+02  0.00000000000E+00 0.  1.
          6    1    1    2  501    0  0.32713658376E+02 -0.21408780576E+02  0.34753869433E+03  0.39018029600E+03  0.17300000000E+03 0. -1.
         -6    1    1    2    0  502 -0.32713658376E+02  0.21408780576E+02  0.33057701187E+03  0.37515154285E+03  0.17300000000E+03 0. -1.
<mgrwt>
<rscale>  2 0.17736268E+03</rscale>
<asrwt>0</asrwt>
<pdfrwt beam="1">  1       21 0.11103442E+00 0.17736268E+03</pdfrwt>
<pdfrwt beam="2">  1       21 0.67089338E-02 0.17736268E+03</pdfrwt>
<totfact> 0.10458779E+05</totfact>
</mgrwt>
</event>
<event>
 4    1  0.4199484E+000  0.2325953E+03  0.7546771E-02  0.1124826E+00
         21   -1    0    0  501  502  0.00000000000E+00  0.00000000000E+00  0.50068658815E+02  0.50068658815E+02  0.00000000000E+00 0. -1.
         21   -1    0    0  502  503 -0.00000000000E+00 -0.00000000000E+00 -0.17906714113E+04  0.17906714113E+04  0.00000000000E+00 0. -1.
          6    1    1    2  501    0  0.15469723513E+03 -0.15503015621E+02 -0.29070239815E+03  0.37230157445E+03  0.17300000000E+03 0. -1.
         -6    1    1    2    0  503 -0.15469723513E+03  0.15503015621E+02 -0.14499003544E+04  0.14684384957E+04  0.17300000000E+03 0. -1.
<mgrwt>
<rscale>  2 0.23259531E+03</rscale>
<asrwt>0</asrwt>
<pdfrwt beam="1">  1       21 0.77028725E-02 0.23259531E+03</pdfrwt>
<pdfrwt beam="2">  1       21 0.27548784E+00 0.23259531E+03</pdfrwt>
<totfact> 0.58181791E+03</totfact>
</mgrwt>
</event>
<event>
 4    1  0.4199484E+000  0.1794183E+03  0.7546771E-02  0.1168367E+00
         21   -1    0    0  501  502  0.00000000000E+00  0.00000000000E+00  0.17256888437E+03  0.17256888437E+03  0.00000000000E+00 0.  1.
         21   -1    0    0  502  503 -0.00000000000E+00 -0.00000000000E+00 -0.35263960044E+03  0.35263960044E+03  0.00000000000E+00 0.  1.
          6    1    1    2  501    0 -0.38259262245E+02  0.28251867306E+02  0.90192096943E+02  0.20081223445E+03  0.17300000000E+03 0.  1.
         -6    1    1    2    0  503  0.38259262245E+02 -0.28251867306E+02 -0.27026281301E+03  0.32439625036E+03  0.17300000000E+03 0.  1.
<mgrwt>
<rscale>  2 0.17941834E+03</rscale>
<asrwt>0</asrwt>
<pdfrwt beam="1">  1       21 0.26549059E-01 0.17941834E+03</pdfrwt>
<pdfrwt beam="2">  1       21 0.54252246E-01 0.17941834E+03</pdfrwt>
<totfact> 0.43625940E+04</totfact>
</mgrwt>
</event>
<event>
 4    1  0.4199484E+000  0.2313639E+03  0.7546771E-02  0.1125683E+00
         21   -1    0    0  501  502  0.00000000000E+00  0.00000000000E+00  0.16328141902E+03  0.16328141902E+03  0.00000000000E+00 0.  1.
         21   -1    0    0  502  503 -0.00000000000E+00 -0.00000000000E+00 -0.91383869569E+03  0.91383869569E+03  0.00000000000E+00 0.  1.
          6    1    1    2  501    0 -0.15352226010E+03  0.55850295252E+01  0.55991853148E+02  0.23804277876E+03  0.17300000000E+03 0.  1.
         -6    1    1    2    0  503  0.15352226010E+03 -0.55850295252E+01 -0.80654912981E+03  0.83907733595E+03  0.17300000000E+03 0.  1.
<mgrwt>
<rscale>  2 0.23136395E+03</rscale>
<asrwt>0</asrwt>
<pdfrwt beam="1">  1       21 0.25120219E-01 0.23136395E+03</pdfrwt>
<pdfrwt beam="2">  1       21 0.14059057E+00 0.23136395E+03</pdfrwt>
<totfact> 0.51549323E+03</totfact>
</mgrwt>
</event>
<event>
 4    1  0.4199484E+000  0.1804668E+03  0.7546771E-02  0.1167352E+00
         21   -1    0    0  501  502  0.00000000000E+00  0.00000000000E+00  0.97778930099E+03  0.97778930099E+03  0.00000000000E+00 0.  1.
         21   -1    0    0  502  503 -0.00000000000E+00 -0.00000000000E+00 -0.37081227799E+02  0.37081227799E+02  0.00000000000E+00 0.  1.
          6    1    1    2  501    0  0.19633107899E+02  0.47474315426E+02  0.63222030956E+03  0.65747303319E+03  0.17300000000E+03 0.  1.
         -6    1    1    2    0  503 -0.19633107899E+02 -0.47474315426E+02  0.30848776363E+03  0.35739749560E+03  0.17300000000E+03 0.  1.
<mgrwt>
<rscale>  2 0.18046681E+03</rscale>
<asrwt>0</asrwt>
<pdfrwt beam="1">  1       21 0.15042910E+00 0.18046681E+03</pdfrwt>
<pdfrwt beam="2">  1       21 0.57048050E-02 0.18046681E+03</pdfrwt>
<totfact> 0.64177868E+04</totfact>
</mgrwt>
</event>
<event>
 4    1  0.4199484E+000  0.2125007E+03  0.7546771E-02  0.1139601E+00
         21   -1    0    0  503  502  0.00000000000E+00  0.00000000000E+00  0.37656772967E+03  0.37656772967E+03  0.00000000000E+00 0.  1.
         21   -1    0    0  501  503 -0.00000000000E+00 -0.00000000000E+00 -0.18532415758E+03  0.18532415758E+03  0.00000000000E+00 0. -1.
          6    1    1    2  501    0  0.12183022339E+03 -0.19620454492E+02 -0.71284268975E+02  0.22413837817E+03  0.17300000000E+03 0. -1.
         -6    1    1    2    0  502 -0.12183022339E+03  0.19620454492E+02  0.26252784107E+03  0.33775350909E+03  0.17300000000E+03 0.  1.
<mgrwt>
<rscale>  2 0.21250074E+03</rscale>
<asrwt>0</asrwt>
<pdfrwt beam="1">  1       21 0.57933497E-01 0.21250074E+03</pdfrwt>
<pdfrwt beam="2">  1       21 0.28511409E-01 0.21250074E+03</pdfrwt>
<totfact> 0.32511805E+04</totfact>
</mgrwt>
</event>
<event>
 4    1  0.4199484E+000  0.1730154E+03  0.7546771E-02  0.1174739E+00
         21   -1    0    0  503  502  0.00000000000E+00  0.00000000000E+00  0.31014485816E+03  0.31014485816E+03  0.00000000000E+00 0. -1.
         21   -1    0    0  501  503 -0.00000000000E+00 -0.00000000000E+00 -0.10322710105E+03  0.10322710105E+03  0.00000000000E+00 0. -1.
          6    1    1    2  501    0  0.53426393893E+00 -0.22448243296E+01  0.50763682657E+02  0.18030883548E+03  0.17300000000E+03 0. -1.
         -6    1    1    2    0  502 -0.53426393893E+00  0.22448243296E+01  0.15615407445E+03  0.23306312373E+03  0.17300000000E+03 0. -1.
<mgrwt>
<rscale>  2 0.17301539E+03</rscale>
<asrwt>0</asrwt>
<pdfrwt beam="1">  1       21 0.47714593E-01 0.17301539E+03</pdfrwt>
<pdfrwt beam="2">  1       21 0.15881093E-01 0.17301539E+03</pdfrwt>
<totfact> 0.14940491E+05</totfact>
</mgrwt>
</event>
<event>
 4    1  0.4199484E+000  0.1769073E+03  0.7546771E-02  0.1170830E+00
         21   -1    0    0  501  502  0.00000000000E+00  0.00000000000E+00  0.42118222354E+02  0.42118222354E+02  0.00000000000E+00 0. -1.
         21   -1    0    0  502  503 -0.00000000000E+00 -0.00000000000E+00 -0.19570427469E+04  0.19570427469E+04  0.00000000000E+00 0. -1.
          6    1    1    2  501    0  0.28840207855E+02  0.23139671705E+02 -0.17019069362E+03  0.24548131129E+03  0.17300000000E+03 0. -1.
         -6    1    1    2    0  503 -0.28840207855E+02 -0.23139671705E+02 -0.17447338310E+04  0.17536796580E+04  0.17300000000E+03 0. -1.
<mgrwt>
<rscale>  2 0.17690733E+03</rscale>
<asrwt>0</asrwt>
<pdfrwt beam="1">  1       21 0.64797242E-02 0.17690733E+03</pdfrwt>
<pdfrwt beam="2">  1       21 0.30108361E+00 0.17690733E+03</pdfrwt>
<totfact> 0.59244205E+03</totfact>
</mgrwt>
</event>
<event>
 4    1  0.4199484E+000  0.2148447E+03  0.7546771E-02  0.1137786E+00
         21   -1    0    0  503  502  0.00000000000E+00  0.00000000000E+00  0.35347545620E+02  0.35347545620E+02  0.00000000000E+00 0. -1.
         21   -1    0    0  501  503 -0.00000000000E+00 -0.00000000000E+00 -0.26922106863E+04  0.26922106863E+04  0.00000000000E+00 0.  1.
          6    1    1    2  501    0 -0.11384815664E+03 -0.57165114957E+02 -0.23070854779E+04  0.23170674689E+04  0.17300000000E+03 0.  1.
         -6    1    1    2    0  502  0.11384815664E+03  0.57165114957E+02 -0.34977766278E+03  0.41049076301E+03  0.17300000000E+03 0. -1.
<mgrwt>
<rscale>  2 0.21484472E+03</rscale>
<asrwt>0</asrwt>
<pdfrwt beam="1">  1       21 0.54380839E-02 0.21484472E+03</pdfrwt>
<pdfrwt beam="2">  1       21 0.41418626E+00 0.21484472E+03</pdfrwt>
<totfact> 0.16036716E+03</totfact>
</mgrwt>
</event>
<event>
 4    1  0.4199484E+000  0.2352808E+03  0.7546771E-02  0.1122977E+00
         21   -1    0    0  503  502  0.00000000000E+00  0.00000000000E+00  0.10461205041E+03  0.10461205041E+03  0.00000000000E+00 0.  1.
         21   -1    0    0  501  503 -0.00000000000E+00 -0.00000000000E+00 -0.55808237338E+03  0.55808237338E+03  0.00000000000E+00 0.  1.
          6    1    1    2  501    0  0.15675788671E+03  0.29240637601E+02 -0.30215968309E+03  0.38295890643E+03  0.17300000000E+03 0.  1.
         -6    1    1    2    0  502 -0.15675788671E+03 -0.29240637601E+02 -0.15131063988E+03  0.27973551736E+03  0.17300000000E+03 0.  1.
<mgrwt>
<rscale>  2 0.23528079E+03</rscale>
<asrwt>0</asrwt>
<pdfrwt beam="1">  1       21 0.16094161E-01 0.23528079E+03</pdfrwt>
<pdfrwt beam="2">  1       21 0.85858829E-01 0.23528079E+03</pdfrwt>
<totfact> 0.39543444E+04</totfact>
</mgrwt>
</event>
<event>
 4    1  0.4199484E+000  0.2233803E+03  0.7546771E-02  0.1131388E+00
         21   -1    0    0  503  502  0.00000000000E+00  0.00000000000E+00  0.98602747225E+03  0.98602747225E+03  0.00000000000E+00 0. -1.
         21   -1    0    0  501  503 -0.00000000000E+00 -0.00000000000E+00 -0.63220170281E+02  0.63220170281E+02  0.00000000000E+00 0.  1.
          6    1    1    2  501    0 -0.12958713601E+03  0.56364449030E+02  0.22706076270E+03  0.31852059100E+03  0.17300000000E+03 0.  1.
         -6    1    1    2    0  502  0.12958713601E+03 -0.56364449030E+02  0.69574653927E+03  0.73072705153E+03  0.17300000000E+03 0. -1.
<mgrwt>
<rscale>  2 0.22338034E+03</rscale>
<asrwt>0</asrwt>
<pdfrwt beam="1">  1       21 0.15169652E+00 0.22338034E+03</pdfrwt>
<pdfrwt beam="2">  1       21 0.97261808E-02 0.22338034E+03</pdfrwt>
<totfact> 0.24254540E+04</totfact>
</mgrwt>
</event>
<event>
 4    1  0.4199484E+000  0.2194275E+03  0.7546771E-02  0.1134311E+00
         21   -1    0    0  503  502  0.00000000000E+00  0.00000000000E+00  0.80701848254E+02  0.80701848254E+02  0.00000000000E+00 0.  1.
         21   -1    0    0  501  503 -0.00000000000E+00 -0.00000000000E+00 -0.13554640875E+04  0.13554640875E+04  0.00000000000E+00 0.  1.
          6    1    1    2  501    0  0.17412302474E+02  0.13385158402E+03 -0.11746683855E+04  0.11949871341E+04  0.17300000000E+03 0.  1.
         -6    1    1    2    0  502 -0.17412302474E+02 -0.13385158402E+03 -0.10009385383E+03  0.24117880172E+03  0.17300000000E+03 0.  1.
<mgrwt>
<rscale>  2 0.21942752E+03</rscale>
<asrwt>0</asrwt>
<pdfrwt beam="1">  1       21 0.12415668E-01 0.21942752E+03</pdfrwt>
<pdfrwt beam="2">  1       21 0.20853295E+00 0.21942752E+03</pdfrwt>
<totfact> 0.63919656E+03</totfact>
</mgrwt>
</event>
<event>
 4    1  0.4199484E+000  0.1826505E+03  0.7546771E-02  0.1165262E+00
         21   -1    0    0  501  502  0.00000000000E+00  0.00000000000E+00  0.27129572299E+03  0.27129572299E+03  0.00000000000E+00 0. -1.
         21   -1    0    0  502  503 -0.00000000000E+00 -0.00000000000E+00 -0.17071930456E+03  0.17071930456E+03  0.00000000000E+00 0. -1.
          6    1    1    2  501    0 -0.21809740928E+02 -0.54374105625E+02  0.16717076481E+03  0.24760305485E+03  0.17300000000E+03 0. -1.
         -6    1    1    2    0  503  0.21809740928E+02  0.54374105625E+02 -0.66594346380E+02  0.19441197271E+03  0.17300000000E+03 0. -1.
<mgrwt>
<rscale>  2 0.18265051E+03</rscale>
<asrwt>0</asrwt>
<pdfrwt beam="1">  1       21 0.41737804E-01 0.18265051E+03</pdfrwt>
<pdfrwt beam="2">  1       21 0.26264508E-01 0.18265051E+03</pdfrwt>
<totfact> 0.76473344E+04</totfact>
</mgrwt>
</event>
<event>
 4    1  0.4199484E+000  0.1763841E+03  0.7546771E-02  0.1171349E+00
         21   -1    0    0  501  502  0.00000000000E+00  0.00000000000E+00  0.47905303505E+03  0.47905303505E+03  0.00000000000E+00 0. -1.
         21   -1    0    0  502  503 -0.00000000000E+00 -0.00000000000E+00 -0.70879285997E+02  0.70879285997E+02  0.00000000000E+00 0.  1.
          6    1    1    2  501    0  0.39618852018E+01  0.34156376363E+02  0.28365895272E+03  0.33402657984E+03  0.17300000000E+03 0. -1.
         -6    1    1    2    0  503 -0.39618852018E+01 -0.34156376363E+02  0.12451479633E+03  0.21590574121E+03  0.17300000000E+03 0.  1.
<mgrwt>
<rscale>  2 0.17638411E+03</rscale>
<asrwt>0</asrwt>
<pdfrwt beam="1">  1       21 0.73700465E-01 0.17638411E+03</pdfrwt>
<pdfrwt beam="2">  1       21 0.10904506E-01 0.17638411E+03</pdfrwt>
<totfact> 0.11576328E+05</totfact>
</mgrwt>
</event>
<event>
 4    1  0.4199484E+000  0.2215513E+03  0.7546771E-02  0.1132732E+00
         21   -1    0    0  501  502  0.00000000000E+00  0.00000000000E+00  0.63797022778E+03  0.63797022778E+03  0.00000000000E+00 0.  1.
         21   -1    0    0  502  503 -0.00000000000E+00 -0.00000000000E+00 -0.93759315227E+02  0.93759315227E+02  0.00000000000E+00 0.  1.
          6    1    1    2  501    0  0.63747276966E+02  0.12285054041E+03  0.42706802925E+03  0.48111544582E+03  0.17300000000E+03 0.  1.
         -6    1    1    2    0  503 -0.63747276966E+02 -0.12285054041E+03  0.11714288330E+03  0.25061409718E+03  0.17300000000E+03 0.  1.
<mgrwt>
<rscale>  2 0.22155128E+03</rscale>
<asrwt>0</asrwt>
<pdfrwt beam="1">  1       21 0.98149263E-01 0.22155128E+03</pdfrwt>
<pdfrwt beam="2">  1       21 0.14424510E-01 0.22155128E+03</pdfrwt>
<totfact> 0.35586663E+04</totfact>
</mgrwt>
</event>
<event>
 4    1  0.4199484E+000  0.3394137E+03  0.7546771E-02  0.1067046E+00
         21   -1    0    0  503  502  0.00000000000E+00  0.00000000000E+00  0.31325148433E+03  0.31325148433E+03  0.00000000000E+00 0. -1.
         21   -1    0    0  501  503 -0.00000000000E+00 -0.00000000000E+00 -0.36785112035E+03  0.36785112035E+03  0.00000000000E+00 0.  1.
          6    1    1    2  501    0  0.22880005977E+03 -0.18144751001E+03 -0.21968224012E+02  0.34012390258E+03  0.17300000000E+03 0.  1.
         -6    1    1    2    0  502 -0.22880005977E+03  0.18144751001E+03 -0.32631412006E+02  0.34097870211E+03  0.17300000000E+03 0. -1.
<mgrwt>
<rscale>  2 0.33941371E+03</rscale>
<asrwt>0</asrwt>
<pdfrwt beam="1">  1       21 0.48192536E-01 0.33941371E+03</pdfrwt>
<pdfrwt beam="2">  1       21 0.56592480E-01 0.33941371E+03</pdfrwt>
<totfact> 0.11201787E+04</totfact>
</mgrwt>
</event>
<event>
 4    1  0.4199484E+000  0.1817287E+03  0.7546771E-02  0.1166140E+00
         21   -1    0    0  503  502  0.00000000000E+00  0.00000000000E+00  0.35148924211E+03  0.35148924211E+03  0.00000000000E+00 0. -1.
         21   -1    0    0  501  503 -0.00000000000E+00 -0.00000000000E+00 -0.11895622301E+03  0.11895622301E+03  0.00000000000E+00 0. -1.
          6    1    1    2  501    0  0.30729404545E+02 -0.46389838413E+02  0.84368779040E+01  0.18192441925E+03  0.17300000000E+03 0. -1.
         -6    1    1    2    0  502 -0.30729404545E+02  0.46389838413E+02  0.22409614119E+03  0.28852104587E+03  0.17300000000E+03 0. -1.
<mgrwt>
<rscale>  2 0.18172868E+03</rscale>
<asrwt>0</asrwt>
<pdfrwt beam="1">  1       21 0.54075268E-01 0.18172868E+03</pdfrwt>
<pdfrwt beam="2">  1       21 0.18300957E-01 0.18172868E+03</pdfrwt>
<totfact> 0.88406052E+04</totfact>
</mgrwt>
</event>
<event>
 4    1  0.4199484E+000  0.2114453E+03  0.7546771E-02  0.1140427E+00
         21   -1    0    0  501  502  0.00000000000E+00  0.00000000000E+00  0.10018580582E+04  0.10018580582E+04  0.00000000000E+00 0. -1.
         21   -1    0    0  502  503 -0.00000000000E+00 -0.00000000000E+00 -0.30764964105E+03  0.30764964105E+03  0.00000000000E+00 0.  1.
          6    1    1    2  501    0  0.10330344194E+03  0.64097528985E+02  0.95251073899E+03  0.97569759774E+03  0.17300000000E+03 0. -1.
         -6    1    1    2    0  503 -0.10330344194E+03 -0.64097528985E+02 -0.25830232189E+03  0.33381010146E+03  0.17300000000E+03 0.  1.
<mgrwt>
<rscale>  2 0.21144525E+03</rscale>
<asrwt>0</asrwt>
<pdfrwt beam="1">  1       21 0.15413201E+00 0.21144525E+03</pdfrwt>
<pdfrwt beam="2">  1       21 0.47330714E-01 0.21144525E+03</pdfrwt>
<totfact> 0.11657368E+03</totfact>
</mgrwt>
</event>
<event>
 4    1  0.4199484E+000  0.2141960E+03  0.7546771E-02  0.1138286E+00
         21   -1    0    0  501  502  0.00000000000E+00  0.00000000000E+00  0.55934760058E+02  0.55934760058E+02  0.00000000000E+00 0. -1.
         21   -1    0    0  502  503 -0.00000000000E+00 -0.00000000000E+00 -0.84555279575E+03  0.84555279575E+03  0.00000000000E+00 0.  1.
          6    1    1    2  501    0 -0.63202964589E+02 -0.10934497615E+03 -0.47279701250E+03  0.51905390237E+03  0.17300000000E+03 0.  1.
         -6    1    1    2    0  503  0.63202964589E+02  0.10934497615E+03 -0.31682102320E+03  0.38243365344E+03  0.17300000000E+03 0. -1.
<mgrwt>
<rscale>  2 0.21419603E+03</rscale>
<asrwt>0</asrwt>
<pdfrwt beam="1">  1       21 0.86053476E-02 0.21419603E+03</pdfrwt>
<pdfrwt beam="2">  1       21 0.13008505E+00 0.21419603E+03</pdfrwt>
<totfact> 0.45065959E+04</totfact>
</mgrwt>
</event>
<event>
 4    1  0.4199484E+000  0.1828735E+03  0.7546771E-02  0.1165051E+00
         21   -1    0    0  501  502  0.00000000000E+00  0.00000000000E+00  0.10216471595E+03  0.10216471595E+03  0.00000000000E+00 0. -1.
         21   -1    0    0  502  503 -0.00000000000E+00 -0.00000000000E+00 -0.35277347840E+03  0.35277347840E+03  0.00000000000E+00 0. -1.
          6    1    1    2  501    0 -0.57740330458E+02 -0.13408392502E+02 -0.64228993022E+02  0.19382490628E+03  0.17300000000E+03 0. -1.
         -6    1    1    2    0  503  0.57740330458E+02  0.13408392502E+02 -0.18637976943E+03  0.26111328806E+03  0.17300000000E+03 0. -1.
<mgrwt>
<rscale>  2 0.18287354E+03</rscale>
<asrwt>0</asrwt>
<pdfrwt beam="1">  1       21 0.15717649E-01 0.18287354E+03</pdfrwt>
<pdfrwt beam="2">  1       21 0.54272842E-01 0.18287354E+03</pdfrwt>
<totfact> 0.11597283E+05</totfact>
</mgrwt>
</event>
<event>
 4    1  0.4199484E+000  0.2421091E+03  0.7546771E-02  0.1118396E+00
         21   -1    0    0  501  502  0.00000000000E+00  0.00000000000E+00  0.95245073950E+03  0.95245073950E+03  0.00000000000E+00 0. -1.
         21   -1    0    0  502  503 -0.00000000000E+00 -0.00000000000E+00 -0.87457803438E+02  0.87457803438E+02  0.00000000000E+00 0. -1.
          6    1    1    2  501    0  0.16858384683E+03  0.16349902882E+02  0.71553036237E+03  0.75538105100E+03  0.17300000000E+03 0. -1.
         -6    1    1    2    0  503 -0.16858384683E+03 -0.16349902882E+02  0.14946257370E+03  0.28452749194E+03  0.17300000000E+03 0. -1.
<mgrwt>
<rscale>  2 0.24210913E+03</rscale>
<asrwt>0</asrwt>
<pdfrwt beam="1">  1       21 0.14653088E+00 0.24210913E+03</pdfrwt>
<pdfrwt beam="2">  1       21 0.13455047E-01 0.24210913E+03</pdfrwt>
<totfact> 0.14703032E+04</totfact>
</mgrwt>
</event>
<event>
 4    1  0.4199484E+000  0.2155429E+03  0.7546771E-02  0.1137250E+00
         21   -1    0    0  503  502  0.00000000000E+00  0.00000000000E+00  0.27320942814E+03  0.27320942814E+03  0.00000000000E+00 0. -1.
         21   -1    0    0  501  503 -0.00000000000E+00 -0.00000000000E+00 -0.17118668410E+03  0.17118668410E+03  0.00000000000E+00 0. -1.
          6    1    1    2  501    0  0.12589774700E+03  0.26067439189E+02  0.32890424944E+02  0.21803791904E+03  0.17300000000E+03 0. -1.
         -6    1    1    2    0  502 -0.12589774700E+03 -0.26067439189E+02  0.69132319100E+02  0.22635819320E+03  0.17300000000E+03 0. -1.
<mgrwt>
<rscale>  2 0.21554293E+03</rscale>
<asrwt>0</asrwt>
<pdfrwt beam="1">  1       21 0.42032220E-01 0.21554293E+03</pdfrwt>
<pdfrwt beam="2">  1       21 0.26336413E-01 0.21554293E+03</pdfrwt>
<totfact> 0.73952261E+04</totfact>
</mgrwt>
</event>
<event>
 4    1  0.4199484E+000  0.1881993E+03  0.7546771E-02  0.1160096E+00
         21   -1    0    0  503  502  0.00000000000E+00  0.00000000000E+00  0.26588172241E+03  0.26588172241E+03  0.00000000000E+00 0.  1.
         21   -1    0    0  501  503 -0.00000000000E+00 -0.00000000000E+00 -0.22576572198E+03  0.22576572198E+03  0.00000000000E+00 0.  1.
          6    1    1    2  501    0  0.71350811533E+02  0.19975675125E+02 -0.13733623498E+03  0.23298113087E+03  0.17300000000E+03 0.  1.
         -6    1    1    2    0  502 -0.71350811533E+02 -0.19975675125E+02  0.17745223540E+03  0.25866631352E+03  0.17300000000E+03 0.  1.
<mgrwt>
<rscale>  2 0.18819927E+03</rscale>
<asrwt>0</asrwt>
<pdfrwt beam="1">  1       21 0.40904880E-01 0.18819927E+03</pdfrwt>
<pdfrwt beam="2">  1       21 0.34733188E-01 0.18819927E+03</pdfrwt>
<totfact> 0.46094879E+04</totfact>
</mgrwt>
</event>
<event>
 4    1  0.4199484E+000  0.2216185E+03  0.7546771E-02  0.1132682E+00
         21   -1    0    0  501  502  0.00000000000E+00  0.00000000000E+00  0.97894901065E+03  0.97894901065E+03  0.00000000000E+00 0. -1.
         21   -1    0    0  502  503 -0.00000000000E+00 -0.00000000000E+00 -0.55725388012E+02  0.55725388012E+02  0.00000000000E+00 0. -1.
          6    1    1    2  501    0 -0.97568595848E+02  0.98316410343E+02  0.62494310157E+03  0.66307512970E+03  0.17300000000E+03 0. -1.
         -6    1    1    2    0  503  0.97568595848E+02 -0.98316410343E+02  0.29828052107E+03  0.37159926896E+03  0.17300000000E+03 0. -1.
<mgrwt>
<rscale>  2 0.22161847E+03</rscale>
<asrwt>0</asrwt>
<pdfrwt beam="1">  1       21 0.15060753E+00 0.22161847E+03</pdfrwt>
<pdfrwt beam="2">  1       21 0.85731373E-02 0.22161847E+03</pdfrwt>
<totfact> 0.30908667E+04</totfact>
</mgrwt>
</event>
<event>
 4    1  0.4199484E+000  0.2026882E+03  0.7546771E-02  0.1147491E+00
         21   -1    0    0  503  502  0.00000000000E+00  0.00000000000E+00  0.19736292352E+03  0.19736292352E+03  0.00000000000E+00 0.  1.
         21   -1    0    0  501  503 -0.00000000000E+00 -0.00000000000E+00 -0.20815909677E+03  0.20815909677E+03  0.00000000000E+00 0.  1.
          6    1    1    2  501    0 -0.10477715919E+03  0.13237838678E+02 -0.60263489799E+01  0.20277773631E+03  0.17300000000E+03 0.  1.
         -6    1    1    2    0  502  0.10477715919E+03 -0.13237838678E+02 -0.47698242689E+01  0.20274428397E+03  0.17300000000E+03 0.  1.
<mgrwt>
<rscale>  2 0.20268817E+03</rscale>
<asrwt>0</asrwt>
<pdfrwt beam="1">  1       21 0.30363527E-01 0.20268817E+03</pdfrwt>
<pdfrwt beam="2">  1       21 0.32024476E-01 0.20268817E+03</pdfrwt>
<totfact> 0.97218675E+04</totfact>
</mgrwt>
</event>
<event>
 4    1  0.4199484E+000  0.3458984E+03  0.7546771E-02  0.1064311E+00
         21   -1    0    0  501  502  0.00000000000E+00  0.00000000000E+00  0.55581131772E+02  0.55581131772E+02  0.00000000000E+00 0.  1.
         21   -1    0    0  502  503 -0.00000000000E+00 -0.00000000000E+00 -0.26860302211E+04  0.26860302211E+04  0.00000000000E+00 0. -1.
          6    1    1    2  501    0 -0.28094869867E+03 -0.10384872941E+03 -0.70435823069E+03  0.78470774625E+03  0.17300000000E+03 0.  1.
         -6    1    1    2    0  503  0.28094869867E+03  0.10384872941E+03 -0.19260908586E+04  0.19569036066E+04  0.17300000000E+03 0. -1.
<mgrwt>
<rscale>  2 0.34589844E+03</rscale>
<asrwt>0</asrwt>
<pdfrwt beam="1">  1       21 0.85509426E-02 0.34589844E+03</pdfrwt>
<pdfrwt beam="2">  1       21 0.41323546E+00 0.34589844E+03</pdfrwt>
<totfact> 0.64392193E+02</totfact>
</mgrwt>
</event>
<event>
 4    1  0.4199484E+000  0.3473312E+03  0.7546771E-02  0.1063716E+00
         21   -1    0    0  503  502  0.00000000000E+00  0.00000000000E+00  0.23209055378E+03  0.23209055378E+03  0.00000000000E+00 0.  1.
         21   -1    0    0  501  503 -0.00000000000E+00 -0.00000000000E+00 -0.60352404525E+03  0.60352404525E+03  0.00000000000E+00 0.  1.
          6    1    1    2  501    0 -0.29843369345E+03 -0.40586828504E+02 -0.34133944458E+03  0.48698211103E+03  0.17300000000E+03 0.  1.
         -6    1    1    2    0  502  0.29843369345E+03  0.40586828504E+02 -0.30094046893E+02  0.34863248800E+03  0.17300000000E+03 0.  1.
<mgrwt>
<rscale>  2 0.34733120E+03</rscale>
<asrwt>0</asrwt>
<pdfrwt beam="1">  1       21 0.35706239E-01 0.34733120E+03</pdfrwt>
<pdfrwt beam="2">  1       21 0.92849852E-01 0.34733120E+03</pdfrwt>
<totfact> 0.67773418E+03</totfact>
</mgrwt>
</event>
<event>
 4    1  0.4199484E+000  0.1802003E+03  0.7546771E-02  0.1167609E+00
         21   -1    0    0  501  502  0.00000000000E+00  0.00000000000E+00  0.59751740314E+03  0.59751740314E+03  0.00000000000E+00 0. -1.
         21   -1    0    0  502  503 -0.00000000000E+00 -0.00000000000E+00 -0.60620745021E+02  0.60620745021E+02  0.00000000000E+00 0. -1.
          6    1    1    2  501    0 -0.49265623489E+02 -0.10772392300E+02  0.37432625903E+03  0.41544228756E+03  0.17300000000E+03 0. -1.
         -6    1    1    2    0  503  0.49265623489E+02  0.10772392300E+02  0.16257039910E+03  0.24269586061E+03  0.17300000000E+03 0. -1.
<mgrwt>
<rscale>  2 0.18020029E+03</rscale>
<asrwt>0</asrwt>
<pdfrwt beam="1">  1       21 0.91925751E-01 0.18020029E+03</pdfrwt>
<pdfrwt beam="2">  1       21 0.93262688E-02 0.18020029E+03</pdfrwt>
<totfact> 0.92255713E+04</totfact>
</mgrwt>
</event>
<event>
 4    1  0.4199484E+000  0.1847089E+03  0.7546771E-02  0.1163322E+00
         21   -1    0    0  503  502  0.00000000000E+00  0.00000000000E+00  0.70630708483E+03  0.70630708483E+03  0.00000000000E+00 0. -1.
         21   -1    0    0  501  503 -0.00000000000E+00 -0.00000000000E+00 -0.49823094422E+02  0.49823094422E+02  0.00000000000E+00 0.  1.
          6    1    1    2  501    0  0.57673072370E+02  0.29363338389E+02  0.26222473799E+03  0.32074787939E+03  0.17300000000E+03 0.  1.
         -6    1    1    2    0  502 -0.57673072370E+02 -0.29363338389E+02  0.39425925242E+03  0.43538229986E+03  0.17300000000E+03 0. -1.
<mgrwt>
<rscale>  2 0.18470893E+03</rscale>
<asrwt>0</asrwt>
<pdfrwt beam="1">  1       21 0.10866262E+00 0.18470893E+03</pdfrwt>
<pdfrwt beam="2">  1       21 0.76650920E-02 0.18470893E+03</pdfrwt>
<totfact> 0.87258056E+04</totfact>
</mgrwt>
</event>
<event>
 4    1  0.4199484E+000  0.2247225E+03  0.7546771E-02  0.1130410E+00
         21   -1    0    0  501  502  0.00000000000E+00  0.00000000000E+00  0.14864781200E+03  0.14864781200E+03  0.00000000000E+00 0. -1.
         21   -1    0    0  502  503 -0.00000000000E+00 -0.00000000000E+00 -0.50560179531E+03  0.50560179531E+03  0.00000000000E+00 0.  1.
          6    1    1    2  501    0  0.34128659299E+02  0.13930690860E+03  0.88907940202E+01  0.22489825786E+03  0.17300000000E+03 0. -1.
         -6    1    1    2    0  503 -0.34128659299E+02 -0.13930690860E+03 -0.36584477733E+03  0.42935134945E+03  0.17300000000E+03 0.  1.
<mgrwt>
<rscale>  2 0.22472245E+03</rscale>
<asrwt>0</asrwt>
<pdfrwt beam="1">  1       21 0.22868894E-01 0.22472245E+03</pdfrwt>
<pdfrwt beam="2">  1       21 0.77784893E-01 0.22472245E+03</pdfrwt>
<totfact> 0.25824983E+04</totfact>
</mgrwt>
</event>
<event>
 4    1  0.4199484E+000  0.2024043E+03  0.7546771E-02  0.1147726E+00
         21   -1    0    0  503  502  0.00000000000E+00  0.00000000000E+00  0.56224124892E+03  0.56224124892E+03  0.00000000000E+00 0. -1.
         21   -1    0    0  501  503 -0.00000000000E+00 -0.00000000000E+00 -0.75573833332E+02  0.75573833332E+02  0.00000000000E+00 0. -1.
          6    1    1    2  501    0  0.55885526988E+02 -0.88967982619E+02  0.30371477611E+03  0.36497966969E+03  0.17300000000E+03 0. -1.
         -6    1    1    2    0  502 -0.55885526988E+02  0.88967982619E+02  0.18295263949E+03  0.27283541257E+03  0.17300000000E+03 0. -1.
<mgrwt>
<rscale>  2 0.20240428E+03</rscale>
<asrwt>0</asrwt>
<pdfrwt beam="1">  1       21 0.86498651E-01 0.20240428E+03</pdfrwt>
<pdfrwt beam="2">  1       21 0.11626744E-01 0.20240428E+03</pdfrwt>
<totfact> 0.71157990E+04</totfact>
</mgrwt>
</event>
<event>
 4    1  0.4199484E+000  0.2068200E+03  0.7546771E-02  0.1144109E+00
         21   -1    0    0  503  502  0.00000000000E+00  0.00000000000E+00  0.16577303986E+03  0.16577303986E+03  0.00000000000E+00 0.  1.
         21   -1    0    0  501  503 -0.00000000000E+00 -0.00000000000E+00 -0.32689956118E+03  0.32689956118E+03  0.00000000000E+00 0.  1.
          6    1    1    2  501    0 -0.10886835314E+03  0.31514818178E+02 -0.19362959040E+03  0.28331417254E+03  0.17300000000E+03 0.  1.
         -6    1    1    2    0  502  0.10886835314E+03 -0.31514818178E+02  0.32503069083E+02  0.20935842849E+03  0.17300000000E+03 0.  1.
<mgrwt>
<rscale>  2 0.20681998E+03</rscale>
<asrwt>0</asrwt>
<pdfrwt beam="1">  1       21 0.25503545E-01 0.20681998E+03</pdfrwt>
<pdfrwt beam="2">  1       21 0.50292240E-01 0.20681998E+03</pdfrwt>
<totfact> 0.54516969E+04</totfact>
</mgrwt>
</event>
<event>
 4    1  0.4199484E+000  0.1748025E+03  0.7546771E-02  0.1172930E+00
         21   -1    0    0  503  502  0.00000000000E+00  0.00000000000E+00  0.72382083849E+02  0.72382083849E+02  0.00000000000E+00 0.  1.
         21   -1    0    0  501  503 -0.00000000000E+00 -0.00000000000E+00 -0.42967122343E+03  0.42967122343E+03  0.00000000000E+00 0.  1.
          6    1    1    2  501    0  0.54121716707E+01 -0.24446053876E+02 -0.21186260424E+03  0.27466645996E+03  0.17300000000E+03 0.  1.
         -6    1    1    2    0  502 -0.54121716707E+01  0.24446053876E+02 -0.14542653534E+03  0.22738684732E+03  0.17300000000E+03 0.  1.
<mgrwt>
<rscale>  2 0.17480246E+03</rscale>
<asrwt>0</asrwt>
<pdfrwt beam="1">  1       21 0.11135705E-01 0.17480246E+03</pdfrwt>
<pdfrwt beam="2">  1       21 0.66103265E-01 0.17480246E+03</pdfrwt>
<totfact> 0.14174905E+05</totfact>
</mgrwt>
</event>
<event>
 4    1  0.4199484E+000  0.1753157E+03  0.7546771E-02  0.1172415E+00
         21   -1    0    0  503  502  0.00000000000E+00  0.00000000000E+00  0.71636608857E+03  0.71636608857E+03  0.00000000000E+00 0.  1.
         21   -1    0    0  501  503 -0.00000000000E+00 -0.00000000000E+00 -0.81207185714E+02  0.81207185714E+02  0.00000000000E+00 0.  1.
          6    1    1    2  501    0  0.23607324542E+02 -0.15789077858E+02  0.43702283170E+02  0.18068063069E+03  0.17300000000E+03 0.  1.
         -6    1    1    2    0  502 -0.23607324542E+02  0.15789077858E+02  0.59145661968E+03  0.61689264359E+03  0.17300000000E+03 0.  1.
<mgrwt>
<rscale>  2 0.17531572E+03</rscale>
<asrwt>0</asrwt>
<pdfrwt beam="1">  1       21 0.11021016E+00 0.17531572E+03</pdfrwt>
<pdfrwt beam="2">  1       21 0.12493414E-01 0.17531572E+03</pdfrwt>
<totfact> 0.35836631E+04</totfact>
</mgrwt>
</event>
<event>
 4    1  0.4199484E+000  0.1785909E+03  0.7546771E-02  0.1169174E+00
         21   -1    0    0  501  502  0.00000000000E+00  0.00000000000E+00  0.18364675383E+03  0.18364675383E+03  0.00000000000E+00 0. -1.
         21   -1    0    0  502  503 -0.00000000000E+00 -0.00000000000E+00 -0.39417340262E+03  0.39417340262E+03  0.00000000000E+00 0. -1.
          6    1    1    2  501    0  0.37858860223E+02  0.23073993129E+02  0.11082064473E+03  0.21018067883E+03  0.17300000000E+03 0. -1.
         -6    1    1    2    0  503 -0.37858860223E+02 -0.23073993129E+02 -0.32134729351E+03  0.36763947762E+03  0.17300000000E+03 0. -1.
<mgrwt>
<rscale>  2 0.17859088E+03</rscale>
<asrwt>0</asrwt>
<pdfrwt beam="1">  1       21 0.28253347E-01 0.17859088E+03</pdfrwt>
<pdfrwt beam="2">  1       21 0.60642061E-01 0.17859088E+03</pdfrwt>
<totfact> 0.30554857E+04</totfact>
</mgrwt>
</event>
<event>
 4    1  0.4199484E+000  0.1840780E+03  0.7546771E-02  0.1163914E+00
         21   -1    0    0  503  502  0.00000000000E+00  0.00000000000E+00  0.71062975378E+03  0.71062975378E+03  0.00000000000E+00 0. -1.
         21   -1    0    0  501  503 -0.00000000000E+00 -0.00000000000E+00 -0.13614999349E+03  0.13614999349E+03  0.00000000000E+00 0. -1.
          6    1    1    2  501    0 -0.47969903324E+02 -0.40676920164E+02 -0.54049755947E+02  0.19184915840E+03  0.17300000000E+03 0. -1.
         -6    1    1    2    0  502  0.47969903324E+02  0.40676920164E+02  0.62852951624E+03  0.65493058887E+03  0.17300000000E+03 0. -1.
<mgrwt>
<rscale>  2 0.18407804E+03</rscale>
<asrwt>0</asrwt>
<pdfrwt beam="1">  1       21 0.10932765E+00 0.18407804E+03</pdfrwt>
<pdfrwt beam="2">  1       21 0.20946153E-01 0.18407804E+03</pdfrwt>
<totfact> 0.14113348E+04</totfact>
</mgrwt>
</event>
<event>
 4    1  0.4199484E+000  0.2016726E+03  0.7546771E-02  0.1148335E+00
         21   -1    0    0  501  502  0.00000000000E+00  0.00000000000E+00  0.28655785977E+03  0.28655785977E+03  0.00000000000E+00 0. -1.
         21   -1    0    0  502  503 -0.00000000000E+00 -0.00000000000E+00 -0.15273072277E+03  0.15273072277E+03  0.00000000000E+00 0. -1.
          6    1    1    2  501    0 -0.10182276632E+03  0.19364145157E+02  0.12531651966E+03  0.23743646721E+03  0.17300000000E+03 0. -1.
         -6    1    1    2    0  503  0.10182276632E+03 -0.19364145157E+02  0.85106173375E+01  0.20185211534E+03  0.17300000000E+03 0. -1.
<mgrwt>
<rscale>  2 0.20167262E+03</rscale>
<asrwt>0</asrwt>
<pdfrwt beam="1">  1       21 0.44085824E-01 0.20167262E+03</pdfrwt>
<pdfrwt beam="2">  1       21 0.23497034E-01 0.20167262E+03</pdfrwt>
<totfact> 0.83913432E+04</totfact>
</mgrwt>
</event>
<event>
 4    1  0.4199484E+000  0.1836108E+03  0.7546771E-02  0.1164354E+00
         21   -1    0    0  501  502  0.00000000000E+00  0.00000000000E+00  0.19936419812E+03  0.19936419812E+03  0.00000000000E+00 0. -1.
         21   -1    0    0  502  503 -0.00000000000E+00 -0.00000000000E+00 -0.18320078120E+03  0.18320078120E+03  0.00000000000E+00 0. -1.
          6    1    1    2  501    0 -0.28807477792E+02  0.54351248855E+02  0.61145577256E+02  0.19352444457E+03  0.17300000000E+03 0.  1.
         -6    1    1    2    0  503  0.28807477792E+02 -0.54351248855E+02 -0.44982160333E+02  0.18904053475E+03  0.17300000000E+03 0.  1.
<mgrwt>
<rscale>  2 0.18361081E+03</rscale>
<asrwt>0</asrwt>
<pdfrwt beam="1">  1       21 0.30671415E-01 0.18361081E+03</pdfrwt>
<pdfrwt beam="2">  1       21 0.28184736E-01 0.18361081E+03</pdfrwt>
<totfact> 0.12315414E+05</totfact>
</mgrwt>
</event>
<event>
 4    1  0.4199484E+000  0.2533555E+03  0.7546771E-02  0.1111202E+00
         21   -1    0    0  501  502  0.00000000000E+00  0.00000000000E+00  0.92497571113E+03  0.92497571113E+03  0.00000000000E+00 0. -1.
         21   -1    0    0  502  503 -0.00000000000E+00 -0.00000000000E+00 -0.95964351628E+02  0.95964351628E+02  0.00000000000E+00 0.  1.
          6    1    1    2  501    0  0.10109049627E+02  0.18481831748E+03  0.68310381222E+03  0.72857382717E+03  0.17300000000E+03 0. -1.
         -6    1    1    2    0  503 -0.10109049627E+02 -0.18481831748E+03  0.14590754728E+03  0.29236623559E+03  0.17300000000E+03 0.  1.
<mgrwt>
<rscale>  2 0.25335549E+03</rscale>
<asrwt>0</asrwt>
<pdfrwt beam="1">  1       21 0.14230395E+00 0.25335549E+03</pdfrwt>
<pdfrwt beam="2">  1       21 0.14763747E-01 0.25335549E+03</pdfrwt>
<totfact> 0.13322983E+04</totfact>
</mgrwt>
</event>
<event>
 4    1  0.4199484E+000  0.2060317E+03  0.7546771E-02  0.1144748E+00
         21   -1    0    0  503  502  0.00000000000E+00  0.00000000000E+00  0.36125522239E+03  0.36125522239E+03  0.00000000000E+00 0. -1.
         21   -1    0    0  501  503 -0.00000000000E+00 -0.00000000000E+00 -0.12316986655E+03  0.12316986655E+03  0.00000000000E+00 0. -1.
          6    1    1    2  501    0 -0.82856758407E+02 -0.75198569644E+02  0.67095328972E+02  0.21668144928E+03  0.17300000000E+03 0. -1.
         -6    1    1    2    0  502  0.82856758407E+02  0.75198569644E+02  0.17099002687E+03  0.26774363966E+03  0.17300000000E+03 0. -1.
<mgrwt>
<rscale>  2 0.20603171E+03</rscale>
<asrwt>0</asrwt>
<pdfrwt beam="1">  1       21 0.55577726E-01 0.20603171E+03</pdfrwt>
<pdfrwt beam="2">  1       21 0.18949210E-01 0.20603171E+03</pdfrwt>
<totfact> 0.77421682E+04</totfact>
</mgrwt>
</event>
<event>
 4    1  0.4199484E+000  0.1816748E+03  0.7546771E-02  0.1166192E+00
         21   -1    0    0  501  502  0.00000000000E+00  0.00000000000E+00  0.23271545672E+03  0.23271545672E+03  0.00000000000E+00 0. -1.
         21   -1    0    0  502  503 -0.00000000000E+00 -0.00000000000E+00 -0.14348113132E+03  0.14348113132E+03  0.00000000000E+00 0. -1.
          6    1    1    2  501    0  0.53025670251E+02 -0.16279590825E+02  0.64802689411E+02  0.19288632750E+03  0.17300000000E+03 0.  1.
         -6    1    1    2    0  503 -0.53025670251E+02  0.16279590825E+02  0.24431635991E+02  0.18331026054E+03  0.17300000000E+03 0.  1.
<mgrwt>
<rscale>  2 0.18167484E+03</rscale>
<asrwt>0</asrwt>
<pdfrwt beam="1">  1       21 0.35802378E-01 0.18167484E+03</pdfrwt>
<pdfrwt beam="2">  1       21 0.22074020E-01 0.18167484E+03</pdfrwt>
<totfact> 0.14481159E+05</totfact>
</mgrwt>
</event>
<event>
 4    1  0.4199484E+000  0.2108576E+03  0.7546771E-02  0.1140889E+00
         21   -1    0    0  503  502  0.00000000000E+00  0.00000000000E+00  0.40167864677E+03  0.40167864677E+03  0.00000000000E+00 0. -1.
         21   -1    0    0  501  503 -0.00000000000E+00 -0.00000000000E+00 -0.19869037130E+03  0.19869037130E+03  0.00000000000E+00 0.  1.
          6    1    1    2  501    0  0.11962646766E+03  0.14881290180E+02 -0.98283756546E+02  0.23263843484E+03  0.17300000000E+03 0.  1.
         -6    1    1    2    0  502 -0.11962646766E+03 -0.14881290180E+02  0.30127203202E+03  0.36773058323E+03  0.17300000000E+03 0. -1.
<mgrwt>
<rscale>  2 0.21085764E+03</rscale>
<asrwt>0</asrwt>
<pdfrwt beam="1">  1       21 0.61796715E-01 0.21085764E+03</pdfrwt>
<pdfrwt beam="2">  1       21 0.30567749E-01 0.21085764E+03</pdfrwt>
<totfact> 0.24724631E+04</totfact>
</mgrwt>
</event>
<event>
 4    1  0.4199484E+000  0.1870699E+03  0.7546771E-02  0.1161131E+00
         21   -1    0    0  503  502  0.00000000000E+00  0.00000000000E+00  0.74717797135E+03  0.74717797135E+03  0.00000000000E+00 0. -1.
         21   -1    0    0  501  503 -0.00000000000E+00 -0.00000000000E+00 -0.14525597535E+03  0.14525597535E+03  0.00000000000E+00 0. -1.
          6    1    1    2  501    0 -0.16992607812E+02 -0.69118689237E+02 -0.66338030859E+02  0.19848394459E+03  0.17300000000E+03 0. -1.
         -6    1    1    2    0  502  0.16992607812E+02  0.69118689237E+02  0.66826002687E+03  0.69395000211E+03  0.17300000000E+03 0. -1.
<mgrwt>
<rscale>  2 0.18706989E+03</rscale>
<asrwt>0</asrwt>
<pdfrwt beam="1">  1       21 0.11495045E+00 0.18706989E+03</pdfrwt>
<pdfrwt beam="2">  1       21 0.22347074E-01 0.18706989E+03</pdfrwt>
<totfact> 0.11042303E+04</totfact>
</mgrwt>
</event>
<event>
 4    1  0.4199484E+000  0.3173380E+03  0.7546771E-02  0.1076881E+00
         21   -1    0    0  503  502  0.00000000000E+00  0.00000000000E+00  0.14837064404E+03  0.14837064404E+03  0.00000000000E+00 0. -1.
         21   -1    0    0  501  503 -0.00000000000E+00 -0.00000000000E+00 -0.80258908403E+03  0.80258908403E+03  0.00000000000E+00 0.  1.
          6    1    1    2  501    0 -0.12747741499E+03  0.23350354813E+03 -0.51389848189E+03  0.60398265539E+03  0.17300000000E+03 0. -1.
         -6    1    1    2    0  502  0.12747741499E+03 -0.23350354813E+03 -0.14031995811E+03  0.34697707268E+03  0.17300000000E+03 0.  1.
<mgrwt>
<rscale>  2 0.31733799E+03</rscale>
<asrwt>0</asrwt>
<pdfrwt beam="1">  1       21 0.22826253E-01 0.31733799E+03</pdfrwt>
<pdfrwt beam="2">  1       21 0.12347525E+00 0.31733799E+03</pdfrwt>
<totfact> 0.82271311E+03</totfact>
</mgrwt>
</event>
<event>
 4    1  0.4199484E+000  0.1970236E+03  0.7546771E-02  0.1152275E+00
         21   -1    0    0  503  502  0.00000000000E+00  0.00000000000E+00  0.10588691007E+04  0.10588691007E+04  0.00000000000E+00 0. -1.
         21   -1    0    0  501  503 -0.00000000000E+00 -0.00000000000E+00 -0.51533880800E+02  0.51533880800E+02  0.00000000000E+00 0. -1.
          6    1    1    2  501    0 -0.86143967320E+02 -0.38321006308E+02  0.20539429695E+03  0.28461394879E+03  0.17300000000E+03 0. -1.
         -6    1    1    2    0  502  0.86143967320E+02  0.38321006308E+02  0.80194092293E+03  0.82578903268E+03  0.17300000000E+03 0. -1.
<mgrwt>
<rscale>  2 0.19702356E+03</rscale>
<asrwt>0</asrwt>
<pdfrwt beam="1">  1       21 0.16290292E+00 0.19702356E+03</pdfrwt>
<pdfrwt beam="2">  1       21 0.79282901E-02 0.19702356E+03</pdfrwt>
<totfact> 0.29141416E+04</totfact>
</mgrwt>
</event>
<event>
 4    1  0.4199484E+000  0.3001840E+03  0.7546771E-02  0.1085149E+00
         21   -1    0    0  501  502  0.00000000000E+00  0.00000000000E+00  0.18839642968E+03  0.18839642968E+03  0.00000000000E+00 0. -1.
         21   -1    0    0  502  503 -0.00000000000E+00 -0.00000000000E+00 -0.96091889147E+03  0.96091889147E+03  0.00000000000E+00 0.  1.
          6    1    1    2  501    0  0.88525474221E+02 -0.22878957911E+03  0.20994302185E+02  0.30091725078E+03  0.17300000000E+03 0. -1.
         -6    1    1    2    0  503 -0.88525474221E+02  0.22878957911E+03 -0.79351676397E+03  0.84839807037E+03  0.17300000000E+03 0.  1.
<mgrwt>
<rscale>  2 0.30018400E+03</rscale>
<asrwt>0</asrwt>
<pdfrwt beam="1">  1       21 0.28984066E-01 0.30018400E+03</pdfrwt>
<pdfrwt beam="2">  1       21 0.14783367E+00 0.30018400E+03</pdfrwt>
<totfact> 0.32746924E+03</totfact>
</mgrwt>
</event>
<event>
 4    1  0.4199484E+000  0.2026523E+03  0.7546771E-02  0.1147520E+00
         21   -1    0    0  503  502  0.00000000000E+00  0.00000000000E+00  0.41255520682E+03  0.41255520682E+03  0.00000000000E+00 0.  1.
         21   -1    0    0  501  503 -0.00000000000E+00 -0.00000000000E+00 -0.99808752103E+02  0.99808752103E+02  0.00000000000E+00 0. -1.
          6    1    1    2  501    0  0.65968578368E+02 -0.82383971576E+02  0.14321387186E+03  0.24814952186E+03  0.17300000000E+03 0. -1.
         -6    1    1    2    0  502 -0.65968578368E+02  0.82383971576E+02  0.16953258286E+03  0.26421443707E+03  0.17300000000E+03 0. -1.
<mgrwt>
<rscale>  2 0.20265234E+03</rscale>
<asrwt>0</asrwt>
<pdfrwt beam="1">  1       21 0.63470031E-01 0.20265234E+03</pdfrwt>
<pdfrwt beam="2">  1       21 0.15355193E-01 0.20265234E+03</pdfrwt>
<totfact> 0.85909003E+04</totfact>
</mgrwt>
</event>
<event>
 4    1  0.4199484E+000  0.2461972E+03  0.7546771E-02  0.1115732E+00
         21   -1    0    0  503  502  0.00000000000E+00  0.00000000000E+00  0.45901361119E+03  0.45901361119E+03  0.00000000000E+00 0. -1.
         21   -1    0    0  501  503 -0.00000000000E+00 -0.00000000000E+00 -0.25929988947E+03  0.25929988947E+03  0.00000000000E+00 0. -1.
          6    1    1    2  501    0 -0.16245244625E+03 -0.65523143018E+02 -0.15174296687E+03  0.28920409326E+03  0.17300000000E+03 0. -1.
         -6    1    1    2    0  502  0.16245244625E+03  0.65523143018E+02  0.35145668859E+03  0.42910940740E+03  0.17300000000E+03 0. -1.
<mgrwt>
<rscale>  2 0.24619724E+03</rscale>
<asrwt>0</asrwt>
<pdfrwt beam="1">  1       21 0.70617478E-01 0.24619724E+03</pdfrwt>
<pdfrwt beam="2">  1       21 0.39892291E-01 0.24619724E+03</pdfrwt>
<totfact> 0.10645478E+04</totfact>
</mgrwt>
</event>
<event>
 4    1  0.4199484E+000  0.1855575E+03  0.7546771E-02  0.1162530E+00
         21   -1    0    0  503  502  0.00000000000E+00  0.00000000000E+00  0.17607903576E+03  0.17607903576E+03  0.00000000000E+00 0.  1.
         21   -1    0    0  501  503 -0.00000000000E+00 -0.00000000000E+00 -0.20875219288E+03  0.20875219288E+03  0.00000000000E+00 0.  1.
          6    1    1    2  501    0 -0.76856881150E+01  0.66659651166E+02 -0.64732750761E+02  0.19652457331E+03  0.17300000000E+03 0.  1.
         -6    1    1    2    0  502  0.76856881150E+01 -0.66659651166E+02  0.32059593640E+02  0.18830665532E+03  0.17300000000E+03 0.  1.
<mgrwt>
<rscale>  2 0.18555748E+03</rscale>
<asrwt>0</asrwt>
<pdfrwt beam="1">  1       21 0.27089082E-01 0.18555748E+03</pdfrwt>
<pdfrwt beam="2">  1       21 0.32115722E-01 0.18555748E+03</pdfrwt>
<totfact> 0.12141191E+05</totfact>
</mgrwt>
</event>
<event>
 4    1  0.4199484E+000  0.1958479E+03  0.7546771E-02  0.1153290E+00
         21   -1    0    0  503  502  0.00000000000E+00  0.00000000000E+00  0.37973202533E+03  0.37973202533E+03  0.00000000000E+00 0. -1.
         21   -1    0    0  501  503 -0.00000000000E+00 -0.00000000000E+00 -0.95270786151E+03  0.95270786151E+03  0.00000000000E+00 0. -1.
          6    1    1    2  501    0 -0.52079064127E+02  0.75598634489E+02 -0.91640120305E+03  0.93709527126E+03  0.17300000000E+03 0. -1.
         -6    1    1    2    0  502  0.52079064127E+02 -0.75598634489E+02  0.34342536687E+03  0.39534461558E+03  0.17300000000E+03 0. -1.
<mgrwt>
<rscale>  2 0.19584786E+03</rscale>
<asrwt>0</asrwt>
<pdfrwt beam="1">  1       21 0.58420312E-01 0.19584786E+03</pdfrwt>
<pdfrwt beam="2">  1       21 0.14657044E+00 0.19584786E+03</pdfrwt>
<totfact> 0.86845850E+02</totfact>
</mgrwt>
</event>
<event>
 4    1  0.4199484E+000  0.2197256E+03  0.7546771E-02  0.1134088E+00
         21   -1    0    0  501  502  0.00000000000E+00  0.00000000000E+00  0.59217434903E+03  0.59217434903E+03  0.00000000000E+00 0.  1.
         21   -1    0    0  502  503 -0.00000000000E+00 -0.00000000000E+00 -0.91739203772E+02  0.91739203772E+02  0.00000000000E+00 0.  1.
          6    1    1    2  501    0  0.89524641938E+02  0.10166463526E+03  0.36429816282E+03  0.42543214619E+03  0.17300000000E+03 0.  1.
         -6    1    1    2    0  503 -0.89524641938E+02 -0.10166463526E+03  0.13613698244E+03  0.25848140661E+03  0.17300000000E+03 0.  1.
<mgrwt>
<rscale>  2 0.21972565E+03</rscale>
<asrwt>0</asrwt>
<pdfrwt beam="1">  1       21 0.91103743E-01 0.21972565E+03</pdfrwt>
<pdfrwt beam="2">  1       21 0.14113724E-01 0.21972565E+03</pdfrwt>
<totfact> 0.44142147E+04</totfact>
</mgrwt>
</event>
<event>
 4    1  0.4199484E+000  0.1916388E+03  0.7546771E-02  0.1156991E+00
         21   -1    0    0  503  502  0.00000000000E+00  0.00000000000E+00  0.45793688667E+03  0.45793688667E+03  0.00000000000E+00 0. -1.
         21   -1    0    0  501  503 -0.00000000000E+00 -0.00000000000E+00 -0.80233811642E+02  0.80233811642E+02  0.00000000000E+00 0. -1.
          6    1    1    2  501    0  0.56652723077E+02  0.59890772467E+02  0.19456872767E+03  0.27309783127E+03  0.17300000000E+03 0. -1.
         -6    1    1    2    0  502 -0.56652723077E+02 -0.59890772467E+02  0.18313434736E+03  0.26507286704E+03  0.17300000000E+03 0. -1.
<mgrwt>
<rscale>  2 0.19163882E+03</rscale>
<asrwt>0</asrwt>
<pdfrwt beam="1">  1       21 0.70451827E-01 0.19163882E+03</pdfrwt>
<pdfrwt beam="2">  1       21 0.12343664E-01 0.19163882E+03</pdfrwt>
<totfact> 0.10195825E+05</totfact>
</mgrwt>
</event>
<event>
 4    1  0.4199484E+000  0.1896133E+03  0.7546771E-02  0.1158811E+00
         21   -1    0    0  503  502  0.00000000000E+00  0.00000000000E+00  0.11984813334E+04  0.11984813334E+04  0.00000000000E+00 0. -1.
         21   -1    0    0  501  503 -0.00000000000E+00 -0.00000000000E+00 -0.41628096667E+02  0.41628096667E+02  0.00000000000E+00 0. -1.
          6    1    1    2  501    0  0.67179852875E+02  0.38872608209E+02  0.25070115764E+03  0.31433148545E+03  0.17300000000E+03 0. -1.
         -6    1    1    2    0  502 -0.67179852875E+02 -0.38872608209E+02  0.90615207909E+03  0.92577794462E+03  0.17300000000E+03 0. -1.
<mgrwt>
<rscale>  2 0.18961332E+03</rscale>
<asrwt>0</asrwt>
<pdfrwt beam="1">  1       21 0.18438172E+00 0.18961332E+03</pdfrwt>
<pdfrwt beam="2">  1       21 0.64043235E-02 0.18961332E+03</pdfrwt>
<totfact> 0.30030504E+04</totfact>
</mgrwt>
</event>
<event>
 4    1  0.4199484E+000  0.1895673E+03  0.7546771E-02  0.1158852E+00
         21   -1    0    0  503  502  0.00000000000E+00  0.00000000000E+00  0.33324348893E+03  0.33324348893E+03  0.00000000000E+00 0.  1.
         21   -1    0    0  501  503 -0.00000000000E+00 -0.00000000000E+00 -0.20874718068E+03  0.20874718068E+03  0.00000000000E+00 0.  1.
          6    1    1    2  501    0  0.38917597392E+02  0.67023821409E+02 -0.12616895143E+03  0.22771556014E+03  0.17300000000E+03 0.  1.
         -6    1    1    2    0  502 -0.38917597392E+02 -0.67023821409E+02  0.25066525969E+03  0.31427510948E+03  0.17300000000E+03 0.  1.
<mgrwt>
<rscale>  2 0.18956733E+03</rscale>
<asrwt>0</asrwt>
<pdfrwt beam="1">  1       21 0.51268229E-01 0.18956733E+03</pdfrwt>
<pdfrwt beam="2">  1       21 0.32114951E-01 0.18956733E+03</pdfrwt>
<totfact> 0.33780600E+04</totfact>
</mgrwt>
</event>
<event>
 4    1  0.4199484E+000  0.2755236E+03  0.7546771E-02  0.1098159E+00
         21   -1    0    0  501  502  0.00000000000E+00  0.00000000000E+00  0.48129307117E+03  0.48129307117E+03  0.00000000000E+00 0.  1.
         21   -1    0    0  502  503 -0.00000000000E+00 -0.00000000000E+00 -0.15927849512E+03  0.15927849512E+03  0.00000000000E+00 0.  1.
          6    1    1    2  501    0  0.10588452825E+03 -0.18647441036E+03  0.19261108335E+03  0.33617297403E+03  0.17300000000E+03 0.  1.
         -6    1    1    2    0  503 -0.10588452825E+03  0.18647441036E+03  0.12940349270E+03  0.30439859225E+03  0.17300000000E+03 0.  1.
<mgrwt>
<rscale>  2 0.27552357E+03</rscale>
<asrwt>0</asrwt>
<pdfrwt beam="1">  1       21 0.74045087E-01 0.27552357E+03</pdfrwt>
<pdfrwt beam="2">  1       21 0.24504384E-01 0.27552357E+03</pdfrwt>
<totfact> 0.24698438E+04</totfact>
</mgrwt>
</event>
<event>
 4    1  0.4199484E+000  0.1852414E+03  0.7546771E-02  0.1162825E+00
         21   -1    0    0  501  502  0.00000000000E+00  0.00000000000E+00  0.78428030622E+03  0.78428030622E+03  0.00000000000E+00 0.  1.
         21   -1    0    0  502  503 -0.00000000000E+00 -0.00000000000E+00 -0.44691522271E+02  0.44691522271E+02  0.00000000000E+00 0.  1.
          6    1    1    2  501    0  0.32525099211E+02 -0.57684503149E+02  0.42986859266E+03  0.46808267532E+03  0.17300000000E+03 0.  1.
         -6    1    1    2    0  503 -0.32525099211E+02  0.57684503149E+02  0.30972019129E+03  0.36088915317E+03  0.17300000000E+03 0.  1.
<mgrwt>
<rscale>  2 0.18524142E+03</rscale>
<asrwt>0</asrwt>
<pdfrwt beam="1">  1       21 0.12065850E+00 0.18524142E+03</pdfrwt>
<pdfrwt beam="2">  1       21 0.68756194E-02 0.18524142E+03</pdfrwt>
<totfact> 0.81558338E+04</totfact>
</mgrwt>
</event>
<event>
 4    1  0.4199484E+000  0.2310553E+03  0.7546771E-02  0.1125899E+00
         21   -1    0    0  503  502  0.00000000000E+00  0.00000000000E+00  0.38880027900E+03  0.38880027900E+03  0.00000000000E+00 0.  1.
         21   -1    0    0  501  503 -0.00000000000E+00 -0.00000000000E+00 -0.13755327158E+03  0.13755327158E+03  0.00000000000E+00 0. -1.
          6    1    1    2  501    0 -0.93677304670E+02 -0.12116982061E+03  0.13666799001E+03  0.26844869590E+03  0.17300000000E+03 0. -1.
         -6    1    1    2    0  502  0.93677304670E+02  0.12116982061E+03  0.11457901740E+03  0.25790485468E+03  0.17300000000E+03 0.  1.
<mgrwt>
<rscale>  2 0.23105532E+03</rscale>
<asrwt>0</asrwt>
<pdfrwt beam="1">  1       21 0.59815427E-01 0.23105532E+03</pdfrwt>
<pdfrwt beam="2">  1       21 0.21162042E-01 0.23105532E+03</pdfrwt>
<totfact> 0.53219897E+04</totfact>
</mgrwt>
</event>
<event>
 4    1  0.4199484E+000  0.1749599E+03  0.7546771E-02  0.1172772E+00
         21   -1    0    0  503  502  0.00000000000E+00  0.00000000000E+00  0.21952205244E+03  0.21952205244E+03  0.00000000000E+00 0. -1.
         21   -1    0    0  501  503 -0.00000000000E+00 -0.00000000000E+00 -0.46694578800E+03  0.46694578800E+03  0.00000000000E+00 0. -1.
          6    1    1    2  501    0  0.23665642090E+02  0.11041256222E+02 -0.41116297894E+03  0.44683997942E+03  0.17300000000E+03 0. -1.
         -6    1    1    2    0  502 -0.23665642090E+02 -0.11041256222E+02  0.16373924339E+03  0.23962786102E+03  0.17300000000E+03 0. -1.
<mgrwt>
<rscale>  2 0.17495992E+03</rscale>
<asrwt>0</asrwt>
<pdfrwt beam="1">  1       21 0.33772623E-01 0.17495992E+03</pdfrwt>
<pdfrwt beam="2">  1       21 0.71837814E-01 0.17495992E+03</pdfrwt>
<totfact> 0.14948958E+04</totfact>
</mgrwt>
</event>
<event>
 4    1  0.4199484E+000  0.1762716E+03  0.7546771E-02  0.1171461E+00
         21   -1    0    0  503  502  0.00000000000E+00  0.00000000000E+00  0.25857886742E+03  0.25857886742E+03  0.00000000000E+00 0.  1.
         21   -1    0    0  501  503 -0.00000000000E+00 -0.00000000000E+00 -0.17317501768E+03  0.17317501768E+03  0.00000000000E+00 0.  1.
          6    1    1    2  501    0 -0.96845076894E+01 -0.32386757867E+02 -0.76738007454E+02  0.19225091303E+03  0.17300000000E+03 0.  1.
         -6    1    1    2    0  502  0.96845076894E+01  0.32386757867E+02  0.16214185719E+03  0.23950297207E+03  0.17300000000E+03 0.  1.
<mgrwt>
<rscale>  2 0.17627164E+03</rscale>
<asrwt>0</asrwt>
<pdfrwt beam="1">  1       21 0.39781364E-01 0.17627164E+03</pdfrwt>
<pdfrwt beam="2">  1       21 0.26642311E-01 0.17627164E+03</pdfrwt>
<totfact> 0.82211594E+04</totfact>
</mgrwt>
</event>
<event>
 4    1  0.4199484E+000  0.1883499E+03  0.7546771E-02  0.1159958E+00
         21   -1    0    0  501  502  0.00000000000E+00  0.00000000000E+00  0.17283095491E+03  0.17283095491E+03  0.00000000000E+00 0.  1.
         21   -1    0    0  502  503 -0.00000000000E+00 -0.00000000000E+00 -0.28734331748E+03  0.28734331748E+03  0.00000000000E+00 0.  1.
          6    1    1    2  501    0 -0.65560575714E+02  0.35334214707E+02  0.65717705816E+02  0.19948562022E+03  0.17300000000E+03 0.  1.
         -6    1    1    2    0  503  0.65560575714E+02 -0.35334214707E+02 -0.18023006839E+03  0.26068865217E+03  0.17300000000E+03 0.  1.
<mgrwt>
<rscale>  2 0.18834993E+03</rscale>
<asrwt>0</asrwt>
<pdfrwt beam="1">  1       21 0.26589378E-01 0.18834993E+03</pdfrwt>
<pdfrwt beam="2">  1       21 0.44206664E-01 0.18834993E+03</pdfrwt>
<totfact> 0.66276248E+04</totfact>
</mgrwt>
</event>
<event>
 4    1  0.4199484E+000  0.1889766E+03  0.7546771E-02  0.1159388E+00
         21   -1    0    0  503  502  0.00000000000E+00  0.00000000000E+00  0.50058916538E+03  0.50058916538E+03  0.00000000000E+00 0. -1.
         21   -1    0    0  501  503 -0.00000000000E+00 -0.00000000000E+00 -0.18877814380E+03  0.18877814380E+03  0.00000000000E+00 0.  1.
          6    1    1    2  501    0  0.75687253499E+02  0.73882080943E+01 -0.11595679622E+03  0.22171631548E+03  0.17300000000E+03 0.  1.
         -6    1    1    2    0  502 -0.75687253499E+02 -0.73882080943E+01  0.42776781780E+03  0.46765099370E+03  0.17300000000E+03 0. -1.
<mgrwt>
<rscale>  2 0.18897658E+03</rscale>
<asrwt>0</asrwt>
<pdfrwt beam="1">  1       21 0.77013717E-01 0.18897658E+03</pdfrwt>
<pdfrwt beam="2">  1       21 0.29042792E-01 0.18897658E+03</pdfrwt>
<totfact> 0.17045719E+04</totfact>
</mgrwt>
</event>
<event>
 4    1  0.4199484E+000  0.1903142E+03  0.7546771E-02  0.1158178E+00
         21   -1    0    0  501  502  0.00000000000E+00  0.00000000000E+00  0.16918909437E+03  0.16918909437E+03  0.00000000000E+00 0.  1.
         21   -1    0    0  502  503 -0.00000000000E+00 -0.00000000000E+00 -0.55184195995E+03  0.55184195995E+03  0.00000000000E+00 0.  1.
          6    1    1    2  501    0  0.74766188080E+02  0.26467002671E+02  0.90722164421E+02  0.21083167748E+03  0.17300000000E+03 0.  1.
         -6    1    1    2    0  503 -0.74766188080E+02 -0.26467002671E+02 -0.47337503000E+03  0.51019937685E+03  0.17300000000E+03 0.  1.
<mgrwt>
<rscale>  2 0.19031417E+03</rscale>
<asrwt>0</asrwt>
<pdfrwt beam="1">  1       21 0.26029091E-01 0.19031417E+03</pdfrwt>
<pdfrwt beam="2">  1       21 0.84898763E-01 0.19031417E+03</pdfrwt>
<totfact> 0.16872619E+04</totfact>
</mgrwt>
</event>
<event>
 4    1  0.4199484E+000  0.2338805E+03  0.7546771E-02  0.1123938E+00
         21   -1    0    0  501  502  0.00000000000E+00  0.00000000000E+00  0.62582002928E+02  0.62582002928E+02  0.00000000000E+00 0.  1.
         21   -1    0    0  502  503 -0.00000000000E+00 -0.00000000000E+00 -0.94399248833E+03  0.94399248833E+03  0.00000000000E+00 0. -1.
          6    1    1    2  501    0 -0.14860750937E+03 -0.51835129189E+02 -0.30371530724E+03  0.38333152794E+03  0.17300000000E+03 0. -1.
         -6    1    1    2    0  503  0.14860750937E+03  0.51835129189E+02 -0.57769517816E+03  0.62324296332E+03  0.17300000000E+03 0. -1.
<mgrwt>
<rscale>  2 0.23388047E+03</rscale>
<asrwt>0</asrwt>
<pdfrwt beam="1">  1       21 0.96280014E-02 0.23388047E+03</pdfrwt>
<pdfrwt beam="2">  1       21 0.14522960E+00 0.23388047E+03</pdfrwt>
<totfact> 0.27540943E+04</totfact>
</mgrwt>
</event>
<event>
 4    1  0.4199484E+000  0.2396210E+03  0.7546771E-02  0.1120046E+00
         21   -1    0    0  503  502  0.00000000000E+00  0.00000000000E+00  0.11174071362E+03  0.11174071362E+03  0.00000000000E+00 0. -1.
         21   -1    0    0  501  503 -0.00000000000E+00 -0.00000000000E+00 -0.57822262270E+03  0.57822262270E+03  0.00000000000E+00 0.  1.
          6    1    1    2  501    0 -0.16264394518E+03 -0.32189644604E+02 -0.34834516706E+03  0.42280324210E+03  0.17300000000E+03 0. -1.
         -6    1    1    2    0  502  0.16264394518E+03  0.32189644604E+02 -0.11813674203E+03  0.26716009421E+03  0.17300000000E+03 0. -1.
<mgrwt>
<rscale>  2 0.23962101E+03</rscale>
<asrwt>0</asrwt>
<pdfrwt beam="1">  1       21 0.17190879E-01 0.23962101E+03</pdfrwt>
<pdfrwt beam="2">  1       21 0.88957328E-01 0.23962101E+03</pdfrwt>
<totfact> 0.32191807E+04</totfact>
</mgrwt>
</event>
<event>
 4    1  0.4199484E+000  0.2010019E+03  0.7546771E-02  0.1148896E+00
         21   -1    0    0  503  502  0.00000000000E+00  0.00000000000E+00  0.48531123791E+02  0.48531123791E+02  0.00000000000E+00 0.  1.
         21   -1    0    0  501  503 -0.00000000000E+00 -0.00000000000E+00 -0.11880828890E+04  0.11880828890E+04  0.00000000000E+00 0.  1.
          6    1    1    2  501    0  0.94115244659E+02 -0.40188131183E+02 -0.90804020922E+03  0.93002085284E+03  0.17300000000E+03 0.  1.
         -6    1    1    2    0  502 -0.94115244659E+02  0.40188131183E+02 -0.23151155596E+03  0.30659315992E+03  0.17300000000E+03 0.  1.
<mgrwt>
<rscale>  2 0.20100190E+03</rscale>
<asrwt>0</asrwt>
<pdfrwt beam="1">  1       21 0.74663271E-02 0.20100190E+03</pdfrwt>
<pdfrwt beam="2">  1       21 0.18278197E+00 0.20100190E+03</pdfrwt>
<totfact> 0.23433546E+04</totfact>
</mgrwt>
</event>
<event>
 4    1  0.4199484E+000  0.1742985E+03  0.7546771E-02  0.1173438E+00
         21   -1    0    0  501  502  0.00000000000E+00  0.00000000000E+00  0.11111453239E+03  0.11111453239E+03  0.00000000000E+00 0. -1.
         21   -1    0    0  502  503 -0.00000000000E+00 -0.00000000000E+00 -0.77111494264E+03  0.77111494264E+03  0.00000000000E+00 0. -1.
          6    1    1    2  501    0  0.19920248890E+02  0.73596055399E+01  0.24386461120E+02  0.17599624881E+03  0.17300000000E+03 0. -1.
         -6    1    1    2    0  503 -0.19920248890E+02 -0.73596055399E+01 -0.68438687137E+03  0.70623322622E+03  0.17300000000E+03 0. -1.
<mgrwt>
<rscale>  2 0.17429854E+03</rscale>
<asrwt>0</asrwt>
<pdfrwt beam="1">  1       21 0.17094544E-01 0.17429854E+03</pdfrwt>
<pdfrwt beam="2">  1       21 0.11863306E+00 0.17429854E+03</pdfrwt>
<totfact> 0.16983770E+04</totfact>
</mgrwt>
</event>
<event>
 4    1  0.4199484E+000  0.2663208E+03  0.7546771E-02  0.1103404E+00
         21   -1    0    0  501  502  0.00000000000E+00  0.00000000000E+00  0.67173781386E+03  0.67173781386E+03  0.00000000000E+00 0.  1.
         21   -1    0    0  502  503 -0.00000000000E+00 -0.00000000000E+00 -0.11691794607E+03  0.11691794607E+03  0.00000000000E+00 0. -1.
          6    1    1    2  501    0 -0.17466261567E+03 -0.10242443692E+03  0.40016787077E+03  0.48068817271E+03  0.17300000000E+03 0.  1.
         -6    1    1    2    0  503  0.17466261567E+03  0.10242443692E+03  0.15465199703E+03  0.30796758721E+03  0.17300000000E+03 0. -1.
<mgrwt>
<rscale>  2 0.26632085E+03</rscale>
<asrwt>0</asrwt>
<pdfrwt beam="1">  1       21 0.10334428E+00 0.26632085E+03</pdfrwt>
<pdfrwt beam="2">  1       21 0.17987377E-01 0.26632085E+03</pdfrwt>
<totfact> 0.20497692E+04</totfact>
</mgrwt>
</event>
<event>
 4    1  0.4199484E+000  0.2332314E+03  0.7546771E-02  0.1124386E+00
         21   -1    0    0  501  502  0.00000000000E+00  0.00000000000E+00  0.38380271094E+03  0.38380271094E+03  0.00000000000E+00 0. -1.
         21   -1    0    0  502  503 -0.00000000000E+00 -0.00000000000E+00 -0.14174097044E+03  0.14174097044E+03  0.00000000000E+00 0.  1.
          6    1    1    2  501    0 -0.13836809165E+03 -0.72953060207E+02  0.11886643450E+03  0.26177491673E+03  0.17300000000E+03 0. -1.
         -6    1    1    2    0  503  0.13836809165E+03  0.72953060207E+02  0.12319530600E+03  0.26376876464E+03  0.17300000000E+03 0.  1.
<mgrwt>
<rscale>  2 0.23323138E+03</rscale>
<asrwt>0</asrwt>
<pdfrwt beam="1">  1       21 0.59046571E-01 0.23323138E+03</pdfrwt>
<pdfrwt beam="2">  1       21 0.21806303E-01 0.23323138E+03</pdfrwt>
<totfact> 0.51662421E+04</totfact>
</mgrwt>
</event>
<event>
 4    1  0.4199484E+000  0.2202647E+03  0.7546771E-02  0.1133686E+00
         21   -1    0    0  503  502  0.00000000000E+00  0.00000000000E+00  0.12372135061E+04  0.12372135061E+04  0.00000000000E+00 0.  1.
         21   -1    0    0  501  503 -0.00000000000E+00 -0.00000000000E+00 -0.11423933270E+03  0.11423933270E+03  0.00000000000E+00 0. -1.
          6    1    1    2  501    0 -0.11714248394E+03  0.69750862252E+02  0.13883891485E+02  0.22070185041E+03  0.17300000000E+03 0. -1.
         -6    1    1    2    0  502  0.11714248394E+03 -0.69750862252E+02  0.11090902819E+04  0.11307509884E+04  0.17300000000E+03 0.  1.
<mgrwt>
<rscale>  2 0.22026471E+03</rscale>
<asrwt>0</asrwt>
<pdfrwt beam="1">  1       21 0.19034053E+00 0.22026471E+03</pdfrwt>
<pdfrwt beam="2">  1       21 0.17575283E-01 0.22026471E+03</pdfrwt>
<totfact> 0.44431326E+03</totfact>
</mgrwt>
</event>
<event>
 4    1  0.4199484E+000  0.2023814E+03  0.7546771E-02  0.1147745E+00
         21   -1    0    0  503  502  0.00000000000E+00  0.00000000000E+00  0.61798388941E+03  0.61798388941E+03  0.00000000000E+00 0. -1.
         21   -1    0    0  501  503 -0.00000000000E+00 -0.00000000000E+00 -0.71946320837E+02  0.71946320837E+02  0.00000000000E+00 0.  1.
          6    1    1    2  501    0  0.48206573269E+02  0.93302436035E+02  0.17618426777E+03  0.26832650724E+03  0.17300000000E+03 0. -1.
         -6    1    1    2    0  502 -0.48206573269E+02 -0.93302436035E+02  0.36985330081E+03  0.42160370302E+03  0.17300000000E+03 0. -1.
<mgrwt>
<rscale>  2 0.20238137E+03</rscale>
<asrwt>0</asrwt>
<pdfrwt beam="1">  1       21 0.95074441E-01 0.20238137E+03</pdfrwt>
<pdfrwt beam="2">  1       21 0.11068665E-01 0.20238137E+03</pdfrwt>
<totfact> 0.62377392E+04</totfact>
</mgrwt>
</event>
<event>
 4    1  0.4199484E+000  0.1901995E+03  0.7546771E-02  0.1158281E+00
         21   -1    0    0  503  502  0.00000000000E+00  0.00000000000E+00  0.32276803083E+02  0.32276803083E+02  0.00000000000E+00 0. -1.
         21   -1    0    0  501  503 -0.00000000000E+00 -0.00000000000E+00 -0.25719851783E+04  0.25719851783E+04  0.00000000000E+00 0.  1.
          6    1    1    2  501    0  0.73822578256E+02  0.28232865993E+02 -0.22479507596E+04  0.22559828203E+04  0.17300000000E+03 0.  1.
         -6    1    1    2    0  502 -0.73822578256E+02 -0.28232865993E+02 -0.29175761553E+03  0.34827916102E+03  0.17300000000E+03 0. -1.
<mgrwt>
<rscale>  2 0.19019955E+03</rscale>
<asrwt>0</asrwt>
<pdfrwt beam="1">  1       21 0.49656631E-02 0.19019955E+03</pdfrwt>
<pdfrwt beam="2">  1       21 0.39568994E+00 0.19019955E+03</pdfrwt>
<totfact> 0.25305649E+03</totfact>
</mgrwt>
</event>
<event>
 4    1  0.4199484E+000  0.2200613E+03  0.7546771E-02  0.1133837E+00
         21   -1    0    0  503  502  0.00000000000E+00  0.00000000000E+00  0.24763691209E+03  0.24763691209E+03  0.00000000000E+00 0.  1.
         21   -1    0    0  501  503 -0.00000000000E+00 -0.00000000000E+00 -0.24158144273E+03  0.24158144273E+03  0.00000000000E+00 0.  1.
          6    1    1    2  501    0  0.13559663126E+03  0.10560945728E+02 -0.10373953092E+03  0.24328762866E+03  0.17300000000E+03 0.  1.
         -6    1    1    2    0  502 -0.13559663126E+03 -0.10560945728E+02  0.10979500028E+03  0.24593072616E+03  0.17300000000E+03 0.  1.
<mgrwt>
<rscale>  2 0.22006131E+03</rscale>
<asrwt>0</asrwt>
<pdfrwt beam="1">  1       21 0.38097987E-01 0.22006131E+03</pdfrwt>
<pdfrwt beam="2">  1       21 0.37166376E-01 0.22006131E+03</pdfrwt>
<totfact> 0.45779058E+04</totfact>
</mgrwt>
</event>
<event>
 4    1  0.4199484E+000  0.3985936E+03  0.7546771E-02  0.1044268E+00
         21   -1    0    0  501  502  0.00000000000E+00  0.00000000000E+00  0.89864379411E+03  0.89864379411E+03  0.00000000000E+00 0.  1.
         21   -1    0    0  502  503 -0.00000000000E+00 -0.00000000000E+00 -0.20971582780E+03  0.20971582780E+03  0.00000000000E+00 0. -1.
          6    1    1    2  501    0  0.18870420106E+03  0.30551360645E+03  0.56402858485E+03  0.69065554639E+03  0.17300000000E+03 0.  1.
         -6    1    1    2    0  503 -0.18870420106E+03 -0.30551360645E+03  0.12489938145E+03  0.41770407553E+03  0.17300000000E+03 0. -1.
<mgrwt>
<rscale>  2 0.39859358E+03</rscale>
<asrwt>0</asrwt>
<pdfrwt beam="1">  1       21 0.13825289E+00 0.39859358E+03</pdfrwt>
<pdfrwt beam="2">  1       21 0.32263974E-01 0.39859358E+03</pdfrwt>
<totfact> 0.30140251E+03</totfact>
</mgrwt>
</event>
<event>
 4    1  0.4199484E+000  0.2101242E+03  0.7546771E-02  0.1141468E+00
         21   -1    0    0  501  502  0.00000000000E+00  0.00000000000E+00  0.47026944538E+02  0.47026944538E+02  0.00000000000E+00 0.  1.
         21   -1    0    0  502  503 -0.00000000000E+00 -0.00000000000E+00 -0.94550073994E+03  0.94550073994E+03  0.00000000000E+00 0. -1.
          6    1    1    2  501    0 -0.29251789579E+02 -0.11561802147E+03 -0.49079522445E+03  0.53388401963E+03  0.17300000000E+03 0. -1.
         -6    1    1    2    0  503  0.29251789579E+02  0.11561802147E+03 -0.40767857095E+03  0.45864366484E+03  0.17300000000E+03 0. -1.
<mgrwt>
<rscale>  2 0.21012423E+03</rscale>
<asrwt>0</asrwt>
<pdfrwt beam="1">  1       21 0.72349147E-02 0.21012423E+03</pdfrwt>
<pdfrwt beam="2">  1       21 0.14546165E+00 0.21012423E+03</pdfrwt>
<totfact> 0.45831956E+04</totfact>
</mgrwt>
</event>
<event>
 4    1  0.4199484E+000  0.2065364E+03  0.7546771E-02  0.1144339E+00
         21   -1    0    0  503  502  0.00000000000E+00  0.00000000000E+00  0.14744260388E+03  0.14744260388E+03  0.00000000000E+00 0. -1.
         21   -1    0    0  501  503 -0.00000000000E+00 -0.00000000000E+00 -0.30950861838E+03  0.30950861838E+03  0.00000000000E+00 0.  1.
          6    1    1    2  501    0 -0.41269456342E+02 -0.10500046729E+03 -0.13939326048E+03  0.24917413033E+03  0.17300000000E+03 0.  1.
         -6    1    1    2    0  502  0.41269456342E+02  0.10500046729E+03 -0.22672754020E+02  0.20777709193E+03  0.17300000000E+03 0. -1.
<mgrwt>
<rscale>  2 0.20653636E+03</rscale>
<asrwt>0</asrwt>
<pdfrwt beam="1">  1       21 0.22683478E-01 0.20653636E+03</pdfrwt>
<pdfrwt beam="2">  1       21 0.47616710E-01 0.20653636E+03</pdfrwt>
<totfact> 0.76376699E+04</totfact>
</mgrwt>
</event>
<event>
 4    1  0.4199484E+000  0.3019990E+03  0.7546771E-02  0.1084246E+00
         21   -1    0    0  503  502  0.00000000000E+00  0.00000000000E+00  0.10992084804E+03  0.10992084804E+03  0.00000000000E+00 0. -1.
         21   -1    0    0  501  503 -0.00000000000E+00 -0.00000000000E+00 -0.87580136229E+03  0.87580136229E+03  0.00000000000E+00 0. -1.
          6    1    1    2  501    0  0.13444636809E+03 -0.20784269310E+03 -0.26988537382E+03  0.40502040192E+03  0.17300000000E+03 0. -1.
         -6    1    1    2    0  502 -0.13444636809E+03  0.20784269310E+03 -0.49599514042E+03  0.58070180841E+03  0.17300000000E+03 0. -1.
<mgrwt>
<rscale>  2 0.30199902E+03</rscale>
<asrwt>0</asrwt>
<pdfrwt beam="1">  1       21 0.16910899E-01 0.30199902E+03</pdfrwt>
<pdfrwt beam="2">  1       21 0.13473868E+00 0.30199902E+03</pdfrwt>
<totfact> 0.11665037E+04</totfact>
</mgrwt>
</event>
<event>
 4    1  0.4199484E+000  0.2862590E+03  0.7546771E-02  0.1092319E+00
         21   -1    0    0  503  502  0.00000000000E+00  0.00000000000E+00  0.98565078785E+03  0.98565078785E+03  0.00000000000E+00 0.  1.
         21   -1    0    0  501  503 -0.00000000000E+00 -0.00000000000E+00 -0.11026467860E+03  0.11026467860E+03  0.00000000000E+00 0.  1.
          6    1    1    2  501    0 -0.21221456788E+03 -0.83547534426E+02  0.16590282654E+03  0.33085942813E+03  0.17300000000E+03 0.  1.
         -6    1    1    2    0  502  0.21221456788E+03  0.83547534426E+02  0.70948328270E+03  0.76505603832E+03  0.17300000000E+03 0.  1.
<mgrwt>
<rscale>  2 0.28625900E+03</rscale>
<asrwt>0</asrwt>
<pdfrwt beam="1">  1       21 0.15163858E+00 0.28625900E+03</pdfrwt>
<pdfrwt beam="2">  1       21 0.16963797E-01 0.28625900E+03</pdfrwt>
<totfact> 0.85590224E+03</totfact>
</mgrwt>
</event>
<event>
 4    1  0.4199484E+000  0.1746388E+03  0.7546771E-02  0.1173095E+00
         21   -1    0    0  503  502  0.00000000000E+00  0.00000000000E+00  0.27614769607E+03  0.27614769607E+03  0.00000000000E+00 0.  1.
         21   -1    0    0  501  503 -0.00000000000E+00 -0.00000000000E+00 -0.42815883595E+03  0.42815883595E+03  0.00000000000E+00 0.  1.
          6    1    1    2  501    0 -0.18276054124E+02 -0.15351971538E+02 -0.37935864800E+03  0.41762624558E+03  0.17300000000E+03 0.  1.
         -6    1    1    2    0  502  0.18276054124E+02  0.15351971538E+02  0.22734750812E+03  0.28668028644E+03  0.17300000000E+03 0.  1.
<mgrwt>
<rscale>  2 0.17463876E+03</rscale>
<asrwt>0</asrwt>
<pdfrwt beam="1">  1       21 0.42484261E-01 0.17463876E+03</pdfrwt>
<pdfrwt beam="2">  1       21 0.65870590E-01 0.17463876E+03</pdfrwt>
<totfact> 0.11425597E+04</totfact>
</mgrwt>
</event>
<event>
 4    1  0.4199484E+000  0.1907863E+03  0.7546771E-02  0.1157754E+00
         21   -1    0    0  503  502  0.00000000000E+00  0.00000000000E+00  0.68058358843E+02  0.68058358843E+02  0.00000000000E+00 0. -1.
         21   -1    0    0  501  503 -0.00000000000E+00 -0.00000000000E+00 -0.73347921373E+03  0.73347921373E+03  0.00000000000E+00 0. -1.
          6    1    1    2  501    0 -0.37927751222E+02  0.70935849470E+02 -0.54127825242E+03  0.57391772546E+03  0.17300000000E+03 0. -1.
         -6    1    1    2    0  502  0.37927751222E+02 -0.70935849470E+02 -0.12414260247E+03  0.22761984711E+03  0.17300000000E+03 0. -1.
<mgrwt>
<rscale>  2 0.19078629E+03</rscale>
<asrwt>0</asrwt>
<pdfrwt beam="1">  1       21 0.10470516E-01 0.19078629E+03</pdfrwt>
<pdfrwt beam="2">  1       21 0.11284296E+00 0.19078629E+03</pdfrwt>
<totfact> 0.45969728E+04</totfact>
</mgrwt>
</event>
<event>
 4    1  0.4199484E+000  0.2585244E+03  0.7546771E-02  0.1108033E+00
         21   -1    0    0  501  502  0.00000000000E+00  0.00000000000E+00  0.15921581425E+03  0.15921581425E+03  0.00000000000E+00 0. -1.
         21   -1    0    0  502  503 -0.00000000000E+00 -0.00000000000E+00 -0.54132077947E+03  0.54132077947E+03  0.00000000000E+00 0. -1.
          6    1    1    2  501    0  0.55726770356E+02  0.18384884633E+03 -0.25077424097E+02  0.25973784559E+03  0.17300000000E+03 0. -1.
         -6    1    1    2    0  503 -0.55726770356E+02 -0.18384884633E+03 -0.35702754113E+03  0.44079874813E+03  0.17300000000E+03 0. -1.
<mgrwt>
<rscale>  2 0.25852441E+03</rscale>
<asrwt>0</asrwt>
<pdfrwt beam="1">  1       21 0.24494741E-01 0.25852441E+03</pdfrwt>
<pdfrwt beam="2">  1       21 0.83280119E-01 0.25852441E+03</pdfrwt>
<totfact> 0.19069530E+04</totfact>
</mgrwt>
</event>
<event>
 4    1  0.4199484E+000  0.2621612E+03  0.7546771E-02  0.1105852E+00
         21   -1    0    0  503  502  0.00000000000E+00  0.00000000000E+00  0.16219340308E+03  0.16219340308E+03  0.00000000000E+00 0. -1.
         21   -1    0    0  501  503 -0.00000000000E+00 -0.00000000000E+00 -0.53956000075E+03  0.53956000075E+03  0.00000000000E+00 0. -1.
          6    1    1    2  501    0 -0.13751350664E+03  0.14103028277E+03 -0.35124516125E+03  0.43829404338E+03  0.17300000000E+03 0. -1.
         -6    1    1    2    0  502  0.13751350664E+03 -0.14103028277E+03 -0.26121436423E+02  0.26345936045E+03  0.17300000000E+03 0. -1.
<mgrwt>
<rscale>  2 0.26216122E+03</rscale>
<asrwt>0</asrwt>
<pdfrwt beam="1">  1       21 0.24952831E-01 0.26216122E+03</pdfrwt>
<pdfrwt beam="2">  1       21 0.83009231E-01 0.26216122E+03</pdfrwt>
<totfact> 0.18509099E+04</totfact>
</mgrwt>
</event>
<event>
 4    1  0.4199484E+000  0.1955466E+03  0.7546771E-02  0.1153552E+00
         21   -1    0    0  501  502  0.00000000000E+00  0.00000000000E+00  0.31406991330E+03  0.31406991330E+03  0.00000000000E+00 0.  1.
         21   -1    0    0  502  503 -0.00000000000E+00 -0.00000000000E+00 -0.13315870013E+03  0.13315870013E+03  0.00000000000E+00 0.  1.
          6    1    1    2  501    0  0.71902895117E+02 -0.56030906616E+02  0.15590475394E+03  0.25008954621E+03  0.17300000000E+03 0.  1.
         -6    1    1    2    0  503 -0.71902895117E+02  0.56030906616E+02  0.25006459227E+02  0.19713906722E+03  0.17300000000E+03 0.  1.
<mgrwt>
<rscale>  2 0.19554664E+03</rscale>
<asrwt>0</asrwt>
<pdfrwt beam="1">  1       21 0.48318448E-01 0.19554664E+03</pdfrwt>
<pdfrwt beam="2">  1       21 0.20485954E-01 0.19554664E+03</pdfrwt>
<totfact> 0.90191219E+04</totfact>
</mgrwt>
</event>
<event>
 4    1  0.4199484E+000  0.3109369E+03  0.7546771E-02  0.1079898E+00
         21   -1    0    0  503  502  0.00000000000E+00  0.00000000000E+00  0.16690667300E+03  0.16690667300E+03  0.00000000000E+00 0. -1.
         21   -1    0    0  501  503 -0.00000000000E+00 -0.00000000000E+00 -0.63619781284E+03  0.63619781284E+03  0.00000000000E+00 0. -1.
          6    1    1    2  501    0  0.24642457801E+03 -0.77638020883E+02 -0.35477810141E+03  0.47175124396E+03  0.17300000000E+03 0. -1.
         -6    1    1    2    0  502 -0.24642457801E+03  0.77638020883E+02 -0.11451303844E+03  0.33135324188E+03  0.17300000000E+03 0. -1.
<mgrwt>
<rscale>  2 0.31093687E+03</rscale>
<asrwt>0</asrwt>
<pdfrwt beam="1">  1       21 0.25677950E-01 0.31093687E+03</pdfrwt>
<pdfrwt beam="2">  1       21 0.97876587E-01 0.31093687E+03</pdfrwt>
<totfact> 0.11648245E+04</totfact>
</mgrwt>
</event>
<event>
 4    1  0.4199484E+000  0.2283244E+03  0.7546771E-02  0.1127825E+00
         21   -1    0    0  501  502  0.00000000000E+00  0.00000000000E+00  0.53059777471E+03  0.53059777471E+03  0.00000000000E+00 0. -1.
         21   -1    0    0  502  503 -0.00000000000E+00 -0.00000000000E+00 -0.22716253940E+03  0.22716253940E+03  0.00000000000E+00 0.  1.
          6    1    1    2  501    0  0.14724136101E+03 -0.22869385573E+02  0.43713377747E+03  0.49317133594E+03  0.17300000000E+03 0. -1.
         -6    1    1    2    0  503 -0.14724136101E+03  0.22869385573E+02 -0.13369854217E+03  0.26458897817E+03  0.17300000000E+03 0.  1.
<mgrwt>
<rscale>  2 0.22832439E+03</rscale>
<asrwt>0</asrwt>
<pdfrwt beam="1">  1       21 0.81630427E-01 0.22832439E+03</pdfrwt>
<pdfrwt beam="2">  1       21 0.34948083E-01 0.22832439E+03</pdfrwt>
<totfact> 0.10129379E+04</totfact>
</mgrwt>
</event>
<event>
 4    1  0.4199484E+000  0.1934884E+03  0.7546771E-02  0.1155352E+00
         21   -1    0    0  501  502  0.00000000000E+00  0.00000000000E+00  0.14074718878E+04  0.14074718878E+04  0.00000000000E+00 0. -1.
         21   -1    0    0  502  503 -0.00000000000E+00 -0.00000000000E+00 -0.27450896460E+02  0.27450896460E+02  0.00000000000E+00 0. -1.
          6    1    1    2  501    0 -0.85863524269E+02  0.11671354313E+02  0.81637860777E+03  0.83899451520E+03  0.17300000000E+03 0.  1.
         -6    1    1    2    0  503  0.85863524269E+02 -0.11671354313E+02  0.56364238362E+03  0.59592826911E+03  0.17300000000E+03 0.  1.
<mgrwt>
<rscale>  2 0.19348841E+03</rscale>
<asrwt>0</asrwt>
<pdfrwt beam="1">  1       21 0.21653408E+00 0.19348841E+03</pdfrwt>
<pdfrwt beam="2">  1       21 0.42232159E-02 0.19348841E+03</pdfrwt>
<totfact> 0.37775974E+04</totfact>
</mgrwt>
</event>
<event>
 4    1  0.4199484E+000  0.2005399E+03  0.7546771E-02  0.1149284E+00
         21   -1    0    0  503  502  0.00000000000E+00  0.00000000000E+00  0.10447358634E+04  0.10447358634E+04  0.00000000000E+00 0.  1.
         21   -1    0    0  501  503 -0.00000000000E+00 -0.00000000000E+00 -0.59346488888E+02  0.59346488888E+02  0.00000000000E+00 0.  1.
          6    1    1    2  501    0 -0.99421277176E+02  0.20066011681E+02  0.16546614037E+03  0.25999092059E+03  0.17300000000E+03 0.  1.
         -6    1    1    2    0  502  0.99421277176E+02 -0.20066011681E+02  0.81992323413E+03  0.84409143168E+03  0.17300000000E+03 0.  1.
<mgrwt>
<rscale>  2 0.20053986E+03</rscale>
<asrwt>0</asrwt>
<pdfrwt beam="1">  1       21 0.16072858E+00 0.20053986E+03</pdfrwt>
<pdfrwt beam="2">  1       21 0.91302298E-02 0.20053986E+03</pdfrwt>
<totfact> 0.23556539E+04</totfact>
</mgrwt>
</event>
<event>
 4    1  0.4199484E+000  0.1934056E+03  0.7546771E-02  0.1155425E+00
         21   -1    0    0  501  502  0.00000000000E+00  0.00000000000E+00  0.14523717944E+04  0.14523717944E+04  0.00000000000E+00 0.  1.
         21   -1    0    0  502  503 -0.00000000000E+00 -0.00000000000E+00 -0.32717583065E+02  0.32717583065E+02  0.00000000000E+00 0.  1.
          6    1    1    2  501    0 -0.58101620412E+02  0.64038614412E+02  0.10523733291E+04  0.10699978347E+04  0.17300000000E+03 0.  1.
         -6    1    1    2    0  503  0.58101620412E+02 -0.64038614412E+02  0.36728088222E+03  0.41509154276E+03  0.17300000000E+03 0.  1.
<mgrwt>
<rscale>  2 0.19340564E+03</rscale>
<asrwt>0</asrwt>
<pdfrwt beam="1">  1       21 0.22344176E+00 0.19340564E+03</pdfrwt>
<pdfrwt beam="2">  1       21 0.50334755E-02 0.19340564E+03</pdfrwt>
<totfact> 0.25474696E+04</totfact>
</mgrwt>
</event>
<event>
 4    1  0.4199484E+000  0.1739644E+03  0.7546771E-02  0.1173776E+00
         21   -1    0    0  503  502  0.00000000000E+00  0.00000000000E+00  0.83149214896E+03  0.83149214896E+03  0.00000000000E+00 0. -1.
         21   -1    0    0  501  503 -0.00000000000E+00 -0.00000000000E+00 -0.40095623531E+02  0.40095623531E+02  0.00000000000E+00 0. -1.
          6    1    1    2  501    0 -0.25848877427E+01 -0.18108431950E+02  0.26333470185E+03  0.31560855843E+03  0.17300000000E+03 0. -1.
         -6    1    1    2    0  502  0.25848877427E+01  0.18108431950E+02  0.52806182357E+03  0.55597921406E+03  0.17300000000E+03 0. -1.
<mgrwt>
<rscale>  2 0.17396436E+03</rscale>
<asrwt>0</asrwt>
<pdfrwt beam="1">  1       21 0.12792186E+00 0.17396436E+03</pdfrwt>
<pdfrwt beam="2">  1       21 0.61685581E-02 0.17396436E+03</pdfrwt>
<totfact> 0.85391834E+04</totfact>
</mgrwt>
</event>
<event>
 4    1  0.4199484E+000  0.2398672E+03  0.7546771E-02  0.1119881E+00
         21   -1    0    0  503  502  0.00000000000E+00  0.00000000000E+00  0.85176556348E+02  0.85176556348E+02  0.00000000000E+00 0.  1.
         21   -1    0    0  501  503 -0.00000000000E+00 -0.00000000000E+00 -0.70496289975E+03  0.70496289975E+03  0.00000000000E+00 0.  1.
          6    1    1    2  501    0 -0.11315081057E+03 -0.12167239381E+03 -0.39066696070E+03  0.45842878567E+03  0.17300000000E+03 0.  1.
         -6    1    1    2    0  502  0.11315081057E+03  0.12167239381E+03 -0.22911938270E+03  0.33171067043E+03  0.17300000000E+03 0.  1.
<mgrwt>
<rscale>  2 0.23986721E+03</rscale>
<asrwt>0</asrwt>
<pdfrwt beam="1">  1       21 0.13104085E-01 0.23986721E+03</pdfrwt>
<pdfrwt beam="2">  1       21 0.10845584E+00 0.23986721E+03</pdfrwt>
<totfact> 0.33026689E+04</totfact>
</mgrwt>
</event>
<event>
 4    1  0.4199484E+000  0.3405913E+03  0.7546771E-02  0.1066544E+00
         21   -1    0    0  503  502  0.00000000000E+00  0.00000000000E+00  0.12281024222E+04  0.12281024222E+04  0.00000000000E+00 0. -1.
         21   -1    0    0  501  503 -0.00000000000E+00 -0.00000000000E+00 -0.28971922361E+03  0.28971922361E+03  0.00000000000E+00 0.  1.
          6    1    1    2  501    0 -0.25450805879E+03  0.14594195536E+03 -0.15384222599E+03  0.37372427914E+03  0.17300000000E+03 0.  1.
         -6    1    1    2    0  502  0.25450805879E+03 -0.14594195536E+03  0.10922254246E+04  0.11440973667E+04  0.17300000000E+03 0. -1.
<mgrwt>
<rscale>  2 0.34059126E+03</rscale>
<asrwt>0</asrwt>
<pdfrwt beam="1">  1       21 0.18893883E+00 0.34059126E+03</pdfrwt>
<pdfrwt beam="2">  1       21 0.44572189E-01 0.34059126E+03</pdfrwt>
<totfact> 0.67473621E+02</totfact>
</mgrwt>
</event>
<event>
 4    1  0.4199484E+000  0.1902737E+03  0.7546771E-02  0.1158215E+00
         21   -1    0    0  503  502  0.00000000000E+00  0.00000000000E+00  0.64946642410E+03  0.64946642410E+03  0.00000000000E+00 0. -1.
         21   -1    0    0  501  503 -0.00000000000E+00 -0.00000000000E+00 -0.58042954037E+02  0.58042954037E+02  0.00000000000E+00 0. -1.
          6    1    1    2  501    0  0.58159766058E+01 -0.79001593573E+02  0.22531371435E+03  0.29490735367E+03  0.17300000000E+03 0.  1.
         -6    1    1    2    0  502 -0.58159766058E+01  0.79001593573E+02  0.36610975570E+03  0.41260202447E+03  0.17300000000E+03 0.  1.
<mgrwt>
<rscale>  2 0.19027369E+03</rscale>
<asrwt>0</asrwt>
<pdfrwt beam="1">  1       21 0.99917906E-01 0.19027369E+03</pdfrwt>
<pdfrwt beam="2">  1       21 0.89296857E-02 0.19027369E+03</pdfrwt>
<totfact> 0.81550043E+04</totfact>
</mgrwt>
</event>
<event>
 4    1  0.4199484E+000  0.1743744E+03  0.7546771E-02  0.1173361E+00
         21   -1    0    0  501  502  0.00000000000E+00  0.00000000000E+00  0.14958713588E+03  0.14958713588E+03  0.00000000000E+00 0.  1.
         21   -1    0    0  502  503 -0.00000000000E+00 -0.00000000000E+00 -0.34096538888E+03  0.34096538888E+03  0.00000000000E+00 0.  1.
          6    1    1    2  501    0  0.10552810213E+02 -0.19132714701E+02  0.60180573335E+02  0.18446713524E+03  0.17300000000E+03 0.  1.
         -6    1    1    2    0  503 -0.10552810213E+02  0.19132714701E+02 -0.25155882633E+03  0.30608538952E+03  0.17300000000E+03 0.  1.
<mgrwt>
<rscale>  2 0.17437437E+03</rscale>
<asrwt>0</asrwt>
<pdfrwt beam="1">  1       21 0.23013405E-01 0.17437437E+03</pdfrwt>
<pdfrwt beam="2">  1       21 0.52456214E-01 0.17437437E+03</pdfrwt>
<totfact> 0.61608264E+04</totfact>
</mgrwt>
</event>
<event>
 4    1  0.4199484E+000  0.2308752E+03  0.7546771E-02  0.1126025E+00
         21   -1    0    0  503  502  0.00000000000E+00  0.00000000000E+00  0.44567435691E+03  0.44567435691E+03  0.00000000000E+00 0.  1.
         21   -1    0    0  501  503 -0.00000000000E+00 -0.00000000000E+00 -0.11991093785E+03  0.11991093785E+03  0.00000000000E+00 0.  1.
          6    1    1    2  501    0 -0.15112045289E+03  0.23172371972E+02  0.14851753931E+03  0.27451923355E+03  0.17300000000E+03 0.  1.
         -6    1    1    2    0  502  0.15112045289E+03 -0.23172371972E+02  0.17724587975E+03  0.29106606121E+03  0.17300000000E+03 0.  1.
<mgrwt>
<rscale>  2 0.23087518E+03</rscale>
<asrwt>0</asrwt>
<pdfrwt beam="1">  1       21 0.68565285E-01 0.23087518E+03</pdfrwt>
<pdfrwt beam="2">  1       21 0.18447837E-01 0.23087518E+03</pdfrwt>
<totfact> 0.51106140E+04</totfact>
</mgrwt>
</event>
<event>
 4    1  0.4199484E+000  0.1772444E+03  0.7546771E-02  0.1170497E+00
         21   -1    0    0  501  502  0.00000000000E+00  0.00000000000E+00  0.10079116914E+03  0.10079116914E+03  0.00000000000E+00 0.  1.
         21   -1    0    0  502  503 -0.00000000000E+00 -0.00000000000E+00 -0.37344376541E+03  0.37344376541E+03  0.00000000000E+00 0.  1.
          6    1    1    2  501    0 -0.31257463397E+02 -0.22573400041E+02 -0.39902755222E+02  0.18168053633E+03  0.17300000000E+03 0.  1.
         -6    1    1    2    0  503  0.31257463397E+02  0.22573400041E+02 -0.23274984105E+03  0.29255439822E+03  0.17300000000E+03 0.  1.
<mgrwt>
<rscale>  2 0.17724443E+03</rscale>
<asrwt>0</asrwt>
<pdfrwt beam="1">  1       21 0.15506334E-01 0.17724443E+03</pdfrwt>
<pdfrwt beam="2">  1       21 0.57452887E-01 0.17724443E+03</pdfrwt>
<totfact> 0.10559421E+05</totfact>
</mgrwt>
</event>
<event>
 4    1  0.4199484E+000  0.1977203E+03  0.7546771E-02  0.1151677E+00
         21   -1    0    0  501  502  0.00000000000E+00  0.00000000000E+00  0.11806904313E+04  0.11806904313E+04  0.00000000000E+00 0. -1.
         21   -1    0    0  502  503 -0.00000000000E+00 -0.00000000000E+00 -0.99454204237E+02  0.99454204237E+02  0.00000000000E+00 0.  1.
          6    1    1    2  501    0  0.80914183636E+02  0.51158566628E+02  0.10633959671E+04  0.10816211384E+04  0.17300000000E+03 0. -1.
         -6    1    1    2    0  503 -0.80914183636E+02 -0.51158566628E+02  0.17840259929E+02  0.19852349717E+03  0.17300000000E+03 0.  1.
<mgrwt>
<rscale>  2 0.19772027E+03</rscale>
<asrwt>0</asrwt>
<pdfrwt beam="1">  1       21 0.18164467E+00 0.19772027E+03</pdfrwt>
<pdfrwt beam="2">  1       21 0.15300648E-01 0.19772027E+03</pdfrwt>
<totfact> 0.66807514E+03</totfact>
</mgrwt>
</event>
<event>
 4    1  0.4199484E+000  0.2120784E+03  0.7546771E-02  0.1139931E+00
         21   -1    0    0  501  502  0.00000000000E+00  0.00000000000E+00  0.31491839368E+03  0.31491839368E+03  0.00000000000E+00 0. -1.
         21   -1    0    0  502  503 -0.00000000000E+00 -0.00000000000E+00 -0.16498959494E+03  0.16498959494E+03  0.00000000000E+00 0.  1.
          6    1    1    2  501    0 -0.21735043545E+02  0.12073043946E+03  0.16291923695E+03  0.26743210148E+03  0.17300000000E+03 0. -1.
         -6    1    1    2    0  503  0.21735043545E+02 -0.12073043946E+03 -0.12990438219E+02  0.21247588714E+03  0.17300000000E+03 0.  1.
<mgrwt>
<rscale>  2 0.21207841E+03</rscale>
<asrwt>0</asrwt>
<pdfrwt beam="1">  1       21 0.48448983E-01 0.21207841E+03</pdfrwt>
<pdfrwt beam="2">  1       21 0.25383015E-01 0.21207841E+03</pdfrwt>
<totfact> 0.59326987E+04</totfact>
</mgrwt>
</event>
<event>
 4    1  0.4199484E+000  0.2172987E+03  0.7546771E-02  0.1135913E+00
         21   -1    0    0  503  502  0.00000000000E+00  0.00000000000E+00  0.88392312057E+02  0.88392312057E+02  0.00000000000E+00 0.  1.
         21   -1    0    0  501  503 -0.00000000000E+00 -0.00000000000E+00 -0.77778417251E+03  0.77778417251E+03  0.00000000000E+00 0.  1.
          6    1    1    2  501    0 -0.11882501207E+03 -0.56305593774E+02 -0.58706439547E+03  0.62598986239E+03  0.17300000000E+03 0.  1.
         -6    1    1    2    0  502  0.11882501207E+03  0.56305593774E+02 -0.10232746498E+03  0.24018662217E+03  0.17300000000E+03 0.  1.
<mgrwt>
<rscale>  2 0.21729865E+03</rscale>
<asrwt>0</asrwt>
<pdfrwt beam="1">  1       21 0.13598817E-01 0.21729865E+03</pdfrwt>
<pdfrwt beam="2">  1       21 0.11965910E+00 0.21729865E+03</pdfrwt>
<totfact> 0.24559892E+04</totfact>
</mgrwt>
</event>
<event>
 4    1  0.4199484E+000  0.2158158E+03  0.7546771E-02  0.1137042E+00
         21   -1    0    0  503  502  0.00000000000E+00  0.00000000000E+00  0.60094069523E+03  0.60094069523E+03  0.00000000000E+00 0.  1.
         21   -1    0    0  501  503 -0.00000000000E+00 -0.00000000000E+00 -0.14625190817E+03  0.14625190817E+03  0.00000000000E+00 0.  1.
          6    1    1    2  501    0  0.11007828752E+03  0.67306921991E+02 -0.28794501468E+02  0.21772821233E+03  0.17300000000E+03 0.  1.
         -6    1    1    2    0  502 -0.11007828752E+03 -0.67306921991E+02  0.48348328852E+03  0.52946439107E+03  0.17300000000E+03 0.  1.
<mgrwt>
<rscale>  2 0.21581578E+03</rscale>
<asrwt>0</asrwt>
<pdfrwt beam="1">  1       21 0.92452413E-01 0.21581578E+03</pdfrwt>
<pdfrwt beam="2">  1       21 0.22500294E-01 0.21581578E+03</pdfrwt>
<totfact> 0.18003144E+04</totfact>
</mgrwt>
</event>
<event>
 4    1  0.4199484E+000  0.1935100E+03  0.7546771E-02  0.1155333E+00
         21   -1    0    0  501  502  0.00000000000E+00  0.00000000000E+00  0.81164584367E+02  0.81164584367E+02  0.00000000000E+00 0.  1.
         21   -1    0    0  502  503 -0.00000000000E+00 -0.00000000000E+00 -0.47880788009E+03  0.47880788009E+03  0.00000000000E+00 0. -1.
          6    1    1    2  501    0 -0.11912323941E+02  0.85879007124E+02 -0.14537442868E+03  0.24203270820E+03  0.17300000000E+03 0.  1.
         -6    1    1    2    0  503  0.11912323941E+02 -0.85879007124E+02 -0.25226886704E+03  0.31793975625E+03  0.17300000000E+03 0.  1.
<mgrwt>
<rscale>  2 0.19350997E+03</rscale>
<asrwt>0</asrwt>
<pdfrwt beam="1">  1       21 0.12486859E-01 0.19350997E+03</pdfrwt>
<pdfrwt beam="2">  1       21 0.73662751E-01 0.19350997E+03</pdfrwt>
<totfact> 0.90411330E+04</totfact>
</mgrwt>
</event>
<event>
 4    1  0.4199484E+000  0.1921814E+03  0.7546771E-02  0.1156508E+00
         21   -1    0    0  503  502  0.00000000000E+00  0.00000000000E+00  0.21784286872E+03  0.21784286872E+03  0.00000000000E+00 0.  1.
         21   -1    0    0  501  503 -0.00000000000E+00 -0.00000000000E+00 -0.23987485352E+03  0.23987485352E+03  0.00000000000E+00 0.  1.
          6    1    1    2  501    0  0.52544003044E+02  0.65144620607E+02 -0.13493900550E+03  0.23482382557E+03  0.17300000000E+03 0.  1.
         -6    1    1    2    0  502 -0.52544003044E+02 -0.65144620607E+02  0.11290702071E+03  0.22289389667E+03  0.17300000000E+03 0.  1.
<mgrwt>
<rscale>  2 0.19218141E+03</rscale>
<asrwt>0</asrwt>
<pdfrwt beam="1">  1       21 0.33514287E-01 0.19218141E+03</pdfrwt>
<pdfrwt beam="2">  1       21 0.36903824E-01 0.19218141E+03</pdfrwt>
<totfact> 0.60740815E+04</totfact>
</mgrwt>
</event>
<event>
 4    1  0.4199484E+000  0.3630793E+03  0.7546771E-02  0.1057371E+00
         21   -1    0    0  503  502  0.00000000000E+00  0.00000000000E+00  0.14860962199E+03  0.14860962199E+03  0.00000000000E+00 0. -1.
         21   -1    0    0  501  503 -0.00000000000E+00 -0.00000000000E+00 -0.89883631697E+03  0.89883631697E+03  0.00000000000E+00 0.  1.
          6    1    1    2  501    0  0.14387515680E+03 -0.28495183554E+03 -0.31518295051E+03  0.48079819219E+03  0.17300000000E+03 0.  1.
         -6    1    1    2    0  502 -0.14387515680E+03  0.28495183554E+03 -0.43504374447E+03  0.56664774677E+03  0.17300000000E+03 0. -1.
<mgrwt>
<rscale>  2 0.36307934E+03</rscale>
<asrwt>0</asrwt>
<pdfrwt beam="1">  1       21 0.22863019E-01 0.36307934E+03</pdfrwt>
<pdfrwt beam="2">  1       21 0.13828251E+00 0.36307934E+03</pdfrwt>
<totfact> 0.60024942E+03</totfact>
</mgrwt>
</event>
<event>
 4    1  0.4199484E+000  0.2385966E+03  0.7546771E-02  0.1120731E+00
         21   -1    0    0  501  502  0.00000000000E+00  0.00000000000E+00  0.20558309056E+04  0.20558309056E+04  0.00000000000E+00 0.  1.
         21   -1    0    0  502  503 -0.00000000000E+00 -0.00000000000E+00 -0.39409754989E+02  0.39409754989E+02  0.00000000000E+00 0.  1.
          6    1    1    2  501    0  0.15403630118E+03  0.57202947316E+02  0.15794782788E+04  0.15973978817E+04  0.17300000000E+03 0. -1.
         -6    1    1    2    0  503 -0.15403630118E+03 -0.57202947316E+02  0.43694287182E+03  0.49784277889E+03  0.17300000000E+03 0. -1.
<mgrwt>
<rscale>  2 0.23859665E+03</rscale>
<asrwt>0</asrwt>
<pdfrwt beam="1">  1       21 0.31628159E+00 0.23859665E+03</pdfrwt>
<pdfrwt beam="2">  1       21 0.60630408E-02 0.23859665E+03</pdfrwt>
<totfact> 0.50674393E+03</totfact>
</mgrwt>
</event>
<event>
 4    1  0.4199484E+000  0.2070774E+03  0.7546771E-02  0.1143902E+00
         21   -1    0    0  503  502  0.00000000000E+00  0.00000000000E+00  0.36857841957E+03  0.36857841957E+03  0.00000000000E+00 0. -1.
         21   -1    0    0  501  503 -0.00000000000E+00 -0.00000000000E+00 -0.15519469814E+03  0.15519469814E+03  0.00000000000E+00 0. -1.
          6    1    1    2  501    0 -0.76446646066E+02  0.84308634582E+02 -0.24343076078E+02  0.20850328753E+03  0.17300000000E+03 0. -1.
         -6    1    1    2    0  502  0.76446646066E+02 -0.84308634582E+02  0.23772679751E+03  0.31526983017E+03  0.17300000000E+03 0. -1.
<mgrwt>
<rscale>  2 0.20707737E+03</rscale>
<asrwt>0</asrwt>
<pdfrwt beam="1">  1       21 0.56704372E-01 0.20707737E+03</pdfrwt>
<pdfrwt beam="2">  1       21 0.23876108E-01 0.20707737E+03</pdfrwt>
<totfact> 0.47996934E+04</totfact>
</mgrwt>
</event>
<event>
 4    1  0.4199484E+000  0.2486260E+03  0.7546771E-02  0.1114176E+00
         21   -1    0    0  503  502  0.00000000000E+00  0.00000000000E+00  0.63806180990E+02  0.63806180990E+02  0.00000000000E+00 0.  1.
         21   -1    0    0  501  503 -0.00000000000E+00 -0.00000000000E+00 -0.98552996424E+03  0.98552996424E+03  0.00000000000E+00 0. -1.
          6    1    1    2  501    0 -0.15756399726E+03 -0.84020689941E+02 -0.52923837432E+03  0.58472912226E+03  0.17300000000E+03 0. -1.
         -6    1    1    2    0  502  0.15756399726E+03  0.84020689941E+02 -0.39248540894E+03  0.46460702297E+03  0.17300000000E+03 0.  1.
<mgrwt>
<rscale>  2 0.24862600E+03</rscale>
<asrwt>0</asrwt>
<pdfrwt beam="1">  1       21 0.98163351E-02 0.24862600E+03</pdfrwt>
<pdfrwt beam="2">  1       21 0.15162000E+00 0.24862600E+03</pdfrwt>
<totfact> 0.23559391E+04</totfact>
</mgrwt>
</event>
<event>
 4    1  0.4199484E+000  0.2819688E+03  0.7546771E-02  0.1094618E+00
         21   -1    0    0  503  502  0.00000000000E+00  0.00000000000E+00  0.83297550620E+03  0.83297550620E+03  0.00000000000E+00 0. -1.
         21   -1    0    0  501  503 -0.00000000000E+00 -0.00000000000E+00 -0.95826009761E+02  0.95826009761E+02  0.00000000000E+00 0.  1.
          6    1    1    2  501    0 -0.21076438957E+03  0.71803755998E+02  0.33943301517E+03  0.44127222785E+03  0.17300000000E+03 0. -1.
         -6    1    1    2    0  502  0.21076438957E+03 -0.71803755998E+02  0.39771648127E+03  0.48752928810E+03  0.17300000000E+03 0.  1.
<mgrwt>
<rscale>  2 0.28196881E+03</rscale>
<asrwt>0</asrwt>
<pdfrwt beam="1">  1       21 0.12815007E+00 0.28196881E+03</pdfrwt>
<pdfrwt beam="2">  1       21 0.14742464E-01 0.28196881E+03</pdfrwt>
<totfact> 0.17250568E+04</totfact>
</mgrwt>
</event>
<event>
 4    1  0.4199484E+000  0.3153057E+03  0.7546771E-02  0.1077830E+00
         21   -1    0    0  503  502  0.00000000000E+00  0.00000000000E+00  0.17883444364E+04  0.17883444364E+04  0.00000000000E+00 0.  1.
         21   -1    0    0  501  503 -0.00000000000E+00 -0.00000000000E+00 -0.55630078973E+02  0.55630078973E+02  0.00000000000E+00 0. -1.
          6    1    1    2  501    0  0.20511546702E+03  0.16557873764E+03  0.84224039595E+03  0.89932561274E+03  0.17300000000E+03 0.  1.
         -6    1    1    2    0  502 -0.20511546702E+03 -0.16557873764E+03  0.89047396148E+03  0.94464890263E+03  0.17300000000E+03 0. -1.
<mgrwt>
<rscale>  2 0.31530568E+03</rscale>
<asrwt>0</asrwt>
<pdfrwt beam="1">  1       21 0.27512987E+00 0.31530568E+03</pdfrwt>
<pdfrwt beam="2">  1       21 0.85584751E-02 0.31530568E+03</pdfrwt>
<totfact> 0.45589150E+03</totfact>
</mgrwt>
</event>
<event>
 4    1  0.4199484E+000  0.1924418E+03  0.7546771E-02  0.1156277E+00
         21   -1    0    0  501  502  0.00000000000E+00  0.00000000000E+00  0.14447694701E+03  0.14447694701E+03  0.00000000000E+00 0.  1.
         21   -1    0    0  502  503 -0.00000000000E+00 -0.00000000000E+00 -0.26711619287E+03  0.26711619287E+03  0.00000000000E+00 0. -1.
          6    1    1    2  501    0 -0.36280185565E+02 -0.76082785823E+02 -0.19966065941E+02  0.19347476826E+03  0.17300000000E+03 0.  1.
         -6    1    1    2    0  503  0.36280185565E+02  0.76082785823E+02 -0.10267317993E+03  0.21811837162E+03  0.17300000000E+03 0. -1.
<mgrwt>
<rscale>  2 0.19244179E+03</rscale>
<asrwt>0</asrwt>
<pdfrwt beam="1">  1       21 0.22227223E-01 0.19244179E+03</pdfrwt>
<pdfrwt beam="2">  1       21 0.41094799E-01 0.19244179E+03</pdfrwt>
<totfact> 0.10798999E+05</totfact>
</mgrwt>
</event>
<event>
 4    1  0.4199484E+000  0.2001657E+03  0.7546771E-02  0.1149599E+00
         21   -1    0    0  503  502  0.00000000000E+00  0.00000000000E+00  0.35100278109E+03  0.35100278109E+03  0.00000000000E+00 0.  1.
         21   -1    0    0  501  503 -0.00000000000E+00 -0.00000000000E+00 -0.13351014801E+03  0.13351014801E+03  0.00000000000E+00 0. -1.
          6    1    1    2  501    0 -0.91819475019E+02 -0.41309904064E+02  0.16490633581E+02  0.20084388256E+03  0.17300000000E+03 0. -1.
         -6    1    1    2    0  502  0.91819475019E+02  0.41309904064E+02  0.20100199950E+03  0.28366904654E+03  0.17300000000E+03 0.  1.
<mgrwt>
<rscale>  2 0.20016574E+03</rscale>
<asrwt>0</asrwt>
<pdfrwt beam="1">  1       21 0.54000428E-01 0.20016574E+03</pdfrwt>
<pdfrwt beam="2">  1       21 0.20540023E-01 0.20016574E+03</pdfrwt>
<totfact> 0.70967787E+04</totfact>
</mgrwt>
</event>
<event>
 4    1  0.4199484E+000  0.2715956E+03  0.7546771E-02  0.1100370E+00
         21   -1    0    0  503  502  0.00000000000E+00  0.00000000000E+00  0.14093246741E+04  0.14093246741E+04  0.00000000000E+00 0. -1.
         21   -1    0    0  501  503 -0.00000000000E+00 -0.00000000000E+00 -0.81014237140E+02  0.81014237140E+02  0.00000000000E+00 0.  1.
          6    1    1    2  501    0 -0.98822480171E+02  0.18457873176E+03  0.22083292670E+03  0.35004481473E+03  0.17300000000E+03 0.  1.
         -6    1    1    2    0  502  0.98822480171E+02 -0.18457873176E+03  0.11074775102E+04  0.11402940965E+04  0.17300000000E+03 0. -1.
<mgrwt>
<rscale>  2 0.27159564E+03</rscale>
<asrwt>0</asrwt>
<pdfrwt beam="1">  1       21 0.21681916E+00 0.27159564E+03</pdfrwt>
<pdfrwt beam="2">  1       21 0.12463730E-01 0.27159564E+03</pdfrwt>
<totfact> 0.54118831E+03</totfact>
</mgrwt>
</event>
<event>
 4    1  0.4199484E+000  0.2063298E+03  0.7546771E-02  0.1144506E+00
         21   -1    0    0  501  502  0.00000000000E+00  0.00000000000E+00  0.17365244889E+04  0.17365244889E+04  0.00000000000E+00 0. -1.
         21   -1    0    0  502  503 -0.00000000000E+00 -0.00000000000E+00 -0.29360454397E+02  0.29360454397E+02  0.00000000000E+00 0.  1.
          6    1    1    2  501    0 -0.70989658167E+02  0.87197870098E+02  0.12122477028E+04  0.12296814600E+04  0.17300000000E+03 0. -1.
         -6    1    1    2    0  503  0.70989658167E+02 -0.87197870098E+02  0.49491633169E+03  0.53620348328E+03  0.17300000000E+03 0.  1.
<mgrwt>
<rscale>  2 0.20632983E+03</rscale>
<asrwt>0</asrwt>
<pdfrwt beam="1">  1       21 0.26715753E+00 0.20632983E+03</pdfrwt>
<pdfrwt beam="2">  1       21 0.45169943E-02 0.20632983E+03</pdfrwt>
<totfact> 0.16654792E+04</totfact>
</mgrwt>
</event>
<event>
 4    1  0.4199484E+000  0.2017794E+03  0.7546771E-02  0.1148246E+00
         21   -1    0    0  503  502  0.00000000000E+00  0.00000000000E+00  0.40838332648E+02  0.40838332648E+02  0.00000000000E+00 0.  1.
         21   -1    0    0  501  503 -0.00000000000E+00 -0.00000000000E+00 -0.12203864326E+04  0.12203864326E+04  0.00000000000E+00 0.  1.
          6    1    1    2  501    0 -0.68972682707E+01 -0.10362606052E+03 -0.85958729665E+03  0.88295257703E+03  0.17300000000E+03 0.  1.
         -6    1    1    2    0  502  0.68972682707E+01  0.10362606052E+03 -0.31996080331E+03  0.37827218823E+03  0.17300000000E+03 0.  1.
<mgrwt>
<rscale>  2 0.20177942E+03</rscale>
<asrwt>0</asrwt>
<pdfrwt beam="1">  1       21 0.62828205E-02 0.20177942E+03</pdfrwt>
<pdfrwt beam="2">  1       21 0.18775176E+00 0.20177942E+03</pdfrwt>
<totfact> 0.29223449E+04</totfact>
</mgrwt>
</event>
<event>
 4    1  0.4199484E+000  0.1978549E+03  0.7546771E-02  0.1151562E+00
         21   -1    0    0  501  502  0.00000000000E+00  0.00000000000E+00  0.18107428750E+03  0.18107428750E+03  0.00000000000E+00 0.  1.
         21   -1    0    0  502  503 -0.00000000000E+00 -0.00000000000E+00 -0.22498820102E+03  0.22498820102E+03  0.00000000000E+00 0. -1.
          6    1    1    2  501    0  0.11570631564E+02  0.95308303004E+02  0.18191240767E+02  0.19868938919E+03  0.17300000000E+03 0.  1.
         -6    1    1    2    0  503 -0.11570631564E+02 -0.95308303004E+02 -0.62105154281E+02  0.20737309933E+03  0.17300000000E+03 0. -1.
<mgrwt>
<rscale>  2 0.19785488E+03</rscale>
<asrwt>0</asrwt>
<pdfrwt beam="1">  1       21 0.27857583E-01 0.19785488E+03</pdfrwt>
<pdfrwt beam="2">  1       21 0.34613569E-01 0.19785488E+03</pdfrwt>
<totfact> 0.98776555E+04</totfact>
</mgrwt>
</event>
<event>
 4    1  0.4199484E+000  0.2084546E+03  0.7546771E-02  0.1142796E+00
         21   -1    0    0  503  502  0.00000000000E+00  0.00000000000E+00  0.28135466686E+02  0.28135466686E+02  0.00000000000E+00 0.  1.
         21   -1    0    0  501  503 -0.00000000000E+00 -0.00000000000E+00 -0.15525369707E+04  0.15525369707E+04  0.00000000000E+00 0.  1.
          6    1    1    2  501    0 -0.11507891330E+03  0.16767393478E+02 -0.81930643269E+03  0.84540897347E+03  0.17300000000E+03 0.  1.
         -6    1    1    2    0  502  0.11507891330E+03 -0.16767393478E+02 -0.70509507136E+03  0.73526346396E+03  0.17300000000E+03 0.  1.
<mgrwt>
<rscale>  2 0.20845456E+03</rscale>
<asrwt>0</asrwt>
<pdfrwt beam="1">  1       21 0.43285325E-02 0.20845456E+03</pdfrwt>
<pdfrwt beam="2">  1       21 0.23885189E+00 0.20845456E+03</pdfrwt>
<totfact> 0.26228072E+04</totfact>
</mgrwt>
</event>
<event>
 4    1  0.4199484E+000  0.2550645E+03  0.7546771E-02  0.1110145E+00
         21   -1    0    0  503  502  0.00000000000E+00  0.00000000000E+00  0.10182893927E+03  0.10182893927E+03  0.00000000000E+00 0.  1.
         21   -1    0    0  501  503 -0.00000000000E+00 -0.00000000000E+00 -0.10052531744E+04  0.10052531744E+04  0.00000000000E+00 0. -1.
          6    1    1    2  501    0 -0.14324411327E+03  0.12087202811E+03 -0.78588061297E+03  0.82623620171E+03  0.17300000000E+03 0. -1.
         -6    1    1    2    0  502  0.14324411327E+03 -0.12087202811E+03 -0.11754362219E+03  0.28084591200E+03  0.17300000000E+03 0.  1.
<mgrwt>
<rscale>  2 0.25506455E+03</rscale>
<asrwt>0</asrwt>
<pdfrwt beam="1">  1       21 0.15665991E-01 0.25506455E+03</pdfrwt>
<pdfrwt beam="2">  1       21 0.15465434E+00 0.25506455E+03</pdfrwt>
<totfact> 0.95727504E+03</totfact>
</mgrwt>
</event>
<event>
 4    1  0.4199484E+000  0.1771322E+03  0.7546771E-02  0.1170608E+00
         21   -1    0    0  503  502  0.00000000000E+00  0.00000000000E+00  0.38436391930E+03  0.38436391930E+03  0.00000000000E+00 0. -1.
         21   -1    0    0  501  503 -0.00000000000E+00 -0.00000000000E+00 -0.14933026727E+03  0.14933026727E+03  0.00000000000E+00 0. -1.
          6    1    1    2  501    0 -0.28776345708E+02  0.24874483599E+02 -0.62155897394E+02  0.18772099932E+03  0.17300000000E+03 0. -1.
         -6    1    1    2    0  502  0.28776345708E+02 -0.24874483599E+02  0.29718954942E+03  0.34597318725E+03  0.17300000000E+03 0. -1.
<mgrwt>
<rscale>  2 0.17713220E+03</rscale>
<asrwt>0</asrwt>
<pdfrwt beam="1">  1       21 0.59132910E-01 0.17713220E+03</pdfrwt>
<pdfrwt beam="2">  1       21 0.22973887E-01 0.17713220E+03</pdfrwt>
<totfact> 0.47907830E+04</totfact>
</mgrwt>
</event>
<event>
 4    1  0.4199484E+000  0.1774301E+03  0.7546771E-02  0.1170314E+00
         21   -1    0    0  501  502  0.00000000000E+00  0.00000000000E+00  0.31667426285E+03  0.31667426285E+03  0.00000000000E+00 0.  1.
         21   -1    0    0  502  503 -0.00000000000E+00 -0.00000000000E+00 -0.57946948938E+03  0.57946948938E+03  0.00000000000E+00 0.  1.
          6    1    1    2  501    0  0.47871191981E+01  0.39109236427E+02  0.27643194504E+03  0.32847537065E+03  0.17300000000E+03 0.  1.
         -6    1    1    2    0  503 -0.47871191981E+01 -0.39109236427E+02 -0.53922717157E+03  0.56766838158E+03  0.17300000000E+03 0.  1.
<mgrwt>
<rscale>  2 0.17743012E+03</rscale>
<asrwt>0</asrwt>
<pdfrwt beam="1">  1       21 0.48719117E-01 0.17743012E+03</pdfrwt>
<pdfrwt beam="2">  1       21 0.89149152E-01 0.17743012E+03</pdfrwt>
<totfact> 0.43736035E+03</totfact>
</mgrwt>
</event>
<event>
 4    1  0.4199484E+000  0.1983767E+03  0.7546771E-02  0.1151116E+00
         21   -1    0    0  503  502  0.00000000000E+00  0.00000000000E+00  0.14178732419E+04  0.14178732419E+04  0.00000000000E+00 0.  1.
         21   -1    0    0  501  503 -0.00000000000E+00 -0.00000000000E+00 -0.44363328237E+02  0.44363328237E+02  0.00000000000E+00 0.  1.
          6    1    1    2  501    0 -0.59696856812E+02 -0.76554488407E+02  0.23941632988E+03  0.31092359740E+03  0.17300000000E+03 0.  1.
         -6    1    1    2    0  502  0.59696856812E+02  0.76554488407E+02  0.11340935838E+04  0.11513129727E+04  0.17300000000E+03 0.  1.
<mgrwt>
<rscale>  2 0.19837667E+03</rscale>
<asrwt>0</asrwt>
<pdfrwt beam="1">  1       21 0.21813431E+00 0.19837667E+03</pdfrwt>
<pdfrwt beam="2">  1       21 0.68251285E-02 0.19837667E+03</pdfrwt>
<totfact> 0.16244984E+04</totfact>
</mgrwt>
</event>
<event>
 4    1  0.4199484E+000  0.3597748E+03  0.7546771E-02  0.1058673E+00
         21   -1    0    0  501  502  0.00000000000E+00  0.00000000000E+00  0.14812272661E+04  0.14812272661E+04  0.00000000000E+00 0.  1.
         21   -1    0    0  502  503 -0.00000000000E+00 -0.00000000000E+00 -0.92774821630E+02  0.92774821630E+02  0.00000000000E+00 0.  1.
          6    1    1    2  501    0  0.89039790366E+02  0.30262320606E+03  0.88390750189E+03  0.95432193783E+03  0.17300000000E+03 0.  1.
         -6    1    1    2    0  503 -0.89039790366E+02 -0.30262320606E+03  0.50454494261E+03  0.61968014994E+03  0.17300000000E+03 0.  1.
<mgrwt>
<rscale>  2 0.35977478E+03</rscale>
<asrwt>0</asrwt>
<pdfrwt beam="1">  1       21 0.22788110E+00 0.35977478E+03</pdfrwt>
<pdfrwt beam="2">  1       21 0.14273051E-01 0.35977478E+03</pdfrwt>
<totfact> 0.34160097E+03</totfact>
</mgrwt>
</event>
<event>
 4    1  0.4199484E+000  0.2639367E+03  0.7546771E-02  0.1104801E+00
         21   -1    0    0  501  502  0.00000000000E+00  0.00000000000E+00  0.37040673135E+02  0.37040673135E+02  0.00000000000E+00 0.  1.
         21   -1    0    0  502  503 -0.00000000000E+00 -0.00000000000E+00 -0.20891383412E+04  0.20891383412E+04  0.00000000000E+00 0.  1.
          6    1    1    2  501    0 -0.84382058415E+02  0.18059143805E+03 -0.69025767203E+03  0.73899814146E+03  0.17300000000E+03 0.  1.
         -6    1    1    2    0  503  0.84382058415E+02 -0.18059143805E+03 -0.13618399960E+04  0.13871808728E+04  0.17300000000E+03 0.  1.
<mgrwt>
<rscale>  2 0.26393673E+03</rscale>
<asrwt>0</asrwt>
<pdfrwt beam="1">  1       21 0.56985647E-02 0.26393673E+03</pdfrwt>
<pdfrwt beam="2">  1       21 0.32140592E+00 0.26393673E+03</pdfrwt>
<totfact> 0.51401619E+03</totfact>
</mgrwt>
</event>
<event>
 4    1  0.4199484E+000  0.1861667E+03  0.7546771E-02  0.1161965E+00
         21   -1    0    0  501  502  0.00000000000E+00  0.00000000000E+00  0.87284365242E+03  0.87284365242E+03  0.00000000000E+00 0. -1.
         21   -1    0    0  502  503 -0.00000000000E+00 -0.00000000000E+00 -0.41013776780E+02  0.41013776780E+02  0.00000000000E+00 0. -1.
          6    1    1    2  501    0 -0.38491433009E+02 -0.56986391395E+02  0.49747496478E+03  0.53116793936E+03  0.17300000000E+03 0. -1.
         -6    1    1    2    0  503  0.38491433009E+02  0.56986391395E+02  0.33435491086E+03  0.38268948984E+03  0.17300000000E+03 0. -1.
<mgrwt>
<rscale>  2 0.18616670E+03</rscale>
<asrwt>0</asrwt>
<pdfrwt beam="1">  1       21 0.13428363E+00 0.18616670E+03</pdfrwt>
<pdfrwt beam="2">  1       21 0.63098124E-02 0.18616670E+03</pdfrwt>
<totfact> 0.72250377E+04</totfact>
</mgrwt>
</event>
<event>
 4    1  0.4199484E+000  0.1765060E+03  0.7546771E-02  0.1171228E+00
         21   -1    0    0  501  502  0.00000000000E+00  0.00000000000E+00  0.25318111013E+03  0.25318111013E+03  0.00000000000E+00 0.  1.
         21   -1    0    0  502  503 -0.00000000000E+00 -0.00000000000E+00 -0.15752624068E+03  0.15752624068E+03  0.00000000000E+00 0.  1.
          6    1    1    2  501    0  0.15372774324E+02  0.31448949210E+02  0.14389470588E+03  0.22772800657E+03  0.17300000000E+03 0.  1.
         -6    1    1    2    0  503 -0.15372774324E+02 -0.31448949210E+02 -0.48239836428E+02  0.18297934423E+03  0.17300000000E+03 0.  1.
<mgrwt>
<rscale>  2 0.17650597E+03</rscale>
<asrwt>0</asrwt>
<pdfrwt beam="1">  1       21 0.38950940E-01 0.17650597E+03</pdfrwt>
<pdfrwt beam="2">  1       21 0.24234806E-01 0.17650597E+03</pdfrwt>
<totfact> 0.10275525E+05</totfact>
</mgrwt>
</event>
<event>
 4    1  0.4199484E+000  0.1898713E+03  0.7546771E-02  0.1158577E+00
         21   -1    0    0  503  502  0.00000000000E+00  0.00000000000E+00  0.51804215813E+03  0.51804215813E+03  0.00000000000E+00 0. -1.
         21   -1    0    0  501  503 -0.00000000000E+00 -0.00000000000E+00 -0.84706199930E+02  0.84706199930E+02  0.00000000000E+00 0.  1.
          6    1    1    2  501    0 -0.63772674763E+02 -0.45334020259E+02  0.89360521066E+02  0.20984858866E+03  0.17300000000E+03 0.  1.
         -6    1    1    2    0  502  0.63772674763E+02  0.45334020259E+02  0.34397543713E+03  0.39289976939E+03  0.17300000000E+03 0. -1.
<mgrwt>
<rscale>  2 0.18987134E+03</rscale>
<asrwt>0</asrwt>
<pdfrwt beam="1">  1       21 0.79698791E-01 0.18987134E+03</pdfrwt>
<pdfrwt beam="2">  1       21 0.13031723E-01 0.18987134E+03</pdfrwt>
<totfact> 0.70287171E+04</totfact>
</mgrwt>
</event>
<event>
 4    1  0.4199484E+000  0.2687246E+03  0.7546771E-02  0.1102012E+00
         21   -1    0    0  501  502  0.00000000000E+00  0.00000000000E+00  0.10496181868E+03  0.10496181868E+03  0.00000000000E+00 0. -1.
         21   -1    0    0  502  503 -0.00000000000E+00 -0.00000000000E+00 -0.81427728485E+03  0.81427728485E+03  0.00000000000E+00 0. -1.
          6    1    1    2  501    0 -0.20253995884E+03  0.35517574402E+02 -0.17365379251E+03  0.31995089103E+03  0.17300000000E+03 0. -1.
         -6    1    1    2    0  503  0.20253995884E+03 -0.35517574402E+02 -0.53566167365E+03  0.59928821250E+03  0.17300000000E+03 0. -1.
<mgrwt>
<rscale>  2 0.26872464E+03</rscale>
<asrwt>0</asrwt>
<pdfrwt beam="1">  1       21 0.16147972E-01 0.26872464E+03</pdfrwt>
<pdfrwt beam="2">  1       21 0.12527343E+00 0.26872464E+03</pdfrwt>
<totfact> 0.15555365E+04</totfact>
</mgrwt>
</event>
<event>
 4    1  0.4199484E+000  0.2137913E+03  0.7546771E-02  0.1138598E+00
         21   -1    0    0  503  502  0.00000000000E+00  0.00000000000E+00  0.45693186459E+02  0.45693186459E+02  0.00000000000E+00 0. -1.
         21   -1    0    0  501  503 -0.00000000000E+00 -0.00000000000E+00 -0.10419488375E+04  0.10419488375E+04  0.00000000000E+00 0.  1.
          6    1    1    2  501    0 -0.56986986044E+01  0.12547998002E+03 -0.60685956806E+03  0.64341684458E+03  0.17300000000E+03 0.  1.
         -6    1    1    2    0  502  0.56986986044E+01 -0.12547998002E+03 -0.38939608302E+03  0.44422517941E+03  0.17300000000E+03 0. -1.
<mgrwt>
<rscale>  2 0.21379125E+03</rscale>
<asrwt>0</asrwt>
<pdfrwt beam="1">  1       21 0.70297212E-02 0.21379125E+03</pdfrwt>
<pdfrwt beam="2">  1       21 0.16029982E+00 0.21379125E+03</pdfrwt>
<totfact> 0.37125853E+04</totfact>
</mgrwt>
</event>
<event>
 4    1  0.4199484E+000  0.2145511E+03  0.7546771E-02  0.1138012E+00
         21   -1    0    0  501  502  0.00000000000E+00  0.00000000000E+00  0.47647656156E+03  0.47647656156E+03  0.00000000000E+00 0. -1.
         21   -1    0    0  502  503 -0.00000000000E+00 -0.00000000000E+00 -0.10368227711E+03  0.10368227711E+03  0.00000000000E+00 0. -1.
          6    1    1    2  501    0  0.41691353441E+02 -0.11985408255E+03  0.26216048799E+03  0.33876288391E+03  0.17300000000E+03 0. -1.
         -6    1    1    2    0  503 -0.41691353441E+02  0.11985408255E+03  0.11063379645E+03  0.24139595476E+03  0.17300000000E+03 0. -1.
<mgrwt>
<rscale>  2 0.21455109E+03</rscale>
<asrwt>0</asrwt>
<pdfrwt beam="1">  1       21 0.73304085E-01 0.21455109E+03</pdfrwt>
<pdfrwt beam="2">  1       21 0.15951120E-01 0.21455109E+03</pdfrwt>
<totfact> 0.58062650E+04</totfact>
</mgrwt>
</event>
<event>
 4    1  0.4199484E+000  0.1780099E+03  0.7546771E-02  0.1169743E+00
         21   -1    0    0  501  502  0.00000000000E+00  0.00000000000E+00  0.14386373912E+03  0.14386373912E+03  0.00000000000E+00 0. -1.
         21   -1    0    0  502  503 -0.00000000000E+00 -0.00000000000E+00 -0.72973010507E+03  0.72973010507E+03  0.00000000000E+00 0. -1.
          6    1    1    2  501    0 -0.21269142415E+02 -0.36140565127E+02  0.72037117124E+02  0.19203349476E+03  0.17300000000E+03 0. -1.
         -6    1    1    2    0  503  0.21269142415E+02  0.36140565127E+02 -0.65790348308E+03  0.68156034943E+03  0.17300000000E+03 0. -1.
<mgrwt>
<rscale>  2 0.17800988E+03</rscale>
<asrwt>0</asrwt>
<pdfrwt beam="1">  1       21 0.22132883E-01 0.17800988E+03</pdfrwt>
<pdfrwt beam="2">  1       21 0.11226617E+00 0.17800988E+03</pdfrwt>
<totfact> 0.11985872E+04</totfact>
</mgrwt>
</event>
<event>
 4    1  0.4199484E+000  0.2637720E+03  0.7546771E-02  0.1104898E+00
         21   -1    0    0  501  502  0.00000000000E+00  0.00000000000E+00  0.13772576620E+03  0.13772576620E+03  0.00000000000E+00 0.  1.
         21   -1    0    0  502  503 -0.00000000000E+00 -0.00000000000E+00 -0.11314441129E+04  0.11314441129E+04  0.00000000000E+00 0. -1.
          6    1    1    2  501    0 -0.31417653563E+02 -0.19662049935E+03 -0.24737961556E+02  0.26492953112E+03  0.17300000000E+03 0.  1.
         -6    1    1    2    0  503  0.31417653563E+02  0.19662049935E+03 -0.96898038518E+03  0.10042403480E+04  0.17300000000E+03 0. -1.
<mgrwt>
<rscale>  2 0.26377204E+03</rscale>
<asrwt>0</asrwt>
<pdfrwt beam="1">  1       21 0.21188579E-01 0.26377204E+03</pdfrwt>
<pdfrwt beam="2">  1       21 0.17406833E+00 0.26377204E+03</pdfrwt>
<totfact> 0.39145711E+03</totfact>
</mgrwt>
</event>
<event>
 4    1  0.4199484E+000  0.1879060E+03  0.7546771E-02  0.1160364E+00
         21   -1    0    0  501  502  0.00000000000E+00  0.00000000000E+00  0.16564032344E+03  0.16564032344E+03  0.00000000000E+00 0.  1.
         21   -1    0    0  502  503 -0.00000000000E+00 -0.00000000000E+00 -0.23278163480E+03  0.23278163480E+03  0.00000000000E+00 0.  1.
          6    1    1    2  501    0 -0.70843834750E+02 -0.18995337235E+02  0.24259499824E+02  0.18946555120E+03  0.17300000000E+03 0. -1.
         -6    1    1    2    0  503  0.70843834750E+02  0.18995337235E+02 -0.91400811180E+02  0.20895640704E+03  0.17300000000E+03 0. -1.
<mgrwt>
<rscale>  2 0.18790602E+03</rscale>
<asrwt>0</asrwt>
<pdfrwt beam="1">  1       21 0.25483127E-01 0.18790602E+03</pdfrwt>
<pdfrwt beam="2">  1       21 0.35812559E-01 0.18790602E+03</pdfrwt>
<totfact> 0.10997972E+05</totfact>
</mgrwt>
</event>
<event>
 4    1  0.4199484E+000  0.2299413E+03  0.7546771E-02  0.1126681E+00
         21   -1    0    0  503  502  0.00000000000E+00  0.00000000000E+00  0.32511142923E+03  0.32511142923E+03  0.00000000000E+00 0. -1.
         21   -1    0    0  501  503 -0.00000000000E+00 -0.00000000000E+00 -0.21369648203E+03  0.21369648203E+03  0.00000000000E+00 0. -1.
          6    1    1    2  501    0  0.57160959210E+02 -0.14027332774E+03 -0.75988292580E+02  0.24217184465E+03  0.17300000000E+03 0. -1.
         -6    1    1    2    0  502 -0.57160959210E+02  0.14027332774E+03  0.18740323978E+03  0.29663606661E+03  0.17300000000E+03 0. -1.
<mgrwt>
<rscale>  2 0.22994126E+03</rscale>
<asrwt>0</asrwt>
<pdfrwt beam="1">  1       21 0.50017143E-01 0.22994126E+03</pdfrwt>
<pdfrwt beam="2">  1       21 0.32876382E-01 0.22994126E+03</pdfrwt>
<totfact> 0.33271752E+04</totfact>
</mgrwt>
</event>
<event>
 4    1  0.4199484E+000  0.2140654E+03  0.7546771E-02  0.1138386E+00
         21   -1    0    0  503  502  0.00000000000E+00  0.00000000000E+00  0.27493862842E+03  0.27493862842E+03  0.00000000000E+00 0.  1.
         21   -1    0    0  501  503 -0.00000000000E+00 -0.00000000000E+00 -0.35196283459E+03  0.35196283459E+03  0.00000000000E+00 0.  1.
          6    1    1    2  501    0 -0.12532761246E+03 -0.13710645786E+02 -0.26594344839E+03  0.34139406848E+03  0.17300000000E+03 0.  1.
         -6    1    1    2    0  502  0.12532761246E+03  0.13710645786E+02  0.18891924222E+03  0.28550739453E+03  0.17300000000E+03 0.  1.
<mgrwt>
<rscale>  2 0.21406539E+03</rscale>
<asrwt>0</asrwt>
<pdfrwt beam="1">  1       21 0.42298251E-01 0.21406539E+03</pdfrwt>
<pdfrwt beam="2">  1       21 0.54148128E-01 0.21406539E+03</pdfrwt>
<totfact> 0.17113670E+04</totfact>
</mgrwt>
</event>
<event>
 4    1  0.4199484E+000  0.1844000E+03  0.7546771E-02  0.1163611E+00
         21   -1    0    0  501  502  0.00000000000E+00  0.00000000000E+00  0.53787144291E+03  0.53787144291E+03  0.00000000000E+00 0.  1.
         21   -1    0    0  502  503 -0.00000000000E+00 -0.00000000000E+00 -0.64785846400E+02  0.64785846400E+02  0.00000000000E+00 0.  1.
          6    1    1    2  501    0  0.38210602244E+01 -0.63716257241E+02  0.28341326706E+03  0.33812193346E+03  0.17300000000E+03 0.  1.
         -6    1    1    2    0  503 -0.38210602244E+01  0.63716257241E+02  0.18967232945E+03  0.26453535585E+03  0.17300000000E+03 0.  1.
<mgrwt>
<rscale>  2 0.18440001E+03</rscale>
<asrwt>0</asrwt>
<pdfrwt beam="1">  1       21 0.82749450E-01 0.18440001E+03</pdfrwt>
<pdfrwt beam="2">  1       21 0.99670536E-02 0.18440001E+03</pdfrwt>
<totfact> 0.10430974E+05</totfact>
</mgrwt>
</event>
<event>
 4    1  0.4199484E+000  0.1934553E+03  0.7546771E-02  0.1155381E+00
         21   -1    0    0  503  502  0.00000000000E+00  0.00000000000E+00  0.19327631797E+03  0.19327631797E+03  0.00000000000E+00 0.  1.
         21   -1    0    0  501  503 -0.00000000000E+00 -0.00000000000E+00 -0.20711041473E+03  0.20711041473E+03  0.00000000000E+00 0. -1.
          6    1    1    2  501    0 -0.27250608461E+02  0.82178793108E+02 -0.57982710279E+02  0.20195777873E+03  0.17300000000E+03 0. -1.
         -6    1    1    2    0  502  0.27250608461E+02 -0.82178793108E+02  0.44148613525E+02  0.19842895397E+03  0.17300000000E+03 0. -1.
<mgrwt>
<rscale>  2 0.19345529E+03</rscale>
<asrwt>0</asrwt>
<pdfrwt beam="1">  1       21 0.29734818E-01 0.19345529E+03</pdfrwt>
<pdfrwt beam="2">  1       21 0.31863141E-01 0.19345529E+03</pdfrwt>
<totfact> 0.10266754E+05</totfact>
</mgrwt>
</event>
<event>
 4    1  0.4199484E+000  0.1970612E+03  0.7546771E-02  0.1152242E+00
         21   -1    0    0  503  502  0.00000000000E+00  0.00000000000E+00  0.52313607014E+03  0.52313607014E+03  0.00000000000E+00 0.  1.
         21   -1    0    0  501  503 -0.00000000000E+00 -0.00000000000E+00 -0.79338213152E+02  0.79338213152E+02  0.00000000000E+00 0.  1.
          6    1    1    2  501    0  0.62311498885E+02  0.70861854703E+02  0.14547275886E+03  0.24493968424E+03  0.17300000000E+03 0. -1.
         -6    1    1    2    0  502 -0.62311498885E+02 -0.70861854703E+02  0.29832509813E+03  0.35753459905E+03  0.17300000000E+03 0. -1.
<mgrwt>
<rscale>  2 0.19706122E+03</rscale>
<asrwt>0</asrwt>
<pdfrwt beam="1">  1       21 0.80482470E-01 0.19706122E+03</pdfrwt>
<pdfrwt beam="2">  1       21 0.12205879E-01 0.19706122E+03</pdfrwt>
<totfact> 0.77079163E+04</totfact>
</mgrwt>
</event>
<event>
 4    1  0.4199484E+000  0.1753802E+03  0.7546771E-02  0.1172351E+00
         21   -1    0    0  503  502  0.00000000000E+00  0.00000000000E+00  0.23534410111E+03  0.23534410111E+03  0.00000000000E+00 0. -1.
         21   -1    0    0  501  503 -0.00000000000E+00 -0.00000000000E+00 -0.27477058295E+03  0.27477058295E+03  0.00000000000E+00 0. -1.
          6    1    1    2  501    0  0.19484181193E+02 -0.21202957832E+02 -0.20440543300E+03  0.26933209942E+03  0.17300000000E+03 0. -1.
         -6    1    1    2    0  502 -0.19484181193E+02  0.21202957832E+02  0.16497895116E+03  0.24078258463E+03  0.17300000000E+03 0. -1.
<mgrwt>
<rscale>  2 0.17538015E+03</rscale>
<asrwt>0</asrwt>
<pdfrwt beam="1">  1       21 0.36206785E-01 0.17538015E+03</pdfrwt>
<pdfrwt beam="2">  1       21 0.42272397E-01 0.17538015E+03</pdfrwt>
<totfact> 0.39960399E+04</totfact>
</mgrwt>
</event>
<event>
 4    1  0.4199484E+000  0.2359963E+03  0.7546771E-02  0.1122489E+00
         21   -1    0    0  503  502  0.00000000000E+00  0.00000000000E+00  0.73000340202E+02  0.73000340202E+02  0.00000000000E+00 0.  1.
         21   -1    0    0  501  503 -0.00000000000E+00 -0.00000000000E+00 -0.86837985502E+03  0.86837985502E+03  0.00000000000E+00 0. -1.
          6    1    1    2  501    0 -0.18707421521E+02  0.15942172470E+03 -0.56171105407E+03  0.60927297839E+03  0.17300000000E+03 0. -1.
         -6    1    1    2    0  502  0.18707421521E+02 -0.15942172470E+03 -0.23366846074E+03  0.33210721683E+03  0.17300000000E+03 0.  1.
<mgrwt>
<rscale>  2 0.23599630E+03</rscale>
<asrwt>0</asrwt>
<pdfrwt beam="1">  1       21 0.11230821E-01 0.23599630E+03</pdfrwt>
<pdfrwt beam="2">  1       21 0.13359691E+00 0.23599630E+03</pdfrwt>
<totfact> 0.25978149E+04</totfact>
</mgrwt>
</event>
<event>
 4    1  0.4199484E+000  0.1991765E+03  0.7546771E-02  0.1150436E+00
         21   -1    0    0  503  502  0.00000000000E+00  0.00000000000E+00  0.24586522972E+04  0.24586522972E+04  0.00000000000E+00 0. -1.
         21   -1    0    0  501  503 -0.00000000000E+00 -0.00000000000E+00 -0.21915463154E+02  0.21915463154E+02  0.00000000000E+00 0.  1.
          6    1    1    2  501    0  0.77499084608E+02 -0.61124208248E+02  0.58140718320E+03  0.61457757006E+03  0.17300000000E+03 0. -1.
         -6    1    1    2    0  502 -0.77499084608E+02  0.61124208248E+02  0.18553296509E+04  0.18659901903E+04  0.17300000000E+03 0. -1.
<mgrwt>
<rscale>  2 0.19917650E+03</rscale>
<asrwt>0</asrwt>
<pdfrwt beam="1">  1       21 0.37825398E+00 0.19917650E+03</pdfrwt>
<pdfrwt beam="2">  1       21 0.33716117E-02 0.19917650E+03</pdfrwt>
<totfact> 0.61257037E+03</totfact>
</mgrwt>
</event>
<event>
 4    1  0.4199484E+000  0.4363053E+03  0.7546771E-02  0.1031886E+00
         21   -1    0    0  503  502  0.00000000000E+00  0.00000000000E+00  0.14821596136E+03  0.14821596136E+03  0.00000000000E+00 0.  1.
         21   -1    0    0  501  503 -0.00000000000E+00 -0.00000000000E+00 -0.18894812061E+04  0.18894812061E+04  0.00000000000E+00 0. -1.
          6    1    1    2  501    0 -0.26885606353E+03 -0.29690013827E+03 -0.14472137952E+04  0.15115521970E+04  0.17300000000E+03 0. -1.
         -6    1    1    2    0  502  0.26885606353E+03  0.29690013827E+03 -0.29405144947E+03  0.52614497046E+03  0.17300000000E+03 0.  1.
<mgrwt>
<rscale>  2 0.43630525E+03</rscale>
<asrwt>0</asrwt>
<pdfrwt beam="1">  1       21 0.22802455E-01 0.43630525E+03</pdfrwt>
<pdfrwt beam="2">  1       21 0.29068942E+00 0.43630525E+03</pdfrwt>
<totfact> 0.56259903E+02</totfact>
</mgrwt>
</event>
<event>
 4    1  0.4199484E+000  0.1844123E+03  0.7546771E-02  0.1163600E+00
         21   -1    0    0  503  502  0.00000000000E+00  0.00000000000E+00  0.91350803279E+03  0.91350803279E+03  0.00000000000E+00 0.  1.
         21   -1    0    0  501  503 -0.00000000000E+00 -0.00000000000E+00 -0.52446612146E+02  0.52446612146E+02  0.00000000000E+00 0.  1.
          6    1    1    2  501    0 -0.62555752934E+02 -0.12871833908E+02  0.17036011506E+03  0.25105870855E+03  0.17300000000E+03 0.  1.
         -6    1    1    2    0  502  0.62555752934E+02  0.12871833908E+02  0.69070130558E+03  0.71489593639E+03  0.17300000000E+03 0.  1.
<mgrwt>
<rscale>  2 0.18441233E+03</rscale>
<asrwt>0</asrwt>
<pdfrwt beam="1">  1       21 0.14053969E+00 0.18441233E+03</pdfrwt>
<pdfrwt beam="2">  1       21 0.80687103E-02 0.18441233E+03</pdfrwt>
<totfact> 0.42082325E+04</totfact>
</mgrwt>
</event>
<event>
 4    1  0.4199484E+000  0.1733211E+03  0.7546771E-02  0.1174428E+00
         21   -1    0    0  503  502  0.00000000000E+00  0.00000000000E+00  0.17504729734E+04  0.17504729734E+04  0.00000000000E+00 0. -1.
         21   -1    0    0  501  503 -0.00000000000E+00 -0.00000000000E+00 -0.34030597965E+02  0.34030597965E+02  0.00000000000E+00 0. -1.
          6    1    1    2  501    0  0.56518331678E+01 -0.89021450571E+01  0.23001441505E+03  0.28800490019E+03  0.17300000000E+03 0. -1.
         -6    1    1    2    0  502 -0.56518331678E+01  0.89021450571E+01  0.14864279604E+04  0.14964986712E+04  0.17300000000E+03 0. -1.
<mgrwt>
<rscale>  2 0.17332106E+03</rscale>
<asrwt>0</asrwt>
<pdfrwt beam="1">  1       21 0.26930346E+00 0.17332106E+03</pdfrwt>
<pdfrwt beam="2">  1       21 0.52354780E-02 0.17332106E+03</pdfrwt>
<totfact> 0.13016967E+04</totfact>
</mgrwt>
</event>
<event>
 4    1  0.4199484E+000  0.2740854E+03  0.7546771E-02  0.1098964E+00
         21   -1    0    0  503  502  0.00000000000E+00  0.00000000000E+00  0.33630898700E+03  0.33630898700E+03  0.00000000000E+00 0. -1.
         21   -1    0    0  501  503 -0.00000000000E+00 -0.00000000000E+00 -0.22342110656E+03  0.22342110656E+03  0.00000000000E+00 0.  1.
          6    1    1    2  501    0  0.19503767457E+03  0.84582032331E+02  0.52397027991E+02  0.27904885457E+03  0.17300000000E+03 0. -1.
         -6    1    1    2    0  502 -0.19503767457E+03 -0.84582032331E+02  0.60490852447E+02  0.28068123900E+03  0.17300000000E+03 0.  1.
<mgrwt>
<rscale>  2 0.27408541E+03</rscale>
<asrwt>0</asrwt>
<pdfrwt beam="1">  1       21 0.51739844E-01 0.27408541E+03</pdfrwt>
<pdfrwt beam="2">  1       21 0.34372478E-01 0.27408541E+03</pdfrwt>
<totfact> 0.27816983E+04</totfact>
</mgrwt>
</event>
<event>
 4    1  0.4199484E+000  0.1926870E+03  0.7546771E-02  0.1156060E+00
         21   -1    0    0  501  502  0.00000000000E+00  0.00000000000E+00  0.83001953877E+02  0.83001953877E+02  0.00000000000E+00 0. -1.
         21   -1    0    0  502  503 -0.00000000000E+00 -0.00000000000E+00 -0.50314049107E+03  0.50314049107E+03  0.00000000000E+00 0. -1.
          6    1    1    2  501    0 -0.28314371071E+02  0.79984932346E+02 -0.11245080328E+03  0.22309970007E+03  0.17300000000E+03 0. -1.
         -6    1    1    2    0  503  0.28314371071E+02 -0.79984932346E+02 -0.30768773391E+03  0.36304274488E+03  0.17300000000E+03 0. -1.
<mgrwt>
<rscale>  2 0.19268703E+03</rscale>
<asrwt>0</asrwt>
<pdfrwt beam="1">  1       21 0.12769531E-01 0.19268703E+03</pdfrwt>
<pdfrwt beam="2">  1       21 0.77406229E-01 0.19268703E+03</pdfrwt>
<totfact> 0.77765435E+04</totfact>
</mgrwt>
</event>
<event>
 4    1  0.4199484E+000  0.3184298E+03  0.7546771E-02  0.1076374E+00
         21   -1    0    0  501  502  0.00000000000E+00  0.00000000000E+00  0.21592340508E+04  0.21592340508E+04  0.00000000000E+00 0. -1.
         21   -1    0    0  502  503 -0.00000000000E+00 -0.00000000000E+00 -0.60484219547E+02  0.60484219547E+02  0.00000000000E+00 0.  1.
          6    1    1    2  501    0 -0.25685060763E+03  0.74137092496E+02  0.15741867024E+04  0.16060701470E+04  0.17300000000E+03 0. -1.
         -6    1    1    2    0  503  0.25685060763E+03 -0.74137092496E+02  0.52456312890E+03  0.61364812338E+03  0.17300000000E+03 0.  1.
<mgrwt>
<rscale>  2 0.31842981E+03</rscale>
<asrwt>0</asrwt>
<pdfrwt beam="1">  1       21 0.33218979E+00 0.31842981E+03</pdfrwt>
<pdfrwt beam="2">  1       21 0.93052662E-02 0.31842981E+03</pdfrwt>
<totfact> 0.17999126E+03</totfact>
</mgrwt>
</event>
<event>
 4    1  0.4199484E+000  0.2377296E+03  0.7546771E-02  0.1121315E+00
         21   -1    0    0  503  502  0.00000000000E+00  0.00000000000E+00  0.68932228551E+02  0.68932228551E+02  0.00000000000E+00 0. -1.
         21   -1    0    0  501  503 -0.00000000000E+00 -0.00000000000E+00 -0.11143465168E+04  0.11143465168E+04  0.00000000000E+00 0. -1.
          6    1    1    2  501    0 -0.94574792113E+02  0.13282303756E+03 -0.82684712091E+03  0.86034383358E+03  0.17300000000E+03 0. -1.
         -6    1    1    2    0  502  0.94574792113E+02 -0.13282303756E+03 -0.21856716736E+03  0.32293491180E+03  0.17300000000E+03 0. -1.
<mgrwt>
<rscale>  2 0.23772957E+03</rscale>
<asrwt>0</asrwt>
<pdfrwt beam="1">  1       21 0.10604958E-01 0.23772957E+03</pdfrwt>
<pdfrwt beam="2">  1       21 0.17143793E+00 0.23772957E+03</pdfrwt>
<totfact> 0.14779227E+04</totfact>
</mgrwt>
</event>
<event>
 4    1  0.4199484E+000  0.1759022E+03  0.7546771E-02  0.1171829E+00
         21   -1    0    0  503  502  0.00000000000E+00  0.00000000000E+00  0.55310885291E+03  0.55310885291E+03  0.00000000000E+00 0.  1.
         21   -1    0    0  501  503 -0.00000000000E+00 -0.00000000000E+00 -0.16193547584E+03  0.16193547584E+03  0.00000000000E+00 0.  1.
          6    1    1    2  501    0  0.29337980676E+02 -0.12323414072E+02 -0.93663157462E+02  0.19928464745E+03  0.17300000000E+03 0.  1.
         -6    1    1    2    0  502 -0.29337980676E+02  0.12323414072E+02  0.48483653453E+03  0.51575968131E+03  0.17300000000E+03 0.  1.
<mgrwt>
<rscale>  2 0.17590220E+03</rscale>
<asrwt>0</asrwt>
<pdfrwt beam="1">  1       21 0.85093669E-01 0.17590220E+03</pdfrwt>
<pdfrwt beam="2">  1       21 0.24913150E-01 0.17590220E+03</pdfrwt>
<totfact> 0.18416486E+04</totfact>
</mgrwt>
</event>
<event>
 4    1  0.4199484E+000  0.2776757E+03  0.7546771E-02  0.1096965E+00
         21   -1    0    0  503  502  0.00000000000E+00  0.00000000000E+00  0.11147582188E+03  0.11147582188E+03  0.00000000000E+00 0. -1.
         21   -1    0    0  501  503 -0.00000000000E+00 -0.00000000000E+00 -0.80277452693E+03  0.80277452693E+03  0.00000000000E+00 0.  1.
          6    1    1    2  501    0 -0.21716223927E+03  0.39198283135E+01 -0.51571481330E+03  0.58571799689E+03  0.17300000000E+03 0.  1.
         -6    1    1    2    0  502  0.21716223927E+03 -0.39198283135E+01 -0.17558389175E+03  0.32853235192E+03  0.17300000000E+03 0. -1.
<mgrwt>
<rscale>  2 0.27767572E+03</rscale>
<asrwt>0</asrwt>
<pdfrwt beam="1">  1       21 0.17150127E-01 0.27767572E+03</pdfrwt>
<pdfrwt beam="2">  1       21 0.12350377E+00 0.27767572E+03</pdfrwt>
<totfact> 0.14360301E+04</totfact>
</mgrwt>
</event>
<event>
 4    1  0.4199484E+000  0.1908379E+03  0.7546771E-02  0.1157708E+00
         21   -1    0    0  501  502  0.00000000000E+00  0.00000000000E+00  0.59298200823E+03  0.59298200823E+03  0.00000000000E+00 0. -1.
         21   -1    0    0  502  503 -0.00000000000E+00 -0.00000000000E+00 -0.69479569753E+02  0.69479569753E+02  0.00000000000E+00 0. -1.
          6    1    1    2  501    0  0.70393164930E+02 -0.39177835837E+02  0.37458582371E+03  0.42039700262E+03  0.17300000000E+03 0. -1.
         -6    1    1    2    0  503 -0.70393164930E+02  0.39177835837E+02  0.14891661476E+03  0.24206457536E+03  0.17300000000E+03 0. -1.
<mgrwt>
<rscale>  2 0.19083789E+03</rscale>
<asrwt>0</asrwt>
<pdfrwt beam="1">  1       21 0.91227998E-01 0.19083789E+03</pdfrwt>
<pdfrwt beam="2">  1       21 0.10689165E-01 0.19083789E+03</pdfrwt>
<totfact> 0.73479265E+04</totfact>
</mgrwt>
</event>
<event>
 4    1  0.4199484E+000  0.1986501E+03  0.7546771E-02  0.1150883E+00
         21   -1    0    0  501  502  0.00000000000E+00  0.00000000000E+00  0.45894239223E+03  0.45894239223E+03  0.00000000000E+00 0. -1.
         21   -1    0    0  502  503 -0.00000000000E+00 -0.00000000000E+00 -0.93717141587E+02  0.93717141587E+02  0.00000000000E+00 0. -1.
          6    1    1    2  501    0 -0.65637137695E+02 -0.72281533231E+02  0.26198819972E+03  0.32878514365E+03  0.17300000000E+03 0. -1.
         -6    1    1    2    0  503  0.65637137695E+02  0.72281533231E+02  0.10323705092E+03  0.22387439017E+03  0.17300000000E+03 0. -1.
<mgrwt>
<rscale>  2 0.19865008E+03</rscale>
<asrwt>0</asrwt>
<pdfrwt beam="1">  1       21 0.70606521E-01 0.19865008E+03</pdfrwt>
<pdfrwt beam="2">  1       21 0.14418022E-01 0.19865008E+03</pdfrwt>
<totfact> 0.76431761E+04</totfact>
</mgrwt>
</event>
<event>
 4    1  0.4199484E+000  0.2221370E+03  0.7546771E-02  0.1132300E+00
         21   -1    0    0  501  502  0.00000000000E+00  0.00000000000E+00  0.22348149363E+03  0.22348149363E+03  0.00000000000E+00 0.  1.
         21   -1    0    0  502  503 -0.00000000000E+00 -0.00000000000E+00 -0.28302891328E+03  0.28302891328E+03  0.00000000000E+00 0.  1.
          6    1    1    2  501    0  0.86813418508E+02  0.10899200099E+03  0.88977305928E+02  0.23929435196E+03  0.17300000000E+03 0.  1.
         -6    1    1    2    0  503 -0.86813418508E+02 -0.10899200099E+03 -0.14852472557E+03  0.26721605494E+03  0.17300000000E+03 0.  1.
<mgrwt>
<rscale>  2 0.22213695E+03</rscale>
<asrwt>0</asrwt>
<pdfrwt beam="1">  1       21 0.34381768E-01 0.22213695E+03</pdfrwt>
<pdfrwt beam="2">  1       21 0.43542910E-01 0.22213695E+03</pdfrwt>
<totfact> 0.40727570E+04</totfact>
</mgrwt>
</event>
<event>
 4    1  0.4199484E+000  0.1759927E+03  0.7546771E-02  0.1171739E+00
         21   -1    0    0  503  502  0.00000000000E+00  0.00000000000E+00  0.64808469368E+02  0.64808469368E+02  0.00000000000E+00 0. -1.
         21   -1    0    0  501  503 -0.00000000000E+00 -0.00000000000E+00 -0.53229724972E+03  0.53229724972E+03  0.00000000000E+00 0. -1.
          6    1    1    2  501    0  0.31958695755E+02  0.48032883922E+01 -0.32916506996E+03  0.37326006094E+03  0.17300000000E+03 0. -1.
         -6    1    1    2    0  502 -0.31958695755E+02 -0.48032883922E+01 -0.13832371039E+03  0.22384565815E+03  0.17300000000E+03 0. -1.
<mgrwt>
<rscale>  2 0.17599270E+03</rscale>
<asrwt>0</asrwt>
<pdfrwt beam="1">  1       21 0.99705340E-02 0.17599270E+03</pdfrwt>
<pdfrwt beam="2">  1       21 0.81891883E-01 0.17599270E+03</pdfrwt>
<totfact> 0.10709405E+05</totfact>
</mgrwt>
</event>
<event>
 4    1  0.4199484E+000  0.2305675E+03  0.7546771E-02  0.1126241E+00
         21   -1    0    0  503  502  0.00000000000E+00  0.00000000000E+00  0.14197363877E+04  0.14197363877E+04  0.00000000000E+00 0. -1.
         21   -1    0    0  501  503 -0.00000000000E+00 -0.00000000000E+00 -0.58948323622E+02  0.58948323622E+02  0.00000000000E+00 0. -1.
          6    1    1    2  501    0 -0.87219385064E+02  0.12500058083E+03  0.23384683624E+03  0.32839870456E+03  0.17300000000E+03 0. -1.
         -6    1    1    2    0  502  0.87219385064E+02 -0.12500058083E+03  0.11269412278E+04  0.11502860067E+04  0.17300000000E+03 0. -1.
<mgrwt>
<rscale>  2 0.23056749E+03</rscale>
<asrwt>0</asrwt>
<pdfrwt beam="1">  1       21 0.21842096E+00 0.23056749E+03</pdfrwt>
<pdfrwt beam="2">  1       21 0.90689739E-02 0.23056749E+03</pdfrwt>
<totfact> 0.96069916E+03</totfact>
</mgrwt>
</event>
<event>
 4    1  0.4199484E+000  0.1753106E+03  0.7546771E-02  0.1172420E+00
         21   -1    0    0  501  502  0.00000000000E+00  0.00000000000E+00  0.21940542256E+03  0.21940542256E+03  0.00000000000E+00 0. -1.
         21   -1    0    0  502  503 -0.00000000000E+00 -0.00000000000E+00 -0.15253451655E+03  0.15253451655E+03  0.00000000000E+00 0. -1.
          6    1    1    2  501    0 -0.28114075300E+02  0.37965491271E+01  0.86580359756E+02  0.19552486724E+03  0.17300000000E+03 0.  1.
         -6    1    1    2    0  503  0.28114075300E+02 -0.37965491271E+01 -0.19709453743E+02  0.17641507187E+03  0.17300000000E+03 0.  1.
<mgrwt>
<rscale>  2 0.17531062E+03</rscale>
<asrwt>0</asrwt>
<pdfrwt beam="1">  1       21 0.33754681E-01 0.17531062E+03</pdfrwt>
<pdfrwt beam="2">  1       21 0.23466849E-01 0.17531062E+03</pdfrwt>
<totfact> 0.14527691E+05</totfact>
</mgrwt>
</event>
<event>
 4    1  0.4199484E+000  0.2952620E+03  0.7546771E-02  0.1087633E+00
         21   -1    0    0  501  502  0.00000000000E+00  0.00000000000E+00  0.49789380709E+03  0.49789380709E+03  0.00000000000E+00 0. -1.
         21   -1    0    0  502  503 -0.00000000000E+00 -0.00000000000E+00 -0.67957575381E+03  0.67957575381E+03  0.00000000000E+00 0. -1.
          6    1    1    2  501    0 -0.19650894946E+03  0.13650965362E+03  0.41640924997E+03  0.51046676308E+03  0.17300000000E+03 0. -1.
         -6    1    1    2    0  503  0.19650894946E+03 -0.13650965362E+03 -0.59809119668E+03  0.66700279782E+03  0.17300000000E+03 0. -1.
<mgrwt>
<rscale>  2 0.29526201E+03</rscale>
<asrwt>0</asrwt>
<pdfrwt beam="1">  1       21 0.76599047E-01 0.29526201E+03</pdfrwt>
<pdfrwt beam="2">  1       21 0.10455012E+00 0.29526201E+03</pdfrwt>
<totfact> 0.10298253E+03</totfact>
</mgrwt>
</event>
<event>
 4    1  0.4199484E+000  0.2048959E+03  0.7546771E-02  0.1145673E+00
         21   -1    0    0  503  502  0.00000000000E+00  0.00000000000E+00  0.85607163351E+02  0.85607163351E+02  0.00000000000E+00 0. -1.
         21   -1    0    0  501  503 -0.00000000000E+00 -0.00000000000E+00 -0.70843058516E+03  0.70843058516E+03  0.00000000000E+00 0.  1.
          6    1    1    2  501    0  0.91005267454E+02  0.61411327265E+02 -0.53166111051E+03  0.56977701449E+03  0.17300000000E+03 0.  1.
         -6    1    1    2    0  502 -0.91005267454E+02 -0.61411327265E+02 -0.91162311309E+02  0.22426073402E+03  0.17300000000E+03 0. -1.
<mgrwt>
<rscale>  2 0.20489585E+03</rscale>
<asrwt>0</asrwt>
<pdfrwt beam="1">  1       21 0.13170333E-01 0.20489585E+03</pdfrwt>
<pdfrwt beam="2">  1       21 0.10898932E+00 0.20489585E+03</pdfrwt>
<totfact> 0.32930452E+04</totfact>
</mgrwt>
</event>
<event>
 4    1  0.4199484E+000  0.2076916E+03  0.7546771E-02  0.1143407E+00
         21   -1    0    0  503  502  0.00000000000E+00  0.00000000000E+00  0.10476674782E+03  0.10476674782E+03  0.00000000000E+00 0. -1.
         21   -1    0    0  501  503 -0.00000000000E+00 -0.00000000000E+00 -0.49209614128E+03  0.49209614128E+03  0.00000000000E+00 0.  1.
          6    1    1    2  501    0  0.56904372224E+02 -0.99843317003E+02 -0.31426584812E+03  0.37669459622E+03  0.17300000000E+03 0.  1.
         -6    1    1    2    0  502 -0.56904372224E+02  0.99843317003E+02 -0.73063545344E+02  0.22016829287E+03  0.17300000000E+03 0. -1.
<mgrwt>
<rscale>  2 0.20769159E+03</rscale>
<asrwt>0</asrwt>
<pdfrwt beam="1">  1       21 0.16117962E-01 0.20769159E+03</pdfrwt>
<pdfrwt beam="2">  1       21 0.75707096E-01 0.20769159E+03</pdfrwt>
<totfact> 0.53170813E+04</totfact>
</mgrwt>
</event>
<event>
 4    1  0.4199484E+000  0.1861588E+03  0.7546771E-02  0.1161972E+00
         21   -1    0    0  501  502  0.00000000000E+00  0.00000000000E+00  0.30177087487E+03  0.30177087487E+03  0.00000000000E+00 0.  1.
         21   -1    0    0  502  503 -0.00000000000E+00 -0.00000000000E+00 -0.11628828622E+03  0.11628828622E+03  0.00000000000E+00 0.  1.
          6    1    1    2  501    0  0.53208058814E+02 -0.43531416959E+02  0.11607634555E+03  0.21938277002E+03  0.17300000000E+03 0.  1.
         -6    1    1    2    0  503 -0.53208058814E+02  0.43531416959E+02  0.69406243098E+02  0.19867639106E+03  0.17300000000E+03 0.  1.
<mgrwt>
<rscale>  2 0.18615875E+03</rscale>
<asrwt>0</asrwt>
<pdfrwt beam="1">  1       21 0.46426288E-01 0.18615875E+03</pdfrwt>
<pdfrwt beam="2">  1       21 0.17890506E-01 0.18615875E+03</pdfrwt>
<totfact> 0.12646416E+05</totfact>
</mgrwt>
</event>
<event>
 4    1  0.4199484E+000  0.1901813E+03  0.7546771E-02  0.1158298E+00
         21   -1    0    0  501  502  0.00000000000E+00  0.00000000000E+00  0.64205180739E+03  0.64205180739E+03  0.00000000000E+00 0. -1.
         21   -1    0    0  502  503 -0.00000000000E+00 -0.00000000000E+00 -0.14207624947E+03  0.14207624947E+03  0.00000000000E+00 0.  1.
          6    1    1    2  501    0 -0.58801251399E+02 -0.52747962678E+02  0.55456352507E+03  0.58626754820E+03  0.17300000000E+03 0. -1.
         -6    1    1    2    0  503  0.58801251399E+02  0.52747962678E+02 -0.54587967138E+02  0.19786050866E+03  0.17300000000E+03 0.  1.
<mgrwt>
<rscale>  2 0.19018132E+03</rscale>
<asrwt>0</asrwt>
<pdfrwt beam="1">  1       21 0.98777200E-01 0.19018132E+03</pdfrwt>
<pdfrwt beam="2">  1       21 0.21857885E-01 0.19018132E+03</pdfrwt>
<totfact> 0.16541982E+04</totfact>
</mgrwt>
</event>
<event>
 4    1  0.4199484E+000  0.1845158E+03  0.7546771E-02  0.1163503E+00
         21   -1    0    0  503  502  0.00000000000E+00  0.00000000000E+00  0.12406174385E+03  0.12406174385E+03  0.00000000000E+00 0. -1.
         21   -1    0    0  501  503 -0.00000000000E+00 -0.00000000000E+00 -0.20283629309E+04  0.20283629309E+04  0.00000000000E+00 0. -1.
          6    1    1    2  501    0 -0.32599596832E+02 -0.55266058433E+02 -0.19529149247E+04  0.19616122894E+04  0.17300000000E+03 0. -1.
         -6    1    1    2    0  502  0.32599596832E+02  0.55266058433E+02  0.48613737595E+02  0.19081238537E+03  0.17300000000E+03 0. -1.
<mgrwt>
<rscale>  2 0.18451577E+03</rscale>
<asrwt>0</asrwt>
<pdfrwt beam="1">  1       21 0.19086425E-01 0.18451577E+03</pdfrwt>
<pdfrwt beam="2">  1       21 0.31205579E+00 0.18451577E+03</pdfrwt>
<totfact> 0.74137558E+02</totfact>
</mgrwt>
</event>
<event>
 4    1  0.4199484E+000  0.1947988E+03  0.7546771E-02  0.1154203E+00
         21   -1    0    0  503  502  0.00000000000E+00  0.00000000000E+00  0.47109172315E+03  0.47109172315E+03  0.00000000000E+00 0. -1.
         21   -1    0    0  501  503 -0.00000000000E+00 -0.00000000000E+00 -0.82046152969E+02  0.82046152969E+02  0.00000000000E+00 0. -1.
          6    1    1    2  501    0  0.80872514443E+02 -0.38434270395E+02  0.15717835816E+03  0.25030300239E+03  0.17300000000E+03 0. -1.
         -6    1    1    2    0  502 -0.80872514443E+02  0.38434270395E+02  0.23186721202E+03  0.30283487372E+03  0.17300000000E+03 0. -1.
<mgrwt>
<rscale>  2 0.19479876E+03</rscale>
<asrwt>0</asrwt>
<pdfrwt beam="1">  1       21 0.72475648E-01 0.19479876E+03</pdfrwt>
<pdfrwt beam="2">  1       21 0.12622485E-01 0.19479876E+03</pdfrwt>
<totfact> 0.91882785E+04</totfact>
</mgrwt>
</event>
<event>
 4    1  0.4199484E+000  0.2571892E+03  0.7546771E-02  0.1108844E+00
         21   -1    0    0  503  502  0.00000000000E+00  0.00000000000E+00  0.30066161000E+03  0.30066161000E+03  0.00000000000E+00 0. -1.
         21   -1    0    0  501  503 -0.00000000000E+00 -0.00000000000E+00 -0.22001805153E+03  0.22001805153E+03  0.00000000000E+00 0.  1.
          6    1    1    2  501    0  0.71053132504E+02 -0.17654667997E+03  0.42517084039E+02  0.26067984249E+03  0.17300000000E+03 0.  1.
         -6    1    1    2    0  502 -0.71053132504E+02  0.17654667997E+03  0.38126474433E+02  0.25999981904E+03  0.17300000000E+03 0. -1.
<mgrwt>
<rscale>  2 0.25718919E+03</rscale>
<asrwt>0</asrwt>
<pdfrwt beam="1">  1       21 0.46255633E-01 0.25718919E+03</pdfrwt>
<pdfrwt beam="2">  1       21 0.33848931E-01 0.25718919E+03</pdfrwt>
<totfact> 0.36522539E+04</totfact>
</mgrwt>
</event>
<event>
 4    1  0.4199484E+000  0.1881252E+03  0.7546771E-02  0.1160163E+00
         21   -1    0    0  503  502  0.00000000000E+00  0.00000000000E+00  0.43330999667E+03  0.43330999667E+03  0.00000000000E+00 0.  1.
         21   -1    0    0  501  503 -0.00000000000E+00 -0.00000000000E+00 -0.13300070323E+03  0.13300070323E+03  0.00000000000E+00 0.  1.
          6    1    1    2  501    0 -0.97609020233E+01  0.73258647681E+02 -0.25743097880E+02  0.18987841309E+03  0.17300000000E+03 0.  1.
         -6    1    1    2    0  502  0.97609020233E+01 -0.73258647681E+02  0.32605239132E+03  0.37643228681E+03  0.17300000000E+03 0.  1.
<mgrwt>
<rscale>  2 0.18812524E+03</rscale>
<asrwt>0</asrwt>
<pdfrwt beam="1">  1       21 0.66663076E-01 0.18812524E+03</pdfrwt>
<pdfrwt beam="2">  1       21 0.20461647E-01 0.18812524E+03</pdfrwt>
<totfact> 0.45724001E+04</totfact>
</mgrwt>
</event>
<event>
 4    1  0.4199484E+000  0.1970462E+03  0.7546771E-02  0.1152255E+00
         21   -1    0    0  501  502  0.00000000000E+00  0.00000000000E+00  0.33465841763E+03  0.33465841763E+03  0.00000000000E+00 0.  1.
         21   -1    0    0  502  503 -0.00000000000E+00 -0.00000000000E+00 -0.20855334027E+03  0.20855334027E+03  0.00000000000E+00 0.  1.
          6    1    1    2  501    0 -0.82310999268E+02 -0.46077255171E+02  0.24396925562E+03  0.31360518448E+03  0.17300000000E+03 0.  1.
         -6    1    1    2    0  503  0.82310999268E+02  0.46077255171E+02 -0.11786417826E+03  0.22960657343E+03  0.17300000000E+03 0.  1.
<mgrwt>
<rscale>  2 0.19704622E+03</rscale>
<asrwt>0</asrwt>
<pdfrwt beam="1">  1       21 0.51485911E-01 0.19704622E+03</pdfrwt>
<pdfrwt beam="2">  1       21 0.32085129E-01 0.19704622E+03</pdfrwt>
<totfact> 0.33410310E+04</totfact>
</mgrwt>
</event>
<event>
 4    1  0.4199484E+000  0.1826879E+03  0.7546771E-02  0.1165227E+00
         21   -1    0    0  501  502  0.00000000000E+00  0.00000000000E+00  0.83497470016E+02  0.83497470016E+02  0.00000000000E+00 0.  1.
         21   -1    0    0  502  503 -0.00000000000E+00 -0.00000000000E+00 -0.42787400173E+03  0.42787400173E+03  0.00000000000E+00 0.  1.
          6    1    1    2  501    0  0.42985923448E+02 -0.39975766997E+02 -0.10659057588E+03  0.21150981639E+03  0.17300000000E+03 0. -1.
         -6    1    1    2    0  503 -0.42985923448E+02  0.39975766997E+02 -0.23778595584E+03  0.29986165536E+03  0.17300000000E+03 0. -1.
<mgrwt>
<rscale>  2 0.18268785E+03</rscale>
<asrwt>0</asrwt>
<pdfrwt beam="1">  1       21 0.12845765E-01 0.18268785E+03</pdfrwt>
<pdfrwt beam="2">  1       21 0.65826768E-01 0.18268785E+03</pdfrwt>
<totfact> 0.11052436E+05</totfact>
</mgrwt>
</event>
<event>
 4    1  0.4199484E+000  0.2404974E+03  0.7546771E-02  0.1119462E+00
         21   -1    0    0  503  502  0.00000000000E+00  0.00000000000E+00  0.11881683519E+03  0.11881683519E+03  0.00000000000E+00 0.  1.
         21   -1    0    0  501  503 -0.00000000000E+00 -0.00000000000E+00 -0.72104845701E+03  0.72104845701E+03  0.00000000000E+00 0. -1.
          6    1    1    2  501    0  0.10890794165E+03  0.12668480498E+03 -0.54047164593E+03  0.59156451856E+03  0.17300000000E+03 0. -1.
         -6    1    1    2    0  502 -0.10890794165E+03 -0.12668480498E+03 -0.61759975895E+02  0.24830077364E+03  0.17300000000E+03 0.  1.
<mgrwt>
<rscale>  2 0.24049736E+03</rscale>
<asrwt>0</asrwt>
<pdfrwt beam="1">  1       21 0.18279513E-01 0.24049736E+03</pdfrwt>
<pdfrwt beam="2">  1       21 0.11093053E+00 0.24049736E+03</pdfrwt>
<totfact> 0.16965358E+04</totfact>
</mgrwt>
</event>
<event>
 4    1  0.4199484E+000  0.2078256E+03  0.7546771E-02  0.1143300E+00
         21   -1    0    0  503  502  0.00000000000E+00  0.00000000000E+00  0.18009754651E+03  0.18009754651E+03  0.00000000000E+00 0.  1.
         21   -1    0    0  501  503 -0.00000000000E+00 -0.00000000000E+00 -0.25077094714E+03  0.25077094714E+03  0.00000000000E+00 0.  1.
          6    1    1    2  501    0 -0.67795870297E+02  0.93092444907E+02 -0.80350746029E+02  0.22281769615E+03  0.17300000000E+03 0.  1.
         -6    1    1    2    0  502  0.67795870297E+02 -0.93092444907E+02  0.96773454055E+01  0.20805079750E+03  0.17300000000E+03 0.  1.
<mgrwt>
<rscale>  2 0.20782561E+03</rscale>
<asrwt>0</asrwt>
<pdfrwt beam="1">  1       21 0.27707315E-01 0.20782561E+03</pdfrwt>
<pdfrwt beam="2">  1       21 0.38580145E-01 0.20782561E+03</pdfrwt>
<totfact> 0.80029777E+04</totfact>
</mgrwt>
</event>
<event>
 4    1  0.4199484E+000  0.2027246E+03  0.7546771E-02  0.1147460E+00
         21   -1    0    0  501  502  0.00000000000E+00  0.00000000000E+00  0.94951201724E+02  0.94951201724E+02  0.00000000000E+00 0. -1.
         21   -1    0    0  502  503 -0.00000000000E+00 -0.00000000000E+00 -0.47334965756E+03  0.47334965756E+03  0.00000000000E+00 0. -1.
          6    1    1    2  501    0 -0.10539400768E+03 -0.77700962059E+01 -0.10605808690E+03  0.22879158430E+03  0.17300000000E+03 0. -1.
         -6    1    1    2    0  503  0.10539400768E+03  0.77700962059E+01 -0.27234036894E+03  0.33950927499E+03  0.17300000000E+03 0. -1.
<mgrwt>
<rscale>  2 0.20272462E+03</rscale>
<asrwt>0</asrwt>
<pdfrwt beam="1">  1       21 0.14607877E-01 0.20272462E+03</pdfrwt>
<pdfrwt beam="2">  1       21 0.72823025E-01 0.20272462E+03</pdfrwt>
<totfact> 0.69564122E+04</totfact>
</mgrwt>
</event>
<event>
 4    1  0.4199484E+000  0.2124469E+03  0.7546771E-02  0.1139643E+00
         21   -1    0    0  501  502  0.00000000000E+00  0.00000000000E+00  0.11690932869E+03  0.11690932869E+03  0.00000000000E+00 0.  1.
         21   -1    0    0  502  503 -0.00000000000E+00 -0.00000000000E+00 -0.39704778956E+03  0.39704778956E+03  0.00000000000E+00 0.  1.
          6    1    1    2  501    0  0.60920511184E+01  0.12315668628E+03 -0.97314227184E+02  0.23367443436E+03  0.17300000000E+03 0.  1.
         -6    1    1    2    0  503 -0.60920511184E+01 -0.12315668628E+03 -0.18282423369E+03  0.28028268388E+03  0.17300000000E+03 0.  1.
<mgrwt>
<rscale>  2 0.21244689E+03</rscale>
<asrwt>0</asrwt>
<pdfrwt beam="1">  1       21 0.17986051E-01 0.21244689E+03</pdfrwt>
<pdfrwt beam="2">  1       21 0.61084275E-01 0.21244689E+03</pdfrwt>
<totfact> 0.69485222E+04</totfact>
</mgrwt>
</event>
<event>
 4    1  0.4199484E+000  0.1856574E+03  0.7546771E-02  0.1162437E+00
         21   -1    0    0  501  502  0.00000000000E+00  0.00000000000E+00  0.28232303305E+03  0.28232303305E+03  0.00000000000E+00 0. -1.
         21   -1    0    0  502  503 -0.00000000000E+00 -0.00000000000E+00 -0.12453264651E+03  0.12453264651E+03  0.00000000000E+00 0. -1.
          6    1    1    2  501    0  0.44787180633E+02 -0.50336581989E+02  0.10738885260E+03  0.21447850405E+03  0.17300000000E+03 0. -1.
         -6    1    1    2    0  503 -0.44787180633E+02  0.50336581989E+02  0.50401533939E+02  0.19237717551E+03  0.17300000000E+03 0. -1.
<mgrwt>
<rscale>  2 0.18565738E+03</rscale>
<asrwt>0</asrwt>
<pdfrwt beam="1">  1       21 0.43434313E-01 0.18565738E+03</pdfrwt>
<pdfrwt beam="2">  1       21 0.19158869E-01 0.18565738E+03</pdfrwt>
<totfact> 0.12772704E+05</totfact>
</mgrwt>
</event>
<event>
 4    1  0.4199484E+000  0.1836938E+03  0.7546771E-02  0.1164275E+00
         21   -1    0    0  501  502  0.00000000000E+00  0.00000000000E+00  0.72512037364E+02  0.72512037364E+02  0.00000000000E+00 0.  1.
         21   -1    0    0  502  503 -0.00000000000E+00 -0.00000000000E+00 -0.59682369170E+03  0.59682369170E+03  0.00000000000E+00 0.  1.
          6    1    1    2  501    0 -0.49452128881E+02  0.36998696671E+02 -0.10507912295E+03  0.21162475915E+03  0.17300000000E+03 0.  1.
         -6    1    1    2    0  503  0.49452128881E+02 -0.36998696671E+02 -0.41923253138E+03  0.45771096991E+03  0.17300000000E+03 0.  1.
<mgrwt>
<rscale>  2 0.18369381E+03</rscale>
<asrwt>0</asrwt>
<pdfrwt beam="1">  1       21 0.11155698E-01 0.18369381E+03</pdfrwt>
<pdfrwt beam="2">  1       21 0.91819029E-01 0.18369381E+03</pdfrwt>
<totfact> 0.67309452E+04</totfact>
</mgrwt>
</event>
<event>
 4    1  0.4199484E+000  0.1851936E+03  0.7546771E-02  0.1162869E+00
         21   -1    0    0  501  502  0.00000000000E+00  0.00000000000E+00  0.14012716952E+03  0.14012716952E+03  0.00000000000E+00 0.  1.
         21   -1    0    0  502  503 -0.00000000000E+00 -0.00000000000E+00 -0.34436954780E+03  0.34436954780E+03  0.00000000000E+00 0.  1.
          6    1    1    2  501    0  0.61044527833E+02 -0.25322488034E+02  0.28169201552E+02  0.18732369496E+03  0.17300000000E+03 0.  1.
         -6    1    1    2    0  503 -0.61044527833E+02  0.25322488034E+02 -0.23241157983E+03  0.29717302236E+03  0.17300000000E+03 0.  1.
<mgrwt>
<rscale>  2 0.18519358E+03</rscale>
<asrwt>0</asrwt>
<pdfrwt beam="1">  1       21 0.21558026E-01 0.18519358E+03</pdfrwt>
<pdfrwt beam="2">  1       21 0.52979931E-01 0.18519358E+03</pdfrwt>
<totfact> 0.67910238E+04</totfact>
</mgrwt>
</event>
<event>
 4    1  0.4199484E+000  0.1798316E+03  0.7546771E-02  0.1167966E+00
         21   -1    0    0  501  502  0.00000000000E+00  0.00000000000E+00  0.31284890593E+03  0.31284890593E+03  0.00000000000E+00 0.  1.
         21   -1    0    0  502  503 -0.00000000000E+00 -0.00000000000E+00 -0.12657177515E+03  0.12657177515E+03  0.00000000000E+00 0.  1.
          6    1    1    2  501    0  0.45624645039E+02  0.18133060699E+02  0.18720527346E+03  0.25958665323E+03  0.17300000000E+03 0.  1.
         -6    1    1    2    0  503 -0.45624645039E+02 -0.18133060699E+02 -0.92814268237E+00  0.17983402785E+03  0.17300000000E+03 0.  1.
<mgrwt>
<rscale>  2 0.17983163E+03</rscale>
<asrwt>0</asrwt>
<pdfrwt beam="1">  1       21 0.48130601E-01 0.17983163E+03</pdfrwt>
<pdfrwt beam="2">  1       21 0.19472581E-01 0.17983163E+03</pdfrwt>
<totfact> 0.10056156E+05</totfact>
</mgrwt>
</event>
<event>
 4    1  0.4199484E+000  0.2053323E+03  0.7546771E-02  0.1145317E+00
         21   -1    0    0  503  502  0.00000000000E+00  0.00000000000E+00  0.24471606855E+03  0.24471606855E+03  0.00000000000E+00 0. -1.
         21   -1    0    0  501  503 -0.00000000000E+00 -0.00000000000E+00 -0.19397470394E+03  0.19397470394E+03  0.00000000000E+00 0.  1.
          6    1    1    2  501    0  0.30940337762E+01 -0.11055671322E+03 -0.47973264043E+02  0.21086202585E+03  0.17300000000E+03 0.  1.
         -6    1    1    2    0  502 -0.30940337762E+01  0.11055671322E+03  0.98714628660E+02  0.22782874664E+03  0.17300000000E+03 0.  1.
<mgrwt>
<rscale>  2 0.20533232E+03</rscale>
<asrwt>0</asrwt>
<pdfrwt beam="1">  1       21 0.37648626E-01 0.20533232E+03</pdfrwt>
<pdfrwt beam="2">  1       21 0.29842262E-01 0.20533232E+03</pdfrwt>
<totfact> 0.72846731E+04</totfact>
</mgrwt>
</event>
<event>
 4    1  0.4199484E+000  0.1737617E+03  0.7546771E-02  0.1173981E+00
         21   -1    0    0  503  502  0.00000000000E+00  0.00000000000E+00  0.36202027626E+03  0.36202027626E+03  0.00000000000E+00 0. -1.
         21   -1    0    0  501  503 -0.00000000000E+00 -0.00000000000E+00 -0.97053076763E+02  0.97053076763E+02  0.00000000000E+00 0. -1.
          6    1    1    2  501    0 -0.16244926751E+01 -0.16170278946E+02  0.46397069520E+02  0.17984939521E+03  0.17300000000E+03 0. -1.
         -6    1    1    2    0  502  0.16244926751E+01  0.16170278946E+02  0.21857012998E+03  0.27922395781E+03  0.17300000000E+03 0. -1.
<mgrwt>
<rscale>  2 0.17376167E+03</rscale>
<asrwt>0</asrwt>
<pdfrwt beam="1">  1       21 0.55695427E-01 0.17376167E+03</pdfrwt>
<pdfrwt beam="2">  1       21 0.14931243E-01 0.17376167E+03</pdfrwt>
<totfact> 0.12096895E+05</totfact>
</mgrwt>
</event>
<event>
 4    1  0.4199484E+000  0.1863887E+03  0.7546771E-02  0.1161759E+00
         21   -1    0    0  501  502  0.00000000000E+00  0.00000000000E+00  0.58613204186E+03  0.58613204186E+03  0.00000000000E+00 0. -1.
         21   -1    0    0  502  503 -0.00000000000E+00 -0.00000000000E+00 -0.60889178889E+02  0.60889178889E+02  0.00000000000E+00 0.  1.
          6    1    1    2  501    0 -0.16606799161E+02 -0.67349517980E+02  0.20988553916E+03  0.28070034360E+03  0.17300000000E+03 0.  1.
         -6    1    1    2    0  503  0.16606799161E+02  0.67349517980E+02  0.31535732381E+03  0.36632087714E+03  0.17300000000E+03 0. -1.
<mgrwt>
<rscale>  2 0.18638869E+03</rscale>
<asrwt>0</asrwt>
<pdfrwt beam="1">  1       21 0.90174157E-01 0.18638869E+03</pdfrwt>
<pdfrwt beam="2">  1       21 0.93675664E-02 0.18638869E+03</pdfrwt>
<totfact> 0.95470718E+04</totfact>
</mgrwt>
</event>
<event>
 4    1  0.4199484E+000  0.1944340E+03  0.7546771E-02  0.1154522E+00
         21   -1    0    0  501  502  0.00000000000E+00  0.00000000000E+00  0.54201770931E+02  0.54201770931E+02  0.00000000000E+00 0. -1.
         21   -1    0    0  502  503 -0.00000000000E+00 -0.00000000000E+00 -0.96297699230E+03  0.96297699230E+03  0.00000000000E+00 0. -1.
          6    1    1    2  501    0 -0.12669571412E+02  0.87835455952E+02 -0.18733911907E+03  0.27000098314E+03  0.17300000000E+03 0. -1.
         -6    1    1    2    0  503  0.12669571412E+02 -0.87835455952E+02 -0.72143610230E+03  0.74717778009E+03  0.17300000000E+03 0. -1.
<mgrwt>
<rscale>  2 0.19443401E+03</rscale>
<asrwt>0</asrwt>
<pdfrwt beam="1">  1       21 0.83387345E-02 0.19443401E+03</pdfrwt>
<pdfrwt beam="2">  1       21 0.14815030E+00 0.19443401E+03</pdfrwt>
<totfact> 0.34437287E+04</totfact>
</mgrwt>
</event>
<event>
 4    1  0.4199484E+000  0.2791179E+03  0.7546771E-02  0.1096172E+00
         21   -1    0    0  503  502  0.00000000000E+00  0.00000000000E+00  0.30400139573E+03  0.30400139573E+03  0.00000000000E+00 0.  1.
         21   -1    0    0  501  503 -0.00000000000E+00 -0.00000000000E+00 -0.27593620582E+03  0.27593620582E+03  0.00000000000E+00 0. -1.
          6    1    1    2  501    0 -0.46604835979E+02 -0.21402292168E+03 -0.63376727902E+02  0.28622269543E+03  0.17300000000E+03 0. -1.
         -6    1    1    2    0  502  0.46604835979E+02  0.21402292168E+03  0.91441917812E+02  0.29371490612E+03  0.17300000000E+03 0.  1.
<mgrwt>
<rscale>  2 0.27911794E+03</rscale>
<asrwt>0</asrwt>
<pdfrwt beam="1">  1       21 0.46769445E-01 0.27911794E+03</pdfrwt>
<pdfrwt beam="2">  1       21 0.42451724E-01 0.27911794E+03</pdfrwt>
<totfact> 0.22375158E+04</totfact>
</mgrwt>
</event>
<event>
 4    1  0.4199484E+000  0.1931061E+03  0.7546771E-02  0.1155689E+00
         21   -1    0    0  501  502  0.00000000000E+00  0.00000000000E+00  0.11559037354E+03  0.11559037354E+03  0.00000000000E+00 0.  1.
         21   -1    0    0  502  503 -0.00000000000E+00 -0.00000000000E+00 -0.32534419676E+03  0.32534419676E+03  0.00000000000E+00 0.  1.
          6    1    1    2  501    0  0.76950579873E+02  0.37941729291E+02 -0.84645349288E+02  0.21084307368E+03  0.17300000000E+03 0.  1.
         -6    1    1    2    0  503 -0.76950579873E+02 -0.37941729291E+02 -0.12510847394E+03  0.23009149662E+03  0.17300000000E+03 0.  1.
<mgrwt>
<rscale>  2 0.19310610E+03</rscale>
<asrwt>0</asrwt>
<pdfrwt beam="1">  1       21 0.17783135E-01 0.19310610E+03</pdfrwt>
<pdfrwt beam="2">  1       21 0.50052953E-01 0.19310610E+03</pdfrwt>
<totfact> 0.10915168E+05</totfact>
</mgrwt>
</event>
<event>
 4    1  0.4199484E+000  0.1856198E+03  0.7546771E-02  0.1162472E+00
         21   -1    0    0  503  502  0.00000000000E+00  0.00000000000E+00  0.10989534372E+04  0.10989534372E+04  0.00000000000E+00 0. -1.
         21   -1    0    0  501  503 -0.00000000000E+00 -0.00000000000E+00 -0.14323796354E+03  0.14323796354E+03  0.00000000000E+00 0. -1.
          6    1    1    2  501    0 -0.17077294123E+01  0.67251831725E+02 -0.71071878109E+02  0.19876100490E+03  0.17300000000E+03 0. -1.
         -6    1    1    2    0  502  0.17077294123E+01 -0.67251831725E+02  0.10267873518E+04  0.10434303959E+04  0.17300000000E+03 0. -1.
<mgrwt>
<rscale>  2 0.18561984E+03</rscale>
<asrwt>0</asrwt>
<pdfrwt beam="1">  1       21 0.16906975E+00 0.18561984E+03</pdfrwt>
<pdfrwt beam="2">  1       21 0.22036611E-01 0.18561984E+03</pdfrwt>
<totfact> 0.41950103E+03</totfact>
</mgrwt>
</event>
<event>
 4    1  0.4199484E+000  0.2691905E+03  0.7546771E-02  0.1101744E+00
         21   -1    0    0  501  502  0.00000000000E+00  0.00000000000E+00  0.79375266038E+03  0.79375266038E+03  0.00000000000E+00 0. -1.
         21   -1    0    0  502  503 -0.00000000000E+00 -0.00000000000E+00 -0.23975071754E+03  0.23975071754E+03  0.00000000000E+00 0. -1.
          6    1    1    2  501    0  0.20406480500E+03 -0.29867616073E+02  0.68363557780E+03  0.73472520194E+03  0.17300000000E+03 0. -1.
         -6    1    1    2    0  503 -0.20406480500E+03  0.29867616073E+02 -0.12963363496E+03  0.29877817598E+03  0.17300000000E+03 0. -1.
<mgrwt>
<rscale>  2 0.26919049E+03</rscale>
<asrwt>0</asrwt>
<pdfrwt beam="1">  1       21 0.12211579E+00 0.26919049E+03</pdfrwt>
<pdfrwt beam="2">  1       21 0.36884726E-01 0.26919049E+03</pdfrwt>
<totfact> 0.33871317E+03</totfact>
</mgrwt>
</event>
<event>
 4    1  0.4199484E+000  0.1945772E+03  0.7546771E-02  0.1154397E+00
         21   -1    0    0  501  502  0.00000000000E+00  0.00000000000E+00  0.96777863658E+02  0.96777863658E+02  0.00000000000E+00 0. -1.
         21   -1    0    0  502  503 -0.00000000000E+00 -0.00000000000E+00 -0.59560837374E+03  0.59560837374E+03  0.00000000000E+00 0.  1.
          6    1    1    2  501    0 -0.87744800109E+02  0.15235911246E+02 -0.46610196352E+02  0.20008196656E+03  0.17300000000E+03 0. -1.
         -6    1    1    2    0  503  0.87744800109E+02 -0.15235911246E+02 -0.45222031373E+03  0.49230427084E+03  0.17300000000E+03 0.  1.
<mgrwt>
<rscale>  2 0.19457719E+03</rscale>
<asrwt>0</asrwt>
<pdfrwt beam="1">  1       21 0.14888902E-01 0.19457719E+03</pdfrwt>
<pdfrwt beam="2">  1       21 0.91632056E-01 0.19457719E+03</pdfrwt>
<totfact> 0.40029763E+04</totfact>
</mgrwt>
</event>
<event>
 4    1  0.4199484E+000  0.2579308E+03  0.7546771E-02  0.1108393E+00
         21   -1    0    0  503  502  0.00000000000E+00  0.00000000000E+00  0.21234699218E+03  0.21234699218E+03  0.00000000000E+00 0.  1.
         21   -1    0    0  501  503 -0.00000000000E+00 -0.00000000000E+00 -0.87432590077E+03  0.87432590077E+03  0.00000000000E+00 0.  1.
          6    1    1    2  501    0 -0.51130534400E+02 -0.18435018469E+03 -0.76622424599E+03  0.80847258289E+03  0.17300000000E+03 0.  1.
         -6    1    1    2    0  502  0.51130534400E+02  0.18435018469E+03  0.10424533740E+03  0.27820031005E+03  0.17300000000E+03 0.  1.
<mgrwt>
<rscale>  2 0.25793085E+03</rscale>
<asrwt>0</asrwt>
<pdfrwt beam="1">  1       21 0.32668767E-01 0.25793085E+03</pdfrwt>
<pdfrwt beam="2">  1       21 0.13451168E+00 0.25793085E+03</pdfrwt>
<totfact> 0.34005382E+03</totfact>
</mgrwt>
</event>
<event>
 4    1  0.4199484E+000  0.2012244E+03  0.7546771E-02  0.1148710E+00
         21   -1    0    0  501  502  0.00000000000E+00  0.00000000000E+00  0.88646225292E+02  0.88646225292E+02  0.00000000000E+00 0.  1.
         21   -1    0    0  502  503 -0.00000000000E+00 -0.00000000000E+00 -0.54404101273E+03  0.54404101273E+03  0.00000000000E+00 0.  1.
          6    1    1    2  501    0  0.79912478318E+02  0.64623906507E+02 -0.10099950906E+03  0.22514918235E+03  0.17300000000E+03 0.  1.
         -6    1    1    2    0  503 -0.79912478318E+02 -0.64623906507E+02 -0.35439527837E+03  0.40753805567E+03  0.17300000000E+03 0.  1.
<mgrwt>
<rscale>  2 0.20122439E+03</rscale>
<asrwt>0</asrwt>
<pdfrwt beam="1">  1       21 0.13637881E-01 0.20122439E+03</pdfrwt>
<pdfrwt beam="2">  1       21 0.83698617E-01 0.20122439E+03</pdfrwt>
<totfact> 0.57629683E+04</totfact>
</mgrwt>
</event>
<event>
 4    1  0.4199484E+000  0.1914391E+03  0.7546771E-02  0.1157170E+00
         21   -1    0    0  501  502  0.00000000000E+00  0.00000000000E+00  0.95142987746E+03  0.95142987746E+03  0.00000000000E+00 0.  1.
         21   -1    0    0  502  503 -0.00000000000E+00 -0.00000000000E+00 -0.73170783200E+02  0.73170783200E+02  0.00000000000E+00 0. -1.
          6    1    1    2  501    0 -0.32692562072E+02  0.75174036681E+02  0.79167346809E+03  0.81449114144E+03  0.17300000000E+03 0.  1.
         -6    1    1    2    0  503  0.32692562072E+02 -0.75174036681E+02  0.86585626161E+02  0.21010951921E+03  0.17300000000E+03 0. -1.
<mgrwt>
<rscale>  2 0.19143913E+03</rscale>
<asrwt>0</asrwt>
<pdfrwt beam="1">  1       21 0.14637382E+00 0.19143913E+03</pdfrwt>
<pdfrwt beam="2">  1       21 0.11257044E-01 0.19143913E+03</pdfrwt>
<totfact> 0.20980696E+04</totfact>
</mgrwt>
</event>
<event>
 4    1  0.4199484E+000  0.2188613E+03  0.7546771E-02  0.1134735E+00
         21   -1    0    0  501  502  0.00000000000E+00  0.00000000000E+00  0.10709289250E+04  0.10709289250E+04  0.00000000000E+00 0. -1.
         21   -1    0    0  502  503 -0.00000000000E+00 -0.00000000000E+00 -0.11818806865E+03  0.11818806865E+03  0.00000000000E+00 0.  1.
          6    1    1    2  501    0  0.12516998747E+03  0.47997317619E+02  0.94511267933E+03  0.97012279887E+03  0.17300000000E+03 0. -1.
         -6    1    1    2    0  503 -0.12516998747E+03 -0.47997317619E+02  0.76281770195E+01  0.21899419478E+03  0.17300000000E+03 0.  1.
<mgrwt>
<rscale>  2 0.21886130E+03</rscale>
<asrwt>0</asrwt>
<pdfrwt beam="1">  1       21 0.16475829E+00 0.21886130E+03</pdfrwt>
<pdfrwt beam="2">  1       21 0.18182781E-01 0.21886130E+03</pdfrwt>
<totfact> 0.62721991E+03</totfact>
</mgrwt>
</event>
<event>
 4    1  0.4199484E+000  0.2205445E+03  0.7546771E-02  0.1133478E+00
         21   -1    0    0  501  502  0.00000000000E+00  0.00000000000E+00  0.41008624155E+02  0.41008624155E+02  0.00000000000E+00 0.  1.
         21   -1    0    0  502  503 -0.00000000000E+00 -0.00000000000E+00 -0.15515790495E+04  0.15515790495E+04  0.00000000000E+00 0.  1.
          6    1    1    2  501    0  0.72005329960E+02  0.11630185677E+03 -0.36880789128E+03  0.42971985072E+03  0.17300000000E+03 0.  1.
         -6    1    1    2    0  503 -0.72005329960E+02 -0.11630185677E+03 -0.11417625341E+04  0.11628678229E+04  0.17300000000E+03 0.  1.
<mgrwt>
<rscale>  2 0.22054453E+03</rscale>
<asrwt>0</asrwt>
<pdfrwt beam="1">  1       21 0.63090204E-02 0.22054453E+03</pdfrwt>
<pdfrwt beam="2">  1       21 0.23870442E+00 0.22054453E+03</pdfrwt>
<totfact> 0.13700880E+04</totfact>
</mgrwt>
</event>
<event>
 4    1  0.4199484E+000  0.1814215E+03  0.7546771E-02  0.1166434E+00
         21   -1    0    0  503  502  0.00000000000E+00  0.00000000000E+00  0.34397151389E+03  0.34397151389E+03  0.00000000000E+00 0. -1.
         21   -1    0    0  501  503 -0.00000000000E+00 -0.00000000000E+00 -0.95736315039E+02  0.95736315039E+02  0.00000000000E+00 0. -1.
          6    1    1    2  501    0  0.52992720619E+02 -0.13286843851E+02  0.12908289133E+03  0.22265704905E+03  0.17300000000E+03 0.  1.
         -6    1    1    2    0  502 -0.52992720619E+02  0.13286843851E+02  0.11915230752E+03  0.21705077988E+03  0.17300000000E+03 0.  1.
<mgrwt>
<rscale>  2 0.18142152E+03</rscale>
<asrwt>0</asrwt>
<pdfrwt beam="1">  1       21 0.52918694E-01 0.18142152E+03</pdfrwt>
<pdfrwt beam="2">  1       21 0.14728664E-01 0.18142152E+03</pdfrwt>
<totfact> 0.13773631E+05</totfact>
</mgrwt>
</event>
<event>
 4    1  0.4199484E+000  0.1894990E+03  0.7546771E-02  0.1158914E+00
         21   -1    0    0  503  502  0.00000000000E+00  0.00000000000E+00  0.26110184173E+03  0.26110184173E+03  0.00000000000E+00 0. -1.
         21   -1    0    0  501  503 -0.00000000000E+00 -0.00000000000E+00 -0.13836789081E+03  0.13836789081E+03  0.00000000000E+00 0.  1.
          6    1    1    2  501    0 -0.46080963420E+02  0.62108081334E+02  0.45843084237E+02  0.19496527211E+03  0.17300000000E+03 0.  1.
         -6    1    1    2    0  502  0.46080963420E+02 -0.62108081334E+02  0.76890866677E+02  0.20450446043E+03  0.17300000000E+03 0.  1.
<mgrwt>
<rscale>  2 0.18949899E+03</rscale>
<asrwt>0</asrwt>
<pdfrwt beam="1">  1       21 0.40169514E-01 0.18949899E+03</pdfrwt>
<pdfrwt beam="2">  1       21 0.21287368E-01 0.18949899E+03</pdfrwt>
<totfact> 0.12279062E+05</totfact>
</mgrwt>
</event>
<event>
 4    1  0.4199484E+000  0.2661493E+03  0.7546771E-02  0.1103504E+00
         21   -1    0    0  501  502  0.00000000000E+00  0.00000000000E+00  0.52290290140E+03  0.52290290140E+03  0.00000000000E+00 0. -1.
         21   -1    0    0  502  503 -0.00000000000E+00 -0.00000000000E+00 -0.14245860660E+03  0.14245860660E+03  0.00000000000E+00 0.  1.
          6    1    1    2  501    0  0.16986804598E+02  0.20153879097E+03  0.26392945011E+03  0.37482554667E+03  0.17300000000E+03 0.  1.
         -6    1    1    2    0  503 -0.16986804598E+02 -0.20153879097E+03  0.11651484468E+03  0.29053596133E+03  0.17300000000E+03 0. -1.
<mgrwt>
<rscale>  2 0.26614927E+03</rscale>
<asrwt>0</asrwt>
<pdfrwt beam="1">  1       21 0.80446599E-01 0.26614927E+03</pdfrwt>
<pdfrwt beam="2">  1       21 0.21916709E-01 0.26614927E+03</pdfrwt>
<totfact> 0.25433886E+04</totfact>
</mgrwt>
</event>
<event>
 4    1  0.4199484E+000  0.1836765E+03  0.7546771E-02  0.1164292E+00
         21   -1    0    0  501  502  0.00000000000E+00  0.00000000000E+00  0.27918674346E+03  0.27918674346E+03  0.00000000000E+00 0. -1.
         21   -1    0    0  502  503 -0.00000000000E+00 -0.00000000000E+00 -0.34886935644E+03  0.34886935644E+03  0.00000000000E+00 0.  1.
          6    1    1    2  501    0 -0.33875736449E+02  0.51580004155E+02  0.21904071419E+03  0.28585992517E+03  0.17300000000E+03 0. -1.
         -6    1    1    2    0  503  0.33875736449E+02 -0.51580004155E+02 -0.28872332717E+03  0.34219617473E+03  0.17300000000E+03 0.  1.
<mgrwt>
<rscale>  2 0.18367652E+03</rscale>
<asrwt>0</asrwt>
<pdfrwt beam="1">  1       21 0.42951806E-01 0.18367652E+03</pdfrwt>
<pdfrwt beam="2">  1       21 0.53672209E-01 0.18367652E+03</pdfrwt>
<totfact> 0.17215072E+04</totfact>
</mgrwt>
</event>
<event>
 4    1  0.4199484E+000  0.2071168E+03  0.7546771E-02  0.1143870E+00
         21   -1    0    0  503  502  0.00000000000E+00  0.00000000000E+00  0.79593833153E+03  0.79593833153E+03  0.00000000000E+00 0. -1.
         21   -1    0    0  501  503 -0.00000000000E+00 -0.00000000000E+00 -0.83313343134E+02  0.83313343134E+02  0.00000000000E+00 0.  1.
          6    1    1    2  501    0 -0.99838685827E+02  0.54777965671E+02  0.95076917756E+02  0.22789692626E+03  0.17300000000E+03 0.  1.
         -6    1    1    2    0  502  0.99838685827E+02 -0.54777965671E+02  0.61754807064E+03  0.65135474840E+03  0.17300000000E+03 0. -1.
<mgrwt>
<rscale>  2 0.20711685E+03</rscale>
<asrwt>0</asrwt>
<pdfrwt beam="1">  1       21 0.12245205E+00 0.20711685E+03</pdfrwt>
<pdfrwt beam="2">  1       21 0.12817438E-01 0.20711685E+03</pdfrwt>
<totfact> 0.25956467E+04</totfact>
</mgrwt>
</event>
<event>
 4    1  0.4199484E+000  0.1994818E+03  0.7546771E-02  0.1150177E+00
         21   -1    0    0  503  502  0.00000000000E+00  0.00000000000E+00  0.90343239746E+03  0.90343239746E+03  0.00000000000E+00 0.  1.
         21   -1    0    0  501  503 -0.00000000000E+00 -0.00000000000E+00 -0.71120327892E+02  0.71120327892E+02  0.00000000000E+00 0. -1.
          6    1    1    2  501    0  0.68977172155E+02  0.71457206377E+02  0.11551118586E+03  0.23051207491E+03  0.17300000000E+03 0. -1.
         -6    1    1    2    0  502 -0.68977172155E+02 -0.71457206377E+02  0.71680088371E+03  0.74404065044E+03  0.17300000000E+03 0.  1.
<mgrwt>
<rscale>  2 0.19948179E+03</rscale>
<asrwt>0</asrwt>
<pdfrwt beam="1">  1       21 0.13898959E+00 0.19948179E+03</pdfrwt>
<pdfrwt beam="2">  1       21 0.10941590E-01 0.19948179E+03</pdfrwt>
<totfact> 0.25114766E+04</totfact>
</mgrwt>
</event>
<event>
 4    1  0.4199484E+000  0.2333083E+03  0.7546771E-02  0.1124333E+00
         21   -1    0    0  501  502  0.00000000000E+00  0.00000000000E+00  0.63569902992E+03  0.63569902992E+03  0.00000000000E+00 0. -1.
         21   -1    0    0  502  503 -0.00000000000E+00 -0.00000000000E+00 -0.26856118537E+03  0.26856118537E+03  0.00000000000E+00 0. -1.
          6    1    1    2  501    0 -0.69939160973E+02 -0.14004389996E+03  0.55672425533E+03  0.60363455552E+03  0.17300000000E+03 0. -1.
         -6    1    1    2    0  503  0.69939160973E+02  0.14004389996E+03 -0.18958641078E+03  0.30062565976E+03  0.17300000000E+03 0. -1.
<mgrwt>
<rscale>  2 0.23330834E+03</rscale>
<asrwt>0</asrwt>
<pdfrwt beam="1">  1       21 0.97799850E-01 0.23330834E+03</pdfrwt>
<pdfrwt beam="2">  1       21 0.41317106E-01 0.23330834E+03</pdfrwt>
<totfact> 0.47348160E+03</totfact>
</mgrwt>
</event>
<event>
 4    1  0.4199484E+000  0.1779986E+03  0.7546771E-02  0.1169754E+00
         21   -1    0    0  503  502  0.00000000000E+00  0.00000000000E+00  0.43224628152E+03  0.43224628152E+03  0.00000000000E+00 0.  1.
         21   -1    0    0  501  503 -0.00000000000E+00 -0.00000000000E+00 -0.17340802791E+03  0.17340802791E+03  0.00000000000E+00 0.  1.
          6    1    1    2  501    0 -0.36249920103E+02 -0.20987070887E+02 -0.10066961270E+03  0.20449421697E+03  0.17300000000E+03 0.  1.
         -6    1    1    2    0  502  0.36249920103E+02  0.20987070887E+02  0.35950786631E+03  0.40116009247E+03  0.17300000000E+03 0.  1.
<mgrwt>
<rscale>  2 0.17799863E+03</rscale>
<asrwt>0</asrwt>
<pdfrwt beam="1">  1       21 0.66499428E-01 0.17799863E+03</pdfrwt>
<pdfrwt beam="2">  1       21 0.26678158E-01 0.17799863E+03</pdfrwt>
<totfact> 0.27962030E+04</totfact>
</mgrwt>
</event>
<event>
 4    1  0.4199484E+000  0.2282810E+03  0.7546771E-02  0.1127856E+00
         21   -1    0    0  501  502  0.00000000000E+00  0.00000000000E+00  0.97837496698E+02  0.97837496698E+02  0.00000000000E+00 0.  1.
         21   -1    0    0  502  503 -0.00000000000E+00 -0.00000000000E+00 -0.57958434484E+03  0.57958434484E+03  0.00000000000E+00 0. -1.
          6    1    1    2  501    0  0.12552092849E+03  0.80173057223E+02 -0.14447725856E+03  0.27015902879E+03  0.17300000000E+03 0.  1.
         -6    1    1    2    0  503 -0.12552092849E+03 -0.80173057223E+02 -0.33726958958E+03  0.40726281275E+03  0.17300000000E+03 0.  1.
<mgrwt>
<rscale>  2 0.22828102E+03</rscale>
<asrwt>0</asrwt>
<pdfrwt beam="1">  1       21 0.15051923E-01 0.22828102E+03</pdfrwt>
<pdfrwt beam="2">  1       21 0.89166822E-01 0.22828102E+03</pdfrwt>
<totfact> 0.41099115E+04</totfact>
</mgrwt>
</event>
<event>
 4    1  0.4199484E+000  0.1895864E+03  0.7546771E-02  0.1158835E+00
         21   -1    0    0  503  502  0.00000000000E+00  0.00000000000E+00  0.52677975213E+03  0.52677975213E+03  0.00000000000E+00 0. -1.
         21   -1    0    0  501  503 -0.00000000000E+00 -0.00000000000E+00 -0.12312707002E+03  0.12312707002E+03  0.00000000000E+00 0. -1.
          6    1    1    2  501    0 -0.54564283329E+02  0.55106787090E+02 -0.15150123888E+02  0.19019081274E+03  0.17300000000E+03 0. -1.
         -6    1    1    2    0  502  0.54564283329E+02 -0.55106787090E+02  0.41880280600E+03  0.45971600941E+03  0.17300000000E+03 0. -1.
<mgrwt>
<rscale>  2 0.18958644E+03</rscale>
<asrwt>0</asrwt>
<pdfrwt beam="1">  1       21 0.81043037E-01 0.18958644E+03</pdfrwt>
<pdfrwt beam="2">  1       21 0.18942627E-01 0.18958644E+03</pdfrwt>
<totfact> 0.34170003E+04</totfact>
</mgrwt>
</event>
<event>
 4    1  0.4199484E+000  0.2443462E+03  0.7546771E-02  0.1116931E+00
         21   -1    0    0  503  502  0.00000000000E+00  0.00000000000E+00  0.97196557342E+02  0.97196557342E+02  0.00000000000E+00 0.  1.
         21   -1    0    0  501  503 -0.00000000000E+00 -0.00000000000E+00 -0.71560742387E+03  0.71560742387E+03  0.00000000000E+00 0.  1.
          6    1    1    2  501    0 -0.17243223106E+03  0.65712033264E+01 -0.46213820706E+03  0.52275881384E+03  0.17300000000E+03 0.  1.
         -6    1    1    2    0  502  0.17243223106E+03 -0.65712033264E+01 -0.15627265947E+03  0.29004516738E+03  0.17300000000E+03 0.  1.
<mgrwt>
<rscale>  2 0.24434618E+03</rscale>
<asrwt>0</asrwt>
<pdfrwt beam="1">  1       21 0.14953316E-01 0.24434618E+03</pdfrwt>
<pdfrwt beam="2">  1       21 0.11009345E+00 0.24434618E+03</pdfrwt>
<totfact> 0.24986272E+04</totfact>
</mgrwt>
</event>
<event>
 4    1  0.4199484E+000  0.2248978E+03  0.7546771E-02  0.1130283E+00
         21   -1    0    0  501  502  0.00000000000E+00  0.00000000000E+00  0.41240629499E+03  0.41240629499E+03  0.00000000000E+00 0. -1.
         21   -1    0    0  502  503 -0.00000000000E+00 -0.00000000000E+00 -0.14684095349E+03  0.14684095349E+03  0.00000000000E+00 0. -1.
          6    1    1    2  501    0  0.76307191795E+02  0.12176718041E+03  0.24629245635E+03  0.33352512319E+03  0.17300000000E+03 0.  1.
         -6    1    1    2    0  503 -0.76307191795E+02 -0.12176718041E+03  0.19272885147E+02  0.22572212529E+03  0.17300000000E+03 0.  1.
<mgrwt>
<rscale>  2 0.22489783E+03</rscale>
<asrwt>0</asrwt>
<pdfrwt beam="1">  1       21 0.63447122E-01 0.22489783E+03</pdfrwt>
<pdfrwt beam="2">  1       21 0.22590916E-01 0.22489783E+03</pdfrwt>
<totfact> 0.41508869E+04</totfact>
</mgrwt>
</event>
<event>
 4    1  0.4199484E+000  0.2072878E+03  0.7546771E-02  0.1143732E+00
         21   -1    0    0  503  502  0.00000000000E+00  0.00000000000E+00  0.50272531608E+03  0.50272531608E+03  0.00000000000E+00 0.  1.
         21   -1    0    0  501  503 -0.00000000000E+00 -0.00000000000E+00 -0.98240897950E+02  0.98240897950E+02  0.00000000000E+00 0.  1.
          6    1    1    2  501    0 -0.89542543785E+02  0.70861679424E+02  0.93905892805E+02  0.22756660885E+03  0.17300000000E+03 0.  1.
         -6    1    1    2    0  502  0.89542543785E+02 -0.70861679424E+02  0.31057852532E+03  0.37339960518E+03  0.17300000000E+03 0.  1.
<mgrwt>
<rscale>  2 0.20728783E+03</rscale>
<asrwt>0</asrwt>
<pdfrwt beam="1">  1       21 0.77342355E-01 0.20728783E+03</pdfrwt>
<pdfrwt beam="2">  1       21 0.15113985E-01 0.20728783E+03</pdfrwt>
<totfact> 0.57020081E+04</totfact>
</mgrwt>
</event>
<event>
 4    1  0.4199484E+000  0.1794858E+03  0.7546771E-02  0.1168302E+00
         21   -1    0    0  503  502  0.00000000000E+00  0.00000000000E+00  0.38303889129E+03  0.38303889129E+03  0.00000000000E+00 0.  1.
         21   -1    0    0  501  503 -0.00000000000E+00 -0.00000000000E+00 -0.94068380456E+02  0.94068380456E+02  0.00000000000E+00 0.  1.
          6    1    1    2  501    0  0.46845045457E+02  0.95757865497E+01  0.66845089935E+02  0.19152916232E+03  0.17300000000E+03 0.  1.
         -6    1    1    2    0  502 -0.46845045457E+02 -0.95757865497E+01  0.22212542089E+03  0.28557810942E+03  0.17300000000E+03 0.  1.
<mgrwt>
<rscale>  2 0.17948580E+03</rscale>
<asrwt>0</asrwt>
<pdfrwt beam="1">  1       21 0.58929059E-01 0.17948580E+03</pdfrwt>
<pdfrwt beam="2">  1       21 0.14472059E-01 0.17948580E+03</pdfrwt>
<totfact> 0.11330776E+05</totfact>
</mgrwt>
</event>
<event>
 4    1  0.4199484E+000  0.1828449E+03  0.7546771E-02  0.1165078E+00
         21   -1    0    0  501  502  0.00000000000E+00  0.00000000000E+00  0.63787859760E+03  0.63787859760E+03  0.00000000000E+00 0. -1.
         21   -1    0    0  502  503 -0.00000000000E+00 -0.00000000000E+00 -0.61563013386E+02  0.61563013386E+02  0.00000000000E+00 0. -1.
          6    1    1    2  501    0  0.51576808233E+02  0.29035774320E+02  0.42299365538E+03  0.46082087174E+03  0.17300000000E+03 0.  1.
         -6    1    1    2    0  503 -0.51576808233E+02 -0.29035774320E+02  0.15332192884E+03  0.23862073925E+03  0.17300000000E+03 0.  1.
<mgrwt>
<rscale>  2 0.18284486E+03</rscale>
<asrwt>0</asrwt>
<pdfrwt beam="1">  1       21 0.98135164E-01 0.18284486E+03</pdfrwt>
<pdfrwt beam="2">  1       21 0.94712333E-02 0.18284486E+03</pdfrwt>
<totfact> 0.76981969E+04</totfact>
</mgrwt>
</event>
<event>
 4    1  0.4199484E+000  0.2048980E+03  0.7546771E-02  0.1145671E+00
         21   -1    0    0  501  502  0.00000000000E+00  0.00000000000E+00  0.75537992789E+02  0.75537992789E+02  0.00000000000E+00 0.  1.
         21   -1    0    0  502  503 -0.00000000000E+00 -0.00000000000E+00 -0.68362892049E+03  0.68362892049E+03  0.00000000000E+00 0.  1.
          6    1    1    2  501    0 -0.69206671483E+02 -0.85232833866E+02 -0.13989957997E+03  0.24810298632E+03  0.17300000000E+03 0.  1.
         -6    1    1    2    0  503  0.69206671483E+02  0.85232833866E+02 -0.46819134773E+03  0.51106392696E+03  0.17300000000E+03 0.  1.
<mgrwt>
<rscale>  2 0.20489802E+03</rscale>
<asrwt>0</asrwt>
<pdfrwt beam="1">  1       21 0.11621229E-01 0.20489802E+03</pdfrwt>
<pdfrwt beam="2">  1       21 0.10517368E+00 0.20489802E+03</pdfrwt>
<totfact> 0.44930957E+04</totfact>
</mgrwt>
</event>
<event>
 4    1  0.4199484E+000  0.1765363E+03  0.7546771E-02  0.1171198E+00
         21   -1    0    0  503  502  0.00000000000E+00  0.00000000000E+00  0.17225365046E+04  0.17225365046E+04  0.00000000000E+00 0.  1.
         21   -1    0    0  501  503 -0.00000000000E+00 -0.00000000000E+00 -0.20996331066E+02  0.20996331066E+02  0.00000000000E+00 0.  1.
          6    1    1    2  501    0 -0.26198634831E+02 -0.23445808333E+02  0.52657195111E+03  0.55537653361E+03  0.17300000000E+03 0.  1.
         -6    1    1    2    0  502  0.26198634831E+02  0.23445808333E+02  0.11749682224E+04  0.11881563020E+04  0.17300000000E+03 0.  1.
<mgrwt>
<rscale>  2 0.17653633E+03</rscale>
<asrwt>0</asrwt>
<pdfrwt beam="1">  1       21 0.26500550E+00 0.17653633E+03</pdfrwt>
<pdfrwt beam="2">  1       21 0.32302061E-02 0.17653633E+03</pdfrwt>
<totfact> 0.30856993E+04</totfact>
</mgrwt>
</event>
<event>
 4    1  0.4199484E+000  0.2058290E+03  0.7546771E-02  0.1144912E+00
         21   -1    0    0  501  502  0.00000000000E+00  0.00000000000E+00  0.81430540537E+02  0.81430540537E+02  0.00000000000E+00 0. -1.
         21   -1    0    0  502  503 -0.00000000000E+00 -0.00000000000E+00 -0.54147202930E+03  0.54147202930E+03  0.00000000000E+00 0. -1.
          6    1    1    2  501    0  0.77572522010E+02 -0.80119266588E+02 -0.16838603928E+03  0.26593129051E+03  0.17300000000E+03 0. -1.
         -6    1    1    2    0  503 -0.77572522010E+02  0.80119266588E+02 -0.29165544949E+03  0.35697127933E+03  0.17300000000E+03 0. -1.
<mgrwt>
<rscale>  2 0.20582904E+03</rscale>
<asrwt>0</asrwt>
<pdfrwt beam="1">  1       21 0.12527776E-01 0.20582904E+03</pdfrwt>
<pdfrwt beam="2">  1       21 0.83303386E-01 0.20582904E+03</pdfrwt>
<totfact> 0.67747346E+04</totfact>
</mgrwt>
</event>
<event>
 4    1  0.4199484E+000  0.1883575E+03  0.7546771E-02  0.1159951E+00
         21   -1    0    0  501  502  0.00000000000E+00  0.00000000000E+00  0.20075114746E+02  0.20075114746E+02  0.00000000000E+00 0. -1.
         21   -1    0    0  502  503 -0.00000000000E+00 -0.00000000000E+00 -0.17880109684E+04  0.17880109684E+04  0.00000000000E+00 0.  1.
          6    1    1    2  501    0  0.13676771997E+02 -0.73228923960E+02 -0.78664401473E+03  0.80888029726E+03  0.17300000000E+03 0.  1.
         -6    1    1    2    0  503 -0.13676771997E+02  0.73228923960E+02 -0.98129183898E+03  0.99920578593E+03  0.17300000000E+03 0.  1.
<mgrwt>
<rscale>  2 0.18835745E+03</rscale>
<asrwt>0</asrwt>
<pdfrwt beam="1">  1       21 0.30884792E-02 0.18835745E+03</pdfrwt>
<pdfrwt beam="2">  1       21 0.27507861E+00 0.18835745E+03</pdfrwt>
<totfact> 0.28759372E+04</totfact>
</mgrwt>
</event>
<event>
 4    1  0.4199484E+000  0.2080204E+03  0.7546771E-02  0.1143143E+00
         21   -1    0    0  501  502  0.00000000000E+00  0.00000000000E+00  0.31806866179E+03  0.31806866179E+03  0.00000000000E+00 0.  1.
         21   -1    0    0  502  503 -0.00000000000E+00 -0.00000000000E+00 -0.18491253134E+03  0.18491253134E+03  0.00000000000E+00 0.  1.
          6    1    1    2  501    0  0.57121022270E+01 -0.11537274072E+03  0.19585973579E+03  0.28571582651E+03  0.17300000000E+03 0.  1.
         -6    1    1    2    0  503 -0.57121022270E+01  0.11537274072E+03 -0.62703605333E+02  0.21726536663E+03  0.17300000000E+03 0.  1.
<mgrwt>
<rscale>  2 0.20802043E+03</rscale>
<asrwt>0</asrwt>
<pdfrwt beam="1">  1       21 0.48933640E-01 0.20802043E+03</pdfrwt>
<pdfrwt beam="2">  1       21 0.28448082E-01 0.20802043E+03</pdfrwt>
<totfact> 0.46730155E+04</totfact>
</mgrwt>
</event>
<event>
 4    1  0.4199484E+000  0.2025520E+03  0.7546771E-02  0.1147604E+00
         21   -1    0    0  503  502  0.00000000000E+00  0.00000000000E+00  0.58213591200E+03  0.58213591200E+03  0.00000000000E+00 0. -1.
         21   -1    0    0  501  503 -0.00000000000E+00 -0.00000000000E+00 -0.18944251958E+03  0.18944251958E+03  0.00000000000E+00 0. -1.
          6    1    1    2  501    0 -0.68145610619E+02  0.80339774138E+02 -0.10937168968E+03  0.23019441796E+03  0.17300000000E+03 0. -1.
         -6    1    1    2    0  502  0.68145610619E+02 -0.80339774138E+02  0.50206508209E+03  0.54138401363E+03  0.17300000000E+03 0. -1.
<mgrwt>
<rscale>  2 0.20255198E+03</rscale>
<asrwt>0</asrwt>
<pdfrwt beam="1">  1       21 0.89559370E-01 0.20255198E+03</pdfrwt>
<pdfrwt beam="2">  1       21 0.29145003E-01 0.20255198E+03</pdfrwt>
<totfact> 0.11898268E+04</totfact>
</mgrwt>
</event>
<event>
 4    1  0.4199484E+000  0.1752528E+03  0.7546771E-02  0.1172478E+00
         21   -1    0    0  503  502  0.00000000000E+00  0.00000000000E+00  0.14052303351E+03  0.14052303351E+03  0.00000000000E+00 0. -1.
         21   -1    0    0  501  503 -0.00000000000E+00 -0.00000000000E+00 -0.22487869191E+03  0.22487869191E+03  0.00000000000E+00 0. -1.
          6    1    1    2  501    0  0.21621289520E+02  0.17806651557E+02 -0.72788568980E+02  0.18976757567E+03  0.17300000000E+03 0. -1.
         -6    1    1    2    0  502 -0.21621289520E+02 -0.17806651557E+02 -0.11567089424E+02  0.17563414975E+03  0.17300000000E+03 0. -1.
<mgrwt>
<rscale>  2 0.17525284E+03</rscale>
<asrwt>0</asrwt>
<pdfrwt beam="1">  1       21 0.21618928E-01 0.17525284E+03</pdfrwt>
<pdfrwt beam="2">  1       21 0.34596722E-01 0.17525284E+03</pdfrwt>
<totfact> 0.16151607E+05</totfact>
</mgrwt>
</event>
<event>
 4    1  0.4199484E+000  0.2269489E+03  0.7546771E-02  0.1128806E+00
         21   -1    0    0  503  502  0.00000000000E+00  0.00000000000E+00  0.18153548903E+03  0.18153548903E+03  0.00000000000E+00 0.  1.
         21   -1    0    0  501  503 -0.00000000000E+00 -0.00000000000E+00 -0.44357110892E+03  0.44357110892E+03  0.00000000000E+00 0. -1.
          6    1    1    2  501    0 -0.76276390108E+01  0.14669230118E+03 -0.31864512938E+03  0.39120395011E+03  0.17300000000E+03 0. -1.
         -6    1    1    2    0  502  0.76276390108E+01 -0.14669230118E+03  0.56609509487E+02  0.23390264784E+03  0.17300000000E+03 0.  1.
<mgrwt>
<rscale>  2 0.22694892E+03</rscale>
<asrwt>0</asrwt>
<pdfrwt beam="1">  1       21 0.27928537E-01 0.22694892E+03</pdfrwt>
<pdfrwt beam="2">  1       21 0.68241708E-01 0.22694892E+03</pdfrwt>
<totfact> 0.23537253E+04</totfact>
</mgrwt>
</event>
<event>
 4    1  0.4199484E+000  0.2031770E+03  0.7546771E-02  0.1147086E+00
         21   -1    0    0  503  502  0.00000000000E+00  0.00000000000E+00  0.40271512382E+03  0.40271512382E+03  0.00000000000E+00 0.  1.
         21   -1    0    0  501  503 -0.00000000000E+00 -0.00000000000E+00 -0.12051090650E+03  0.12051090650E+03  0.00000000000E+00 0.  1.
          6    1    1    2  501    0 -0.77945337002E+02  0.72639062188E+02  0.39982392530E+02  0.20707365991E+03  0.17300000000E+03 0.  1.
         -6    1    1    2    0  502  0.77945337002E+02 -0.72639062188E+02  0.24222182479E+03  0.31615237042E+03  0.17300000000E+03 0.  1.
<mgrwt>
<rscale>  2 0.20317704E+03</rscale>
<asrwt>0</asrwt>
<pdfrwt beam="1">  1       21 0.61956172E-01 0.20317704E+03</pdfrwt>
<pdfrwt beam="2">  1       21 0.18540140E-01 0.20317704E+03</pdfrwt>
<totfact> 0.63965821E+04</totfact>
</mgrwt>
</event>
<event>
 4    1  0.4199484E+000  0.2808976E+03  0.7546771E-02  0.1095200E+00
         21   -1    0    0  501  502  0.00000000000E+00  0.00000000000E+00  0.47335001097E+02  0.47335001097E+02  0.00000000000E+00 0. -1.
         21   -1    0    0  502  503 -0.00000000000E+00 -0.00000000000E+00 -0.16670163875E+04  0.16670163875E+04  0.00000000000E+00 0.  1.
          6    1    1    2  501    0 -0.16927245992E+03  0.14255282588E+03 -0.81649028503E+03  0.86345808202E+03  0.17300000000E+03 0. -1.
         -6    1    1    2    0  503  0.16927245992E+03 -0.14255282588E+03 -0.80319110134E+03  0.85089330654E+03  0.17300000000E+03 0. -1.
<mgrwt>
<rscale>  2 0.28089762E+03</rscale>
<asrwt>0</asrwt>
<pdfrwt beam="1">  1       21 0.72823091E-02 0.28089762E+03</pdfrwt>
<pdfrwt beam="2">  1       21 0.25646402E+00 0.28089762E+03</pdfrwt>
<totfact> 0.79987243E+03</totfact>
</mgrwt>
</event>
<event>
 4    1  0.4199484E+000  0.2476620E+03  0.7546771E-02  0.1114791E+00
         21   -1    0    0  503  502  0.00000000000E+00  0.00000000000E+00  0.25074543212E+03  0.25074543212E+03  0.00000000000E+00 0.  1.
         21   -1    0    0  501  503 -0.00000000000E+00 -0.00000000000E+00 -0.79225436667E+03  0.79225436667E+03  0.00000000000E+00 0.  1.
          6    1    1    2  501    0  0.22192008746E+02  0.17582659916E+03 -0.70433385743E+03  0.74660743430E+03  0.17300000000E+03 0.  1.
         -6    1    1    2    0  502 -0.22192008746E+02 -0.17582659916E+03  0.16282492287E+03  0.29639236450E+03  0.17300000000E+03 0.  1.
<mgrwt>
<rscale>  2 0.24766202E+03</rscale>
<asrwt>0</asrwt>
<pdfrwt beam="1">  1       21 0.38576221E-01 0.24766202E+03</pdfrwt>
<pdfrwt beam="2">  1       21 0.12188529E+00 0.24766202E+03</pdfrwt>
<totfact> 0.31532013E+03</totfact>
</mgrwt>
</event>
<event>
 4    1  0.4199484E+000  0.1857823E+03  0.7546771E-02  0.1162321E+00
         21   -1    0    0  503  502  0.00000000000E+00  0.00000000000E+00  0.68972801826E+02  0.68972801826E+02  0.00000000000E+00 0. -1.
         21   -1    0    0  501  503 -0.00000000000E+00 -0.00000000000E+00 -0.52292932731E+03  0.52292932731E+03  0.00000000000E+00 0.  1.
          6    1    1    2  501    0 -0.26445010025E+02 -0.62343641282E+02 -0.28838581784E+03  0.34304729717E+03  0.17300000000E+03 0. -1.
         -6    1    1    2    0  502  0.26445010025E+02  0.62343641282E+02 -0.16557070764E+03  0.24885483196E+03  0.17300000000E+03 0. -1.
<mgrwt>
<rscale>  2 0.18578231E+03</rscale>
<asrwt>0</asrwt>
<pdfrwt beam="1">  1       21 0.10611200E-01 0.18578231E+03</pdfrwt>
<pdfrwt beam="2">  1       21 0.80450666E-01 0.18578231E+03</pdfrwt>
<totfact> 0.99477925E+04</totfact>
</mgrwt>
</event>
<event>
 4    1  0.4199484E+000  0.2209255E+03  0.7546771E-02  0.1133195E+00
         21   -1    0    0  501  502  0.00000000000E+00  0.00000000000E+00  0.94153680101E+03  0.94153680101E+03  0.00000000000E+00 0.  1.
         21   -1    0    0  502  503 -0.00000000000E+00 -0.00000000000E+00 -0.87009646586E+02  0.87009646586E+02  0.00000000000E+00 0.  1.
          6    1    1    2  501    0 -0.13690234232E+03 -0.11696598402E+02  0.75422922099E+03  0.78591970299E+03  0.17300000000E+03 0.  1.
         -6    1    1    2    0  503  0.13690234232E+03  0.11696598402E+02  0.10029793343E+03  0.24262674461E+03  0.17300000000E+03 0.  1.
<mgrwt>
<rscale>  2 0.22092547E+03</rscale>
<asrwt>0</asrwt>
<pdfrwt beam="1">  1       21 0.14485181E+00 0.22092547E+03</pdfrwt>
<pdfrwt beam="2">  1       21 0.13386100E-01 0.22092547E+03</pdfrwt>
<totfact> 0.15495579E+04</totfact>
</mgrwt>
</event>
<event>
 4    1  0.4199484E+000  0.2004397E+03  0.7546771E-02  0.1149369E+00
         21   -1    0    0  503  502  0.00000000000E+00  0.00000000000E+00  0.20564750560E+03  0.20564750560E+03  0.00000000000E+00 0.  1.
         21   -1    0    0  501  503 -0.00000000000E+00 -0.00000000000E+00 -0.39854788978E+03  0.39854788978E+03  0.00000000000E+00 0.  1.
          6    1    1    2  501    0 -0.18280775847E+02 -0.99563557382E+02 -0.31215108974E+03  0.37096413782E+03  0.17300000000E+03 0.  1.
         -6    1    1    2    0  502  0.18280775847E+02  0.99563557382E+02  0.11925070556E+03  0.23323125755E+03  0.17300000000E+03 0.  1.
<mgrwt>
<rscale>  2 0.20043974E+03</rscale>
<asrwt>0</asrwt>
<pdfrwt beam="1">  1       21 0.31638078E-01 0.20043974E+03</pdfrwt>
<pdfrwt beam="2">  1       21 0.61315060E-01 0.20043974E+03</pdfrwt>
<totfact> 0.23644933E+04</totfact>
</mgrwt>
</event>
<event>
 4    1  0.4199484E+000  0.2536051E+03  0.7546771E-02  0.1111047E+00
         21   -1    0    0  501  502  0.00000000000E+00  0.00000000000E+00  0.50729257120E+03  0.50729257120E+03  0.00000000000E+00 0.  1.
         21   -1    0    0  502  503 -0.00000000000E+00 -0.00000000000E+00 -0.18855661675E+03  0.18855661675E+03  0.00000000000E+00 0.  1.
          6    1    1    2  501    0 -0.12773597313E+03 -0.13442489761E+03  0.35851302531E+03  0.43914362257E+03  0.17300000000E+03 0.  1.
         -6    1    1    2    0  503  0.12773597313E+03  0.13442489761E+03 -0.39777070855E+02  0.25670556538E+03  0.17300000000E+03 0.  1.
<mgrwt>
<rscale>  2 0.25360507E+03</rscale>
<asrwt>0</asrwt>
<pdfrwt beam="1">  1       21 0.78045010E-01 0.25360507E+03</pdfrwt>
<pdfrwt beam="2">  1       21 0.29008710E-01 0.25360507E+03</pdfrwt>
<totfact> 0.15977331E+04</totfact>
</mgrwt>
</event>
<event>
 4    1  0.4199484E+000  0.2145524E+03  0.7546771E-02  0.1138011E+00
         21   -1    0    0  503  502  0.00000000000E+00  0.00000000000E+00  0.28553243526E+03  0.28553243526E+03  0.00000000000E+00 0. -1.
         21   -1    0    0  501  503 -0.00000000000E+00 -0.00000000000E+00 -0.16296709235E+03  0.16296709235E+03  0.00000000000E+00 0. -1.
          6    1    1    2  501    0  0.60180967999E+02 -0.11172287192E+03  0.84519864231E+02  0.23059999235E+03  0.17300000000E+03 0. -1.
         -6    1    1    2    0  502 -0.60180967999E+02  0.11172287192E+03  0.38045478679E+02  0.21789953526E+03  0.17300000000E+03 0. -1.
<mgrwt>
<rscale>  2 0.21455244E+03</rscale>
<asrwt>0</asrwt>
<pdfrwt beam="1">  1       21 0.43928067E-01 0.21455244E+03</pdfrwt>
<pdfrwt beam="2">  1       21 0.25071860E-01 0.21455244E+03</pdfrwt>
<totfact> 0.74293557E+04</totfact>
</mgrwt>
</event>
<event>
 4    1  0.4199484E+000  0.3130923E+03  0.7546771E-02  0.1078873E+00
         21   -1    0    0  501  502  0.00000000000E+00  0.00000000000E+00  0.77809098764E+03  0.77809098764E+03  0.00000000000E+00 0.  1.
         21   -1    0    0  502  503 -0.00000000000E+00 -0.00000000000E+00 -0.22844757663E+03  0.22844757663E+03  0.00000000000E+00 0. -1.
          6    1    1    2  501    0  0.25485933281E+03 -0.56076068546E+02  0.61187026342E+03  0.68732235832E+03  0.17300000000E+03 0.  1.
         -6    1    1    2    0  503 -0.25485933281E+03  0.56076068546E+02 -0.62226852404E+02  0.31921620595E+03  0.17300000000E+03 0. -1.
<mgrwt>
<rscale>  2 0.31309233E+03</rscale>
<asrwt>0</asrwt>
<pdfrwt beam="1">  1       21 0.11970630E+00 0.31309233E+03</pdfrwt>
<pdfrwt beam="2">  1       21 0.35145781E-01 0.31309233E+03</pdfrwt>
<totfact> 0.38278316E+03</totfact>
</mgrwt>
</event>
<event>
 4    1  0.4199484E+000  0.2544654E+03  0.7546771E-02  0.1110515E+00
         21   -1    0    0  503  502  0.00000000000E+00  0.00000000000E+00  0.46433658719E+03  0.46433658719E+03  0.00000000000E+00 0. -1.
         21   -1    0    0  501  503 -0.00000000000E+00 -0.00000000000E+00 -0.30719885845E+03  0.30719885845E+03  0.00000000000E+00 0. -1.
          6    1    1    2  501    0  0.12350817439E+03 -0.13989050105E+03 -0.20649581508E+03  0.32770893041E+03  0.17300000000E+03 0. -1.
         -6    1    1    2    0  502 -0.12350817439E+03  0.13989050105E+03  0.36363354383E+03  0.44382651523E+03  0.17300000000E+03 0. -1.
<mgrwt>
<rscale>  2 0.25446536E+03</rscale>
<asrwt>0</asrwt>
<pdfrwt beam="1">  1       21 0.71436398E-01 0.25446536E+03</pdfrwt>
<pdfrwt beam="2">  1       21 0.47261363E-01 0.25446536E+03</pdfrwt>
<totfact> 0.72877981E+03</totfact>
</mgrwt>
</event>
<event>
 4    1  0.4199484E+000  0.1896523E+03  0.7546771E-02  0.1158775E+00
         21   -1    0    0  503  502  0.00000000000E+00  0.00000000000E+00  0.37608790105E+03  0.37608790105E+03  0.00000000000E+00 0. -1.
         21   -1    0    0  501  503 -0.00000000000E+00 -0.00000000000E+00 -0.10128660031E+03  0.10128660031E+03  0.00000000000E+00 0. -1.
          6    1    1    2  501    0 -0.66505382908E+02  0.40199975716E+02  0.81029959433E+02  0.20623738344E+03  0.17300000000E+03 0. -1.
         -6    1    1    2    0  502  0.66505382908E+02 -0.40199975716E+02  0.19377134130E+03  0.27113711792E+03  0.17300000000E+03 0. -1.
<mgrwt>
<rscale>  2 0.18965232E+03</rscale>
<asrwt>0</asrwt>
<pdfrwt beam="1">  1       21 0.57859676E-01 0.18965232E+03</pdfrwt>
<pdfrwt beam="2">  1       21 0.15582554E-01 0.18965232E+03</pdfrwt>
<totfact> 0.10261178E+05</totfact>
</mgrwt>
</event>
<event>
 4    1  0.4199484E+000  0.2612502E+03  0.7546771E-02  0.1106394E+00
         21   -1    0    0  501  502  0.00000000000E+00  0.00000000000E+00  0.83555001243E+03  0.83555001243E+03  0.00000000000E+00 0. -1.
         21   -1    0    0  502  503 -0.00000000000E+00 -0.00000000000E+00 -0.88050736998E+02  0.88050736998E+02  0.00000000000E+00 0.  1.
          6    1    1    2  501    0  0.18151913919E+03 -0.73303803576E+02  0.49792133899E+03  0.56229645680E+03  0.17300000000E+03 0. -1.
         -6    1    1    2    0  503 -0.18151913919E+03  0.73303803576E+02  0.24957793645E+03  0.36130429263E+03  0.17300000000E+03 0.  1.
<mgrwt>
<rscale>  2 0.26125016E+03</rscale>
<asrwt>0</asrwt>
<pdfrwt beam="1">  1       21 0.12854615E+00 0.26125016E+03</pdfrwt>
<pdfrwt beam="2">  1       21 0.13546268E-01 0.26125016E+03</pdfrwt>
<totfact> 0.20178130E+04</totfact>
</mgrwt>
</event>
<event>
 4    1  0.4199484E+000  0.2051386E+03  0.7546771E-02  0.1145475E+00
         21   -1    0    0  501  502  0.00000000000E+00  0.00000000000E+00  0.70567041179E+03  0.70567041179E+03  0.00000000000E+00 0.  1.
         21   -1    0    0  502  503 -0.00000000000E+00 -0.00000000000E+00 -0.82369047501E+02  0.82369047501E+02  0.00000000000E+00 0. -1.
          6    1    1    2  501    0 -0.10956939007E+03  0.12139778169E+02  0.51865793235E+03  0.55775252240E+03  0.17300000000E+03 0.  1.
         -6    1    1    2    0  503  0.10956939007E+03 -0.12139778169E+02  0.10464343194E+03  0.23028693689E+03  0.17300000000E+03 0. -1.
<mgrwt>
<rscale>  2 0.20513855E+03</rscale>
<asrwt>0</asrwt>
<pdfrwt beam="1">  1       21 0.10856467E+00 0.20513855E+03</pdfrwt>
<pdfrwt beam="2">  1       21 0.12672162E-01 0.20513855E+03</pdfrwt>
<totfact> 0.35630135E+04</totfact>
</mgrwt>
</event>
<event>
 4    1  0.4199484E+000  0.2176611E+03  0.7546771E-02  0.1135639E+00
         21   -1    0    0  503  502  0.00000000000E+00  0.00000000000E+00  0.18126534515E+04  0.18126534515E+04  0.00000000000E+00 0. -1.
         21   -1    0    0  501  503 -0.00000000000E+00 -0.00000000000E+00 -0.72405102052E+02  0.72405102052E+02  0.00000000000E+00 0.  1.
          6    1    1    2  501    0  0.75830706638E+02  0.10815300757E+03  0.11667566719E+03  0.24696068600E+03  0.17300000000E+03 0.  1.
         -6    1    1    2    0  502 -0.75830706638E+02 -0.10815300757E+03  0.16235726822E+04  0.16380978675E+04  0.17300000000E+03 0. -1.
<mgrwt>
<rscale>  2 0.21766113E+03</rscale>
<asrwt>0</asrwt>
<pdfrwt beam="1">  1       21 0.27886973E+00 0.21766113E+03</pdfrwt>
<pdfrwt beam="2">  1       21 0.11139248E-01 0.21766113E+03</pdfrwt>
<totfact> 0.29442863E+03</totfact>
</mgrwt>
</event>
<event>
 4    1  0.4199484E+000  0.2218655E+03  0.7546771E-02  0.1132500E+00
         21   -1    0    0  501  502  0.00000000000E+00  0.00000000000E+00  0.43328967025E+02  0.43328967025E+02  0.00000000000E+00 0.  1.
         21   -1    0    0  502  503 -0.00000000000E+00 -0.00000000000E+00 -0.12350958562E+04  0.12350958562E+04  0.00000000000E+00 0. -1.
          6    1    1    2  501    0  0.13877605072E+03 -0.60439625430E+01 -0.41487855165E+03  0.47047692223E+03  0.17300000000E+03 0.  1.
         -6    1    1    2    0  503 -0.13877605072E+03  0.60439625430E+01 -0.77688833756E+03  0.80794790102E+03  0.17300000000E+03 0. -1.
<mgrwt>
<rscale>  2 0.22186555E+03</rscale>
<asrwt>0</asrwt>
<pdfrwt beam="1">  1       21 0.66659959E-02 0.22186555E+03</pdfrwt>
<pdfrwt beam="2">  1       21 0.19001472E+00 0.22186555E+03</pdfrwt>
<totfact> 0.25152528E+04</totfact>
</mgrwt>
</event>
<event>
 4    1  0.4199484E+000  0.2031864E+03  0.7546771E-02  0.1147078E+00
         21   -1    0    0  503  502  0.00000000000E+00  0.00000000000E+00  0.10649022160E+03  0.10649022160E+03  0.00000000000E+00 0.  1.
         21   -1    0    0  501  503 -0.00000000000E+00 -0.00000000000E+00 -0.69755411566E+03  0.69755411566E+03  0.00000000000E+00 0.  1.
          6    1    1    2  501    0 -0.98514389258E+02  0.40627837467E+02 -0.56347956633E+03  0.59899409658E+03  0.17300000000E+03 0.  1.
         -6    1    1    2    0  502  0.98514389258E+02 -0.40627837467E+02 -0.27584327728E+02  0.20505024068E+03  0.17300000000E+03 0.  1.
<mgrwt>
<rscale>  2 0.20318638E+03</rscale>
<asrwt>0</asrwt>
<pdfrwt beam="1">  1       21 0.16383111E-01 0.20318638E+03</pdfrwt>
<pdfrwt beam="2">  1       21 0.10731602E+00 0.20318638E+03</pdfrwt>
<totfact> 0.22998478E+04</totfact>
</mgrwt>
</event>
<event>
 4    1  0.4199484E+000  0.2007275E+03  0.7546771E-02  0.1149127E+00
         21   -1    0    0  501  502  0.00000000000E+00  0.00000000000E+00  0.24018260495E+03  0.24018260495E+03  0.00000000000E+00 0.  1.
         21   -1    0    0  502  503 -0.00000000000E+00 -0.00000000000E+00 -0.17933418004E+03  0.17933418004E+03  0.00000000000E+00 0.  1.
          6    1    1    2  501    0 -0.82008726742E+02  0.60308455784E+02  0.83726947685E+02  0.21748963853E+03  0.17300000000E+03 0.  1.
         -6    1    1    2    0  503  0.82008726742E+02 -0.60308455784E+02 -0.22878522779E+02  0.20202714646E+03  0.17300000000E+03 0.  1.
<mgrwt>
<rscale>  2 0.20072753E+03</rscale>
<asrwt>0</asrwt>
<pdfrwt beam="1">  1       21 0.36951170E-01 0.20072753E+03</pdfrwt>
<pdfrwt beam="2">  1       21 0.27589874E-01 0.20072753E+03</pdfrwt>
<totfact> 0.88248952E+04</totfact>
</mgrwt>
</event>
<event>
 4    1  0.4199484E+000  0.2120403E+03  0.7546771E-02  0.1139960E+00
         21   -1    0    0  503  502  0.00000000000E+00  0.00000000000E+00  0.80986853271E+02  0.80986853271E+02  0.00000000000E+00 0. -1.
         21   -1    0    0  501  503 -0.00000000000E+00 -0.00000000000E+00 -0.91932219625E+03  0.91932219625E+03  0.00000000000E+00 0. -1.
          6    1    1    2  501    0 -0.11011904293E+03 -0.53906266106E+02 -0.73395309234E+03  0.76396873686E+03  0.17300000000E+03 0. -1.
         -6    1    1    2    0  502  0.11011904293E+03  0.53906266106E+02 -0.10438225064E+03  0.23634031267E+03  0.17300000000E+03 0. -1.
<mgrwt>
<rscale>  2 0.21204030E+03</rscale>
<asrwt>0</asrwt>
<pdfrwt beam="1">  1       21 0.12459516E-01 0.21204030E+03</pdfrwt>
<pdfrwt beam="2">  1       21 0.14143419E+00 0.21204030E+03</pdfrwt>
<totfact> 0.18877430E+04</totfact>
</mgrwt>
</event>
<event>
 4    1  0.4199484E+000  0.2255980E+03  0.7546771E-02  0.1129777E+00
         21   -1    0    0  501  502  0.00000000000E+00  0.00000000000E+00  0.38599844048E+03  0.38599844048E+03  0.00000000000E+00 0. -1.
         21   -1    0    0  502  503 -0.00000000000E+00 -0.00000000000E+00 -0.30291094168E+03  0.30291094168E+03  0.00000000000E+00 0.  1.
          6    1    1    2  501    0  0.19851148806E+02  0.14342722736E+03  0.30039380687E+03  0.37567389697E+03  0.17300000000E+03 0. -1.
         -6    1    1    2    0  503 -0.19851148806E+02 -0.14342722736E+03 -0.21730630807E+03  0.31323548519E+03  0.17300000000E+03 0.  1.
<mgrwt>
<rscale>  2 0.22559796E+03</rscale>
<asrwt>0</asrwt>
<pdfrwt beam="1">  1       21 0.59384376E-01 0.22559796E+03</pdfrwt>
<pdfrwt beam="2">  1       21 0.46601683E-01 0.22559796E+03</pdfrwt>
<totfact> 0.11436737E+04</totfact>
</mgrwt>
</event>
<event>
 4    1  0.4199484E+000  0.2261662E+03  0.7546771E-02  0.1129368E+00
         21   -1    0    0  503  502  0.00000000000E+00  0.00000000000E+00  0.11985507053E+04  0.11985507053E+04  0.00000000000E+00 0.  1.
         21   -1    0    0  501  503 -0.00000000000E+00 -0.00000000000E+00 -0.55217026351E+02  0.55217026351E+02  0.00000000000E+00 0. -1.
          6    1    1    2  501    0 -0.65740024640E+02 -0.13000151267E+03  0.27292833446E+03  0.35445877037E+03  0.17300000000E+03 0. -1.
         -6    1    1    2    0  502  0.65740024640E+02  0.13000151267E+03  0.87040534448E+03  0.89930896128E+03  0.17300000000E+03 0.  1.
<mgrwt>
<rscale>  2 0.22616619E+03</rscale>
<asrwt>0</asrwt>
<pdfrwt beam="1">  1       21 0.18439240E+00 0.22616619E+03</pdfrwt>
<pdfrwt beam="2">  1       21 0.84949280E-02 0.22616619E+03</pdfrwt>
<totfact> 0.17935444E+04</totfact>
</mgrwt>
</event>
<event>
 4    1  0.4199484E+000  0.1747032E+03  0.7546771E-02  0.1173030E+00
         21   -1    0    0  501  502  0.00000000000E+00  0.00000000000E+00  0.13325737647E+03  0.13325737647E+03  0.00000000000E+00 0.  1.
         21   -1    0    0  502  503 -0.00000000000E+00 -0.00000000000E+00 -0.23370396685E+03  0.23370396685E+03  0.00000000000E+00 0.  1.
          6    1    1    2  501    0 -0.11050608705E+02 -0.21681645762E+02 -0.24302047853E+02  0.17638537140E+03  0.17300000000E+03 0.  1.
         -6    1    1    2    0  503  0.11050608705E+02  0.21681645762E+02 -0.76144542526E+02  0.19057597192E+03  0.17300000000E+03 0.  1.
<mgrwt>
<rscale>  2 0.17470320E+03</rscale>
<asrwt>0</asrwt>
<pdfrwt beam="1">  1       21 0.20501135E-01 0.17470320E+03</pdfrwt>
<pdfrwt beam="2">  1       21 0.35954456E-01 0.17470320E+03</pdfrwt>
<totfact> 0.16532259E+05</totfact>
</mgrwt>
</event>
<event>
 4    1  0.4199484E+000  0.1959674E+03  0.7546771E-02  0.1153187E+00
         21   -1    0    0  503  502  0.00000000000E+00  0.00000000000E+00  0.60284517386E+03  0.60284517386E+03  0.00000000000E+00 0.  1.
         21   -1    0    0  501  503 -0.00000000000E+00 -0.00000000000E+00 -0.68686964168E+03  0.68686964168E+03  0.00000000000E+00 0. -1.
          6    1    1    2  501    0  0.87408834845E+02 -0.28877437392E+02 -0.65623871430E+03  0.68487404751E+03  0.17300000000E+03 0. -1.
         -6    1    1    2    0  502 -0.87408834845E+02  0.28877437392E+02  0.57221424648E+03  0.60484076803E+03  0.17300000000E+03 0.  1.
<mgrwt>
<rscale>  2 0.19596737E+03</rscale>
<asrwt>0</asrwt>
<pdfrwt beam="1">  1       21 0.92745412E-01 0.19596737E+03</pdfrwt>
<pdfrwt beam="2">  1       21 0.10567225E+00 0.19596737E+03</pdfrwt>
<totfact> 0.70249477E+02</totfact>
</mgrwt>
</event>
<event>
 4    1  0.4199484E+000  0.2122911E+03  0.7546771E-02  0.1139764E+00
         21   -1    0    0  501  502  0.00000000000E+00  0.00000000000E+00  0.30694515200E+03  0.30694515200E+03  0.00000000000E+00 0. -1.
         21   -1    0    0  502  503 -0.00000000000E+00 -0.00000000000E+00 -0.14850496305E+03  0.14850496305E+03  0.00000000000E+00 0. -1.
          6    1    1    2  501    0 -0.42624635875E+02 -0.11541938615E+03  0.10343459338E+03  0.23614870186E+03  0.17300000000E+03 0.  1.
         -6    1    1    2    0  503  0.42624635875E+02  0.11541938615E+03  0.55005595569E+02  0.21930141319E+03  0.17300000000E+03 0.  1.
<mgrwt>
<rscale>  2 0.21229106E+03</rscale>
<asrwt>0</asrwt>
<pdfrwt beam="1">  1       21 0.47222331E-01 0.21229106E+03</pdfrwt>
<pdfrwt beam="2">  1       21 0.22846918E-01 0.21229106E+03</pdfrwt>
<totfact> 0.76469170E+04</totfact>
</mgrwt>
</event>
<event>
 4    1  0.4199484E+000  0.4216078E+03  0.7546771E-02  0.1036544E+00
         21   -1    0    0  501  502  0.00000000000E+00  0.00000000000E+00  0.10832487117E+04  0.10832487117E+04  0.00000000000E+00 0.  1.
         21   -1    0    0  502  503 -0.00000000000E+00 -0.00000000000E+00 -0.17218164901E+03  0.17218164901E+03  0.00000000000E+00 0.  1.
          6    1    1    2  501    0  0.31590166633E+03  0.21915813768E+03  0.59158918136E+03  0.72645090103E+03  0.17300000000E+03 0.  1.
         -6    1    1    2    0  503 -0.31590166633E+03 -0.21915813768E+03  0.31947788134E+03  0.52897945969E+03  0.17300000000E+03 0.  1.
<mgrwt>
<rscale>  2 0.42160782E+03</rscale>
<asrwt>0</asrwt>
<pdfrwt beam="1">  1       21 0.16665364E+00 0.42160782E+03</pdfrwt>
<pdfrwt beam="2">  1       21 0.26489485E-01 0.42160782E+03</pdfrwt>
<totfact> 0.26496930E+03</totfact>
</mgrwt>
</event>
<event>
 4    1  0.4199484E+000  0.1802835E+03  0.7546771E-02  0.1167529E+00
         21   -1    0    0  503  502  0.00000000000E+00  0.00000000000E+00  0.31241832757E+02  0.31241832757E+02  0.00000000000E+00 0. -1.
         21   -1    0    0  501  503 -0.00000000000E+00 -0.00000000000E+00 -0.10623323888E+04  0.10623323888E+04  0.00000000000E+00 0.  1.
          6    1    1    2  501    0  0.35213797607E+02 -0.36512070818E+02 -0.59421718115E+03  0.62096392909E+03  0.17300000000E+03 0.  1.
         -6    1    1    2    0  502 -0.35213797607E+02  0.36512070818E+02 -0.43687337491E+03  0.47261029249E+03  0.17300000000E+03 0. -1.
<mgrwt>
<rscale>  2 0.18028351E+03</rscale>
<asrwt>0</asrwt>
<pdfrwt beam="1">  1       21 0.48064350E-02 0.18028351E+03</pdfrwt>
<pdfrwt beam="2">  1       21 0.16343578E+00 0.18028351E+03</pdfrwt>
<totfact> 0.68803744E+04</totfact>
</mgrwt>
</event>
<event>
 4    1  0.4199484E+000  0.1915199E+03  0.7546771E-02  0.1157098E+00
         21   -1    0    0  501  502  0.00000000000E+00  0.00000000000E+00  0.22738245891E+03  0.22738245891E+03  0.00000000000E+00 0.  1.
         21   -1    0    0  502  503 -0.00000000000E+00 -0.00000000000E+00 -0.19422964281E+03  0.19422964281E+03  0.00000000000E+00 0.  1.
          6    1    1    2  501    0  0.81801102067E+02 -0.77092971160E+01  0.10335847318E+03  0.21763002444E+03  0.17300000000E+03 0.  1.
         -6    1    1    2    0  503 -0.81801102067E+02  0.77092971160E+01 -0.70205657081E+02  0.20398207727E+03  0.17300000000E+03 0.  1.
<mgrwt>
<rscale>  2 0.19151985E+03</rscale>
<asrwt>0</asrwt>
<pdfrwt beam="1">  1       21 0.34981917E-01 0.19151985E+03</pdfrwt>
<pdfrwt beam="2">  1       21 0.29881483E-01 0.19151985E+03</pdfrwt>
<totfact> 0.84635827E+04</totfact>
</mgrwt>
</event>
<event>
 4    1  0.4199484E+000  0.2410320E+03  0.7546771E-02  0.1119107E+00
         21   -1    0    0  503  502  0.00000000000E+00  0.00000000000E+00  0.99532975071E+03  0.99532975071E+03  0.00000000000E+00 0.  1.
         21   -1    0    0  501  503 -0.00000000000E+00 -0.00000000000E+00 -0.79600572089E+02  0.79600572089E+02  0.00000000000E+00 0.  1.
          6    1    1    2  501    0  0.17923492724E+02  0.16687175355E+03  0.18028790962E+03  0.30099861142E+03  0.17300000000E+03 0.  1.
         -6    1    1    2    0  502 -0.17923492724E+02 -0.16687175355E+03  0.73544126901E+03  0.77393171138E+03  0.17300000000E+03 0.  1.
<mgrwt>
<rscale>  2 0.24103202E+03</rscale>
<asrwt>0</asrwt>
<pdfrwt beam="1">  1       21 0.15312765E+00 0.24103202E+03</pdfrwt>
<pdfrwt beam="2">  1       21 0.12246243E-01 0.24103202E+03</pdfrwt>
<totfact> 0.15517585E+04</totfact>
</mgrwt>
</event>
<event>
 4    1  0.4199484E+000  0.3006884E+03  0.7546771E-02  0.1084897E+00
         21   -1    0    0  503  502  0.00000000000E+00  0.00000000000E+00  0.34021316974E+04  0.34021316974E+04  0.00000000000E+00 0.  1.
         21   -1    0    0  501  503 -0.00000000000E+00 -0.00000000000E+00 -0.27657599177E+02  0.27657599177E+02  0.00000000000E+00 0. -1.
          6    1    1    2  501    0  0.17186542507E+03  0.17591706286E+03  0.13480394705E+04  0.13811676044E+04  0.17300000000E+03 0. -1.
         -6    1    1    2    0  502 -0.17186542507E+03 -0.17591706286E+03  0.20264346277E+04  0.20486216922E+04  0.17300000000E+03 0.  1.
<mgrwt>
<rscale>  2 0.30068844E+03</rscale>
<asrwt>0</asrwt>
<pdfrwt beam="1">  1       21 0.52340454E+00 0.30068844E+03</pdfrwt>
<pdfrwt beam="2">  1       21 0.42550180E-02 0.30068844E+03</pdfrwt>
<totfact> 0.39491937E+02</totfact>
</mgrwt>
</event>
<event>
 4    1  0.4199484E+000  0.1928954E+03  0.7546771E-02  0.1155875E+00
         21   -1    0    0  503  502  0.00000000000E+00  0.00000000000E+00  0.15915604457E+03  0.15915604457E+03  0.00000000000E+00 0.  1.
         21   -1    0    0  501  503 -0.00000000000E+00 -0.00000000000E+00 -0.47929566366E+03  0.47929566366E+03  0.00000000000E+00 0.  1.
          6    1    1    2  501    0 -0.54189639367E+02  0.65902364972E+02 -0.38854002044E+03  0.43378795074E+03  0.17300000000E+03 0.  1.
         -6    1    1    2    0  502  0.54189639367E+02 -0.65902364972E+02  0.68400401353E+02  0.20466375749E+03  0.17300000000E+03 0.  1.
<mgrwt>
<rscale>  2 0.19289541E+03</rscale>
<asrwt>0</asrwt>
<pdfrwt beam="1">  1       21 0.24485546E-01 0.19289541E+03</pdfrwt>
<pdfrwt beam="2">  1       21 0.73737793E-01 0.19289541E+03</pdfrwt>
<totfact> 0.26020707E+04</totfact>
</mgrwt>
</event>
<event>
 4    1  0.4199484E+000  0.2127093E+03  0.7546771E-02  0.1139438E+00
         21   -1    0    0  503  502  0.00000000000E+00  0.00000000000E+00  0.42352106412E+03  0.42352106412E+03  0.00000000000E+00 0.  1.
         21   -1    0    0  501  503 -0.00000000000E+00 -0.00000000000E+00 -0.11602323821E+03  0.11602323821E+03  0.00000000000E+00 0.  1.
          6    1    1    2  501    0  0.39442590097E+02  0.11730528997E+03  0.77815775456E+02  0.22649623370E+03  0.17300000000E+03 0.  1.
         -6    1    1    2    0  502 -0.39442590097E+02 -0.11730528997E+03  0.22968205046E+03  0.31304806863E+03  0.17300000000E+03 0.  1.
<mgrwt>
<rscale>  2 0.21270931E+03</rscale>
<asrwt>0</asrwt>
<pdfrwt beam="1">  1       21 0.65157086E-01 0.21270931E+03</pdfrwt>
<pdfrwt beam="2">  1       21 0.17849729E-01 0.21270931E+03</pdfrwt>
<totfact> 0.61250265E+04</totfact>
</mgrwt>
</event>
<event>
 4    1  0.4199484E+000  0.2142951E+03  0.7546771E-02  0.1138209E+00
         21   -1    0    0  503  502  0.00000000000E+00  0.00000000000E+00  0.98008232548E+03  0.98008232548E+03  0.00000000000E+00 0.  1.
         21   -1    0    0  501  503 -0.00000000000E+00 -0.00000000000E+00 -0.61037211839E+02  0.61037211839E+02  0.00000000000E+00 0.  1.
          6    1    1    2  501    0 -0.10819968058E+03  0.65469185593E+02  0.20860246738E+03  0.29906082080E+03  0.17300000000E+03 0.  1.
         -6    1    1    2    0  502  0.10819968058E+03 -0.65469185593E+02  0.71044264626E+03  0.74205871652E+03  0.17300000000E+03 0.  1.
<mgrwt>
<rscale>  2 0.21429509E+03</rscale>
<asrwt>0</asrwt>
<pdfrwt beam="1">  1       21 0.15078188E+00 0.21429509E+03</pdfrwt>
<pdfrwt beam="2">  1       21 0.93903410E-02 0.21429509E+03</pdfrwt>
<totfact> 0.26368157E+04</totfact>
</mgrwt>
</event>
<event>
 4    1  0.4199484E+000  0.1774401E+03  0.7546771E-02  0.1170304E+00
         21   -1    0    0  503  502  0.00000000000E+00  0.00000000000E+00  0.77813110904E+02  0.77813110904E+02  0.00000000000E+00 0. -1.
         21   -1    0    0  501  503 -0.00000000000E+00 -0.00000000000E+00 -0.73090892327E+03  0.73090892327E+03  0.00000000000E+00 0. -1.
          6    1    1    2  501    0 -0.23763888402E+02  0.31484115547E+02 -0.59671772907E+03  0.62254077787E+03  0.17300000000E+03 0. -1.
         -6    1    1    2    0  502  0.23763888402E+02 -0.31484115547E+02 -0.56378083300E+02  0.18618125631E+03  0.17300000000E+03 0. -1.
<mgrwt>
<rscale>  2 0.17744005E+03</rscale>
<asrwt>0</asrwt>
<pdfrwt beam="1">  1       21 0.11971248E-01 0.17744005E+03</pdfrwt>
<pdfrwt beam="2">  1       21 0.11244752E+00 0.17744005E+03</pdfrwt>
<totfact> 0.36799368E+04</totfact>
</mgrwt>
</event>
<event>
 4    1  0.4199484E+000  0.1886343E+03  0.7546771E-02  0.1159699E+00
         21   -1    0    0  501  502  0.00000000000E+00  0.00000000000E+00  0.19538206209E+04  0.19538206209E+04  0.00000000000E+00 0.  1.
         21   -1    0    0  502  503 -0.00000000000E+00 -0.00000000000E+00 -0.18496048001E+02  0.18496048001E+02  0.00000000000E+00 0.  1.
          6    1    1    2  501    0 -0.72498502948E+02 -0.19946312652E+02  0.10898814664E+04  0.11060852133E+04  0.17300000000E+03 0.  1.
         -6    1    1    2    0  503  0.72498502948E+02  0.19946312652E+02  0.84544310658E+03  0.86623145566E+03  0.17300000000E+03 0.  1.
<mgrwt>
<rscale>  2 0.18863427E+03</rscale>
<asrwt>0</asrwt>
<pdfrwt beam="1">  1       21 0.30058763E+00 0.18863427E+03</pdfrwt>
<pdfrwt beam="2">  1       21 0.28455474E-02 0.18863427E+03</pdfrwt>
<totfact> 0.23481951E+04</totfact>
</mgrwt>
</event>
<event>
 4    1  0.4199484E+000  0.1805866E+03  0.7546771E-02  0.1167237E+00
         21   -1    0    0  503  502  0.00000000000E+00  0.00000000000E+00  0.14946154275E+03  0.14946154275E+03  0.00000000000E+00 0.  1.
         21   -1    0    0  501  503 -0.00000000000E+00 -0.00000000000E+00 -0.27768232826E+03  0.27768232826E+03  0.00000000000E+00 0.  1.
          6    1    1    2  501    0  0.32710898913E+02  0.40156285575E+02 -0.16296295703E+03  0.24324566912E+03  0.17300000000E+03 0.  1.
         -6    1    1    2    0  502 -0.32710898913E+02 -0.40156285575E+02  0.34742171517E+02  0.18389820190E+03  0.17300000000E+03 0.  1.
<mgrwt>
<rscale>  2 0.18058663E+03</rscale>
<asrwt>0</asrwt>
<pdfrwt beam="1">  1       21 0.22994084E-01 0.18058663E+03</pdfrwt>
<pdfrwt beam="2">  1       21 0.42720358E-01 0.18058663E+03</pdfrwt>
<totfact> 0.94024354E+04</totfact>
</mgrwt>
</event>
<event>
 4    1  0.4199484E+000  0.1745194E+03  0.7546771E-02  0.1173215E+00
         21   -1    0    0  501  502  0.00000000000E+00  0.00000000000E+00  0.14735700038E+03  0.14735700038E+03  0.00000000000E+00 0. -1.
         21   -1    0    0  502  503 -0.00000000000E+00 -0.00000000000E+00 -0.25753398081E+03  0.25753398081E+03  0.00000000000E+00 0. -1.
          6    1    1    2  501    0 -0.41117218745E+01 -0.22608150699E+02  0.34864568082E+02  0.17796789835E+03  0.17300000000E+03 0.  1.
         -6    1    1    2    0  503  0.41117218745E+01  0.22608150699E+02 -0.14504154851E+03  0.22692308285E+03  0.17300000000E+03 0.  1.
<mgrwt>
<rscale>  2 0.17451944E+03</rscale>
<asrwt>0</asrwt>
<pdfrwt beam="1">  1       21 0.22670308E-01 0.17451944E+03</pdfrwt>
<pdfrwt beam="2">  1       21 0.39620612E-01 0.17451944E+03</pdfrwt>
<totfact> 0.11274513E+05</totfact>
</mgrwt>
</event>
<event>
 4    1  0.4199484E+000  0.1896120E+03  0.7546771E-02  0.1158812E+00
         21   -1    0    0  501  502  0.00000000000E+00  0.00000000000E+00  0.67907236347E+02  0.67907236347E+02  0.00000000000E+00 0.  1.
         21   -1    0    0  502  503 -0.00000000000E+00 -0.00000000000E+00 -0.53109781408E+03  0.53109781408E+03  0.00000000000E+00 0.  1.
          6    1    1    2  501    0 -0.19547640901E+02 -0.75110617627E+02 -0.21485516549E+03  0.28655794752E+03  0.17300000000E+03 0.  1.
         -6    1    1    2    0  503  0.19547640901E+02  0.75110617627E+02 -0.24833541224E+03  0.31244710291E+03  0.17300000000E+03 0.  1.
<mgrwt>
<rscale>  2 0.18961201E+03</rscale>
<asrwt>0</asrwt>
<pdfrwt beam="1">  1       21 0.10447268E-01 0.18961201E+03</pdfrwt>
<pdfrwt beam="2">  1       21 0.81707353E-01 0.18961201E+03</pdfrwt>
<totfact> 0.98586508E+04</totfact>
</mgrwt>
</event>
<event>
 4    1  0.4199484E+000  0.2107681E+03  0.7546771E-02  0.1140959E+00
         21   -1    0    0  503  502  0.00000000000E+00  0.00000000000E+00  0.10117945641E+04  0.10117945641E+04  0.00000000000E+00 0. -1.
         21   -1    0    0  501  503 -0.00000000000E+00 -0.00000000000E+00 -0.65352246730E+02  0.65352246730E+02  0.00000000000E+00 0. -1.
          6    1    1    2  501    0 -0.11745874489E+03 -0.26412815011E+02  0.16469152580E+03  0.26748176054E+03  0.17300000000E+03 0. -1.
         -6    1    1    2    0  502  0.11745874489E+03  0.26412815011E+02  0.78175079159E+03  0.80966505032E+03  0.17300000000E+03 0. -1.
<mgrwt>
<rscale>  2 0.21076810E+03</rscale>
<asrwt>0</asrwt>
<pdfrwt beam="1">  1       21 0.15566069E+00 0.21076810E+03</pdfrwt>
<pdfrwt beam="2">  1       21 0.10054193E-01 0.21076810E+03</pdfrwt>
<totfact> 0.21519298E+04</totfact>
</mgrwt>
</event>
<event>
 4    1  0.4199484E+000  0.1893008E+03  0.7546771E-02  0.1159093E+00
         21   -1    0    0  501  502  0.00000000000E+00  0.00000000000E+00  0.37814197018E+03  0.37814197018E+03  0.00000000000E+00 0.  1.
         21   -1    0    0  502  503 -0.00000000000E+00 -0.00000000000E+00 -0.14196754637E+03  0.14196754637E+03  0.00000000000E+00 0.  1.
          6    1    1    2  501    0  0.55241160257E+02 -0.53424725305E+02  0.26803877388E+03  0.32814565571E+03  0.17300000000E+03 0.  1.
         -6    1    1    2    0  503 -0.55241160257E+02  0.53424725305E+02 -0.31864350069E+02  0.19196386083E+03  0.17300000000E+03 0.  1.
<mgrwt>
<rscale>  2 0.18930078E+03</rscale>
<asrwt>0</asrwt>
<pdfrwt beam="1">  1       21 0.58175687E-01 0.18930078E+03</pdfrwt>
<pdfrwt beam="2">  1       21 0.21841161E-01 0.18930078E+03</pdfrwt>
<totfact> 0.54257142E+04</totfact>
</mgrwt>
</event>
<event>
 4    1  0.4199484E+000  0.1873328E+03  0.7546771E-02  0.1160889E+00
         21   -1    0    0  503  502  0.00000000000E+00  0.00000000000E+00  0.56876054949E+03  0.56876054949E+03  0.00000000000E+00 0. -1.
         21   -1    0    0  501  503 -0.00000000000E+00 -0.00000000000E+00 -0.13606015296E+03  0.13606015296E+03  0.00000000000E+00 0. -1.
          6    1    1    2  501    0 -0.42824349534E+02 -0.57711874544E+02 -0.44173884985E+02  0.19247056266E+03  0.17300000000E+03 0. -1.
         -6    1    1    2    0  502  0.42824349534E+02  0.57711874544E+02  0.47687428152E+03  0.51235013980E+03  0.17300000000E+03 0. -1.
<mgrwt>
<rscale>  2 0.18733282E+03</rscale>
<asrwt>0</asrwt>
<pdfrwt beam="1">  1       21 0.87501621E-01 0.18733282E+03</pdfrwt>
<pdfrwt beam="2">  1       21 0.20932332E-01 0.18733282E+03</pdfrwt>
<totfact> 0.23836656E+04</totfact>
</mgrwt>
</event>
<event>
 4    1  0.4199484E+000  0.2238788E+03  0.7546771E-02  0.1131024E+00
         21   -1    0    0  501  502  0.00000000000E+00  0.00000000000E+00  0.22250434293E+03  0.22250434293E+03  0.00000000000E+00 0. -1.
         21   -1    0    0  502  503 -0.00000000000E+00 -0.00000000000E+00 -0.81386664778E+03  0.81386664778E+03  0.00000000000E+00 0.  1.
          6    1    1    2  501    0  0.11748122672E+03  0.79943041630E+02  0.14499601012E+03  0.26673127205E+03  0.17300000000E+03 0. -1.
         -6    1    1    2    0  503 -0.11748122672E+03 -0.79943041630E+02 -0.73635831496E+03  0.76963971867E+03  0.17300000000E+03 0.  1.
<mgrwt>
<rscale>  2 0.22387883E+03</rscale>
<asrwt>0</asrwt>
<pdfrwt beam="1">  1       21 0.34231438E-01 0.22387883E+03</pdfrwt>
<pdfrwt beam="2">  1       21 0.12521025E+00 0.22387883E+03</pdfrwt>
<totfact> 0.38089347E+03</totfact>
</mgrwt>
</event>
<event>
 4    1  0.4199484E+000  0.2062098E+03  0.7546771E-02  0.1144603E+00
         21   -1    0    0  501  502  0.00000000000E+00  0.00000000000E+00  0.95225653996E+02  0.95225653996E+02  0.00000000000E+00 0.  1.
         21   -1    0    0  502  503 -0.00000000000E+00 -0.00000000000E+00 -0.44895553719E+03  0.44895553719E+03  0.00000000000E+00 0. -1.
          6    1    1    2  501    0  0.90658803836E+02 -0.66139737740E+02 -0.15692509594E+03  0.25912925222E+03  0.17300000000E+03 0. -1.
         -6    1    1    2    0  503 -0.90658803836E+02  0.66139737740E+02 -0.19680478726E+03  0.28505193897E+03  0.17300000000E+03 0. -1.
<mgrwt>
<rscale>  2 0.20620980E+03</rscale>
<asrwt>0</asrwt>
<pdfrwt beam="1">  1       21 0.14650101E-01 0.20620980E+03</pdfrwt>
<pdfrwt beam="2">  1       21 0.69070082E-01 0.20620980E+03</pdfrwt>
<totfact> 0.77677576E+04</totfact>
</mgrwt>
</event>
<event>
 4    1  0.4199484E+000  0.2054630E+03  0.7546771E-02  0.1145210E+00
         21   -1    0    0  501  502  0.00000000000E+00  0.00000000000E+00  0.35187534487E+02  0.35187534487E+02  0.00000000000E+00 0. -1.
         21   -1    0    0  502  503 -0.00000000000E+00 -0.00000000000E+00 -0.13689119402E+04  0.13689119402E+04  0.00000000000E+00 0. -1.
          6    1    1    2  501    0 -0.10831133661E+03 -0.23551670734E+02 -0.42004474721E+03  0.46760305441E+03  0.17300000000E+03 0. -1.
         -6    1    1    2    0  503  0.10831133661E+03  0.23551670734E+02 -0.91367965855E+03  0.93649642032E+03  0.17300000000E+03 0. -1.
<mgrwt>
<rscale>  2 0.20546296E+03</rscale>
<asrwt>0</asrwt>
<pdfrwt beam="1">  1       21 0.54134673E-02 0.20546296E+03</pdfrwt>
<pdfrwt beam="2">  1       21 0.21060182E+00 0.20546296E+03</pdfrwt>
<totfact> 0.26781464E+04</totfact>
</mgrwt>
</event>
<event>
 4    1  0.4199484E+000  0.1858407E+03  0.7546771E-02  0.1162267E+00
         21   -1    0    0  503  502  0.00000000000E+00  0.00000000000E+00  0.15040893866E+03  0.15040893866E+03  0.00000000000E+00 0.  1.
         21   -1    0    0  501  503 -0.00000000000E+00 -0.00000000000E+00 -0.23172436610E+03  0.23172436610E+03  0.00000000000E+00 0. -1.
          6    1    1    2  501    0 -0.11003170144E+02  0.66982675011E+02 -0.22445449604E+02  0.18719120362E+03  0.17300000000E+03 0. -1.
         -6    1    1    2    0  502  0.11003170144E+02 -0.66982675011E+02 -0.58869977842E+02  0.19494210114E+03  0.17300000000E+03 0. -1.
<mgrwt>
<rscale>  2 0.18584065E+03</rscale>
<asrwt>0</asrwt>
<pdfrwt beam="1">  1       21 0.23139837E-01 0.18584065E+03</pdfrwt>
<pdfrwt beam="2">  1       21 0.35649902E-01 0.18584065E+03</pdfrwt>
<totfact> 0.13342366E+05</totfact>
</mgrwt>
</event>
<event>
 4    1  0.4199484E+000  0.2964371E+03  0.7546771E-02  0.1087035E+00
         21   -1    0    0  501  502  0.00000000000E+00  0.00000000000E+00  0.65221761553E+03  0.65221761553E+03  0.00000000000E+00 0.  1.
         21   -1    0    0  502  503 -0.00000000000E+00 -0.00000000000E+00 -0.25686778701E+03  0.25686778701E+03  0.00000000000E+00 0. -1.
          6    1    1    2  501    0 -0.18290595391E+03  0.15649725649E+03  0.51110469293E+03  0.59084937708E+03  0.17300000000E+03 0. -1.
         -6    1    1    2    0  503  0.18290595391E+03 -0.15649725649E+03 -0.11575486441E+03  0.31823602546E+03  0.17300000000E+03 0.  1.
<mgrwt>
<rscale>  2 0.29643714E+03</rscale>
<asrwt>0</asrwt>
<pdfrwt beam="1">  1       21 0.10034117E+00 0.29643714E+03</pdfrwt>
<pdfrwt beam="2">  1       21 0.39518121E-01 0.29643714E+03</pdfrwt>
<totfact> 0.46968385E+03</totfact>
</mgrwt>
</event>
<event>
 4    1  0.4199484E+000  0.1785050E+03  0.7546771E-02  0.1169258E+00
         21   -1    0    0  501  502  0.00000000000E+00  0.00000000000E+00  0.62573505995E+03  0.62573505995E+03  0.00000000000E+00 0. -1.
         21   -1    0    0  502  503 -0.00000000000E+00 -0.00000000000E+00 -0.51539819485E+02  0.51539819485E+02  0.00000000000E+00 0. -1.
          6    1    1    2  501    0 -0.12997167388E+02 -0.42025257759E+02  0.32415609697E+03  0.37005570372E+03  0.17300000000E+03 0. -1.
         -6    1    1    2    0  503  0.12997167388E+02  0.42025257759E+02  0.25003914349E+03  0.30721917572E+03  0.17300000000E+03 0. -1.
<mgrwt>
<rscale>  2 0.17850504E+03</rscale>
<asrwt>0</asrwt>
<pdfrwt beam="1">  1       21 0.96266927E-01 0.17850504E+03</pdfrwt>
<pdfrwt beam="2">  1       21 0.79292035E-02 0.17850504E+03</pdfrwt>
<totfact> 0.11005993E+05</totfact>
</mgrwt>
</event>
<event>
 4    1  0.4199484E+000  0.2162335E+03  0.7546771E-02  0.1136723E+00
         21   -1    0    0  503  502  0.00000000000E+00  0.00000000000E+00  0.15287139116E+04  0.15287139116E+04  0.00000000000E+00 0. -1.
         21   -1    0    0  501  503 -0.00000000000E+00 -0.00000000000E+00 -0.32102219144E+02  0.32102219144E+02  0.00000000000E+00 0.  1.
          6    1    1    2  501    0 -0.84954438981E+02 -0.98033988088E+02  0.57869033036E+03  0.61776971273E+03  0.17300000000E+03 0. -1.
         -6    1    1    2    0  502  0.84954438981E+02  0.98033988088E+02  0.91792136213E+03  0.94304641804E+03  0.17300000000E+03 0. -1.
<mgrwt>
<rscale>  2 0.21623348E+03</rscale>
<asrwt>0</asrwt>
<pdfrwt beam="1">  1       21 0.23518670E+00 0.21623348E+03</pdfrwt>
<pdfrwt beam="2">  1       21 0.49388041E-02 0.21623348E+03</pdfrwt>
<totfact> 0.21938690E+04</totfact>
</mgrwt>
</event>
<event>
 4    1  0.4199484E+000  0.2046379E+03  0.7546771E-02  0.1145884E+00
         21   -1    0    0  501  502  0.00000000000E+00  0.00000000000E+00  0.99004468159E+02  0.99004468159E+02  0.00000000000E+00 0. -1.
         21   -1    0    0  502  503 -0.00000000000E+00 -0.00000000000E+00 -0.50023700660E+03  0.50023700660E+03  0.00000000000E+00 0.  1.
          6    1    1    2  501    0 -0.10111983021E+03  0.41502581574E+02 -0.82866706435E+02  0.22077947227E+03  0.17300000000E+03 0. -1.
         -6    1    1    2    0  503  0.10111983021E+03 -0.41502581574E+02 -0.31836583200E+03  0.37846200249E+03  0.17300000000E+03 0.  1.
<mgrwt>
<rscale>  2 0.20463793E+03</rscale>
<asrwt>0</asrwt>
<pdfrwt beam="1">  1       21 0.15231457E-01 0.20463793E+03</pdfrwt>
<pdfrwt beam="2">  1       21 0.76959540E-01 0.20463793E+03</pdfrwt>
<totfact> 0.56921968E+04</totfact>
</mgrwt>
</event>
<event>
 4    1  0.4199484E+000  0.2208461E+03  0.7546771E-02  0.1133254E+00
         21   -1    0    0  501  502  0.00000000000E+00  0.00000000000E+00  0.61199464649E+03  0.61199464649E+03  0.00000000000E+00 0.  1.
         21   -1    0    0  502  503 -0.00000000000E+00 -0.00000000000E+00 -0.63130026760E+03  0.63130026760E+03  0.00000000000E+00 0. -1.
          6    1    1    2  501    0  0.94762340115E+02  0.99318217789E+02  0.57143305982E+03  0.61262447825E+03  0.17300000000E+03 0.  1.
         -6    1    1    2    0  503 -0.94762340115E+02 -0.99318217789E+02 -0.59073868094E+03  0.63067043584E+03  0.17300000000E+03 0. -1.
<mgrwt>
<rscale>  2 0.22084612E+03</rscale>
<asrwt>0</asrwt>
<pdfrwt beam="1">  1       21 0.94153023E-01 0.22084612E+03</pdfrwt>
<pdfrwt beam="2">  1       21 0.97123118E-01 0.22084612E+03</pdfrwt>
<totfact> 0.80906875E+02</totfact>
</mgrwt>
</event>
<event>
 4    1  0.4199484E+000  0.2227722E+03  0.7546771E-02  0.1131833E+00
         21   -1    0    0  501  502  0.00000000000E+00  0.00000000000E+00  0.14077310154E+03  0.14077310154E+03  0.00000000000E+00 0. -1.
         21   -1    0    0  502  503 -0.00000000000E+00 -0.00000000000E+00 -0.37577507744E+03  0.37577507744E+03  0.00000000000E+00 0. -1.
          6    1    1    2  501    0  0.14033940314E+03 -0.18192782500E+01 -0.53271448380E+02  0.22905306167E+03  0.17300000000E+03 0. -1.
         -6    1    1    2    0  503 -0.14033940314E+03  0.18192782500E+01 -0.18173052753E+03  0.28749511732E+03  0.17300000000E+03 0. -1.
<mgrwt>
<rscale>  2 0.22277221E+03</rscale>
<asrwt>0</asrwt>
<pdfrwt beam="1">  1       21 0.21657401E-01 0.22277221E+03</pdfrwt>
<pdfrwt beam="2">  1       21 0.57811549E-01 0.22277221E+03</pdfrwt>
<totfact> 0.55012217E+04</totfact>
</mgrwt>
</event>
<event>
 4    1  0.4199484E+000  0.2527510E+03  0.7546771E-02  0.1111579E+00
         21   -1    0    0  501  502  0.00000000000E+00  0.00000000000E+00  0.40734685286E+02  0.40734685286E+02  0.00000000000E+00 0.  1.
         21   -1    0    0  502  503 -0.00000000000E+00 -0.00000000000E+00 -0.18375956808E+04  0.18375956808E+04  0.00000000000E+00 0.  1.
          6    1    1    2  501    0 -0.18426566432E+03  0.46612540577E+00 -0.53888442298E+03  0.59521380499E+03  0.17300000000E+03 0.  1.
         -6    1    1    2    0  503  0.18426566432E+03 -0.46612540577E+00 -0.12579765726E+04  0.12831165611E+04  0.17300000000E+03 0.  1.
<mgrwt>
<rscale>  2 0.25275097E+03</rscale>
<asrwt>0</asrwt>
<pdfrwt beam="1">  1       21 0.62668739E-02 0.25275097E+03</pdfrwt>
<pdfrwt beam="2">  1       21 0.28270706E+00 0.25275097E+03</pdfrwt>
<totfact> 0.74244997E+03</totfact>
</mgrwt>
</event>
<event>
 4    1  0.4199484E+000  0.2127149E+03  0.7546771E-02  0.1139434E+00
         21   -1    0    0  501  502  0.00000000000E+00  0.00000000000E+00  0.21634626248E+03  0.21634626248E+03  0.00000000000E+00 0.  1.
         21   -1    0    0  502  503 -0.00000000000E+00 -0.00000000000E+00 -0.22679511900E+03  0.22679511900E+03  0.00000000000E+00 0. -1.
          6    1    1    2  501    0  0.16033154383E+02  0.12272557415E+03  0.56587965305E+02  0.22011321270E+03  0.17300000000E+03 0.  1.
         -6    1    1    2    0  503 -0.16033154383E+02 -0.12272557415E+03 -0.67036821822E+02  0.22302816878E+03  0.17300000000E+03 0. -1.
<mgrwt>
<rscale>  2 0.21271490E+03</rscale>
<asrwt>0</asrwt>
<pdfrwt beam="1">  1       21 0.33284041E-01 0.21271490E+03</pdfrwt>
<pdfrwt beam="2">  1       21 0.34891556E-01 0.21271490E+03</pdfrwt>
<totfact> 0.68218119E+04</totfact>
</mgrwt>
</event>
<event>
 4    1  0.4199484E+000  0.1999345E+03  0.7546771E-02  0.1149794E+00
         21   -1    0    0  501  502  0.00000000000E+00  0.00000000000E+00  0.61948531952E+03  0.61948531952E+03  0.00000000000E+00 0.  1.
         21   -1    0    0  502  503 -0.00000000000E+00 -0.00000000000E+00 -0.66819352791E+02  0.66819352791E+02  0.00000000000E+00 0. -1.
          6    1    1    2  501    0  0.25030961328E+02 -0.97047782504E+02  0.33988537747E+03  0.39432967290E+03  0.17300000000E+03 0.  1.
         -6    1    1    2    0  503 -0.25030961328E+02  0.97047782504E+02  0.21278058926E+03  0.29197499941E+03  0.17300000000E+03 0. -1.
<mgrwt>
<rscale>  2 0.19993454E+03</rscale>
<asrwt>0</asrwt>
<pdfrwt beam="1">  1       21 0.95305430E-01 0.19993454E+03</pdfrwt>
<pdfrwt beam="2">  1       21 0.10279901E-01 0.19993454E+03</pdfrwt>
<totfact> 0.70808752E+04</totfact>
</mgrwt>
</event>
<event>
 4    1  0.4199484E+000  0.2278245E+03  0.7546771E-02  0.1128180E+00
         21   -1    0    0  503  502  0.00000000000E+00  0.00000000000E+00  0.28206057080E+03  0.28206057080E+03  0.00000000000E+00 0. -1.
         21   -1    0    0  501  503 -0.00000000000E+00 -0.00000000000E+00 -0.22387161427E+03  0.22387161427E+03  0.00000000000E+00 0. -1.
          6    1    1    2  501    0  0.12302028545E+03 -0.82710506504E+02 -0.77638981290E+02  0.24069031957E+03  0.17300000000E+03 0. -1.
         -6    1    1    2    0  502 -0.12302028545E+03  0.82710506504E+02  0.13582793782E+03  0.26524186550E+03  0.17300000000E+03 0. -1.
<mgrwt>
<rscale>  2 0.22782453E+03</rscale>
<asrwt>0</asrwt>
<pdfrwt beam="1">  1       21 0.43393934E-01 0.22782453E+03</pdfrwt>
<pdfrwt beam="2">  1       21 0.34441787E-01 0.22782453E+03</pdfrwt>
<totfact> 0.40766057E+04</totfact>
</mgrwt>
</event>
<event>
 4    1  0.4199484E+000  0.2035221E+03  0.7546771E-02  0.1146801E+00
         21   -1    0    0  503  502  0.00000000000E+00  0.00000000000E+00  0.82046231757E+02  0.82046231757E+02  0.00000000000E+00 0.  1.
         21   -1    0    0  501  503 -0.00000000000E+00 -0.00000000000E+00 -0.50628262322E+03  0.50628262322E+03  0.00000000000E+00 0.  1.
          6    1    1    2  501    0  0.95416261857E+02 -0.48866869822E+02 -0.22775331308E+03  0.30543871008E+03  0.17300000000E+03 0. -1.
         -6    1    1    2    0  502 -0.95416261857E+02  0.48866869822E+02 -0.19648307838E+03  0.28289014490E+03  0.17300000000E+03 0. -1.
<mgrwt>
<rscale>  2 0.20352207E+03</rscale>
<asrwt>0</asrwt>
<pdfrwt beam="1">  1       21 0.12622497E-01 0.20352207E+03</pdfrwt>
<pdfrwt beam="2">  1       21 0.77889636E-01 0.20352207E+03</pdfrwt>
<totfact> 0.77914712E+04</totfact>
</mgrwt>
</event>
<event>
 4    1  0.4199484E+000  0.3067882E+03  0.7546771E-02  0.1081896E+00
         21   -1    0    0  503  502  0.00000000000E+00  0.00000000000E+00  0.36688698940E+03  0.36688698940E+03  0.00000000000E+00 0.  1.
         21   -1    0    0  501  503 -0.00000000000E+00 -0.00000000000E+00 -0.26273807114E+03  0.26273807114E+03  0.00000000000E+00 0.  1.
          6    1    1    2  501    0 -0.13124163848E+03 -0.21671555413E+03  0.10045021161E+03  0.32281456610E+03  0.17300000000E+03 0.  1.
         -6    1    1    2    0  502  0.13124163848E+03  0.21671555413E+03  0.36987066521E+01  0.30681049445E+03  0.17300000000E+03 0.  1.
<mgrwt>
<rscale>  2 0.30678820E+03</rscale>
<asrwt>0</asrwt>
<pdfrwt beam="1">  1       21 0.56444153E-01 0.30678820E+03</pdfrwt>
<pdfrwt beam="2">  1       21 0.40421241E-01 0.30678820E+03</pdfrwt>
<totfact> 0.16434284E+04</totfact>
</mgrwt>
</event>
<event>
 4    1  0.4199484E+000  0.1824203E+03  0.7546771E-02  0.1165481E+00
         21   -1    0    0  501  502  0.00000000000E+00  0.00000000000E+00  0.20425618585E+03  0.20425618585E+03  0.00000000000E+00 0.  1.
         21   -1    0    0  502  503 -0.00000000000E+00 -0.00000000000E+00 -0.21212104878E+03  0.21212104878E+03  0.00000000000E+00 0.  1.
          6    1    1    2  501    0  0.13446514165E+02  0.56279120975E+02  0.96334587559E+02  0.20629469446E+03  0.17300000000E+03 0.  1.
         -6    1    1    2    0  503 -0.13446514165E+02 -0.56279120975E+02 -0.10419945049E+03  0.21008254017E+03  0.17300000000E+03 0.  1.
<mgrwt>
<rscale>  2 0.18242025E+03</rscale>
<asrwt>0</asrwt>
<pdfrwt beam="1">  1       21 0.31424029E-01 0.18242025E+03</pdfrwt>
<pdfrwt beam="2">  1       21 0.32634008E-01 0.18242025E+03</pdfrwt>
<totfact> 0.88308214E+04</totfact>
</mgrwt>
</event>
<event>
 4    1  0.4199484E+000  0.2355076E+03  0.7546771E-02  0.1122822E+00
         21   -1    0    0  503  502  0.00000000000E+00  0.00000000000E+00  0.27125742173E+03  0.27125742173E+03  0.00000000000E+00 0. -1.
         21   -1    0    0  501  503 -0.00000000000E+00 -0.00000000000E+00 -0.21073787982E+03  0.21073787982E+03  0.00000000000E+00 0. -1.
          6    1    1    2  501    0  0.13455964438E+03 -0.86189058226E+02 -0.11304620168E+02  0.23577880755E+03  0.17300000000E+03 0.  1.
         -6    1    1    2    0  502 -0.13455964438E+03  0.86189058226E+02  0.71824162080E+02  0.24621649399E+03  0.17300000000E+03 0.  1.
<mgrwt>
<rscale>  2 0.23550765E+03</rscale>
<asrwt>0</asrwt>
<pdfrwt beam="1">  1       21 0.41731911E-01 0.23550765E+03</pdfrwt>
<pdfrwt beam="2">  1       21 0.32421212E-01 0.23550765E+03</pdfrwt>
<totfact> 0.49615734E+04</totfact>
</mgrwt>
</event>
<event>
 4    1  0.4199484E+000  0.2158102E+03  0.7546771E-02  0.1137046E+00
         21   -1    0    0  501  502  0.00000000000E+00  0.00000000000E+00  0.36982074913E+03  0.36982074913E+03  0.00000000000E+00 0.  1.
         21   -1    0    0  502  503 -0.00000000000E+00 -0.00000000000E+00 -0.40704133144E+03  0.40704133144E+03  0.00000000000E+00 0.  1.
          6    1    1    2  501    0  0.76315599181E+02  0.10402392657E+03  0.30418603485E+03  0.37296540292E+03  0.17300000000E+03 0.  1.
         -6    1    1    2    0  503 -0.76315599181E+02 -0.10402392657E+03 -0.34140661716E+03  0.40389667766E+03  0.17300000000E+03 0.  1.
<mgrwt>
<rscale>  2 0.21581021E+03</rscale>
<asrwt>0</asrwt>
<pdfrwt beam="1">  1       21 0.56895500E-01 0.21581021E+03</pdfrwt>
<pdfrwt beam="2">  1       21 0.62621743E-01 0.21581021E+03</pdfrwt>
<totfact> 0.67460712E+03</totfact>
</mgrwt>
</event>
<event>
 4    1  0.4199484E+000  0.2226725E+03  0.7546771E-02  0.1131906E+00
         21   -1    0    0  501  502  0.00000000000E+00  0.00000000000E+00  0.53525858222E+03  0.53525858222E+03  0.00000000000E+00 0.  1.
         21   -1    0    0  502  503 -0.00000000000E+00 -0.00000000000E+00 -0.11558731839E+03  0.11558731839E+03  0.00000000000E+00 0. -1.
          6    1    1    2  501    0 -0.68648046273E+02 -0.12223542568E+03  0.35485213033E+03  0.41893088684E+03  0.17300000000E+03 0.  1.
         -6    1    1    2    0  503  0.68648046273E+02  0.12223542568E+03  0.64819133496E+02  0.23191501378E+03  0.17300000000E+03 0. -1.
<mgrwt>
<rscale>  2 0.22267253E+03</rscale>
<asrwt>0</asrwt>
<pdfrwt beam="1">  1       21 0.82347472E-01 0.22267253E+03</pdfrwt>
<pdfrwt beam="2">  1       21 0.17782665E-01 0.22267253E+03</pdfrwt>
<totfact> 0.36412467E+04</totfact>
</mgrwt>
</event>
<event>
 4    1  0.4199484E+000  0.1789751E+03  0.7546771E-02  0.1168799E+00
         21   -1    0    0  503  502  0.00000000000E+00  0.00000000000E+00  0.36021784044E+03  0.36021784044E+03  0.00000000000E+00 0. -1.
         21   -1    0    0  501  503 -0.00000000000E+00 -0.00000000000E+00 -0.13714345450E+03  0.13714345450E+03  0.00000000000E+00 0. -1.
          6    1    1    2  501    0 -0.44276094793E+02 -0.11946601048E+02 -0.35919524166E+02  0.18254398391E+03  0.17300000000E+03 0. -1.
         -6    1    1    2    0  502  0.44276094793E+02  0.11946601048E+02  0.25899391011E+03  0.31481731103E+03  0.17300000000E+03 0. -1.
<mgrwt>
<rscale>  2 0.17897512E+03</rscale>
<asrwt>0</asrwt>
<pdfrwt beam="1">  1       21 0.55418129E-01 0.17897512E+03</pdfrwt>
<pdfrwt beam="2">  1       21 0.21098993E-01 0.17897512E+03</pdfrwt>
<totfact> 0.64488076E+04</totfact>
</mgrwt>
</event>
<event>
 4    1  0.4199484E+000  0.3122863E+03  0.7546771E-02  0.1079255E+00
         21   -1    0    0  501  502  0.00000000000E+00  0.00000000000E+00  0.12303926253E+03  0.12303926253E+03  0.00000000000E+00 0. -1.
         21   -1    0    0  502  503 -0.00000000000E+00 -0.00000000000E+00 -0.11258636838E+04  0.11258636838E+04  0.00000000000E+00 0.  1.
          6    1    1    2  501    0  0.12080026945E+03  0.23021948743E+03 -0.16167723273E+03  0.35165643044E+03  0.17300000000E+03 0. -1.
         -6    1    1    2    0  503 -0.12080026945E+03 -0.23021948743E+03 -0.84114718857E+03  0.89724651592E+03  0.17300000000E+03 0.  1.
<mgrwt>
<rscale>  2 0.31228627E+03</rscale>
<asrwt>0</asrwt>
<pdfrwt beam="1">  1       21 0.18929118E-01 0.31228627E+03</pdfrwt>
<pdfrwt beam="2">  1       21 0.17320979E+00 0.31228627E+03</pdfrwt>
<totfact> 0.47675923E+03</totfact>
</mgrwt>
</event>
<event>
 4    1  0.4199484E+000  0.2422165E+03  0.7546771E-02  0.1118325E+00
         21   -1    0    0  501  502  0.00000000000E+00  0.00000000000E+00  0.33085873935E+03  0.33085873935E+03  0.00000000000E+00 0. -1.
         21   -1    0    0  502  503 -0.00000000000E+00 -0.00000000000E+00 -0.23547679463E+03  0.23547679463E+03  0.00000000000E+00 0.  1.
          6    1    1    2  501    0 -0.15499319531E+03 -0.68680097679E+02  0.18841199702E+03  0.30686793092E+03  0.17300000000E+03 0. -1.
         -6    1    1    2    0  503  0.15499319531E+03  0.68680097679E+02 -0.93030052301E+02  0.25946760306E+03  0.17300000000E+03 0.  1.
<mgrwt>
<rscale>  2 0.24221653E+03</rscale>
<asrwt>0</asrwt>
<pdfrwt beam="1">  1       21 0.50901345E-01 0.24221653E+03</pdfrwt>
<pdfrwt beam="2">  1       21 0.36227199E-01 0.24221653E+03</pdfrwt>
<totfact> 0.26282566E+04</totfact>
</mgrwt>
</event>
<event>
 4    1  0.4199484E+000  0.1842511E+03  0.7546771E-02  0.1163751E+00
         21   -1    0    0  503  502  0.00000000000E+00  0.00000000000E+00  0.38938209590E+02  0.38938209590E+02  0.00000000000E+00 0. -1.
         21   -1    0    0  501  503 -0.00000000000E+00 -0.00000000000E+00 -0.87974716201E+03  0.87974716201E+03  0.00000000000E+00 0. -1.
          6    1    1    2  501    0 -0.49922068196E+02 -0.39080244333E+02 -0.46391074704E+03  0.49916095561E+03  0.17300000000E+03 0. -1.
         -6    1    1    2    0  502  0.49922068196E+02  0.39080244333E+02 -0.37689820538E+03  0.41952441599E+03  0.17300000000E+03 0. -1.
<mgrwt>
<rscale>  2 0.18425113E+03</rscale>
<asrwt>0</asrwt>
<pdfrwt beam="1">  1       21 0.59904941E-02 0.18425113E+03</pdfrwt>
<pdfrwt beam="2">  1       21 0.13534571E+00 0.18425113E+03</pdfrwt>
<totfact> 0.77478894E+04</totfact>
</mgrwt>
</event>
<event>
 4    1  0.4199484E+000  0.1779347E+03  0.7546771E-02  0.1169817E+00
         21   -1    0    0  503  502  0.00000000000E+00  0.00000000000E+00  0.42529034851E+03  0.42529034851E+03  0.00000000000E+00 0.  1.
         21   -1    0    0  501  503 -0.00000000000E+00 -0.00000000000E+00 -0.10373666915E+03  0.10373666915E+03  0.00000000000E+00 0.  1.
          6    1    1    2  501    0  0.16220443808E+02 -0.38322953296E+02  0.20219488051E+02  0.17907981250E+03  0.17300000000E+03 0. -1.
         -6    1    1    2    0  502 -0.16220443808E+02  0.38322953296E+02  0.30133419131E+03  0.34994720516E+03  0.17300000000E+03 0. -1.
<mgrwt>
<rscale>  2 0.17793468E+03</rscale>
<asrwt>0</asrwt>
<pdfrwt beam="1">  1       21 0.65429283E-01 0.17793468E+03</pdfrwt>
<pdfrwt beam="2">  1       21 0.15959488E-01 0.17793468E+03</pdfrwt>
<totfact> 0.75732204E+04</totfact>
</mgrwt>
</event>
<event>
 4    1  0.4199484E+000  0.1913844E+03  0.7546771E-02  0.1157219E+00
         21   -1    0    0  501  502  0.00000000000E+00  0.00000000000E+00  0.94673466140E+02  0.94673466140E+02  0.00000000000E+00 0. -1.
         21   -1    0    0  502  503 -0.00000000000E+00 -0.00000000000E+00 -0.41876908879E+03  0.41876908879E+03  0.00000000000E+00 0.  1.
          6    1    1    2  501    0 -0.74891907323E+02 -0.33018103812E+02 -0.91213504623E+02  0.21200918939E+03  0.17300000000E+03 0.  1.
         -6    1    1    2    0  503  0.74891907323E+02  0.33018103812E+02 -0.23288211803E+03  0.30143336554E+03  0.17300000000E+03 0.  1.
<mgrwt>
<rscale>  2 0.19138441E+03</rscale>
<asrwt>0</asrwt>
<pdfrwt beam="1">  1       21 0.14565148E-01 0.19138441E+03</pdfrwt>
<pdfrwt beam="2">  1       21 0.64426014E-01 0.19138441E+03</pdfrwt>
<totfact> 0.92003647E+04</totfact>
</mgrwt>
</event>
<event>
 4    1  0.4199484E+000  0.2058931E+03  0.7546771E-02  0.1144860E+00
         21   -1    0    0  503  502  0.00000000000E+00  0.00000000000E+00  0.14042645625E+03  0.14042645625E+03  0.00000000000E+00 0. -1.
         21   -1    0    0  501  503 -0.00000000000E+00 -0.00000000000E+00 -0.59660205852E+03  0.59660205852E+03  0.00000000000E+00 0.  1.
          6    1    1    2  501    0  0.88062478524E+02  0.68614531430E+02 -0.48709877278E+03  0.52882621767E+03  0.17300000000E+03 0.  1.
         -6    1    1    2    0  502 -0.88062478524E+02 -0.68614531430E+02  0.30923170509E+02  0.20820229711E+03  0.17300000000E+03 0. -1.
<mgrwt>
<rscale>  2 0.20589306E+03</rscale>
<asrwt>0</asrwt>
<pdfrwt beam="1">  1       21 0.21604070E-01 0.20589306E+03</pdfrwt>
<pdfrwt beam="2">  1       21 0.91784931E-01 0.20589306E+03</pdfrwt>
<totfact> 0.19888399E+04</totfact>
</mgrwt>
</event>
<event>
 4    1  0.4199484E+000  0.2081347E+03  0.7546771E-02  0.1143052E+00
         21   -1    0    0  503  502  0.00000000000E+00  0.00000000000E+00  0.57677852806E+03  0.57677852806E+03  0.00000000000E+00 0. -1.
         21   -1    0    0  501  503 -0.00000000000E+00 -0.00000000000E+00 -0.75330610261E+02  0.75330610261E+02  0.00000000000E+00 0.  1.
          6    1    1    2  501    0 -0.10615628170E+03 -0.46063933825E+02  0.26849267542E+03  0.33971805795E+03  0.17300000000E+03 0. -1.
         -6    1    1    2    0  502  0.10615628170E+03  0.46063933825E+02  0.23295524238E+03  0.31239108037E+03  0.17300000000E+03 0.  1.
<mgrwt>
<rscale>  2 0.20813467E+03</rscale>
<asrwt>0</asrwt>
<pdfrwt beam="1">  1       21 0.88735155E-01 0.20813467E+03</pdfrwt>
<pdfrwt beam="2">  1       21 0.11589325E-01 0.20813467E+03</pdfrwt>
<totfact> 0.67300987E+04</totfact>
</mgrwt>
</event>
<event>
 4    1  0.4199484E+000  0.3094309E+03  0.7546771E-02  0.1080619E+00
         21   -1    0    0  501  502  0.00000000000E+00  0.00000000000E+00  0.15937451881E+03  0.15937451881E+03  0.00000000000E+00 0.  1.
         21   -1    0    0  502  503 -0.00000000000E+00 -0.00000000000E+00 -0.76988785454E+03  0.76988785454E+03  0.00000000000E+00 0.  1.
          6    1    1    2  501    0  0.92299731894E+02  0.23937259689E+03 -0.87491235368E+02  0.32156211984E+03  0.17300000000E+03 0.  1.
         -6    1    1    2    0  503 -0.92299731894E+02 -0.23937259689E+03 -0.52302210036E+03  0.60770025351E+03  0.17300000000E+03 0.  1.
<mgrwt>
<rscale>  2 0.30943090E+03</rscale>
<asrwt>0</asrwt>
<pdfrwt beam="1">  1       21 0.24519157E-01 0.30943090E+03</pdfrwt>
<pdfrwt beam="2">  1       21 0.11844428E+00 0.30943090E+03</pdfrwt>
<totfact> 0.79947557E+03</totfact>
</mgrwt>
</event>
<event>
 4    1  0.4199484E+000  0.1820773E+03  0.7546771E-02  0.1165808E+00
         21   -1    0    0  503  502  0.00000000000E+00  0.00000000000E+00  0.48413194408E+02  0.48413194408E+02  0.00000000000E+00 0. -1.
         21   -1    0    0  501  503 -0.00000000000E+00 -0.00000000000E+00 -0.77226847280E+03  0.77226847280E+03  0.00000000000E+00 0.  1.
          6    1    1    2  501    0  0.56573857262E+02 -0.47470763621E+01 -0.50004519356E+03  0.53216288076E+03  0.17300000000E+03 0.  1.
         -6    1    1    2    0  502 -0.56573857262E+02  0.47470763621E+01 -0.22381008483E+03  0.28851878645E+03  0.17300000000E+03 0. -1.
<mgrwt>
<rscale>  2 0.18207728E+03</rscale>
<asrwt>0</asrwt>
<pdfrwt beam="1">  1       21 0.74481842E-02 0.18207728E+03</pdfrwt>
<pdfrwt beam="2">  1       21 0.11881053E+00 0.18207728E+03</pdfrwt>
<totfact> 0.73907698E+04</totfact>
</mgrwt>
</event>
<event>
 4    1  0.4199484E+000  0.2149009E+03  0.7546771E-02  0.1137743E+00
         21   -1    0    0  501  502  0.00000000000E+00  0.00000000000E+00  0.19692829285E+04  0.19692829285E+04  0.00000000000E+00 0. -1.
         21   -1    0    0  502  503 -0.00000000000E+00 -0.00000000000E+00 -0.34578121369E+02  0.34578121369E+02  0.00000000000E+00 0. -1.
          6    1    1    2  501    0 -0.14287978751E+01  0.12748073339E+03  0.15357093075E+04  0.15506725818E+04  0.17300000000E+03 0. -1.
         -6    1    1    2    0  503  0.14287978751E+01 -0.12748073339E+03  0.39899549958E+03  0.45318846801E+03  0.17300000000E+03 0. -1.
<mgrwt>
<rscale>  2 0.21490086E+03</rscale>
<asrwt>0</asrwt>
<pdfrwt beam="1">  1       21 0.30296652E+00 0.21490086E+03</pdfrwt>
<pdfrwt beam="2">  1       21 0.53197125E-02 0.21490086E+03</pdfrwt>
<totfact> 0.77602358E+03</totfact>
</mgrwt>
</event>
<event>
 4    1  0.4199484E+000  0.2523522E+03  0.7546771E-02  0.1111827E+00
         21   -1    0    0  503  502  0.00000000000E+00  0.00000000000E+00  0.98109081528E+03  0.98109081528E+03  0.00000000000E+00 0. -1.
         21   -1    0    0  501  503 -0.00000000000E+00 -0.00000000000E+00 -0.14689726948E+03  0.14689726948E+03  0.00000000000E+00 0. -1.
          6    1    1    2  501    0 -0.18320955086E+03 -0.13671013893E+02 -0.42536956906E+01  0.25238805454E+03  0.17300000000E+03 0. -1.
         -6    1    1    2    0  502  0.18320955086E+03  0.13671013893E+02  0.83844724149E+03  0.87560003022E+03  0.17300000000E+03 0. -1.
<mgrwt>
<rscale>  2 0.25235221E+03</rscale>
<asrwt>0</asrwt>
<pdfrwt beam="1">  1       21 0.15093704E+00 0.25235221E+03</pdfrwt>
<pdfrwt beam="2">  1       21 0.22599581E-01 0.25235221E+03</pdfrwt>
<totfact> 0.51585265E+03</totfact>
</mgrwt>
</event>
<event>
 4    1  0.4199484E+000  0.2016898E+03  0.7546771E-02  0.1148321E+00
         21   -1    0    0  503  502  0.00000000000E+00  0.00000000000E+00  0.89009375058E+03  0.89009375058E+03  0.00000000000E+00 0.  1.
         21   -1    0    0  501  503 -0.00000000000E+00 -0.00000000000E+00 -0.45732047761E+02  0.45732047761E+02  0.00000000000E+00 0.  1.
          6    1    1    2  501    0 -0.67989974929E+02  0.78276015582E+02  0.41012136044E+03  0.45703205751E+03  0.17300000000E+03 0.  1.
         -6    1    1    2    0  502  0.67989974929E+02 -0.78276015582E+02  0.43424034238E+03  0.47879374083E+03  0.17300000000E+03 0.  1.
<mgrwt>
<rscale>  2 0.20168979E+03</rscale>
<asrwt>0</asrwt>
<pdfrwt beam="1">  1       21 0.13693749E+00 0.20168979E+03</pdfrwt>
<pdfrwt beam="2">  1       21 0.70357003E-02 0.20168979E+03</pdfrwt>
<totfact> 0.56525529E+04</totfact>
</mgrwt>
</event>
<event>
 4    1  0.4199484E+000  0.2423403E+03  0.7546771E-02  0.1118244E+00
         21   -1    0    0  501  502  0.00000000000E+00  0.00000000000E+00  0.12749283738E+03  0.12749283738E+03  0.00000000000E+00 0. -1.
         21   -1    0    0  502  503 -0.00000000000E+00 -0.00000000000E+00 -0.47641844029E+03  0.47641844029E+03  0.00000000000E+00 0.  1.
          6    1    1    2  501    0  0.10591127430E+03  0.13259941950E+03 -0.11951800806E+03  0.27020984128E+03  0.17300000000E+03 0. -1.
         -6    1    1    2    0  503 -0.10591127430E+03 -0.13259941950E+03 -0.22940759485E+03  0.33370143639E+03  0.17300000000E+03 0. -1.
<mgrwt>
<rscale>  2 0.24234027E+03</rscale>
<asrwt>0</asrwt>
<pdfrwt beam="1">  1       21 0.19614283E-01 0.24234027E+03</pdfrwt>
<pdfrwt beam="2">  1       21 0.73295145E-01 0.24234027E+03</pdfrwt>
<totfact> 0.39103029E+04</totfact>
</mgrwt>
</event>
<event>
 4    1  0.4199484E+000  0.1737908E+03  0.7546771E-02  0.1173951E+00
         21   -1    0    0  503  502  0.00000000000E+00  0.00000000000E+00  0.10562256719E+04  0.10562256719E+04  0.00000000000E+00 0. -1.
         21   -1    0    0  501  503 -0.00000000000E+00 -0.00000000000E+00 -0.30120681738E+02  0.30120681738E+02  0.00000000000E+00 0. -1.
          6    1    1    2  501    0  0.14809702573E+02 -0.74115630738E+01  0.39082400049E+03  0.42772264134E+03  0.17300000000E+03 0.  1.
         -6    1    1    2    0  502 -0.14809702573E+02  0.74115630738E+01  0.63528098963E+03  0.65862371225E+03  0.17300000000E+03 0.  1.
<mgrwt>
<rscale>  2 0.17379085E+03</rscale>
<asrwt>0</asrwt>
<pdfrwt beam="1">  1       21 0.16249623E+00 0.17379085E+03</pdfrwt>
<pdfrwt beam="2">  1       21 0.46339519E-02 0.17379085E+03</pdfrwt>
<totfact> 0.74599692E+04</totfact>
</mgrwt>
</event>
<event>
 4    1  0.4199484E+000  0.1966098E+03  0.7546771E-02  0.1152631E+00
         21   -1    0    0  501  502  0.00000000000E+00  0.00000000000E+00  0.78194359476E+03  0.78194359476E+03  0.00000000000E+00 0.  1.
         21   -1    0    0  502  503 -0.00000000000E+00 -0.00000000000E+00 -0.60676775569E+02  0.60676775569E+02  0.00000000000E+00 0.  1.
          6    1    1    2  501    0 -0.72741647259E+02  0.58609436166E+02  0.54197916088E+03  0.57653865792E+03  0.17300000000E+03 0.  1.
         -6    1    1    2    0  503  0.72741647259E+02 -0.58609436166E+02  0.17928765831E+03  0.26608171241E+03  0.17300000000E+03 0.  1.
<mgrwt>
<rscale>  2 0.19660980E+03</rscale>
<asrwt>0</asrwt>
<pdfrwt beam="1">  1       21 0.12029901E+00 0.19660980E+03</pdfrwt>
<pdfrwt beam="2">  1       21 0.93348891E-02 0.19660980E+03</pdfrwt>
<totfact> 0.47980513E+04</totfact>
</mgrwt>
</event>
<event>
 4    1  0.4199484E+000  0.1912214E+03  0.7546771E-02  0.1157364E+00
         21   -1    0    0  503  502  0.00000000000E+00  0.00000000000E+00  0.45333926950E+03  0.45333926950E+03  0.00000000000E+00 0.  1.
         21   -1    0    0  501  503 -0.00000000000E+00 -0.00000000000E+00 -0.23604543301E+03  0.23604543301E+03  0.00000000000E+00 0.  1.
          6    1    1    2  501    0 -0.57235012775E+02  0.57972198235E+02 -0.17102008282E+03  0.25654140247E+03  0.17300000000E+03 0.  1.
         -6    1    1    2    0  502  0.57235012775E+02 -0.57972198235E+02  0.38831391931E+03  0.43284330004E+03  0.17300000000E+03 0.  1.
<mgrwt>
<rscale>  2 0.19122140E+03</rscale>
<asrwt>0</asrwt>
<pdfrwt beam="1">  1       21 0.69744503E-01 0.19122140E+03</pdfrwt>
<pdfrwt beam="2">  1       21 0.36314682E-01 0.19122140E+03</pdfrwt>
<totfact> 0.13672748E+04</totfact>
</mgrwt>
</event>
<event>
 4    1  0.4199484E+000  0.1852706E+03  0.7546771E-02  0.1162797E+00
         21   -1    0    0  503  502  0.00000000000E+00  0.00000000000E+00  0.18854832993E+03  0.18854832993E+03  0.00000000000E+00 0.  1.
         21   -1    0    0  501  503 -0.00000000000E+00 -0.00000000000E+00 -0.30242022314E+03  0.30242022314E+03  0.00000000000E+00 0.  1.
          6    1    1    2  501    0 -0.28403049464E+02 -0.59912093465E+02 -0.21180979781E+03  0.28140465989E+03  0.17300000000E+03 0.  1.
         -6    1    1    2    0  502  0.28403049464E+02  0.59912093465E+02  0.97937904600E+02  0.20956389317E+03  0.17300000000E+03 0.  1.
<mgrwt>
<rscale>  2 0.18527059E+03</rscale>
<asrwt>0</asrwt>
<pdfrwt beam="1">  1       21 0.29007436E-01 0.18527059E+03</pdfrwt>
<pdfrwt beam="2">  1       21 0.46526188E-01 0.18527059E+03</pdfrwt>
<totfact> 0.50507861E+04</totfact>
</mgrwt>
</event>
<event>
 4    1  0.4199484E+000  0.1877357E+03  0.7546771E-02  0.1160520E+00
         21   -1    0    0  501  502  0.00000000000E+00  0.00000000000E+00  0.64832605898E+02  0.64832605898E+02  0.00000000000E+00 0. -1.
         21   -1    0    0  502  503 -0.00000000000E+00 -0.00000000000E+00 -0.98734067296E+03  0.98734067296E+03  0.00000000000E+00 0. -1.
          6    1    1    2  501    0  0.53815598958E+02  0.49189167833E+02 -0.10857825532E+03  0.21687307452E+03  0.17300000000E+03 0. -1.
         -6    1    1    2    0  503 -0.53815598958E+02 -0.49189167833E+02 -0.81392981175E+03  0.83530020434E+03  0.17300000000E+03 0. -1.
<mgrwt>
<rscale>  2 0.18773570E+03</rscale>
<asrwt>0</asrwt>
<pdfrwt beam="1">  1       21 0.99742481E-02 0.18773570E+03</pdfrwt>
<pdfrwt beam="2">  1       21 0.15189855E+00 0.18773570E+03</pdfrwt>
<totfact> 0.23646154E+04</totfact>
</mgrwt>
</event>
<event>
 4    1  0.4199484E+000  0.1863184E+03  0.7546771E-02  0.1161824E+00
         21   -1    0    0  501  502  0.00000000000E+00  0.00000000000E+00  0.40031296941E+03  0.40031296941E+03  0.00000000000E+00 0. -1.
         21   -1    0    0  502  503 -0.00000000000E+00 -0.00000000000E+00 -0.10377218232E+03  0.10377218232E+03  0.00000000000E+00 0. -1.
          6    1    1    2  501    0 -0.56139987240E+02  0.40420766912E+02  0.25044492047E+03  0.31214931484E+03  0.17300000000E+03 0. -1.
         -6    1    1    2    0  503  0.56139987240E+02 -0.40420766912E+02  0.46095866615E+02  0.19193583689E+03  0.17300000000E+03 0. -1.
<mgrwt>
<rscale>  2 0.18631837E+03</rscale>
<asrwt>0</asrwt>
<pdfrwt beam="1">  1       21 0.61586610E-01 0.18631837E+03</pdfrwt>
<pdfrwt beam="2">  1       21 0.15964951E-01 0.18631837E+03</pdfrwt>
<totfact> 0.85977727E+04</totfact>
</mgrwt>
</event>
<event>
 4    1  0.4199484E+000  0.2028395E+03  0.7546771E-02  0.1147365E+00
         21   -1    0    0  501  502  0.00000000000E+00  0.00000000000E+00  0.16595598365E+03  0.16595598365E+03  0.00000000000E+00 0. -1.
         21   -1    0    0  502  503 -0.00000000000E+00 -0.00000000000E+00 -0.25050603761E+03  0.25050603761E+03  0.00000000000E+00 0. -1.
          6    1    1    2  501    0  0.52550790486E+02  0.91941619792E+02 -0.21119019714E+02  0.20393592137E+03  0.17300000000E+03 0. -1.
         -6    1    1    2    0  503 -0.52550790486E+02 -0.91941619792E+02 -0.63431034238E+02  0.21252609989E+03  0.17300000000E+03 0. -1.
<mgrwt>
<rscale>  2 0.20283946E+03</rscale>
<asrwt>0</asrwt>
<pdfrwt beam="1">  1       21 0.25531690E-01 0.20283946E+03</pdfrwt>
<pdfrwt beam="2">  1       21 0.38539390E-01 0.20283946E+03</pdfrwt>
<totfact> 0.94066387E+04</totfact>
</mgrwt>
</event>
<event>
 4    1  0.4199484E+000  0.2021440E+03  0.7546771E-02  0.1147943E+00
         21   -1    0    0  503  502  0.00000000000E+00  0.00000000000E+00  0.56714635008E+03  0.56714635008E+03  0.00000000000E+00 0. -1.
         21   -1    0    0  501  503 -0.00000000000E+00 -0.00000000000E+00 -0.73676724913E+02  0.73676724913E+02  0.00000000000E+00 0. -1.
          6    1    1    2  501    0  0.73640616742E+02  0.74231033929E+02  0.19910635123E+03  0.28373495719E+03  0.17300000000E+03 0. -1.
         -6    1    1    2    0  502 -0.73640616742E+02 -0.74231033929E+02  0.29436327394E+03  0.35708811780E+03  0.17300000000E+03 0. -1.
<mgrwt>
<rscale>  2 0.20214398E+03</rscale>
<asrwt>0</asrwt>
<pdfrwt beam="1">  1       21 0.87253282E-01 0.20214398E+03</pdfrwt>
<pdfrwt beam="2">  1       21 0.11334881E-01 0.20214398E+03</pdfrwt>
<totfact> 0.72997584E+04</totfact>
</mgrwt>
</event>
<event>
 4    1  0.4199484E+000  0.2266792E+03  0.7546771E-02  0.1128999E+00
         21   -1    0    0  501  502  0.00000000000E+00  0.00000000000E+00  0.67520699685E+03  0.67520699685E+03  0.00000000000E+00 0. -1.
         21   -1    0    0  502  503 -0.00000000000E+00 -0.00000000000E+00 -0.12638783522E+03  0.12638783522E+03  0.00000000000E+00 0. -1.
          6    1    1    2  501    0  0.11626010981E+03  0.89095748320E+02  0.52722431610E+03  0.57388931423E+03  0.17300000000E+03 0. -1.
         -6    1    1    2    0  503 -0.11626010981E+03 -0.89095748320E+02  0.21594845534E+02  0.22770551784E+03  0.17300000000E+03 0. -1.
<mgrwt>
<rscale>  2 0.22667921E+03</rscale>
<asrwt>0</asrwt>
<pdfrwt beam="1">  1       21 0.10387800E+00 0.22667921E+03</pdfrwt>
<pdfrwt beam="2">  1       21 0.19444283E-01 0.22667921E+03</pdfrwt>
<totfact> 0.17864520E+04</totfact>
</mgrwt>
</event>
<event>
 4    1  0.4199484E+000  0.1771383E+03  0.7546771E-02  0.1170602E+00
         21   -1    0    0  503  502  0.00000000000E+00  0.00000000000E+00  0.22889029788E+03  0.22889029788E+03  0.00000000000E+00 0.  1.
         21   -1    0    0  501  503 -0.00000000000E+00 -0.00000000000E+00 -0.20237371717E+03  0.20237371717E+03  0.00000000000E+00 0.  1.
          6    1    1    2  501    0  0.36561700094E+02  0.10593339985E+02 -0.10921665190E+03  0.20810154689E+03  0.17300000000E+03 0.  1.
         -6    1    1    2    0  502 -0.36561700094E+02 -0.10593339985E+02  0.13573323261E+03  0.22316246817E+03  0.17300000000E+03 0.  1.
<mgrwt>
<rscale>  2 0.17713830E+03</rscale>
<asrwt>0</asrwt>
<pdfrwt beam="1">  1       21 0.35213892E-01 0.17713830E+03</pdfrwt>
<pdfrwt beam="2">  1       21 0.31134418E-01 0.17713830E+03</pdfrwt>
<totfact> 0.77550147E+04</totfact>
</mgrwt>
</event>
<event>
 4    1  0.4199484E+000  0.2052430E+03  0.7546771E-02  0.1145389E+00
         21   -1    0    0  503  502  0.00000000000E+00  0.00000000000E+00  0.24583591178E+03  0.24583591178E+03  0.00000000000E+00 0.  1.
         21   -1    0    0  501  503 -0.00000000000E+00 -0.00000000000E+00 -0.12895363354E+04  0.12895363354E+04  0.00000000000E+00 0.  1.
          6    1    1    2  501    0 -0.60755242545E+02  0.92219708766E+02 -0.12367142389E+04  0.12536294440E+04  0.17300000000E+03 0.  1.
         -6    1    1    2    0  502  0.60755242545E+02 -0.92219708766E+02  0.19301381536E+03  0.28174280310E+03  0.17300000000E+03 0.  1.
<mgrwt>
<rscale>  2 0.20524296E+03</rscale>
<asrwt>0</asrwt>
<pdfrwt beam="1">  1       21 0.37820909E-01 0.20524296E+03</pdfrwt>
<pdfrwt beam="2">  1       21 0.19839021E+00 0.20524296E+03</pdfrwt>
<totfact> 0.91418990E+02</totfact>
</mgrwt>
</event>
<event>
 4    1  0.4199484E+000  0.1917017E+03  0.7546771E-02  0.1156935E+00
         21   -1    0    0  503  502  0.00000000000E+00  0.00000000000E+00  0.16186820992E+02  0.16186820992E+02  0.00000000000E+00 0.  1.
         21   -1    0    0  501  503 -0.00000000000E+00 -0.00000000000E+00 -0.22709898450E+04  0.22709898450E+04  0.00000000000E+00 0.  1.
          6    1    1    2  501    0  0.71567567398E+02 -0.41214580236E+02 -0.11080300838E+04  0.11244910960E+04  0.17300000000E+03 0.  1.
         -6    1    1    2    0  502 -0.71567567398E+02  0.41214580236E+02 -0.11467729402E+04  0.11626855700E+04  0.17300000000E+03 0.  1.
<mgrwt>
<rscale>  2 0.19170174E+03</rscale>
<asrwt>0</asrwt>
<pdfrwt beam="1">  1       21 0.24902794E-02 0.19170174E+03</pdfrwt>
<pdfrwt beam="2">  1       21 0.34938316E+00 0.19170174E+03</pdfrwt>
<totfact> 0.15182267E+04</totfact>
</mgrwt>
</event>
<event>
 4    1  0.4199484E+000  0.1761105E+03  0.7546771E-02  0.1171621E+00
         21   -1    0    0  503  502  0.00000000000E+00  0.00000000000E+00  0.44748041977E+03  0.44748041977E+03  0.00000000000E+00 0. -1.
         21   -1    0    0  501  503 -0.00000000000E+00 -0.00000000000E+00 -0.75314587505E+02  0.75314587505E+02  0.00000000000E+00 0. -1.
          6    1    1    2  501    0  0.50073411062E+01  0.32570193813E+02  0.11227522712E+03  0.20885549457E+03  0.17300000000E+03 0. -1.
         -6    1    1    2    0  502 -0.50073411062E+01 -0.32570193813E+02  0.25989060515E+03  0.31393951270E+03  0.17300000000E+03 0. -1.
<mgrwt>
<rscale>  2 0.17611045E+03</rscale>
<asrwt>0</asrwt>
<pdfrwt beam="1">  1       21 0.68843140E-01 0.17611045E+03</pdfrwt>
<pdfrwt beam="2">  1       21 0.11586860E-01 0.17611045E+03</pdfrwt>
<totfact> 0.12081081E+05</totfact>
</mgrwt>
</event>
<event>
 4    1  0.4199484E+000  0.1839209E+03  0.7546771E-02  0.1164061E+00
         21   -1    0    0  501  502  0.00000000000E+00  0.00000000000E+00  0.79713799070E+03  0.79713799070E+03  0.00000000000E+00 0. -1.
         21   -1    0    0  502  503 -0.00000000000E+00 -0.00000000000E+00 -0.51297074630E+02  0.51297074630E+02  0.00000000000E+00 0.  1.
          6    1    1    2  501    0 -0.60174959844E+02  0.16639942056E+02  0.54923935595E+03  0.57921566241E+03  0.17300000000E+03 0. -1.
         -6    1    1    2    0  503  0.60174959844E+02 -0.16639942056E+02  0.19660156012E+03  0.26921940292E+03  0.17300000000E+03 0.  1.
<mgrwt>
<rscale>  2 0.18392094E+03</rscale>
<asrwt>0</asrwt>
<pdfrwt beam="1">  1       21 0.12263661E+00 0.18392094E+03</pdfrwt>
<pdfrwt beam="2">  1       21 0.78918582E-02 0.18392094E+03</pdfrwt>
<totfact> 0.61743615E+04</totfact>
</mgrwt>
</event>
<event>
 4    1  0.4199484E+000  0.2795562E+03  0.7546771E-02  0.1095932E+00
         21   -1    0    0  503  502  0.00000000000E+00  0.00000000000E+00  0.21308426399E+03  0.21308426399E+03  0.00000000000E+00 0. -1.
         21   -1    0    0  501  503 -0.00000000000E+00 -0.00000000000E+00 -0.10366036383E+04  0.10366036383E+04  0.00000000000E+00 0. -1.
          6    1    1    2  501    0 -0.16158542899E+03  0.14870374440E+03 -0.91404514055E+03  0.95584003548E+03  0.17300000000E+03 0. -1.
         -6    1    1    2    0  502  0.16158542899E+03 -0.14870374440E+03  0.90525766268E+02  0.29384786679E+03  0.17300000000E+03 0. -1.
<mgrwt>
<rscale>  2 0.27955617E+03</rscale>
<asrwt>0</asrwt>
<pdfrwt beam="1">  1       21 0.32782194E-01 0.27955617E+03</pdfrwt>
<pdfrwt beam="2">  1       21 0.15947748E+00 0.27955617E+03</pdfrwt>
<totfact> 0.21198397E+03</totfact>
</mgrwt>
</event>
<event>
 4    1  0.4199484E+000  0.1966114E+03  0.7546771E-02  0.1152630E+00
         21   -1    0    0  501  502  0.00000000000E+00  0.00000000000E+00  0.56897246243E+02  0.56897246243E+02  0.00000000000E+00 0.  1.
         21   -1    0    0  502  503 -0.00000000000E+00 -0.00000000000E+00 -0.68424531792E+03  0.68424531792E+03  0.00000000000E+00 0.  1.
          6    1    1    2  501    0 -0.89225867273E+02  0.27672766849E+02 -0.34485495546E+03  0.39696470589E+03  0.17300000000E+03 0.  1.
         -6    1    1    2    0  503  0.89225867273E+02 -0.27672766849E+02 -0.28249311621E+03  0.34417785827E+03  0.17300000000E+03 0.  1.
<mgrwt>
<rscale>  2 0.19661139E+03</rscale>
<asrwt>0</asrwt>
<pdfrwt beam="1">  1       21 0.87534223E-02 0.19661139E+03</pdfrwt>
<pdfrwt beam="2">  1       21 0.10526851E+00 0.19661139E+03</pdfrwt>
<totfact> 0.74332428E+04</totfact>
</mgrwt>
</event>
<event>
 4    1  0.4199484E+000  0.2288115E+03  0.7546771E-02  0.1127479E+00
         21   -1    0    0  501  502  0.00000000000E+00  0.00000000000E+00  0.79749284358E+03  0.79749284358E+03  0.00000000000E+00 0.  1.
         21   -1    0    0  502  503 -0.00000000000E+00 -0.00000000000E+00 -0.88199870886E+02  0.88199870886E+02  0.00000000000E+00 0.  1.
          6    1    1    2  501    0 -0.14908789021E+03 -0.14088616371E+02  0.57857004631E+03  0.62217199118E+03  0.17300000000E+03 0.  1.
         -6    1    1    2    0  503  0.14908789021E+03  0.14088616371E+02  0.13072292638E+03  0.26352072328E+03  0.17300000000E+03 0.  1.
<mgrwt>
<rscale>  2 0.22881147E+03</rscale>
<asrwt>0</asrwt>
<pdfrwt beam="1">  1       21 0.12269120E+00 0.22881147E+03</pdfrwt>
<pdfrwt beam="2">  1       21 0.13569211E-01 0.22881147E+03</pdfrwt>
<totfact> 0.23013615E+04</totfact>
</mgrwt>
</event>
<event>
 4    1  0.4199484E+000  0.2066648E+03  0.7546771E-02  0.1144235E+00
         21   -1    0    0  503  502  0.00000000000E+00  0.00000000000E+00  0.99310160195E+02  0.99310160195E+02  0.00000000000E+00 0. -1.
         21   -1    0    0  501  503 -0.00000000000E+00 -0.00000000000E+00 -0.43078665722E+03  0.43078665722E+03  0.00000000000E+00 0. -1.
          6    1    1    2  501    0  0.10752772102E+03  0.34916038887E+02 -0.17654733263E+03  0.27180747087E+03  0.17300000000E+03 0. -1.
         -6    1    1    2    0  502 -0.10752772102E+03 -0.34916038887E+02 -0.15492916439E+03  0.25828934654E+03  0.17300000000E+03 0. -1.
<mgrwt>
<rscale>  2 0.20666480E+03</rscale>
<asrwt>0</asrwt>
<pdfrwt beam="1">  1       21 0.15278486E-01 0.20666480E+03</pdfrwt>
<pdfrwt beam="2">  1       21 0.66274870E-01 0.20666480E+03</pdfrwt>
<totfact> 0.78766632E+04</totfact>
</mgrwt>
</event>
<event>
 4    1  0.4199484E+000  0.1735008E+03  0.7546771E-02  0.1174245E+00
         21   -1    0    0  503  502  0.00000000000E+00  0.00000000000E+00  0.30114991117E+03  0.30114991117E+03  0.00000000000E+00 0.  1.
         21   -1    0    0  501  503 -0.00000000000E+00 -0.00000000000E+00 -0.12319656571E+03  0.12319656571E+03  0.00000000000E+00 0.  1.
          6    1    1    2  501    0  0.91493265938E+01  0.94778387143E+01 -0.31721642624E+01  0.17352983095E+03  0.17300000000E+03 0.  1.
         -6    1    1    2    0  502 -0.91493265938E+01 -0.94778387143E+01  0.18112550972E+03  0.25081664593E+03  0.17300000000E+03 0.  1.
<mgrwt>
<rscale>  2 0.17350083E+03</rscale>
<asrwt>0</asrwt>
<pdfrwt beam="1">  1       21 0.46330755E-01 0.17350083E+03</pdfrwt>
<pdfrwt beam="2">  1       21 0.18953318E-01 0.17350083E+03</pdfrwt>
<totfact> 0.11466482E+05</totfact>
</mgrwt>
</event>
<event>
 4    1  0.4199484E+000  0.2000134E+03  0.7546771E-02  0.1149728E+00
         21   -1    0    0  501  502  0.00000000000E+00  0.00000000000E+00  0.37227977243E+02  0.37227977243E+02  0.00000000000E+00 0. -1.
         21   -1    0    0  502  503 -0.00000000000E+00 -0.00000000000E+00 -0.11129610979E+04  0.11129610979E+04  0.00000000000E+00 0. -1.
          6    1    1    2  501    0 -0.59080202169E+02 -0.81153604000E+02 -0.43110489050E+03  0.47524394193E+03  0.17300000000E+03 0. -1.
         -6    1    1    2    0  503  0.59080202169E+02  0.81153604000E+02 -0.64462823017E+03  0.67494513322E+03  0.17300000000E+03 0. -1.
<mgrwt>
<rscale>  2 0.20001344E+03</rscale>
<asrwt>0</asrwt>
<pdfrwt beam="1">  1       21 0.57273807E-02 0.20001344E+03</pdfrwt>
<pdfrwt beam="2">  1       21 0.17122480E+00 0.20001344E+03</pdfrwt>
<totfact> 0.44460717E+04</totfact>
</mgrwt>
</event>
<event>
 4    1  0.4199484E+000  0.1896475E+03  0.7546771E-02  0.1158780E+00
         21   -1    0    0  503  502  0.00000000000E+00  0.00000000000E+00  0.34552199655E+03  0.34552199655E+03  0.00000000000E+00 0. -1.
         21   -1    0    0  501  503 -0.00000000000E+00 -0.00000000000E+00 -0.10844344421E+03  0.10844344421E+03  0.00000000000E+00 0. -1.
          6    1    1    2  501    0 -0.68205045692E+02  0.37219114983E+02  0.73072806975E+02  0.20323834751E+03  0.17300000000E+03 0. -1.
         -6    1    1    2    0  502  0.68205045692E+02 -0.37219114983E+02  0.16400574537E+03  0.25072709325E+03  0.17300000000E+03 0. -1.
<mgrwt>
<rscale>  2 0.18964754E+03</rscale>
<asrwt>0</asrwt>
<pdfrwt beam="1">  1       21 0.53157230E-01 0.18964754E+03</pdfrwt>
<pdfrwt beam="2">  1       21 0.16683607E-01 0.18964754E+03</pdfrwt>
<totfact> 0.10836073E+05</totfact>
</mgrwt>
</event>
<event>
 4    1  0.4199484E+000  0.2672169E+03  0.7546771E-02  0.1102883E+00
         21   -1    0    0  501  502  0.00000000000E+00  0.00000000000E+00  0.20584703443E+03  0.20584703443E+03  0.00000000000E+00 0. -1.
         21   -1    0    0  502  503 -0.00000000000E+00 -0.00000000000E+00 -0.35380804562E+03  0.35380804562E+03  0.00000000000E+00 0.  1.
          6    1    1    2  501    0  0.16257199308E+03  0.12266299150E+03 -0.34832104816E+02  0.26947752772E+03  0.17300000000E+03 0.  1.
         -6    1    1    2    0  503 -0.16257199308E+03 -0.12266299150E+03 -0.11312890638E+03  0.29017755233E+03  0.17300000000E+03 0.  1.
<mgrwt>
<rscale>  2 0.26721688E+03</rscale>
<asrwt>0</asrwt>
<pdfrwt beam="1">  1       21 0.31668775E-01 0.26721688E+03</pdfrwt>
<pdfrwt beam="2">  1       21 0.54432007E-01 0.26721688E+03</pdfrwt>
<totfact> 0.29477716E+04</totfact>
</mgrwt>
</event>
<event>
 4    1  0.4199484E+000  0.1731841E+03  0.7546771E-02  0.1174567E+00
         21   -1    0    0  503  502  0.00000000000E+00  0.00000000000E+00  0.44651779423E+03  0.44651779423E+03  0.00000000000E+00 0. -1.
         21   -1    0    0  501  503 -0.00000000000E+00 -0.00000000000E+00 -0.17347340469E+03  0.17347340469E+03  0.00000000000E+00 0. -1.
          6    1    1    2  501    0  0.63671278356E+01  0.48166329811E+01 -0.10614553336E+03  0.20312462805E+03  0.17300000000E+03 0. -1.
         -6    1    1    2    0  502 -0.63671278356E+01 -0.48166329811E+01  0.37918992291E+03  0.41686657086E+03  0.17300000000E+03 0. -1.
<mgrwt>
<rscale>  2 0.17318412E+03</rscale>
<asrwt>0</asrwt>
<pdfrwt beam="1">  1       21 0.68695045E-01 0.17318412E+03</pdfrwt>
<pdfrwt beam="2">  1       21 0.26688216E-01 0.17318412E+03</pdfrwt>
<totfact> 0.26100327E+04</totfact>
</mgrwt>
</event>
<event>
 4    1  0.4199484E+000  0.1945292E+03  0.7546771E-02  0.1154439E+00
         21   -1    0    0  501  502  0.00000000000E+00  0.00000000000E+00  0.87837601768E+03  0.87837601768E+03  0.00000000000E+00 0.  1.
         21   -1    0    0  502  503 -0.00000000000E+00 -0.00000000000E+00 -0.45828783710E+02  0.45828783710E+02  0.00000000000E+00 0. -1.
          6    1    1    2  501    0  0.81900680813E+02 -0.34711441908E+02  0.52941835832E+03  0.56402606663E+03  0.17300000000E+03 0.  1.
         -6    1    1    2    0  503 -0.81900680813E+02  0.34711441908E+02  0.30312887565E+03  0.36017873475E+03  0.17300000000E+03 0.  1.
<mgrwt>
<rscale>  2 0.19452919E+03</rscale>
<asrwt>0</asrwt>
<pdfrwt beam="1">  1       21 0.13513476E+00 0.19452919E+03</pdfrwt>
<pdfrwt beam="2">  1       21 0.70505828E-02 0.19452919E+03</pdfrwt>
<totfact> 0.58483297E+04</totfact>
</mgrwt>
</event>
<event>
 4    1  0.4199484E+000  0.1985694E+03  0.7546771E-02  0.1150952E+00
         21   -1    0    0  501  502  0.00000000000E+00  0.00000000000E+00  0.85156450420E+03  0.85156450420E+03  0.00000000000E+00 0.  1.
         21   -1    0    0  502  503 -0.00000000000E+00 -0.00000000000E+00 -0.52448166603E+02  0.52448166603E+02  0.00000000000E+00 0. -1.
          6    1    1    2  501    0 -0.90121019697E+02 -0.37134951955E+02  0.55428086127E+03  0.58877591324E+03  0.17300000000E+03 0. -1.
         -6    1    1    2    0  503  0.90121019697E+02  0.37134951955E+02  0.24483547633E+03  0.31523675756E+03  0.17300000000E+03 0.  1.
<mgrwt>
<rscale>  2 0.19856939E+03</rscale>
<asrwt>0</asrwt>
<pdfrwt beam="1">  1       21 0.13100991E+00 0.19856939E+03</pdfrwt>
<pdfrwt beam="2">  1       21 0.80689493E-02 0.19856939E+03</pdfrwt>
<totfact> 0.49951847E+04</totfact>
</mgrwt>
</event>
<event>
 4    1  0.4199484E+000  0.2229349E+03  0.7546771E-02  0.1131714E+00
         21   -1    0    0  501  502  0.00000000000E+00  0.00000000000E+00  0.14166772654E+03  0.14166772654E+03  0.00000000000E+00 0.  1.
         21   -1    0    0  502  503 -0.00000000000E+00 -0.00000000000E+00 -0.44361821053E+03  0.44361821053E+03  0.00000000000E+00 0. -1.
          6    1    1    2  501    0 -0.12971694190E+03  0.54263175884E+02 -0.17130452241E+02  0.22359210555E+03  0.17300000000E+03 0. -1.
         -6    1    1    2    0  503  0.12971694190E+03 -0.54263175884E+02 -0.28482003175E+03  0.36169383152E+03  0.17300000000E+03 0.  1.
<mgrwt>
<rscale>  2 0.22293492E+03</rscale>
<asrwt>0</asrwt>
<pdfrwt beam="1">  1       21 0.21795035E-01 0.22293492E+03</pdfrwt>
<pdfrwt beam="2">  1       21 0.68248955E-01 0.22293492E+03</pdfrwt>
<totfact> 0.37901338E+04</totfact>
</mgrwt>
</event>
<event>
 4    1  0.4199484E+000  0.2486876E+03  0.7546771E-02  0.1114137E+00
         21   -1    0    0  503  502  0.00000000000E+00  0.00000000000E+00  0.23779474861E+03  0.23779474861E+03  0.00000000000E+00 0.  1.
         21   -1    0    0  501  503 -0.00000000000E+00 -0.00000000000E+00 -0.34533397686E+03  0.34533397686E+03  0.00000000000E+00 0. -1.
          6    1    1    2  501    0 -0.77794434652E+02  0.16082454011E+03 -0.19863803651E+03  0.31828065651E+03  0.17300000000E+03 0. -1.
         -6    1    1    2    0  502  0.77794434652E+02 -0.16082454011E+03  0.91098808258E+02  0.26484806896E+03  0.17300000000E+03 0.  1.
<mgrwt>
<rscale>  2 0.24868757E+03</rscale>
<asrwt>0</asrwt>
<pdfrwt beam="1">  1       21 0.36583808E-01 0.24868757E+03</pdfrwt>
<pdfrwt beam="2">  1       21 0.53128304E-01 0.24868757E+03</pdfrwt>
<totfact> 0.23473458E+04</totfact>
</mgrwt>
</event>
<event>
 4    1  0.4199484E+000  0.1840241E+03  0.7546771E-02  0.1163964E+00
         21   -1    0    0  501  502  0.00000000000E+00  0.00000000000E+00  0.45881580733E+02  0.45881580733E+02  0.00000000000E+00 0.  1.
         21   -1    0    0  502  503 -0.00000000000E+00 -0.00000000000E+00 -0.78860352790E+03  0.78860352790E+03  0.00000000000E+00 0.  1.
          6    1    1    2  501    0 -0.28049201297E+02 -0.56116910115E+02 -0.26576412275E+03  0.32325753547E+03  0.17300000000E+03 0. -1.
         -6    1    1    2    0  503  0.28049201297E+02  0.56116910115E+02 -0.47695782441E+03  0.51122757316E+03  0.17300000000E+03 0. -1.
<mgrwt>
<rscale>  2 0.18402409E+03</rscale>
<asrwt>0</asrwt>
<pdfrwt beam="1">  1       21 0.70587052E-02 0.18402409E+03</pdfrwt>
<pdfrwt beam="2">  1       21 0.12132361E+00 0.18402409E+03</pdfrwt>
<totfact> 0.76930935E+04</totfact>
</mgrwt>
</event>
<event>
 4    1  0.4199484E+000  0.1746341E+03  0.7546771E-02  0.1173100E+00
         21   -1    0    0  501  502  0.00000000000E+00  0.00000000000E+00  0.55466000039E+02  0.55466000039E+02  0.00000000000E+00 0.  1.
         21   -1    0    0  502  503 -0.00000000000E+00 -0.00000000000E+00 -0.70486085782E+03  0.70486085782E+03  0.00000000000E+00 0.  1.
          6    1    1    2  501    0 -0.18860886300E+02 -0.14571444919E+02 -0.14640909138E+03  0.22788743291E+03  0.17300000000E+03 0.  1.
         -6    1    1    2    0  503  0.18860886300E+02  0.14571444919E+02 -0.50298576640E+03  0.53243942495E+03  0.17300000000E+03 0.  1.
<mgrwt>
<rscale>  2 0.17463407E+03</rscale>
<asrwt>0</asrwt>
<pdfrwt beam="1">  1       21 0.85332309E-02 0.17463407E+03</pdfrwt>
<pdfrwt beam="2">  1       21 0.10844013E+00 0.17463407E+03</pdfrwt>
<totfact> 0.73100502E+04</totfact>
</mgrwt>
</event>
<event>
 4    1  0.4199484E+000  0.2862888E+03  0.7546771E-02  0.1092303E+00
         21   -1    0    0  503  502  0.00000000000E+00  0.00000000000E+00  0.61528582208E+02  0.61528582208E+02  0.00000000000E+00 0.  1.
         21   -1    0    0  501  503 -0.00000000000E+00 -0.00000000000E+00 -0.13322056677E+04  0.13322056677E+04  0.00000000000E+00 0.  1.
          6    1    1    2  501    0 -0.20887829051E+03  0.91663081108E+02 -0.62868813425E+03  0.69080390187E+03  0.17300000000E+03 0.  1.
         -6    1    1    2    0  502  0.20887829051E+03 -0.91663081108E+02 -0.64198895125E+03  0.70293034805E+03  0.17300000000E+03 0.  1.
<mgrwt>
<rscale>  2 0.28628877E+03</rscale>
<asrwt>0</asrwt>
<pdfrwt beam="1">  1       21 0.94659365E-02 0.28628877E+03</pdfrwt>
<pdfrwt beam="2">  1       21 0.20495470E+00 0.28628877E+03</pdfrwt>
<totfact> 0.10446251E+04</totfact>
</mgrwt>
</event>
<event>
 4    1  0.4199484E+000  0.1968530E+03  0.7546771E-02  0.1152422E+00
         21   -1    0    0  503  502  0.00000000000E+00  0.00000000000E+00  0.36310236775E+03  0.36310236775E+03  0.00000000000E+00 0.  1.
         21   -1    0    0  501  503 -0.00000000000E+00 -0.00000000000E+00 -0.13137312299E+03  0.13137312299E+03  0.00000000000E+00 0.  1.
          6    1    1    2  501    0 -0.43012789590E+02 -0.83498488884E+02  0.87675102092E+01  0.19704813359E+03  0.17300000000E+03 0.  1.
         -6    1    1    2    0  502  0.43012789590E+02  0.83498488884E+02  0.22296173454E+03  0.29742735716E+03  0.17300000000E+03 0.  1.
<mgrwt>
<rscale>  2 0.19685299E+03</rscale>
<asrwt>0</asrwt>
<pdfrwt beam="1">  1       21 0.55861902E-01 0.19685299E+03</pdfrwt>
<pdfrwt beam="2">  1       21 0.20211250E-01 0.19685299E+03</pdfrwt>
<totfact> 0.68184554E+04</totfact>
</mgrwt>
</event>
<event>
 4    1  0.4199484E+000  0.2219994E+03  0.7546771E-02  0.1132401E+00
         21   -1    0    0  501  502  0.00000000000E+00  0.00000000000E+00  0.96341737862E+02  0.96341737862E+02  0.00000000000E+00 0.  1.
         21   -1    0    0  502  503 -0.00000000000E+00 -0.00000000000E+00 -0.52085716821E+03  0.52085716821E+03  0.00000000000E+00 0.  1.
          6    1    1    2  501    0 -0.84427099731E+02 -0.11057486548E+03 -0.17100851440E+03  0.28022785023E+03  0.17300000000E+03 0.  1.
         -6    1    1    2    0  503  0.84427099731E+02  0.11057486548E+03 -0.25350691595E+03  0.33697105585E+03  0.17300000000E+03 0.  1.
<mgrwt>
<rscale>  2 0.22199941E+03</rscale>
<asrwt>0</asrwt>
<pdfrwt beam="1">  1       21 0.14821805E-01 0.22199941E+03</pdfrwt>
<pdfrwt beam="2">  1       21 0.80131874E-01 0.22199941E+03</pdfrwt>
<totfact> 0.54174833E+04</totfact>
</mgrwt>
</event>
<event>
 4    1  0.4199484E+000  0.1981680E+03  0.7546771E-02  0.1151294E+00
         21   -1    0    0  501  502  0.00000000000E+00  0.00000000000E+00  0.29826385319E+02  0.29826385319E+02  0.00000000000E+00 0. -1.
         21   -1    0    0  502  503 -0.00000000000E+00 -0.00000000000E+00 -0.15346006053E+04  0.15346006053E+04  0.00000000000E+00 0. -1.
          6    1    1    2  501    0 -0.96138488364E+02  0.99480333409E+01 -0.45759357902E+03  0.49866066205E+03  0.17300000000E+03 0. -1.
         -6    1    1    2    0  503  0.96138488364E+02 -0.99480333409E+01 -0.10471806409E+04  0.10657663285E+04  0.17300000000E+03 0. -1.
<mgrwt>
<rscale>  2 0.19816804E+03</rscale>
<asrwt>0</asrwt>
<pdfrwt beam="1">  1       21 0.45886739E-02 0.19816804E+03</pdfrwt>
<pdfrwt beam="2">  1       21 0.23609244E+00 0.19816804E+03</pdfrwt>
<totfact> 0.24891044E+04</totfact>
</mgrwt>
</event>
<event>
 4    1  0.4199484E+000  0.1763163E+03  0.7546771E-02  0.1171417E+00
         21   -1    0    0  503  502  0.00000000000E+00  0.00000000000E+00  0.24480155996E+03  0.24480155996E+03  0.00000000000E+00 0. -1.
         21   -1    0    0  501  503 -0.00000000000E+00 -0.00000000000E+00 -0.19352357459E+03  0.19352357459E+03  0.00000000000E+00 0. -1.
          6    1    1    2  501    0  0.19267366017E+02  0.28057243078E+02 -0.10286560511E+03  0.20412930460E+03  0.17300000000E+03 0. -1.
         -6    1    1    2    0  502 -0.19267366017E+02 -0.28057243078E+02  0.15414359048E+03  0.23419582996E+03  0.17300000000E+03 0. -1.
<mgrwt>
<rscale>  2 0.17631631E+03</rscale>
<asrwt>0</asrwt>
<pdfrwt beam="1">  1       21 0.37661779E-01 0.17631631E+03</pdfrwt>
<pdfrwt beam="2">  1       21 0.29772858E-01 0.17631631E+03</pdfrwt>
<totfact> 0.74041532E+04</totfact>
</mgrwt>
</event>
<event>
 4    1  0.4199484E+000  0.3471097E+03  0.7546771E-02  0.1063808E+00
         21   -1    0    0  503  502  0.00000000000E+00  0.00000000000E+00  0.30035545484E+03  0.30035545484E+03  0.00000000000E+00 0. -1.
         21   -1    0    0  501  503 -0.00000000000E+00 -0.00000000000E+00 -0.40465974609E+03  0.40465974609E+03  0.00000000000E+00 0. -1.
          6    1    1    2  501    0 -0.29861368530E+03 -0.37229088884E+02 -0.85019591237E+02  0.35737021281E+03  0.17300000000E+03 0. -1.
         -6    1    1    2    0  502  0.29861368530E+03  0.37229088884E+02 -0.19284700004E+02  0.34764498812E+03  0.17300000000E+03 0. -1.
<mgrwt>
<rscale>  2 0.34710969E+03</rscale>
<asrwt>0</asrwt>
<pdfrwt beam="1">  1       21 0.46208532E-01 0.34710969E+03</pdfrwt>
<pdfrwt beam="2">  1       21 0.62255345E-01 0.34710969E+03</pdfrwt>
<totfact> 0.99135468E+03</totfact>
</mgrwt>
</event>
<event>
 4    1  0.4199484E+000  0.1910033E+03  0.7546771E-02  0.1157559E+00
         21   -1    0    0  503  502  0.00000000000E+00  0.00000000000E+00  0.87587662785E+02  0.87587662785E+02  0.00000000000E+00 0. -1.
         21   -1    0    0  501  503 -0.00000000000E+00 -0.00000000000E+00 -0.41706570943E+03  0.41706570943E+03  0.00000000000E+00 0. -1.
          6    1    1    2  501    0 -0.34800968821E+02 -0.73090135901E+02 -0.15563679590E+03  0.24638402472E+03  0.17300000000E+03 0. -1.
         -6    1    1    2    0  502  0.34800968821E+02  0.73090135901E+02 -0.17384125074E+03  0.25826934750E+03  0.17300000000E+03 0. -1.
<mgrwt>
<rscale>  2 0.19100334E+03</rscale>
<asrwt>0</asrwt>
<pdfrwt beam="1">  1       21 0.13475025E-01 0.19100334E+03</pdfrwt>
<pdfrwt beam="2">  1       21 0.64163955E-01 0.19100334E+03</pdfrwt>
<totfact> 0.10687784E+05</totfact>
</mgrwt>
</event>
<event>
 4    1  0.4199484E+000  0.1909389E+03  0.7546771E-02  0.1157617E+00
         21   -1    0    0  501  502  0.00000000000E+00  0.00000000000E+00  0.31435615064E+02  0.31435615064E+02  0.00000000000E+00 0.  1.
         21   -1    0    0  502  503 -0.00000000000E+00 -0.00000000000E+00 -0.13538705146E+04  0.13538705146E+04  0.00000000000E+00 0. -1.
          6    1    1    2  501    0 -0.22361408620E+02 -0.77644336793E+02 -0.39894356702E+03  0.44228231403E+03  0.17300000000E+03 0.  1.
         -6    1    1    2    0  503  0.22361408620E+02  0.77644336793E+02 -0.92349133251E+03  0.94302381563E+03  0.17300000000E+03 0. -1.
<mgrwt>
<rscale>  2 0.19093893E+03</rscale>
<asrwt>0</asrwt>
<pdfrwt beam="1">  1       21 0.48362488E-02 0.19093893E+03</pdfrwt>
<pdfrwt beam="2">  1       21 0.20828776E+00 0.19093893E+03</pdfrwt>
<totfact> 0.33893706E+04</totfact>
</mgrwt>
</event>
<event>
 4    1  0.4199484E+000  0.2298536E+03  0.7546771E-02  0.1126743E+00
         21   -1    0    0  501  502  0.00000000000E+00  0.00000000000E+00  0.19509733549E+04  0.19509733549E+04  0.00000000000E+00 0.  1.
         21   -1    0    0  502  503 -0.00000000000E+00 -0.00000000000E+00 -0.28868323173E+02  0.28868323173E+02  0.00000000000E+00 0. -1.
          6    1    1    2  501    0  0.12841091724E+03 -0.80089432415E+02  0.12074252386E+04  0.12291087778E+04  0.17300000000E+03 0.  1.
         -6    1    1    2    0  503 -0.12841091724E+03  0.80089432415E+02  0.71467979313E+03  0.75073290027E+03  0.17300000000E+03 0. -1.
<mgrwt>
<rscale>  2 0.22985361E+03</rscale>
<asrwt>0</asrwt>
<pdfrwt beam="1">  1       21 0.30014964E+00 0.22985361E+03</pdfrwt>
<pdfrwt beam="2">  1       21 0.44412820E-02 0.22985361E+03</pdfrwt>
<totfact> 0.10788968E+04</totfact>
</mgrwt>
</event>
<event>
 4    1  0.4199484E+000  0.1889966E+03  0.7546771E-02  0.1159369E+00
         21   -1    0    0  501  502  0.00000000000E+00  0.00000000000E+00  0.13274584485E+03  0.13274584485E+03  0.00000000000E+00 0.  1.
         21   -1    0    0  502  503 -0.00000000000E+00 -0.00000000000E+00 -0.27838565855E+03  0.27838565855E+03  0.00000000000E+00 0.  1.
          6    1    1    2  501    0 -0.32558846158E+02 -0.68779659636E+02 -0.35243211422E+02  0.19225452919E+03  0.17300000000E+03 0.  1.
         -6    1    1    2    0  503  0.32558846158E+02  0.68779659636E+02 -0.11039660228E+03  0.21887697421E+03  0.17300000000E+03 0.  1.
<mgrwt>
<rscale>  2 0.18899661E+03</rscale>
<asrwt>0</asrwt>
<pdfrwt beam="1">  1       21 0.20422438E-01 0.18899661E+03</pdfrwt>
<pdfrwt beam="2">  1       21 0.42828563E-01 0.18899661E+03</pdfrwt>
<totfact> 0.11654825E+05</totfact>
</mgrwt>
</event>
<event>
 4    1  0.4199484E+000  0.1841361E+03  0.7546771E-02  0.1163859E+00
         21   -1    0    0  503  502  0.00000000000E+00  0.00000000000E+00  0.19209014312E+03  0.19209014312E+03  0.00000000000E+00 0. -1.
         21   -1    0    0  501  503 -0.00000000000E+00 -0.00000000000E+00 -0.23462576902E+03  0.23462576902E+03  0.00000000000E+00 0. -1.
          6    1    1    2  501    0  0.28574739984E+02 -0.56219077850E+02 -0.12745270832E+03  0.22394261171E+03  0.17300000000E+03 0. -1.
         -6    1    1    2    0  502 -0.28574739984E+02  0.56219077850E+02  0.84917082422E+02  0.20277330043E+03  0.17300000000E+03 0. -1.
<mgrwt>
<rscale>  2 0.18413609E+03</rscale>
<asrwt>0</asrwt>
<pdfrwt beam="1">  1       21 0.29552330E-01 0.18413609E+03</pdfrwt>
<pdfrwt beam="2">  1       21 0.36096272E-01 0.18413609E+03</pdfrwt>
<totfact> 0.81490210E+04</totfact>
</mgrwt>
</event>
<event>
 4    1  0.4199484E+000  0.2160500E+03  0.7546771E-02  0.1136863E+00
         21   -1    0    0  503  502  0.00000000000E+00  0.00000000000E+00  0.35950234467E+03  0.35950234467E+03  0.00000000000E+00 0.  1.
         21   -1    0    0  501  503 -0.00000000000E+00 -0.00000000000E+00 -0.19575127516E+03  0.19575127516E+03  0.00000000000E+00 0. -1.
          6    1    1    2  501    0 -0.65255582940E+02  0.11176012134E+03 -0.79222597372E+02  0.23011700450E+03  0.17300000000E+03 0. -1.
         -6    1    1    2    0  502  0.65255582940E+02 -0.11176012134E+03  0.24297366688E+03  0.32513661532E+03  0.17300000000E+03 0.  1.
<mgrwt>
<rscale>  2 0.21605003E+03</rscale>
<asrwt>0</asrwt>
<pdfrwt beam="1">  1       21 0.55308053E-01 0.21605003E+03</pdfrwt>
<pdfrwt beam="2">  1       21 0.30115581E-01 0.21605003E+03</pdfrwt>
<totfact> 0.32200010E+04</totfact>
</mgrwt>
</event>
<event>
 4    1  0.4199484E+000  0.1942438E+03  0.7546771E-02  0.1154688E+00
         21   -1    0    0  501  502  0.00000000000E+00  0.00000000000E+00  0.43344761514E+03  0.43344761514E+03  0.00000000000E+00 0. -1.
         21   -1    0    0  502  503 -0.00000000000E+00 -0.00000000000E+00 -0.93387003112E+02  0.93387003112E+02  0.00000000000E+00 0. -1.
          6    1    1    2  501    0  0.54863045266E+02 -0.69222199116E+02  0.23866093933E+03  0.30771693250E+03  0.17300000000E+03 0. -1.
         -6    1    1    2    0  503 -0.54863045266E+02  0.69222199116E+02  0.10139967271E+03  0.21911768576E+03  0.17300000000E+03 0. -1.
<mgrwt>
<rscale>  2 0.19424383E+03</rscale>
<asrwt>0</asrwt>
<pdfrwt beam="1">  1       21 0.66684247E-01 0.19424383E+03</pdfrwt>
<pdfrwt beam="2">  1       21 0.14367232E-01 0.19424383E+03</pdfrwt>
<totfact> 0.87393009E+04</totfact>
</mgrwt>
</event>
<event>
 4    1  0.4199484E+000  0.1904520E+03  0.7546771E-02  0.1158054E+00
         21   -1    0    0  501  502  0.00000000000E+00  0.00000000000E+00  0.53208243511E+02  0.53208243511E+02  0.00000000000E+00 0. -1.
         21   -1    0    0  502  503 -0.00000000000E+00 -0.00000000000E+00 -0.13649380294E+04  0.13649380294E+04  0.00000000000E+00 0. -1.
          6    1    1    2  501    0 -0.68656022883E+02 -0.40364778431E+02 -0.15419140880E+03  0.24504480277E+03  0.17300000000E+03 0.  1.
         -6    1    1    2    0  503  0.68656022883E+02  0.40364778431E+02 -0.11575383771E+04  0.11731014701E+04  0.17300000000E+03 0.  1.
<mgrwt>
<rscale>  2 0.19045200E+03</rscale>
<asrwt>0</asrwt>
<pdfrwt beam="1">  1       21 0.81858842E-02 0.19045200E+03</pdfrwt>
<pdfrwt beam="2">  1       21 0.20999045E+00 0.19045200E+03</pdfrwt>
<totfact> 0.13405445E+04</totfact>
</mgrwt>
</event>
<event>
 4    1  0.4199484E+000  0.2448660E+03  0.7546771E-02  0.1116593E+00
         21   -1    0    0  501  502  0.00000000000E+00  0.00000000000E+00  0.66920579875E+02  0.66920579875E+02  0.00000000000E+00 0. -1.
         21   -1    0    0  502  503 -0.00000000000E+00 -0.00000000000E+00 -0.90301568673E+03  0.90301568673E+03  0.00000000000E+00 0. -1.
          6    1    1    2  501    0  0.52655613120E+02 -0.16509921488E+03 -0.37523393945E+03  0.44806235466E+03  0.17300000000E+03 0. -1.
         -6    1    1    2    0  503 -0.52655613120E+02  0.16509921488E+03 -0.46086116741E+03  0.52187391195E+03  0.17300000000E+03 0. -1.
<mgrwt>
<rscale>  2 0.24486601E+03</rscale>
<asrwt>0</asrwt>
<pdfrwt beam="1">  1       21 0.10295474E-01 0.24486601E+03</pdfrwt>
<pdfrwt beam="2">  1       21 0.13892548E+00 0.24486601E+03</pdfrwt>
<totfact> 0.27304614E+04</totfact>
</mgrwt>
</event>
<event>
 4    1  0.4199484E+000  0.1869761E+03  0.7546771E-02  0.1161217E+00
         21   -1    0    0  503  502  0.00000000000E+00  0.00000000000E+00  0.15279463950E+03  0.15279463950E+03  0.00000000000E+00 0. -1.
         21   -1    0    0  501  503 -0.00000000000E+00 -0.00000000000E+00 -0.25252023119E+03  0.25252023119E+03  0.00000000000E+00 0. -1.
          6    1    1    2  501    0 -0.68101583277E+02 -0.19830403625E+02 -0.11196893654E+03  0.21793832454E+03  0.17300000000E+03 0. -1.
         -6    1    1    2    0  502  0.68101583277E+02  0.19830403625E+02  0.12243344849E+02  0.18737654615E+03  0.17300000000E+03 0. -1.
<mgrwt>
<rscale>  2 0.18697612E+03</rscale>
<asrwt>0</asrwt>
<pdfrwt beam="1">  1       21 0.23506868E-01 0.18697612E+03</pdfrwt>
<pdfrwt beam="2">  1       21 0.38849266E-01 0.18697612E+03</pdfrwt>
<totfact> 0.10902421E+05</totfact>
</mgrwt>
</event>
<event>
 4    1  0.4199484E+000  0.1773210E+03  0.7546771E-02  0.1170421E+00
         21   -1    0    0  503  502  0.00000000000E+00  0.00000000000E+00  0.11832143002E+03  0.11832143002E+03  0.00000000000E+00 0. -1.
         21   -1    0    0  501  503 -0.00000000000E+00 -0.00000000000E+00 -0.26977711661E+03  0.26977711661E+03  0.00000000000E+00 0. -1.
          6    1    1    2  501    0  0.11336904614E+02 -0.37218635127E+02 -0.99465514807E+02  0.20331291362E+03  0.17300000000E+03 0. -1.
         -6    1    1    2    0  502 -0.11336904614E+02  0.37218635127E+02 -0.51990171789E+02  0.18478563302E+03  0.17300000000E+03 0. -1.
<mgrwt>
<rscale>  2 0.17732104E+03</rscale>
<asrwt>0</asrwt>
<pdfrwt beam="1">  1       21 0.18203297E-01 0.17732104E+03</pdfrwt>
<pdfrwt beam="2">  1       21 0.41504172E-01 0.17732104E+03</pdfrwt>
<totfact> 0.15445970E+05</totfact>
</mgrwt>
</event>
<event>
 4    1  0.4199484E+000  0.2622925E+03  0.7546771E-02  0.1105774E+00
         21   -1    0    0  503  502  0.00000000000E+00  0.00000000000E+00  0.16959257642E+03  0.16959257642E+03  0.00000000000E+00 0. -1.
         21   -1    0    0  501  503 -0.00000000000E+00 -0.00000000000E+00 -0.96821343031E+03  0.96821343031E+03  0.00000000000E+00 0.  1.
          6    1    1    2  501    0  0.12034685548E+03  0.15615687285E+03 -0.83295471540E+03  0.87327595436E+03  0.17300000000E+03 0.  1.
         -6    1    1    2    0  502 -0.12034685548E+03 -0.15615687285E+03  0.34333861505E+02  0.26453005237E+03  0.17300000000E+03 0. -1.
<mgrwt>
<rscale>  2 0.26229246E+03</rscale>
<asrwt>0</asrwt>
<pdfrwt beam="1">  1       21 0.26091165E-01 0.26229246E+03</pdfrwt>
<pdfrwt beam="2">  1       21 0.14895592E+00 0.26229246E+03</pdfrwt>
<totfact> 0.40308142E+03</totfact>
</mgrwt>
</event>
<event>
 4    1  0.4199484E+000  0.2121852E+03  0.7546771E-02  0.1139847E+00
         21   -1    0    0  501  502  0.00000000000E+00  0.00000000000E+00  0.82122368468E+02  0.82122368468E+02  0.00000000000E+00 0. -1.
         21   -1    0    0  502  503 -0.00000000000E+00 -0.00000000000E+00 -0.57733511756E+03  0.57733511756E+03  0.00000000000E+00 0. -1.
          6    1    1    2  501    0  0.91573417466E+02  0.81901536834E+02 -0.17358240084E+03  0.27414120887E+03  0.17300000000E+03 0. -1.
         -6    1    1    2    0  503 -0.91573417466E+02 -0.81901536834E+02 -0.32163034826E+03  0.38531627716E+03  0.17300000000E+03 0. -1.
<mgrwt>
<rscale>  2 0.21218518E+03</rscale>
<asrwt>0</asrwt>
<pdfrwt beam="1">  1       21 0.12634210E-01 0.21218518E+03</pdfrwt>
<pdfrwt beam="2">  1       21 0.88820788E-01 0.21218518E+03</pdfrwt>
<totfact> 0.57410775E+04</totfact>
</mgrwt>
</event>
<event>
 4    1  0.4199484E+000  0.2053749E+03  0.7546771E-02  0.1145282E+00
         21   -1    0    0  503  502  0.00000000000E+00  0.00000000000E+00  0.76633771293E+03  0.76633771293E+03  0.00000000000E+00 0. -1.
         21   -1    0    0  501  503 -0.00000000000E+00 -0.00000000000E+00 -0.38719939872E+03  0.38719939872E+03  0.00000000000E+00 0.  1.
          6    1    1    2  501    0  0.34888387777E+02  0.10503647465E+03 -0.34463569022E+03  0.40118900731E+03  0.17300000000E+03 0.  1.
         -6    1    1    2    0  502 -0.34888387777E+02 -0.10503647465E+03  0.72377400443E+03  0.75234810434E+03  0.17300000000E+03 0. -1.
<mgrwt>
<rscale>  2 0.20537493E+03</rscale>
<asrwt>0</asrwt>
<pdfrwt beam="1">  1       21 0.11789811E+00 0.20537493E+03</pdfrwt>
<pdfrwt beam="2">  1       21 0.59569138E-01 0.20537493E+03</pdfrwt>
<totfact> 0.14342315E+03</totfact>
</mgrwt>
</event>
<event>
 4    1  0.4199484E+000  0.1830582E+03  0.7546771E-02  0.1164876E+00
         21   -1    0    0  501  502  0.00000000000E+00  0.00000000000E+00  0.23397230615E+03  0.23397230615E+03  0.00000000000E+00 0.  1.
         21   -1    0    0  502  503 -0.00000000000E+00 -0.00000000000E+00 -0.18331705419E+03  0.18331705419E+03  0.00000000000E+00 0.  1.
          6    1    1    2  501    0  0.26768617450E+02  0.53523339211E+02  0.12290379395E+03  0.22048956730E+03  0.17300000000E+03 0.  1.
         -6    1    1    2    0  503 -0.26768617450E+02 -0.53523339211E+02 -0.72248541997E+02  0.19679979304E+03  0.17300000000E+03 0.  1.
<mgrwt>
<rscale>  2 0.18305821E+03</rscale>
<asrwt>0</asrwt>
<pdfrwt beam="1">  1       21 0.35995740E-01 0.18305821E+03</pdfrwt>
<pdfrwt beam="2">  1       21 0.28202624E-01 0.18305821E+03</pdfrwt>
<totfact> 0.89753281E+04</totfact>
</mgrwt>
</event>
<event>
 4    1  0.4199484E+000  0.1946284E+03  0.7546771E-02  0.1154352E+00
         21   -1    0    0  501  502  0.00000000000E+00  0.00000000000E+00  0.36289646700E+03  0.36289646700E+03  0.00000000000E+00 0. -1.
         21   -1    0    0  502  503 -0.00000000000E+00 -0.00000000000E+00 -0.18737349857E+03  0.18737349857E+03  0.00000000000E+00 0. -1.
          6    1    1    2  501    0  0.82392468983E+02 -0.34098064237E+02  0.27086896917E+03  0.33354189450E+03  0.17300000000E+03 0. -1.
         -6    1    1    2    0  503 -0.82392468983E+02  0.34098064237E+02 -0.95346000736E+02  0.21672807106E+03  0.17300000000E+03 0. -1.
<mgrwt>
<rscale>  2 0.19462836E+03</rscale>
<asrwt>0</asrwt>
<pdfrwt beam="1">  1       21 0.55830226E-01 0.19462836E+03</pdfrwt>
<pdfrwt beam="2">  1       21 0.28826692E-01 0.19462836E+03</pdfrwt>
<totfact> 0.34762950E+04</totfact>
</mgrwt>
</event>
<event>
 4    1  0.4199484E+000  0.2632979E+03  0.7546771E-02  0.1105178E+00
         21   -1    0    0  503  502  0.00000000000E+00  0.00000000000E+00  0.69303630087E+03  0.69303630087E+03  0.00000000000E+00 0.  1.
         21   -1    0    0  501  503 -0.00000000000E+00 -0.00000000000E+00 -0.15083043693E+03  0.15083043693E+03  0.00000000000E+00 0. -1.
          6    1    1    2  501    0  0.16986054079E+03 -0.10268476838E+03  0.26239002800E+02  0.26460206016E+03  0.17300000000E+03 0. -1.
         -6    1    1    2    0  502 -0.16986054079E+03  0.10268476838E+03  0.51596686114E+03  0.57926467764E+03  0.17300000000E+03 0.  1.
<mgrwt>
<rscale>  2 0.26329786E+03</rscale>
<asrwt>0</asrwt>
<pdfrwt beam="1">  1       21 0.10662097E+00 0.26329786E+03</pdfrwt>
<pdfrwt beam="2">  1       21 0.23204683E-01 0.26329786E+03</pdfrwt>
<totfact> 0.11774067E+04</totfact>
</mgrwt>
</event>
<event>
 4    1  0.4199484E+000  0.3045704E+03  0.7546771E-02  0.1082978E+00
         21   -1    0    0  503  502  0.00000000000E+00  0.00000000000E+00  0.13136155346E+04  0.13136155346E+04  0.00000000000E+00 0. -1.
         21   -1    0    0  501  503 -0.00000000000E+00 -0.00000000000E+00 -0.74756930035E+02  0.74756930035E+02  0.00000000000E+00 0. -1.
          6    1    1    2  501    0 -0.24507725707E+03  0.52642981194E+02  0.45606225938E+03  0.54841218972E+03  0.17300000000E+03 0. -1.
         -6    1    1    2    0  502  0.24507725707E+03 -0.52642981194E+02  0.78279634522E+03  0.83996027495E+03  0.17300000000E+03 0. -1.
<mgrwt>
<rscale>  2 0.30457043E+03</rscale>
<asrwt>0</asrwt>
<pdfrwt beam="1">  1       21 0.20209468E+00 0.30457043E+03</pdfrwt>
<pdfrwt beam="2">  1       21 0.11501067E-01 0.30457043E+03</pdfrwt>
<totfact> 0.76166059E+03</totfact>
</mgrwt>
</event>
<event>
 4    1  0.4199484E+000  0.1978120E+03  0.7546771E-02  0.1151598E+00
         21   -1    0    0  503  502  0.00000000000E+00  0.00000000000E+00  0.12249367445E+04  0.12249367445E+04  0.00000000000E+00 0.  1.
         21   -1    0    0  501  503 -0.00000000000E+00 -0.00000000000E+00 -0.44689882924E+02  0.44689882924E+02  0.00000000000E+00 0.  1.
          6    1    1    2  501    0  0.29441469433E+02 -0.91289625349E+02  0.25110495262E+03  0.31966121605E+03  0.17300000000E+03 0.  1.
         -6    1    1    2    0  502 -0.29441469433E+02  0.91289625349E+02  0.92914190892E+03  0.94996541133E+03  0.17300000000E+03 0.  1.
<mgrwt>
<rscale>  2 0.19781202E+03</rscale>
<asrwt>0</asrwt>
<pdfrwt beam="1">  1       21 0.18845178E+00 0.19781202E+03</pdfrwt>
<pdfrwt beam="2">  1       21 0.68753675E-02 0.19781202E+03</pdfrwt>
<totfact> 0.24824107E+04</totfact>
</mgrwt>
</event>
<event>
 4    1  0.4199484E+000  0.2412124E+03  0.7546771E-02  0.1118988E+00
         21   -1    0    0  503  502  0.00000000000E+00  0.00000000000E+00  0.32943596017E+03  0.32943596017E+03  0.00000000000E+00 0. -1.
         21   -1    0    0  501  503 -0.00000000000E+00 -0.00000000000E+00 -0.18108588366E+03  0.18108588366E+03  0.00000000000E+00 0. -1.
          6    1    1    2  501    0  0.79217252255E+02  0.14825340662E+03  0.34067871639E+02  0.24360637411E+03  0.17300000000E+03 0. -1.
         -6    1    1    2    0  502 -0.79217252255E+02 -0.14825340662E+03  0.11428220487E+03  0.26691546972E+03  0.17300000000E+03 0. -1.
<mgrwt>
<rscale>  2 0.24121245E+03</rscale>
<asrwt>0</asrwt>
<pdfrwt beam="1">  1       21 0.50682455E-01 0.24121245E+03</pdfrwt>
<pdfrwt beam="2">  1       21 0.27859367E-01 0.24121245E+03</pdfrwt>
<totfact> 0.44550437E+04</totfact>
</mgrwt>
</event>
<event>
 4    1  0.4199484E+000  0.2552368E+03  0.7546771E-02  0.1110039E+00
         21   -1    0    0  501  502  0.00000000000E+00  0.00000000000E+00  0.87186980052E+02  0.87186980052E+02  0.00000000000E+00 0. -1.
         21   -1    0    0  502  503 -0.00000000000E+00 -0.00000000000E+00 -0.80513142766E+03  0.80513142766E+03  0.00000000000E+00 0. -1.
          6    1    1    2  501    0 -0.96523964462E+02  0.16093457564E+03 -0.23929089568E+03  0.34986561150E+03  0.17300000000E+03 0. -1.
         -6    1    1    2    0  503  0.96523964462E+02 -0.16093457564E+03 -0.47865355193E+03  0.54245279622E+03  0.17300000000E+03 0. -1.
<mgrwt>
<rscale>  2 0.25523678E+03</rscale>
<asrwt>0</asrwt>
<pdfrwt beam="1">  1       21 0.13413382E-01 0.25523678E+03</pdfrwt>
<pdfrwt beam="2">  1       21 0.12386637E+00 0.25523678E+03</pdfrwt>
<totfact> 0.22632912E+04</totfact>
</mgrwt>
</event>
<event>
 4    1  0.4199484E+000  0.1800400E+03  0.7546771E-02  0.1167764E+00
         21   -1    0    0  501  502  0.00000000000E+00  0.00000000000E+00  0.14718432865E+04  0.14718432865E+04  0.00000000000E+00 0.  1.
         21   -1    0    0  502  503 -0.00000000000E+00 -0.00000000000E+00 -0.25884662809E+02  0.25884662809E+02  0.00000000000E+00 0.  1.
          6    1    1    2  501    0  0.43962603826E+02 -0.23509167717E+02  0.10122266438E+04  0.10281134032E+04  0.17300000000E+03 0.  1.
         -6    1    1    2    0  503 -0.43962603826E+02  0.23509167717E+02  0.43373197993E+03  0.46961454611E+03  0.17300000000E+03 0.  1.
<mgrwt>
<rscale>  2 0.18003997E+03</rscale>
<asrwt>0</asrwt>
<pdfrwt beam="1">  1       21 0.22643736E+00 0.18003997E+03</pdfrwt>
<pdfrwt beam="2">  1       21 0.39822570E-02 0.18003997E+03</pdfrwt>
<totfact> 0.36631426E+04</totfact>
</mgrwt>
</event>
<event>
 4    1  0.4199484E+000  0.2251320E+03  0.7546771E-02  0.1130114E+00
         21   -1    0    0  503  502  0.00000000000E+00  0.00000000000E+00  0.10575510755E+03  0.10575510755E+03  0.00000000000E+00 0.  1.
         21   -1    0    0  501  503 -0.00000000000E+00 -0.00000000000E+00 -0.11133752298E+04  0.11133752298E+04  0.00000000000E+00 0.  1.
          6    1    1    2  501    0  0.67742461451E+02  0.12714709542E+03 -0.96383640827E+03  0.98978030232E+03  0.17300000000E+03 0.  1.
         -6    1    1    2    0  502 -0.67742461451E+02 -0.12714709542E+03 -0.43783713990E+02  0.22935003503E+03  0.17300000000E+03 0.  1.
<mgrwt>
<rscale>  2 0.22513202E+03</rscale>
<asrwt>0</asrwt>
<pdfrwt beam="1">  1       21 0.16270017E-01 0.22513202E+03</pdfrwt>
<pdfrwt beam="2">  1       21 0.17128849E+00 0.22513202E+03</pdfrwt>
<totfact> 0.68868117E+03</totfact>
</mgrwt>
</event>
<event>
 4    1  0.4199484E+000  0.2191646E+03  0.7546771E-02  0.1134507E+00
         21   -1    0    0  501  502  0.00000000000E+00  0.00000000000E+00  0.29074084502E+03  0.29074084502E+03  0.00000000000E+00 0. -1.
         21   -1    0    0  502  503 -0.00000000000E+00 -0.00000000000E+00 -0.48319676126E+03  0.48319676126E+03  0.00000000000E+00 0. -1.
          6    1    1    2  501    0 -0.12836836048E+03  0.40319931593E+02  0.21769194195E+03  0.30890599613E+03  0.17300000000E+03 0. -1.
         -6    1    1    2    0  503  0.12836836048E+03 -0.40319931593E+02 -0.41014785819E+03  0.46503161015E+03  0.17300000000E+03 0. -1.
<mgrwt>
<rscale>  2 0.21916463E+03</rscale>
<asrwt>0</asrwt>
<pdfrwt beam="1">  1       21 0.44729362E-01 0.21916463E+03</pdfrwt>
<pdfrwt beam="2">  1       21 0.74337962E-01 0.21916463E+03</pdfrwt>
<totfact> 0.76366855E+03</totfact>
</mgrwt>
</event>
<event>
 4    1  0.4199484E+000  0.2872283E+03  0.7546771E-02  0.1091805E+00
         21   -1    0    0  501  502  0.00000000000E+00  0.00000000000E+00  0.34626418037E+02  0.34626418037E+02  0.00000000000E+00 0. -1.
         21   -1    0    0  502  503 -0.00000000000E+00 -0.00000000000E+00 -0.24206067513E+04  0.24206067513E+04  0.00000000000E+00 0.  1.
          6    1    1    2  501    0  0.20269421129E+03  0.10717360522E+03 -0.13468621120E+04  0.13771483848E+04  0.17300000000E+03 0.  1.
         -6    1    1    2    0  503 -0.20269421129E+03 -0.10717360522E+03 -0.10391182213E+04  0.10780847846E+04  0.17300000000E+03 0. -1.
<mgrwt>
<rscale>  2 0.28722835E+03</rscale>
<asrwt>0</asrwt>
<pdfrwt beam="1">  1       21 0.53271414E-02 0.28722835E+03</pdfrwt>
<pdfrwt beam="2">  1       21 0.37240103E+00 0.28722835E+03</pdfrwt>
<totfact> 0.27936795E+03</totfact>
</mgrwt>
</event>
<event>
 4    1  0.4199484E+000  0.2134168E+03  0.7546771E-02  0.1138888E+00
         21   -1    0    0  501  502  0.00000000000E+00  0.00000000000E+00  0.19095138135E+03  0.19095138135E+03  0.00000000000E+00 0. -1.
         21   -1    0    0  502  503 -0.00000000000E+00 -0.00000000000E+00 -0.38662387646E+03  0.38662387646E+03  0.00000000000E+00 0.  1.
          6    1    1    2  501    0  0.11983599078E+03  0.35455305995E+02  0.80898763266E+02  0.22823530250E+03  0.17300000000E+03 0. -1.
         -6    1    1    2    0  503 -0.11983599078E+03 -0.35455305995E+02 -0.27657125838E+03  0.34933995530E+03  0.17300000000E+03 0.  1.
<mgrwt>
<rscale>  2 0.21341683E+03</rscale>
<asrwt>0</asrwt>
<pdfrwt beam="1">  1       21 0.29377136E-01 0.21341683E+03</pdfrwt>
<pdfrwt beam="2">  1       21 0.59480596E-01 0.21341683E+03</pdfrwt>
<totfact> 0.28973854E+04</totfact>
</mgrwt>
</event>
<event>
 4    1  0.4199484E+000  0.2345744E+03  0.7546771E-02  0.1123461E+00
         21   -1    0    0  501  502  0.00000000000E+00  0.00000000000E+00  0.80710560247E+02  0.80710560247E+02  0.00000000000E+00 0.  1.
         21   -1    0    0  502  503 -0.00000000000E+00 -0.00000000000E+00 -0.11047868875E+04  0.11047868875E+04  0.00000000000E+00 0.  1.
          6    1    1    2  501    0  0.12100991087E+03  0.10223880639E+03 -0.14524964185E+03  0.27590329921E+03  0.17300000000E+03 0.  1.
         -6    1    1    2    0  503 -0.12100991087E+03 -0.10223880639E+03 -0.87882668539E+03  0.90959414852E+03  0.17300000000E+03 0.  1.
<mgrwt>
<rscale>  2 0.23457445E+03</rscale>
<asrwt>0</asrwt>
<pdfrwt beam="1">  1       21 0.12417009E-01 0.23457445E+03</pdfrwt>
<pdfrwt beam="2">  1       21 0.16996722E+00 0.23457445E+03</pdfrwt>
<totfact> 0.11433102E+04</totfact>
</mgrwt>
</event>
<event>
 4    1  0.4199484E+000  0.1994274E+03  0.7546771E-02  0.1150223E+00
         21   -1    0    0  501  502  0.00000000000E+00  0.00000000000E+00  0.19125121035E+03  0.19125121035E+03  0.00000000000E+00 0. -1.
         21   -1    0    0  502  503 -0.00000000000E+00 -0.00000000000E+00 -0.21335706769E+03  0.21335706769E+03  0.00000000000E+00 0. -1.
          6    1    1    2  501    0 -0.97681862319E+02  0.17336129010E+02  0.21143408169E+02  0.20054508546E+03  0.17300000000E+03 0.  1.
         -6    1    1    2    0  503  0.97681862319E+02 -0.17336129010E+02 -0.43249265506E+02  0.20406319257E+03  0.17300000000E+03 0.  1.
<mgrwt>
<rscale>  2 0.19942740E+03</rscale>
<asrwt>0</asrwt>
<pdfrwt beam="1">  1       21 0.29423263E-01 0.19942740E+03</pdfrwt>
<pdfrwt beam="2">  1       21 0.32824164E-01 0.19942740E+03</pdfrwt>
<totfact> 0.98600975E+04</totfact>
</mgrwt>
</event>
<event>
 4    1  0.4199484E+000  0.1874264E+03  0.7546771E-02  0.1160803E+00
         21   -1    0    0  503  502  0.00000000000E+00  0.00000000000E+00  0.29791824370E+03  0.29791824370E+03  0.00000000000E+00 0.  1.
         21   -1    0    0  501  503 -0.00000000000E+00 -0.00000000000E+00 -0.32152914221E+03  0.32152914221E+03  0.00000000000E+00 0.  1.
          6    1    1    2  501    0 -0.30896306505E+02 -0.65154349038E+02 -0.25827854032E+03  0.31911827798E+03  0.17300000000E+03 0.  1.
         -6    1    1    2    0  502  0.30896306505E+02  0.65154349038E+02  0.23466764182E+03  0.30032910793E+03  0.17300000000E+03 0.  1.
<mgrwt>
<rscale>  2 0.18742644E+03</rscale>
<asrwt>0</asrwt>
<pdfrwt beam="1">  1       21 0.45833576E-01 0.18742644E+03</pdfrwt>
<pdfrwt beam="2">  1       21 0.49466022E-01 0.18742644E+03</pdfrwt>
<totfact> 0.17837372E+04</totfact>
</mgrwt>
</event>
<event>
 4    1  0.4199484E+000  0.1764702E+03  0.7546771E-02  0.1171264E+00
         21   -1    0    0  503  502  0.00000000000E+00  0.00000000000E+00  0.47761168106E+03  0.47761168106E+03  0.00000000000E+00 0. -1.
         21   -1    0    0  501  503 -0.00000000000E+00 -0.00000000000E+00 -0.81573475154E+02  0.81573475154E+02  0.00000000000E+00 0. -1.
          6    1    1    2  501    0  0.73730702046E+01  0.34034615728E+02  0.72767953105E+02  0.19088449971E+03  0.17300000000E+03 0. -1.
         -6    1    1    2    0  502 -0.73730702046E+01 -0.34034615728E+02  0.32327025281E+03  0.36830065650E+03  0.17300000000E+03 0. -1.
<mgrwt>
<rscale>  2 0.17647016E+03</rscale>
<asrwt>0</asrwt>
<pdfrwt beam="1">  1       21 0.73478719E-01 0.17647016E+03</pdfrwt>
<pdfrwt beam="2">  1       21 0.12549766E-01 0.17647016E+03</pdfrwt>
<totfact> 0.90719447E+04</totfact>
</mgrwt>
</event>
<event>
 4    1  0.4199484E+000  0.1968988E+03  0.7546771E-02  0.1152382E+00
         21   -1    0    0  501  502  0.00000000000E+00  0.00000000000E+00  0.42660309579E+02  0.42660309579E+02  0.00000000000E+00 0.  1.
         21   -1    0    0  502  503 -0.00000000000E+00 -0.00000000000E+00 -0.11072925559E+04  0.11072925559E+04  0.00000000000E+00 0. -1.
          6    1    1    2  501    0  0.83959698814E+02 -0.42318961330E+02 -0.28886856412E+03  0.34959143703E+03  0.17300000000E+03 0.  1.
         -6    1    1    2    0  503 -0.83959698814E+02  0.42318961330E+02 -0.77576368221E+03  0.80036142845E+03  0.17300000000E+03 0.  1.
<mgrwt>
<rscale>  2 0.19689877E+03</rscale>
<asrwt>0</asrwt>
<pdfrwt beam="1">  1       21 0.65631250E-02 0.19689877E+03</pdfrwt>
<pdfrwt beam="2">  1       21 0.17035269E+00 0.19689877E+03</pdfrwt>
<totfact> 0.35767634E+04</totfact>
</mgrwt>
</event>
<event>
 4    1  0.4199484E+000  0.4172464E+03  0.7546771E-02  0.1037966E+00
         21   -1    0    0  503  502  0.00000000000E+00  0.00000000000E+00  0.25026300935E+03  0.25026300935E+03  0.00000000000E+00 0.  1.
         21   -1    0    0  501  503 -0.00000000000E+00 -0.00000000000E+00 -0.69731827112E+03  0.69731827112E+03  0.00000000000E+00 0. -1.
          6    1    1    2  501    0 -0.37912441574E+03 -0.20742346821E+02 -0.24672662800E+03  0.48473559445E+03  0.17300000000E+03 0.  1.
         -6    1    1    2    0  502  0.37912441574E+03  0.20742346821E+02 -0.20032863377E+03  0.46284568602E+03  0.17300000000E+03 0.  1.
<mgrwt>
<rscale>  2 0.41724641E+03</rscale>
<asrwt>0</asrwt>
<pdfrwt beam="1">  1       21 0.38502002E-01 0.41724641E+03</pdfrwt>
<pdfrwt beam="2">  1       21 0.10727973E+00 0.41724641E+03</pdfrwt>
<totfact> 0.39886429E+03</totfact>
</mgrwt>
</event>
<event>
 4    1  0.4199484E+000  0.1737426E+03  0.7546771E-02  0.1174000E+00
         21   -1    0    0  503  502  0.00000000000E+00  0.00000000000E+00  0.15401282458E+04  0.15401282458E+04  0.00000000000E+00 0.  1.
         21   -1    0    0  501  503 -0.00000000000E+00 -0.00000000000E+00 -0.20915413006E+02  0.20915413006E+02  0.00000000000E+00 0.  1.
          6    1    1    2  501    0  0.14649543537E+02  0.65487466121E+01  0.56386403375E+03  0.59002469759E+03  0.17300000000E+03 0.  1.
         -6    1    1    2    0  502 -0.14649543537E+02 -0.65487466121E+01  0.95534879904E+03  0.97101896122E+03  0.17300000000E+03 0.  1.
<mgrwt>
<rscale>  2 0.17374261E+03</rscale>
<asrwt>0</asrwt>
<pdfrwt beam="1">  1       21 0.23694272E+00 0.17374261E+03</pdfrwt>
<pdfrwt beam="2">  1       21 0.32177571E-02 0.17374261E+03</pdfrwt>
<totfact> 0.45417172E+04</totfact>
</mgrwt>
</event>
<event>
 4    1  0.4199484E+000  0.5276386E+03  0.7546771E-02  0.1006806E+00
         21   -1    0    0  501  502  0.00000000000E+00  0.00000000000E+00  0.55618074524E+03  0.55618074524E+03  0.00000000000E+00 0.  1.
         21   -1    0    0  502  503 -0.00000000000E+00 -0.00000000000E+00 -0.50959097546E+03  0.50959097546E+03  0.00000000000E+00 0. -1.
          6    1    1    2  501    0  0.17022204595E+03  0.46850613211E+03  0.94229807724E+02  0.53598675115E+03  0.17300000000E+03 0.  1.
         -6    1    1    2    0  503 -0.17022204595E+03 -0.46850613211E+03 -0.47640037940E+02  0.52978496955E+03  0.17300000000E+03 0. -1.
<mgrwt>
<rscale>  2 0.52763865E+03</rscale>
<asrwt>0</asrwt>
<pdfrwt beam="1">  1       21 0.85566268E-01 0.52763865E+03</pdfrwt>
<pdfrwt beam="2">  1       21 0.78398612E-01 0.52763865E+03</pdfrwt>
<totfact> 0.14167821E+03</totfact>
</mgrwt>
</event>
<event>
 4    1  0.4199484E+000  0.1955326E+03  0.7546771E-02  0.1153564E+00
         21   -1    0    0  501  502  0.00000000000E+00  0.00000000000E+00  0.65212895020E+03  0.65212895020E+03  0.00000000000E+00 0. -1.
         21   -1    0    0  502  503 -0.00000000000E+00 -0.00000000000E+00 -0.24764761166E+03  0.24764761166E+03  0.00000000000E+00 0. -1.
          6    1    1    2  501    0 -0.50236815695E+02 -0.76028000299E+02  0.59528458680E+03  0.62657540149E+03  0.17300000000E+03 0. -1.
         -6    1    1    2    0  503  0.50236815695E+02  0.76028000299E+02 -0.19080324826E+03  0.27320116037E+03  0.17300000000E+03 0. -1.
<mgrwt>
<rscale>  2 0.19553259E+03</rscale>
<asrwt>0</asrwt>
<pdfrwt beam="1">  1       21 0.10032753E+00 0.19553259E+03</pdfrwt>
<pdfrwt beam="2">  1       21 0.38099633E-01 0.19553259E+03</pdfrwt>
<totfact> 0.53998900E+03</totfact>
</mgrwt>
</event>
