<event>
 4    1  0.4173994E+000  0.1776836E+03  0.7546771E-02  0.1170064E+00
         21   -1    0    0  501  502  0.00000000000E+00  0.00000000000E+00  0.35062254531E+02  0.35062254531E+02  0.00000000000E+00 0. -1.
         21   -1    0    0  502  503 -0.00000000000E+00 -0.00000000000E+00 -0.92957849692E+03  0.92957849692E+03  0.00000000000E+00 0.  1.
          6    1    1    2  501    0 -0.21234472712E+02  0.34518767340E+02 -0.53265223187E+03  0.56150676598E+03  0.17300000000E+03 0. -1.
         -6    1    1    2    0  503  0.21234472712E+02 -0.34518767340E+02 -0.36186401052E+03  0.40313398547E+03  0.17300000000E+03 0. -1.
<mgrwt>
<rscale>  2 0.17768356E+03</rscale>
<asrwt>0</asrwt>
<pdfrwt beam="1">  1       21 0.53941938E-02 0.17768356E+03</pdfrwt>
<pdfrwt beam="2">  1       21 0.14301205E+00 0.17768356E+03</pdfrwt>
<totfact> 0.80664123E+04</totfact>
</mgrwt>
</event>
<event>
 4    1  0.4173994E+000  0.1972068E+03  0.7546771E-02  0.1152117E+00
         21   -1    0    0  501  502  0.00000000000E+00  0.00000000000E+00  0.49351331017E+03  0.49351331017E+03  0.00000000000E+00 0.  1.
         21   -1    0    0  502  503 -0.00000000000E+00 -0.00000000000E+00 -0.82381258496E+02  0.82381258496E+02  0.00000000000E+00 0. -1.
          6    1    1    2  501    0  0.22632253498E+02 -0.91919986909E+02  0.26557459818E+03  0.33078749990E+03  0.17300000000E+03 0.  1.
         -6    1    1    2    0  503 -0.22632253498E+02  0.91919986909E+02  0.14555745350E+03  0.24510706877E+03  0.17300000000E+03 0. -1.
<mgrwt>
<rscale>  2 0.19720675E+03</rscale>
<asrwt>0</asrwt>
<pdfrwt beam="1">  1       21 0.75925123E-01 0.19720675E+03</pdfrwt>
<pdfrwt beam="2">  1       21 0.12674040E-01 0.19720675E+03</pdfrwt>
<totfact> 0.82143569E+04</totfact>
</mgrwt>
</event>
<event>
 4    1  0.4173994E+000  0.1993439E+03  0.7546771E-02  0.1150294E+00
         21   -1    0    0  503  502  0.00000000000E+00  0.00000000000E+00  0.51996717940E+02  0.51996717940E+02  0.00000000000E+00 0. -1.
         21   -1    0    0  501  503 -0.00000000000E+00 -0.00000000000E+00 -0.79851307838E+03  0.79851307838E+03  0.00000000000E+00 0. -1.
          6    1    1    2  501    0 -0.96717988746E+02 -0.21321745414E+02 -0.46135963981E+03  0.50258402622E+03  0.17300000000E+03 0. -1.
         -6    1    1    2    0  502  0.96717988746E+02  0.21321745414E+02 -0.28515672064E+03  0.34792577010E+03  0.17300000000E+03 0. -1.
<mgrwt>
<rscale>  2 0.19934389E+03</rscale>
<asrwt>0</asrwt>
<pdfrwt beam="1">  1       21 0.79994944E-02 0.19934389E+03</pdfrwt>
<pdfrwt beam="2">  1       21 0.12284818E+00 0.19934389E+03</pdfrwt>
<totfact> 0.59582702E+04</totfact>
</mgrwt>
</event>
<event>
 4    1  0.4173994E+000  0.1866845E+03  0.7546771E-02  0.1161486E+00
         21   -1    0    0  503  502  0.00000000000E+00  0.00000000000E+00  0.23539231287E+04  0.23539231287E+04  0.00000000000E+00 0.  1.
         21   -1    0    0  501  503 -0.00000000000E+00 -0.00000000000E+00 -0.14828925713E+02  0.14828925713E+02  0.00000000000E+00 0.  1.
          6    1    1    2  501    0 -0.19048529776E+02  0.67522195819E+02  0.11225091899E+04  0.11379270516E+04  0.17300000000E+03 0. -1.
         -6    1    1    2    0  502  0.19048529776E+02 -0.67522195819E+02  0.12165850131E+04  0.12308250028E+04  0.17300000000E+03 0. -1.
<mgrwt>
<rscale>  2 0.18668448E+03</rscale>
<asrwt>0</asrwt>
<pdfrwt beam="1">  1       21 0.36214172E+00 0.18668448E+03</pdfrwt>
<pdfrwt beam="2">  1       21 0.22813751E-02 0.18668448E+03</pdfrwt>
<totfact> 0.14814297E+04</totfact>
</mgrwt>
</event>
<event>
 4    1  0.4173994E+000  0.2262600E+03  0.7546771E-02  0.1129300E+00
         21   -1    0    0  501  502  0.00000000000E+00  0.00000000000E+00  0.14903660950E+03  0.14903660950E+03  0.00000000000E+00 0.  1.
         21   -1    0    0  502  503 -0.00000000000E+00 -0.00000000000E+00 -0.46043135076E+03  0.46043135076E+03  0.00000000000E+00 0. -1.
          6    1    1    2  501    0  0.72829135016E+02  0.12633481283E+03 -0.21260045264E+01  0.22626994439E+03  0.17300000000E+03 0.  1.
         -6    1    1    2    0  503 -0.72829135016E+02 -0.12633481283E+03 -0.30926873674E+03  0.38319801586E+03  0.17300000000E+03 0. -1.
<mgrwt>
<rscale>  2 0.22625996E+03</rscale>
<asrwt>0</asrwt>
<pdfrwt beam="1">  1       21 0.22928709E-01 0.22625996E+03</pdfrwt>
<pdfrwt beam="2">  1       21 0.70835593E-01 0.22625996E+03</pdfrwt>
<totfact> 0.31659656E+04</totfact>
</mgrwt>
</event>
<event>
 4    1  0.4173994E+000  0.2275366E+03  0.7546771E-02  0.1128386E+00
         21   -1    0    0  501  502  0.00000000000E+00  0.00000000000E+00  0.81904984487E+03  0.81904984487E+03  0.00000000000E+00 0.  1.
         21   -1    0    0  502  503 -0.00000000000E+00 -0.00000000000E+00 -0.17438766620E+03  0.17438766620E+03  0.00000000000E+00 0.  1.
          6    1    1    2  501    0  0.10286734030E+03  0.10612367427E+03  0.71893736761E+03  0.75408478468E+03  0.17300000000E+03 0.  1.
         -6    1    1    2    0  503 -0.10286734030E+03 -0.10612367427E+03 -0.74275188933E+02  0.23935272640E+03  0.17300000000E+03 0.  1.
<mgrwt>
<rscale>  2 0.22753664E+03</rscale>
<asrwt>0</asrwt>
<pdfrwt beam="1">  1       21 0.12600767E+00 0.22753664E+03</pdfrwt>
<pdfrwt beam="2">  1       21 0.26828872E-01 0.22753664E+03</pdfrwt>
<totfact> 0.60256420E+03</totfact>
</mgrwt>
</event>
<event>
 4    1  0.4173994E+000  0.1875388E+03  0.7546771E-02  0.1160700E+00
         21   -1    0    0  501  502  0.00000000000E+00  0.00000000000E+00  0.10046987936E+03  0.10046987936E+03  0.00000000000E+00 0. -1.
         21   -1    0    0  502  503 -0.00000000000E+00 -0.00000000000E+00 -0.46223377434E+03  0.46223377434E+03  0.00000000000E+00 0. -1.
          6    1    1    2  501    0 -0.65709652114E+02 -0.30398364423E+02 -0.42283567959E+02  0.19224650598E+03  0.17300000000E+03 0. -1.
         -6    1    1    2    0  503  0.65709652114E+02  0.30398364423E+02 -0.31948032702E+03  0.37045714772E+03  0.17300000000E+03 0. -1.
<mgrwt>
<rscale>  2 0.18753885E+03</rscale>
<asrwt>0</asrwt>
<pdfrwt beam="1">  1       21 0.15456904E-01 0.18753885E+03</pdfrwt>
<pdfrwt beam="2">  1       21 0.71112888E-01 0.18753885E+03</pdfrwt>
<totfact> 0.66611456E+04</totfact>
</mgrwt>
</event>
<event>
 4    1  0.4173994E+000  0.1942948E+03  0.7546771E-02  0.1154644E+00
         21   -1    0    0  503  502  0.00000000000E+00  0.00000000000E+00  0.11358059048E+03  0.11358059048E+03  0.00000000000E+00 0. -1.
         21   -1    0    0  501  503 -0.00000000000E+00 -0.00000000000E+00 -0.51759430553E+03  0.51759430553E+03  0.00000000000E+00 0. -1.
          6    1    1    2  501    0  0.75728539441E+01 -0.88114302813E+02 -0.39079603107E+03  0.43643099842E+03  0.17300000000E+03 0. -1.
         -6    1    1    2    0  502 -0.75728539441E+01  0.88114302813E+02 -0.13217683976E+02  0.19474389759E+03  0.17300000000E+03 0. -1.
<mgrwt>
<rscale>  2 0.19429482E+03</rscale>
<asrwt>0</asrwt>
<pdfrwt beam="1">  1       21 0.17473937E-01 0.19429482E+03</pdfrwt>
<pdfrwt beam="2">  1       21 0.79629892E-01 0.19429482E+03</pdfrwt>
<totfact> 0.41184239E+04</totfact>
</mgrwt>
</event>
<event>
 4    1  0.4173994E+000  0.2678573E+03  0.7546771E-02  0.1102512E+00
         21   -1    0    0  503  502  0.00000000000E+00  0.00000000000E+00  0.22965811204E+03  0.22965811204E+03  0.00000000000E+00 0.  1.
         21   -1    0    0  501  503 -0.00000000000E+00 -0.00000000000E+00 -0.40922717252E+03  0.40922717252E+03  0.00000000000E+00 0. -1.
          6    1    1    2  501    0 -0.19182637590E+03  0.70860407730E+02 -0.24516134707E+03  0.36311381407E+03  0.17300000000E+03 0. -1.
         -6    1    1    2    0  502  0.19182637590E+03 -0.70860407730E+02  0.65592286591E+02  0.27577147049E+03  0.17300000000E+03 0. -1.
<mgrwt>
<rscale>  2 0.26785734E+03</rscale>
<asrwt>0</asrwt>
<pdfrwt beam="1">  1       21 0.35332018E-01 0.26785734E+03</pdfrwt>
<pdfrwt beam="2">  1       21 0.62958026E-01 0.26785734E+03</pdfrwt>
<totfact> 0.17319784E+04</totfact>
</mgrwt>
</event>
<event>
 4    1  0.4173994E+000  0.1909958E+03  0.7546771E-02  0.1157566E+00
         21   -1    0    0  503  502  0.00000000000E+00  0.00000000000E+00  0.75289967521E+02  0.75289967521E+02  0.00000000000E+00 0.  1.
         21   -1    0    0  501  503 -0.00000000000E+00 -0.00000000000E+00 -0.50305840723E+03  0.50305840723E+03  0.00000000000E+00 0.  1.
          6    1    1    2  501    0  0.13253880274E+02 -0.79841952982E+02 -0.26939801021E+03  0.33023429668E+03  0.17300000000E+03 0.  1.
         -6    1    1    2    0  502 -0.13253880274E+02  0.79841952982E+02 -0.15837042950E+03  0.24811407808E+03  0.17300000000E+03 0.  1.
<mgrwt>
<rscale>  2 0.19099582E+03</rscale>
<asrwt>0</asrwt>
<pdfrwt beam="1">  1       21 0.11583072E-01 0.19099582E+03</pdfrwt>
<pdfrwt beam="2">  1       21 0.77393600E-01 0.19099582E+03</pdfrwt>
<totfact> 0.92698533E+04</totfact>
</mgrwt>
</event>
<event>
 4    1  0.4173994E+000  0.1793867E+03  0.7546771E-02  0.1168398E+00
         21   -1    0    0  501  502  0.00000000000E+00  0.00000000000E+00  0.15710402217E+03  0.15710402217E+03  0.00000000000E+00 0.  1.
         21   -1    0    0  502  503 -0.00000000000E+00 -0.00000000000E+00 -0.24961431703E+03  0.24961431703E+03  0.00000000000E+00 0.  1.
          6    1    1    2  501    0 -0.25780356107E+01  0.47370086489E+02  0.39882577332E+02  0.18376667635E+03  0.17300000000E+03 0.  1.
         -6    1    1    2    0  503  0.25780356107E+01 -0.47370086489E+02 -0.13239287219E+03  0.22295166285E+03  0.17300000000E+03 0.  1.
<mgrwt>
<rscale>  2 0.17938665E+03</rscale>
<asrwt>0</asrwt>
<pdfrwt beam="1">  1       21 0.24169850E-01 0.17938665E+03</pdfrwt>
<pdfrwt beam="2">  1       21 0.38402203E-01 0.17938665E+03</pdfrwt>
<totfact> 0.10614537E+05</totfact>
</mgrwt>
</event>
<event>
 4    1  0.4173994E+000  0.2080809E+03  0.7546771E-02  0.1143095E+00
         21   -1    0    0  503  502  0.00000000000E+00  0.00000000000E+00  0.73602548898E+03  0.73602548898E+03  0.00000000000E+00 0.  1.
         21   -1    0    0  501  503 -0.00000000000E+00 -0.00000000000E+00 -0.94603480510E+02  0.94603480510E+02  0.00000000000E+00 0.  1.
          6    1    1    2  501    0  0.59999065101E+02 -0.98837140863E+02  0.65307719826E+02  0.21808889586E+03  0.17300000000E+03 0.  1.
         -6    1    1    2    0  502 -0.59999065101E+02  0.98837140863E+02  0.57611428864E+03  0.61254007363E+03  0.17300000000E+03 0.  1.
<mgrwt>
<rscale>  2 0.20808092E+03</rscale>
<asrwt>0</asrwt>
<pdfrwt beam="1">  1       21 0.11323469E+00 0.20808092E+03</pdfrwt>
<pdfrwt beam="2">  1       21 0.14554382E-01 0.20808092E+03</pdfrwt>
<totfact> 0.24994247E+04</totfact>
</mgrwt>
</event>
<event>
 4    1  0.4173994E+000  0.2709132E+03  0.7546771E-02  0.1100758E+00
         21   -1    0    0  501  502  0.00000000000E+00  0.00000000000E+00  0.10724263474E+03  0.10724263474E+03  0.00000000000E+00 0.  1.
         21   -1    0    0  502  503 -0.00000000000E+00 -0.00000000000E+00 -0.91322212511E+03  0.91322212511E+03  0.00000000000E+00 0.  1.
          6    1    1    2  501    0 -0.18444679785E+03 -0.97181985058E+02 -0.14756999900E+03  0.30849775374E+03  0.17300000000E+03 0.  1.
         -6    1    1    2    0  503  0.18444679785E+03  0.97181985058E+02 -0.65840949137E+03  0.71196700611E+03  0.17300000000E+03 0.  1.
<mgrwt>
<rscale>  2 0.27091320E+03</rscale>
<asrwt>0</asrwt>
<pdfrwt beam="1">  1       21 0.16498866E-01 0.27091320E+03</pdfrwt>
<pdfrwt beam="2">  1       21 0.14049572E+00 0.27091320E+03</pdfrwt>
<totfact> 0.11122078E+04</totfact>
</mgrwt>
</event>
<event>
 4    1  0.4173994E+000  0.1799034E+03  0.7546771E-02  0.1167897E+00
         21   -1    0    0  503  502  0.00000000000E+00  0.00000000000E+00  0.14200010081E+03  0.14200010081E+03  0.00000000000E+00 0.  1.
         21   -1    0    0  501  503 -0.00000000000E+00 -0.00000000000E+00 -0.34872771745E+03  0.34872771745E+03  0.00000000000E+00 0.  1.
          6    1    1    2  501    0  0.48680961867E+02 -0.81484064605E+01 -0.24777723654E+03  0.30620057401E+03  0.17300000000E+03 0.  1.
         -6    1    1    2    0  502 -0.48680961867E+02  0.81484064605E+01  0.41049619909E+02  0.18452724425E+03  0.17300000000E+03 0.  1.
<mgrwt>
<rscale>  2 0.17990340E+03</rscale>
<asrwt>0</asrwt>
<pdfrwt beam="1">  1       21 0.21846169E-01 0.17990340E+03</pdfrwt>
<pdfrwt beam="2">  1       21 0.53650418E-01 0.17990340E+03</pdfrwt>
<totfact> 0.64657328E+04</totfact>
</mgrwt>
</event>
<event>
 4    1  0.4173994E+000  0.1762661E+03  0.7546771E-02  0.1171466E+00
         21   -1    0    0  501  502  0.00000000000E+00  0.00000000000E+00  0.23739457275E+03  0.23739457275E+03  0.00000000000E+00 0.  1.
         21   -1    0    0  502  503 -0.00000000000E+00 -0.00000000000E+00 -0.20263499421E+03  0.20263499421E+03  0.00000000000E+00 0.  1.
          6    1    1    2  501    0  0.26715610516E+02  0.20664636791E+02  0.14830595530E+03  0.23035713021E+03  0.17300000000E+03 0.  1.
         -6    1    1    2    0  503 -0.26715610516E+02 -0.20664636791E+02 -0.11354637676E+03  0.20967243675E+03  0.17300000000E+03 0.  1.
<mgrwt>
<rscale>  2 0.17626614E+03</rscale>
<asrwt>0</asrwt>
<pdfrwt beam="1">  1       21 0.36522242E-01 0.17626614E+03</pdfrwt>
<pdfrwt beam="2">  1       21 0.31174614E-01 0.17626614E+03</pdfrwt>
<totfact> 0.71974470E+04</totfact>
</mgrwt>
</event>
<event>
 4    1  0.4173994E+000  0.2074406E+03  0.7546771E-02  0.1143609E+00
         21   -1    0    0  503  502  0.00000000000E+00  0.00000000000E+00  0.13874360219E+04  0.13874360219E+04  0.00000000000E+00 0.  1.
         21   -1    0    0  501  503 -0.00000000000E+00 -0.00000000000E+00 -0.31065469548E+02  0.31065469548E+02  0.00000000000E+00 0.  1.
          6    1    1    2  501    0  0.32070525871E+02 -0.10988217570E+03  0.64965563370E+03  0.68197071313E+03  0.17300000000E+03 0.  1.
         -6    1    1    2    0  502 -0.32070525871E+02  0.10988217570E+03  0.70671491864E+03  0.73653077830E+03  0.17300000000E+03 0.  1.
<mgrwt>
<rscale>  2 0.20744062E+03</rscale>
<asrwt>0</asrwt>
<pdfrwt beam="1">  1       21 0.21345165E+00 0.20744062E+03</pdfrwt>
<pdfrwt beam="2">  1       21 0.47793041E-02 0.20744062E+03</pdfrwt>
<totfact> 0.31719517E+04</totfact>
</mgrwt>
</event>
<event>
 4    1  0.4173994E+000  0.1755060E+03  0.7546771E-02  0.1172225E+00
         21   -1    0    0  501  502  0.00000000000E+00  0.00000000000E+00  0.44279973368E+03  0.44279973368E+03  0.00000000000E+00 0.  1.
         21   -1    0    0  502  503 -0.00000000000E+00 -0.00000000000E+00 -0.11679608823E+03  0.11679608823E+03  0.00000000000E+00 0.  1.
          6    1    1    2  501    0 -0.17500930756E+01 -0.29500501396E+02  0.34093416519E+03  0.38345592628E+03  0.17300000000E+03 0.  1.
         -6    1    1    2    0  503  0.17500930756E+01  0.29500501396E+02 -0.14930519741E+02  0.17613989562E+03  0.17300000000E+03 0.  1.
<mgrwt>
<rscale>  2 0.17550596E+03</rscale>
<asrwt>0</asrwt>
<pdfrwt beam="1">  1       21 0.68123035E-01 0.17550596E+03</pdfrwt>
<pdfrwt beam="2">  1       21 0.17968629E-01 0.17550596E+03</pdfrwt>
<totfact> 0.55850820E+04</totfact>
</mgrwt>
</event>
<event>
 4    1  0.4173994E+000  0.1786417E+03  0.7546771E-02  0.1169124E+00
         21   -1    0    0  501  502  0.00000000000E+00  0.00000000000E+00  0.53126508831E+03  0.53126508831E+03  0.00000000000E+00 0.  1.
         21   -1    0    0  502  503 -0.00000000000E+00 -0.00000000000E+00 -0.17132167707E+03  0.17132167707E+03  0.00000000000E+00 0.  1.
          6    1    1    2  501    0  0.13454334424E+02 -0.42460042328E+02  0.46305738525E+03  0.49632148487E+03  0.17300000000E+03 0.  1.
         -6    1    1    2    0  503 -0.13454334424E+02  0.42460042328E+02 -0.10311397400E+03  0.20626528051E+03  0.17300000000E+03 0.  1.
<mgrwt>
<rscale>  2 0.17864175E+03</rscale>
<asrwt>0</asrwt>
<pdfrwt beam="1">  1       21 0.81733090E-01 0.17864175E+03</pdfrwt>
<pdfrwt beam="2">  1       21 0.26357181E-01 0.17864175E+03</pdfrwt>
<totfact> 0.18091862E+04</totfact>
</mgrwt>
</event>
<event>
 4    1  0.4173994E+000  0.3169270E+03  0.7546771E-02  0.1077072E+00
         21   -1    0    0  503  502  0.00000000000E+00  0.00000000000E+00  0.12459571148E+04  0.12459571148E+04  0.00000000000E+00 0.  1.
         21   -1    0    0  501  503 -0.00000000000E+00 -0.00000000000E+00 -0.87169434127E+02  0.87169434127E+02  0.00000000000E+00 0. -1.
          6    1    1    2  501    0 -0.95933402981E+02 -0.24760963820E+03  0.39661368073E+03  0.50768608655E+03  0.17300000000E+03 0. -1.
         -6    1    1    2    0  502  0.95933402981E+02  0.24760963820E+03  0.76217399992E+03  0.82544046236E+03  0.17300000000E+03 0.  1.
<mgrwt>
<rscale>  2 0.31692704E+03</rscale>
<asrwt>0</asrwt>
<pdfrwt beam="1">  1       21 0.19168570E+00 0.31692704E+03</pdfrwt>
<pdfrwt beam="2">  1       21 0.13410683E-01 0.31692704E+03</pdfrwt>
<totfact> 0.67106872E+03</totfact>
</mgrwt>
</event>
<event>
 4    1  0.4173994E+000  0.1844203E+03  0.7546771E-02  0.1163592E+00
         21   -1    0    0  503  502  0.00000000000E+00  0.00000000000E+00  0.10112346359E+04  0.10112346359E+04  0.00000000000E+00 0. -1.
         21   -1    0    0  501  503 -0.00000000000E+00 -0.00000000000E+00 -0.34353713585E+02  0.34353713585E+02  0.00000000000E+00 0. -1.
          6    1    1    2  501    0 -0.48039379470E+02  0.42119676521E+02  0.56416329378E+03  0.59354112846E+03  0.17300000000E+03 0.  1.
         -6    1    1    2    0  502  0.48039379470E+02 -0.42119676521E+02  0.41271762855E+03  0.45204722103E+03  0.17300000000E+03 0.  1.
<mgrwt>
<rscale>  2 0.18442031E+03</rscale>
<asrwt>0</asrwt>
<pdfrwt beam="1">  1       21 0.15557454E+00 0.18442031E+03</pdfrwt>
<pdfrwt beam="2">  1       21 0.52851875E-02 0.18442031E+03</pdfrwt>
<totfact> 0.66730031E+04</totfact>
</mgrwt>
</event>
<event>
 4    1  0.4173994E+000  0.1863211E+03  0.7546771E-02  0.1161822E+00
         21   -1    0    0  503  502  0.00000000000E+00  0.00000000000E+00  0.31231016034E+03  0.31231016034E+03  0.00000000000E+00 0. -1.
         21   -1    0    0  501  503 -0.00000000000E+00 -0.00000000000E+00 -0.13190710460E+03  0.13190710460E+03  0.00000000000E+00 0.  1.
          6    1    1    2  501    0 -0.32255855561E+02  0.61205597981E+02  0.21092230525E+01  0.18633307346E+03  0.17300000000E+03 0.  1.
         -6    1    1    2    0  502  0.32255855561E+02 -0.61205597981E+02  0.17829383269E+03  0.25788419148E+03  0.17300000000E+03 0. -1.
<mgrwt>
<rscale>  2 0.18632114E+03</rscale>
<asrwt>0</asrwt>
<pdfrwt beam="1">  1       21 0.48047717E-01 0.18632114E+03</pdfrwt>
<pdfrwt beam="2">  1       21 0.20293401E-01 0.18632114E+03</pdfrwt>
<totfact> 0.93211159E+04</totfact>
</mgrwt>
</event>
<event>
 4    1  0.4173994E+000  0.1843315E+03  0.7546771E-02  0.1163676E+00
         21   -1    0    0  501  502  0.00000000000E+00  0.00000000000E+00  0.93669014775E+02  0.93669014775E+02  0.00000000000E+00 0.  1.
         21   -1    0    0  502  503 -0.00000000000E+00 -0.00000000000E+00 -0.36283537254E+03  0.36283537254E+03  0.00000000000E+00 0.  1.
          6    1    1    2  501    0  0.38119129063E+02 -0.50951244572E+02 -0.13100877873E+03  0.22614463829E+03  0.17300000000E+03 0.  1.
         -6    1    1    2    0  503 -0.38119129063E+02  0.50951244572E+02 -0.13815757903E+03  0.23035974902E+03  0.17300000000E+03 0.  1.
<mgrwt>
<rscale>  2 0.18433149E+03</rscale>
<asrwt>0</asrwt>
<pdfrwt beam="1">  1       21 0.14410618E-01 0.18433149E+03</pdfrwt>
<pdfrwt beam="2">  1       21 0.55820827E-01 0.18433149E+03</pdfrwt>
<totfact> 0.12791370E+05</totfact>
</mgrwt>
</event>
<event>
 4    1  0.4173994E+000  0.2110425E+03  0.7546771E-02  0.1140743E+00
         21   -1    0    0  503  502  0.00000000000E+00  0.00000000000E+00  0.27633996123E+04  0.27633996123E+04  0.00000000000E+00 0. -1.
         21   -1    0    0  501  503 -0.00000000000E+00 -0.00000000000E+00 -0.18164297415E+02  0.18164297415E+02  0.00000000000E+00 0. -1.
          6    1    1    2  501    0 -0.27193277740E+01 -0.12084092862E+03  0.90575015695E+03  0.93001197390E+03  0.17300000000E+03 0. -1.
         -6    1    1    2    0  502  0.27193277740E+01  0.12084092862E+03  0.18394851579E+04  0.18515519358E+04  0.17300000000E+03 0. -1.
<mgrwt>
<rscale>  2 0.21104247E+03</rscale>
<asrwt>0</asrwt>
<pdfrwt beam="1">  1       21 0.42513807E+00 0.21104247E+03</pdfrwt>
<pdfrwt beam="2">  1       21 0.27945095E-02 0.21104247E+03</pdfrwt>
<totfact> 0.41948226E+03</totfact>
</mgrwt>
</event>
<event>
 4    1  0.4173994E+000  0.2073104E+03  0.7546771E-02  0.1143714E+00
         21   -1    0    0  503  502  0.00000000000E+00  0.00000000000E+00  0.40045727375E+02  0.40045727375E+02  0.00000000000E+00 0.  1.
         21   -1    0    0  501  503 -0.00000000000E+00 -0.00000000000E+00 -0.11436614851E+04  0.11436614851E+04  0.00000000000E+00 0. -1.
          6    1    1    2  501    0 -0.22031990437E+02 -0.11208571758E+03 -0.40491534353E+03  0.45490004628E+03  0.17300000000E+03 0.  1.
         -6    1    1    2    0  502  0.22031990437E+02  0.11208571758E+03 -0.69870041419E+03  0.72880716618E+03  0.17300000000E+03 0. -1.
<mgrwt>
<rscale>  2 0.20731044E+03</rscale>
<asrwt>0</asrwt>
<pdfrwt beam="1">  1       21 0.61608817E-02 0.20731044E+03</pdfrwt>
<pdfrwt beam="2">  1       21 0.17594790E+00 0.20731044E+03</pdfrwt>
<totfact> 0.36210865E+04</totfact>
</mgrwt>
</event>
<event>
 4    1  0.4173994E+000  0.2028939E+03  0.7546771E-02  0.1147320E+00
         21   -1    0    0  501  502  0.00000000000E+00  0.00000000000E+00  0.20877239247E+03  0.20877239247E+03  0.00000000000E+00 0. -1.
         21   -1    0    0  502  503 -0.00000000000E+00 -0.00000000000E+00 -0.19730731490E+03  0.19730731490E+03  0.00000000000E+00 0. -1.
          6    1    1    2  501    0  0.67339547560E+02 -0.81867755280E+02  0.59471772514E+00  0.20289479468E+03  0.17300000000E+03 0. -1.
         -6    1    1    2    0  503 -0.67339547560E+02  0.81867755280E+02  0.10870359849E+02  0.20318491269E+03  0.17300000000E+03 0. -1.
<mgrwt>
<rscale>  2 0.20289392E+03</rscale>
<asrwt>0</asrwt>
<pdfrwt beam="1">  1       21 0.32118830E-01 0.20289392E+03</pdfrwt>
<pdfrwt beam="2">  1       21 0.30354971E-01 0.20289392E+03</pdfrwt>
<totfact> 0.96703009E+04</totfact>
</mgrwt>
</event>
<event>
 4    1  0.4173994E+000  0.1750621E+03  0.7546771E-02  0.1172669E+00
         21   -1    0    0  501  502  0.00000000000E+00  0.00000000000E+00  0.21043019067E+03  0.21043019067E+03  0.00000000000E+00 0. -1.
         21   -1    0    0  502  503 -0.00000000000E+00 -0.00000000000E+00 -0.17880129937E+03  0.17880129937E+03  0.00000000000E+00 0. -1.
          6    1    1    2  501    0 -0.25873951792E+00  0.26789462187E+02  0.99628736909E+02  0.20142648150E+03  0.17300000000E+03 0. -1.
         -6    1    1    2    0  503  0.25873951792E+00 -0.26789462187E+02 -0.67999845612E+02  0.18780500854E+03  0.17300000000E+03 0. -1.
<mgrwt>
<rscale>  2 0.17506211E+03</rscale>
<asrwt>0</asrwt>
<pdfrwt beam="1">  1       21 0.32373876E-01 0.17506211E+03</pdfrwt>
<pdfrwt beam="2">  1       21 0.27507892E-01 0.17506211E+03</pdfrwt>
<totfact> 0.11647820E+05</totfact>
</mgrwt>
</event>
<event>
 4    1  0.4173994E+000  0.2144250E+03  0.7546771E-02  0.1138109E+00
         21   -1    0    0  503  502  0.00000000000E+00  0.00000000000E+00  0.99879273666E+03  0.99879273666E+03  0.00000000000E+00 0.  1.
         21   -1    0    0  501  503 -0.00000000000E+00 -0.00000000000E+00 -0.46989344323E+02  0.46989344323E+02  0.00000000000E+00 0.  1.
          6    1    1    2  501    0 -0.94287631502E+02 -0.84610300199E+02  0.55047345776E+03  0.59076144767E+03  0.17300000000E+03 0.  1.
         -6    1    1    2    0  502  0.94287631502E+02  0.84610300199E+02  0.40132993458E+03  0.45502063331E+03  0.17300000000E+03 0.  1.
<mgrwt>
<rscale>  2 0.21442495E+03</rscale>
<asrwt>0</asrwt>
<pdfrwt beam="1">  1       21 0.15366041E+00 0.21442495E+03</pdfrwt>
<pdfrwt beam="2">  1       21 0.72291306E-02 0.21442495E+03</pdfrwt>
<totfact> 0.39615668E+04</totfact>
</mgrwt>
</event>
<event>
 4    1  0.4173994E+000  0.2332290E+03  0.7546771E-02  0.1124387E+00
         21   -1    0    0  503  502  0.00000000000E+00  0.00000000000E+00  0.12009803902E+04  0.12009803902E+04  0.00000000000E+00 0. -1.
         21   -1    0    0  501  503 -0.00000000000E+00 -0.00000000000E+00 -0.54946699166E+02  0.54946699166E+02  0.00000000000E+00 0.  1.
          6    1    1    2  501    0  0.64344363819E+01  0.15628617772E+03  0.30979927155E+03  0.38777746192E+03  0.17300000000E+03 0.  1.
         -6    1    1    2    0  502 -0.64344363819E+01 -0.15628617772E+03  0.83623441952E+03  0.86814962749E+03  0.17300000000E+03 0. -1.
<mgrwt>
<rscale>  2 0.23322901E+03</rscale>
<asrwt>0</asrwt>
<pdfrwt beam="1">  1       21 0.18476619E+00 0.23322901E+03</pdfrwt>
<pdfrwt beam="2">  1       21 0.84533393E-02 0.23322901E+03</pdfrwt>
<totfact> 0.17902347E+04</totfact>
</mgrwt>
</event>
<event>
 4    1  0.4173994E+000  0.2937898E+03  0.7546771E-02  0.1088387E+00
         21   -1    0    0  503  502  0.00000000000E+00  0.00000000000E+00  0.32905469960E+03  0.32905469960E+03  0.00000000000E+00 0.  1.
         21   -1    0    0  501  503 -0.00000000000E+00 -0.00000000000E+00 -0.28072864856E+03  0.28072864856E+03  0.00000000000E+00 0.  1.
          6    1    1    2  501    0  0.34260280482E+02 -0.23496735035E+03 -0.53945727394E+02  0.29870146309E+03  0.17300000000E+03 0.  1.
         -6    1    1    2    0  502 -0.34260280482E+02  0.23496735035E+03  0.10227177843E+03  0.31108188506E+03  0.17300000000E+03 0.  1.
<mgrwt>
<rscale>  2 0.29378976E+03</rscale>
<asrwt>0</asrwt>
<pdfrwt beam="1">  1       21 0.50623800E-01 0.29378976E+03</pdfrwt>
<pdfrwt beam="2">  1       21 0.43189023E-01 0.29378976E+03</pdfrwt>
<totfact> 0.18180315E+04</totfact>
</mgrwt>
</event>
<event>
 4    1  0.4173994E+000  0.1973916E+03  0.7546771E-02  0.1151959E+00
         21   -1    0    0  501  502  0.00000000000E+00  0.00000000000E+00  0.10001621174E+03  0.10001621174E+03  0.00000000000E+00 0.  1.
         21   -1    0    0  502  503 -0.00000000000E+00 -0.00000000000E+00 -0.48322798966E+03  0.48322798966E+03  0.00000000000E+00 0.  1.
          6    1    1    2  501    0 -0.29085851566E+01 -0.95005117160E+02 -0.63220941618E+02  0.20726871354E+03  0.17300000000E+03 0.  1.
         -6    1    1    2    0  503  0.29085851566E+01  0.95005117160E+02 -0.31999083630E+03  0.37597548786E+03  0.17300000000E+03 0.  1.
<mgrwt>
<rscale>  2 0.19739157E+03</rscale>
<asrwt>0</asrwt>
<pdfrwt beam="1">  1       21 0.15387110E-01 0.19739157E+03</pdfrwt>
<pdfrwt beam="2">  1       21 0.74342765E-01 0.19739157E+03</pdfrwt>
<totfact> 0.60584762E+04</totfact>
</mgrwt>
</event>
<event>
 4    1  0.4173994E+000  0.3205029E+03  0.7546771E-02  0.1075418E+00
         21   -1    0    0  503  502  0.00000000000E+00  0.00000000000E+00  0.11960051098E+04  0.11960051098E+04  0.00000000000E+00 0.  1.
         21   -1    0    0  501  503 -0.00000000000E+00 -0.00000000000E+00 -0.39487927109E+03  0.39487927109E+03  0.00000000000E+00 0. -1.
          6    1    1    2  501    0 -0.25205609769E+03 -0.96233288325E+02 -0.30307587196E+03  0.44110895063E+03  0.17300000000E+03 0. -1.
         -6    1    1    2    0  502  0.25205609769E+03  0.96233288325E+02  0.11042017107E+04  0.11497754302E+04  0.17300000000E+03 0.  1.
<mgrwt>
<rscale>  2 0.32050292E+03</rscale>
<asrwt>0</asrwt>
<pdfrwt beam="1">  1       21 0.18400078E+00 0.32050292E+03</pdfrwt>
<pdfrwt beam="2">  1       21 0.60750658E-01 0.32050292E+03</pdfrwt>
<totfact> 0.38265429E+02</totfact>
</mgrwt>
</event>
<event>
 4    1  0.4173994E+000  0.1781943E+03  0.7546771E-02  0.1169562E+00
         21   -1    0    0  503  502  0.00000000000E+00  0.00000000000E+00  0.50874907798E+02  0.50874907798E+02  0.00000000000E+00 0.  1.
         21   -1    0    0  501  503 -0.00000000000E+00 -0.00000000000E+00 -0.81022662347E+03  0.81022662347E+03  0.00000000000E+00 0.  1.
          6    1    1    2  501    0  0.28422824330E+02  0.31880008058E+02 -0.58601222412E+03  0.61250593359E+03  0.17300000000E+03 0.  1.
         -6    1    1    2    0  502 -0.28422824330E+02 -0.31880008058E+02 -0.17333949155E+03  0.24859559769E+03  0.17300000000E+03 0.  1.
<mgrwt>
<rscale>  2 0.17819425E+03</rscale>
<asrwt>0</asrwt>
<pdfrwt beam="1">  1       21 0.78269093E-02 0.17819425E+03</pdfrwt>
<pdfrwt beam="2">  1       21 0.12465024E+00 0.17819425E+03</pdfrwt>
<totfact> 0.60320310E+04</totfact>
</mgrwt>
</event>
<event>
 4    1  0.4173994E+000  0.1876545E+03  0.7546771E-02  0.1160594E+00
         21   -1    0    0  501  502  0.00000000000E+00  0.00000000000E+00  0.27830001838E+03  0.27830001838E+03  0.00000000000E+00 0. -1.
         21   -1    0    0  502  503 -0.00000000000E+00 -0.00000000000E+00 -0.32451313893E+03  0.32451313893E+03  0.00000000000E+00 0.  1.
          6    1    1    2  501    0  0.12420147437E+02 -0.71630739273E+02  0.21231544545E+03  0.28335855598E+03  0.17300000000E+03 0. -1.
         -6    1    1    2    0  503 -0.12420147437E+02  0.71630739273E+02 -0.25852856600E+03  0.31945460132E+03  0.17300000000E+03 0.  1.
<mgrwt>
<rscale>  2 0.18765453E+03</rscale>
<asrwt>0</asrwt>
<pdfrwt beam="1">  1       21 0.42815388E-01 0.18765453E+03</pdfrwt>
<pdfrwt beam="2">  1       21 0.49925098E-01 0.18765453E+03</pdfrwt>
<totfact> 0.20114032E+04</totfact>
</mgrwt>
</event>
<event>
 4    1  0.4173994E+000  0.1937470E+03  0.7546771E-02  0.1155125E+00
         21   -1    0    0  501  502  0.00000000000E+00  0.00000000000E+00  0.14991312652E+03  0.14991312652E+03  0.00000000000E+00 0. -1.
         21   -1    0    0  502  503 -0.00000000000E+00 -0.00000000000E+00 -0.34976236890E+03  0.34976236890E+03  0.00000000000E+00 0. -1.
          6    1    1    2  501    0  0.52447094099E+02 -0.69700690705E+02  0.33239667676E+02  0.19657761691E+03  0.17300000000E+03 0. -1.
         -6    1    1    2    0  503 -0.52447094099E+02  0.69700690705E+02 -0.23308891006E+03  0.30309787851E+03  0.17300000000E+03 0. -1.
<mgrwt>
<rscale>  2 0.19374696E+03</rscale>
<asrwt>0</asrwt>
<pdfrwt beam="1">  1       21 0.23063558E-01 0.19374696E+03</pdfrwt>
<pdfrwt beam="2">  1       21 0.53809595E-01 0.19374696E+03</pdfrwt>
<totfact> 0.57651029E+04</totfact>
</mgrwt>
</event>
<event>
 4    1  0.4173994E+000  0.1906787E+03  0.7546771E-02  0.1157851E+00
         21   -1    0    0  501  502  0.00000000000E+00  0.00000000000E+00  0.35407161111E+03  0.35407161111E+03  0.00000000000E+00 0. -1.
         21   -1    0    0  502  503 -0.00000000000E+00 -0.00000000000E+00 -0.13118495030E+03  0.13118495030E+03  0.00000000000E+00 0. -1.
          6    1    1    2  501    0  0.40448147282E+02  0.69233889977E+02  0.22452958691E+03  0.29457073775E+03  0.17300000000E+03 0. -1.
         -6    1    1    2    0  503 -0.40448147282E+02 -0.69233889977E+02 -0.16429260957E+01  0.19068582366E+03  0.17300000000E+03 0. -1.
<mgrwt>
<rscale>  2 0.19067875E+03</rscale>
<asrwt>0</asrwt>
<pdfrwt beam="1">  1       21 0.54472555E-01 0.19067875E+03</pdfrwt>
<pdfrwt beam="2">  1       21 0.20182300E-01 0.19067875E+03</pdfrwt>
<totfact> 0.72309179E+04</totfact>
</mgrwt>
</event>
<event>
 4    1  0.4173994E+000  0.3126228E+03  0.7546771E-02  0.1079096E+00
         21   -1    0    0  503  502  0.00000000000E+00  0.00000000000E+00  0.27819842908E+03  0.27819842908E+03  0.00000000000E+00 0. -1.
         21   -1    0    0  501  503 -0.00000000000E+00 -0.00000000000E+00 -0.57465193777E+03  0.57465193777E+03  0.00000000000E+00 0. -1.
          6    1    1    2  501    0  0.18486633959E+03  0.18338054045E+03 -0.41407188282E+03  0.51883379831E+03  0.17300000000E+03 0. -1.
         -6    1    1    2    0  502 -0.18486633959E+03 -0.18338054045E+03  0.11761837412E+03  0.33401656854E+03  0.17300000000E+03 0. -1.
<mgrwt>
<rscale>  2 0.31262275E+03</rscale>
<asrwt>0</asrwt>
<pdfrwt beam="1">  1       21 0.42799759E-01 0.31262275E+03</pdfrwt>
<pdfrwt beam="2">  1       21 0.88407990E-01 0.31262275E+03</pdfrwt>
<totfact> 0.53386315E+03</totfact>
</mgrwt>
</event>
<event>
 4    1  0.4173994E+000  0.2296583E+03  0.7546771E-02  0.1126881E+00
         21   -1    0    0  501  502  0.00000000000E+00  0.00000000000E+00  0.43163246455E+03  0.43163246455E+03  0.00000000000E+00 0. -1.
         21   -1    0    0  502  503 -0.00000000000E+00 -0.00000000000E+00 -0.12488635937E+03  0.12488635937E+03  0.00000000000E+00 0. -1.
          6    1    1    2  501    0 -0.12632118267E+03  0.82806328215E+02  0.19422877842E+03  0.30077856897E+03  0.17300000000E+03 0. -1.
         -6    1    1    2    0  503  0.12632118267E+03 -0.82806328215E+02  0.11251732676E+03  0.25574025496E+03  0.17300000000E+03 0. -1.
<mgrwt>
<rscale>  2 0.22965829E+03</rscale>
<asrwt>0</asrwt>
<pdfrwt beam="1">  1       21 0.66404994E-01 0.22965829E+03</pdfrwt>
<pdfrwt beam="2">  1       21 0.19213286E-01 0.22965829E+03</pdfrwt>
<totfact> 0.50859760E+04</totfact>
</mgrwt>
</event>
<event>
 4    1  0.4173994E+000  0.2150908E+03  0.7546771E-02  0.1137597E+00
         21   -1    0    0  503  502  0.00000000000E+00  0.00000000000E+00  0.17211094953E+03  0.17211094953E+03  0.00000000000E+00 0.  1.
         21   -1    0    0  501  503 -0.00000000000E+00 -0.00000000000E+00 -0.32361868592E+03  0.32361868592E+03  0.00000000000E+00 0. -1.
          6    1    1    2  501    0  0.19616220131E+01 -0.12779361807E+03 -0.17776505972E+03  0.27904206357E+03  0.17300000000E+03 0. -1.
         -6    1    1    2    0  502 -0.19616220131E+01  0.12779361807E+03  0.26257323344E+02  0.21668757188E+03  0.17300000000E+03 0.  1.
<mgrwt>
<rscale>  2 0.21509081E+03</rscale>
<asrwt>0</asrwt>
<pdfrwt beam="1">  1       21 0.26478608E-01 0.21509081E+03</pdfrwt>
<pdfrwt beam="2">  1       21 0.49787490E-01 0.21509081E+03</pdfrwt>
<totfact> 0.51609513E+04</totfact>
</mgrwt>
</event>
<event>
 4    1  0.4173994E+000  0.1853376E+03  0.7546771E-02  0.1162735E+00
         21   -1    0    0  503  502  0.00000000000E+00  0.00000000000E+00  0.22263100353E+03  0.22263100353E+03  0.00000000000E+00 0.  1.
         21   -1    0    0  501  503 -0.00000000000E+00 -0.00000000000E+00 -0.19209834239E+03  0.19209834239E+03  0.00000000000E+00 0. -1.
          6    1    1    2  501    0 -0.38987975653E+02  0.53860545741E+02 -0.76727664098E+02  0.20059201148E+03  0.17300000000E+03 0.  1.
         -6    1    1    2    0  502  0.38987975653E+02 -0.53860545741E+02  0.10726032523E+03  0.21413733444E+03  0.17300000000E+03 0.  1.
<mgrwt>
<rscale>  2 0.18533759E+03</rscale>
<asrwt>0</asrwt>
<pdfrwt beam="1">  1       21 0.34250924E-01 0.18533759E+03</pdfrwt>
<pdfrwt beam="2">  1       21 0.29553591E-01 0.18533759E+03</pdfrwt>
<totfact> 0.90381006E+04</totfact>
</mgrwt>
</event>
<event>
 4    1  0.4173994E+000  0.2131670E+03  0.7546771E-02  0.1139082E+00
         21   -1    0    0  503  502  0.00000000000E+00  0.00000000000E+00  0.55432422693E+03  0.55432422693E+03  0.00000000000E+00 0. -1.
         21   -1    0    0  501  503 -0.00000000000E+00 -0.00000000000E+00 -0.17684987413E+03  0.17684987413E+03  0.00000000000E+00 0.  1.
          6    1    1    2  501    0  0.93344080808E+02  0.82450381472E+02 -0.79035516438E+02  0.22734730191E+03  0.17300000000E+03 0.  1.
         -6    1    1    2    0  502 -0.93344080808E+02 -0.82450381472E+02  0.45650986925E+03  0.50382679915E+03  0.17300000000E+03 0. -1.
<mgrwt>
<rscale>  2 0.21316703E+03</rscale>
<asrwt>0</asrwt>
<pdfrwt beam="1">  1       21 0.85280649E-01 0.21316703E+03</pdfrwt>
<pdfrwt beam="2">  1       21 0.27207673E-01 0.21316703E+03</pdfrwt>
<totfact> 0.15116982E+04</totfact>
</mgrwt>
</event>
<event>
 4    1  0.4173994E+000  0.2215996E+03  0.7546771E-02  0.1132696E+00
         21   -1    0    0  503  502  0.00000000000E+00  0.00000000000E+00  0.43094420600E+03  0.43094420600E+03  0.00000000000E+00 0. -1.
         21   -1    0    0  501  503 -0.00000000000E+00 -0.00000000000E+00 -0.46826207830E+03  0.46826207830E+03  0.00000000000E+00 0.  1.
          6    1    1    2  501    0 -0.11844811447E+03  0.71745657222E+02 -0.40974954866E+03  0.46583375552E+03  0.17300000000E+03 0.  1.
         -6    1    1    2    0  502  0.11844811447E+03 -0.71745657222E+02  0.37243167636E+03  0.43337252878E+03  0.17300000000E+03 0. -1.
<mgrwt>
<rscale>  2 0.22159963E+03</rscale>
<asrwt>0</asrwt>
<pdfrwt beam="1">  1       21 0.66299109E-01 0.22159963E+03</pdfrwt>
<pdfrwt beam="2">  1       21 0.72040320E-01 0.22159963E+03</pdfrwt>
<totfact> 0.35475414E+03</totfact>
</mgrwt>
</event>
<event>
 4    1  0.4173994E+000  0.1825713E+03  0.7546771E-02  0.1165337E+00
         21   -1    0    0  503  502  0.00000000000E+00  0.00000000000E+00  0.14428771244E+03  0.14428771244E+03  0.00000000000E+00 0. -1.
         21   -1    0    0  501  503 -0.00000000000E+00 -0.00000000000E+00 -0.43797199869E+03  0.43797199869E+03  0.00000000000E+00 0. -1.
          6    1    1    2  501    0 -0.58114273777E+02 -0.51009354710E+01 -0.34696932764E+03  0.39207142548E+03  0.17300000000E+03 0. -1.
         -6    1    1    2    0  502  0.58114273777E+02  0.51009354710E+01  0.53285041391E+02  0.19018828564E+03  0.17300000000E+03 0. -1.
<mgrwt>
<rscale>  2 0.18257132E+03</rscale>
<asrwt>0</asrwt>
<pdfrwt beam="1">  1       21 0.22198110E-01 0.18257132E+03</pdfrwt>
<pdfrwt beam="2">  1       21 0.67380307E-01 0.18257132E+03</pdfrwt>
<totfact> 0.38439168E+04</totfact>
</mgrwt>
</event>
<event>
 4    1  0.4173994E+000  0.1825843E+03  0.7546771E-02  0.1165325E+00
         21   -1    0    0  501  502  0.00000000000E+00  0.00000000000E+00  0.34172622987E+03  0.34172622987E+03  0.00000000000E+00 0. -1.
         21   -1    0    0  502  503 -0.00000000000E+00 -0.00000000000E+00 -0.10051229168E+03  0.10051229168E+03  0.00000000000E+00 0. -1.
          6    1    1    2  501    0 -0.57673862410E+02 -0.90409084463E+01  0.15853701676E+03  0.24180777100E+03  0.17300000000E+03 0. -1.
         -6    1    1    2    0  503  0.57673862410E+02  0.90409084463E+01  0.82676921430E+02  0.20043075056E+03  0.17300000000E+03 0. -1.
<mgrwt>
<rscale>  2 0.18258426E+03</rscale>
<asrwt>0</asrwt>
<pdfrwt beam="1">  1       21 0.52573265E-01 0.18258426E+03</pdfrwt>
<pdfrwt beam="2">  1       21 0.15463430E-01 0.18258426E+03</pdfrwt>
<totfact> 0.12775559E+05</totfact>
</mgrwt>
</event>
<event>
 4    1  0.4173994E+000  0.2216286E+03  0.7546771E-02  0.1132675E+00
         21   -1    0    0  503  502  0.00000000000E+00  0.00000000000E+00  0.10894430863E+04  0.10894430863E+04  0.00000000000E+00 0. -1.
         21   -1    0    0  501  503 -0.00000000000E+00 -0.00000000000E+00 -0.46255488313E+02  0.46255488313E+02  0.00000000000E+00 0. -1.
          6    1    1    2  501    0 -0.86367990522E+02 -0.10830878482E+03  0.61186485654E+03  0.65076710529E+03  0.17300000000E+03 0. -1.
         -6    1    1    2    0  502  0.86367990522E+02  0.10830878482E+03  0.43132274147E+03  0.48493146935E+03  0.17300000000E+03 0. -1.
<mgrwt>
<rscale>  2 0.22162857E+03</rscale>
<asrwt>0</asrwt>
<pdfrwt beam="1">  1       21 0.16760661E+00 0.22162857E+03</pdfrwt>
<pdfrwt beam="2">  1       21 0.71162298E-02 0.22162857E+03</pdfrwt>
<totfact> 0.32031614E+04</totfact>
</mgrwt>
</event>
<event>
 4    1  0.4173994E+000  0.1806902E+03  0.7546771E-02  0.1167137E+00
         21   -1    0    0  501  502  0.00000000000E+00  0.00000000000E+00  0.33361279385E+03  0.33361279385E+03  0.00000000000E+00 0.  1.
         21   -1    0    0  502  503 -0.00000000000E+00 -0.00000000000E+00 -0.14313641115E+03  0.14313641115E+03  0.00000000000E+00 0.  1.
          6    1    1    2  501    0 -0.41510493735E+02 -0.31572427145E+02  0.22929782876E+03  0.29193566675E+03  0.17300000000E+03 0.  1.
         -6    1    1    2    0  503  0.41510493735E+02  0.31572427145E+02 -0.38821446061E+02  0.18481353825E+03  0.17300000000E+03 0.  1.
<mgrwt>
<rscale>  2 0.18069017E+03</rscale>
<asrwt>0</asrwt>
<pdfrwt beam="1">  1       21 0.51325045E-01 0.18069017E+03</pdfrwt>
<pdfrwt beam="2">  1       21 0.22020986E-01 0.18069017E+03</pdfrwt>
<totfact> 0.69872086E+04</totfact>
</mgrwt>
</event>
<event>
 4    1  0.4173994E+000  0.2364148E+03  0.7546771E-02  0.1122204E+00
         21   -1    0    0  503  502  0.00000000000E+00  0.00000000000E+00  0.87769927313E+03  0.87769927313E+03  0.00000000000E+00 0. -1.
         21   -1    0    0  501  503 -0.00000000000E+00 -0.00000000000E+00 -0.14343680270E+03  0.14343680270E+03  0.00000000000E+00 0. -1.
          6    1    1    2  501    0 -0.15798046146E+03  0.31703831068E+02 -0.13589892869E+02  0.23680507658E+03  0.17300000000E+03 0. -1.
         -6    1    1    2    0  502  0.15798046146E+03 -0.31703831068E+02  0.74785236330E+03  0.78433099926E+03  0.17300000000E+03 0. -1.
<mgrwt>
<rscale>  2 0.23641480E+03</rscale>
<asrwt>0</asrwt>
<pdfrwt beam="1">  1       21 0.13503065E+00 0.23641480E+03</pdfrwt>
<pdfrwt beam="2">  1       21 0.22067201E-01 0.23641480E+03</pdfrwt>
<totfact> 0.73004582E+03</totfact>
</mgrwt>
</event>
<event>
 4    1  0.4173994E+000  0.1811978E+03  0.7546771E-02  0.1166649E+00
         21   -1    0    0  501  502  0.00000000000E+00  0.00000000000E+00  0.51636975218E+02  0.51636975218E+02  0.00000000000E+00 0.  1.
         21   -1    0    0  502  503 -0.00000000000E+00 -0.00000000000E+00 -0.70846585794E+03  0.70846585794E+03  0.00000000000E+00 0.  1.
          6    1    1    2  501    0 -0.13544629788E+02 -0.52155531974E+02 -0.20672861821E+03  0.27489885067E+03  0.17300000000E+03 0.  1.
         -6    1    1    2    0  503  0.13544629788E+02  0.52155531974E+02 -0.45010026451E+03  0.48520398249E+03  0.17300000000E+03 0.  1.
<mgrwt>
<rscale>  2 0.18119784E+03</rscale>
<asrwt>0</asrwt>
<pdfrwt beam="1">  1       21 0.79441508E-02 0.18119784E+03</pdfrwt>
<pdfrwt beam="2">  1       21 0.10899474E+00 0.18119784E+03</pdfrwt>
<totfact> 0.81531411E+04</totfact>
</mgrwt>
</event>
<event>
 4    1  0.4173994E+000  0.1767747E+03  0.7546771E-02  0.1170962E+00
         21   -1    0    0  501  502  0.00000000000E+00  0.00000000000E+00  0.35128029892E+02  0.35128029892E+02  0.00000000000E+00 0. -1.
         21   -1    0    0  502  503 -0.00000000000E+00 -0.00000000000E+00 -0.98040893825E+03  0.98040893825E+03  0.00000000000E+00 0. -1.
          6    1    1    2  501    0  0.10551439290E+02  0.34769953913E+02 -0.31809076986E+03  0.36391073141E+03  0.17300000000E+03 0. -1.
         -6    1    1    2    0  503 -0.10551439290E+02 -0.34769953913E+02 -0.62719013850E+03  0.65162623673E+03  0.17300000000E+03 0. -1.
<mgrwt>
<rscale>  2 0.17677467E+03</rscale>
<asrwt>0</asrwt>
<pdfrwt beam="1">  1       21 0.54043120E-02 0.17677467E+03</pdfrwt>
<pdfrwt beam="2">  1       21 0.15083215E+00 0.17677467E+03</pdfrwt>
<totfact> 0.70014593E+04</totfact>
</mgrwt>
</event>
<event>
 4    1  0.4173994E+000  0.1763661E+03  0.7546771E-02  0.1171367E+00
         21   -1    0    0  503  502  0.00000000000E+00  0.00000000000E+00  0.61820425071E+03  0.61820425071E+03  0.00000000000E+00 0.  1.
         21   -1    0    0  501  503 -0.00000000000E+00 -0.00000000000E+00 -0.17268045056E+03  0.17268045056E+03  0.00000000000E+00 0.  1.
          6    1    1    2  501    0  0.23341489684E+02  0.25123567743E+02 -0.11012046841E+03  0.20792194776E+03  0.17300000000E+03 0.  1.
         -6    1    1    2    0  502 -0.23341489684E+02 -0.25123567743E+02  0.55564426856E+03  0.58296275351E+03  0.17300000000E+03 0.  1.
<mgrwt>
<rscale>  2 0.17636615E+03</rscale>
<asrwt>0</asrwt>
<pdfrwt beam="1">  1       21 0.95108345E-01 0.17636615E+03</pdfrwt>
<pdfrwt beam="2">  1       21 0.26566223E-01 0.17636615E+03</pdfrwt>
<totfact> 0.12595671E+04</totfact>
</mgrwt>
</event>
<event>
 4    1  0.4173994E+000  0.1830698E+03  0.7546771E-02  0.1164865E+00
         21   -1    0    0  503  502  0.00000000000E+00  0.00000000000E+00  0.14936053711E+03  0.14936053711E+03  0.00000000000E+00 0.  1.
         21   -1    0    0  501  503 -0.00000000000E+00 -0.00000000000E+00 -0.42583812108E+03  0.42583812108E+03  0.00000000000E+00 0.  1.
          6    1    1    2  501    0  0.50580655211E+02  0.32049266847E+02  0.59572226026E+02  0.19251859209E+03  0.17300000000E+03 0.  1.
         -6    1    1    2    0  502 -0.50580655211E+02 -0.32049266847E+02 -0.33604981000E+03  0.38268006610E+03  0.17300000000E+03 0.  1.
<mgrwt>
<rscale>  2 0.18306982E+03</rscale>
<asrwt>0</asrwt>
<pdfrwt beam="1">  1       21 0.22978544E-01 0.18306982E+03</pdfrwt>
<pdfrwt beam="2">  1       21 0.65513557E-01 0.18306982E+03</pdfrwt>
<totfact> 0.38278974E+04</totfact>
</mgrwt>
</event>
<event>
 4    1  0.4173994E+000  0.1820774E+03  0.7546771E-02  0.1165808E+00
         21   -1    0    0  503  502  0.00000000000E+00  0.00000000000E+00  0.43017058117E+03  0.43017058117E+03  0.00000000000E+00 0. -1.
         21   -1    0    0  501  503 -0.00000000000E+00 -0.00000000000E+00 -0.77494500162E+02  0.77494500162E+02  0.00000000000E+00 0. -1.
          6    1    1    2  501    0 -0.55889112129E+02  0.99789733906E+01  0.15749616620E+03  0.24074304794E+03  0.17300000000E+03 0. -1.
         -6    1    1    2    0  502  0.55889112129E+02 -0.99789733906E+01  0.19517991480E+03  0.26692203339E+03  0.17300000000E+03 0. -1.
<mgrwt>
<rscale>  2 0.18207738E+03</rscale>
<asrwt>0</asrwt>
<pdfrwt beam="1">  1       21 0.66180088E-01 0.18207738E+03</pdfrwt>
<pdfrwt beam="2">  1       21 0.11922231E-01 0.18207738E+03</pdfrwt>
<totfact> 0.12488592E+05</totfact>
</mgrwt>
</event>
<event>
 4    1  0.4173994E+000  0.2004493E+03  0.7546771E-02  0.1149361E+00
         21   -1    0    0  501  502  0.00000000000E+00  0.00000000000E+00  0.84750794404E+02  0.84750794404E+02  0.00000000000E+00 0. -1.
         21   -1    0    0  502  503 -0.00000000000E+00 -0.00000000000E+00 -0.47592732605E+03  0.47592732605E+03  0.00000000000E+00 0. -1.
          6    1    1    2  501    0  0.10011972242E+03 -0.15064704786E+02 -0.17819232811E+03  0.26820218110E+03  0.17300000000E+03 0. -1.
         -6    1    1    2    0  503 -0.10011972242E+03  0.15064704786E+02 -0.21298420354E+03  0.29247593936E+03  0.17300000000E+03 0. -1.
<mgrwt>
<rscale>  2 0.20044926E+03</rscale>
<asrwt>0</asrwt>
<pdfrwt beam="1">  1       21 0.13038584E-01 0.20044926E+03</pdfrwt>
<pdfrwt beam="2">  1       21 0.73219590E-01 0.20044926E+03</pdfrwt>
<totfact> 0.84520044E+04</totfact>
</mgrwt>
</event>
<event>
 4    1  0.4173994E+000  0.2104335E+03  0.7546771E-02  0.1141223E+00
         21   -1    0    0  503  502  0.00000000000E+00  0.00000000000E+00  0.77015435425E+02  0.77015435425E+02  0.00000000000E+00 0.  1.
         21   -1    0    0  501  503 -0.00000000000E+00 -0.00000000000E+00 -0.58104301203E+03  0.58104301203E+03  0.00000000000E+00 0. -1.
          6    1    1    2  501    0 -0.58184169009E+02 -0.10472755990E+03 -0.21840059576E+03  0.30328382673E+03  0.17300000000E+03 0.  1.
         -6    1    1    2    0  502  0.58184169009E+02  0.10472755990E+03 -0.28562698084E+03  0.35477462073E+03  0.17300000000E+03 0.  1.
<mgrwt>
<rscale>  2 0.21043350E+03</rscale>
<asrwt>0</asrwt>
<pdfrwt beam="1">  1       21 0.11848528E-01 0.21043350E+03</pdfrwt>
<pdfrwt beam="2">  1       21 0.89391234E-01 0.21043350E+03</pdfrwt>
<totfact> 0.63528562E+04</totfact>
</mgrwt>
</event>
<event>
 4    1  0.4173994E+000  0.3437034E+03  0.7546771E-02  0.1065229E+00
         21   -1    0    0  501  502  0.00000000000E+00  0.00000000000E+00  0.14741387862E+04  0.14741387862E+04  0.00000000000E+00 0. -1.
         21   -1    0    0  502  503 -0.00000000000E+00 -0.00000000000E+00 -0.10694938864E+03  0.10694938864E+03  0.00000000000E+00 0.  1.
          6    1    1    2  501    0  0.29695891234E+03  0.42908812050E+01  0.10794263132E+04  0.11328253055E+04  0.17300000000E+03 0. -1.
         -6    1    1    2    0  503 -0.29695891234E+03 -0.42908812050E+01  0.28776308443E+03  0.44826286935E+03  0.17300000000E+03 0.  1.
<mgrwt>
<rscale>  2 0.34370337E+03</rscale>
<asrwt>0</asrwt>
<pdfrwt beam="1">  1       21 0.22679057E+00 0.34370337E+03</pdfrwt>
<pdfrwt beam="2">  1       21 0.16453753E-01 0.34370337E+03</pdfrwt>
<totfact> 0.26916724E+03</totfact>
</mgrwt>
</event>
<event>
 4    1  0.4173994E+000  0.2186534E+03  0.7546771E-02  0.1134891E+00
         21   -1    0    0  501  502  0.00000000000E+00  0.00000000000E+00  0.73479018220E+03  0.73479018220E+03  0.00000000000E+00 0. -1.
         21   -1    0    0  502  503 -0.00000000000E+00 -0.00000000000E+00 -0.76858364654E+02  0.76858364654E+02  0.00000000000E+00 0.  1.
          6    1    1    2  501    0 -0.94391703312E+02 -0.94712825909E+02  0.48793275433E+03  0.53468466015E+03  0.17300000000E+03 0. -1.
         -6    1    1    2    0  503  0.94391703312E+02  0.94712825909E+02  0.16999906321E+03  0.27696388670E+03  0.17300000000E+03 0.  1.
<mgrwt>
<rscale>  2 0.21865341E+03</rscale>
<asrwt>0</asrwt>
<pdfrwt beam="1">  1       21 0.11304464E+00 0.21865341E+03</pdfrwt>
<pdfrwt beam="2">  1       21 0.11824364E-01 0.21865341E+03</pdfrwt>
<totfact> 0.36308066E+04</totfact>
</mgrwt>
</event>
<event>
 4    1  0.4173994E+000  0.1868799E+03  0.7546771E-02  0.1161306E+00
         21   -1    0    0  503  502  0.00000000000E+00  0.00000000000E+00  0.62808050781E+02  0.62808050781E+02  0.00000000000E+00 0.  1.
         21   -1    0    0  501  503 -0.00000000000E+00 -0.00000000000E+00 -0.70212478954E+03  0.70212478954E+03  0.00000000000E+00 0.  1.
          6    1    1    2  501    0 -0.60793041193E+02 -0.36045767546E+02 -0.14520414344E+03  0.23666080048E+03  0.17300000000E+03 0.  1.
         -6    1    1    2    0  502  0.60793041193E+02  0.36045767546E+02 -0.49411259532E+03  0.52827203983E+03  0.17300000000E+03 0.  1.
<mgrwt>
<rscale>  2 0.18687988E+03</rscale>
<asrwt>0</asrwt>
<pdfrwt beam="1">  1       21 0.96627770E-02 0.18687988E+03</pdfrwt>
<pdfrwt beam="2">  1       21 0.10801920E+00 0.18687988E+03</pdfrwt>
<totfact> 0.58994986E+04</totfact>
</mgrwt>
</event>
<event>
 4    1  0.4173994E+000  0.1978021E+03  0.7546771E-02  0.1151607E+00
         21   -1    0    0  503  502  0.00000000000E+00  0.00000000000E+00  0.45004556005E+02  0.45004556005E+02  0.00000000000E+00 0.  1.
         21   -1    0    0  501  503 -0.00000000000E+00 -0.00000000000E+00 -0.12548850532E+04  0.12548850532E+04  0.00000000000E+00 0. -1.
          6    1    1    2  501    0  0.94611872834E+02  0.15660680550E+02 -0.96518239037E+03  0.98524246259E+03  0.17300000000E+03 0. -1.
         -6    1    1    2    0  502 -0.94611872834E+02 -0.15660680550E+02 -0.24469810684E+03  0.31464714664E+03  0.17300000000E+03 0.  1.
<mgrwt>
<rscale>  2 0.19780208E+03</rscale>
<asrwt>0</asrwt>
<pdfrwt beam="1">  1       21 0.69237772E-02 0.19780208E+03</pdfrwt>
<pdfrwt beam="2">  1       21 0.19305926E+00 0.19780208E+03</pdfrwt>
<totfact> 0.22870404E+04</totfact>
</mgrwt>
</event>
<event>
 4    1  0.4173994E+000  0.1950677E+03  0.7546771E-02  0.1153968E+00
         21   -1    0    0  501  502  0.00000000000E+00  0.00000000000E+00  0.49434340330E+03  0.49434340330E+03  0.00000000000E+00 0.  1.
         21   -1    0    0  502  503 -0.00000000000E+00 -0.00000000000E+00 -0.77920449628E+02  0.77920449628E+02  0.00000000000E+00 0.  1.
          6    1    1    2  501    0 -0.87647505394E+02 -0.20984185057E+02  0.17667107237E+03  0.26318071555E+03  0.17300000000E+03 0.  1.
         -6    1    1    2    0  503  0.87647505394E+02  0.20984185057E+02  0.23975188130E+03  0.30908313738E+03  0.17300000000E+03 0.  1.
<mgrwt>
<rscale>  2 0.19506773E+03</rscale>
<asrwt>0</asrwt>
<pdfrwt beam="1">  1       21 0.76052829E-01 0.19506773E+03</pdfrwt>
<pdfrwt beam="2">  1       21 0.11987762E-01 0.19506773E+03</pdfrwt>
<totfact> 0.90512651E+04</totfact>
</mgrwt>
</event>
<event>
 4    1  0.4173994E+000  0.2165590E+03  0.7546771E-02  0.1136475E+00
         21   -1    0    0  501  502  0.00000000000E+00  0.00000000000E+00  0.63360354956E+03  0.63360354956E+03  0.00000000000E+00 0.  1.
         21   -1    0    0  502  503 -0.00000000000E+00 -0.00000000000E+00 -0.85006086248E+02  0.85006086248E+02  0.00000000000E+00 0.  1.
          6    1    1    2  501    0  0.70465847498E+02  0.10955996166E+03  0.40348214433E+03  0.45792538874E+03  0.17300000000E+03 0.  1.
         -6    1    1    2    0  503 -0.70465847498E+02 -0.10955996166E+03  0.14511531898E+03  0.26068424706E+03  0.17300000000E+03 0.  1.
<mgrwt>
<rscale>  2 0.21655905E+03</rscale>
<asrwt>0</asrwt>
<pdfrwt beam="1">  1       21 0.97477466E-01 0.21655905E+03</pdfrwt>
<pdfrwt beam="2">  1       21 0.13077860E-01 0.21655905E+03</pdfrwt>
<totfact> 0.43313478E+04</totfact>
</mgrwt>
</event>
<event>
 4    1  0.4173994E+000  0.1788699E+03  0.7546771E-02  0.1168901E+00
         21   -1    0    0  501  502  0.00000000000E+00  0.00000000000E+00  0.36350558122E+03  0.36350558122E+03  0.00000000000E+00 0.  1.
         21   -1    0    0  502  503 -0.00000000000E+00 -0.00000000000E+00 -0.16568403825E+03  0.16568403825E+03  0.00000000000E+00 0.  1.
          6    1    1    2  501    0  0.37034463833E+02  0.26341481329E+02  0.28007032693E+03  0.33231583347E+03  0.17300000000E+03 0.  1.
         -6    1    1    2    0  503 -0.37034463833E+02 -0.26341481329E+02 -0.82248783960E+02  0.19687378600E+03  0.17300000000E+03 0.  1.
<mgrwt>
<rscale>  2 0.17886986E+03</rscale>
<asrwt>0</asrwt>
<pdfrwt beam="1">  1       21 0.55923935E-01 0.17886986E+03</pdfrwt>
<pdfrwt beam="2">  1       21 0.25489852E-01 0.17886986E+03</pdfrwt>
<totfact> 0.44244947E+04</totfact>
</mgrwt>
</event>
<event>
 4    1  0.4173994E+000  0.2055920E+03  0.7546771E-02  0.1145105E+00
         21   -1    0    0  501  502  0.00000000000E+00  0.00000000000E+00  0.48850970170E+03  0.48850970170E+03  0.00000000000E+00 0. -1.
         21   -1    0    0  502  503 -0.00000000000E+00 -0.00000000000E+00 -0.16588352325E+03  0.16588352325E+03  0.00000000000E+00 0.  1.
          6    1    1    2  501    0  0.10844760401E+03 -0.24045397013E+02  0.38762389722E+03  0.43877140931E+03  0.17300000000E+03 0. -1.
         -6    1    1    2    0  503 -0.10844760401E+03  0.24045397013E+02 -0.64997718769E+02  0.21562181563E+03  0.17300000000E+03 0.  1.
<mgrwt>
<rscale>  2 0.20559198E+03</rscale>
<asrwt>0</asrwt>
<pdfrwt beam="1">  1       21 0.75155338E-01 0.20559198E+03</pdfrwt>
<pdfrwt beam="2">  1       21 0.25520542E-01 0.20559198E+03</pdfrwt>
<totfact> 0.22870439E+04</totfact>
</mgrwt>
</event>
<event>
 4    1  0.4173994E+000  0.2357168E+03  0.7546771E-02  0.1122679E+00
         21   -1    0    0  503  502  0.00000000000E+00  0.00000000000E+00  0.27762591169E+03  0.27762591169E+03  0.00000000000E+00 0. -1.
         21   -1    0    0  501  503 -0.00000000000E+00 -0.00000000000E+00 -0.22442012669E+03  0.22442012669E+03  0.00000000000E+00 0.  1.
          6    1    1    2  501    0  0.15975605960E+03  0.10555485556E+02  0.10918020107E+03  0.25977438897E+03  0.17300000000E+03 0. -1.
         -6    1    1    2    0  502 -0.15975605960E+03 -0.10555485556E+02 -0.55974416072E+02  0.24227164941E+03  0.17300000000E+03 0. -1.
<mgrwt>
<rscale>  2 0.23571681E+03</rscale>
<asrwt>0</asrwt>
<pdfrwt beam="1">  1       21 0.42711679E-01 0.23571681E+03</pdfrwt>
<pdfrwt beam="2">  1       21 0.34526173E-01 0.23571681E+03</pdfrwt>
<totfact> 0.41760958E+04</totfact>
</mgrwt>
</event>
<event>
 4    1  0.4173994E+000  0.1927209E+03  0.7546771E-02  0.1156030E+00
         21   -1    0    0  503  502  0.00000000000E+00  0.00000000000E+00  0.56707453165E+03  0.56707453165E+03  0.00000000000E+00 0. -1.
         21   -1    0    0  501  503 -0.00000000000E+00 -0.00000000000E+00 -0.65528407430E+02  0.65528407430E+02  0.00000000000E+00 0.  1.
          6    1    1    2  501    0 -0.75091418471E+02 -0.39668951521E+02  0.25776237001E+03  0.32184279740E+03  0.17300000000E+03 0.  1.
         -6    1    1    2    0  502  0.75091418471E+02  0.39668951521E+02  0.24378375421E+03  0.31076014169E+03  0.17300000000E+03 0.  1.
<mgrwt>
<rscale>  2 0.19272090E+03</rscale>
<asrwt>0</asrwt>
<pdfrwt beam="1">  1       21 0.87242232E-01 0.19272090E+03</pdfrwt>
<pdfrwt beam="2">  1       21 0.10081294E-01 0.19272090E+03</pdfrwt>
<totfact> 0.90297135E+04</totfact>
</mgrwt>
</event>
<event>
 4    1  0.4173994E+000  0.2060797E+03  0.7546771E-02  0.1144709E+00
         21   -1    0    0  501  502  0.00000000000E+00  0.00000000000E+00  0.20230000476E+04  0.20230000476E+04  0.00000000000E+00 0.  1.
         21   -1    0    0  502  503 -0.00000000000E+00 -0.00000000000E+00 -0.20995994923E+02  0.20995994923E+02  0.00000000000E+00 0. -1.
          6    1    1    2  501    0  0.11193045278E+03  0.33797314056E+01  0.98880490062E+03  0.10100514741E+04  0.17300000000E+03 0.  1.
         -6    1    1    2    0  503 -0.11193045278E+03 -0.33797314056E+01  0.10131991521E+04  0.10339445684E+04  0.17300000000E+03 0. -1.
<mgrwt>
<rscale>  2 0.20607971E+03</rscale>
<asrwt>0</asrwt>
<pdfrwt beam="1">  1       21 0.31123062E+00 0.20607971E+03</pdfrwt>
<pdfrwt beam="2">  1       21 0.32301547E-02 0.20607971E+03</pdfrwt>
<totfact> 0.16239032E+04</totfact>
</mgrwt>
</event>
<event>
 4    1  0.4173994E+000  0.1960063E+03  0.7546771E-02  0.1153153E+00
         21   -1    0    0  501  502  0.00000000000E+00  0.00000000000E+00  0.41903413101E+03  0.41903413101E+03  0.00000000000E+00 0. -1.
         21   -1    0    0  502  503 -0.00000000000E+00 -0.00000000000E+00 -0.11610463901E+03  0.11610463901E+03  0.00000000000E+00 0. -1.
          6    1    1    2  501    0 -0.84488340602E+02 -0.36758444571E+02  0.27417919807E+03  0.33703515484E+03  0.17300000000E+03 0. -1.
         -6    1    1    2    0  503  0.84488340602E+02  0.36758444571E+02  0.28750293921E+02  0.19810361518E+03  0.17300000000E+03 0. -1.
<mgrwt>
<rscale>  2 0.19600628E+03</rscale>
<asrwt>0</asrwt>
<pdfrwt beam="1">  1       21 0.64466789E-01 0.19600628E+03</pdfrwt>
<pdfrwt beam="2">  1       21 0.17862252E-01 0.19600628E+03</pdfrwt>
<totfact> 0.63091218E+04</totfact>
</mgrwt>
</event>
<event>
 4    1  0.4173994E+000  0.2263592E+03  0.7546771E-02  0.1129229E+00
         21   -1    0    0  503  502  0.00000000000E+00  0.00000000000E+00  0.13726300470E+03  0.13726300470E+03  0.00000000000E+00 0. -1.
         21   -1    0    0  501  503 -0.00000000000E+00 -0.00000000000E+00 -0.41146565953E+03  0.41146565953E+03  0.00000000000E+00 0. -1.
          6    1    1    2  501    0  0.12463420131E+03 -0.75998799428E+02 -0.53527377978E+02  0.23260198160E+03  0.17300000000E+03 0. -1.
         -6    1    1    2    0  502 -0.12463420131E+03  0.75998799428E+02 -0.22067527685E+03  0.31612668262E+03  0.17300000000E+03 0. -1.
<mgrwt>
<rscale>  2 0.22635923E+03</rscale>
<asrwt>0</asrwt>
<pdfrwt beam="1">  1       21 0.21117385E-01 0.22635923E+03</pdfrwt>
<pdfrwt beam="2">  1       21 0.63302410E-01 0.22635923E+03</pdfrwt>
<totfact> 0.47358226E+04</totfact>
</mgrwt>
</event>
<event>
 4    1  0.4173994E+000  0.3632369E+03  0.7546771E-02  0.1057309E+00
         21   -1    0    0  503  502  0.00000000000E+00  0.00000000000E+00  0.42374924967E+03  0.42374924967E+03  0.00000000000E+00 0.  1.
         21   -1    0    0  501  503 -0.00000000000E+00 -0.00000000000E+00 -0.42275635911E+03  0.42275635911E+03  0.00000000000E+00 0.  1.
          6    1    1    2  501    0  0.24824619377E+03  0.20096241406E+03 -0.21676305466E+03  0.42299797453E+03  0.17300000000E+03 0.  1.
         -6    1    1    2    0  502 -0.24824619377E+03 -0.20096241406E+03  0.21775594522E+03  0.42350763425E+03  0.17300000000E+03 0.  1.
<mgrwt>
<rscale>  2 0.36323693E+03</rscale>
<asrwt>0</asrwt>
<pdfrwt beam="1">  1       21 0.65192193E-01 0.36323693E+03</pdfrwt>
<pdfrwt beam="2">  1       21 0.65039439E-01 0.36323693E+03</pdfrwt>
<totfact> 0.42697775E+03</totfact>
</mgrwt>
</event>
<event>
 4    1  0.4173994E+000  0.2272716E+03  0.7546771E-02  0.1128575E+00
         21   -1    0    0  501  502  0.00000000000E+00  0.00000000000E+00  0.18487949715E+03  0.18487949715E+03  0.00000000000E+00 0.  1.
         21   -1    0    0  502  503 -0.00000000000E+00 -0.00000000000E+00 -0.27991204186E+03  0.27991204186E+03  0.00000000000E+00 0. -1.
          6    1    1    2  501    0  0.11185025799E+03  0.95983889520E+02 -0.57609285658E+02  0.23445941451E+03  0.17300000000E+03 0. -1.
         -6    1    1    2    0  503 -0.11185025799E+03 -0.95983889520E+02 -0.37423259046E+02  0.23033212450E+03  0.17300000000E+03 0.  1.
<mgrwt>
<rscale>  2 0.22727162E+03</rscale>
<asrwt>0</asrwt>
<pdfrwt beam="1">  1       21 0.28443000E-01 0.22727162E+03</pdfrwt>
<pdfrwt beam="2">  1       21 0.43063391E-01 0.22727162E+03</pdfrwt>
<totfact> 0.60347774E+04</totfact>
</mgrwt>
</event>
<event>
 4    1  0.4173994E+000  0.2827309E+03  0.7546771E-02  0.1094207E+00
         21   -1    0    0  503  502  0.00000000000E+00  0.00000000000E+00  0.10287655799E+03  0.10287655799E+03  0.00000000000E+00 0. -1.
         21   -1    0    0  501  503 -0.00000000000E+00 -0.00000000000E+00 -0.78555307208E+03  0.78555307208E+03  0.00000000000E+00 0.  1.
          6    1    1    2  501    0 -0.54192205800E+02 -0.21695841508E+03 -0.29503032042E+03  0.40863142196E+03  0.17300000000E+03 0.  1.
         -6    1    1    2    0  502  0.54192205800E+02  0.21695841508E+03 -0.38764619367E+03  0.47979820812E+03  0.17300000000E+03 0.  1.
<mgrwt>
<rscale>  2 0.28273088E+03</rscale>
<asrwt>0</asrwt>
<pdfrwt beam="1">  1       21 0.15827163E-01 0.28273088E+03</pdfrwt>
<pdfrwt beam="2">  1       21 0.12085432E+00 0.28273088E+03</pdfrwt>
<totfact> 0.17554712E+04</totfact>
</mgrwt>
</event>
<event>
 4    1  0.4173994E+000  0.1979758E+03  0.7546771E-02  0.1151458E+00
         21   -1    0    0  503  502  0.00000000000E+00  0.00000000000E+00  0.30460331637E+03  0.30460331637E+03  0.00000000000E+00 0.  1.
         21   -1    0    0  501  503 -0.00000000000E+00 -0.00000000000E+00 -0.17918304186E+03  0.17918304186E+03  0.00000000000E+00 0.  1.
          6    1    1    2  501    0  0.11370096079E+02  0.95583088206E+02 -0.65718373583E+02  0.20859844310E+03  0.17300000000E+03 0.  1.
         -6    1    1    2    0  502 -0.11370096079E+02 -0.95583088206E+02  0.19113864809E+03  0.27518791513E+03  0.17300000000E+03 0.  1.
<mgrwt>
<rscale>  2 0.19797577E+03</rscale>
<asrwt>0</asrwt>
<pdfrwt beam="1">  1       21 0.46862048E-01 0.19797577E+03</pdfrwt>
<pdfrwt beam="2">  1       21 0.27566622E-01 0.19797577E+03</pdfrwt>
<totfact> 0.54594903E+04</totfact>
</mgrwt>
</event>
<event>
 4    1  0.4173994E+000  0.2137195E+03  0.7546771E-02  0.1138654E+00
         21   -1    0    0  503  502  0.00000000000E+00  0.00000000000E+00  0.68823101729E+02  0.68823101729E+02  0.00000000000E+00 0.  1.
         21   -1    0    0  501  503 -0.00000000000E+00 -0.00000000000E+00 -0.66408667850E+03  0.66408667850E+03  0.00000000000E+00 0.  1.
          6    1    1    2  501    0 -0.12380396065E+03  0.20484418700E+02 -0.30677833699E+03  0.37388364518E+03  0.17300000000E+03 0.  1.
         -6    1    1    2    0  502  0.12380396065E+03 -0.20484418700E+02 -0.28848523978E+03  0.35902613505E+03  0.17300000000E+03 0.  1.
<mgrwt>
<rscale>  2 0.21371952E+03</rscale>
<asrwt>0</asrwt>
<pdfrwt beam="1">  1       21 0.10588169E-01 0.21371952E+03</pdfrwt>
<pdfrwt beam="2">  1       21 0.10216718E+00 0.21371952E+03</pdfrwt>
<totfact> 0.56618406E+04</totfact>
</mgrwt>
</event>
<event>
 4    1  0.4173994E+000  0.1863442E+03  0.7546771E-02  0.1161801E+00
         21   -1    0    0  501  502  0.00000000000E+00  0.00000000000E+00  0.18426601570E+04  0.18426601570E+04  0.00000000000E+00 0.  1.
         21   -1    0    0  502  503 -0.00000000000E+00 -0.00000000000E+00 -0.20967930808E+02  0.20967930808E+02  0.00000000000E+00 0.  1.
          6    1    1    2  501    0 -0.56923117094E+02  0.39432368843E+02  0.12073719561E+04  0.12216673825E+04  0.17300000000E+03 0.  1.
         -6    1    1    2    0  503  0.56923117094E+02 -0.39432368843E+02  0.61432027004E+03  0.64196070530E+03  0.17300000000E+03 0.  1.
<mgrwt>
<rscale>  2 0.18634418E+03</rscale>
<asrwt>0</asrwt>
<pdfrwt beam="1">  1       21 0.28348605E+00 0.18634418E+03</pdfrwt>
<pdfrwt beam="2">  1       21 0.32258370E-02 0.18634418E+03</pdfrwt>
<totfact> 0.23980709E+04</totfact>
</mgrwt>
</event>
<event>
 4    1  0.4173994E+000  0.2009467E+03  0.7546771E-02  0.1148943E+00
         21   -1    0    0  503  502  0.00000000000E+00  0.00000000000E+00  0.13372456075E+03  0.13372456075E+03  0.00000000000E+00 0. -1.
         21   -1    0    0  501  503 -0.00000000000E+00 -0.00000000000E+00 -0.34804417481E+03  0.34804417481E+03  0.00000000000E+00 0. -1.
          6    1    1    2  501    0  0.43748043595E+02 -0.92394223144E+02 -0.19481209827E+03  0.27987736139E+03  0.17300000000E+03 0. -1.
         -6    1    1    2    0  502 -0.43748043595E+02  0.92394223144E+02 -0.19507515795E+02  0.20189137416E+03  0.17300000000E+03 0. -1.
<mgrwt>
<rscale>  2 0.20094672E+03</rscale>
<asrwt>0</asrwt>
<pdfrwt beam="1">  1       21 0.20573010E-01 0.20094672E+03</pdfrwt>
<pdfrwt beam="2">  1       21 0.53545257E-01 0.20094672E+03</pdfrwt>
<totfact> 0.72004627E+04</totfact>
</mgrwt>
</event>
<event>
 4    1  0.4173994E+000  0.1943257E+03  0.7546771E-02  0.1154617E+00
         21   -1    0    0  503  502  0.00000000000E+00  0.00000000000E+00  0.66313625429E+02  0.66313625429E+02  0.00000000000E+00 0. -1.
         21   -1    0    0  501  503 -0.00000000000E+00 -0.00000000000E+00 -0.57854216954E+03  0.57854216954E+03  0.00000000000E+00 0. -1.
          6    1    1    2  501    0  0.88472962946E+02 -0.24520457571E+01 -0.29652835180E+03  0.35453002852E+03  0.17300000000E+03 0. -1.
         -6    1    1    2    0  502 -0.88472962946E+02  0.24520457571E+01 -0.21570019231E+03  0.29032576644E+03  0.17300000000E+03 0. -1.
<mgrwt>
<rscale>  2 0.19432570E+03</rscale>
<asrwt>0</asrwt>
<pdfrwt beam="1">  1       21 0.10202096E-01 0.19432570E+03</pdfrwt>
<pdfrwt beam="2">  1       21 0.89006487E-01 0.19432570E+03</pdfrwt>
<totfact> 0.84367745E+04</totfact>
</mgrwt>
</event>
<event>
 4    1  0.4173994E+000  0.2000101E+03  0.7546771E-02  0.1149730E+00
         21   -1    0    0  501  502  0.00000000000E+00  0.00000000000E+00  0.83824499336E+03  0.83824499336E+03  0.00000000000E+00 0. -1.
         21   -1    0    0  502  503 -0.00000000000E+00 -0.00000000000E+00 -0.11695617252E+03  0.11695617252E+03  0.00000000000E+00 0. -1.
          6    1    1    2  501    0  0.10032798981E+03  0.30561698264E+01 -0.68143413924E+01  0.20012616261E+03  0.17300000000E+03 0. -1.
         -6    1    1    2    0  503 -0.10032798981E+03 -0.30561698264E+01  0.72810316223E+03  0.75507500327E+03  0.17300000000E+03 0. -1.
<mgrwt>
<rscale>  2 0.20001011E+03</rscale>
<asrwt>0</asrwt>
<pdfrwt beam="1">  1       21 0.12896076E+00 0.20001011E+03</pdfrwt>
<pdfrwt beam="2">  1       21 0.17993258E-01 0.20001011E+03</pdfrwt>
<totfact> 0.12328137E+04</totfact>
</mgrwt>
</event>
<event>
 4    1  0.4173994E+000  0.2293197E+03  0.7546771E-02  0.1127120E+00
         21   -1    0    0  501  502  0.00000000000E+00  0.00000000000E+00  0.17138117780E+03  0.17138117780E+03  0.00000000000E+00 0.  1.
         21   -1    0    0  502  503 -0.00000000000E+00 -0.00000000000E+00 -0.41651957439E+03  0.41651957439E+03  0.00000000000E+00 0.  1.
          6    1    1    2  501    0 -0.13454327050E+03  0.67502760282E+02 -0.27340645842E+03  0.35684535276E+03  0.17300000000E+03 0.  1.
         -6    1    1    2    0  503  0.13454327050E+03 -0.67502760282E+02  0.28268061840E+02  0.23105539943E+03  0.17300000000E+03 0.  1.
<mgrwt>
<rscale>  2 0.22931968E+03</rscale>
<asrwt>0</asrwt>
<pdfrwt beam="1">  1       21 0.26366335E-01 0.22931968E+03</pdfrwt>
<pdfrwt beam="2">  1       21 0.64079935E-01 0.22931968E+03</pdfrwt>
<totfact> 0.30165452E+04</totfact>
</mgrwt>
</event>
<event>
 4    1  0.4173994E+000  0.3019485E+03  0.7546771E-02  0.1084271E+00
         21   -1    0    0  503  502  0.00000000000E+00  0.00000000000E+00  0.10476532698E+04  0.10476532698E+04  0.00000000000E+00 0.  1.
         21   -1    0    0  501  503 -0.00000000000E+00 -0.00000000000E+00 -0.90157971915E+02  0.90157971915E+02  0.00000000000E+00 0.  1.
          6    1    1    2  501    0  0.79714721590E+02 -0.23428506143E+03  0.37271080578E+03  0.47967308825E+03  0.17300000000E+03 0.  1.
         -6    1    1    2    0  502 -0.79714721590E+02  0.23428506143E+03  0.58478449215E+03  0.65813815351E+03  0.17300000000E+03 0.  1.
<mgrwt>
<rscale>  2 0.30194855E+03</rscale>
<asrwt>0</asrwt>
<pdfrwt beam="1">  1       21 0.16117742E+00 0.30194855E+03</pdfrwt>
<pdfrwt beam="2">  1       21 0.13870458E-01 0.30194855E+03</pdfrwt>
<totfact> 0.10422825E+04</totfact>
</mgrwt>
</event>
<event>
 4    1  0.4173994E+000  0.1808970E+03  0.7546771E-02  0.1166938E+00
         21   -1    0    0  503  502  0.00000000000E+00  0.00000000000E+00  0.13572307808E+03  0.13572307808E+03  0.00000000000E+00 0. -1.
         21   -1    0    0  501  503 -0.00000000000E+00 -0.00000000000E+00 -0.46496765980E+03  0.46496765980E+03  0.00000000000E+00 0. -1.
          6    1    1    2  501    0 -0.46741844275E+02  0.24696657071E+02 -0.37302285004E+03  0.41457179297E+03  0.17300000000E+03 0. -1.
         -6    1    1    2    0  502  0.46741844275E+02 -0.24696657071E+02  0.43778268325E+02  0.18611894491E+03  0.17300000000E+03 0. -1.
<mgrwt>
<rscale>  2 0.18089700E+03</rscale>
<asrwt>0</asrwt>
<pdfrwt beam="1">  1       21 0.20880474E-01 0.18089700E+03</pdfrwt>
<pdfrwt beam="2">  1       21 0.71533486E-01 0.18089700E+03</pdfrwt>
<totfact> 0.37841529E+04</totfact>
</mgrwt>
</event>
<event>
 4    1  0.4173994E+000  0.1745602E+03  0.7546771E-02  0.1173174E+00
         21   -1    0    0  503  502  0.00000000000E+00  0.00000000000E+00  0.13597118405E+04  0.13597118405E+04  0.00000000000E+00 0. -1.
         21   -1    0    0  501  503 -0.00000000000E+00 -0.00000000000E+00 -0.22580525064E+02  0.22580525064E+02  0.00000000000E+00 0.  1.
          6    1    1    2  501    0 -0.22211343163E+02  0.69936289657E+01  0.72861273033E+03  0.74923144983E+03  0.17300000000E+03 0.  1.
         -6    1    1    2    0  502  0.22211343163E+02 -0.69936289657E+01  0.60851858506E+03  0.63306091569E+03  0.17300000000E+03 0. -1.
<mgrwt>
<rscale>  2 0.17456017E+03</rscale>
<asrwt>0</asrwt>
<pdfrwt beam="1">  1       21 0.20918637E+00 0.17456017E+03</pdfrwt>
<pdfrwt beam="2">  1       21 0.34739280E-02 0.17456017E+03</pdfrwt>
<totfact> 0.58941046E+04</totfact>
</mgrwt>
</event>
<event>
 4    1  0.4173994E+000  0.2088739E+03  0.7546771E-02  0.1142461E+00
         21   -1    0    0  503  502  0.00000000000E+00  0.00000000000E+00  0.71992948138E+03  0.71992948138E+03  0.00000000000E+00 0. -1.
         21   -1    0    0  501  503 -0.00000000000E+00 -0.00000000000E+00 -0.81981454638E+02  0.81981454638E+02  0.00000000000E+00 0. -1.
          6    1    1    2  501    0 -0.60389114946E+02  0.10026193688E+03  0.11421225590E+03  0.23806037173E+03  0.17300000000E+03 0. -1.
         -6    1    1    2    0  502  0.60389114946E+02 -0.10026193688E+03  0.52373577084E+03  0.56385056429E+03  0.17300000000E+03 0. -1.
<mgrwt>
<rscale>  2 0.20887389E+03</rscale>
<asrwt>0</asrwt>
<pdfrwt beam="1">  1       21 0.11075838E+00 0.20887389E+03</pdfrwt>
<pdfrwt beam="2">  1       21 0.12612532E-01 0.20887389E+03</pdfrwt>
<totfact> 0.34162622E+04</totfact>
</mgrwt>
</event>
<event>
 4    1  0.4173994E+000  0.1956334E+03  0.7546771E-02  0.1153476E+00
         21   -1    0    0  501  502  0.00000000000E+00  0.00000000000E+00  0.12280240586E+03  0.12280240586E+03  0.00000000000E+00 0. -1.
         21   -1    0    0  502  503 -0.00000000000E+00 -0.00000000000E+00 -0.36610603035E+03  0.36610603035E+03  0.00000000000E+00 0.  1.
          6    1    1    2  501    0  0.69944040177E+02 -0.58747382399E+02 -0.27379782157E+02  0.19754006218E+03  0.17300000000E+03 0. -1.
         -6    1    1    2    0  503 -0.69944040177E+02  0.58747382399E+02 -0.21592384234E+03  0.29136837403E+03  0.17300000000E+03 0.  1.
<mgrwt>
<rscale>  2 0.19563339E+03</rscale>
<asrwt>0</asrwt>
<pdfrwt beam="1">  1       21 0.18892678E-01 0.19563339E+03</pdfrwt>
<pdfrwt beam="2">  1       21 0.56324004E-01 0.19563339E+03</pdfrwt>
<totfact> 0.76027018E+04</totfact>
</mgrwt>
</event>
<event>
 4    1  0.4173994E+000  0.1981024E+03  0.7546771E-02  0.1151350E+00
         21   -1    0    0  503  502  0.00000000000E+00  0.00000000000E+00  0.38626747945E+03  0.38626747945E+03  0.00000000000E+00 0. -1.
         21   -1    0    0  501  503 -0.00000000000E+00 -0.00000000000E+00 -0.10228603917E+03  0.10228603917E+03  0.00000000000E+00 0.  1.
          6    1    1    2  501    0  0.55565478859E+02 -0.78917876939E+02  0.16200455930E+03  0.25591020100E+03  0.17300000000E+03 0. -1.
         -6    1    1    2    0  502 -0.55565478859E+02  0.78917876939E+02  0.12197688098E+03  0.23264331763E+03  0.17300000000E+03 0. -1.
<mgrwt>
<rscale>  2 0.19810238E+03</rscale>
<asrwt>0</asrwt>
<pdfrwt beam="1">  1       21 0.59425766E-01 0.19810238E+03</pdfrwt>
<pdfrwt beam="2">  1       21 0.15736314E-01 0.19810238E+03</pdfrwt>
<totfact> 0.94867249E+04</totfact>
</mgrwt>
</event>
<event>
 4    1  0.4173994E+000  0.2965653E+03  0.7546771E-02  0.1086970E+00
         21   -1    0    0  501  502  0.00000000000E+00  0.00000000000E+00  0.16576723858E+03  0.16576723858E+03  0.00000000000E+00 0.  1.
         21   -1    0    0  502  503 -0.00000000000E+00 -0.00000000000E+00 -0.68930297723E+03  0.68930297723E+03  0.00000000000E+00 0. -1.
          6    1    1    2  501    0  0.23581170486E+03 -0.49140963193E+02 -0.56603776163E+02  0.30191883328E+03  0.17300000000E+03 0.  1.
         -6    1    1    2    0  503 -0.23581170486E+03  0.49140963193E+02 -0.46693196248E+03  0.55315138254E+03  0.17300000000E+03 0. -1.
<mgrwt>
<rscale>  2 0.29656533E+03</rscale>
<asrwt>0</asrwt>
<pdfrwt beam="1">  1       21 0.25502652E-01 0.29656533E+03</pdfrwt>
<pdfrwt beam="2">  1       21 0.10604661E+00 0.29656533E+03</pdfrwt>
<totfact> 0.97881629E+03</totfact>
</mgrwt>
</event>
<event>
 4    1  0.4173994E+000  0.1917142E+03  0.7546771E-02  0.1156924E+00
         21   -1    0    0  501  502  0.00000000000E+00  0.00000000000E+00  0.43824223841E+03  0.43824223841E+03  0.00000000000E+00 0.  1.
         21   -1    0    0  502  503 -0.00000000000E+00 -0.00000000000E+00 -0.11408566275E+03  0.11408566275E+03  0.00000000000E+00 0.  1.
          6    1    1    2  501    0  0.81931687322E+02  0.10608693160E+02  0.30420784956E+03  0.35957858876E+03  0.17300000000E+03 0.  1.
         -6    1    1    2    0  503 -0.81931687322E+02 -0.10608693160E+02  0.19948726102E+02  0.19274931240E+03  0.17300000000E+03 0.  1.
<mgrwt>
<rscale>  2 0.19171423E+03</rscale>
<asrwt>0</asrwt>
<pdfrwt beam="1">  1       21 0.67421882E-01 0.19171423E+03</pdfrwt>
<pdfrwt beam="2">  1       21 0.17551641E-01 0.19171423E+03</pdfrwt>
<totfact> 0.59215496E+04</totfact>
</mgrwt>
</event>
<event>
 4    1  0.4173994E+000  0.3023141E+03  0.7546771E-02  0.1084089E+00
         21   -1    0    0  501  502  0.00000000000E+00  0.00000000000E+00  0.79511643469E+03  0.79511643469E+03  0.00000000000E+00 0.  1.
         21   -1    0    0  502  503 -0.00000000000E+00 -0.00000000000E+00 -0.11727199582E+03  0.11727199582E+03  0.00000000000E+00 0. -1.
          6    1    1    2  501    0  0.23117785499E+03 -0.89563506229E+02  0.27464626343E+03  0.40844141845E+03  0.17300000000E+03 0. -1.
         -6    1    1    2    0  503 -0.23117785499E+03  0.89563506229E+02  0.40319817544E+03  0.50394701206E+03  0.17300000000E+03 0.  1.
<mgrwt>
<rscale>  2 0.30231411E+03</rscale>
<asrwt>0</asrwt>
<pdfrwt beam="1">  1       21 0.12232560E+00 0.30231411E+03</pdfrwt>
<pdfrwt beam="2">  1       21 0.18041846E-01 0.30231411E+03</pdfrwt>
<totfact> 0.13234099E+04</totfact>
</mgrwt>
</event>
<event>
 4    1  0.4173994E+000  0.2044555E+03  0.7546771E-02  0.1146033E+00
         21   -1    0    0  503  502  0.00000000000E+00  0.00000000000E+00  0.23513241330E+03  0.23513241330E+03  0.00000000000E+00 0.  1.
         21   -1    0    0  501  503 -0.00000000000E+00 -0.00000000000E+00 -0.84487134086E+03  0.84487134086E+03  0.00000000000E+00 0.  1.
          6    1    1    2  501    0 -0.10608829000E+03 -0.24865839392E+02 -0.78470494904E+03  0.81090313373E+03  0.17300000000E+03 0.  1.
         -6    1    1    2    0  502  0.10608829000E+03  0.24865839392E+02  0.17496602148E+03  0.26910062044E+03  0.17300000000E+03 0.  1.
<mgrwt>
<rscale>  2 0.20445546E+03</rscale>
<asrwt>0</asrwt>
<pdfrwt beam="1">  1       21 0.36174217E-01 0.20445546E+03</pdfrwt>
<pdfrwt beam="2">  1       21 0.12998021E+00 0.20445546E+03</pdfrwt>
<totfact> 0.31541994E+03</totfact>
</mgrwt>
</event>
<event>
 4    1  0.4173994E+000  0.2320321E+03  0.7546771E-02  0.1125218E+00
         21   -1    0    0  501  502  0.00000000000E+00  0.00000000000E+00  0.80292877703E+02  0.80292877703E+02  0.00000000000E+00 0.  1.
         21   -1    0    0  502  503 -0.00000000000E+00 -0.00000000000E+00 -0.69850154382E+03  0.69850154382E+03  0.00000000000E+00 0.  1.
          6    1    1    2  501    0  0.14221632089E+03  0.60699246734E+02 -0.23118271322E+03  0.32754286342E+03  0.17300000000E+03 0.  1.
         -6    1    1    2    0  503 -0.14221632089E+03 -0.60699246734E+02 -0.38702595290E+03  0.45125155811E+03  0.17300000000E+03 0.  1.
<mgrwt>
<rscale>  2 0.23203207E+03</rscale>
<asrwt>0</asrwt>
<pdfrwt beam="1">  1       21 0.12352751E-01 0.23203207E+03</pdfrwt>
<pdfrwt beam="2">  1       21 0.10746177E+00 0.23203207E+03</pdfrwt>
<totfact> 0.37712801E+04</totfact>
</mgrwt>
</event>
<event>
 4    1  0.4173994E+000  0.2105393E+03  0.7546771E-02  0.1141140E+00
         21   -1    0    0  503  502  0.00000000000E+00  0.00000000000E+00  0.24298418570E+03  0.24298418570E+03  0.00000000000E+00 0. -1.
         21   -1    0    0  501  503 -0.00000000000E+00 -0.00000000000E+00 -0.20435167094E+03  0.20435167094E+03  0.00000000000E+00 0. -1.
          6    1    1    2  501    0 -0.37283174225E+02  0.11405149244E+03  0.92579334689E+02  0.22999502434E+03  0.17300000000E+03 0. -1.
         -6    1    1    2    0  502  0.37283174225E+02 -0.11405149244E+03 -0.53946819923E+02  0.21734083231E+03  0.17300000000E+03 0. -1.
<mgrwt>
<rscale>  2 0.21053926E+03</rscale>
<asrwt>0</asrwt>
<pdfrwt beam="1">  1       21 0.37382182E-01 0.21053926E+03</pdfrwt>
<pdfrwt beam="2">  1       21 0.31438719E-01 0.21053926E+03</pdfrwt>
<totfact> 0.66575845E+04</totfact>
</mgrwt>
</event>
<event>
 4    1  0.4173994E+000  0.1840011E+03  0.7546771E-02  0.1163986E+00
         21   -1    0    0  501  502  0.00000000000E+00  0.00000000000E+00  0.16296775441E+03  0.16296775441E+03  0.00000000000E+00 0.  1.
         21   -1    0    0  502  503 -0.00000000000E+00 -0.00000000000E+00 -0.21988336217E+03  0.21988336217E+03  0.00000000000E+00 0.  1.
          6    1    1    2  501    0  0.46905891212E+02 -0.41560268511E+02  0.16510743736E+02  0.18474042115E+03  0.17300000000E+03 0.  1.
         -6    1    1    2    0  503 -0.46905891212E+02  0.41560268511E+02 -0.73426351491E+02  0.19811069543E+03  0.17300000000E+03 0.  1.
<mgrwt>
<rscale>  2 0.18400114E+03</rscale>
<asrwt>0</asrwt>
<pdfrwt beam="1">  1       21 0.25071962E-01 0.18400114E+03</pdfrwt>
<pdfrwt beam="2">  1       21 0.33828210E-01 0.18400114E+03</pdfrwt>
<totfact> 0.12719037E+05</totfact>
</mgrwt>
</event>
<event>
 4    1  0.4173994E+000  0.1739089E+03  0.7546771E-02  0.1173832E+00
         21   -1    0    0  503  502  0.00000000000E+00  0.00000000000E+00  0.36011819387E+03  0.36011819387E+03  0.00000000000E+00 0. -1.
         21   -1    0    0  501  503 -0.00000000000E+00 -0.00000000000E+00 -0.16699398435E+03  0.16699398435E+03  0.00000000000E+00 0. -1.
          6    1    1    2  501    0  0.51942351377E+01  0.16979742034E+02 -0.89255516732E+02  0.19547592943E+03  0.17300000000E+03 0. -1.
         -6    1    1    2    0  502 -0.51942351377E+01 -0.16979742034E+02  0.28237972625E+03  0.33163624880E+03  0.17300000000E+03 0. -1.
<mgrwt>
<rscale>  2 0.17390886E+03</rscale>
<asrwt>0</asrwt>
<pdfrwt beam="1">  1       21 0.55402799E-01 0.17390886E+03</pdfrwt>
<pdfrwt beam="2">  1       21 0.25691382E-01 0.17390886E+03</pdfrwt>
<totfact> 0.44568562E+04</totfact>
</mgrwt>
</event>
<event>
 4    1  0.4173994E+000  0.2374743E+03  0.7546771E-02  0.1121487E+00
         21   -1    0    0  501  502  0.00000000000E+00  0.00000000000E+00  0.99893807006E+03  0.99893807006E+03  0.00000000000E+00 0. -1.
         21   -1    0    0  502  503 -0.00000000000E+00 -0.00000000000E+00 -0.57651137565E+02  0.57651137565E+02  0.00000000000E+00 0.  1.
          6    1    1    2  501    0  0.10605705419E+03  0.12335694011E+03  0.39451497208E+03  0.46047377407E+03  0.17300000000E+03 0. -1.
         -6    1    1    2    0  503 -0.10605705419E+03 -0.12335694011E+03  0.54677196042E+03  0.59611543355E+03  0.17300000000E+03 0.  1.
<mgrwt>
<rscale>  2 0.23747428E+03</rscale>
<asrwt>0</asrwt>
<pdfrwt beam="1">  1       21 0.15368277E+00 0.23747428E+03</pdfrwt>
<pdfrwt beam="2">  1       21 0.88694065E-02 0.23747428E+03</pdfrwt>
<totfact> 0.27350026E+04</totfact>
</mgrwt>
</event>
<event>
 4    1  0.4173994E+000  0.2165976E+03  0.7546771E-02  0.1136445E+00
         21   -1    0    0  501  502  0.00000000000E+00  0.00000000000E+00  0.24763601000E+03  0.24763601000E+03  0.00000000000E+00 0.  1.
         21   -1    0    0  502  503 -0.00000000000E+00 -0.00000000000E+00 -0.41182386713E+03  0.41182386713E+03  0.00000000000E+00 0.  1.
          6    1    1    2  501    0 -0.70809938089E+02 -0.10941421527E+03  0.16020137138E+03  0.26940489459E+03  0.17300000000E+03 0.  1.
         -6    1    1    2    0  503  0.70809938089E+02  0.10941421527E+03 -0.32438922851E+03  0.39005498255E+03  0.17300000000E+03 0.  1.
<mgrwt>
<rscale>  2 0.21659759E+03</rscale>
<asrwt>0</asrwt>
<pdfrwt beam="1">  1       21 0.38097848E-01 0.21659759E+03</pdfrwt>
<pdfrwt beam="2">  1       21 0.63357518E-01 0.21659759E+03</pdfrwt>
<totfact> 0.15082330E+04</totfact>
</mgrwt>
</event>
<event>
 4    1  0.4173994E+000  0.1951394E+03  0.7546771E-02  0.1153906E+00
         21   -1    0    0  501  502  0.00000000000E+00  0.00000000000E+00  0.10301826597E+03  0.10301826597E+03  0.00000000000E+00 0. -1.
         21   -1    0    0  502  503 -0.00000000000E+00 -0.00000000000E+00 -0.65017156064E+03  0.65017156064E+03  0.00000000000E+00 0.  1.
          6    1    1    2  501    0  0.16813045378E+02  0.88700105375E+02 -0.26202979842E+02  0.19689079039E+03  0.17300000000E+03 0. -1.
         -6    1    1    2    0  503 -0.16813045378E+02 -0.88700105375E+02 -0.52095031482E+03  0.55629903622E+03  0.17300000000E+03 0.  1.
<mgrwt>
<rscale>  2 0.19513940E+03</rscale>
<asrwt>0</asrwt>
<pdfrwt beam="1">  1       21 0.15848964E-01 0.19513940E+03</pdfrwt>
<pdfrwt beam="2">  1       21 0.10002639E+00 0.19513940E+03</pdfrwt>
<totfact> 0.29067853E+04</totfact>
</mgrwt>
</event>
<event>
 4    1  0.4173994E+000  0.2023248E+03  0.7546771E-02  0.1147792E+00
         21   -1    0    0  503  502  0.00000000000E+00  0.00000000000E+00  0.28845141756E+03  0.28845141756E+03  0.00000000000E+00 0.  1.
         21   -1    0    0  501  503 -0.00000000000E+00 -0.00000000000E+00 -0.20472251980E+03  0.20472251980E+03  0.00000000000E+00 0.  1.
          6    1    1    2  501    0  0.10365829768E+03 -0.16163884308E+02 -0.94718460622E+02  0.22339852420E+03  0.17300000000E+03 0.  1.
         -6    1    1    2    0  502 -0.10365829768E+03  0.16163884308E+02  0.17844735838E+03  0.26977541316E+03  0.17300000000E+03 0.  1.
<mgrwt>
<rscale>  2 0.20232477E+03</rscale>
<asrwt>0</asrwt>
<pdfrwt beam="1">  1       21 0.44377141E-01 0.20232477E+03</pdfrwt>
<pdfrwt beam="2">  1       21 0.31495772E-01 0.20232477E+03</pdfrwt>
<totfact> 0.47021279E+04</totfact>
</mgrwt>
</event>
<event>
 4    1  0.4173994E+000  0.2392697E+03  0.7546771E-02  0.1120280E+00
         21   -1    0    0  503  502  0.00000000000E+00  0.00000000000E+00  0.46136501212E+02  0.46136501212E+02  0.00000000000E+00 0.  1.
         21   -1    0    0  501  503 -0.00000000000E+00 -0.00000000000E+00 -0.13657096444E+04  0.13657096444E+04  0.00000000000E+00 0. -1.
          6    1    1    2  501    0 -0.64377886625E+02 -0.15223815869E+03 -0.87320553068E+03  0.90539376410E+03  0.17300000000E+03 0.  1.
         -6    1    1    2    0  502  0.64377886625E+02  0.15223815869E+03 -0.44636761250E+03  0.50645238151E+03  0.17300000000E+03 0.  1.
<mgrwt>
<rscale>  2 0.23926966E+03</rscale>
<asrwt>0</asrwt>
<pdfrwt beam="1">  1       21 0.70979225E-02 0.23926966E+03</pdfrwt>
<pdfrwt beam="2">  1       21 0.21010920E+00 0.23926966E+03</pdfrwt>
<totfact> 0.16528111E+04</totfact>
</mgrwt>
</event>
<event>
 4    1  0.4173994E+000  0.2074966E+03  0.7546771E-02  0.1143564E+00
         21   -1    0    0  503  502  0.00000000000E+00  0.00000000000E+00  0.82553424599E+02  0.82553424599E+02  0.00000000000E+00 0. -1.
         21   -1    0    0  501  503 -0.00000000000E+00 -0.00000000000E+00 -0.61079371454E+03  0.61079371454E+03  0.00000000000E+00 0.  1.
          6    1    1    2  501    0 -0.86947908597E+02 -0.74604978052E+02 -0.39664236717E+03  0.44763825685E+03  0.17300000000E+03 0.  1.
         -6    1    1    2    0  502  0.86947908597E+02  0.74604978052E+02 -0.13159792277E+03  0.24570888229E+03  0.17300000000E+03 0. -1.
<mgrwt>
<rscale>  2 0.20749661E+03</rscale>
<asrwt>0</asrwt>
<pdfrwt beam="1">  1       21 0.12700526E-01 0.20749661E+03</pdfrwt>
<pdfrwt beam="2">  1       21 0.93968267E-01 0.20749661E+03</pdfrwt>
<totfact> 0.49995776E+04</totfact>
</mgrwt>
</event>
<event>
 4    1  0.4173994E+000  0.2057692E+03  0.7546771E-02  0.1144961E+00
         21   -1    0    0  503  502  0.00000000000E+00  0.00000000000E+00  0.94792780388E+02  0.94792780388E+02  0.00000000000E+00 0.  1.
         21   -1    0    0  501  503 -0.00000000000E+00 -0.00000000000E+00 -0.64735440651E+03  0.64735440651E+03  0.00000000000E+00 0.  1.
          6    1    1    2  501    0  0.46474220379E+02  0.10125264848E+03 -0.48288893935E+03  0.52490254308E+03  0.17300000000E+03 0.  1.
         -6    1    1    2    0  502 -0.46474220379E+02 -0.10125264848E+03 -0.69672686767E+02  0.21724464381E+03  0.17300000000E+03 0.  1.
<mgrwt>
<rscale>  2 0.20576917E+03</rscale>
<asrwt>0</asrwt>
<pdfrwt beam="1">  1       21 0.14583504E-01 0.20576917E+03</pdfrwt>
<pdfrwt beam="2">  1       21 0.99592989E-01 0.20576917E+03</pdfrwt>
<totfact> 0.33977686E+04</totfact>
</mgrwt>
</event>
<event>
 4    1  0.4173994E+000  0.2581896E+03  0.7546771E-02  0.1108236E+00
         21   -1    0    0  503  502  0.00000000000E+00  0.00000000000E+00  0.90611072184E+02  0.90611072184E+02  0.00000000000E+00 0. -1.
         21   -1    0    0  501  503 -0.00000000000E+00 -0.00000000000E+00 -0.74091629381E+03  0.74091629381E+03  0.00000000000E+00 0. -1.
          6    1    1    2  501    0  0.18770967236E+03  0.38703041173E+02 -0.36006448933E+03  0.44306690575E+03  0.17300000000E+03 0. -1.
         -6    1    1    2    0  502 -0.18770967236E+03 -0.38703041173E+02 -0.29024073230E+03  0.38846046025E+03  0.17300000000E+03 0. -1.
<mgrwt>
<rscale>  2 0.25818956E+03</rscale>
<asrwt>0</asrwt>
<pdfrwt beam="1">  1       21 0.13940165E-01 0.25818956E+03</pdfrwt>
<pdfrwt beam="2">  1       21 0.11398713E+00 0.25818956E+03</pdfrwt>
<totfact> 0.25913557E+04</totfact>
</mgrwt>
</event>
<event>
 4    1  0.4173994E+000  0.3060969E+03  0.7546771E-02  0.1082232E+00
         21   -1    0    0  501  502  0.00000000000E+00  0.00000000000E+00  0.10961490073E+04  0.10961490073E+04  0.00000000000E+00 0.  1.
         21   -1    0    0  502  503 -0.00000000000E+00 -0.00000000000E+00 -0.86361533444E+02  0.86361533444E+02  0.00000000000E+00 0.  1.
          6    1    1    2  501    0 -0.16732427062E+03 -0.18912670373E+03  0.56473742599E+03  0.64235790796E+03  0.17300000000E+03 0.  1.
         -6    1    1    2    0  503  0.16732427062E+03  0.18912670373E+03  0.44505004785E+03  0.54015263278E+03  0.17300000000E+03 0.  1.
<mgrwt>
<rscale>  2 0.30609692E+03</rscale>
<asrwt>0</asrwt>
<pdfrwt beam="1">  1       21 0.16863830E+00 0.30609692E+03</pdfrwt>
<pdfrwt beam="2">  1       21 0.13286391E-01 0.30609692E+03</pdfrwt>
<totfact> 0.99235296E+03</totfact>
</mgrwt>
</event>
<event>
 4    1  0.4173994E+000  0.1912236E+03  0.7546771E-02  0.1157362E+00
         21   -1    0    0  503  502  0.00000000000E+00  0.00000000000E+00  0.59605463669E+03  0.59605463669E+03  0.00000000000E+00 0. -1.
         21   -1    0    0  501  503 -0.00000000000E+00 -0.00000000000E+00 -0.61414793634E+02  0.61414793634E+02  0.00000000000E+00 0. -1.
          6    1    1    2  501    0  0.67124191931E+02  0.46171649999E+02  0.25644048824E+03  0.31988779660E+03  0.17300000000E+03 0.  1.
         -6    1    1    2    0  502 -0.67124191931E+02 -0.46171649999E+02  0.27819935482E+03  0.33758163372E+03  0.17300000000E+03 0.  1.
<mgrwt>
<rscale>  2 0.19122363E+03</rscale>
<asrwt>0</asrwt>
<pdfrwt beam="1">  1       21 0.91700709E-01 0.19122363E+03</pdfrwt>
<pdfrwt beam="2">  1       21 0.94484302E-02 0.19122363E+03</pdfrwt>
<totfact> 0.90273398E+04</totfact>
</mgrwt>
</event>
<event>
 4    1  0.4173994E+000  0.1754734E+03  0.7546771E-02  0.1172257E+00
         21   -1    0    0  501  502  0.00000000000E+00  0.00000000000E+00  0.18665593556E+04  0.18665593556E+04  0.00000000000E+00 0.  1.
         21   -1    0    0  502  503 -0.00000000000E+00 -0.00000000000E+00 -0.80684322210E+02  0.80684322210E+02  0.00000000000E+00 0.  1.
          6    1    1    2  501    0 -0.21830841281E+02 -0.19630087448E+02  0.17613447779E+04  0.17700639402E+04  0.17300000000E+03 0.  1.
         -6    1    1    2    0  503  0.21830841281E+02  0.19630087448E+02  0.24530255487E+02  0.17717973755E+03  0.17300000000E+03 0.  1.
<mgrwt>
<rscale>  2 0.17547343E+03</rscale>
<asrwt>0</asrwt>
<pdfrwt beam="1">  1       21 0.28716295E+00 0.17547343E+03</pdfrwt>
<pdfrwt beam="2">  1       21 0.12412974E-01 0.17547343E+03</pdfrwt>
<totfact> 0.22846273E+03</totfact>
</mgrwt>
</event>
<event>
 4    1  0.4173994E+000  0.2243865E+03  0.7546771E-02  0.1130654E+00
         21   -1    0    0  503  502  0.00000000000E+00  0.00000000000E+00  0.49906886357E+03  0.49906886357E+03  0.00000000000E+00 0. -1.
         21   -1    0    0  501  503 -0.00000000000E+00 -0.00000000000E+00 -0.10161892594E+03  0.10161892594E+03  0.00000000000E+00 0. -1.
          6    1    1    2  501    0 -0.11672738092E+03 -0.82431800423E+02  0.22422436151E+03  0.31721577431E+03  0.17300000000E+03 0. -1.
         -6    1    1    2    0  502  0.11672738092E+03  0.82431800423E+02  0.17322557612E+03  0.28347201520E+03  0.17300000000E+03 0. -1.
<mgrwt>
<rscale>  2 0.22438646E+03</rscale>
<asrwt>0</asrwt>
<pdfrwt beam="1">  1       21 0.76779824E-01 0.22438646E+03</pdfrwt>
<pdfrwt beam="2">  1       21 0.15633681E-01 0.22438646E+03</pdfrwt>
<totfact> 0.54065736E+04</totfact>
</mgrwt>
</event>
<event>
 4    1  0.4173994E+000  0.1930355E+03  0.7546771E-02  0.1155752E+00
         21   -1    0    0  503  502  0.00000000000E+00  0.00000000000E+00  0.26575914963E+04  0.26575914963E+04  0.00000000000E+00 0. -1.
         21   -1    0    0  501  503 -0.00000000000E+00 -0.00000000000E+00 -0.14192711757E+02  0.14192711757E+02  0.00000000000E+00 0.  1.
          6    1    1    2  501    0 -0.85553806445E+02 -0.37733918127E+01  0.11748567803E+04  0.11906095693E+04  0.17300000000E+03 0. -1.
         -6    1    1    2    0  502  0.85553806445E+02  0.37733918127E+01  0.14685420042E+04  0.14811746388E+04  0.17300000000E+03 0.  1.
<mgrwt>
<rscale>  2 0.19303547E+03</rscale>
<asrwt>0</asrwt>
<pdfrwt beam="1">  1       21 0.40885984E+00 0.19303547E+03</pdfrwt>
<pdfrwt beam="2">  1       21 0.21834962E-02 0.19303547E+03</pdfrwt>
<totfact> 0.81750237E+03</totfact>
</mgrwt>
</event>
<event>
 4    1  0.4173994E+000  0.1788397E+03  0.7546771E-02  0.1168931E+00
         21   -1    0    0  501  502  0.00000000000E+00  0.00000000000E+00  0.67871260150E+02  0.67871260150E+02  0.00000000000E+00 0. -1.
         21   -1    0    0  502  503 -0.00000000000E+00 -0.00000000000E+00 -0.90095392164E+03  0.90095392164E+03  0.00000000000E+00 0. -1.
          6    1    1    2  501    0 -0.26151110177E+02 -0.37023550554E+02 -0.81996703883E+02  0.19674115814E+03  0.17300000000E+03 0. -1.
         -6    1    1    2    0  503  0.26151110177E+02  0.37023550554E+02 -0.75108595761E+03  0.77208402365E+03  0.17300000000E+03 0. -1.
<mgrwt>
<rscale>  2 0.17883966E+03</rscale>
<asrwt>0</asrwt>
<pdfrwt beam="1">  1       21 0.10441732E-01 0.17883966E+03</pdfrwt>
<pdfrwt beam="2">  1       21 0.13860829E+00 0.17883966E+03</pdfrwt>
<totfact> 0.27838435E+04</totfact>
</mgrwt>
</event>
<event>
 4    1  0.4173994E+000  0.2188993E+03  0.7546771E-02  0.1134706E+00
         21   -1    0    0  503  502  0.00000000000E+00  0.00000000000E+00  0.20390109690E+03  0.20390109690E+03  0.00000000000E+00 0.  1.
         21   -1    0    0  501  503 -0.00000000000E+00 -0.00000000000E+00 -0.24555848526E+03  0.24555848526E+03  0.00000000000E+00 0.  1.
          6    1    1    2  501    0 -0.90400410669E+02 -0.99074111842E+02 -0.67426797198E+02  0.22904865611E+03  0.17300000000E+03 0.  1.
         -6    1    1    2    0  502  0.90400410669E+02  0.99074111842E+02  0.25769408836E+02  0.22041092604E+03  0.17300000000E+03 0.  1.
<mgrwt>
<rscale>  2 0.21889932E+03</rscale>
<asrwt>0</asrwt>
<pdfrwt beam="1">  1       21 0.31369400E-01 0.21889932E+03</pdfrwt>
<pdfrwt beam="2">  1       21 0.37778228E-01 0.21889932E+03</pdfrwt>
<totfact> 0.65231812E+04</totfact>
</mgrwt>
</event>
<event>
 4    1  0.4173994E+000  0.1824218E+03  0.7546771E-02  0.1165480E+00
         21   -1    0    0  501  502  0.00000000000E+00  0.00000000000E+00  0.20593934868E+02  0.20593934868E+02  0.00000000000E+00 0. -1.
         21   -1    0    0  502  503 -0.00000000000E+00 -0.00000000000E+00 -0.21498477072E+04  0.21498477072E+04  0.00000000000E+00 0. -1.
          6    1    1    2  501    0 -0.44562839766E+02  0.36917112596E+02 -0.52379284787E+03  0.55465004045E+03  0.17300000000E+03 0. -1.
         -6    1    1    2    0  503  0.44562839766E+02 -0.36917112596E+02 -0.16054609245E+04  0.16157916016E+04  0.17300000000E+03 0. -1.
<mgrwt>
<rscale>  2 0.18242182E+03</rscale>
<asrwt>0</asrwt>
<pdfrwt beam="1">  1       21 0.31682991E-02 0.18242182E+03</pdfrwt>
<pdfrwt beam="2">  1       21 0.33074565E+00 0.18242182E+03</pdfrwt>
<totfact> 0.13260741E+04</totfact>
</mgrwt>
</event>
<event>
 4    1  0.4173994E+000  0.2987663E+03  0.7546771E-02  0.1085859E+00
         21   -1    0    0  503  502  0.00000000000E+00  0.00000000000E+00  0.24312839016E+03  0.24312839016E+03  0.00000000000E+00 0.  1.
         21   -1    0    0  501  503 -0.00000000000E+00 -0.00000000000E+00 -0.89163779354E+03  0.89163779354E+03  0.00000000000E+00 0. -1.
          6    1    1    2  501    0 -0.66493660269E+02  0.23433068667E+03 -0.75942123255E+03  0.81607713240E+03  0.17300000000E+03 0. -1.
         -6    1    1    2    0  502  0.66493660269E+02 -0.23433068667E+03  0.11091182917E+03  0.31868905131E+03  0.17300000000E+03 0.  1.
<mgrwt>
<rscale>  2 0.29876626E+03</rscale>
<asrwt>0</asrwt>
<pdfrwt beam="1">  1       21 0.37404369E-01 0.29876626E+03</pdfrwt>
<pdfrwt beam="2">  1       21 0.13717504E+00 0.29876626E+03</pdfrwt>
<totfact> 0.24027304E+03</totfact>
</mgrwt>
</event>
<event>
 4    1  0.4173994E+000  0.1749095E+03  0.7546771E-02  0.1172823E+00
         21   -1    0    0  501  502  0.00000000000E+00  0.00000000000E+00  0.38126559826E+03  0.38126559826E+03  0.00000000000E+00 0.  1.
         21   -1    0    0  502  503 -0.00000000000E+00 -0.00000000000E+00 -0.13609580242E+03  0.13609580242E+03  0.00000000000E+00 0.  1.
          6    1    1    2  501    0 -0.24042476573E+02 -0.92887966551E+01  0.28830301491E+03  0.33721202652E+03  0.17300000000E+03 0.  1.
         -6    1    1    2    0  503  0.24042476573E+02  0.92887966551E+01 -0.43133219068E+02  0.18014937416E+03  0.17300000000E+03 0.  1.
<mgrwt>
<rscale>  2 0.17490947E+03</rscale>
<asrwt>0</asrwt>
<pdfrwt beam="1">  1       21 0.58656246E-01 0.17490947E+03</pdfrwt>
<pdfrwt beam="2">  1       21 0.20937816E-01 0.17490947E+03</pdfrwt>
<totfact> 0.58097682E+04</totfact>
</mgrwt>
</event>
<event>
 4    1  0.4173994E+000  0.1741279E+03  0.7546771E-02  0.1173610E+00
         21   -1    0    0  503  502  0.00000000000E+00  0.00000000000E+00  0.12412131381E+04  0.12412131381E+04  0.00000000000E+00 0. -1.
         21   -1    0    0  501  503 -0.00000000000E+00 -0.00000000000E+00 -0.59066099713E+02  0.59066099713E+02  0.00000000000E+00 0. -1.
          6    1    1    2  501    0 -0.11810232043E+02 -0.15875835578E+02  0.93206153823E+02  0.19750420463E+03  0.17300000000E+03 0. -1.
         -6    1    1    2    0  502  0.11810232043E+02  0.15875835578E+02  0.10889408845E+04  0.11027750331E+04  0.17300000000E+03 0. -1.
<mgrwt>
<rscale>  2 0.17412789E+03</rscale>
<asrwt>0</asrwt>
<pdfrwt beam="1">  1       21 0.19095585E+00 0.17412789E+03</pdfrwt>
<pdfrwt beam="2">  1       21 0.90870932E-02 0.17412789E+03</pdfrwt>
<totfact> 0.14985210E+04</totfact>
</mgrwt>
</event>
<event>
 4    1  0.4173994E+000  0.2046366E+03  0.7546771E-02  0.1145885E+00
         21   -1    0    0  503  502  0.00000000000E+00  0.00000000000E+00  0.32712752524E+02  0.32712752524E+02  0.00000000000E+00 0.  1.
         21   -1    0    0  501  503 -0.00000000000E+00 -0.00000000000E+00 -0.12966615853E+04  0.12966615853E+04  0.00000000000E+00 0.  1.
          6    1    1    2  501    0 -0.34027169454E+01 -0.10924996904E+03 -0.70705687714E+03  0.73607442676E+03  0.17300000000E+03 0.  1.
         -6    1    1    2    0  502  0.34027169454E+01  0.10924996904E+03 -0.55689195564E+03  0.59329991107E+03  0.17300000000E+03 0.  1.
<mgrwt>
<rscale>  2 0.20463659E+03</rscale>
<asrwt>0</asrwt>
<pdfrwt beam="1">  1       21 0.50327312E-02 0.20463659E+03</pdfrwt>
<pdfrwt beam="2">  1       21 0.19948640E+00 0.20463659E+03</pdfrwt>
<totfact> 0.35696169E+04</totfact>
</mgrwt>
</event>
<event>
 4    1  0.4173994E+000  0.1974954E+03  0.7546771E-02  0.1151869E+00
         21   -1    0    0  501  502  0.00000000000E+00  0.00000000000E+00  0.99837768711E+02  0.99837768711E+02  0.00000000000E+00 0. -1.
         21   -1    0    0  502  503 -0.00000000000E+00 -0.00000000000E+00 -0.54832942141E+03  0.54832942141E+03  0.00000000000E+00 0. -1.
          6    1    1    2  501    0  0.25470507372E+02  0.91797075990E+02 -0.50471824219E+02  0.20384272110E+03  0.17300000000E+03 0. -1.
         -6    1    1    2    0  503 -0.25470507372E+02 -0.91797075990E+02 -0.39801982848E+03  0.44432446902E+03  0.17300000000E+03 0. -1.
<mgrwt>
<rscale>  2 0.19749544E+03</rscale>
<asrwt>0</asrwt>
<pdfrwt beam="1">  1       21 0.15359657E-01 0.19749544E+03</pdfrwt>
<pdfrwt beam="2">  1       21 0.84358373E-01 0.19749544E+03</pdfrwt>
<totfact> 0.45692140E+04</totfact>
</mgrwt>
</event>
<event>
 4    1  0.4173994E+000  0.1857010E+03  0.7546771E-02  0.1162397E+00
         21   -1    0    0  501  502  0.00000000000E+00  0.00000000000E+00  0.58347014537E+03  0.58347014537E+03  0.00000000000E+00 0.  1.
         21   -1    0    0  502  503 -0.00000000000E+00 -0.00000000000E+00 -0.60704994851E+02  0.60704994851E+02  0.00000000000E+00 0.  1.
          6    1    1    2  501    0  0.66438512808E+02 -0.11906846954E+02  0.31370517235E+03  0.36454874043E+03  0.17300000000E+03 0. -1.
         -6    1    1    2    0  503 -0.66438512808E+02  0.11906846954E+02  0.20905997817E+03  0.27962639979E+03  0.17300000000E+03 0. -1.
<mgrwt>
<rscale>  2 0.18570097E+03</rscale>
<asrwt>0</asrwt>
<pdfrwt beam="1">  1       21 0.89764634E-01 0.18570097E+03</pdfrwt>
<pdfrwt beam="2">  1       21 0.93392304E-02 0.18570097E+03</pdfrwt>
<totfact> 0.97022579E+04</totfact>
</mgrwt>
</event>
<event>
 4    1  0.4173994E+000  0.2053733E+03  0.7546771E-02  0.1145283E+00
         21   -1    0    0  503  502  0.00000000000E+00  0.00000000000E+00  0.62202904229E+02  0.62202904229E+02  0.00000000000E+00 0. -1.
         21   -1    0    0  501  503 -0.00000000000E+00 -0.00000000000E+00 -0.74349988809E+03  0.74349988809E+03  0.00000000000E+00 0.  1.
          6    1    1    2  501    0 -0.71390302443E+02  0.84573226057E+02 -0.22114587084E+03  0.30180076547E+03  0.17300000000E+03 0. -1.
         -6    1    1    2    0  502  0.71390302443E+02 -0.84573226057E+02 -0.46015111302E+03  0.50390202684E+03  0.17300000000E+03 0.  1.
<mgrwt>
<rscale>  2 0.20537333E+03</rscale>
<asrwt>0</asrwt>
<pdfrwt beam="1">  1       21 0.95696778E-02 0.20537333E+03</pdfrwt>
<pdfrwt beam="2">  1       21 0.11438460E+00 0.20537333E+03</pdfrwt>
<totfact> 0.51743178E+04</totfact>
</mgrwt>
</event>
<event>
 4    1  0.4173994E+000  0.2234404E+03  0.7546771E-02  0.1131344E+00
         21   -1    0    0  501  502  0.00000000000E+00  0.00000000000E+00  0.41610568334E+03  0.41610568334E+03  0.00000000000E+00 0. -1.
         21   -1    0    0  502  503 -0.00000000000E+00 -0.00000000000E+00 -0.12019659802E+03  0.12019659802E+03  0.00000000000E+00 0.  1.
          6    1    1    2  501    0  0.12289460240E+03  0.69953893878E+02  0.15925712122E+03  0.27438742906E+03  0.17300000000E+03 0.  1.
         -6    1    1    2    0  503 -0.12289460240E+03 -0.69953893878E+02  0.13665196410E+03  0.26191485231E+03  0.17300000000E+03 0. -1.
<mgrwt>
<rscale>  2 0.22344044E+03</rscale>
<asrwt>0</asrwt>
<pdfrwt beam="1">  1       21 0.64016258E-01 0.22344044E+03</pdfrwt>
<pdfrwt beam="2">  1       21 0.18491784E-01 0.22344044E+03</pdfrwt>
<totfact> 0.59336620E+04</totfact>
</mgrwt>
</event>
<event>
 4    1  0.4173994E+000  0.1992566E+03  0.7546771E-02  0.1150368E+00
         21   -1    0    0  503  502  0.00000000000E+00  0.00000000000E+00  0.12881234946E+03  0.12881234946E+03  0.00000000000E+00 0.  1.
         21   -1    0    0  501  503 -0.00000000000E+00 -0.00000000000E+00 -0.37319989116E+03  0.37319989116E+03  0.00000000000E+00 0.  1.
          6    1    1    2  501    0 -0.45813414272E+02  0.87608883523E+02 -0.22692745084E+03  0.30199214119E+03  0.17300000000E+03 0.  1.
         -6    1    1    2    0  502  0.45813414272E+02 -0.87608883523E+02 -0.17460090865E+02  0.20002009942E+03  0.17300000000E+03 0.  1.
<mgrwt>
<rscale>  2 0.19925658E+03</rscale>
<asrwt>0</asrwt>
<pdfrwt beam="1">  1       21 0.19817285E-01 0.19925658E+03</pdfrwt>
<pdfrwt beam="2">  1       21 0.57415367E-01 0.19925658E+03</pdfrwt>
<totfact> 0.66656743E+04</totfact>
</mgrwt>
</event>
<event>
 4    1  0.4173994E+000  0.1798438E+03  0.7546771E-02  0.1167954E+00
         21   -1    0    0  503  502  0.00000000000E+00  0.00000000000E+00  0.29047307602E+03  0.29047307602E+03  0.00000000000E+00 0. -1.
         21   -1    0    0  501  503 -0.00000000000E+00 -0.00000000000E+00 -0.15043662403E+03  0.15043662403E+03  0.00000000000E+00 0.  1.
          6    1    1    2  501    0 -0.30817028945E+01 -0.49043725611E+02 -0.42355418813E+02  0.18476408043E+03  0.17300000000E+03 0.  1.
         -6    1    1    2    0  502  0.30817028945E+01  0.49043725611E+02  0.18239187081E+03  0.25614561962E+03  0.17300000000E+03 0. -1.
<mgrwt>
<rscale>  2 0.17984378E+03</rscale>
<asrwt>0</asrwt>
<pdfrwt beam="1">  1       21 0.44688165E-01 0.17984378E+03</pdfrwt>
<pdfrwt beam="2">  1       21 0.23144096E-01 0.17984378E+03</pdfrwt>
<totfact> 0.84742268E+04</totfact>
</mgrwt>
</event>
<event>
 4    1  0.4173994E+000  0.1858657E+03  0.7546771E-02  0.1162244E+00
         21   -1    0    0  503  502  0.00000000000E+00  0.00000000000E+00  0.18587276278E+04  0.18587276278E+04  0.00000000000E+00 0.  1.
         21   -1    0    0  501  503 -0.00000000000E+00 -0.00000000000E+00 -0.19660852721E+02  0.19660852721E+02  0.00000000000E+00 0.  1.
          6    1    1    2  501    0 -0.26680800167E+02 -0.62491536247E+02  0.69992122699E+03  0.72417938468E+03  0.17300000000E+03 0.  1.
         -6    1    1    2    0  502  0.26680800167E+02  0.62491536247E+02  0.11391455481E+04  0.11542090959E+04  0.17300000000E+03 0.  1.
<mgrwt>
<rscale>  2 0.18586570E+03</rscale>
<asrwt>0</asrwt>
<pdfrwt beam="1">  1       21 0.28595796E+00 0.18586570E+03</pdfrwt>
<pdfrwt beam="2">  1       21 0.30247480E-02 0.18586570E+03</pdfrwt>
<totfact> 0.25832114E+04</totfact>
</mgrwt>
</event>
<event>
 4    1  0.4173994E+000  0.2253785E+03  0.7546771E-02  0.1129936E+00
         21   -1    0    0  501  502  0.00000000000E+00  0.00000000000E+00  0.33242858830E+03  0.33242858830E+03  0.00000000000E+00 0.  1.
         21   -1    0    0  502  503 -0.00000000000E+00 -0.00000000000E+00 -0.15281529072E+03  0.15281529072E+03  0.00000000000E+00 0.  1.
          6    1    1    2  501    0  0.55334727540E+02  0.13343363962E+03  0.87472169402E+02  0.24175783063E+03  0.17300000000E+03 0.  1.
         -6    1    1    2    0  503 -0.55334727540E+02 -0.13343363962E+03  0.92141128178E+02  0.24348604838E+03  0.17300000000E+03 0.  1.
<mgrwt>
<rscale>  2 0.22537850E+03</rscale>
<asrwt>0</asrwt>
<pdfrwt beam="1">  1       21 0.51142859E-01 0.22537850E+03</pdfrwt>
<pdfrwt beam="2">  1       21 0.23510045E-01 0.22537850E+03</pdfrwt>
<totfact> 0.60986325E+04</totfact>
</mgrwt>
</event>
<event>
 4    1  0.4173994E+000  0.1814024E+03  0.7546771E-02  0.1166453E+00
         21   -1    0    0  503  502  0.00000000000E+00  0.00000000000E+00  0.86002582542E+03  0.86002582542E+03  0.00000000000E+00 0.  1.
         21   -1    0    0  501  503 -0.00000000000E+00 -0.00000000000E+00 -0.12354987123E+03  0.12354987123E+03  0.00000000000E+00 0.  1.
          6    1    1    2  501    0 -0.37913282796E+02  0.39248051449E+02 -0.40362385302E+02  0.18583850167E+03  0.17300000000E+03 0.  1.
         -6    1    1    2    0  502  0.37913282796E+02 -0.39248051449E+02  0.77683833950E+03  0.79773719499E+03  0.17300000000E+03 0.  1.
<mgrwt>
<rscale>  2 0.18140239E+03</rscale>
<asrwt>0</asrwt>
<pdfrwt beam="1">  1       21 0.13231166E+00 0.18140239E+03</pdfrwt>
<pdfrwt beam="2">  1       21 0.19007673E-01 0.18140239E+03</pdfrwt>
<totfact> 0.10579197E+04</totfact>
</mgrwt>
</event>
<event>
 4    1  0.4173994E+000  0.2008860E+03  0.7546771E-02  0.1148994E+00
         21   -1    0    0  503  502  0.00000000000E+00  0.00000000000E+00  0.69847512400E+03  0.69847512400E+03  0.00000000000E+00 0.  1.
         21   -1    0    0  501  503 -0.00000000000E+00 -0.00000000000E+00 -0.61223099486E+02  0.61223099486E+02  0.00000000000E+00 0. -1.
          6    1    1    2  501    0 -0.98230079843E+02  0.27875372203E+02  0.40875668106E+03  0.45545275196E+03  0.17300000000E+03 0.  1.
         -6    1    1    2    0  502  0.98230079843E+02 -0.27875372203E+02  0.22849534346E+03  0.30424547152E+03  0.17300000000E+03 0. -1.
<mgrwt>
<rscale>  2 0.20088600E+03</rscale>
<asrwt>0</asrwt>
<pdfrwt beam="1">  1       21 0.10745771E+00 0.20088600E+03</pdfrwt>
<pdfrwt beam="2">  1       21 0.94189388E-02 0.20088600E+03</pdfrwt>
<totfact> 0.62063976E+04</totfact>
</mgrwt>
</event>
<event>
 4    1  0.4173994E+000  0.1902961E+03  0.7546771E-02  0.1158195E+00
         21   -1    0    0  503  502  0.00000000000E+00  0.00000000000E+00  0.26904265605E+03  0.26904265605E+03  0.00000000000E+00 0.  1.
         21   -1    0    0  501  503 -0.00000000000E+00 -0.00000000000E+00 -0.44008517631E+03  0.44008517631E+03  0.00000000000E+00 0.  1.
          6    1    1    2  501    0  0.72595986144E+00 -0.79265875753E+02 -0.38092953099E+03  0.42581676066E+03  0.17300000000E+03 0.  1.
         -6    1    1    2    0  502 -0.72595986144E+00  0.79265875753E+02  0.20988701074E+03  0.28331107171E+03  0.17300000000E+03 0.  1.
<mgrwt>
<rscale>  2 0.19029610E+03</rscale>
<asrwt>0</asrwt>
<pdfrwt beam="1">  1       21 0.41391178E-01 0.19029610E+03</pdfrwt>
<pdfrwt beam="2">  1       21 0.67705412E-01 0.19029610E+03</pdfrwt>
<totfact> 0.11224141E+04</totfact>
</mgrwt>
</event>
<event>
 4    1  0.4173994E+000  0.2126198E+03  0.7546771E-02  0.1139508E+00
         21   -1    0    0  503  502  0.00000000000E+00  0.00000000000E+00  0.15266002750E+03  0.15266002750E+03  0.00000000000E+00 0.  1.
         21   -1    0    0  501  503 -0.00000000000E+00 -0.00000000000E+00 -0.30181104601E+03  0.30181104601E+03  0.00000000000E+00 0.  1.
          6    1    1    2  501    0 -0.11986439162E+03  0.30177963908E+02 -0.43398757463E+02  0.21700376502E+03  0.17300000000E+03 0.  1.
         -6    1    1    2    0  502  0.11986439162E+03 -0.30177963908E+02 -0.10575226105E+03  0.23746730849E+03  0.17300000000E+03 0.  1.
<mgrwt>
<rscale>  2 0.21261981E+03</rscale>
<asrwt>0</asrwt>
<pdfrwt beam="1">  1       21 0.23486158E-01 0.21261981E+03</pdfrwt>
<pdfrwt beam="2">  1       21 0.46432469E-01 0.21261981E+03</pdfrwt>
<totfact> 0.75133982E+04</totfact>
</mgrwt>
</event>
<event>
 4    1  0.4173994E+000  0.1743301E+03  0.7546771E-02  0.1173406E+00
         21   -1    0    0  503  502  0.00000000000E+00  0.00000000000E+00  0.24385814302E+03  0.24385814302E+03  0.00000000000E+00 0.  1.
         21   -1    0    0  501  503 -0.00000000000E+00 -0.00000000000E+00 -0.14603713363E+03  0.14603713363E+03  0.00000000000E+00 0.  1.
          6    1    1    2  501    0 -0.21444903369E+02 -0.14520180638E+01 -0.25735949419E+02  0.17621955433E+03  0.17300000000E+03 0.  1.
         -6    1    1    2    0  502  0.21444903369E+02  0.14520180638E+01  0.12355695881E+03  0.21367572232E+03  0.17300000000E+03 0.  1.
<mgrwt>
<rscale>  2 0.17433012E+03</rscale>
<asrwt>0</asrwt>
<pdfrwt beam="1">  1       21 0.37516637E-01 0.17433012E+03</pdfrwt>
<pdfrwt beam="2">  1       21 0.22467251E-01 0.17433012E+03</pdfrwt>
<totfact> 0.12793546E+05</totfact>
</mgrwt>
</event>
<event>
 4    1  0.4173994E+000  0.1853581E+03  0.7546771E-02  0.1162716E+00
         21   -1    0    0  501  502  0.00000000000E+00  0.00000000000E+00  0.90789897653E+02  0.90789897653E+02  0.00000000000E+00 0. -1.
         21   -1    0    0  502  503 -0.00000000000E+00 -0.00000000000E+00 -0.42065955132E+03  0.42065955132E+03  0.00000000000E+00 0. -1.
          6    1    1    2  501    0 -0.63292263756E+02  0.20560247336E+02 -0.83910615231E+02  0.20346652248E+03  0.17300000000E+03 0. -1.
         -6    1    1    2    0  503  0.63292263756E+02 -0.20560247336E+02 -0.24595903843E+03  0.30798292649E+03  0.17300000000E+03 0. -1.
<mgrwt>
<rscale>  2 0.18535812E+03</rscale>
<asrwt>0</asrwt>
<pdfrwt beam="1">  1       21 0.13967677E-01 0.18535812E+03</pdfrwt>
<pdfrwt beam="2">  1       21 0.64716854E-01 0.18535812E+03</pdfrwt>
<totfact> 0.98520883E+04</totfact>
</mgrwt>
</event>
<event>
 4    1  0.4173994E+000  0.1986966E+03  0.7546771E-02  0.1150843E+00
         21   -1    0    0  501  502  0.00000000000E+00  0.00000000000E+00  0.19991656601E+03  0.19991656601E+03  0.00000000000E+00 0. -1.
         21   -1    0    0  502  503 -0.00000000000E+00 -0.00000000000E+00 -0.21678419959E+03  0.21678419959E+03  0.00000000000E+00 0. -1.
          6    1    1    2  501    0  0.97247116541E+02 -0.97130613755E+01  0.53733216934E+02  0.20583392295E+03  0.17300000000E+03 0. -1.
         -6    1    1    2    0  503 -0.97247116541E+02  0.97130613755E+01 -0.70600850513E+02  0.21086684265E+03  0.17300000000E+03 0. -1.
<mgrwt>
<rscale>  2 0.19869662E+03</rscale>
<asrwt>0</asrwt>
<pdfrwt beam="1">  1       21 0.30756395E-01 0.19869662E+03</pdfrwt>
<pdfrwt beam="2">  1       21 0.33351415E-01 0.19869662E+03</pdfrwt>
<totfact> 0.87661868E+04</totfact>
</mgrwt>
</event>
<event>
 4    1  0.4173994E+000  0.1817493E+03  0.7546771E-02  0.1166121E+00
         21   -1    0    0  501  502  0.00000000000E+00  0.00000000000E+00  0.35637404225E+03  0.35637404225E+03  0.00000000000E+00 0.  1.
         21   -1    0    0  502  503 -0.00000000000E+00 -0.00000000000E+00 -0.14715703480E+03  0.14715703480E+03  0.00000000000E+00 0.  1.
          6    1    1    2  501    0  0.12791113613E+02 -0.54223613202E+02  0.25777614022E+03  0.31540664432E+03  0.17300000000E+03 0.  1.
         -6    1    1    2    0  503 -0.12791113613E+02  0.54223613202E+02 -0.48559132772E+02  0.18812443273E+03  0.17300000000E+03 0.  1.
<mgrwt>
<rscale>  2 0.18174931E+03</rscale>
<asrwt>0</asrwt>
<pdfrwt beam="1">  1       21 0.54826776E-01 0.18174931E+03</pdfrwt>
<pdfrwt beam="2">  1       21 0.22639544E-01 0.18174931E+03</pdfrwt>
<totfact> 0.57705414E+04</totfact>
</mgrwt>
</event>
<event>
 4    1  0.4173994E+000  0.2095598E+03  0.7546771E-02  0.1141915E+00
         21   -1    0    0  501  502  0.00000000000E+00  0.00000000000E+00  0.15271005673E+03  0.15271005673E+03  0.00000000000E+00 0. -1.
         21   -1    0    0  502  503 -0.00000000000E+00 -0.00000000000E+00 -0.77341500445E+03  0.77341500445E+03  0.00000000000E+00 0. -1.
          6    1    1    2  501    0 -0.79977366949E+02  0.87120287134E+02  0.56659956073E+02  0.21708448649E+03  0.17300000000E+03 0. -1.
         -6    1    1    2    0  503  0.79977366949E+02 -0.87120287134E+02 -0.67736490379E+03  0.70904057468E+03  0.17300000000E+03 0. -1.
<mgrwt>
<rscale>  2 0.20955983E+03</rscale>
<asrwt>0</asrwt>
<pdfrwt beam="1">  1       21 0.23493855E-01 0.20955983E+03</pdfrwt>
<pdfrwt beam="2">  1       21 0.11898692E+00 0.20955983E+03</pdfrwt>
<totfact> 0.90824986E+03</totfact>
</mgrwt>
</event>
<event>
 4    1  0.4173994E+000  0.1902583E+03  0.7546771E-02  0.1158229E+00
         21   -1    0    0  503  502  0.00000000000E+00  0.00000000000E+00  0.11134688066E+03  0.11134688066E+03  0.00000000000E+00 0. -1.
         21   -1    0    0  501  503 -0.00000000000E+00 -0.00000000000E+00 -0.33153202405E+03  0.33153202405E+03  0.00000000000E+00 0. -1.
          6    1    1    2  501    0 -0.72663163555E+02  0.31452845444E+02 -0.14095032567E+03  0.23678093489E+03  0.17300000000E+03 0.  1.
         -6    1    1    2    0  502  0.72663163555E+02 -0.31452845444E+02 -0.79234817718E+02  0.20609796982E+03  0.17300000000E+03 0.  1.
<mgrwt>
<rscale>  2 0.19025829E+03</rscale>
<asrwt>0</asrwt>
<pdfrwt beam="1">  1       21 0.17130289E-01 0.19025829E+03</pdfrwt>
<pdfrwt beam="2">  1       21 0.51004928E-01 0.19025829E+03</pdfrwt>
<totfact> 0.11254531E+05</totfact>
</mgrwt>
</event>
<event>
 4    1  0.4173994E+000  0.2672202E+03  0.7546771E-02  0.1102881E+00
         21   -1    0    0  503  502  0.00000000000E+00  0.00000000000E+00  0.41445404774E+03  0.41445404774E+03  0.00000000000E+00 0.  1.
         21   -1    0    0  501  503 -0.00000000000E+00 -0.00000000000E+00 -0.17424673821E+03  0.17424673821E+03  0.00000000000E+00 0. -1.
          6    1    1    2  501    0  0.16234168701E+03  0.12297489298E+03  0.88918184042E+02  0.28162579978E+03  0.17300000000E+03 0.  1.
         -6    1    1    2    0  502 -0.16234168701E+03 -0.12297489298E+03  0.15128912549E+03  0.30707498618E+03  0.17300000000E+03 0.  1.
<mgrwt>
<rscale>  2 0.26722022E+03</rscale>
<asrwt>0</asrwt>
<pdfrwt beam="1">  1       21 0.63762161E-01 0.26722022E+03</pdfrwt>
<pdfrwt beam="2">  1       21 0.26807191E-01 0.26722022E+03</pdfrwt>
<totfact> 0.29033863E+04</totfact>
</mgrwt>
</event>
<event>
 4    1  0.4173994E+000  0.1984457E+03  0.7546771E-02  0.1151057E+00
         21   -1    0    0  503  502  0.00000000000E+00  0.00000000000E+00  0.79757004556E+03  0.79757004556E+03  0.00000000000E+00 0. -1.
         21   -1    0    0  501  503 -0.00000000000E+00 -0.00000000000E+00 -0.71808414922E+02  0.71808414922E+02  0.00000000000E+00 0. -1.
          6    1    1    2  501    0  0.69418573802E+02  0.68064280848E+02  0.11992301362E+03  0.23186680209E+03  0.17300000000E+03 0. -1.
         -6    1    1    2    0  502 -0.69418573802E+02 -0.68064280848E+02  0.60583861702E+03  0.63751165839E+03  0.17300000000E+03 0. -1.
<mgrwt>
<rscale>  2 0.19844567E+03</rscale>
<asrwt>0</asrwt>
<pdfrwt beam="1">  1       21 0.12270308E+00 0.19844567E+03</pdfrwt>
<pdfrwt beam="2">  1       21 0.11047449E-01 0.19844567E+03</pdfrwt>
<totfact> 0.33867012E+04</totfact>
</mgrwt>
</event>
<event>
 4    1  0.4173994E+000  0.2105978E+03  0.7546771E-02  0.1141094E+00
         21   -1    0    0  503  502  0.00000000000E+00  0.00000000000E+00  0.12736101610E+04  0.12736101610E+04  0.00000000000E+00 0. -1.
         21   -1    0    0  501  503 -0.00000000000E+00 -0.00000000000E+00 -0.37735542204E+02  0.37735542204E+02  0.00000000000E+00 0. -1.
          6    1    1    2  501    0  0.10060346500E+03 -0.65584745634E+02  0.43579142292E+03  0.48400989693E+03  0.17300000000E+03 0. -1.
         -6    1    1    2    0  502 -0.10060346500E+03  0.65584745634E+02  0.80008319583E+03  0.82733580623E+03  0.17300000000E+03 0. -1.
<mgrwt>
<rscale>  2 0.21059776E+03</rscale>
<asrwt>0</asrwt>
<pdfrwt beam="1">  1       21 0.19593999E+00 0.21059776E+03</pdfrwt>
<pdfrwt beam="2">  1       21 0.58054690E-02 0.21059776E+03</pdfrwt>
<totfact> 0.29382973E+04</totfact>
</mgrwt>
</event>
<event>
 4    1  0.4173994E+000  0.1794108E+03  0.7546771E-02  0.1168374E+00
         21   -1    0    0  501  502  0.00000000000E+00  0.00000000000E+00  0.20301940627E+03  0.20301940627E+03  0.00000000000E+00 0. -1.
         21   -1    0    0  502  503 -0.00000000000E+00 -0.00000000000E+00 -0.30589828645E+03  0.30589828645E+03  0.00000000000E+00 0. -1.
          6    1    1    2  501    0  0.45354208466E+02  0.14221344069E+02  0.12516638820E+03  0.21875757264E+03  0.17300000000E+03 0. -1.
         -6    1    1    2    0  503 -0.45354208466E+02 -0.14221344069E+02 -0.22804526838E+03  0.29016012008E+03  0.17300000000E+03 0. -1.
<mgrwt>
<rscale>  2 0.17941084E+03</rscale>
<asrwt>0</asrwt>
<pdfrwt beam="1">  1       21 0.31233755E-01 0.17941084E+03</pdfrwt>
<pdfrwt beam="2">  1       21 0.47061275E-01 0.17941084E+03</pdfrwt>
<totfact> 0.42837391E+04</totfact>
</mgrwt>
</event>
<event>
 4    1  0.4173994E+000  0.1900050E+03  0.7546771E-02  0.1158457E+00
         21   -1    0    0  503  502  0.00000000000E+00  0.00000000000E+00  0.44822500137E+03  0.44822500137E+03  0.00000000000E+00 0.  1.
         21   -1    0    0  501  503 -0.00000000000E+00 -0.00000000000E+00 -0.86159022305E+02  0.86159022305E+02  0.00000000000E+00 0.  1.
          6    1    1    2  501    0 -0.59427880384E+02 -0.51392933906E+02  0.11282384386E+03  0.22097766033E+03  0.17300000000E+03 0.  1.
         -6    1    1    2    0  502  0.59427880384E+02  0.51392933906E+02  0.24924213521E+03  0.31340636335E+03  0.17300000000E+03 0.  1.
<mgrwt>
<rscale>  2 0.19000502E+03</rscale>
<asrwt>0</asrwt>
<pdfrwt beam="1">  1       21 0.68957691E-01 0.19000502E+03</pdfrwt>
<pdfrwt beam="2">  1       21 0.13255235E-01 0.19000502E+03</pdfrwt>
<totfact> 0.94097172E+04</totfact>
</mgrwt>
</event>
<event>
 4    1  0.4173994E+000  0.1981610E+03  0.7546771E-02  0.1151300E+00
         21   -1    0    0  501  502  0.00000000000E+00  0.00000000000E+00  0.24448551738E+03  0.24448551738E+03  0.00000000000E+00 0.  1.
         21   -1    0    0  502  503 -0.00000000000E+00 -0.00000000000E+00 -0.16614233889E+03  0.16614233889E+03  0.00000000000E+00 0.  1.
          6    1    1    2  501    0 -0.94657568727E+02  0.19461111271E+02  0.76623731190E+02  0.21245937577E+03  0.17300000000E+03 0.  1.
         -6    1    1    2    0  503  0.94657568727E+02 -0.19461111271E+02  0.17194473020E+01  0.19816848051E+03  0.17300000000E+03 0.  1.
<mgrwt>
<rscale>  2 0.19816102E+03</rscale>
<asrwt>0</asrwt>
<pdfrwt beam="1">  1       21 0.37613156E-01 0.19816102E+03</pdfrwt>
<pdfrwt beam="2">  1       21 0.25560360E-01 0.19816102E+03</pdfrwt>
<totfact> 0.98752955E+04</totfact>
</mgrwt>
</event>
<event>
 4    1  0.4173994E+000  0.3835994E+03  0.7546771E-02  0.1049611E+00
         21   -1    0    0  501  502  0.00000000000E+00  0.00000000000E+00  0.30452401423E+03  0.30452401423E+03  0.00000000000E+00 0.  1.
         21   -1    0    0  502  503 -0.00000000000E+00 -0.00000000000E+00 -0.73555854813E+03  0.73555854813E+03  0.00000000000E+00 0. -1.
          6    1    1    2  501    0  0.32363635790E+03 -0.11170962184E+03  0.89083549179E+02  0.39380758055E+03  0.17300000000E+03 0.  1.
         -6    1    1    2    0  503 -0.32363635790E+03  0.11170962184E+03 -0.52011808308E+03  0.64627498181E+03  0.17300000000E+03 0. -1.
<mgrwt>
<rscale>  2 0.38359944E+03</rscale>
<asrwt>0</asrwt>
<pdfrwt beam="1">  1       21 0.46849849E-01 0.38359944E+03</pdfrwt>
<pdfrwt beam="2">  1       21 0.11316285E+00 0.38359944E+03</pdfrwt>
<totfact> 0.23595241E+03</totfact>
</mgrwt>
</event>
<event>
 4    1  0.4173994E+000  0.1799049E+03  0.7546771E-02  0.1167895E+00
         21   -1    0    0  503  502  0.00000000000E+00  0.00000000000E+00  0.47042108822E+03  0.47042108822E+03  0.00000000000E+00 0. -1.
         21   -1    0    0  501  503 -0.00000000000E+00 -0.00000000000E+00 -0.78463777331E+02  0.78463777331E+02  0.00000000000E+00 0. -1.
          6    1    1    2  501    0 -0.12967917338E+02  0.47629897466E+02  0.99673010192E+02  0.20567081216E+03  0.17300000000E+03 0. -1.
         -6    1    1    2    0  502  0.12967917338E+02 -0.47629897466E+02  0.29228430069E+03  0.34321405339E+03  0.17300000000E+03 0. -1.
<mgrwt>
<rscale>  2 0.17990490E+03</rscale>
<asrwt>0</asrwt>
<pdfrwt beam="1">  1       21 0.72372474E-01 0.17990490E+03</pdfrwt>
<pdfrwt beam="2">  1       21 0.12071351E-01 0.17990490E+03</pdfrwt>
<totfact> 0.10043682E+05</totfact>
</mgrwt>
</event>
<event>
 4    1  0.4173994E+000  0.2459209E+03  0.7546771E-02  0.1115910E+00
         21   -1    0    0  503  502  0.00000000000E+00  0.00000000000E+00  0.13669177803E+04  0.13669177803E+04  0.00000000000E+00 0.  1.
         21   -1    0    0  501  503 -0.00000000000E+00 -0.00000000000E+00 -0.44730953938E+02  0.44730953938E+02  0.00000000000E+00 0. -1.
          6    1    1    2  501    0 -0.11793575558E+03 -0.12899316545E+03  0.73478322834E+03  0.77484415971E+03  0.17300000000E+03 0. -1.
         -6    1    1    2    0  502  0.11793575558E+03  0.12899316545E+03  0.58740359799E+03  0.63680457450E+03  0.17300000000E+03 0. -1.
<mgrwt>
<rscale>  2 0.24592088E+03</rscale>
<asrwt>0</asrwt>
<pdfrwt beam="1">  1       21 0.21029501E+00 0.24592088E+03</pdfrwt>
<pdfrwt beam="2">  1       21 0.68816863E-02 0.24592088E+03</pdfrwt>
<totfact> 0.17318168E+04</totfact>
</mgrwt>
</event>
<event>
 4    1  0.4173994E+000  0.1980792E+03  0.7546771E-02  0.1151370E+00
         21   -1    0    0  501  502  0.00000000000E+00  0.00000000000E+00  0.24100577266E+02  0.24100577266E+02  0.00000000000E+00 0.  1.
         21   -1    0    0  502  503 -0.00000000000E+00 -0.00000000000E+00 -0.17662552349E+04  0.17662552349E+04  0.00000000000E+00 0.  1.
          6    1    1    2  501    0  0.11491390264E+02  0.95782573023E+02 -0.62061143329E+03  0.65145522062E+03  0.17300000000E+03 0.  1.
         -6    1    1    2    0  503 -0.11491390264E+02 -0.95782573023E+02 -0.11215432243E+04  0.11389005915E+04  0.17300000000E+03 0.  1.
<mgrwt>
<rscale>  2 0.19807916E+03</rscale>
<asrwt>0</asrwt>
<pdfrwt beam="1">  1       21 0.37077810E-02 0.19807916E+03</pdfrwt>
<pdfrwt beam="2">  1       21 0.27173158E+00 0.19807916E+03</pdfrwt>
<totfact> 0.21990646E+04</totfact>
</mgrwt>
</event>
<event>
 4    1  0.4173994E+000  0.1990164E+03  0.7546771E-02  0.1150572E+00
         21   -1    0    0  501  502  0.00000000000E+00  0.00000000000E+00  0.42994899338E+03  0.42994899338E+03  0.00000000000E+00 0.  1.
         21   -1    0    0  502  503 -0.00000000000E+00 -0.00000000000E+00 -0.20400065702E+03  0.20400065702E+03  0.00000000000E+00 0.  1.
          6    1    1    2  501    0 -0.83141558893E+02 -0.52592810326E+02  0.34771232359E+03  0.40063871816E+03  0.17300000000E+03 0.  1.
         -6    1    1    2    0  503  0.83141558893E+02  0.52592810326E+02 -0.12176398723E+03  0.23331093223E+03  0.17300000000E+03 0.  1.
<mgrwt>
<rscale>  2 0.19901639E+03</rscale>
<asrwt>0</asrwt>
<pdfrwt beam="1">  1       21 0.66145999E-01 0.19901639E+03</pdfrwt>
<pdfrwt beam="2">  1       21 0.31384717E-01 0.19901639E+03</pdfrwt>
<totfact> 0.20391755E+04</totfact>
</mgrwt>
</event>
<event>
 4    1  0.4173994E+000  0.1773010E+03  0.7546771E-02  0.1170441E+00
         21   -1    0    0  503  502  0.00000000000E+00  0.00000000000E+00  0.11059295264E+03  0.11059295264E+03  0.00000000000E+00 0. -1.
         21   -1    0    0  501  503 -0.00000000000E+00 -0.00000000000E+00 -0.44934606568E+03  0.44934606568E+03  0.00000000000E+00 0. -1.
          6    1    1    2  501    0 -0.13808399190E+02 -0.36276096714E+02 -0.33908115776E+03  0.38263776425E+03  0.17300000000E+03 0. -1.
         -6    1    1    2    0  502  0.13808399190E+02  0.36276096714E+02  0.32804472789E+00  0.17730125407E+03  0.17300000000E+03 0. -1.
<mgrwt>
<rscale>  2 0.17730095E+03</rscale>
<asrwt>0</asrwt>
<pdfrwt beam="1">  1       21 0.17014300E-01 0.17730095E+03</pdfrwt>
<pdfrwt beam="2">  1       21 0.69130164E-01 0.17730095E+03</pdfrwt>
<totfact> 0.59745220E+04</totfact>
</mgrwt>
</event>
<event>
 4    1  0.4173994E+000  0.1892961E+03  0.7546771E-02  0.1159098E+00
         21   -1    0    0  503  502  0.00000000000E+00  0.00000000000E+00  0.41710550425E+03  0.41710550425E+03  0.00000000000E+00 0. -1.
         21   -1    0    0  501  503 -0.00000000000E+00 -0.00000000000E+00 -0.85931235550E+02  0.85931235550E+02  0.00000000000E+00 0. -1.
          6    1    1    2  501    0  0.75032736435E+02  0.16556003681E+02  0.16151859204E+03  0.24883984482E+03  0.17300000000E+03 0. -1.
         -6    1    1    2    0  502 -0.75032736435E+02 -0.16556003681E+02  0.16965567666E+03  0.25419689498E+03  0.17300000000E+03 0. -1.
<mgrwt>
<rscale>  2 0.18929610E+03</rscale>
<asrwt>0</asrwt>
<pdfrwt beam="1">  1       21 0.64170076E-01 0.18929610E+03</pdfrwt>
<pdfrwt beam="2">  1       21 0.13220190E-01 0.18929610E+03</pdfrwt>
<totfact> 0.11066798E+05</totfact>
</mgrwt>
</event>
<event>
 4    1  0.4173994E+000  0.2126406E+03  0.7546771E-02  0.1139492E+00
         21   -1    0    0  501  502  0.00000000000E+00  0.00000000000E+00  0.25869933675E+03  0.25869933675E+03  0.00000000000E+00 0. -1.
         21   -1    0    0  502  503 -0.00000000000E+00 -0.00000000000E+00 -0.24153318554E+03  0.24153318554E+03  0.00000000000E+00 0. -1.
          6    1    1    2  501    0 -0.32289588383E+02 -0.11934991982E+03 -0.12290385732E+03  0.24560411035E+03  0.17300000000E+03 0.  1.
         -6    1    1    2    0  503  0.32289588383E+02  0.11934991982E+03  0.14007000853E+03  0.25462841194E+03  0.17300000000E+03 0.  1.
<mgrwt>
<rscale>  2 0.21264059E+03</rscale>
<asrwt>0</asrwt>
<pdfrwt beam="1">  1       21 0.39799898E-01 0.21264059E+03</pdfrwt>
<pdfrwt beam="2">  1       21 0.37158951E-01 0.21264059E+03</pdfrwt>
<totfact> 0.42077929E+04</totfact>
</mgrwt>
</event>
<event>
 4    1  0.4173994E+000  0.2151175E+03  0.7546771E-02  0.1137576E+00
         21   -1    0    0  503  502  0.00000000000E+00  0.00000000000E+00  0.63877656689E+02  0.63877656689E+02  0.00000000000E+00 0. -1.
         21   -1    0    0  501  503 -0.00000000000E+00 -0.00000000000E+00 -0.89038063863E+03  0.89038063863E+03  0.00000000000E+00 0.  1.
          6    1    1    2  501    0 -0.12706378381E+03 -0.14188723731E+02 -0.20727172199E+03  0.29872578023E+03  0.17300000000E+03 0. -1.
         -6    1    1    2    0  502  0.12706378381E+03  0.14188723731E+02 -0.61923125995E+03  0.65553251509E+03  0.17300000000E+03 0. -1.
<mgrwt>
<rscale>  2 0.21511747E+03</rscale>
<asrwt>0</asrwt>
<pdfrwt beam="1">  1       21 0.98273314E-02 0.21511747E+03</pdfrwt>
<pdfrwt beam="2">  1       21 0.13698164E+00 0.21511747E+03</pdfrwt>
<totfact> 0.31254170E+04</totfact>
</mgrwt>
</event>
<event>
 4    1  0.4173994E+000  0.1784882E+03  0.7546771E-02  0.1169274E+00
         21   -1    0    0  501  502  0.00000000000E+00  0.00000000000E+00  0.27455378086E+02  0.27455378086E+02  0.00000000000E+00 0.  1.
         21   -1    0    0  502  503 -0.00000000000E+00 -0.00000000000E+00 -0.15849490399E+04  0.15849490399E+04  0.00000000000E+00 0.  1.
          6    1    1    2  501    0  0.39492803577E+02 -0.19218766164E+02 -0.36147197843E+03  0.40313773539E+03  0.17300000000E+03 0.  1.
         -6    1    1    2    0  503 -0.39492803577E+02  0.19218766164E+02 -0.11960216833E+04  0.12092666826E+04  0.17300000000E+03 0.  1.
<mgrwt>
<rscale>  2 0.17848821E+03</rscale>
<asrwt>0</asrwt>
<pdfrwt beam="1">  1       21 0.42239040E-02 0.17848821E+03</pdfrwt>
<pdfrwt beam="2">  1       21 0.24383833E+00 0.17848821E+03</pdfrwt>
<totfact> 0.26167521E+04</totfact>
</mgrwt>
</event>
<event>
 4    1  0.4173994E+000  0.1747679E+03  0.7546771E-02  0.1172965E+00
         21   -1    0    0  503  502  0.00000000000E+00  0.00000000000E+00  0.23460686752E+02  0.23460686752E+02  0.00000000000E+00 0.  1.
         21   -1    0    0  501  503 -0.00000000000E+00 -0.00000000000E+00 -0.13472569496E+04  0.13472569496E+04  0.00000000000E+00 0.  1.
          6    1    1    2  501    0  0.24788443899E+02  0.58044344668E+00 -0.78763023321E+03  0.80678695337E+03  0.17300000000E+03 0. -1.
         -6    1    1    2    0  502 -0.24788443899E+02 -0.58044344668E+00 -0.53616602960E+03  0.56393068294E+03  0.17300000000E+03 0. -1.
<mgrwt>
<rscale>  2 0.17476786E+03</rscale>
<asrwt>0</asrwt>
<pdfrwt beam="1">  1       21 0.36093368E-02 0.17476786E+03</pdfrwt>
<pdfrwt beam="2">  1       21 0.20727028E+00 0.17476786E+03</pdfrwt>
<totfact> 0.56847299E+04</totfact>
</mgrwt>
</event>
<event>
 4    1  0.4173994E+000  0.2529050E+03  0.7546771E-02  0.1111483E+00
         21   -1    0    0  501  502  0.00000000000E+00  0.00000000000E+00  0.67927082591E+02  0.67927082591E+02  0.00000000000E+00 0.  1.
         21   -1    0    0  502  503 -0.00000000000E+00 -0.00000000000E+00 -0.10425786692E+04  0.10425786692E+04  0.00000000000E+00 0. -1.
          6    1    1    2  501    0  0.22778358915E+02 -0.18306579248E+03 -0.31453285642E+03  0.40359863204E+03  0.17300000000E+03 0.  1.
         -6    1    1    2    0  503 -0.22778358915E+02  0.18306579248E+03 -0.66011873016E+03  0.70690711973E+03  0.17300000000E+03 0. -1.
<mgrwt>
<rscale>  2 0.25290500E+03</rscale>
<asrwt>0</asrwt>
<pdfrwt beam="1">  1       21 0.10450321E-01 0.25290500E+03</pdfrwt>
<pdfrwt beam="2">  1       21 0.16039671E+00 0.25290500E+03</pdfrwt>
<totfact> 0.18066452E+04</totfact>
</mgrwt>
</event>
<event>
 4    1  0.4173994E+000  0.1891468E+03  0.7546771E-02  0.1159233E+00
         21   -1    0    0  503  502  0.00000000000E+00  0.00000000000E+00  0.12980744105E+04  0.12980744105E+04  0.00000000000E+00 0.  1.
         21   -1    0    0  501  503 -0.00000000000E+00 -0.00000000000E+00 -0.84293090617E+02  0.84293090617E+02  0.00000000000E+00 0.  1.
          6    1    1    2  501    0  0.37211592410E+02 -0.66804181490E+02  0.39854021421E+02  0.19329988178E+03  0.17300000000E+03 0.  1.
         -6    1    1    2    0  502 -0.37211592410E+02  0.66804181490E+02  0.11739272985E+04  0.11890676193E+04  0.17300000000E+03 0.  1.
<mgrwt>
<rscale>  2 0.18914677E+03</rscale>
<asrwt>0</asrwt>
<pdfrwt beam="1">  1       21 0.19970374E+00 0.18914677E+03</pdfrwt>
<pdfrwt beam="2">  1       21 0.12968169E-01 0.18914677E+03</pdfrwt>
<totfact> 0.69069312E+03</totfact>
</mgrwt>
</event>
<event>
 4    1  0.4173994E+000  0.1860847E+03  0.7546771E-02  0.1162041E+00
         21   -1    0    0  501  502  0.00000000000E+00  0.00000000000E+00  0.95879248649E+02  0.95879248649E+02  0.00000000000E+00 0. -1.
         21   -1    0    0  502  503 -0.00000000000E+00 -0.00000000000E+00 -0.36649278811E+03  0.36649278811E+03  0.00000000000E+00 0.  1.
          6    1    1    2  501    0  0.65212198445E+02  0.21115583841E+02 -0.10741266209E+03  0.21486037020E+03  0.17300000000E+03 0.  1.
         -6    1    1    2    0  503 -0.65212198445E+02 -0.21115583841E+02 -0.16320087738E+03  0.24751166656E+03  0.17300000000E+03 0. -1.
<mgrwt>
<rscale>  2 0.18608465E+03</rscale>
<asrwt>0</asrwt>
<pdfrwt beam="1">  1       21 0.14750653E-01 0.18608465E+03</pdfrwt>
<pdfrwt beam="2">  1       21 0.56383507E-01 0.18608465E+03</pdfrwt>
<totfact> 0.11995892E+05</totfact>
</mgrwt>
</event>
<event>
 4    1  0.4173994E+000  0.2261488E+03  0.7546771E-02  0.1129380E+00
         21   -1    0    0  501  502  0.00000000000E+00  0.00000000000E+00  0.42900848835E+03  0.42900848835E+03  0.00000000000E+00 0. -1.
         21   -1    0    0  502  503 -0.00000000000E+00 -0.00000000000E+00 -0.14333709915E+03  0.14333709915E+03  0.00000000000E+00 0.  1.
          6    1    1    2  501    0 -0.50431638601E+02 -0.13664156638E+03  0.26023813669E+03  0.34477116414E+03  0.17300000000E+03 0. -1.
         -6    1    1    2    0  503  0.50431638601E+02  0.13664156638E+03  0.25433252517E+02  0.22757442336E+03  0.17300000000E+03 0.  1.
<mgrwt>
<rscale>  2 0.22614877E+03</rscale>
<asrwt>0</asrwt>
<pdfrwt beam="1">  1       21 0.66001306E-01 0.22614877E+03</pdfrwt>
<pdfrwt beam="2">  1       21 0.22051862E-01 0.22614877E+03</pdfrwt>
<totfact> 0.39841059E+04</totfact>
</mgrwt>
</event>
<event>
 4    1  0.4173994E+000  0.2200871E+03  0.7546771E-02  0.1133818E+00
         21   -1    0    0  503  502  0.00000000000E+00  0.00000000000E+00  0.33547236696E+03  0.33547236696E+03  0.00000000000E+00 0.  1.
         21   -1    0    0  501  503 -0.00000000000E+00 -0.00000000000E+00 -0.14442468779E+03  0.14442468779E+03  0.00000000000E+00 0.  1.
          6    1    1    2  501    0  0.13501009247E+03 -0.16780504529E+02  0.91719155501E+02  0.23843387739E+03  0.17300000000E+03 0.  1.
         -6    1    1    2    0  502 -0.13501009247E+03  0.16780504529E+02  0.99328523672E+02  0.24146317735E+03  0.17300000000E+03 0.  1.
<mgrwt>
<rscale>  2 0.22008705E+03</rscale>
<asrwt>0</asrwt>
<pdfrwt beam="1">  1       21 0.51611133E-01 0.22008705E+03</pdfrwt>
<pdfrwt beam="2">  1       21 0.22219183E-01 0.22008705E+03</pdfrwt>
<totfact> 0.66747704E+04</totfact>
</mgrwt>
</event>
<event>
 4    1  0.4173994E+000  0.2473412E+03  0.7546771E-02  0.1114997E+00
         21   -1    0    0  501  502  0.00000000000E+00  0.00000000000E+00  0.76959809602E+02  0.76959809602E+02  0.00000000000E+00 0. -1.
         21   -1    0    0  502  503 -0.00000000000E+00 -0.00000000000E+00 -0.83858014674E+03  0.83858014674E+03  0.00000000000E+00 0. -1.
          6    1    1    2  501    0  0.58680361219E+02 -0.16674911054E+03 -0.48525057912E+03  0.54465197621E+03  0.17300000000E+03 0. -1.
         -6    1    1    2    0  503 -0.58680361219E+02  0.16674911054E+03 -0.27636975802E+03  0.37088798013E+03  0.17300000000E+03 0. -1.
<mgrwt>
<rscale>  2 0.24734116E+03</rscale>
<asrwt>0</asrwt>
<pdfrwt beam="1">  1       21 0.11839971E-01 0.24734116E+03</pdfrwt>
<pdfrwt beam="2">  1       21 0.12901233E+00 0.24734116E+03</pdfrwt>
<totfact> 0.25680340E+04</totfact>
</mgrwt>
</event>
<event>
 4    1  0.4173994E+000  0.1997446E+03  0.7546771E-02  0.1149955E+00
         21   -1    0    0  501  502  0.00000000000E+00  0.00000000000E+00  0.45340195916E+02  0.45340195916E+02  0.00000000000E+00 0. -1.
         21   -1    0    0  502  503 -0.00000000000E+00 -0.00000000000E+00 -0.12499267043E+04  0.12499267043E+04  0.00000000000E+00 0. -1.
          6    1    1    2  501    0 -0.96563419069E+02 -0.25385550721E+02 -0.24995188154E+03  0.31995915861E+03  0.17300000000E+03 0. -1.
         -6    1    1    2    0  503  0.96563419069E+02  0.25385550721E+02 -0.95463462686E+03  0.97530774163E+03  0.17300000000E+03 0. -1.
<mgrwt>
<rscale>  2 0.19974464E+03</rscale>
<asrwt>0</asrwt>
<pdfrwt beam="1">  1       21 0.69754154E-02 0.19974464E+03</pdfrwt>
<pdfrwt beam="2">  1       21 0.19229640E+00 0.19974464E+03</pdfrwt>
<totfact> 0.22808097E+04</totfact>
</mgrwt>
</event>
<event>
 4    1  0.4173994E+000  0.2003755E+03  0.7546771E-02  0.1149423E+00
         21   -1    0    0  503  502  0.00000000000E+00  0.00000000000E+00  0.18554079839E+03  0.18554079839E+03  0.00000000000E+00 0.  1.
         21   -1    0    0  501  503 -0.00000000000E+00 -0.00000000000E+00 -0.21733188146E+03  0.21733188146E+03  0.00000000000E+00 0.  1.
          6    1    1    2  501    0 -0.79667892691E+02 -0.62244413851E+02 -0.29112134569E+02  0.20247927440E+03  0.17300000000E+03 0.  1.
         -6    1    1    2    0  502  0.79667892691E+02  0.62244413851E+02 -0.26789484994E+01  0.20039340545E+03  0.17300000000E+03 0.  1.
<mgrwt>
<rscale>  2 0.20037550E+03</rscale>
<asrwt>0</asrwt>
<pdfrwt beam="1">  1       21 0.28544739E-01 0.20037550E+03</pdfrwt>
<pdfrwt beam="2">  1       21 0.33435674E-01 0.20037550E+03</pdfrwt>
<totfact> 0.10080301E+05</totfact>
</mgrwt>
</event>
<event>
 4    1  0.4173994E+000  0.2115923E+03  0.7546771E-02  0.1140311E+00
         21   -1    0    0  503  502  0.00000000000E+00  0.00000000000E+00  0.10854052682E+03  0.10854052682E+03  0.00000000000E+00 0.  1.
         21   -1    0    0  501  503 -0.00000000000E+00 -0.00000000000E+00 -0.49748946088E+03  0.49748946088E+03  0.00000000000E+00 0.  1.
          6    1    1    2  501    0 -0.11725059705E+03  0.33084918871E+02 -0.31972904838E+03  0.38340315432E+03  0.17300000000E+03 0.  1.
         -6    1    1    2    0  502  0.11725059705E+03 -0.33084918871E+02 -0.69219885685E+02  0.22262683338E+03  0.17300000000E+03 0.  1.
<mgrwt>
<rscale>  2 0.21159233E+03</rscale>
<asrwt>0</asrwt>
<pdfrwt beam="1">  1       21 0.16698543E-01 0.21159233E+03</pdfrwt>
<pdfrwt beam="2">  1       21 0.76536839E-01 0.21159233E+03</pdfrwt>
<totfact> 0.48528364E+04</totfact>
</mgrwt>
</event>
<event>
 4    1  0.4173994E+000  0.1889738E+03  0.7546771E-02  0.1159390E+00
         21   -1    0    0  501  502  0.00000000000E+00  0.00000000000E+00  0.81717135406E+02  0.81717135406E+02  0.00000000000E+00 0. -1.
         21   -1    0    0  502  503 -0.00000000000E+00 -0.00000000000E+00 -0.45059570232E+03  0.45059570232E+03  0.00000000000E+00 0. -1.
          6    1    1    2  501    0  0.76037022327E+02 -0.69746346059E+00 -0.13822224677E+03  0.23412924790E+03  0.17300000000E+03 0. -1.
         -6    1    1    2    0  503 -0.76037022327E+02  0.69746346059E+00 -0.23065632014E+03  0.29818358982E+03  0.17300000000E+03 0. -1.
<mgrwt>
<rscale>  2 0.18897385E+03</rscale>
<asrwt>0</asrwt>
<pdfrwt beam="1">  1       21 0.12571867E-01 0.18897385E+03</pdfrwt>
<pdfrwt beam="2">  1       21 0.69322414E-01 0.18897385E+03</pdfrwt>
<totfact> 0.10234131E+05</totfact>
</mgrwt>
</event>
<event>
 4    1  0.4173994E+000  0.2035486E+03  0.7546771E-02  0.1146779E+00
         21   -1    0    0  501  502  0.00000000000E+00  0.00000000000E+00  0.13242691194E+03  0.13242691194E+03  0.00000000000E+00 0. -1.
         21   -1    0    0  502  503 -0.00000000000E+00 -0.00000000000E+00 -0.37112689221E+03  0.37112689221E+03  0.00000000000E+00 0. -1.
          6    1    1    2  501    0  0.10494633368E+03  0.22120271104E+02 -0.19594064197E+02  0.20448952711E+03  0.17300000000E+03 0. -1.
         -6    1    1    2    0  503 -0.10494633368E+03 -0.22120271104E+02 -0.21910591607E+03  0.29906427704E+03  0.17300000000E+03 0. -1.
<mgrwt>
<rscale>  2 0.20354862E+03</rscale>
<asrwt>0</asrwt>
<pdfrwt beam="1">  1       21 0.20373371E-01 0.20354862E+03</pdfrwt>
<pdfrwt beam="2">  1       21 0.57096444E-01 0.20354862E+03</pdfrwt>
<totfact> 0.63923936E+04</totfact>
</mgrwt>
</event>
<event>
 4    1  0.4173994E+000  0.2002291E+03  0.7546771E-02  0.1149546E+00
         21   -1    0    0  503  502  0.00000000000E+00  0.00000000000E+00  0.19414995656E+03  0.19414995656E+03  0.00000000000E+00 0. -1.
         21   -1    0    0  501  503 -0.00000000000E+00 -0.00000000000E+00 -0.21156512870E+03  0.21156512870E+03  0.00000000000E+00 0. -1.
          6    1    1    2  501    0 -0.17128816948E+02  0.99344360298E+02  0.22684738155E+02  0.20151003855E+03  0.17300000000E+03 0. -1.
         -6    1    1    2    0  502  0.17128816948E+02 -0.99344360298E+02 -0.40099910293E+02  0.20420504670E+03  0.17300000000E+03 0. -1.
<mgrwt>
<rscale>  2 0.20022911E+03</rscale>
<asrwt>0</asrwt>
<pdfrwt beam="1">  1       21 0.29869224E-01 0.20022911E+03</pdfrwt>
<pdfrwt beam="2">  1       21 0.32548481E-01 0.20022911E+03</pdfrwt>
<totfact> 0.97325938E+04</totfact>
</mgrwt>
</event>
<event>
 4    1  0.4173994E+000  0.1968475E+03  0.7546771E-02  0.1152426E+00
         21   -1    0    0  503  502  0.00000000000E+00  0.00000000000E+00  0.10759106855E+03  0.10759106855E+03  0.00000000000E+00 0. -1.
         21   -1    0    0  501  503 -0.00000000000E+00 -0.00000000000E+00 -0.43147813393E+03  0.43147813393E+03  0.00000000000E+00 0. -1.
          6    1    1    2  501    0 -0.85301626808E+02 -0.39288269080E+02 -0.27153209081E+03  0.33537831171E+03  0.17300000000E+03 0. -1.
         -6    1    1    2    0  502  0.85301626808E+02  0.39288269080E+02 -0.52354974563E+02  0.20369089078E+03  0.17300000000E+03 0. -1.
<mgrwt>
<rscale>  2 0.19684749E+03</rscale>
<asrwt>0</asrwt>
<pdfrwt beam="1">  1       21 0.16552472E-01 0.19684749E+03</pdfrwt>
<pdfrwt beam="2">  1       21 0.66381251E-01 0.19684749E+03</pdfrwt>
<totfact> 0.68081000E+04</totfact>
</mgrwt>
</event>
<event>
 4    1  0.4173994E+000  0.1781851E+03  0.7546771E-02  0.1169571E+00
         21   -1    0    0  503  502  0.00000000000E+00  0.00000000000E+00  0.11292505149E+03  0.11292505149E+03  0.00000000000E+00 0.  1.
         21   -1    0    0  501  503 -0.00000000000E+00 -0.00000000000E+00 -0.28117178159E+03  0.28117178159E+03  0.00000000000E+00 0.  1.
          6    1    1    2  501    0  0.40608063495E+02 -0.13111974857E+02 -0.85431441564E+02  0.19760685695E+03  0.17300000000E+03 0.  1.
         -6    1    1    2    0  502 -0.40608063495E+02  0.13111974857E+02 -0.82815288528E+02  0.19648997613E+03  0.17300000000E+03 0.  1.
<mgrwt>
<rscale>  2 0.17818512E+03</rscale>
<asrwt>0</asrwt>
<pdfrwt beam="1">  1       21 0.17373085E-01 0.17818512E+03</pdfrwt>
<pdfrwt beam="2">  1       21 0.43257197E-01 0.17818512E+03</pdfrwt>
<totfact> 0.15472051E+05</totfact>
</mgrwt>
</event>
<event>
 4    1  0.4173994E+000  0.1867479E+03  0.7546771E-02  0.1161428E+00
         21   -1    0    0  501  502  0.00000000000E+00  0.00000000000E+00  0.18047077824E+03  0.18047077824E+03  0.00000000000E+00 0.  1.
         21   -1    0    0  502  503 -0.00000000000E+00 -0.00000000000E+00 -0.19334448752E+03  0.19334448752E+03  0.00000000000E+00 0.  1.
          6    1    1    2  501    0 -0.66316895786E+02 -0.23405922560E+02 -0.10712826915E+02  0.18705489178E+03  0.17300000000E+03 0.  1.
         -6    1    1    2    0  503  0.66316895786E+02  0.23405922560E+02 -0.21608823684E+01  0.18676037398E+03  0.17300000000E+03 0.  1.
<mgrwt>
<rscale>  2 0.18674787E+03</rscale>
<asrwt>0</asrwt>
<pdfrwt beam="1">  1       21 0.27764735E-01 0.18674787E+03</pdfrwt>
<pdfrwt beam="2">  1       21 0.29745306E-01 0.18674787E+03</pdfrwt>
<totfact> 0.13444067E+05</totfact>
</mgrwt>
</event>
<event>
 4    1  0.4173994E+000  0.1755106E+03  0.7546771E-02  0.1172220E+00
         21   -1    0    0  501  502  0.00000000000E+00  0.00000000000E+00  0.96534838381E+02  0.96534838381E+02  0.00000000000E+00 0.  1.
         21   -1    0    0  502  503 -0.00000000000E+00 -0.00000000000E+00 -0.33139362230E+03  0.33139362230E+03  0.00000000000E+00 0.  1.
          6    1    1    2  501    0 -0.50334933751E+01  0.29148619353E+02 -0.76213767551E+02  0.19134397411E+03  0.17300000000E+03 0.  1.
         -6    1    1    2    0  503  0.50334933751E+01 -0.29148619353E+02 -0.15864501637E+03  0.23658448657E+03  0.17300000000E+03 0.  1.
<mgrwt>
<rscale>  2 0.17551062E+03</rscale>
<asrwt>0</asrwt>
<pdfrwt beam="1">  1       21 0.14851514E-01 0.17551062E+03</pdfrwt>
<pdfrwt beam="2">  1       21 0.50983634E-01 0.17551062E+03</pdfrwt>
<totfact> 0.14697272E+05</totfact>
</mgrwt>
</event>
<event>
 4    1  0.4173994E+000  0.1996207E+03  0.7546771E-02  0.1150059E+00
         21   -1    0    0  501  502  0.00000000000E+00  0.00000000000E+00  0.56527182840E+03  0.56527182840E+03  0.00000000000E+00 0.  1.
         21   -1    0    0  502  503 -0.00000000000E+00 -0.00000000000E+00 -0.10078506237E+03  0.10078506237E+03  0.00000000000E+00 0. -1.
          6    1    1    2  501    0 -0.98882945734E+01  0.99104292958E+02  0.41481715177E+03  0.46034955051E+03  0.17300000000E+03 0.  1.
         -6    1    1    2    0  503  0.98882945734E+01 -0.99104292958E+02  0.49669614254E+02  0.20570734025E+03  0.17300000000E+03 0.  1.
<mgrwt>
<rscale>  2 0.19962074E+03</rscale>
<asrwt>0</asrwt>
<pdfrwt beam="1">  1       21 0.86964895E-01 0.19962074E+03</pdfrwt>
<pdfrwt beam="2">  1       21 0.15505394E-01 0.19962074E+03</pdfrwt>
<totfact> 0.41836999E+04</totfact>
</mgrwt>
</event>
<event>
 4    1  0.4173994E+000  0.3949046E+03  0.7546771E-02  0.1045558E+00
         21   -1    0    0  501  502  0.00000000000E+00  0.00000000000E+00  0.60592523952E+03  0.60592523952E+03  0.00000000000E+00 0. -1.
         21   -1    0    0  502  503 -0.00000000000E+00 -0.00000000000E+00 -0.16788799370E+04  0.16788799370E+04  0.00000000000E+00 0. -1.
          6    1    1    2  501    0  0.33055540488E+03  0.12943622787E+03  0.51471851833E+03  0.64875632243E+03  0.17300000000E+03 0. -1.
         -6    1    1    2    0  503 -0.33055540488E+03 -0.12943622787E+03 -0.15876732159E+04  0.16360488541E+04  0.17300000000E+03 0. -1.
<mgrwt>
<rscale>  2 0.39490456E+03</rscale>
<asrwt>0</asrwt>
<pdfrwt beam="1">  1       21 0.93219267E-01 0.39490456E+03</pdfrwt>
<pdfrwt beam="2">  1       21 0.25828922E+00 0.39490456E+03</pdfrwt>
<totfact> 0.46053076E+01</totfact>
</mgrwt>
</event>
<event>
 4    1  0.4173994E+000  0.2013555E+03  0.7546771E-02  0.1148600E+00
         21   -1    0    0  503  502  0.00000000000E+00  0.00000000000E+00  0.27127451591E+03  0.27127451591E+03  0.00000000000E+00 0. -1.
         21   -1    0    0  501  503 -0.00000000000E+00 -0.00000000000E+00 -0.26175176433E+03  0.26175176433E+03  0.00000000000E+00 0.  1.
          6    1    1    2  501    0 -0.97609239115E+02  0.32976664169E+02 -0.16980175085E+03  0.26339449222E+03  0.17300000000E+03 0.  1.
         -6    1    1    2    0  502  0.97609239115E+02 -0.32976664169E+02  0.17932450242E+03  0.26963178802E+03  0.17300000000E+03 0. -1.
<mgrwt>
<rscale>  2 0.20135547E+03</rscale>
<asrwt>0</asrwt>
<pdfrwt beam="1">  1       21 0.41734541E-01 0.20135547E+03</pdfrwt>
<pdfrwt beam="2">  1       21 0.40269503E-01 0.20135547E+03</pdfrwt>
<totfact> 0.32689210E+04</totfact>
</mgrwt>
</event>
<event>
 4    1  0.4173994E+000  0.2735893E+03  0.7546771E-02  0.1099243E+00
         21   -1    0    0  501  502  0.00000000000E+00  0.00000000000E+00  0.65266016308E+02  0.65266016308E+02  0.00000000000E+00 0. -1.
         21   -1    0    0  502  503 -0.00000000000E+00 -0.00000000000E+00 -0.11517559702E+04  0.11517559702E+04  0.00000000000E+00 0.  1.
          6    1    1    2  501    0  0.96888045633E+02  0.18850679273E+03 -0.50357833361E+03  0.57309880681E+03  0.17300000000E+03 0.  1.
         -6    1    1    2    0  503 -0.96888045633E+02 -0.18850679273E+03 -0.58291162032E+03  0.64392317973E+03  0.17300000000E+03 0.  1.
<mgrwt>
<rscale>  2 0.27358930E+03</rscale>
<asrwt>0</asrwt>
<pdfrwt beam="1">  1       21 0.10040925E-01 0.27358930E+03</pdfrwt>
<pdfrwt beam="2">  1       21 0.17719323E+00 0.27358930E+03</pdfrwt>
<totfact> 0.14537015E+04</totfact>
</mgrwt>
</event>
<event>
 4    1  0.4173994E+000  0.2421999E+03  0.7546771E-02  0.1118336E+00
         21   -1    0    0  501  502  0.00000000000E+00  0.00000000000E+00  0.13452106660E+03  0.13452106660E+03  0.00000000000E+00 0. -1.
         21   -1    0    0  502  503 -0.00000000000E+00 -0.00000000000E+00 -0.58530664448E+03  0.58530664448E+03  0.00000000000E+00 0. -1.
          6    1    1    2  501    0 -0.16068805464E+03  0.53955167436E+02 -0.43656225853E+02  0.24610298058E+03  0.17300000000E+03 0. -1.
         -6    1    1    2    0  503  0.16068805464E+03 -0.53955167436E+02 -0.40712935203E+03  0.47372473050E+03  0.17300000000E+03 0. -1.
<mgrwt>
<rscale>  2 0.24219994E+03</rscale>
<asrwt>0</asrwt>
<pdfrwt beam="1">  1       21 0.20695548E-01 0.24219994E+03</pdfrwt>
<pdfrwt beam="2">  1       21 0.90047178E-01 0.24219994E+03</pdfrwt>
<totfact> 0.22102644E+04</totfact>
</mgrwt>
</event>
<event>
 4    1  0.4173994E+000  0.2418585E+03  0.7546771E-02  0.1118561E+00
         21   -1    0    0  501  502  0.00000000000E+00  0.00000000000E+00  0.91367285652E+02  0.91367285652E+02  0.00000000000E+00 0.  1.
         21   -1    0    0  502  503 -0.00000000000E+00 -0.00000000000E+00 -0.84097256509E+03  0.84097256509E+03  0.00000000000E+00 0. -1.
          6    1    1    2  501    0 -0.14257911095E+03  0.90762035199E+02 -0.60256361622E+03  0.64929073727E+03  0.17300000000E+03 0. -1.
         -6    1    1    2    0  503  0.14257911095E+03 -0.90762035199E+02 -0.14704166321E+03  0.28304911347E+03  0.17300000000E+03 0.  1.
<mgrwt>
<rscale>  2 0.24185853E+03</rscale>
<asrwt>0</asrwt>
<pdfrwt beam="1">  1       21 0.14056506E-01 0.24185853E+03</pdfrwt>
<pdfrwt beam="2">  1       21 0.12938039E+00 0.24185853E+03</pdfrwt>
<totfact> 0.18744100E+04</totfact>
</mgrwt>
</event>
<event>
 4    1  0.4173994E+000  0.1815250E+03  0.7546771E-02  0.1166335E+00
         21   -1    0    0  503  502  0.00000000000E+00  0.00000000000E+00  0.64934879300E+03  0.64934879300E+03  0.00000000000E+00 0. -1.
         21   -1    0    0  501  503 -0.00000000000E+00 -0.00000000000E+00 -0.72560613887E+02  0.72560613887E+02  0.00000000000E+00 0. -1.
          6    1    1    2  501    0  0.48230823662E+02  0.26384156354E+02  0.90476709317E+02  0.20282349713E+03  0.17300000000E+03 0. -1.
         -6    1    1    2    0  502 -0.48230823662E+02 -0.26384156354E+02  0.48631146980E+03  0.51908590976E+03  0.17300000000E+03 0. -1.
<mgrwt>
<rscale>  2 0.18152503E+03</rscale>
<asrwt>0</asrwt>
<pdfrwt beam="1">  1       21 0.99899810E-01 0.18152503E+03</pdfrwt>
<pdfrwt beam="2">  1       21 0.11163172E-01 0.18152503E+03</pdfrwt>
<totfact> 0.55236957E+04</totfact>
</mgrwt>
</event>
<event>
 4    1  0.4173994E+000  0.1866403E+03  0.7546771E-02  0.1161527E+00
         21   -1    0    0  503  502  0.00000000000E+00  0.00000000000E+00  0.50748456412E+02  0.50748456412E+02  0.00000000000E+00 0.  1.
         21   -1    0    0  501  503 -0.00000000000E+00 -0.00000000000E+00 -0.73081105875E+03  0.73081105875E+03  0.00000000000E+00 0. -1.
          6    1    1    2  501    0  0.64423738630E+02  0.27480298275E+02 -0.43634624932E+03  0.47458680364E+03  0.17300000000E+03 0. -1.
         -6    1    1    2    0  502 -0.64423738630E+02 -0.27480298275E+02 -0.24371635302E+03  0.30697271153E+03  0.17300000000E+03 0.  1.
<mgrwt>
<rscale>  2 0.18664026E+03</rscale>
<asrwt>0</asrwt>
<pdfrwt beam="1">  1       21 0.78074553E-02 0.18664026E+03</pdfrwt>
<pdfrwt beam="2">  1       21 0.11243246E+00 0.18664026E+03</pdfrwt>
<totfact> 0.77755350E+04</totfact>
</mgrwt>
</event>
<event>
 4    1  0.4173994E+000  0.1880875E+03  0.7546771E-02  0.1160198E+00
         21   -1    0    0  503  502  0.00000000000E+00  0.00000000000E+00  0.29114913890E+03  0.29114913890E+03  0.00000000000E+00 0.  1.
         21   -1    0    0  501  503 -0.00000000000E+00 -0.00000000000E+00 -0.15892348240E+03  0.15892348240E+03  0.00000000000E+00 0.  1.
          6    1    1    2  501    0  0.54683849222E+02 -0.49573910519E+02 -0.43077785135E+02  0.19295748636E+03  0.17300000000E+03 0.  1.
         -6    1    1    2    0  502 -0.54683849222E+02  0.49573910519E+02  0.17530344163E+03  0.25711513495E+03  0.17300000000E+03 0.  1.
<mgrwt>
<rscale>  2 0.18808747E+03</rscale>
<asrwt>0</asrwt>
<pdfrwt beam="1">  1       21 0.44792175E-01 0.18808747E+03</pdfrwt>
<pdfrwt beam="2">  1       21 0.24449767E-01 0.18808747E+03</pdfrwt>
<totfact> 0.75745119E+04</totfact>
</mgrwt>
</event>
<event>
 4    1  0.4173994E+000  0.5173020E+03  0.7546771E-02  0.1009359E+00
         21   -1    0    0  501  502  0.00000000000E+00  0.00000000000E+00  0.23186919904E+03  0.23186919904E+03  0.00000000000E+00 0. -1.
         21   -1    0    0  502  503 -0.00000000000E+00 -0.00000000000E+00 -0.13219176923E+04  0.13219176923E+04  0.00000000000E+00 0.  1.
          6    1    1    2  501    0  0.45483679540E+03 -0.17548736768E+03 -0.26822043089E+03  0.58270363497E+03  0.17300000000E+03 0. -1.
         -6    1    1    2    0  503 -0.45483679540E+03  0.17548736768E+03 -0.82182806233E+03  0.97108325631E+03  0.17300000000E+03 0.  1.
<mgrwt>
<rscale>  2 0.51730197E+03</rscale>
<asrwt>0</asrwt>
<pdfrwt beam="1">  1       21 0.35672185E-01 0.51730197E+03</pdfrwt>
<pdfrwt beam="2">  1       21 0.20337195E+00 0.51730197E+03</pdfrwt>
<totfact> 0.78038190E+02</totfact>
</mgrwt>
</event>
<event>
 4    1  0.4173994E+000  0.3110378E+03  0.7546771E-02  0.1079849E+00
         21   -1    0    0  501  502  0.00000000000E+00  0.00000000000E+00  0.55190566259E+03  0.55190566259E+03  0.00000000000E+00 0.  1.
         21   -1    0    0  502  503 -0.00000000000E+00 -0.00000000000E+00 -0.35242937844E+03  0.35242937844E+03  0.00000000000E+00 0. -1.
          6    1    1    2  501    0 -0.22700680508E+03  0.12362622510E+03  0.42030503801E+03  0.52287747902E+03  0.17300000000E+03 0.  1.
         -6    1    1    2    0  503  0.22700680508E+03 -0.12362622510E+03 -0.22082875386E+03  0.38145756201E+03  0.17300000000E+03 0. -1.
<mgrwt>
<rscale>  2 0.31103783E+03</rscale>
<asrwt>0</asrwt>
<pdfrwt beam="1">  1       21 0.84908563E-01 0.31103783E+03</pdfrwt>
<pdfrwt beam="2">  1       21 0.54219905E-01 0.31103783E+03</pdfrwt>
<totfact> 0.35730055E+03</totfact>
</mgrwt>
</event>
<event>
 4    1  0.4173994E+000  0.3300434E+03  0.7546771E-02  0.1071118E+00
         21   -1    0    0  503  502  0.00000000000E+00  0.00000000000E+00  0.12913737789E+03  0.12913737789E+03  0.00000000000E+00 0.  1.
         21   -1    0    0  501  503 -0.00000000000E+00 -0.00000000000E+00 -0.10433509815E+04  0.10433509815E+04  0.00000000000E+00 0.  1.
          6    1    1    2  501    0  0.27926586531E+03  0.31783747906E+02 -0.71367683981E+03  0.78629718418E+03  0.17300000000E+03 0.  1.
         -6    1    1    2    0  502 -0.27926586531E+03 -0.31783747906E+02 -0.20053676376E+03  0.38619117517E+03  0.17300000000E+03 0.  1.
<mgrwt>
<rscale>  2 0.33004338E+03</rscale>
<asrwt>0</asrwt>
<pdfrwt beam="1">  1       21 0.19867289E-01 0.33004338E+03</pdfrwt>
<pdfrwt beam="2">  1       21 0.16051554E+00 0.33004338E+03</pdfrwt>
<totfact> 0.53324639E+03</totfact>
</mgrwt>
</event>
<event>
 4    1  0.4173994E+000  0.1917816E+03  0.7546771E-02  0.1156864E+00
         21   -1    0    0  501  502  0.00000000000E+00  0.00000000000E+00  0.76685818877E+02  0.76685818877E+02  0.00000000000E+00 0. -1.
         21   -1    0    0  502  503 -0.00000000000E+00 -0.00000000000E+00 -0.59133179543E+03  0.59133179543E+03  0.00000000000E+00 0. -1.
          6    1    1    2  501    0 -0.20197817990E+02 -0.80269823959E+02 -0.11214921411E+03  0.22216580006E+03  0.17300000000E+03 0. -1.
         -6    1    1    2    0  503  0.20197817990E+02  0.80269823959E+02 -0.40249676244E+03  0.44585181425E+03  0.17300000000E+03 0. -1.
<mgrwt>
<rscale>  2 0.19178164E+03</rscale>
<asrwt>0</asrwt>
<pdfrwt beam="1">  1       21 0.11797818E-01 0.19178164E+03</pdfrwt>
<pdfrwt beam="2">  1       21 0.90974121E-01 0.19178164E+03</pdfrwt>
<totfact> 0.62014097E+04</totfact>
</mgrwt>
</event>
<event>
 4    1  0.4173994E+000  0.2009122E+03  0.7546771E-02  0.1148972E+00
         21   -1    0    0  503  502  0.00000000000E+00  0.00000000000E+00  0.18541172265E+02  0.18541172265E+02  0.00000000000E+00 0. -1.
         21   -1    0    0  501  503 -0.00000000000E+00 -0.00000000000E+00 -0.22095725124E+04  0.22095725124E+04  0.00000000000E+00 0. -1.
          6    1    1    2  501    0 -0.42341554862E+02  0.92972631215E+02 -0.12306009602E+04  0.12468939172E+04  0.17300000000E+03 0. -1.
         -6    1    1    2    0  502  0.42341554862E+02 -0.92972631215E+02 -0.96043037987E+03  0.98121976743E+03  0.17300000000E+03 0. -1.
<mgrwt>
<rscale>  2 0.20091221E+03</rscale>
<asrwt>0</asrwt>
<pdfrwt beam="1">  1       21 0.28524885E-02 0.20091221E+03</pdfrwt>
<pdfrwt beam="2">  1       21 0.33993417E+00 0.20091221E+03</pdfrwt>
<totfact> 0.13655750E+04</totfact>
</mgrwt>
</event>
<event>
 4    1  0.4173994E+000  0.2164839E+03  0.7546771E-02  0.1136532E+00
         21   -1    0    0  503  502  0.00000000000E+00  0.00000000000E+00  0.13098659291E+03  0.13098659291E+03  0.00000000000E+00 0.  1.
         21   -1    0    0  501  503 -0.00000000000E+00 -0.00000000000E+00 -0.40317105663E+03  0.40317105663E+03  0.00000000000E+00 0. -1.
          6    1    1    2  501    0  0.11835731732E+03 -0.54109487476E+02 -0.22570022793E+03  0.31273932289E+03  0.17300000000E+03 0.  1.
         -6    1    1    2    0  502 -0.11835731732E+03  0.54109487476E+02 -0.46484235786E+02  0.22141832665E+03  0.17300000000E+03 0.  1.
<mgrwt>
<rscale>  2 0.21648393E+03</rscale>
<asrwt>0</asrwt>
<pdfrwt beam="1">  1       21 0.20151784E-01 0.21648393E+03</pdfrwt>
<pdfrwt beam="2">  1       21 0.62026315E-01 0.21648393E+03</pdfrwt>
<totfact> 0.54290035E+04</totfact>
</mgrwt>
</event>
<event>
 4    1  0.4173994E+000  0.1977795E+03  0.7546771E-02  0.1151626E+00
         21   -1    0    0  501  502  0.00000000000E+00  0.00000000000E+00  0.65016861079E+02  0.65016861079E+02  0.00000000000E+00 0.  1.
         21   -1    0    0  502  503 -0.00000000000E+00 -0.00000000000E+00 -0.61744815743E+03  0.61744815743E+03  0.00000000000E+00 0.  1.
          6    1    1    2  501    0  0.60739396996E+02  0.74151570388E+02 -0.22161549605E+03  0.29703561711E+03  0.17300000000E+03 0.  1.
         -6    1    1    2    0  503 -0.60739396996E+02 -0.74151570388E+02 -0.33081580030E+03  0.38542940140E+03  0.17300000000E+03 0.  1.
<mgrwt>
<rscale>  2 0.19777950E+03</rscale>
<asrwt>0</asrwt>
<pdfrwt beam="1">  1       21 0.10002594E-01 0.19777950E+03</pdfrwt>
<pdfrwt beam="2">  1       21 0.94992023E-01 0.19777950E+03</pdfrwt>
<totfact> 0.74971646E+04</totfact>
</mgrwt>
</event>
<event>
 4    1  0.4173994E+000  0.2734470E+03  0.7546771E-02  0.1099323E+00
         21   -1    0    0  503  502  0.00000000000E+00  0.00000000000E+00  0.74807110075E+03  0.74807110075E+03  0.00000000000E+00 0.  1.
         21   -1    0    0  501  503 -0.00000000000E+00 -0.00000000000E+00 -0.10237524284E+03  0.10237524284E+03  0.00000000000E+00 0.  1.
          6    1    1    2  501    0  0.21148196382E+03  0.10938420620E+02  0.38823172435E+03  0.47486539341E+03  0.17300000000E+03 0.  1.
         -6    1    1    2    0  502 -0.21148196382E+03 -0.10938420620E+02  0.25746413356E+03  0.37558095018E+03  0.17300000000E+03 0.  1.
<mgrwt>
<rscale>  2 0.27344702E+03</rscale>
<asrwt>0</asrwt>
<pdfrwt beam="1">  1       21 0.11508786E+00 0.27344702E+03</pdfrwt>
<pdfrwt beam="2">  1       21 0.15750038E-01 0.27344702E+03</pdfrwt>
<totfact> 0.20091202E+04</totfact>
</mgrwt>
</event>
<event>
 4    1  0.4173994E+000  0.1870477E+03  0.7546771E-02  0.1161151E+00
         21   -1    0    0  503  502  0.00000000000E+00  0.00000000000E+00  0.26610589228E+02  0.26610589228E+02  0.00000000000E+00 0. -1.
         21   -1    0    0  501  503 -0.00000000000E+00 -0.00000000000E+00 -0.16829543060E+04  0.16829543060E+04  0.00000000000E+00 0. -1.
          6    1    1    2  501    0  0.66325731391E+02 -0.25665986950E+02 -0.12279795621E+04  0.12421435708E+04  0.17300000000E+03 0. -1.
         -6    1    1    2    0  502 -0.66325731391E+02  0.25665986950E+02 -0.42836415471E+03  0.46742132447E+03  0.17300000000E+03 0. -1.
<mgrwt>
<rscale>  2 0.18704771E+03</rscale>
<asrwt>0</asrwt>
<pdfrwt beam="1">  1       21 0.40939354E-02 0.18704771E+03</pdfrwt>
<pdfrwt beam="2">  1       21 0.25891614E+00 0.18704771E+03</pdfrwt>
<totfact> 0.22332909E+04</totfact>
</mgrwt>
</event>
<event>
 4    1  0.4173994E+000  0.1974021E+03  0.7546771E-02  0.1151950E+00
         21   -1    0    0  503  502  0.00000000000E+00  0.00000000000E+00  0.53884017617E+03  0.53884017617E+03  0.00000000000E+00 0. -1.
         21   -1    0    0  501  503 -0.00000000000E+00 -0.00000000000E+00 -0.95298481004E+02  0.95298481004E+02  0.00000000000E+00 0. -1.
          6    1    1    2  501    0 -0.74507903704E+02 -0.59052142904E+02  0.66068424796E+02  0.20816488669E+03  0.17300000000E+03 0. -1.
         -6    1    1    2    0  502  0.74507903704E+02  0.59052142904E+02  0.37747327037E+03  0.42597377048E+03  0.17300000000E+03 0. -1.
<mgrwt>
<rscale>  2 0.19740209E+03</rscale>
<asrwt>0</asrwt>
<pdfrwt beam="1">  1       21 0.82898487E-01 0.19740209E+03</pdfrwt>
<pdfrwt beam="2">  1       21 0.14661305E-01 0.19740209E+03</pdfrwt>
<totfact> 0.51758587E+04</totfact>
</mgrwt>
</event>
<event>
 4    1  0.4173994E+000  0.2005857E+03  0.7546771E-02  0.1149246E+00
         21   -1    0    0  501  502  0.00000000000E+00  0.00000000000E+00  0.52664187184E+02  0.52664187184E+02  0.00000000000E+00 0. -1.
         21   -1    0    0  502  503 -0.00000000000E+00 -0.00000000000E+00 -0.95437994485E+03  0.95437994485E+03  0.00000000000E+00 0. -1.
          6    1    1    2  501    0 -0.75373705600E+02 -0.68003238070E+02 -0.22595974749E+03  0.30214639394E+03  0.17300000000E+03 0.  1.
         -6    1    1    2    0  503  0.75373705600E+02  0.68003238070E+02 -0.67575601017E+03  0.70489773809E+03  0.17300000000E+03 0.  1.
<mgrwt>
<rscale>  2 0.20058573E+03</rscale>
<asrwt>0</asrwt>
<pdfrwt beam="1">  1       21 0.81021829E-02 0.20058573E+03</pdfrwt>
<pdfrwt beam="2">  1       21 0.14682768E+00 0.20058573E+03</pdfrwt>
<totfact> 0.36933087E+04</totfact>
</mgrwt>
</event>
<event>
 4    1  0.4173994E+000  0.1793937E+03  0.7546771E-02  0.1168391E+00
         21   -1    0    0  501  502  0.00000000000E+00  0.00000000000E+00  0.24582056086E+02  0.24582056086E+02  0.00000000000E+00 0. -1.
         21   -1    0    0  502  503 -0.00000000000E+00 -0.00000000000E+00 -0.16154842965E+04  0.16154842965E+04  0.00000000000E+00 0. -1.
          6    1    1    2  501    0 -0.23718010524E+02  0.41116493527E+02 -0.11525291403E+04  0.11664071028E+04  0.17300000000E+03 0. -1.
         -6    1    1    2    0  503  0.23718010524E+02 -0.41116493527E+02 -0.43837310004E+03  0.47365924978E+03  0.17300000000E+03 0. -1.
<mgrwt>
<rscale>  2 0.17939373E+03</rscale>
<asrwt>0</asrwt>
<pdfrwt beam="1">  1       21 0.37818554E-02 0.17939373E+03</pdfrwt>
<pdfrwt beam="2">  1       21 0.24853600E+00 0.17939373E+03</pdfrwt>
<totfact> 0.29523357E+04</totfact>
</mgrwt>
</event>
<event>
 4    1  0.4173994E+000  0.1761030E+03  0.7546771E-02  0.1171629E+00
         21   -1    0    0  503  502  0.00000000000E+00  0.00000000000E+00  0.12260007294E+03  0.12260007294E+03  0.00000000000E+00 0.  1.
         21   -1    0    0  501  503 -0.00000000000E+00 -0.00000000000E+00 -0.25726214214E+03  0.25726214214E+03  0.00000000000E+00 0.  1.
          6    1    1    2  501    0 -0.31271741950E+02 -0.10263341957E+02 -0.91907567544E+02  0.19864354760E+03  0.17300000000E+03 0.  1.
         -6    1    1    2    0  502  0.31271741950E+02  0.10263341957E+02 -0.42754501653E+02  0.18121866748E+03  0.17300000000E+03 0.  1.
<mgrwt>
<rscale>  2 0.17610298E+03</rscale>
<asrwt>0</asrwt>
<pdfrwt beam="1">  1       21 0.18861550E-01 0.17610298E+03</pdfrwt>
<pdfrwt beam="2">  1       21 0.39578791E-01 0.17610298E+03</pdfrwt>
<totfact> 0.15926306E+05</totfact>
</mgrwt>
</event>
<event>
 4    1  0.4173994E+000  0.1760708E+03  0.7546771E-02  0.1171661E+00
         21   -1    0    0  503  502  0.00000000000E+00  0.00000000000E+00  0.72699893833E+02  0.72699893833E+02  0.00000000000E+00 0.  1.
         21   -1    0    0  501  503 -0.00000000000E+00 -0.00000000000E+00 -0.58006911752E+03  0.58006911752E+03  0.00000000000E+00 0.  1.
          6    1    1    2  501    0  0.16021230630E+02 -0.28552816235E+02 -0.85707638999E+02  0.19582324308E+03  0.17300000000E+03 0.  1.
         -6    1    1    2    0  502 -0.16021230630E+02  0.28552816235E+02 -0.42166158469E+03  0.45694576828E+03  0.17300000000E+03 0.  1.
<mgrwt>
<rscale>  2 0.17607085E+03</rscale>
<asrwt>0</asrwt>
<pdfrwt beam="1">  1       21 0.11184599E-01 0.17607085E+03</pdfrwt>
<pdfrwt beam="2">  1       21 0.89241399E-01 0.17607085E+03</pdfrwt>
<totfact> 0.71811582E+04</totfact>
</mgrwt>
</event>
<event>
 4    1  0.4173994E+000  0.1997587E+03  0.7546771E-02  0.1149943E+00
         21   -1    0    0  501  502  0.00000000000E+00  0.00000000000E+00  0.16371468163E+03  0.16371468163E+03  0.00000000000E+00 0. -1.
         21   -1    0    0  502  503 -0.00000000000E+00 -0.00000000000E+00 -0.24973959578E+03  0.24973959578E+03  0.00000000000E+00 0.  1.
          6    1    1    2  501    0 -0.83904187398E+02  0.54172036520E+02 -0.10966013509E+02  0.20005943031E+03  0.17300000000E+03 0.  1.
         -6    1    1    2    0  503  0.83904187398E+02 -0.54172036520E+02 -0.75058900637E+02  0.21339484710E+03  0.17300000000E+03 0.  1.
<mgrwt>
<rscale>  2 0.19975866E+03</rscale>
<asrwt>0</asrwt>
<pdfrwt beam="1">  1       21 0.25186874E-01 0.19975866E+03</pdfrwt>
<pdfrwt beam="2">  1       21 0.38421476E-01 0.19975866E+03</pdfrwt>
<totfact> 0.97266207E+04</totfact>
</mgrwt>
</event>
<event>
 4    1  0.4173994E+000  0.1809094E+03  0.7546771E-02  0.1166926E+00
         21   -1    0    0  503  502  0.00000000000E+00  0.00000000000E+00  0.35011112041E+03  0.35011112041E+03  0.00000000000E+00 0. -1.
         21   -1    0    0  501  503 -0.00000000000E+00 -0.00000000000E+00 -0.23578154088E+03  0.23578154088E+03  0.00000000000E+00 0. -1.
          6    1    1    2  501    0 -0.20586519591E+02 -0.48738044560E+02 -0.17041766250E+03  0.24853647915E+03  0.17300000000E+03 0. -1.
         -6    1    1    2    0  502  0.20586519591E+02  0.48738044560E+02  0.28474724203E+03  0.33735618213E+03  0.17300000000E+03 0. -1.
<mgrwt>
<rscale>  2 0.18090937E+03</rscale>
<asrwt>0</asrwt>
<pdfrwt beam="1">  1       21 0.53863250E-01 0.18090937E+03</pdfrwt>
<pdfrwt beam="2">  1       21 0.36274083E-01 0.18090937E+03</pdfrwt>
<totfact> 0.24052358E+04</totfact>
</mgrwt>
</event>
<event>
 4    1  0.4173994E+000  0.2477911E+03  0.7546771E-02  0.1114709E+00
         21   -1    0    0  501  502  0.00000000000E+00  0.00000000000E+00  0.39068169037E+02  0.39068169037E+02  0.00000000000E+00 0. -1.
         21   -1    0    0  502  503 -0.00000000000E+00 -0.00000000000E+00 -0.15748377796E+04  0.15748377796E+04  0.00000000000E+00 0. -1.
          6    1    1    2  501    0  0.14714747596E+03  0.99091088425E+02 -0.73142432281E+03  0.77225770536E+03  0.17300000000E+03 0. -1.
         -6    1    1    2    0  503 -0.14714747596E+03 -0.99091088425E+02 -0.80434528778E+03  0.84164824331E+03  0.17300000000E+03 0. -1.
<mgrwt>
<rscale>  2 0.24779109E+03</rscale>
<asrwt>0</asrwt>
<pdfrwt beam="1">  1       21 0.60104871E-02 0.24779109E+03</pdfrwt>
<pdfrwt beam="2">  1       21 0.24228275E+00 0.24779109E+03</pdfrwt>
<totfact> 0.13886069E+04</totfact>
</mgrwt>
</event>
<event>
 4    1  0.4173994E+000  0.2119081E+03  0.7546771E-02  0.1140064E+00
         21   -1    0    0  503  502  0.00000000000E+00  0.00000000000E+00  0.82205320862E+03  0.82205320862E+03  0.00000000000E+00 0.  1.
         21   -1    0    0  501  503 -0.00000000000E+00 -0.00000000000E+00 -0.55777365490E+02  0.55777365490E+02  0.00000000000E+00 0.  1.
          6    1    1    2  501    0  0.10605754626E+03 -0.61056053267E+02  0.32006284040E+03  0.38385578876E+03  0.17300000000E+03 0.  1.
         -6    1    1    2    0  502 -0.10605754626E+03  0.61056053267E+02  0.44621300274E+03  0.49397478536E+03  0.17300000000E+03 0.  1.
<mgrwt>
<rscale>  2 0.21190810E+03</rscale>
<asrwt>0</asrwt>
<pdfrwt beam="1">  1       21 0.12646972E+00 0.21190810E+03</pdfrwt>
<pdfrwt beam="2">  1       21 0.85811338E-02 0.21190810E+03</pdfrwt>
<totfact> 0.48687314E+04</totfact>
</mgrwt>
</event>
<event>
 4    1  0.4173994E+000  0.2046999E+03  0.7546771E-02  0.1145833E+00
         21   -1    0    0  503  502  0.00000000000E+00  0.00000000000E+00  0.51224296634E+03  0.51224296634E+03  0.00000000000E+00 0.  1.
         21   -1    0    0  501  503 -0.00000000000E+00 -0.00000000000E+00 -0.10820166887E+03  0.10820166887E+03  0.00000000000E+00 0.  1.
          6    1    1    2  501    0 -0.75166564884E+02 -0.79517575720E+02  0.48784089277E+02  0.21043275575E+03  0.17300000000E+03 0.  1.
         -6    1    1    2    0  502  0.75166564884E+02  0.79517575720E+02  0.35525720819E+03  0.41001187946E+03  0.17300000000E+03 0.  1.
<mgrwt>
<rscale>  2 0.20469992E+03</rscale>
<asrwt>0</asrwt>
<pdfrwt beam="1">  1       21 0.78806609E-01 0.20469992E+03</pdfrwt>
<pdfrwt beam="2">  1       21 0.16646411E-01 0.20469992E+03</pdfrwt>
<totfact> 0.45854034E+04</totfact>
</mgrwt>
</event>
<event>
 4    1  0.4173994E+000  0.4356422E+03  0.7546771E-02  0.1032092E+00
         21   -1    0    0  503  502  0.00000000000E+00  0.00000000000E+00  0.49964868876E+03  0.49964868876E+03  0.00000000000E+00 0. -1.
         21   -1    0    0  501  503 -0.00000000000E+00 -0.00000000000E+00 -0.63415447826E+03  0.63415447826E+03  0.00000000000E+00 0.  1.
          6    1    1    2  501    0 -0.36928273575E+03  0.15324939832E+03 -0.42625736163E+03  0.60949114460E+03  0.17300000000E+03 0.  1.
         -6    1    1    2    0  502  0.36928273575E+03 -0.15324939832E+03  0.29175157213E+03  0.52431202241E+03  0.17300000000E+03 0. -1.
<mgrwt>
<rscale>  2 0.43564219E+03</rscale>
<asrwt>0</asrwt>
<pdfrwt beam="1">  1       21 0.76869029E-01 0.43564219E+03</pdfrwt>
<pdfrwt beam="2">  1       21 0.97562227E-01 0.43564219E+03</pdfrwt>
<totfact> 0.11226467E+03</totfact>
</mgrwt>
</event>
<event>
 4    1  0.4173994E+000  0.1742032E+03  0.7546771E-02  0.1173534E+00
         21   -1    0    0  503  502  0.00000000000E+00  0.00000000000E+00  0.24936659852E+03  0.24936659852E+03  0.00000000000E+00 0.  1.
         21   -1    0    0  501  503 -0.00000000000E+00 -0.00000000000E+00 -0.23615878400E+03  0.23615878400E+03  0.00000000000E+00 0.  1.
          6    1    1    2  501    0 -0.14240856328E+02 -0.14661013874E+02 -0.16240645751E+03  0.23816507880E+03  0.17300000000E+03 0.  1.
         -6    1    1    2    0  502  0.14240856328E+02  0.14661013874E+02  0.17561427204E+03  0.24736030373E+03  0.17300000000E+03 0.  1.
<mgrwt>
<rscale>  2 0.17420318E+03</rscale>
<asrwt>0</asrwt>
<pdfrwt beam="1">  1       21 0.38364092E-01 0.17420318E+03</pdfrwt>
<pdfrwt beam="2">  1       21 0.36332121E-01 0.17420318E+03</pdfrwt>
<totfact> 0.48293686E+04</totfact>
</mgrwt>
</event>
<event>
 4    1  0.4173994E+000  0.2377838E+03  0.7546771E-02  0.1121278E+00
         21   -1    0    0  503  502  0.00000000000E+00  0.00000000000E+00  0.17263751570E+03  0.17263751570E+03  0.00000000000E+00 0. -1.
         21   -1    0    0  501  503 -0.00000000000E+00 -0.00000000000E+00 -0.36932724520E+03  0.36932724520E+03  0.00000000000E+00 0. -1.
          6    1    1    2  501    0  0.15726776966E+03  0.43347309803E+02 -0.18952373424E+03  0.30407299532E+03  0.17300000000E+03 0. -1.
         -6    1    1    2    0  502 -0.15726776966E+03 -0.43347309803E+02 -0.71659952607E+01  0.23789176558E+03  0.17300000000E+03 0. -1.
<mgrwt>
<rscale>  2 0.23778381E+03</rscale>
<asrwt>0</asrwt>
<pdfrwt beam="1">  1       21 0.26559618E-01 0.23778381E+03</pdfrwt>
<pdfrwt beam="2">  1       21 0.56819576E-01 0.23778381E+03</pdfrwt>
<totfact> 0.38413848E+04</totfact>
</mgrwt>
</event>
<event>
 4    1  0.4173994E+000  0.3944153E+03  0.7546771E-02  0.1045731E+00
         21   -1    0    0  503  502  0.00000000000E+00  0.00000000000E+00  0.61753904232E+03  0.61753904232E+03  0.00000000000E+00 0. -1.
         21   -1    0    0  501  503 -0.00000000000E+00 -0.00000000000E+00 -0.27144157008E+03  0.27144157008E+03  0.00000000000E+00 0.  1.
          6    1    1    2  501    0  0.76757435685E+02 -0.34603860491E+03  0.53812621079E+02  0.39806936356E+03  0.17300000000E+03 0.  1.
         -6    1    1    2    0  502 -0.76757435685E+02  0.34603860491E+03  0.29228485117E+03  0.49091124884E+03  0.17300000000E+03 0. -1.
<mgrwt>
<rscale>  2 0.39441529E+03</rscale>
<asrwt>0</asrwt>
<pdfrwt beam="1">  1       21 0.95006006E-01 0.39441529E+03</pdfrwt>
<pdfrwt beam="2">  1       21 0.41760242E-01 0.39441529E+03</pdfrwt>
<totfact> 0.45736050E+03</totfact>
</mgrwt>
</event>
<event>
 4    1  0.4173994E+000  0.1810651E+03  0.7546771E-02  0.1166776E+00
         21   -1    0    0  503  502  0.00000000000E+00  0.00000000000E+00  0.23395618908E+03  0.23395618908E+03  0.00000000000E+00 0. -1.
         21   -1    0    0  501  503 -0.00000000000E+00 -0.00000000000E+00 -0.14406942920E+03  0.14406942920E+03  0.00000000000E+00 0. -1.
          6    1    1    2  501    0  0.37981513049E+02 -0.37589597177E+02  0.76193599488E+02  0.19644347216E+03  0.17300000000E+03 0. -1.
         -6    1    1    2    0  502 -0.37981513049E+02  0.37589597177E+02  0.13693160390E+02  0.18158214612E+03  0.17300000000E+03 0. -1.
<mgrwt>
<rscale>  2 0.18106511E+03</rscale>
<asrwt>0</asrwt>
<pdfrwt beam="1">  1       21 0.35993260E-01 0.18106511E+03</pdfrwt>
<pdfrwt beam="2">  1       21 0.22164528E-01 0.18106511E+03</pdfrwt>
<totfact> 0.14221767E+05</totfact>
</mgrwt>
</event>
<event>
 4    1  0.4173994E+000  0.1848223E+03  0.7546771E-02  0.1163216E+00
         21   -1    0    0  503  502  0.00000000000E+00  0.00000000000E+00  0.12123888429E+04  0.12123888429E+04  0.00000000000E+00 0.  1.
         21   -1    0    0  501  503 -0.00000000000E+00 -0.00000000000E+00 -0.39534698046E+02  0.39534698046E+02  0.00000000000E+00 0.  1.
          6    1    1    2  501    0 -0.60185549285E+02  0.24657402479E+02  0.25089168506E+03  0.31161823675E+03  0.17300000000E+03 0.  1.
         -6    1    1    2    0  502  0.60185549285E+02 -0.24657402479E+02  0.92196245977E+03  0.94030530418E+03  0.17300000000E+03 0.  1.
<mgrwt>
<rscale>  2 0.18482231E+03</rscale>
<asrwt>0</asrwt>
<pdfrwt beam="1">  1       21 0.18652133E+00 0.18482231E+03</pdfrwt>
<pdfrwt beam="2">  1       21 0.60822622E-02 0.18482231E+03</pdfrwt>
<totfact> 0.31851255E+04</totfact>
</mgrwt>
</event>
<event>
 4    1  0.4173994E+000  0.2499323E+03  0.7546771E-02  0.1113348E+00
         21   -1    0    0  503  502  0.00000000000E+00  0.00000000000E+00  0.38054494541E+03  0.38054494541E+03  0.00000000000E+00 0. -1.
         21   -1    0    0  501  503 -0.00000000000E+00 -0.00000000000E+00 -0.21805474126E+03  0.21805474126E+03  0.00000000000E+00 0. -1.
          6    1    1    2  501    0 -0.18037207820E+03  0.17536434005E+01 -0.67567696805E+02  0.25890452972E+03  0.17300000000E+03 0. -1.
         -6    1    1    2    0  502  0.18037207820E+03 -0.17536434005E+01  0.23005790095E+03  0.33969515694E+03  0.17300000000E+03 0. -1.
<mgrwt>
<rscale>  2 0.24993231E+03</rscale>
<asrwt>0</asrwt>
<pdfrwt beam="1">  1       21 0.58545376E-01 0.24993231E+03</pdfrwt>
<pdfrwt beam="2">  1       21 0.33546883E-01 0.24993231E+03</pdfrwt>
<totfact> 0.22672484E+04</totfact>
</mgrwt>
</event>
<event>
 4    1  0.4173994E+000  0.2303934E+03  0.7546771E-02  0.1126363E+00
         21   -1    0    0  503  502  0.00000000000E+00  0.00000000000E+00  0.30154665039E+03  0.30154665039E+03  0.00000000000E+00 0.  1.
         21   -1    0    0  501  503 -0.00000000000E+00 -0.00000000000E+00 -0.10671651644E+04  0.10671651644E+04  0.00000000000E+00 0.  1.
          6    1    1    2  501    0  0.52078574624E+02 -0.14296838370E+03 -0.10081807613E+04  0.10341709646E+04  0.17300000000E+03 0.  1.
         -6    1    1    2    0  502 -0.52078574624E+02  0.14296838370E+03  0.24256224723E+03  0.33454085020E+03  0.17300000000E+03 0.  1.
<mgrwt>
<rscale>  2 0.23039344E+03</rscale>
<asrwt>0</asrwt>
<pdfrwt beam="1">  1       21 0.46391793E-01 0.23039344E+03</pdfrwt>
<pdfrwt beam="2">  1       21 0.16417926E+00 0.23039344E+03</pdfrwt>
<totfact> 0.10061086E+03</totfact>
</mgrwt>
</event>
<event>
 4    1  0.4173994E+000  0.2381251E+03  0.7546771E-02  0.1121048E+00
         21   -1    0    0  501  502  0.00000000000E+00  0.00000000000E+00  0.69723403434E+02  0.69723403434E+02  0.00000000000E+00 0.  1.
         21   -1    0    0  502  503 -0.00000000000E+00 -0.00000000000E+00 -0.12944481606E+04  0.12944481606E+04  0.00000000000E+00 0.  1.
          6    1    1    2  501    0 -0.86247655121E+02  0.13905363053E+03 -0.10282271121E+04  0.10554404599E+04  0.17300000000E+03 0.  1.
         -6    1    1    2    0  503  0.86247655121E+02 -0.13905363053E+03 -0.19649764501E+03  0.30873110415E+03  0.17300000000E+03 0.  1.
<mgrwt>
<rscale>  2 0.23812511E+03</rscale>
<asrwt>0</asrwt>
<pdfrwt beam="1">  1       21 0.10726678E-01 0.23812511E+03</pdfrwt>
<pdfrwt beam="2">  1       21 0.19914587E+00 0.23812511E+03</pdfrwt>
<totfact> 0.94037919E+03</totfact>
</mgrwt>
</event>
<event>
 4    1  0.4173994E+000  0.2268041E+03  0.7546771E-02  0.1128910E+00
         21   -1    0    0  501  502  0.00000000000E+00  0.00000000000E+00  0.17715381193E+03  0.17715381193E+03  0.00000000000E+00 0. -1.
         21   -1    0    0  502  503 -0.00000000000E+00 -0.00000000000E+00 -0.62422380880E+03  0.62422380880E+03  0.00000000000E+00 0.  1.
          6    1    1    2  501    0  0.70160577708E+02  0.12879672574E+03  0.69497236849E+02  0.23721291945E+03  0.17300000000E+03 0. -1.
         -6    1    1    2    0  503 -0.70160577708E+02 -0.12879672574E+03 -0.51656723371E+03  0.56416470128E+03  0.17300000000E+03 0.  1.
<mgrwt>
<rscale>  2 0.22680411E+03</rscale>
<asrwt>0</asrwt>
<pdfrwt beam="1">  1       21 0.27254432E-01 0.22680411E+03</pdfrwt>
<pdfrwt beam="2">  1       21 0.96034433E-01 0.22680411E+03</pdfrwt>
<totfact> 0.11335176E+04</totfact>
</mgrwt>
</event>
<event>
 4    1  0.4173994E+000  0.3120009E+03  0.7546771E-02  0.1079391E+00
         21   -1    0    0  501  502  0.00000000000E+00  0.00000000000E+00  0.92659270948E+03  0.92659270948E+03  0.00000000000E+00 0. -1.
         21   -1    0    0  502  503 -0.00000000000E+00 -0.00000000000E+00 -0.11286804811E+03  0.11286804811E+03  0.00000000000E+00 0.  1.
          6    1    1    2  501    0 -0.25106695141E+03 -0.66188576109E+02  0.54359192014E+03  0.62676687639E+03  0.17300000000E+03 0.  1.
         -6    1    1    2    0  503  0.25106695141E+03  0.66188576109E+02  0.27013274123E+03  0.41269388120E+03  0.17300000000E+03 0. -1.
<mgrwt>
<rscale>  2 0.31200087E+03</rscale>
<asrwt>0</asrwt>
<pdfrwt beam="1">  1       21 0.14255272E+00 0.31200087E+03</pdfrwt>
<pdfrwt beam="2">  1       21 0.17364316E-01 0.31200087E+03</pdfrwt>
<totfact> 0.95367365E+03</totfact>
</mgrwt>
</event>
<event>
 4    1  0.4173994E+000  0.2370551E+03  0.7546771E-02  0.1121770E+00
         21   -1    0    0  503  502  0.00000000000E+00  0.00000000000E+00  0.23918625325E+03  0.23918625325E+03  0.00000000000E+00 0. -1.
         21   -1    0    0  501  503 -0.00000000000E+00 -0.00000000000E+00 -0.82055988769E+03  0.82055988769E+03  0.00000000000E+00 0. -1.
          6    1    1    2  501    0 -0.15916426003E+03 -0.30542351910E+02 -0.73832132965E+03  0.77544405520E+03  0.17300000000E+03 0. -1.
         -6    1    1    2    0  502  0.15916426003E+03  0.30542351910E+02  0.15694769520E+03  0.28430208575E+03  0.17300000000E+03 0. -1.
<mgrwt>
<rscale>  2 0.23705505E+03</rscale>
<asrwt>0</asrwt>
<pdfrwt beam="1">  1       21 0.36797885E-01 0.23705505E+03</pdfrwt>
<pdfrwt beam="2">  1       21 0.12623998E+00 0.23705505E+03</pdfrwt>
<totfact> 0.31980785E+03</totfact>
</mgrwt>
</event>
<event>
 4    1  0.4173994E+000  0.1968348E+03  0.7546771E-02  0.1152437E+00
         21   -1    0    0  501  502  0.00000000000E+00  0.00000000000E+00  0.71098396018E+02  0.71098396018E+02  0.00000000000E+00 0.  1.
         21   -1    0    0  502  503 -0.00000000000E+00 -0.00000000000E+00 -0.66440545386E+03  0.66440545386E+03  0.00000000000E+00 0.  1.
          6    1    1    2  501    0  0.29164915608E+02 -0.89243190487E+02 -0.14070895043E+03  0.24195650039E+03  0.17300000000E+03 0.  1.
         -6    1    1    2    0  503 -0.29164915608E+02  0.89243190487E+02 -0.45259810741E+03  0.49354734949E+03  0.17300000000E+03 0.  1.
<mgrwt>
<rscale>  2 0.19683480E+03</rscale>
<asrwt>0</asrwt>
<pdfrwt beam="1">  1       21 0.10938215E-01 0.19683480E+03</pdfrwt>
<pdfrwt beam="2">  1       21 0.10221622E+00 0.19683480E+03</pdfrwt>
<totfact> 0.53823614E+04</totfact>
</mgrwt>
</event>
<event>
 4    1  0.4173994E+000  0.2093380E+03  0.7546771E-02  0.1142091E+00
         21   -1    0    0  503  502  0.00000000000E+00  0.00000000000E+00  0.31920697822E+04  0.31920697822E+04  0.00000000000E+00 0. -1.
         21   -1    0    0  501  503 -0.00000000000E+00 -0.00000000000E+00 -0.33001664448E+03  0.33001664448E+03  0.00000000000E+00 0.  1.
          6    1    1    2  501    0 -0.17791971824E+02 -0.11651979570E+03 -0.29299831090E+03  0.36009780233E+03  0.17300000000E+03 0.  1.
         -6    1    1    2    0  502  0.17791971824E+02  0.11651979570E+03  0.31550514486E+04  0.31619886243E+04  0.17300000000E+03 0. -1.
<mgrwt>
<rscale>  2 0.20933804E+03</rscale>
<asrwt>0</asrwt>
<pdfrwt beam="1">  1       21 0.49108764E+00 0.20933804E+03</pdfrwt>
<pdfrwt beam="2">  1       21 0.50771794E-01 0.20933804E+03</pdfrwt>
<totfact> 0.77919842E+00</totfact>
</mgrwt>
</event>
<event>
 4    1  0.4173994E+000  0.1926744E+03  0.7546771E-02  0.1156071E+00
         21   -1    0    0  501  502  0.00000000000E+00  0.00000000000E+00  0.58539530443E+02  0.58539530443E+02  0.00000000000E+00 0. -1.
         21   -1    0    0  502  503 -0.00000000000E+00 -0.00000000000E+00 -0.69204236262E+03  0.69204236262E+03  0.00000000000E+00 0. -1.
          6    1    1    2  501    0  0.84720908735E+02  0.40989495597E+01 -0.20821523337E+03  0.28368471438E+03  0.17300000000E+03 0. -1.
         -6    1    1    2    0  503 -0.84720908735E+02 -0.40989495597E+01 -0.42528759881E+03  0.46689717868E+03  0.17300000000E+03 0. -1.
<mgrwt>
<rscale>  2 0.19267442E+03</rscale>
<asrwt>0</asrwt>
<pdfrwt beam="1">  1       21 0.90060816E-02 0.19267442E+03</pdfrwt>
<pdfrwt beam="2">  1       21 0.10646806E+00 0.19267442E+03</pdfrwt>
<totfact> 0.68946511E+04</totfact>
</mgrwt>
</event>
<event>
 4    1  0.4173994E+000  0.1751347E+03  0.7546771E-02  0.1172597E+00
         21   -1    0    0  503  502  0.00000000000E+00  0.00000000000E+00  0.84500847756E+03  0.84500847756E+03  0.00000000000E+00 0. -1.
         21   -1    0    0  501  503 -0.00000000000E+00 -0.00000000000E+00 -0.10148390745E+03  0.10148390745E+03  0.00000000000E+00 0. -1.
          6    1    1    2  501    0 -0.25092945480E+02  0.10654314406E+02 -0.75222967830E+01  0.17529619299E+03  0.17300000000E+03 0. -1.
         -6    1    1    2    0  502  0.25092945480E+02 -0.10654314406E+02  0.75104686689E+03  0.77119619203E+03  0.17300000000E+03 0. -1.
<mgrwt>
<rscale>  2 0.17513472E+03</rscale>
<asrwt>0</asrwt>
<pdfrwt beam="1">  1       21 0.13000130E+00 0.17513472E+03</pdfrwt>
<pdfrwt beam="2">  1       21 0.15612909E-01 0.17513472E+03</pdfrwt>
<totfact> 0.15952548E+04</totfact>
</mgrwt>
</event>
<event>
 4    1  0.4173994E+000  0.2111933E+03  0.7546771E-02  0.1140625E+00
         21   -1    0    0  503  502  0.00000000000E+00  0.00000000000E+00  0.14169353984E+04  0.14169353984E+04  0.00000000000E+00 0. -1.
         21   -1    0    0  501  503 -0.00000000000E+00 -0.00000000000E+00 -0.20934361906E+03  0.20934361906E+03  0.00000000000E+00 0. -1.
          6    1    1    2  501    0 -0.58057576476E+02 -0.10631520470E+03 -0.14572015485E+03  0.25658715569E+03  0.17300000000E+03 0. -1.
         -6    1    1    2    0  502  0.58057576476E+02  0.10631520470E+03  0.13533119342E+04  0.13696918618E+04  0.17300000000E+03 0. -1.
<mgrwt>
<rscale>  2 0.21119329E+03</rscale>
<asrwt>0</asrwt>
<pdfrwt beam="1">  1       21 0.21799006E+00 0.21119329E+03</pdfrwt>
<pdfrwt beam="2">  1       21 0.32206712E-01 0.21119329E+03</pdfrwt>
<totfact> 0.93993603E+02</totfact>
</mgrwt>
</event>
<event>
 4    1  0.4173994E+000  0.2389792E+03  0.7546771E-02  0.1120475E+00
         21   -1    0    0  503  502  0.00000000000E+00  0.00000000000E+00  0.14578337766E+04  0.14578337766E+04  0.00000000000E+00 0. -1.
         21   -1    0    0  501  503 -0.00000000000E+00 -0.00000000000E+00 -0.42355261275E+02  0.42355261275E+02  0.00000000000E+00 0.  1.
          6    1    1    2  501    0 -0.53284092914E+02 -0.15602206665E+03  0.50221029796E+03  0.55617107369E+03  0.17300000000E+03 0.  1.
         -6    1    1    2    0  502  0.53284092914E+02  0.15602206665E+03  0.91326821737E+03  0.94401796418E+03  0.17300000000E+03 0. -1.
<mgrwt>
<rscale>  2 0.23897925E+03</rscale>
<asrwt>0</asrwt>
<pdfrwt beam="1">  1       21 0.22428208E+00 0.23897925E+03</pdfrwt>
<pdfrwt beam="2">  1       21 0.65161952E-02 0.23897925E+03</pdfrwt>
<totfact> 0.15637407E+04</totfact>
</mgrwt>
</event>
<event>
 4    1  0.4173994E+000  0.2179542E+03  0.7546771E-02  0.1135418E+00
         21   -1    0    0  503  502  0.00000000000E+00  0.00000000000E+00  0.12574435632E+03  0.12574435632E+03  0.00000000000E+00 0.  1.
         21   -1    0    0  501  503 -0.00000000000E+00 -0.00000000000E+00 -0.38245286051E+03  0.38245286051E+03  0.00000000000E+00 0. -1.
          6    1    1    2  501    0 -0.13162737254E+03  0.15787568991E+02 -0.15643381160E+03  0.26828259345E+03  0.17300000000E+03 0. -1.
         -6    1    1    2    0  502  0.13162737254E+03 -0.15787568991E+02 -0.10027469259E+03  0.23991462338E+03  0.17300000000E+03 0. -1.
<mgrwt>
<rscale>  2 0.21795415E+03</rscale>
<asrwt>0</asrwt>
<pdfrwt beam="1">  1       21 0.19345286E-01 0.21795415E+03</pdfrwt>
<pdfrwt beam="2">  1       21 0.58838900E-01 0.21795415E+03</pdfrwt>
<totfact> 0.65619580E+04</totfact>
</mgrwt>
</event>
<event>
 4    1  0.4173994E+000  0.3561957E+03  0.7546771E-02  0.1060100E+00
         21   -1    0    0  503  502  0.00000000000E+00  0.00000000000E+00  0.88090764087E+03  0.88090764087E+03  0.00000000000E+00 0.  1.
         21   -1    0    0  501  503 -0.00000000000E+00 -0.00000000000E+00 -0.25133689279E+03  0.25133689279E+03  0.00000000000E+00 0. -1.
          6    1    1    2  501    0 -0.72976036966E+02  0.30268938004E+03 -0.55127954419E+02  0.36043647723E+03  0.17300000000E+03 0. -1.
         -6    1    1    2    0  502  0.72976036966E+02 -0.30268938004E+03  0.68469870250E+03  0.77180805642E+03  0.17300000000E+03 0.  1.
<mgrwt>
<rscale>  2 0.35619568E+03</rscale>
<asrwt>0</asrwt>
<pdfrwt beam="1">  1       21 0.13552425E+00 0.35619568E+03</pdfrwt>
<pdfrwt beam="2">  1       21 0.38667215E-01 0.35619568E+03</pdfrwt>
<totfact> 0.22468817E+03</totfact>
</mgrwt>
</event>
<event>
 4    1  0.4173994E+000  0.1889601E+03  0.7546771E-02  0.1159403E+00
         21   -1    0    0  501  502  0.00000000000E+00  0.00000000000E+00  0.91335721846E+02  0.91335721846E+02  0.00000000000E+00 0.  1.
         21   -1    0    0  502  503 -0.00000000000E+00 -0.00000000000E+00 -0.49758049031E+03  0.49758049031E+03  0.00000000000E+00 0.  1.
          6    1    1    2  501    0  0.57732324603E+02  0.49435811557E+02 -0.66798415052E+02  0.20041943274E+03  0.17300000000E+03 0.  1.
         -6    1    1    2    0  503 -0.57732324603E+02 -0.49435811557E+02 -0.33944635341E+03  0.38849677941E+03  0.17300000000E+03 0.  1.
<mgrwt>
<rscale>  2 0.18896010E+03</rscale>
<asrwt>0</asrwt>
<pdfrwt beam="1">  1       21 0.14051649E-01 0.18896010E+03</pdfrwt>
<pdfrwt beam="2">  1       21 0.76550846E-01 0.18896010E+03</pdfrwt>
<totfact> 0.67192177E+04</totfact>
</mgrwt>
</event>
<event>
 4    1  0.4173994E+000  0.1755459E+03  0.7546771E-02  0.1172185E+00
         21   -1    0    0  503  502  0.00000000000E+00  0.00000000000E+00  0.23183786734E+03  0.23183786734E+03  0.00000000000E+00 0. -1.
         21   -1    0    0  501  503 -0.00000000000E+00 -0.00000000000E+00 -0.13649211311E+03  0.13649211311E+03  0.00000000000E+00 0. -1.
          6    1    1    2  501    0 -0.18545867441E+02  0.23310948568E+02  0.17888042253E+02  0.17645489956E+03  0.17300000000E+03 0. -1.
         -6    1    1    2    0  502  0.18545867441E+02 -0.23310948568E+02  0.77457711971E+02  0.19187508089E+03  0.17300000000E+03 0. -1.
<mgrwt>
<rscale>  2 0.17554586E+03</rscale>
<asrwt>0</asrwt>
<pdfrwt beam="1">  1       21 0.35667364E-01 0.17554586E+03</pdfrwt>
<pdfrwt beam="2">  1       21 0.20998787E-01 0.17554586E+03</pdfrwt>
<totfact> 0.16056446E+05</totfact>
</mgrwt>
</event>
<event>
 4    1  0.4173994E+000  0.2174951E+03  0.7546771E-02  0.1135764E+00
         21   -1    0    0  503  502  0.00000000000E+00  0.00000000000E+00  0.22347105925E+03  0.22347105925E+03  0.00000000000E+00 0.  1.
         21   -1    0    0  501  503 -0.00000000000E+00 -0.00000000000E+00 -0.26241334757E+03  0.26241334757E+03  0.00000000000E+00 0.  1.
          6    1    1    2  501    0 -0.85498367885E+02 -0.10032524055E+03 -0.12629325400E+03  0.25150369940E+03  0.17300000000E+03 0.  1.
         -6    1    1    2    0  502  0.85498367885E+02  0.10032524055E+03  0.87350965684E+02  0.23438070742E+03  0.17300000000E+03 0.  1.
<mgrwt>
<rscale>  2 0.21749511E+03</rscale>
<asrwt>0</asrwt>
<pdfrwt beam="1">  1       21 0.34380163E-01 0.21749511E+03</pdfrwt>
<pdfrwt beam="2">  1       21 0.40371284E-01 0.21749511E+03</pdfrwt>
<totfact> 0.47629071E+04</totfact>
</mgrwt>
</event>
<event>
 4    1  0.4173994E+000  0.2911355E+03  0.7546771E-02  0.1089758E+00
         21   -1    0    0  503  502  0.00000000000E+00  0.00000000000E+00  0.30505509539E+03  0.30505509539E+03  0.00000000000E+00 0. -1.
         21   -1    0    0  501  503 -0.00000000000E+00 -0.00000000000E+00 -0.27874257576E+03  0.27874257576E+03  0.00000000000E+00 0. -1.
          6    1    1    2  501    0 -0.23404485143E+03 -0.73397006645E+01 -0.33523131308E+01  0.29115477274E+03  0.17300000000E+03 0. -1.
         -6    1    1    2    0  502  0.23404485143E+03  0.73397006645E+01  0.29664832764E+02  0.29264289841E+03  0.17300000000E+03 0. -1.
<mgrwt>
<rscale>  2 0.29113547E+03</rscale>
<asrwt>0</asrwt>
<pdfrwt beam="1">  1       21 0.46931553E-01 0.29113547E+03</pdfrwt>
<pdfrwt beam="2">  1       21 0.42883473E-01 0.29113547E+03</pdfrwt>
<totfact> 0.21649679E+04</totfact>
</mgrwt>
</event>
<event>
 4    1  0.4173994E+000  0.2206219E+03  0.7546771E-02  0.1133420E+00
         21   -1    0    0  503  502  0.00000000000E+00  0.00000000000E+00  0.16882299821E+03  0.16882299821E+03  0.00000000000E+00 0. -1.
         21   -1    0    0  501  503 -0.00000000000E+00 -0.00000000000E+00 -0.29919137743E+03  0.29919137743E+03  0.00000000000E+00 0. -1.
          6    1    1    2  501    0 -0.49391630856E+02 -0.12769290509E+03 -0.10980314967E+03  0.24643608276E+03  0.17300000000E+03 0. -1.
         -6    1    1    2    0  502  0.49391630856E+02  0.12769290509E+03 -0.20565229547E+02  0.22157829288E+03  0.17300000000E+03 0. -1.
<mgrwt>
<rscale>  2 0.22062187E+03</rscale>
<asrwt>0</asrwt>
<pdfrwt beam="1">  1       21 0.25972769E-01 0.22062187E+03</pdfrwt>
<pdfrwt beam="2">  1       21 0.46029442E-01 0.22062187E+03</pdfrwt>
<totfact> 0.62897461E+04</totfact>
</mgrwt>
</event>
<event>
 4    1  0.4173994E+000  0.1853150E+03  0.7546771E-02  0.1162756E+00
         21   -1    0    0  503  502  0.00000000000E+00  0.00000000000E+00  0.28425032013E+02  0.28425032013E+02  0.00000000000E+00 0.  1.
         21   -1    0    0  501  503 -0.00000000000E+00 -0.00000000000E+00 -0.15733980412E+04  0.15733980412E+04  0.00000000000E+00 0.  1.
          6    1    1    2  501    0 -0.65993492079E+02  0.75832818015E+01 -0.11583736845E+04  0.11731032521E+04  0.17300000000E+03 0.  1.
         -6    1    1    2    0  502  0.65993492079E+02 -0.75832818015E+01 -0.38659932466E+03  0.42871982108E+03  0.17300000000E+03 0.  1.
<mgrwt>
<rscale>  2 0.18531499E+03</rscale>
<asrwt>0</asrwt>
<pdfrwt beam="1">  1       21 0.43730817E-02 0.18531499E+03</pdfrwt>
<pdfrwt beam="2">  1       21 0.24206125E+00 0.18531499E+03</pdfrwt>
<totfact> 0.25140171E+04</totfact>
</mgrwt>
</event>
<event>
 4    1  0.4173994E+000  0.2073192E+03  0.7546771E-02  0.1143707E+00
         21   -1    0    0  501  502  0.00000000000E+00  0.00000000000E+00  0.13072559288E+04  0.13072559288E+04  0.00000000000E+00 0. -1.
         21   -1    0    0  502  503 -0.00000000000E+00 -0.00000000000E+00 -0.37185815585E+02  0.37185815585E+02  0.00000000000E+00 0. -1.
          6    1    1    2  501    0  0.98961700368E+02 -0.57086148672E+02  0.86380675264E+03  0.88833740911E+03  0.17300000000E+03 0. -1.
         -6    1    1    2    0  503 -0.98961700368E+02  0.57086148672E+02  0.40626336053E+03  0.45610433523E+03  0.17300000000E+03 0. -1.
<mgrwt>
<rscale>  2 0.20731919E+03</rscale>
<asrwt>0</asrwt>
<pdfrwt beam="1">  1       21 0.20111626E+00 0.20731919E+03</pdfrwt>
<pdfrwt beam="2">  1       21 0.57208957E-02 0.20731919E+03</pdfrwt>
<totfact> 0.27956652E+04</totfact>
</mgrwt>
</event>
<event>
 4    1  0.4173994E+000  0.1811574E+03  0.7546771E-02  0.1166688E+00
         21   -1    0    0  501  502  0.00000000000E+00  0.00000000000E+00  0.23323744471E+03  0.23323744471E+03  0.00000000000E+00 0. -1.
         21   -1    0    0  502  503 -0.00000000000E+00 -0.00000000000E+00 -0.34836886731E+03  0.34836886731E+03  0.00000000000E+00 0. -1.
          6    1    1    2  501    0 -0.53725053057E+02  0.16247029649E+01  0.16695601015E+03  0.24635813425E+03  0.17300000000E+03 0. -1.
         -6    1    1    2    0  503  0.53725053057E+02 -0.16247029649E+01 -0.28208743275E+03  0.33524817777E+03  0.17300000000E+03 0. -1.
<mgrwt>
<rscale>  2 0.18115745E+03</rscale>
<asrwt>0</asrwt>
<pdfrwt beam="1">  1       21 0.35882684E-01 0.18115745E+03</pdfrwt>
<pdfrwt beam="2">  1       21 0.53595210E-01 0.18115745E+03</pdfrwt>
<totfact> 0.24832874E+04</totfact>
</mgrwt>
</event>
<event>
 4    1  0.4173994E+000  0.2211725E+03  0.7546771E-02  0.1133012E+00
         21   -1    0    0  503  502  0.00000000000E+00  0.00000000000E+00  0.66551660037E+02  0.66551660037E+02  0.00000000000E+00 0.  1.
         21   -1    0    0  501  503 -0.00000000000E+00 -0.00000000000E+00 -0.23849039310E+04  0.23849039310E+04  0.00000000000E+00 0.  1.
          6    1    1    2  501    0  0.67241879880E+02  0.12027810224E+03 -0.21786692924E+04  0.21898669315E+04  0.17300000000E+03 0.  1.
         -6    1    1    2    0  502 -0.67241879880E+02 -0.12027810224E+03 -0.13968297865E+03  0.26158865956E+03  0.17300000000E+03 0.  1.
<mgrwt>
<rscale>  2 0.22117254E+03</rscale>
<asrwt>0</asrwt>
<pdfrwt beam="1">  1       21 0.10238717E-01 0.22117254E+03</pdfrwt>
<pdfrwt beam="2">  1       21 0.36690828E+00 0.22117254E+03</pdfrwt>
<totfact> 0.10375361E+03</totfact>
</mgrwt>
</event>
<event>
 4    1  0.4173994E+000  0.1737641E+03  0.7546771E-02  0.1173978E+00
         21   -1    0    0  503  502  0.00000000000E+00  0.00000000000E+00  0.19375354204E+03  0.19375354204E+03  0.00000000000E+00 0. -1.
         21   -1    0    0  501  503 -0.00000000000E+00 -0.00000000000E+00 -0.21519161575E+03  0.21519161575E+03  0.00000000000E+00 0. -1.
          6    1    1    2  501    0  0.24479639206E+01  0.16092661408E+02 -0.11810554834E+03  0.21010208668E+03  0.17300000000E+03 0. -1.
         -6    1    1    2    0  502 -0.24479639206E+01 -0.16092661408E+02  0.96667474632E+02  0.19884307111E+03  0.17300000000E+03 0. -1.
<mgrwt>
<rscale>  2 0.17376411E+03</rscale>
<asrwt>0</asrwt>
<pdfrwt beam="1">  1       21 0.29808237E-01 0.17376411E+03</pdfrwt>
<pdfrwt beam="2">  1       21 0.33106402E-01 0.17376411E+03</pdfrwt>
<totfact> 0.95482784E+04</totfact>
</mgrwt>
</event>
<event>
 4    1  0.4173994E+000  0.2643525E+03  0.7546771E-02  0.1104556E+00
         21   -1    0    0  501  502  0.00000000000E+00  0.00000000000E+00  0.15841139067E+04  0.15841139067E+04  0.00000000000E+00 0.  1.
         21   -1    0    0  502  503 -0.00000000000E+00 -0.00000000000E+00 -0.77873331705E+02  0.77873331705E+02  0.00000000000E+00 0. -1.
          6    1    1    2  501    0 -0.36367752158E+02  0.19654680349E+03  0.13002591432E+04  0.13268594873E+04  0.17300000000E+03 0.  1.
         -6    1    1    2    0  503  0.36367752158E+02 -0.19654680349E+03  0.20598143175E+03  0.33512775114E+03  0.17300000000E+03 0. -1.
<mgrwt>
<rscale>  2 0.26435253E+03</rscale>
<asrwt>0</asrwt>
<pdfrwt beam="1">  1       21 0.24370981E+00 0.26435253E+03</pdfrwt>
<pdfrwt beam="2">  1       21 0.11980514E-01 0.26435253E+03</pdfrwt>
<totfact> 0.39950373E+03</totfact>
</mgrwt>
</event>
<event>
 4    1  0.4173994E+000  0.2123089E+03  0.7546771E-02  0.1139751E+00
         21   -1    0    0  501  502  0.00000000000E+00  0.00000000000E+00  0.40030061675E+03  0.40030061675E+03  0.00000000000E+00 0.  1.
         21   -1    0    0  502  503 -0.00000000000E+00 -0.00000000000E+00 -0.14745265864E+03  0.14745265864E+03  0.00000000000E+00 0.  1.
          6    1    1    2  501    0  0.11074527625E+03 -0.53680067032E+02  0.25956985137E+03  0.33533799897E+03  0.17300000000E+03 0.  1.
         -6    1    1    2    0  503 -0.11074527625E+03  0.53680067032E+02 -0.67218932699E+01  0.21241527642E+03  0.17300000000E+03 0.  1.
<mgrwt>
<rscale>  2 0.21230889E+03</rscale>
<asrwt>0</asrwt>
<pdfrwt beam="1">  1       21 0.61584710E-01 0.21230889E+03</pdfrwt>
<pdfrwt beam="2">  1       21 0.22685025E-01 0.21230889E+03</pdfrwt>
<totfact> 0.44194154E+04</totfact>
</mgrwt>
</event>
<event>
 4    1  0.4173994E+000  0.1934593E+03  0.7546771E-02  0.1155378E+00
         21   -1    0    0  501  502  0.00000000000E+00  0.00000000000E+00  0.29648499886E+03  0.29648499886E+03  0.00000000000E+00 0. -1.
         21   -1    0    0  502  503 -0.00000000000E+00 -0.00000000000E+00 -0.12676032598E+03  0.12676032598E+03  0.00000000000E+00 0.  1.
          6    1    1    2  501    0  0.10860916159E+02 -0.85904256868E+02  0.71226583716E+02  0.20615461934E+03  0.17300000000E+03 0.  1.
         -6    1    1    2    0  503 -0.10860916159E+02  0.85904256868E+02  0.98498089162E+02  0.21709070550E+03  0.17300000000E+03 0. -1.
<mgrwt>
<rscale>  2 0.19345930E+03</rscale>
<asrwt>0</asrwt>
<pdfrwt beam="1">  1       21 0.45613076E-01 0.19345930E+03</pdfrwt>
<pdfrwt beam="2">  1       21 0.19501589E-01 0.19345930E+03</pdfrwt>
<totfact> 0.11148386E+05</totfact>
</mgrwt>
</event>
<event>
 4    1  0.4173994E+000  0.2144863E+03  0.7546771E-02  0.1138062E+00
         21   -1    0    0  503  502  0.00000000000E+00  0.00000000000E+00  0.88672556635E+03  0.88672556635E+03  0.00000000000E+00 0.  1.
         21   -1    0    0  501  503 -0.00000000000E+00 -0.00000000000E+00 -0.51881457293E+02  0.51881457293E+02  0.00000000000E+00 0.  1.
          6    1    1    2  501    0 -0.90859930712E+02 -0.88429916521E+02  0.41848826926E+03  0.47025185662E+03  0.17300000000E+03 0.  1.
         -6    1    1    2    0  502  0.90859930712E+02  0.88429916521E+02  0.41635583980E+03  0.46835516703E+03  0.17300000000E+03 0.  1.
<mgrwt>
<rscale>  2 0.21448631E+03</rscale>
<asrwt>0</asrwt>
<pdfrwt beam="1">  1       21 0.13641931E+00 0.21448631E+03</pdfrwt>
<pdfrwt beam="2">  1       21 0.79817633E-02 0.21448631E+03</pdfrwt>
<totfact> 0.45534171E+04</totfact>
</mgrwt>
</event>
<event>
 4    1  0.4173994E+000  0.1940177E+03  0.7546771E-02  0.1154887E+00
         21   -1    0    0  503  502  0.00000000000E+00  0.00000000000E+00  0.11504609153E+03  0.11504609153E+03  0.00000000000E+00 0. -1.
         21   -1    0    0  501  503 -0.00000000000E+00 -0.00000000000E+00 -0.57585370942E+03  0.57585370942E+03  0.00000000000E+00 0. -1.
          6    1    1    2  501    0 -0.58180189782E+02 -0.65794640202E+02 -0.45740496444E+03  0.49685226241E+03  0.17300000000E+03 0. -1.
         -6    1    1    2    0  502  0.58180189782E+02  0.65794640202E+02 -0.34026534491E+01  0.19404753854E+03  0.17300000000E+03 0. -1.
<mgrwt>
<rscale>  2 0.19401770E+03</rscale>
<asrwt>0</asrwt>
<pdfrwt beam="1">  1       21 0.17699399E-01 0.19401770E+03</pdfrwt>
<pdfrwt beam="2">  1       21 0.88592876E-01 0.19401770E+03</pdfrwt>
<totfact> 0.31534078E+04</totfact>
</mgrwt>
</event>
<event>
 4    1  0.4173994E+000  0.1942206E+03  0.7546771E-02  0.1154709E+00
         21   -1    0    0  503  502  0.00000000000E+00  0.00000000000E+00  0.88013084659E+02  0.88013084659E+02  0.00000000000E+00 0. -1.
         21   -1    0    0  501  503 -0.00000000000E+00 -0.00000000000E+00 -0.42884897731E+03  0.42884897731E+03  0.00000000000E+00 0. -1.
          6    1    1    2  501    0  0.82381415376E+02  0.31716465409E+02 -0.16408170122E+03  0.25425270196E+03  0.17300000000E+03 0. -1.
         -6    1    1    2    0  502 -0.82381415376E+02 -0.31716465409E+02 -0.17675419143E+03  0.26260936001E+03  0.17300000000E+03 0. -1.
<mgrwt>
<rscale>  2 0.19422058E+03</rscale>
<asrwt>0</asrwt>
<pdfrwt beam="1">  1       21 0.13540474E-01 0.19422058E+03</pdfrwt>
<pdfrwt beam="2">  1       21 0.65976766E-01 0.19422058E+03</pdfrwt>
<totfact> 0.99588382E+04</totfact>
</mgrwt>
</event>
<event>
 4    1  0.4173994E+000  0.1972858E+03  0.7546771E-02  0.1152049E+00
         21   -1    0    0  501  502  0.00000000000E+00  0.00000000000E+00  0.79928655959E+02  0.79928655959E+02  0.00000000000E+00 0.  1.
         21   -1    0    0  502  503 -0.00000000000E+00 -0.00000000000E+00 -0.60915815757E+03  0.60915815757E+03  0.00000000000E+00 0.  1.
          6    1    1    2  501    0  0.71206373019E+02 -0.62628722992E+02 -0.11029585537E+03  0.22602406999E+03  0.17300000000E+03 0.  1.
         -6    1    1    2    0  503 -0.71206373019E+02  0.62628722992E+02 -0.41893364624E+03  0.46306274354E+03  0.17300000000E+03 0.  1.
<mgrwt>
<rscale>  2 0.19728584E+03</rscale>
<asrwt>0</asrwt>
<pdfrwt beam="1">  1       21 0.12296716E-01 0.19728584E+03</pdfrwt>
<pdfrwt beam="2">  1       21 0.93716642E-01 0.19728584E+03</pdfrwt>
<totfact> 0.53590855E+04</totfact>
</mgrwt>
</event>
<event>
 4    1  0.4173994E+000  0.2015877E+03  0.7546771E-02  0.1148406E+00
         21   -1    0    0  501  502  0.00000000000E+00  0.00000000000E+00  0.28344755331E+02  0.28344755331E+02  0.00000000000E+00 0. -1.
         21   -1    0    0  502  503 -0.00000000000E+00 -0.00000000000E+00 -0.14770182337E+04  0.14770182337E+04  0.00000000000E+00 0. -1.
          6    1    1    2  501    0  0.74838348249E+02 -0.71469144171E+02 -0.59542292991E+03  0.62862236867E+03  0.17300000000E+03 0. -1.
         -6    1    1    2    0  503 -0.74838348249E+02  0.71469144171E+02 -0.85325054849E+03  0.87674062039E+03  0.17300000000E+03 0. -1.
<mgrwt>
<rscale>  2 0.20158774E+03</rscale>
<asrwt>0</asrwt>
<pdfrwt beam="1">  1       21 0.43607306E-02 0.20158774E+03</pdfrwt>
<pdfrwt beam="2">  1       21 0.22723363E+00 0.20158774E+03</pdfrwt>
<totfact> 0.30594899E+04</totfact>
</mgrwt>
</event>
<event>
 4    1  0.4173994E+000  0.2237770E+03  0.7546771E-02  0.1131098E+00
         21   -1    0    0  501  502  0.00000000000E+00  0.00000000000E+00  0.17535859161E+04  0.17535859161E+04  0.00000000000E+00 0.  1.
         21   -1    0    0  502  503 -0.00000000000E+00 -0.00000000000E+00 -0.29420392395E+02  0.29420392395E+02  0.00000000000E+00 0.  1.
          6    1    1    2  501    0  0.83341334527E+02 -0.11489715890E+03  0.10148564968E+04  0.10392352209E+04  0.17300000000E+03 0.  1.
         -6    1    1    2    0  503 -0.83341334527E+02  0.11489715890E+03  0.70930902690E+03  0.74377108764E+03  0.17300000000E+03 0.  1.
<mgrwt>
<rscale>  2 0.22377698E+03</rscale>
<asrwt>0</asrwt>
<pdfrwt beam="1">  1       21 0.26978237E+00 0.22377698E+03</pdfrwt>
<pdfrwt beam="2">  1       21 0.45262156E-02 0.22377698E+03</pdfrwt>
<totfact> 0.15780155E+04</totfact>
</mgrwt>
</event>
<event>
 4    1  0.4173994E+000  0.1819196E+03  0.7546771E-02  0.1165958E+00
         21   -1    0    0  501  502  0.00000000000E+00  0.00000000000E+00  0.86487459838E+03  0.86487459838E+03  0.00000000000E+00 0.  1.
         21   -1    0    0  502  503 -0.00000000000E+00 -0.00000000000E+00 -0.46889044888E+02  0.46889044888E+02  0.00000000000E+00 0.  1.
          6    1    1    2  501    0 -0.51689559135E+02  0.22224454243E+02  0.60450010891E+03  0.63128053872E+03  0.17300000000E+03 0.  1.
         -6    1    1    2    0  503  0.51689559135E+02 -0.22224454243E+02  0.21348544458E+03  0.28048310455E+03  0.17300000000E+03 0.  1.
<mgrwt>
<rscale>  2 0.18191959E+03</rscale>
<asrwt>0</asrwt>
<pdfrwt beam="1">  1       21 0.13305762E+00 0.18191959E+03</pdfrwt>
<pdfrwt beam="2">  1       21 0.72136998E-02 0.18191959E+03</pdfrwt>
<totfact> 0.58852164E+04</totfact>
</mgrwt>
</event>
<event>
 4    1  0.4173994E+000  0.1812572E+03  0.7546771E-02  0.1166592E+00
         21   -1    0    0  501  502  0.00000000000E+00  0.00000000000E+00  0.15598675858E+03  0.15598675858E+03  0.00000000000E+00 0.  1.
         21   -1    0    0  502  503 -0.00000000000E+00 -0.00000000000E+00 -0.29168058059E+03  0.29168058059E+03  0.00000000000E+00 0.  1.
          6    1    1    2  501    0  0.26038766811E+02 -0.47404169259E+02  0.50150468770E+02  0.18806712142E+03  0.17300000000E+03 0. -1.
         -6    1    1    2    0  503 -0.26038766811E+02  0.47404169259E+02 -0.18584429078E+03  0.25960021775E+03  0.17300000000E+03 0. -1.
<mgrwt>
<rscale>  2 0.18125720E+03</rscale>
<asrwt>0</asrwt>
<pdfrwt beam="1">  1       21 0.23997963E-01 0.18125720E+03</pdfrwt>
<pdfrwt beam="2">  1       21 0.44873935E-01 0.18125720E+03</pdfrwt>
<totfact> 0.78405341E+04</totfact>
</mgrwt>
</event>
<event>
 4    1  0.4173994E+000  0.1901540E+03  0.7546771E-02  0.1158323E+00
         21   -1    0    0  503  502  0.00000000000E+00  0.00000000000E+00  0.45244487236E+03  0.45244487236E+03  0.00000000000E+00 0. -1.
         21   -1    0    0  501  503 -0.00000000000E+00 -0.00000000000E+00 -0.44319362169E+03  0.44319362169E+03  0.00000000000E+00 0. -1.
          6    1    1    2  501    0 -0.77746475861E+02 -0.13602234956E+02 -0.40081202022E+03  0.44363139075E+03  0.17300000000E+03 0. -1.
         -6    1    1    2    0  502  0.77746475861E+02  0.13602234956E+02  0.41006327089E+03  0.45200710330E+03  0.17300000000E+03 0. -1.
<mgrwt>
<rscale>  2 0.19015398E+03</rscale>
<asrwt>0</asrwt>
<pdfrwt beam="1">  1       21 0.69606904E-01 0.19015398E+03</pdfrwt>
<pdfrwt beam="2">  1       21 0.68183634E-01 0.19015398E+03</pdfrwt>
<totfact> 0.36908077E+03</totfact>
</mgrwt>
</event>
<event>
 4    1  0.4173994E+000  0.2418047E+03  0.7546771E-02  0.1118596E+00
         21   -1    0    0  501  502  0.00000000000E+00  0.00000000000E+00  0.18977917820E+04  0.18977917820E+04  0.00000000000E+00 0.  1.
         21   -1    0    0  502  503 -0.00000000000E+00 -0.00000000000E+00 -0.33439136083E+02  0.33439136083E+02  0.00000000000E+00 0. -1.
          6    1    1    2  501    0 -0.15476800114E+02 -0.16822902578E+03  0.12029742727E+04  0.12270357114E+04  0.17300000000E+03 0.  1.
         -6    1    1    2    0  503  0.15476800114E+02  0.16822902578E+03  0.66137837331E+03  0.70419520670E+03  0.17300000000E+03 0. -1.
<mgrwt>
<rscale>  2 0.24180475E+03</rscale>
<asrwt>0</asrwt>
<pdfrwt beam="1">  1       21 0.29196788E+00 0.24180475E+03</pdfrwt>
<pdfrwt beam="2">  1       21 0.51444839E-02 0.24180475E+03</pdfrwt>
<totfact> 0.92811478E+03</totfact>
</mgrwt>
</event>
<event>
 4    1  0.4173994E+000  0.2039553E+03  0.7546771E-02  0.1146444E+00
         21   -1    0    0  501  502  0.00000000000E+00  0.00000000000E+00  0.29313535044E+03  0.29313535044E+03  0.00000000000E+00 0. -1.
         21   -1    0    0  502  503 -0.00000000000E+00 -0.00000000000E+00 -0.14658878619E+03  0.14658878619E+03  0.00000000000E+00 0.  1.
          6    1    1    2  501    0  0.88420003576E+02 -0.62053595946E+02  0.11256846579E+03  0.23295794748E+03  0.17300000000E+03 0. -1.
         -6    1    1    2    0  503 -0.88420003576E+02  0.62053595946E+02  0.33978098463E+02  0.20676618915E+03  0.17300000000E+03 0.  1.
<mgrwt>
<rscale>  2 0.20395525E+03</rscale>
<asrwt>0</asrwt>
<pdfrwt beam="1">  1       21 0.45097746E-01 0.20395525E+03</pdfrwt>
<pdfrwt beam="2">  1       21 0.22552121E-01 0.20395525E+03</pdfrwt>
<totfact> 0.86489493E+04</totfact>
</mgrwt>
</event>
<event>
 4    1  0.4173994E+000  0.2051941E+03  0.7546771E-02  0.1145429E+00
         21   -1    0    0  501  502  0.00000000000E+00  0.00000000000E+00  0.24460079772E+02  0.24460079772E+02  0.00000000000E+00 0.  1.
         21   -1    0    0  502  503 -0.00000000000E+00 -0.00000000000E+00 -0.17231521924E+04  0.17231521924E+04  0.00000000000E+00 0.  1.
          6    1    1    2  501    0 -0.10179388609E+03  0.42586496710E+02 -0.82116641017E+03  0.84641531067E+03  0.17300000000E+03 0.  1.
         -6    1    1    2    0  503  0.10179388609E+03 -0.42586496710E+02 -0.87752570248E+03  0.90119696153E+03  0.17300000000E+03 0.  1.
<mgrwt>
<rscale>  2 0.20519407E+03</rscale>
<asrwt>0</asrwt>
<pdfrwt beam="1">  1       21 0.37630887E-02 0.20519407E+03</pdfrwt>
<pdfrwt beam="2">  1       21 0.26510037E+00 0.20519407E+03</pdfrwt>
<totfact> 0.23297778E+04</totfact>
</mgrwt>
</event>
<event>
 4    1  0.4173994E+000  0.1805275E+03  0.7546771E-02  0.1167293E+00
         21   -1    0    0  503  502  0.00000000000E+00  0.00000000000E+00  0.55623237188E+03  0.55623237188E+03  0.00000000000E+00 0. -1.
         21   -1    0    0  501  503 -0.00000000000E+00 -0.00000000000E+00 -0.14630746322E+03  0.14630746322E+03  0.00000000000E+00 0. -1.
          6    1    1    2  501    0  0.40124347277E+02 -0.32422561612E+02 -0.67024695952E+02  0.19256815836E+03  0.17300000000E+03 0. -1.
         -6    1    1    2    0  502 -0.40124347277E+02  0.32422561612E+02  0.47694960461E+03  0.50997167674E+03  0.17300000000E+03 0. -1.
<mgrwt>
<rscale>  2 0.18052752E+03</rscale>
<asrwt>0</asrwt>
<pdfrwt beam="1">  1       21 0.85574210E-01 0.18052752E+03</pdfrwt>
<pdfrwt beam="2">  1       21 0.22508841E-01 0.18052752E+03</pdfrwt>
<totfact> 0.21972576E+04</totfact>
</mgrwt>
</event>
<event>
 4    1  0.4173994E+000  0.1949540E+03  0.7546771E-02  0.1154068E+00
         21   -1    0    0  501  502  0.00000000000E+00  0.00000000000E+00  0.14711179875E+03  0.14711179875E+03  0.00000000000E+00 0.  1.
         21   -1    0    0  502  503 -0.00000000000E+00 -0.00000000000E+00 -0.29390383564E+03  0.29390383564E+03  0.00000000000E+00 0. -1.
          6    1    1    2  501    0  0.23801540982E+02  0.86669083627E+02  0.32933403092E+01  0.19498176710E+03  0.17300000000E+03 0. -1.
         -6    1    1    2    0  503 -0.23801540982E+02 -0.86669083627E+02 -0.15008537720E+03  0.24603386730E+03  0.17300000000E+03 0. -1.
<mgrwt>
<rscale>  2 0.19495395E+03</rscale>
<asrwt>0</asrwt>
<pdfrwt beam="1">  1       21 0.22632585E-01 0.19495395E+03</pdfrwt>
<pdfrwt beam="2">  1       21 0.45215974E-01 0.19495395E+03</pdfrwt>
<totfact> 0.85777274E+04</totfact>
</mgrwt>
</event>
<event>
 4    1  0.4173994E+000  0.1931942E+03  0.7546771E-02  0.1155612E+00
         21   -1    0    0  501  502  0.00000000000E+00  0.00000000000E+00  0.15843807439E+03  0.15843807439E+03  0.00000000000E+00 0. -1.
         21   -1    0    0  502  503 -0.00000000000E+00 -0.00000000000E+00 -0.28648712984E+03  0.28648712984E+03  0.00000000000E+00 0. -1.
          6    1    1    2  501    0 -0.83942695675E+02 -0.18671592829E+02  0.29756782158E+02  0.19547242931E+03  0.17300000000E+03 0. -1.
         -6    1    1    2    0  503  0.83942695675E+02  0.18671592829E+02 -0.15780583760E+03  0.24945277492E+03  0.17300000000E+03 0. -1.
<mgrwt>
<rscale>  2 0.19319421E+03</rscale>
<asrwt>0</asrwt>
<pdfrwt beam="1">  1       21 0.24375089E-01 0.19319421E+03</pdfrwt>
<pdfrwt beam="2">  1       21 0.44074942E-01 0.19319421E+03</pdfrwt>
<totfact> 0.78589922E+04</totfact>
</mgrwt>
</event>
<event>
 4    1  0.4173994E+000  0.2094756E+03  0.7546771E-02  0.1141982E+00
         21   -1    0    0  501  502  0.00000000000E+00  0.00000000000E+00  0.16847636718E+03  0.16847636718E+03  0.00000000000E+00 0.  1.
         21   -1    0    0  502  503 -0.00000000000E+00 -0.00000000000E+00 -0.68419110189E+03  0.68419110189E+03  0.00000000000E+00 0.  1.
          6    1    1    2  501    0 -0.10337597296E+03 -0.57135359776E+02  0.77656252032E+02  0.22340665747E+03  0.17300000000E+03 0.  1.
         -6    1    1    2    0  503  0.10337597296E+03  0.57135359776E+02 -0.59337098674E+03  0.62926081161E+03  0.17300000000E+03 0.  1.
<mgrwt>
<rscale>  2 0.20947563E+03</rscale>
<asrwt>0</asrwt>
<pdfrwt beam="1">  1       21 0.25919441E-01 0.20947563E+03</pdfrwt>
<pdfrwt beam="2">  1       21 0.10526017E+00 0.20947563E+03</pdfrwt>
<totfact> 0.10146452E+04</totfact>
</mgrwt>
</event>
<event>
 4    1  0.4173994E+000  0.2133631E+03  0.7546771E-02  0.1138930E+00
         21   -1    0    0  503  502  0.00000000000E+00  0.00000000000E+00  0.30280359349E+03  0.30280359349E+03  0.00000000000E+00 0. -1.
         21   -1    0    0  501  503 -0.00000000000E+00 -0.00000000000E+00 -0.18238254305E+03  0.18238254305E+03  0.00000000000E+00 0.  1.
          6    1    1    2  501    0  0.12336555318E+03 -0.19384236283E+02 -0.41471261293E+02  0.21735609916E+03  0.17300000000E+03 0. -1.
         -6    1    1    2    0  502 -0.12336555318E+03  0.19384236283E+02  0.16189231174E+03  0.26783003739E+03  0.17300000000E+03 0. -1.
<mgrwt>
<rscale>  2 0.21336309E+03</rscale>
<asrwt>0</asrwt>
<pdfrwt beam="1">  1       21 0.46585168E-01 0.21336309E+03</pdfrwt>
<pdfrwt beam="2">  1       21 0.28058853E-01 0.21336309E+03</pdfrwt>
<totfact> 0.53021786E+04</totfact>
</mgrwt>
</event>
<event>
 4    1  0.4173994E+000  0.1898520E+03  0.7546771E-02  0.1158595E+00
         21   -1    0    0  503  502  0.00000000000E+00  0.00000000000E+00  0.59066978558E+02  0.59066978558E+02  0.00000000000E+00 0.  1.
         21   -1    0    0  501  503 -0.00000000000E+00 -0.00000000000E+00 -0.62044637130E+03  0.62044637130E+03  0.00000000000E+00 0. -1.
          6    1    1    2  501    0 -0.77737644237E+02 -0.84633872254E+01 -0.32431173047E+03  0.37579498237E+03  0.17300000000E+03 0.  1.
         -6    1    1    2    0  502  0.77737644237E+02  0.84633872254E+01 -0.23706766228E+03  0.30371836749E+03  0.17300000000E+03 0. -1.
<mgrwt>
<rscale>  2 0.18985197E+03</rscale>
<asrwt>0</asrwt>
<pdfrwt beam="1">  1       21 0.90872279E-02 0.18985197E+03</pdfrwt>
<pdfrwt beam="2">  1       21 0.95453283E-01 0.18985197E+03</pdfrwt>
<totfact> 0.88088287E+04</totfact>
</mgrwt>
</event>
<event>
 4    1  0.4173994E+000  0.1805176E+03  0.7546771E-02  0.1167303E+00
         21   -1    0    0  501  502  0.00000000000E+00  0.00000000000E+00  0.38529271084E+02  0.38529271084E+02  0.00000000000E+00 0. -1.
         21   -1    0    0  502  503 -0.00000000000E+00 -0.00000000000E+00 -0.13588194831E+04  0.13588194831E+04  0.00000000000E+00 0. -1.
          6    1    1    2  501    0 -0.23711826291E+02 -0.45774881598E+02 -0.23082920068E+03  0.29303363352E+03  0.17300000000E+03 0. -1.
         -6    1    1    2    0  503  0.23711826291E+02  0.45774881598E+02 -0.10894610114E+04  0.11043151207E+04  0.17300000000E+03 0. -1.
<mgrwt>
<rscale>  2 0.18051756E+03</rscale>
<asrwt>0</asrwt>
<pdfrwt beam="1">  1       21 0.59275817E-02 0.18051756E+03</pdfrwt>
<pdfrwt beam="2">  1       21 0.20904910E+00 0.18051756E+03</pdfrwt>
<totfact> 0.23906161E+04</totfact>
</mgrwt>
</event>
<event>
 4    1  0.4173994E+000  0.2086891E+03  0.7546771E-02  0.1142608E+00
         21   -1    0    0  503  502  0.00000000000E+00  0.00000000000E+00  0.10009747798E+03  0.10009747798E+03  0.00000000000E+00 0.  1.
         21   -1    0    0  501  503 -0.00000000000E+00 -0.00000000000E+00 -0.43520563727E+03  0.43520563727E+03  0.00000000000E+00 0.  1.
          6    1    1    2  501    0  0.11674269116E+02  0.11612857155E+03 -0.16313913610E+03  0.26488773361E+03  0.17300000000E+03 0.  1.
         -6    1    1    2    0  502 -0.11674269116E+02 -0.11612857155E+03 -0.17196902318E+03  0.27041538163E+03  0.17300000000E+03 0.  1.
<mgrwt>
<rscale>  2 0.20868908E+03</rscale>
<asrwt>0</asrwt>
<pdfrwt beam="1">  1       21 0.15399612E-01 0.20868908E+03</pdfrwt>
<pdfrwt beam="2">  1       21 0.66954713E-01 0.20868908E+03</pdfrwt>
<totfact> 0.75856141E+04</totfact>
</mgrwt>
</event>
<event>
 4    1  0.4173994E+000  0.2864056E+03  0.7546771E-02  0.1092241E+00
         21   -1    0    0  501  502  0.00000000000E+00  0.00000000000E+00  0.54798897206E+03  0.54798897206E+03  0.00000000000E+00 0.  1.
         21   -1    0    0  502  503 -0.00000000000E+00 -0.00000000000E+00 -0.15026868269E+03  0.15026868269E+03  0.00000000000E+00 0.  1.
          6    1    1    2  501    0 -0.20476365466E+03 -0.10085156753E+03  0.22053523050E+03  0.36147473056E+03  0.17300000000E+03 0.  1.
         -6    1    1    2    0  503  0.20476365466E+03  0.10085156753E+03  0.17718505887E+03  0.33678292419E+03  0.17300000000E+03 0.  1.
<mgrwt>
<rscale>  2 0.28640564E+03</rscale>
<asrwt>0</asrwt>
<pdfrwt beam="1">  1       21 0.84305995E-01 0.28640564E+03</pdfrwt>
<pdfrwt beam="2">  1       21 0.23118259E-01 0.28640564E+03</pdfrwt>
<totfact> 0.20452639E+04</totfact>
</mgrwt>
</event>
<event>
 4    1  0.4173994E+000  0.2292765E+03  0.7546771E-02  0.1127150E+00
         21   -1    0    0  503  502  0.00000000000E+00  0.00000000000E+00  0.37930831458E+03  0.37930831458E+03  0.00000000000E+00 0. -1.
         21   -1    0    0  501  503 -0.00000000000E+00 -0.00000000000E+00 -0.18324631127E+03  0.18324631127E+03  0.00000000000E+00 0.  1.
          6    1    1    2  501    0 -0.27175494001E+02  0.14798720617E+03 -0.40825569871E+02  0.23288290581E+03  0.17300000000E+03 0.  1.
         -6    1    1    2    0  502  0.27175494001E+02 -0.14798720617E+03  0.23688757318E+03  0.32967172004E+03  0.17300000000E+03 0. -1.
<mgrwt>
<rscale>  2 0.22927652E+03</rscale>
<asrwt>0</asrwt>
<pdfrwt beam="1">  1       21 0.58355125E-01 0.22927652E+03</pdfrwt>
<pdfrwt beam="2">  1       21 0.28191740E-01 0.22927652E+03</pdfrwt>
<totfact> 0.32448053E+04</totfact>
</mgrwt>
</event>
<event>
 4    1  0.4173994E+000  0.4122524E+03  0.7546771E-02  0.1039618E+00
         21   -1    0    0  501  502  0.00000000000E+00  0.00000000000E+00  0.27813714973E+03  0.27813714973E+03  0.00000000000E+00 0. -1.
         21   -1    0    0  502  503 -0.00000000000E+00 -0.00000000000E+00 -0.16662546086E+04  0.16662546086E+04  0.00000000000E+00 0. -1.
          6    1    1    2  501    0  0.37354100891E+03  0.22138840803E+02  0.79608435009E+02  0.41986845147E+03  0.17300000000E+03 0. -1.
         -6    1    1    2    0  503 -0.37354100891E+03 -0.22138840803E+02 -0.14677258939E+04  0.15245233069E+04  0.17300000000E+03 0. -1.
<mgrwt>
<rscale>  2 0.41225237E+03</rscale>
<asrwt>0</asrwt>
<pdfrwt beam="1">  1       21 0.42790331E-01 0.41225237E+03</pdfrwt>
<pdfrwt beam="2">  1       21 0.25634686E+00 0.41225237E+03</pdfrwt>
<totfact> 0.26176411E+02</totfact>
</mgrwt>
</event>
<event>
 4    1  0.4173994E+000  0.1891420E+03  0.7546771E-02  0.1159237E+00
         21   -1    0    0  501  502  0.00000000000E+00  0.00000000000E+00  0.15739796524E+03  0.15739796524E+03  0.00000000000E+00 0. -1.
         21   -1    0    0  502  503 -0.00000000000E+00 -0.00000000000E+00 -0.23156656004E+03  0.23156656004E+03  0.00000000000E+00 0. -1.
          6    1    1    2  501    0  0.70276623208E+02  0.30114710941E+02 -0.63519396377E+02  0.19952296434E+03  0.17300000000E+03 0. -1.
         -6    1    1    2    0  503 -0.70276623208E+02 -0.30114710941E+02 -0.10649198426E+02  0.18944156094E+03  0.17300000000E+03 0. -1.
<mgrwt>
<rscale>  2 0.18914201E+03</rscale>
<asrwt>0</asrwt>
<pdfrwt beam="1">  1       21 0.24215072E-01 0.18914201E+03</pdfrwt>
<pdfrwt beam="2">  1       21 0.35625625E-01 0.18914201E+03</pdfrwt>
<totfact> 0.12243799E+05</totfact>
</mgrwt>
</event>
<event>
 4    1  0.4173994E+000  0.1752297E+03  0.7546771E-02  0.1172501E+00
         21   -1    0    0  503  502  0.00000000000E+00  0.00000000000E+00  0.63668874340E+03  0.63668874340E+03  0.00000000000E+00 0. -1.
         21   -1    0    0  501  503 -0.00000000000E+00 -0.00000000000E+00 -0.20340983199E+03  0.20340983199E+03  0.00000000000E+00 0. -1.
          6    1    1    2  501    0  0.16335893364E+02  0.22573855607E+02 -0.15025102450E+03  0.23082636490E+03  0.17300000000E+03 0. -1.
         -6    1    1    2    0  502 -0.16335893364E+02 -0.22573855607E+02  0.58352993591E+03  0.60927221049E+03  0.17300000000E+03 0. -1.
<mgrwt>
<rscale>  2 0.17522968E+03</rscale>
<asrwt>0</asrwt>
<pdfrwt beam="1">  1       21 0.97952113E-01 0.17522968E+03</pdfrwt>
<pdfrwt beam="2">  1       21 0.31293821E-01 0.17522968E+03</pdfrwt>
<totfact> 0.85689274E+03</totfact>
</mgrwt>
</event>
<event>
 4    1  0.4173994E+000  0.1861300E+03  0.7546771E-02  0.1161999E+00
         21   -1    0    0  501  502  0.00000000000E+00  0.00000000000E+00  0.19711886435E+03  0.19711886435E+03  0.00000000000E+00 0.  1.
         21   -1    0    0  502  503 -0.00000000000E+00 -0.00000000000E+00 -0.38542368857E+03  0.38542368857E+03  0.00000000000E+00 0.  1.
          6    1    1    2  501    0  0.27946516561E+02 -0.62724447442E+02  0.12067842605E+03  0.22182796624E+03  0.17300000000E+03 0.  1.
         -6    1    1    2    0  503 -0.27946516561E+02  0.62724447442E+02 -0.30898325027E+03  0.36071458668E+03  0.17300000000E+03 0.  1.
<mgrwt>
<rscale>  2 0.18612997E+03</rscale>
<asrwt>0</asrwt>
<pdfrwt beam="1">  1       21 0.30325979E-01 0.18612997E+03</pdfrwt>
<pdfrwt beam="2">  1       21 0.59295952E-01 0.18612997E+03</pdfrwt>
<totfact> 0.27829196E+04</totfact>
</mgrwt>
</event>
<event>
 4    1  0.4173994E+000  0.2529636E+03  0.7546771E-02  0.1111446E+00
         21   -1    0    0  503  502  0.00000000000E+00  0.00000000000E+00  0.70304629655E+03  0.70304629655E+03  0.00000000000E+00 0.  1.
         21   -1    0    0  501  503 -0.00000000000E+00 -0.00000000000E+00 -0.10446703128E+03  0.10446703128E+03  0.00000000000E+00 0. -1.
          6    1    1    2  501    0 -0.99337767007E+02  0.15554287364E+03  0.44415323471E+03  0.51113860488E+03  0.17300000000E+03 0.  1.
         -6    1    1    2    0  502  0.99337767007E+02 -0.15554287364E+03  0.15442603055E+03  0.29637472295E+03  0.17300000000E+03 0. -1.
<mgrwt>
<rscale>  2 0.25296359E+03</rscale>
<asrwt>0</asrwt>
<pdfrwt beam="1">  1       21 0.10816097E+00 0.25296359E+03</pdfrwt>
<pdfrwt beam="2">  1       21 0.16071851E-01 0.25296359E+03</pdfrwt>
<totfact> 0.22754668E+04</totfact>
</mgrwt>
</event>
<event>
 4    1  0.4173994E+000  0.1826703E+03  0.7546771E-02  0.1165243E+00
         21   -1    0    0  503  502  0.00000000000E+00  0.00000000000E+00  0.23012368765E+03  0.23012368765E+03  0.00000000000E+00 0. -1.
         21   -1    0    0  501  503 -0.00000000000E+00 -0.00000000000E+00 -0.15784233065E+03  0.15784233065E+03  0.00000000000E+00 0. -1.
          6    1    1    2  501    0 -0.53571462055E+02  0.23865264545E+02 -0.19186157130E+02  0.18367515081E+03  0.17300000000E+03 0. -1.
         -6    1    1    2    0  502  0.53571462055E+02 -0.23865264545E+02  0.91467514129E+02  0.20429086749E+03  0.17300000000E+03 0. -1.
<mgrwt>
<rscale>  2 0.18267034E+03</rscale>
<asrwt>0</asrwt>
<pdfrwt beam="1">  1       21 0.35403644E-01 0.18267034E+03</pdfrwt>
<pdfrwt beam="2">  1       21 0.24283435E-01 0.18267034E+03</pdfrwt>
<totfact> 0.12357907E+05</totfact>
</mgrwt>
</event>
<event>
 4    1  0.4173994E+000  0.1806370E+03  0.7546771E-02  0.1167188E+00
         21   -1    0    0  503  502  0.00000000000E+00  0.00000000000E+00  0.23900879407E+03  0.23900879407E+03  0.00000000000E+00 0. -1.
         21   -1    0    0  501  503 -0.00000000000E+00 -0.00000000000E+00 -0.34156023515E+03  0.34156023515E+03  0.00000000000E+00 0. -1.
          6    1    1    2  501    0  0.43640813585E+02  0.28217033708E+02 -0.27618568370E+03  0.33001250504E+03  0.17300000000E+03 0. -1.
         -6    1    1    2    0  502 -0.43640813585E+02 -0.28217033708E+02  0.17363424262E+03  0.25055652418E+03  0.17300000000E+03 0. -1.
<mgrwt>
<rscale>  2 0.18063699E+03</rscale>
<asrwt>0</asrwt>
<pdfrwt beam="1">  1       21 0.36770584E-01 0.18063699E+03</pdfrwt>
<pdfrwt beam="2">  1       21 0.52547729E-01 0.18063699E+03</pdfrwt>
<totfact> 0.24662023E+04</totfact>
</mgrwt>
</event>
<event>
 4    1  0.4173994E+000  0.1796825E+03  0.7546771E-02  0.1168111E+00
         21   -1    0    0  501  502  0.00000000000E+00  0.00000000000E+00  0.52747596291E+03  0.52747596291E+03  0.00000000000E+00 0. -1.
         21   -1    0    0  502  503 -0.00000000000E+00 -0.00000000000E+00 -0.70866706029E+02  0.70866706029E+02  0.00000000000E+00 0. -1.
          6    1    1    2  501    0  0.43583707689E+01 -0.48350986143E+02  0.11785720742E+03  0.21488632948E+03  0.17300000000E+03 0. -1.
         -6    1    1    2    0  503 -0.43583707689E+01  0.48350986143E+02  0.33875204946E+03  0.38345633946E+03  0.17300000000E+03 0. -1.
<mgrwt>
<rscale>  2 0.17968253E+03</rscale>
<asrwt>0</asrwt>
<pdfrwt beam="1">  1       21 0.81150146E-01 0.17968253E+03</pdfrwt>
<pdfrwt beam="2">  1       21 0.10902570E-01 0.17968253E+03</pdfrwt>
<totfact> 0.93203168E+04</totfact>
</mgrwt>
</event>
<event>
 4    1  0.4173994E+000  0.1782556E+03  0.7546771E-02  0.1169502E+00
         21   -1    0    0  503  502  0.00000000000E+00  0.00000000000E+00  0.20940968571E+02  0.20940968571E+02  0.00000000000E+00 0. -1.
         21   -1    0    0  501  503 -0.00000000000E+00 -0.00000000000E+00 -0.15405326405E+04  0.15405326405E+04  0.00000000000E+00 0. -1.
          6    1    1    2  501    0  0.42551839991E+02  0.59492174783E+01 -0.85554350957E+03  0.87391632840E+03  0.17300000000E+03 0. -1.
         -6    1    1    2    0  502 -0.42551839991E+02 -0.59492174783E+01 -0.66404816240E+03  0.68755728071E+03  0.17300000000E+03 0. -1.
<mgrwt>
<rscale>  2 0.17825558E+03</rscale>
<asrwt>0</asrwt>
<pdfrwt beam="1">  1       21 0.32216861E-02 0.17825558E+03</pdfrwt>
<pdfrwt beam="2">  1       21 0.23700512E+00 0.17825558E+03</pdfrwt>
<totfact> 0.45125056E+04</totfact>
</mgrwt>
</event>
<event>
 4    1  0.4173994E+000  0.1752551E+03  0.7546771E-02  0.1172476E+00
         21   -1    0    0  501  502  0.00000000000E+00  0.00000000000E+00  0.65853171420E+02  0.65853171420E+02  0.00000000000E+00 0. -1.
         21   -1    0    0  502  503 -0.00000000000E+00 -0.00000000000E+00 -0.53250225800E+03  0.53250225800E+03  0.00000000000E+00 0. -1.
          6    1    1    2  501    0 -0.84818078874E+01 -0.26709531880E+02 -0.12792089128E+03  0.21697487086E+03  0.17300000000E+03 0. -1.
         -6    1    1    2    0  503  0.84818078874E+01  0.26709531880E+02 -0.33872819530E+03  0.38138055856E+03  0.17300000000E+03 0. -1.
<mgrwt>
<rscale>  2 0.17525507E+03</rscale>
<asrwt>0</asrwt>
<pdfrwt beam="1">  1       21 0.10131257E-01 0.17525507E+03</pdfrwt>
<pdfrwt beam="2">  1       21 0.81923426E-01 0.17525507E+03</pdfrwt>
<totfact> 0.10405675E+05</totfact>
</mgrwt>
</event>
<event>
 4    1  0.4173994E+000  0.2261293E+03  0.7546771E-02  0.1129394E+00
         21   -1    0    0  501  502  0.00000000000E+00  0.00000000000E+00  0.49887697228E+02  0.49887697228E+02  0.00000000000E+00 0.  1.
         21   -1    0    0  502  503 -0.00000000000E+00 -0.00000000000E+00 -0.11573792741E+04  0.11573792741E+04  0.00000000000E+00 0. -1.
          6    1    1    2  501    0  0.69863407170E+02  0.12776757840E+03 -0.34959082888E+03  0.41635105066E+03  0.17300000000E+03 0.  1.
         -6    1    1    2    0  503 -0.69863407170E+02 -0.12776757840E+03 -0.75790074799E+03  0.79091592066E+03  0.17300000000E+03 0. -1.
<mgrwt>
<rscale>  2 0.22612928E+03</rscale>
<asrwt>0</asrwt>
<pdfrwt beam="1">  1       21 0.76750309E-02 0.22612928E+03</pdfrwt>
<pdfrwt beam="2">  1       21 0.17805834E+00 0.22612928E+03</pdfrwt>
<totfact> 0.23660028E+04</totfact>
</mgrwt>
</event>
<event>
 4    1  0.4173994E+000  0.2273647E+03  0.7546771E-02  0.1128508E+00
         21   -1    0    0  501  502  0.00000000000E+00  0.00000000000E+00  0.58367015226E+03  0.58367015226E+03  0.00000000000E+00 0. -1.
         21   -1    0    0  502  503 -0.00000000000E+00 -0.00000000000E+00 -0.98705965032E+02  0.98705965032E+02  0.00000000000E+00 0. -1.
          6    1    1    2  501    0 -0.24849030113E+02  0.14542433504E+03  0.35182476591E+03  0.41889781263E+03  0.17300000000E+03 0. -1.
         -6    1    1    2    0  503  0.24849030113E+02 -0.14542433504E+03  0.13313942132E+03  0.26347830467E+03  0.17300000000E+03 0. -1.
<mgrwt>
<rscale>  2 0.22736471E+03</rscale>
<asrwt>0</asrwt>
<pdfrwt beam="1">  1       21 0.89795406E-01 0.22736471E+03</pdfrwt>
<pdfrwt beam="2">  1       21 0.15185533E-01 0.22736471E+03</pdfrwt>
<totfact> 0.39802769E+04</totfact>
</mgrwt>
</event>
<event>
 4    1  0.4173994E+000  0.2073807E+03  0.7546771E-02  0.1143657E+00
         21   -1    0    0  503  502  0.00000000000E+00  0.00000000000E+00  0.72717808083E+03  0.72717808083E+03  0.00000000000E+00 0.  1.
         21   -1    0    0  501  503 -0.00000000000E+00 -0.00000000000E+00 -0.66156433283E+02  0.66156433283E+02  0.00000000000E+00 0. -1.
          6    1    1    2  501    0 -0.51113505959E+02 -0.10229945131E+03  0.20134830261E+03  0.28904654849E+03  0.17300000000E+03 0. -1.
         -6    1    1    2    0  502  0.51113505959E+02  0.10229945131E+03  0.45967334494E+03  0.50428796563E+03  0.17300000000E+03 0.  1.
<mgrwt>
<rscale>  2 0.20738073E+03</rscale>
<asrwt>0</asrwt>
<pdfrwt beam="1">  1       21 0.11187354E+00 0.20738073E+03</pdfrwt>
<pdfrwt beam="2">  1       21 0.10177913E-01 0.20738073E+03</pdfrwt>
<totfact> 0.48931111E+04</totfact>
</mgrwt>
</event>
<event>
 4    1  0.4173994E+000  0.2615249E+03  0.7546771E-02  0.1106231E+00
         21   -1    0    0  503  502  0.00000000000E+00  0.00000000000E+00  0.15090311396E+03  0.15090311396E+03  0.00000000000E+00 0. -1.
         21   -1    0    0  501  503 -0.00000000000E+00 -0.00000000000E+00 -0.46261487782E+03  0.46261487782E+03  0.00000000000E+00 0. -1.
          6    1    1    2  501    0  0.19565382482E+03  0.13632268218E+02 -0.19952565960E+03  0.32894641925E+03  0.17300000000E+03 0. -1.
         -6    1    1    2    0  502 -0.19565382482E+03 -0.13632268218E+02 -0.11218610427E+03  0.28457157253E+03  0.17300000000E+03 0. -1.
<mgrwt>
<rscale>  2 0.26152487E+03</rscale>
<asrwt>0</asrwt>
<pdfrwt beam="1">  1       21 0.23215864E-01 0.26152487E+03</pdfrwt>
<pdfrwt beam="2">  1       21 0.71171519E-01 0.26152487E+03</pdfrwt>
<totfact> 0.30106540E+04</totfact>
</mgrwt>
</event>
<event>
 4    1  0.4173994E+000  0.1746412E+03  0.7546771E-02  0.1173092E+00
         21   -1    0    0  503  502  0.00000000000E+00  0.00000000000E+00  0.12521344247E+03  0.12521344247E+03  0.00000000000E+00 0. -1.
         21   -1    0    0  501  503 -0.00000000000E+00 -0.00000000000E+00 -0.32833411124E+03  0.32833411124E+03  0.00000000000E+00 0. -1.
          6    1    1    2  501    0  0.86933874346E+01  0.22247840167E+02 -0.21677670036E+03  0.27837327313E+03  0.17300000000E+03 0. -1.
         -6    1    1    2    0  502 -0.86933874346E+01 -0.22247840167E+02  0.13656031579E+02  0.17517428058E+03  0.17300000000E+03 0. -1.
<mgrwt>
<rscale>  2 0.17464118E+03</rscale>
<asrwt>0</asrwt>
<pdfrwt beam="1">  1       21 0.19263607E-01 0.17464118E+03</pdfrwt>
<pdfrwt beam="2">  1       21 0.50512940E-01 0.17464118E+03</pdfrwt>
<totfact> 0.92997263E+04</totfact>
</mgrwt>
</event>
<event>
 4    1  0.4173994E+000  0.2030939E+03  0.7546771E-02  0.1147155E+00
         21   -1    0    0  503  502  0.00000000000E+00  0.00000000000E+00  0.63096807209E+03  0.63096807209E+03  0.00000000000E+00 0.  1.
         21   -1    0    0  501  503 -0.00000000000E+00 -0.00000000000E+00 -0.15012458690E+03  0.15012458690E+03  0.00000000000E+00 0. -1.
          6    1    1    2  501    0  0.48423798157E+02  0.94727251604E+02 -0.53022285034E+02  0.20990111752E+03  0.17300000000E+03 0. -1.
         -6    1    1    2    0  502 -0.48423798157E+02 -0.94727251604E+02  0.53386577023E+03  0.57119154147E+03  0.17300000000E+03 0.  1.
<mgrwt>
<rscale>  2 0.20309386E+03</rscale>
<asrwt>0</asrwt>
<pdfrwt beam="1">  1       21 0.97072010E-01 0.20309386E+03</pdfrwt>
<pdfrwt beam="2">  1       21 0.23096091E-01 0.20309386E+03</pdfrwt>
<totfact> 0.15401615E+04</totfact>
</mgrwt>
</event>
<event>
 4    1  0.4173994E+000  0.1775091E+03  0.7546771E-02  0.1170236E+00
         21   -1    0    0  503  502  0.00000000000E+00  0.00000000000E+00  0.34851384500E+03  0.34851384500E+03  0.00000000000E+00 0. -1.
         21   -1    0    0  501  503 -0.00000000000E+00 -0.00000000000E+00 -0.12762375369E+03  0.12762375369E+03  0.00000000000E+00 0. -1.
          6    1    1    2  501    0 -0.39122745809E+02 -0.70627784974E+01 -0.18108141746E+02  0.17843031378E+03  0.17300000000E+03 0. -1.
         -6    1    1    2    0  502  0.39122745809E+02  0.70627784974E+01  0.23899823306E+03  0.29770728490E+03  0.17300000000E+03 0. -1.
<mgrwt>
<rscale>  2 0.17750908E+03</rscale>
<asrwt>0</asrwt>
<pdfrwt beam="1">  1       21 0.53617514E-01 0.17750908E+03</pdfrwt>
<pdfrwt beam="2">  1       21 0.19634424E-01 0.17750908E+03</pdfrwt>
<totfact> 0.79131014E+04</totfact>
</mgrwt>
</event>
<event>
 4    1  0.4173994E+000  0.2202957E+03  0.7546771E-02  0.1133663E+00
         21   -1    0    0  503  502  0.00000000000E+00  0.00000000000E+00  0.40066564942E+03  0.40066564942E+03  0.00000000000E+00 0. -1.
         21   -1    0    0  501  503 -0.00000000000E+00 -0.00000000000E+00 -0.23888958342E+03  0.23888958342E+03  0.00000000000E+00 0. -1.
          6    1    1    2  501    0 -0.55222838535E+02 -0.12470626167E+03 -0.14363386562E+03  0.26298460211E+03  0.17300000000E+03 0. -1.
         -6    1    1    2    0  502  0.55222838535E+02  0.12470626167E+03  0.30540993162E+03  0.37657063073E+03  0.17300000000E+03 0. -1.
<mgrwt>
<rscale>  2 0.22029574E+03</rscale>
<asrwt>0</asrwt>
<pdfrwt beam="1">  1       21 0.61640869E-01 0.22029574E+03</pdfrwt>
<pdfrwt beam="2">  1       21 0.36752244E-01 0.22029574E+03</pdfrwt>
<totfact> 0.17169706E+04</totfact>
</mgrwt>
</event>
<event>
 4    1  0.4173994E+000  0.2008570E+03  0.7546771E-02  0.1149018E+00
         21   -1    0    0  503  502  0.00000000000E+00  0.00000000000E+00  0.10252734852E+04  0.10252734852E+04  0.00000000000E+00 0. -1.
         21   -1    0    0  501  503 -0.00000000000E+00 -0.00000000000E+00 -0.11062311940E+03  0.11062311940E+03  0.00000000000E+00 0. -1.
          6    1    1    2  501    0 -0.24340907353E+02 -0.99106316867E+02  0.14440480653E+01  0.20086220921E+03  0.17300000000E+03 0. -1.
         -6    1    1    2    0  502  0.24340907353E+02  0.99106316867E+02  0.91320631775E+03  0.93503439540E+03  0.17300000000E+03 0. -1.
<mgrwt>
<rscale>  2 0.20085702E+03</rscale>
<asrwt>0</asrwt>
<pdfrwt beam="1">  1       21 0.15773438E+00 0.20085702E+03</pdfrwt>
<pdfrwt beam="2">  1       21 0.17018942E-01 0.20085702E+03</pdfrwt>
<totfact> 0.80898129E+03</totfact>
</mgrwt>
</event>
<event>
 4    1  0.4173994E+000  0.1939921E+03  0.7546771E-02  0.1154909E+00
         21   -1    0    0  501  502  0.00000000000E+00  0.00000000000E+00  0.35837158717E+02  0.35837158717E+02  0.00000000000E+00 0. -1.
         21   -1    0    0  502  503 -0.00000000000E+00 -0.00000000000E+00 -0.10603133861E+04  0.10603133861E+04  0.00000000000E+00 0.  1.
          6    1    1    2  501    0 -0.86781250250E+02 -0.13151209142E+02 -0.45847225888E+03  0.49782502133E+03  0.17300000000E+03 0. -1.
         -6    1    1    2    0  503  0.86781250250E+02  0.13151209142E+02 -0.56600396849E+03  0.59832552347E+03  0.17300000000E+03 0. -1.
<mgrwt>
<rscale>  2 0.19399211E+03</rscale>
<asrwt>0</asrwt>
<pdfrwt beam="1">  1       21 0.55134106E-02 0.19399211E+03</pdfrwt>
<pdfrwt beam="2">  1       21 0.16312509E+00 0.19399211E+03</pdfrwt>
<totfact> 0.54376118E+04</totfact>
</mgrwt>
</event>
<event>
 4    1  0.4173994E+000  0.1899007E+03  0.7546771E-02  0.1158551E+00
         21   -1    0    0  503  502  0.00000000000E+00  0.00000000000E+00  0.82050373538E+03  0.82050373538E+03  0.00000000000E+00 0. -1.
         21   -1    0    0  501  503 -0.00000000000E+00 -0.00000000000E+00 -0.79843861889E+02  0.79843861889E+02  0.00000000000E+00 0. -1.
          6    1    1    2  501    0 -0.78312980328E+02  0.60744977234E+00  0.68500883620E+02  0.20187784163E+03  0.17300000000E+03 0. -1.
         -6    1    1    2    0  502  0.78312980328E+02 -0.60744977234E+00  0.67215898987E+03  0.69846975564E+03  0.17300000000E+03 0. -1.
<mgrwt>
<rscale>  2 0.18990074E+03</rscale>
<asrwt>0</asrwt>
<pdfrwt beam="1">  1       21 0.12623134E+00 0.18990074E+03</pdfrwt>
<pdfrwt beam="2">  1       21 0.12283672E-01 0.18990074E+03</pdfrwt>
<totfact> 0.26238632E+04</totfact>
</mgrwt>
</event>
<event>
 4    1  0.4173994E+000  0.1756513E+03  0.7546771E-02  0.1172079E+00
         21   -1    0    0  501  502  0.00000000000E+00  0.00000000000E+00  0.10347376907E+03  0.10347376907E+03  0.00000000000E+00 0.  1.
         21   -1    0    0  502  503 -0.00000000000E+00 -0.00000000000E+00 -0.30760591808E+03  0.30760591808E+03  0.00000000000E+00 0.  1.
          6    1    1    2  501    0 -0.26259764818E+02 -0.15323088675E+02 -0.66078084203E+02  0.18766908511E+03  0.17300000000E+03 0.  1.
         -6    1    1    2    0  503  0.26259764818E+02  0.15323088675E+02 -0.13805406481E+03  0.22341060204E+03  0.17300000000E+03 0.  1.
<mgrwt>
<rscale>  2 0.17565128E+03</rscale>
<asrwt>0</asrwt>
<pdfrwt beam="1">  1       21 0.15919041E-01 0.17565128E+03</pdfrwt>
<pdfrwt beam="2">  1       21 0.47323988E-01 0.17565128E+03</pdfrwt>
<totfact> 0.15116551E+05</totfact>
</mgrwt>
</event>
<event>
 4    1  0.4173994E+000  0.2939850E+03  0.7546771E-02  0.1088287E+00
         21   -1    0    0  503  502  0.00000000000E+00  0.00000000000E+00  0.75223762721E+03  0.75223762721E+03  0.00000000000E+00 0.  1.
         21   -1    0    0  501  503 -0.00000000000E+00 -0.00000000000E+00 -0.14270280940E+03  0.14270280940E+03  0.00000000000E+00 0.  1.
          6    1    1    2  501    0 -0.22588029693E+03 -0.74001926166E+02  0.10723280497E+03  0.31293141114E+03  0.17300000000E+03 0.  1.
         -6    1    1    2    0  502  0.22588029693E+03  0.74001926166E+02  0.50230201285E+03  0.58200902547E+03  0.17300000000E+03 0.  1.
<mgrwt>
<rscale>  2 0.29398502E+03</rscale>
<asrwt>0</asrwt>
<pdfrwt beam="1">  1       21 0.11572886E+00 0.29398502E+03</pdfrwt>
<pdfrwt beam="2">  1       21 0.21954279E-01 0.29398502E+03</pdfrwt>
<totfact> 0.10540264E+04</totfact>
</mgrwt>
</event>
<event>
 4    1  0.4173994E+000  0.2176536E+03  0.7546771E-02  0.1135645E+00
         21   -1    0    0  503  502  0.00000000000E+00  0.00000000000E+00  0.31030332961E+02  0.31030332961E+02  0.00000000000E+00 0.  1.
         21   -1    0    0  501  503 -0.00000000000E+00 -0.00000000000E+00 -0.16500613536E+04  0.16500613536E+04  0.00000000000E+00 0.  1.
          6    1    1    2  501    0 -0.11619798215E+03 -0.62786213956E+02 -0.10393703482E+04  0.10619151569E+04  0.17300000000E+03 0.  1.
         -6    1    1    2    0  502  0.11619798215E+03  0.62786213956E+02 -0.57966067244E+03  0.61917652967E+03  0.17300000000E+03 0.  1.
<mgrwt>
<rscale>  2 0.21765358E+03</rscale>
<asrwt>0</asrwt>
<pdfrwt beam="1">  1       21 0.47738961E-02 0.21765358E+03</pdfrwt>
<pdfrwt beam="2">  1       21 0.25385566E+00 0.21765358E+03</pdfrwt>
<totfact> 0.17970983E+04</totfact>
</mgrwt>
</event>
<event>
 4    1  0.4173994E+000  0.2991939E+03  0.7546771E-02  0.1085644E+00
         21   -1    0    0  501  502  0.00000000000E+00  0.00000000000E+00  0.98179690261E+03  0.98179690261E+03  0.00000000000E+00 0. -1.
         21   -1    0    0  502  503 -0.00000000000E+00 -0.00000000000E+00 -0.12008744185E+03  0.12008744185E+03  0.00000000000E+00 0. -1.
          6    1    1    2  501    0 -0.75917572554E+02 -0.23200114076E+03  0.70118009424E+03  0.76234541495E+03  0.17300000000E+03 0. -1.
         -6    1    1    2    0  503  0.75917572554E+02  0.23200114076E+03  0.16052936652E+03  0.33953892951E+03  0.17300000000E+03 0. -1.
<mgrwt>
<rscale>  2 0.29919393E+03</rscale>
<asrwt>0</asrwt>
<pdfrwt beam="1">  1       21 0.15104567E+00 0.29919393E+03</pdfrwt>
<pdfrwt beam="2">  1       21 0.18474992E-01 0.29919393E+03</pdfrwt>
<totfact> 0.73276203E+03</totfact>
</mgrwt>
</event>
<event>
 4    1  0.4173994E+000  0.2740262E+03  0.7546771E-02  0.1098997E+00
         21   -1    0    0  501  502  0.00000000000E+00  0.00000000000E+00  0.87028385746E+02  0.87028385746E+02  0.00000000000E+00 0.  1.
         21   -1    0    0  502  503 -0.00000000000E+00 -0.00000000000E+00 -0.87723805480E+03  0.87723805480E+03  0.00000000000E+00 0. -1.
          6    1    1    2  501    0  0.15641843821E+03 -0.14385636497E+03 -0.33330796151E+03  0.43149111087E+03  0.17300000000E+03 0. -1.
         -6    1    1    2    0  503 -0.15641843821E+03  0.14385636497E+03 -0.45690170754E+03  0.53277532967E+03  0.17300000000E+03 0.  1.
<mgrwt>
<rscale>  2 0.27402624E+03</rscale>
<asrwt>0</asrwt>
<pdfrwt beam="1">  1       21 0.13388983E-01 0.27402624E+03</pdfrwt>
<pdfrwt beam="2">  1       21 0.13495969E+00 0.27402624E+03</pdfrwt>
<totfact> 0.18082665E+04</totfact>
</mgrwt>
</event>
<event>
 4    1  0.4173994E+000  0.3662234E+03  0.7546771E-02  0.1056146E+00
         21   -1    0    0  501  502  0.00000000000E+00  0.00000000000E+00  0.24214868743E+03  0.24214868743E+03  0.00000000000E+00 0. -1.
         21   -1    0    0  502  503 -0.00000000000E+00 -0.00000000000E+00 -0.56551321439E+03  0.56551321439E+03  0.00000000000E+00 0.  1.
          6    1    1    2  501    0  0.28335242749E+03 -0.15460262855E+03 -0.10374439813E+03  0.38063430096E+03  0.17300000000E+03 0.  1.
         -6    1    1    2    0  503 -0.28335242749E+03  0.15460262855E+03 -0.21962012883E+03  0.42702760087E+03  0.17300000000E+03 0.  1.
<mgrwt>
<rscale>  2 0.36622339E+03</rscale>
<asrwt>0</asrwt>
<pdfrwt beam="1">  1       21 0.37253645E-01 0.36622339E+03</pdfrwt>
<pdfrwt beam="2">  1       21 0.87002032E-01 0.36622339E+03</pdfrwt>
<totfact> 0.71939645E+03</totfact>
</mgrwt>
</event>
<event>
 4    1  0.4173994E+000  0.2469129E+03  0.7546771E-02  0.1115271E+00
         21   -1    0    0  503  502  0.00000000000E+00  0.00000000000E+00  0.21280454182E+03  0.21280454182E+03  0.00000000000E+00 0.  1.
         21   -1    0    0  501  503 -0.00000000000E+00 -0.00000000000E+00 -0.35383336714E+03  0.35383336714E+03  0.00000000000E+00 0. -1.
          6    1    1    2  501    0 -0.11702496167E+03  0.13168961187E+03  0.53088690361E+02  0.25255574547E+03  0.17300000000E+03 0.  1.
         -6    1    1    2    0  502  0.11702496167E+03 -0.13168961187E+03 -0.19411751568E+03  0.31408216349E+03  0.17300000000E+03 0. -1.
<mgrwt>
<rscale>  2 0.24691293E+03</rscale>
<asrwt>0</asrwt>
<pdfrwt beam="1">  1       21 0.32739160E-01 0.24691293E+03</pdfrwt>
<pdfrwt beam="2">  1       21 0.54435902E-01 0.24691293E+03</pdfrwt>
<totfact> 0.27841750E+04</totfact>
</mgrwt>
</event>
<event>
 4    1  0.4173994E+000  0.1790600E+03  0.7546771E-02  0.1168716E+00
         21   -1    0    0  501  502  0.00000000000E+00  0.00000000000E+00  0.55582453925E+02  0.55582453925E+02  0.00000000000E+00 0. -1.
         21   -1    0    0  502  503 -0.00000000000E+00 -0.00000000000E+00 -0.59389617727E+03  0.59389617727E+03  0.00000000000E+00 0. -1.
          6    1    1    2  501    0 -0.41667395007E+02 -0.19932871180E+02 -0.21413316089E+03  0.27913348376E+03  0.17300000000E+03 0. -1.
         -6    1    1    2    0  503  0.41667395007E+02  0.19932871180E+02 -0.32418056245E+03  0.37034514744E+03  0.17300000000E+03 0. -1.
<mgrwt>
<rscale>  2 0.17906002E+03</rscale>
<asrwt>0</asrwt>
<pdfrwt beam="1">  1       21 0.85511467E-02 0.17906002E+03</pdfrwt>
<pdfrwt beam="2">  1       21 0.91368643E-01 0.17906002E+03</pdfrwt>
<totfact> 0.10896192E+05</totfact>
</mgrwt>
</event>
<event>
 4    1  0.4173994E+000  0.2108184E+03  0.7546771E-02  0.1140920E+00
         21   -1    0    0  503  502  0.00000000000E+00  0.00000000000E+00  0.70331329006E+03  0.70331329006E+03  0.00000000000E+00 0. -1.
         21   -1    0    0  501  503 -0.00000000000E+00 -0.00000000000E+00 -0.70829382830E+02  0.70829382830E+02  0.00000000000E+00 0.  1.
          6    1    1    2  501    0 -0.11671468167E+03  0.29884455963E+02  0.44333779134E+03  0.49091016984E+03  0.17300000000E+03 0. -1.
         -6    1    1    2    0  502  0.11671468167E+03 -0.29884455963E+02  0.18914611590E+03  0.28323250305E+03  0.17300000000E+03 0.  1.
<mgrwt>
<rscale>  2 0.21081840E+03</rscale>
<asrwt>0</asrwt>
<pdfrwt beam="1">  1       21 0.10820204E+00 0.21081840E+03</pdfrwt>
<pdfrwt beam="2">  1       21 0.10896829E-01 0.21081840E+03</pdfrwt>
<totfact> 0.46918169E+04</totfact>
</mgrwt>
</event>
<event>
 4    1  0.4173994E+000  0.2654727E+03  0.7546771E-02  0.1103899E+00
         21   -1    0    0  503  502  0.00000000000E+00  0.00000000000E+00  0.26167749999E+03  0.26167749999E+03  0.00000000000E+00 0. -1.
         21   -1    0    0  501  503 -0.00000000000E+00 -0.00000000000E+00 -0.37170696119E+03  0.37170696119E+03  0.00000000000E+00 0.  1.
          6    1    1    2  501    0 -0.11325032164E+03 -0.16649655748E+03 -0.22122324648E+03  0.34556542621E+03  0.17300000000E+03 0.  1.
         -6    1    1    2    0  502  0.11325032164E+03  0.16649655748E+03  0.11119378528E+03  0.28781903497E+03  0.17300000000E+03 0. -1.
<mgrwt>
<rscale>  2 0.26547267E+03</rscale>
<asrwt>0</asrwt>
<pdfrwt beam="1">  1       21 0.40258077E-01 0.26547267E+03</pdfrwt>
<pdfrwt beam="2">  1       21 0.57185686E-01 0.26547267E+03</pdfrwt>
<totfact> 0.16404523E+04</totfact>
</mgrwt>
</event>
<event>
 4    1  0.4173994E+000  0.3831736E+03  0.7546771E-02  0.1049767E+00
         21   -1    0    0  503  502  0.00000000000E+00  0.00000000000E+00  0.31618109140E+03  0.31618109140E+03  0.00000000000E+00 0. -1.
         21   -1    0    0  501  503 -0.00000000000E+00 -0.00000000000E+00 -0.46529091581E+03  0.46529091581E+03  0.00000000000E+00 0. -1.
          6    1    1    2  501    0 -0.22410868185E+03  0.25820211464E+03 -0.57082926305E+02  0.38740223768E+03  0.17300000000E+03 0. -1.
         -6    1    1    2    0  502  0.22410868185E+03 -0.25820211464E+03 -0.92026898105E+02  0.39406976954E+03  0.17300000000E+03 0. -1.
<mgrwt>
<rscale>  2 0.38317363E+03</rscale>
<asrwt>0</asrwt>
<pdfrwt beam="1">  1       21 0.48643245E-01 0.38317363E+03</pdfrwt>
<pdfrwt beam="2">  1       21 0.71583218E-01 0.38317363E+03</pdfrwt>
<totfact> 0.64370905E+03</totfact>
</mgrwt>
</event>
<event>
 4    1  0.4173994E+000  0.1865704E+03  0.7546771E-02  0.1161591E+00
         21   -1    0    0  503  502  0.00000000000E+00  0.00000000000E+00  0.11298351596E+03  0.11298351596E+03  0.00000000000E+00 0.  1.
         21   -1    0    0  501  503 -0.00000000000E+00 -0.00000000000E+00 -0.72429484775E+03  0.72429484775E+03  0.00000000000E+00 0.  1.
          6    1    1    2  501    0  0.68848136864E+02 -0.11809088309E+02 -0.62300557523E+03  0.65034180804E+03  0.17300000000E+03 0.  1.
         -6    1    1    2    0  502 -0.68848136864E+02  0.11809088309E+02  0.11694243442E+02  0.18693655567E+03  0.17300000000E+03 0.  1.
<mgrwt>
<rscale>  2 0.18657042E+03</rscale>
<asrwt>0</asrwt>
<pdfrwt beam="1">  1       21 0.17382079E-01 0.18657042E+03</pdfrwt>
<pdfrwt beam="2">  1       21 0.11142998E+00 0.18657042E+03</pdfrwt>
<totfact> 0.19028108E+04</totfact>
</mgrwt>
</event>
<event>
 4    1  0.4173994E+000  0.1942023E+03  0.7546771E-02  0.1154725E+00
         21   -1    0    0  503  502  0.00000000000E+00  0.00000000000E+00  0.16497241818E+03  0.16497241818E+03  0.00000000000E+00 0.  1.
         21   -1    0    0  501  503 -0.00000000000E+00 -0.00000000000E+00 -0.24869460665E+03  0.24869460665E+03  0.00000000000E+00 0.  1.
          6    1    1    2  501    0 -0.42554478007E+02 -0.77295951534E+02 -0.10063791232E+03  0.21872936958E+03  0.17300000000E+03 0.  1.
         -6    1    1    2    0  502  0.42554478007E+02  0.77295951534E+02  0.16915723854E+02  0.19493765525E+03  0.17300000000E+03 0.  1.
<mgrwt>
<rscale>  2 0.19420234E+03</rscale>
<asrwt>0</asrwt>
<pdfrwt beam="1">  1       21 0.25380372E-01 0.19420234E+03</pdfrwt>
<pdfrwt beam="2">  1       21 0.38260709E-01 0.19420234E+03</pdfrwt>
<totfact> 0.96888275E+04</totfact>
</mgrwt>
</event>
<event>
 4    1  0.4173994E+000  0.1776202E+03  0.7546771E-02  0.1170126E+00
         21   -1    0    0  501  502  0.00000000000E+00  0.00000000000E+00  0.78724821000E+03  0.78724821000E+03  0.00000000000E+00 0.  1.
         21   -1    0    0  502  503 -0.00000000000E+00 -0.00000000000E+00 -0.67970583363E+02  0.67970583363E+02  0.00000000000E+00 0.  1.
          6    1    1    2  501    0  0.41642799047E+01  0.40032446174E+02  0.63357840379E+03  0.65800496330E+03  0.17300000000E+03 0.  1.
         -6    1    1    2    0  503 -0.41642799047E+01 -0.40032446174E+02  0.85699222850E+02  0.19721383007E+03  0.17300000000E+03 0.  1.
<mgrwt>
<rscale>  2 0.17762021E+03</rscale>
<asrwt>0</asrwt>
<pdfrwt beam="1">  1       21 0.12111510E+00 0.17762021E+03</pdfrwt>
<pdfrwt beam="2">  1       21 0.10457013E-01 0.17762021E+03</pdfrwt>
<totfact> 0.39020489E+04</totfact>
</mgrwt>
</event>
<event>
 4    1  0.4173994E+000  0.3383441E+03  0.7546771E-02  0.1067503E+00
         21   -1    0    0  501  502  0.00000000000E+00  0.00000000000E+00  0.18047259493E+03  0.18047259493E+03  0.00000000000E+00 0.  1.
         21   -1    0    0  502  503 -0.00000000000E+00 -0.00000000000E+00 -0.66995030768E+03  0.66995030768E+03  0.00000000000E+00 0. -1.
          6    1    1    2  501    0  0.18361702775E+03 -0.22546065924E+03 -0.14667351386E+03  0.36876800487E+03  0.17300000000E+03 0. -1.
         -6    1    1    2    0  503 -0.18361702775E+03  0.22546065924E+03 -0.34280419889E+03  0.48165489774E+03  0.17300000000E+03 0.  1.
<mgrwt>
<rscale>  2 0.33834409E+03</rscale>
<asrwt>0</asrwt>
<pdfrwt beam="1">  1       21 0.27765014E-01 0.33834409E+03</pdfrwt>
<pdfrwt beam="2">  1       21 0.10306928E+00 0.33834409E+03</pdfrwt>
<totfact> 0.87287787E+03</totfact>
</mgrwt>
</event>
<event>
 4    1  0.4173994E+000  0.2047119E+03  0.7546771E-02  0.1145823E+00
         21   -1    0    0  503  502  0.00000000000E+00  0.00000000000E+00  0.26667746942E+03  0.26667746942E+03  0.00000000000E+00 0.  1.
         21   -1    0    0  501  503 -0.00000000000E+00 -0.00000000000E+00 -0.19033998723E+03  0.19033998723E+03  0.00000000000E+00 0.  1.
          6    1    1    2  501    0 -0.65112035303E+02  0.87968200012E+02 -0.57259132053E+02  0.21256902304E+03  0.17300000000E+03 0.  1.
         -6    1    1    2    0  502  0.65112035303E+02 -0.87968200012E+02  0.13359661424E+03  0.24444843360E+03  0.17300000000E+03 0.  1.
<mgrwt>
<rscale>  2 0.20471195E+03</rscale>
<asrwt>0</asrwt>
<pdfrwt beam="1">  1       21 0.41027303E-01 0.20471195E+03</pdfrwt>
<pdfrwt beam="2">  1       21 0.29283075E-01 0.20471195E+03</pdfrwt>
<totfact> 0.63563909E+04</totfact>
</mgrwt>
</event>
<event>
 4    1  0.4173994E+000  0.3245074E+03  0.7546771E-02  0.1073593E+00
         21   -1    0    0  501  502  0.00000000000E+00  0.00000000000E+00  0.11526808869E+03  0.11526808869E+03  0.00000000000E+00 0.  1.
         21   -1    0    0  502  503 -0.00000000000E+00 -0.00000000000E+00 -0.93241596416E+03  0.93241596416E+03  0.00000000000E+00 0.  1.
          6    1    1    2  501    0 -0.24056151191E+03 -0.13231096374E+03 -0.48305540277E+03  0.58193432128E+03  0.17300000000E+03 0.  1.
         -6    1    1    2    0  503  0.24056151191E+03  0.13231096374E+03 -0.33409247270E+03  0.46574973157E+03  0.17300000000E+03 0.  1.
<mgrwt>
<rscale>  2 0.32450737E+03</rscale>
<asrwt>0</asrwt>
<pdfrwt beam="1">  1       21 0.17733552E-01 0.32450737E+03</pdfrwt>
<pdfrwt beam="2">  1       21 0.14344861E+00 0.32450737E+03</pdfrwt>
<totfact> 0.89661244E+03</totfact>
</mgrwt>
</event>
<event>
 4    1  0.4173994E+000  0.1957868E+03  0.7546771E-02  0.1153343E+00
         21   -1    0    0  501  502  0.00000000000E+00  0.00000000000E+00  0.42288040140E+03  0.42288040140E+03  0.00000000000E+00 0. -1.
         21   -1    0    0  502  503 -0.00000000000E+00 -0.00000000000E+00 -0.10056634728E+03  0.10056634728E+03  0.00000000000E+00 0. -1.
          6    1    1    2  501    0  0.91658078495E+02 -0.15063472487E+01  0.24335795764E+03  0.31233886723E+03  0.17300000000E+03 0.  1.
         -6    1    1    2    0  503 -0.91658078495E+02  0.15063472487E+01  0.78956096478E+02  0.21110788144E+03  0.17300000000E+03 0.  1.
<mgrwt>
<rscale>  2 0.19578680E+03</rscale>
<asrwt>0</asrwt>
<pdfrwt beam="1">  1       21 0.65058522E-01 0.19578680E+03</pdfrwt>
<pdfrwt beam="2">  1       21 0.15471746E-01 0.19578680E+03</pdfrwt>
<totfact> 0.80539296E+04</totfact>
</mgrwt>
</event>
<event>
 4    1  0.4173994E+000  0.2521301E+03  0.7546771E-02  0.1111966E+00
         21   -1    0    0  503  502  0.00000000000E+00  0.00000000000E+00  0.10573536097E+03  0.10573536097E+03  0.00000000000E+00 0. -1.
         21   -1    0    0  501  503 -0.00000000000E+00 -0.00000000000E+00 -0.60122226945E+03  0.60122226945E+03  0.00000000000E+00 0.  1.
          6    1    1    2  501    0  0.28429594635E+02  0.18119696417E+03 -0.24905262252E+03  0.35439637479E+03  0.17300000000E+03 0. -1.
         -6    1    1    2    0  502 -0.28429594635E+02 -0.18119696417E+03 -0.24643428596E+03  0.35256125563E+03  0.17300000000E+03 0. -1.
<mgrwt>
<rscale>  2 0.25213009E+03</rscale>
<asrwt>0</asrwt>
<pdfrwt beam="1">  1       21 0.16266979E-01 0.25213009E+03</pdfrwt>
<pdfrwt beam="2">  1       21 0.92495732E-01 0.25213009E+03</pdfrwt>
<totfact> 0.32363607E+04</totfact>
</mgrwt>
</event>
<event>
 4    1  0.4173994E+000  0.1763391E+03  0.7546771E-02  0.1171394E+00
         21   -1    0    0  503  502  0.00000000000E+00  0.00000000000E+00  0.32517491745E+03  0.32517491745E+03  0.00000000000E+00 0.  1.
         21   -1    0    0  501  503 -0.00000000000E+00 -0.00000000000E+00 -0.11454366826E+03  0.11454366826E+03  0.00000000000E+00 0.  1.
          6    1    1    2  501    0 -0.33541131498E+02  0.64405181850E+01  0.15968186722E+02  0.17706064149E+03  0.17300000000E+03 0.  1.
         -6    1    1    2    0  502  0.33541131498E+02 -0.64405181850E+01  0.19466306246E+03  0.26265794422E+03  0.17300000000E+03 0.  1.
<mgrwt>
<rscale>  2 0.17633913E+03</rscale>
<asrwt>0</asrwt>
<pdfrwt beam="1">  1       21 0.50026910E-01 0.17633913E+03</pdfrwt>
<pdfrwt beam="2">  1       21 0.17622103E-01 0.17633913E+03</pdfrwt>
<totfact> 0.11179850E+05</totfact>
</mgrwt>
</event>
<event>
 4    1  0.4173994E+000  0.1904750E+03  0.7546771E-02  0.1158034E+00
         21   -1    0    0  501  502  0.00000000000E+00  0.00000000000E+00  0.67456916101E+03  0.67456916101E+03  0.00000000000E+00 0.  1.
         21   -1    0    0  502  503 -0.00000000000E+00 -0.00000000000E+00 -0.54586780021E+02  0.54586780021E+02  0.00000000000E+00 0.  1.
          6    1    1    2  501    0  0.79519718767E+02 -0.53220431633E+01  0.35421665620E+03  0.40218173672E+03  0.17300000000E+03 0.  1.
         -6    1    1    2    0  503 -0.79519718767E+02  0.53220431633E+01  0.26576572478E+03  0.32697420431E+03  0.17300000000E+03 0.  1.
<mgrwt>
<rscale>  2 0.19047496E+03</rscale>
<asrwt>0</asrwt>
<pdfrwt beam="1">  1       21 0.10377987E+00 0.19047496E+03</pdfrwt>
<pdfrwt beam="2">  1       21 0.83979666E-02 0.19047496E+03</pdfrwt>
<totfact> 0.82931293E+04</totfact>
</mgrwt>
</event>
<event>
 4    1  0.4173994E+000  0.2990446E+03  0.7546771E-02  0.1085719E+00
         21   -1    0    0  503  502  0.00000000000E+00  0.00000000000E+00  0.21963235023E+03  0.21963235023E+03  0.00000000000E+00 0.  1.
         21   -1    0    0  501  503 -0.00000000000E+00 -0.00000000000E+00 -0.42697247345E+03  0.42697247345E+03  0.00000000000E+00 0. -1.
          6    1    1    2  501    0 -0.24213232645E+03 -0.29506389184E+02 -0.17329573383E+03  0.34562856056E+03  0.17300000000E+03 0. -1.
         -6    1    1    2    0  502  0.24213232645E+03  0.29506389184E+02 -0.34044389391E+02  0.30097626312E+03  0.17300000000E+03 0.  1.
<mgrwt>
<rscale>  2 0.29904463E+03</rscale>
<asrwt>0</asrwt>
<pdfrwt beam="1">  1       21 0.33789592E-01 0.29904463E+03</pdfrwt>
<pdfrwt beam="2">  1       21 0.65688073E-01 0.29904463E+03</pdfrwt>
<totfact> 0.17020101E+04</totfact>
</mgrwt>
</event>
<event>
 4    1  0.4173994E+000  0.1772810E+03  0.7546771E-02  0.1170461E+00
         21   -1    0    0  501  502  0.00000000000E+00  0.00000000000E+00  0.13255335444E+04  0.13255335444E+04  0.00000000000E+00 0. -1.
         21   -1    0    0  502  503 -0.00000000000E+00 -0.00000000000E+00 -0.43784924309E+02  0.43784924309E+02  0.00000000000E+00 0. -1.
          6    1    1    2  501    0 -0.51281442391E+01 -0.38382801950E+02  0.11044685258E+04  0.11186059457E+04  0.17300000000E+03 0. -1.
         -6    1    1    2    0  503  0.51281442391E+01  0.38382801950E+02  0.17728009432E+03  0.25071252301E+03  0.17300000000E+03 0. -1.
<mgrwt>
<rscale>  2 0.17728096E+03</rscale>
<asrwt>0</asrwt>
<pdfrwt beam="1">  1       21 0.20392821E+00 0.17728096E+03</pdfrwt>
<pdfrwt beam="2">  1       21 0.67361432E-02 0.17728096E+03</pdfrwt>
<totfact> 0.20731767E+04</totfact>
</mgrwt>
</event>
<event>
 4    1  0.4173994E+000  0.2085915E+03  0.7546771E-02  0.1142686E+00
         21   -1    0    0  503  502  0.00000000000E+00  0.00000000000E+00  0.32537558674E+03  0.32537558674E+03  0.00000000000E+00 0. -1.
         21   -1    0    0  501  503 -0.00000000000E+00 -0.00000000000E+00 -0.21857680250E+03  0.21857680250E+03  0.00000000000E+00 0.  1.
          6    1    1    2  501    0 -0.20000501778E+02  0.11481028966E+03 -0.11605887404E+03  0.23870501655E+03  0.17300000000E+03 0.  1.
         -6    1    1    2    0  502  0.20000501778E+02 -0.11481028966E+03  0.22285765828E+03  0.30524737269E+03  0.17300000000E+03 0. -1.
<mgrwt>
<rscale>  2 0.20859152E+03</rscale>
<asrwt>0</asrwt>
<pdfrwt beam="1">  1       21 0.50057783E-01 0.20859152E+03</pdfrwt>
<pdfrwt beam="2">  1       21 0.33627200E-01 0.20859152E+03</pdfrwt>
<totfact> 0.32103243E+04</totfact>
</mgrwt>
</event>
<event>
 4    1  0.4173994E+000  0.2264423E+03  0.7546771E-02  0.1129169E+00
         21   -1    0    0  501  502  0.00000000000E+00  0.00000000000E+00  0.17379308770E+03  0.17379308770E+03  0.00000000000E+00 0. -1.
         21   -1    0    0  502  503 -0.00000000000E+00 -0.00000000000E+00 -0.34540041357E+03  0.34540041357E+03  0.00000000000E+00 0. -1.
          6    1    1    2  501    0 -0.11807284320E+03  0.86057657498E+02 -0.18492734024E+03  0.29235977473E+03  0.17300000000E+03 0. -1.
         -6    1    1    2    0  503  0.11807284320E+03 -0.86057657498E+02  0.13320014367E+02  0.22683372654E+03  0.17300000000E+03 0. -1.
<mgrwt>
<rscale>  2 0.22644230E+03</rscale>
<asrwt>0</asrwt>
<pdfrwt beam="1">  1       21 0.26737398E-01 0.22644230E+03</pdfrwt>
<pdfrwt beam="2">  1       21 0.53138525E-01 0.22644230E+03</pdfrwt>
<totfact> 0.43945282E+04</totfact>
</mgrwt>
</event>
<event>
 4    1  0.4173994E+000  0.1991837E+03  0.7546771E-02  0.1150430E+00
         21   -1    0    0  503  502  0.00000000000E+00  0.00000000000E+00  0.21784706872E+03  0.21784706872E+03  0.00000000000E+00 0. -1.
         21   -1    0    0  501  503 -0.00000000000E+00 -0.00000000000E+00 -0.30467839195E+03  0.30467839195E+03  0.00000000000E+00 0. -1.
          6    1    1    2  501    0  0.94151815660E+02  0.29674499676E+02  0.12228701581E+03  0.23372688027E+03  0.17300000000E+03 0. -1.
         -6    1    1    2    0  502 -0.94151815660E+02 -0.29674499676E+02 -0.20911833904E+03  0.28879858041E+03  0.17300000000E+03 0. -1.
<mgrwt>
<rscale>  2 0.19918368E+03</rscale>
<asrwt>0</asrwt>
<pdfrwt beam="1">  1       21 0.33514934E-01 0.19918368E+03</pdfrwt>
<pdfrwt beam="2">  1       21 0.46873599E-01 0.19918368E+03</pdfrwt>
<totfact> 0.37230383E+04</totfact>
</mgrwt>
</event>
<event>
 4    1  0.4173994E+000  0.5144727E+03  0.7546771E-02  0.1010069E+00
         21   -1    0    0  503  502  0.00000000000E+00  0.00000000000E+00  0.25010425131E+04  0.25010425131E+04  0.00000000000E+00 0. -1.
         21   -1    0    0  501  503 -0.00000000000E+00 -0.00000000000E+00 -0.11038913394E+03  0.11038913394E+03  0.00000000000E+00 0.  1.
          6    1    1    2  501    0  0.45987450240E+03  0.15254041601E+03  0.14607184724E+04  0.15486705886E+04  0.17300000000E+03 0. -1.
         -6    1    1    2    0  502 -0.45987450240E+03 -0.15254041601E+03  0.92993490683E+03  0.10627610585E+04  0.17300000000E+03 0.  1.
<mgrwt>
<rscale>  2 0.51447268E+03</rscale>
<asrwt>0</asrwt>
<pdfrwt beam="1">  1       21 0.38477573E+00 0.51447268E+03</pdfrwt>
<pdfrwt beam="2">  1       21 0.16982946E-01 0.51447268E+03</pdfrwt>
<totfact> 0.24988006E+02</totfact>
</mgrwt>
</event>
<event>
 4    1  0.4173994E+000  0.2983283E+03  0.7546771E-02  0.1086079E+00
         21   -1    0    0  503  502  0.00000000000E+00  0.00000000000E+00  0.12115920750E+04  0.12115920750E+04  0.00000000000E+00 0. -1.
         21   -1    0    0  501  503 -0.00000000000E+00 -0.00000000000E+00 -0.11382916534E+03  0.11382916534E+03  0.00000000000E+00 0.  1.
          6    1    1    2  501    0  0.24244401561E+03 -0.17078862276E+02  0.15420723695E+03  0.33582683063E+03  0.17300000000E+03 0.  1.
         -6    1    1    2    0  502 -0.24244401561E+03  0.17078862276E+02  0.94355567271E+03  0.98959440971E+03  0.17300000000E+03 0. -1.
<mgrwt>
<rscale>  2 0.29832832E+03</rscale>
<asrwt>0</asrwt>
<pdfrwt beam="1">  1       21 0.18639877E+00 0.29832832E+03</pdfrwt>
<pdfrwt beam="2">  1       21 0.17512180E-01 0.29832832E+03</pdfrwt>
<totfact> 0.45010291E+03</totfact>
</mgrwt>
</event>
<event>
 4    1  0.4173994E+000  0.2320976E+03  0.7546771E-02  0.1125172E+00
         21   -1    0    0  503  502  0.00000000000E+00  0.00000000000E+00  0.32137501703E+03  0.32137501703E+03  0.00000000000E+00 0.  1.
         21   -1    0    0  501  503 -0.00000000000E+00 -0.00000000000E+00 -0.19181844708E+03  0.19181844708E+03  0.00000000000E+00 0.  1.
          6    1    1    2  501    0  0.11300117591E+03  0.10569312362E+03  0.15591385331E+03  0.27960406255E+03  0.17300000000E+03 0.  1.
         -6    1    1    2    0  502 -0.11300117591E+03 -0.10569312362E+03 -0.26357283361E+02  0.23358940156E+03  0.17300000000E+03 0.  1.
<mgrwt>
<rscale>  2 0.23209761E+03</rscale>
<asrwt>0</asrwt>
<pdfrwt beam="1">  1       21 0.49442310E-01 0.23209761E+03</pdfrwt>
<pdfrwt beam="2">  1       21 0.29510530E-01 0.23209761E+03</pdfrwt>
<totfact> 0.42109336E+04</totfact>
</mgrwt>
</event>
<event>
 4    1  0.4173994E+000  0.2065535E+03  0.7546771E-02  0.1144325E+00
         21   -1    0    0  503  502  0.00000000000E+00  0.00000000000E+00  0.23544244486E+04  0.23544244486E+04  0.00000000000E+00 0. -1.
         21   -1    0    0  501  503 -0.00000000000E+00 -0.00000000000E+00 -0.35943780258E+02  0.35943780258E+02  0.00000000000E+00 0. -1.
          6    1    1    2  501    0  0.28496938875E+02 -0.10919370194E+03  0.31762890926E+03  0.37888317997E+03  0.17300000000E+03 0. -1.
         -6    1    1    2    0  502 -0.28496938875E+02  0.10919370194E+03  0.20008517591E+04  0.20114850489E+04  0.17300000000E+03 0. -1.
<mgrwt>
<rscale>  2 0.20655348E+03</rscale>
<asrwt>0</asrwt>
<pdfrwt beam="1">  1       21 0.36221903E+00 0.20655348E+03</pdfrwt>
<pdfrwt beam="2">  1       21 0.55298142E-02 0.20655348E+03</pdfrwt>
<totfact> 0.32942294E+03</totfact>
</mgrwt>
</event>
<event>
 4    1  0.4173994E+000  0.1800766E+03  0.7546771E-02  0.1167729E+00
         21   -1    0    0  503  502  0.00000000000E+00  0.00000000000E+00  0.16652107658E+04  0.16652107658E+04  0.00000000000E+00 0. -1.
         21   -1    0    0  501  503 -0.00000000000E+00 -0.00000000000E+00 -0.60292656126E+02  0.60292656126E+02  0.00000000000E+00 0. -1.
          6    1    1    2  501    0 -0.17443626636E+02 -0.46843371786E+02  0.92578445660E+02  0.20248049336E+03  0.17300000000E+03 0. -1.
         -6    1    1    2    0  502  0.17443626636E+02  0.46843371786E+02  0.15123396640E+04  0.15230229286E+04  0.17300000000E+03 0. -1.
<mgrwt>
<rscale>  2 0.18007660E+03</rscale>
<asrwt>0</asrwt>
<pdfrwt beam="1">  1       21 0.25618624E+00 0.18007660E+03</pdfrwt>
<pdfrwt beam="2">  1       21 0.92757945E-02 0.18007660E+03</pdfrwt>
<totfact> 0.57427587E+03</totfact>
</mgrwt>
</event>
<event>
 4    1  0.4173994E+000  0.1816656E+03  0.7546771E-02  0.1166201E+00
         21   -1    0    0  503  502  0.00000000000E+00  0.00000000000E+00  0.10439967809E+04  0.10439967809E+04  0.00000000000E+00 0.  1.
         21   -1    0    0  501  503 -0.00000000000E+00 -0.00000000000E+00 -0.31720944601E+02  0.31720944601E+02  0.00000000000E+00 0.  1.
          6    1    1    2  501    0 -0.51041453812E+02 -0.21637336722E+02  0.47455864640E+03  0.50814202072E+03  0.17300000000E+03 0.  1.
         -6    1    1    2    0  502  0.51041453812E+02  0.21637336722E+02  0.53771718994E+03  0.56757570482E+03  0.17300000000E+03 0.  1.
<mgrwt>
<rscale>  2 0.18166564E+03</rscale>
<asrwt>0</asrwt>
<pdfrwt beam="1">  1       21 0.16061486E+00 0.18166564E+03</pdfrwt>
<pdfrwt beam="2">  1       21 0.48801461E-02 0.18166564E+03</pdfrwt>
<totfact> 0.70231394E+04</totfact>
</mgrwt>
</event>
<event>
 4    1  0.4173994E+000  0.1836068E+03  0.7546771E-02  0.1164357E+00
         21   -1    0    0  501  502  0.00000000000E+00  0.00000000000E+00  0.41635828821E+03  0.41635828821E+03  0.00000000000E+00 0. -1.
         21   -1    0    0  502  503 -0.00000000000E+00 -0.00000000000E+00 -0.15414879234E+03  0.15414879234E+03  0.00000000000E+00 0. -1.
          6    1    1    2  501    0  0.52092646763E+02  0.32692581859E+02  0.32764943514E+03  0.37558700870E+03  0.17300000000E+03 0. -1.
         -6    1    1    2    0  503 -0.52092646763E+02 -0.32692581859E+02 -0.65439939272E+02  0.19492007184E+03  0.17300000000E+03 0. -1.
<mgrwt>
<rscale>  2 0.18360678E+03</rscale>
<asrwt>0</asrwt>
<pdfrwt beam="1">  1       21 0.64055121E-01 0.18360678E+03</pdfrwt>
<pdfrwt beam="2">  1       21 0.23715199E-01 0.18360678E+03</pdfrwt>
<totfact> 0.37855503E+04</totfact>
</mgrwt>
</event>
<event>
 4    1  0.4173994E+000  0.1885281E+03  0.7546771E-02  0.1159796E+00
         21   -1    0    0  501  502  0.00000000000E+00  0.00000000000E+00  0.85308632740E+02  0.85308632740E+02  0.00000000000E+00 0. -1.
         21   -1    0    0  502  503 -0.00000000000E+00 -0.00000000000E+00 -0.56392662433E+03  0.56392662433E+03  0.00000000000E+00 0. -1.
          6    1    1    2  501    0 -0.38104926755E+02 -0.64512450663E+02 -0.73409526727E+02  0.20231609019E+03  0.17300000000E+03 0. -1.
         -6    1    1    2    0  503  0.38104926755E+02  0.64512450663E+02 -0.40520846487E+03  0.44691916689E+03  0.17300000000E+03 0. -1.
<mgrwt>
<rscale>  2 0.18852809E+03</rscale>
<asrwt>0</asrwt>
<pdfrwt beam="1">  1       21 0.13124405E-01 0.18852809E+03</pdfrwt>
<pdfrwt beam="2">  1       21 0.86757939E-01 0.18852809E+03</pdfrwt>
<totfact> 0.57238687E+04</totfact>
</mgrwt>
</event>
<event>
 4    1  0.4173994E+000  0.2507255E+03  0.7546771E-02  0.1112847E+00
         21   -1    0    0  501  502  0.00000000000E+00  0.00000000000E+00  0.38655967627E+03  0.38655967627E+03  0.00000000000E+00 0.  1.
         21   -1    0    0  502  503 -0.00000000000E+00 -0.00000000000E+00 -0.16320047190E+03  0.16320047190E+03  0.00000000000E+00 0.  1.
          6    1    1    2  501    0  0.59982098520E+02 -0.17127885976E+03  0.12803785428E+03  0.28152618364E+03  0.17300000000E+03 0.  1.
         -6    1    1    2    0  503 -0.59982098520E+02  0.17127885976E+03  0.95321350084E+02  0.26823396453E+03  0.17300000000E+03 0.  1.
<mgrwt>
<rscale>  2 0.25072555E+03</rscale>
<asrwt>0</asrwt>
<pdfrwt beam="1">  1       21 0.59470719E-01 0.25072555E+03</pdfrwt>
<pdfrwt beam="2">  1       21 0.25107765E-01 0.25072555E+03</pdfrwt>
<totfact> 0.38596762E+04</totfact>
</mgrwt>
</event>
<event>
 4    1  0.4173994E+000  0.2173610E+03  0.7546771E-02  0.1135866E+00
         21   -1    0    0  503  502  0.00000000000E+00  0.00000000000E+00  0.12214199760E+03  0.12214199760E+03  0.00000000000E+00 0. -1.
         21   -1    0    0  501  503 -0.00000000000E+00 -0.00000000000E+00 -0.43594085399E+03  0.43594085399E+03  0.00000000000E+00 0. -1.
          6    1    1    2  501    0  0.11811999161E+03  0.58004185224E+02 -0.63223187368E+02  0.22636914397E+03  0.17300000000E+03 0. -1.
         -6    1    1    2    0  502 -0.11811999161E+03 -0.58004185224E+02 -0.25057566902E+03  0.33171370762E+03  0.17300000000E+03 0. -1.
<mgrwt>
<rscale>  2 0.21736103E+03</rscale>
<asrwt>0</asrwt>
<pdfrwt beam="1">  1       21 0.18791077E-01 0.21736103E+03</pdfrwt>
<pdfrwt beam="2">  1       21 0.67067821E-01 0.21736103E+03</pdfrwt>
<totfact> 0.52153290E+04</totfact>
</mgrwt>
</event>
<event>
 4    1  0.4173994E+000  0.1791251E+03  0.7546771E-02  0.1168653E+00
         21   -1    0    0  501  502  0.00000000000E+00  0.00000000000E+00  0.10298576458E+03  0.10298576458E+03  0.00000000000E+00 0. -1.
         21   -1    0    0  502  503 -0.00000000000E+00 -0.00000000000E+00 -0.44294913590E+03  0.44294913590E+03  0.00000000000E+00 0. -1.
          6    1    1    2  501    0 -0.27185706621E+02 -0.37652664497E+02 -0.21312477553E+02  0.18038849045E+03  0.17300000000E+03 0. -1.
         -6    1    1    2    0  503  0.27185706621E+02  0.37652664497E+02 -0.31865089376E+03  0.36554641003E+03  0.17300000000E+03 0. -1.
<mgrwt>
<rscale>  2 0.17912506E+03</rscale>
<asrwt>0</asrwt>
<pdfrwt beam="1">  1       21 0.15843964E-01 0.17912506E+03</pdfrwt>
<pdfrwt beam="2">  1       21 0.68146019E-01 0.17912506E+03</pdfrwt>
<totfact> 0.70187745E+04</totfact>
</mgrwt>
</event>
<event>
 4    1  0.4173994E+000  0.2033677E+03  0.7546771E-02  0.1146928E+00
         21   -1    0    0  501  502  0.00000000000E+00  0.00000000000E+00  0.94712949508E+02  0.94712949508E+02  0.00000000000E+00 0.  1.
         21   -1    0    0  502  503 -0.00000000000E+00 -0.00000000000E+00 -0.45332042187E+03  0.45332042187E+03  0.00000000000E+00 0. -1.
          6    1    1    2  501    0  0.64449530539E+02  0.85297555442E+02 -0.12679015173E+03  0.23965424579E+03  0.17300000000E+03 0. -1.
         -6    1    1    2    0  503 -0.64449530539E+02 -0.85297555442E+02 -0.23181732063E+03  0.30837912559E+03  0.17300000000E+03 0. -1.
<mgrwt>
<rscale>  2 0.20336768E+03</rscale>
<asrwt>0</asrwt>
<pdfrwt beam="1">  1       21 0.14571223E-01 0.20336768E+03</pdfrwt>
<pdfrwt beam="2">  1       21 0.69741605E-01 0.20336768E+03</pdfrwt>
<totfact> 0.76884056E+04</totfact>
</mgrwt>
</event>
<event>
 4    1  0.4173994E+000  0.2498395E+03  0.7546771E-02  0.1113406E+00
         21   -1    0    0  503  502  0.00000000000E+00  0.00000000000E+00  0.13773891444E+03  0.13773891444E+03  0.00000000000E+00 0. -1.
         21   -1    0    0  501  503 -0.00000000000E+00 -0.00000000000E+00 -0.46464056657E+03  0.46464056657E+03  0.00000000000E+00 0.  1.
          6    1    1    2  501    0  0.11086053705E+03 -0.14212918863E+03 -0.21076471750E+03  0.32686622811E+03  0.17300000000E+03 0.  1.
         -6    1    1    2    0  502 -0.11086053705E+03  0.14212918863E+03 -0.11613693462E+03  0.27551325290E+03  0.17300000000E+03 0. -1.
<mgrwt>
<rscale>  2 0.24983948E+03</rscale>
<asrwt>0</asrwt>
<pdfrwt beam="1">  1       21 0.21190603E-01 0.24983948E+03</pdfrwt>
<pdfrwt beam="2">  1       21 0.71483163E-01 0.24983948E+03</pdfrwt>
<totfact> 0.35635910E+04</totfact>
</mgrwt>
</event>
<event>
 4    1  0.4173994E+000  0.1824449E+03  0.7546771E-02  0.1165458E+00
         21   -1    0    0  501  502  0.00000000000E+00  0.00000000000E+00  0.29351377544E+03  0.29351377544E+03  0.00000000000E+00 0. -1.
         21   -1    0    0  502  503 -0.00000000000E+00 -0.00000000000E+00 -0.13303493206E+03  0.13303493206E+03  0.00000000000E+00 0.  1.
          6    1    1    2  501    0 -0.52583835211E+02  0.24333046732E+02  0.16216256822E+03  0.24409599632E+03  0.17300000000E+03 0. -1.
         -6    1    1    2    0  503  0.52583835211E+02 -0.24333046732E+02 -0.16837248356E+01  0.18245271118E+03  0.17300000000E+03 0.  1.
<mgrwt>
<rscale>  2 0.18244494E+03</rscale>
<asrwt>0</asrwt>
<pdfrwt beam="1">  1       21 0.45155965E-01 0.18244494E+03</pdfrwt>
<pdfrwt beam="2">  1       21 0.20466913E-01 0.18244494E+03</pdfrwt>
<totfact> 0.10441507E+05</totfact>
</mgrwt>
</event>
<event>
 4    1  0.4173994E+000  0.1995968E+03  0.7546771E-02  0.1150080E+00
         21   -1    0    0  503  502  0.00000000000E+00  0.00000000000E+00  0.49825953142E+03  0.49825953142E+03  0.00000000000E+00 0. -1.
         21   -1    0    0  501  503 -0.00000000000E+00 -0.00000000000E+00 -0.89035332189E+02  0.89035332189E+02  0.00000000000E+00 0.  1.
          6    1    1    2  501    0  0.99497409778E+02 -0.31864271411E+01  0.29838333270E+03  0.35898677009E+03  0.17300000000E+03 0. -1.
         -6    1    1    2    0  502 -0.99497409778E+02  0.31864271411E+01  0.11084086653E+03  0.22830809351E+03  0.17300000000E+03 0.  1.
<mgrwt>
<rscale>  2 0.19959681E+03</rscale>
<asrwt>0</asrwt>
<pdfrwt beam="1">  1       21 0.76655311E-01 0.19959681E+03</pdfrwt>
<pdfrwt beam="2">  1       21 0.13697744E-01 0.19959681E+03</pdfrwt>
<totfact> 0.69814091E+04</totfact>
</mgrwt>
</event>
<event>
 4    1  0.4173994E+000  0.2027394E+03  0.7546771E-02  0.1147448E+00
         21   -1    0    0  501  502  0.00000000000E+00  0.00000000000E+00  0.34026402027E+03  0.34026402027E+03  0.00000000000E+00 0. -1.
         21   -1    0    0  502  503 -0.00000000000E+00 -0.00000000000E+00 -0.12079981079E+03  0.12079981079E+03  0.00000000000E+00 0. -1.
          6    1    1    2  501    0  0.12365893639E+02  0.10498261348E+03  0.11058666111E+03  0.23093868033E+03  0.17300000000E+03 0. -1.
         -6    1    1    2    0  503 -0.12365893639E+02 -0.10498261348E+03  0.10887754836E+03  0.23012515072E+03  0.17300000000E+03 0. -1.
<mgrwt>
<rscale>  2 0.20273940E+03</rscale>
<asrwt>0</asrwt>
<pdfrwt beam="1">  1       21 0.52348311E-01 0.20273940E+03</pdfrwt>
<pdfrwt beam="2">  1       21 0.18584586E-01 0.20273940E+03</pdfrwt>
<totfact> 0.91216115E+04</totfact>
</mgrwt>
</event>
<event>
 4    1  0.4173994E+000  0.2223898E+03  0.7546771E-02  0.1132114E+00
         21   -1    0    0  503  502  0.00000000000E+00  0.00000000000E+00  0.47501255909E+02  0.47501255909E+02  0.00000000000E+00 0. -1.
         21   -1    0    0  501  503 -0.00000000000E+00 -0.00000000000E+00 -0.11025366849E+04  0.11025366849E+04  0.00000000000E+00 0. -1.
          6    1    1    2  501    0 -0.13479268681E+03 -0.36866754480E+02 -0.66316977597E+03  0.69946506543E+03  0.17300000000E+03 0. -1.
         -6    1    1    2    0  502  0.13479268681E+03  0.36866754480E+02 -0.39186565302E+03  0.45057287537E+03  0.17300000000E+03 0. -1.
<mgrwt>
<rscale>  2 0.22238981E+03</rscale>
<asrwt>0</asrwt>
<pdfrwt beam="1">  1       21 0.73078854E-02 0.22238981E+03</pdfrwt>
<pdfrwt beam="2">  1       21 0.16962103E+00 0.22238981E+03</pdfrwt>
<totfact> 0.29581948E+04</totfact>
</mgrwt>
</event>
<event>
 4    1  0.4173994E+000  0.2722690E+03  0.7546771E-02  0.1099988E+00
         21   -1    0    0  503  502  0.00000000000E+00  0.00000000000E+00  0.15936353201E+03  0.15936353201E+03  0.00000000000E+00 0.  1.
         21   -1    0    0  501  503 -0.00000000000E+00 -0.00000000000E+00 -0.49093725321E+03  0.49093725321E+03  0.00000000000E+00 0. -1.
          6    1    1    2  501    0  0.71677377147E+02  0.19764551750E+03 -0.24028481220E+03  0.36313521993E+03  0.17300000000E+03 0.  1.
         -6    1    1    2    0  502 -0.71677377147E+02 -0.19764551750E+03 -0.91288908995E+02  0.28716556529E+03  0.17300000000E+03 0.  1.
<mgrwt>
<rscale>  2 0.27226898E+03</rscale>
<asrwt>0</asrwt>
<pdfrwt beam="1">  1       21 0.24517467E-01 0.27226898E+03</pdfrwt>
<pdfrwt beam="2">  1       21 0.75528807E-01 0.27226898E+03</pdfrwt>
<totfact> 0.23627775E+04</totfact>
</mgrwt>
</event>
<event>
 4    1  0.4173994E+000  0.3369691E+03  0.7546771E-02  0.1068094E+00
         21   -1    0    0  503  502  0.00000000000E+00  0.00000000000E+00  0.79037427533E+03  0.79037427533E+03  0.00000000000E+00 0. -1.
         21   -1    0    0  501  503 -0.00000000000E+00 -0.00000000000E+00 -0.24296072405E+03  0.24296072405E+03  0.00000000000E+00 0.  1.
          6    1    1    2  501    0  0.24031902619E+03 -0.16082881284E+03 -0.56595137360E+02  0.34168867550E+03  0.17300000000E+03 0.  1.
         -6    1    1    2    0  502 -0.24031902619E+03  0.16082881284E+03  0.60400868864E+03  0.69164632388E+03  0.17300000000E+03 0. -1.
<mgrwt>
<rscale>  2 0.33696905E+03</rscale>
<asrwt>0</asrwt>
<pdfrwt beam="1">  1       21 0.12159604E+00 0.33696905E+03</pdfrwt>
<pdfrwt beam="2">  1       21 0.37378573E-01 0.33696905E+03</pdfrwt>
<totfact> 0.32098518E+03</totfact>
</mgrwt>
</event>
<event>
 4    1  0.4173994E+000  0.1908853E+03  0.7546771E-02  0.1157665E+00
         21   -1    0    0  503  502  0.00000000000E+00  0.00000000000E+00  0.46070056148E+02  0.46070056148E+02  0.00000000000E+00 0. -1.
         21   -1    0    0  501  503 -0.00000000000E+00 -0.00000000000E+00 -0.94468157674E+03  0.94468157674E+03  0.00000000000E+00 0. -1.
          6    1    1    2  501    0  0.80673377924E+02 -0.51733975111E-01 -0.64916871537E+03  0.67665147425E+03  0.17300000000E+03 0. -1.
         -6    1    1    2    0  502 -0.80673377924E+02  0.51733975111E-01 -0.24944280522E+03  0.31410015864E+03  0.17300000000E+03 0. -1.
<mgrwt>
<rscale>  2 0.19088530E+03</rscale>
<asrwt>0</asrwt>
<pdfrwt beam="1">  1       21 0.70877010E-02 0.19088530E+03</pdfrwt>
<pdfrwt beam="2">  1       21 0.14533563E+00 0.19088530E+03</pdfrwt>
<totfact> 0.48119373E+04</totfact>
</mgrwt>
</event>
<event>
 4    1  0.4173994E+000  0.1948886E+03  0.7546771E-02  0.1154125E+00
         21   -1    0    0  503  502  0.00000000000E+00  0.00000000000E+00  0.71192805425E+03  0.71192805425E+03  0.00000000000E+00 0. -1.
         21   -1    0    0  501  503 -0.00000000000E+00 -0.00000000000E+00 -0.13202369791E+03  0.13202369791E+03  0.00000000000E+00 0. -1.
          6    1    1    2  501    0  0.71131961163E+02 -0.54706538772E+02 -0.35791266901E+02  0.19814786416E+03  0.17300000000E+03 0. -1.
         -6    1    1    2    0  502 -0.71131961163E+02  0.54706538772E+02  0.61569562324E+03  0.64580388800E+03  0.17300000000E+03 0. -1.
<mgrwt>
<rscale>  2 0.19488859E+03</rscale>
<asrwt>0</asrwt>
<pdfrwt beam="1">  1       21 0.10952739E+00 0.19488859E+03</pdfrwt>
<pdfrwt beam="2">  1       21 0.20311339E-01 0.19488859E+03</pdfrwt>
<totfact> 0.14778421E+04</totfact>
</mgrwt>
</event>
<event>
 4    1  0.4173994E+000  0.1853590E+03  0.7546771E-02  0.1162715E+00
         21   -1    0    0  501  502  0.00000000000E+00  0.00000000000E+00  0.15597626194E+03  0.15597626194E+03  0.00000000000E+00 0. -1.
         21   -1    0    0  502  503 -0.00000000000E+00 -0.00000000000E+00 -0.42953051322E+03  0.42953051322E+03  0.00000000000E+00 0. -1.
          6    1    1    2  501    0  0.49739661771E+02  0.44214568888E+02  0.67557251137E+02  0.19728645224E+03  0.17300000000E+03 0. -1.
         -6    1    1    2    0  503 -0.49739661771E+02 -0.44214568888E+02 -0.34111150242E+03  0.38822032293E+03  0.17300000000E+03 0. -1.
<mgrwt>
<rscale>  2 0.18535901E+03</rscale>
<asrwt>0</asrwt>
<pdfrwt beam="1">  1       21 0.23996348E-01 0.18535901E+03</pdfrwt>
<pdfrwt beam="2">  1       21 0.66081617E-01 0.18535901E+03</pdfrwt>
<totfact> 0.34562839E+04</totfact>
</mgrwt>
</event>
<event>
 4    1  0.4173994E+000  0.2064927E+03  0.7546771E-02  0.1144374E+00
         21   -1    0    0  501  502  0.00000000000E+00  0.00000000000E+00  0.68971915170E+02  0.68971915170E+02  0.00000000000E+00 0. -1.
         21   -1    0    0  502  503 -0.00000000000E+00 -0.00000000000E+00 -0.90375645705E+03  0.90375645705E+03  0.00000000000E+00 0. -1.
          6    1    1    2  501    0  0.85715609144E+02 -0.73232867969E+02 -0.14400816200E+03  0.25174902051E+03  0.17300000000E+03 0. -1.
         -6    1    1    2    0  503 -0.85715609144E+02  0.73232867969E+02 -0.69077637988E+03  0.72097935172E+03  0.17300000000E+03 0. -1.
<mgrwt>
<rscale>  2 0.20649266E+03</rscale>
<asrwt>0</asrwt>
<pdfrwt beam="1">  1       21 0.10611065E-01 0.20649266E+03</pdfrwt>
<pdfrwt beam="2">  1       21 0.13903945E+00 0.20649266E+03</pdfrwt>
<totfact> 0.26382314E+04</totfact>
</mgrwt>
</event>
<event>
 4    1  0.4173994E+000  0.2959589E+03  0.7546771E-02  0.1087278E+00
         21   -1    0    0  501  502  0.00000000000E+00  0.00000000000E+00  0.45761870021E+03  0.45761870021E+03  0.00000000000E+00 0.  1.
         21   -1    0    0  502  503 -0.00000000000E+00 -0.00000000000E+00 -0.47277154257E+03  0.47277154257E+03  0.00000000000E+00 0.  1.
          6    1    1    2  501    0  0.23951165102E+03  0.17229029350E+02  0.35129903152E+03  0.45935028026E+03  0.17300000000E+03 0.  1.
         -6    1    1    2    0  503 -0.23951165102E+03 -0.17229029350E+02 -0.36645187387E+03  0.47103996252E+03  0.17300000000E+03 0.  1.
<mgrwt>
<rscale>  2 0.29595890E+03</rscale>
<asrwt>0</asrwt>
<pdfrwt beam="1">  1       21 0.70402877E-01 0.29595890E+03</pdfrwt>
<pdfrwt beam="2">  1       21 0.72734083E-01 0.29595890E+03</pdfrwt>
<totfact> 0.28986458E+03</totfact>
</mgrwt>
</event>
<event>
 4    1  0.4173994E+000  0.2199158E+03  0.7546771E-02  0.1133946E+00
         21   -1    0    0  501  502  0.00000000000E+00  0.00000000000E+00  0.57644768552E+03  0.57644768552E+03  0.00000000000E+00 0.  1.
         21   -1    0    0  502  503 -0.00000000000E+00 -0.00000000000E+00 -0.92609889818E+02  0.92609889818E+02  0.00000000000E+00 0.  1.
          6    1    1    2  501    0  0.13338627718E+03  0.25338975738E+02  0.34452053964E+03  0.40872651598E+03  0.17300000000E+03 0.  1.
         -6    1    1    2    0  503 -0.13338627718E+03 -0.25338975738E+02  0.13931725606E+03  0.26033105936E+03  0.17300000000E+03 0.  1.
<mgrwt>
<rscale>  2 0.21991581E+03</rscale>
<asrwt>0</asrwt>
<pdfrwt beam="1">  1       21 0.88684257E-01 0.21991581E+03</pdfrwt>
<pdfrwt beam="2">  1       21 0.14247676E-01 0.21991581E+03</pdfrwt>
<totfact> 0.46185457E+04</totfact>
</mgrwt>
</event>
<event>
 4    1  0.4173994E+000  0.1818664E+03  0.7546771E-02  0.1166009E+00
         21   -1    0    0  503  502  0.00000000000E+00  0.00000000000E+00  0.14077545104E+03  0.14077545104E+03  0.00000000000E+00 0. -1.
         21   -1    0    0  501  503 -0.00000000000E+00 -0.00000000000E+00 -0.40778846102E+03  0.40778846102E+03  0.00000000000E+00 0.  1.
          6    1    1    2  501    0 -0.56081344894E+02 -0.11281629232E+01 -0.31207227131E+03  0.36119868842E+03  0.17300000000E+03 0.  1.
         -6    1    1    2    0  502  0.56081344894E+02  0.11281629232E+01  0.45059261331E+02  0.18736522364E+03  0.17300000000E+03 0. -1.
<mgrwt>
<rscale>  2 0.18186641E+03</rscale>
<asrwt>0</asrwt>
<pdfrwt beam="1">  1       21 0.21657762E-01 0.18186641E+03</pdfrwt>
<pdfrwt beam="2">  1       21 0.62736686E-01 0.18186641E+03</pdfrwt>
<totfact> 0.47039562E+04</totfact>
</mgrwt>
</event>
<event>
 4    1  0.4173994E+000  0.1796745E+03  0.7546771E-02  0.1168118E+00
         21   -1    0    0  503  502  0.00000000000E+00  0.00000000000E+00  0.49244809591E+03  0.49244809591E+03  0.00000000000E+00 0.  1.
         21   -1    0    0  501  503 -0.00000000000E+00 -0.00000000000E+00 -0.70682772904E+02  0.70682772904E+02  0.00000000000E+00 0.  1.
          6    1    1    2  501    0 -0.91927680426E+01  0.47638319331E+02  0.13505188048E+03  0.22477083190E+03  0.17300000000E+03 0.  1.
         -6    1    1    2    0  502  0.91927680426E+01 -0.47638319331E+02  0.28671344253E+03  0.33836003692E+03  0.17300000000E+03 0.  1.
<mgrwt>
<rscale>  2 0.17967447E+03</rscale>
<asrwt>0</asrwt>
<pdfrwt beam="1">  1       21 0.75761243E-01 0.17967447E+03</pdfrwt>
<pdfrwt beam="2">  1       21 0.10874273E-01 0.17967447E+03</pdfrwt>
<totfact> 0.10926795E+05</totfact>
</mgrwt>
</event>
<event>
 4    1  0.4173994E+000  0.2011309E+03  0.7546771E-02  0.1148788E+00
         21   -1    0    0  503  502  0.00000000000E+00  0.00000000000E+00  0.10029695442E+03  0.10029695442E+03  0.00000000000E+00 0. -1.
         21   -1    0    0  501  503 -0.00000000000E+00 -0.00000000000E+00 -0.46353544204E+03  0.46353544204E+03  0.00000000000E+00 0.  1.
          6    1    1    2  501    0  0.44457684696E+02  0.92456234630E+02 -0.28321255802E+03  0.34736579289E+03  0.17300000000E+03 0.  1.
         -6    1    1    2    0  502 -0.44457684696E+02 -0.92456234630E+02 -0.80025929598E+02  0.21646660356E+03  0.17300000000E+03 0. -1.
<mgrwt>
<rscale>  2 0.20113091E+03</rscale>
<asrwt>0</asrwt>
<pdfrwt beam="1">  1       21 0.15430301E-01 0.20113091E+03</pdfrwt>
<pdfrwt beam="2">  1       21 0.71313143E-01 0.20113091E+03</pdfrwt>
<totfact> 0.65998037E+04</totfact>
</mgrwt>
</event>
<event>
 4    1  0.4173994E+000  0.2265601E+03  0.7546771E-02  0.1129085E+00
         21   -1    0    0  503  502  0.00000000000E+00  0.00000000000E+00  0.27298969813E+03  0.27298969813E+03  0.00000000000E+00 0. -1.
         21   -1    0    0  501  503 -0.00000000000E+00 -0.00000000000E+00 -0.27245289149E+03  0.27245289149E+03  0.00000000000E+00 0.  1.
          6    1    1    2  501    0 -0.89526155171E+02 -0.11569595086E+03 -0.15154519759E+03  0.27257188486E+03  0.17300000000E+03 0.  1.
         -6    1    1    2    0  502  0.89526155171E+02  0.11569595086E+03  0.15208200423E+03  0.27287070476E+03  0.17300000000E+03 0. -1.
<mgrwt>
<rscale>  2 0.22656011E+03</rscale>
<asrwt>0</asrwt>
<pdfrwt beam="1">  1       21 0.41998415E-01 0.22656011E+03</pdfrwt>
<pdfrwt beam="2">  1       21 0.41915829E-01 0.22656011E+03</pdfrwt>
<totfact> 0.29363280E+04</totfact>
</mgrwt>
</event>
<event>
 4    1  0.4173994E+000  0.1976212E+03  0.7546771E-02  0.1151762E+00
         21   -1    0    0  503  502  0.00000000000E+00  0.00000000000E+00  0.32551851463E+03  0.32551851463E+03  0.00000000000E+00 0.  1.
         21   -1    0    0  501  503 -0.00000000000E+00 -0.00000000000E+00 -0.17132525546E+03  0.17132525546E+03  0.00000000000E+00 0.  1.
          6    1    1    2  501    0 -0.21452289282E+02  0.93085689719E+02 -0.58906734384E+02  0.20621384459E+03  0.17300000000E+03 0.  1.
         -6    1    1    2    0  502  0.21452289282E+02 -0.93085689719E+02  0.21309999354E+03  0.29062992550E+03  0.17300000000E+03 0.  1.
<mgrwt>
<rscale>  2 0.19762122E+03</rscale>
<asrwt>0</asrwt>
<pdfrwt beam="1">  1       21 0.50079771E-01 0.19762122E+03</pdfrwt>
<pdfrwt beam="2">  1       21 0.26357732E-01 0.19762122E+03</pdfrwt>
<totfact> 0.51860856E+04</totfact>
</mgrwt>
</event>
<event>
 4    1  0.4173994E+000  0.1788055E+03  0.7546771E-02  0.1168964E+00
         21   -1    0    0  503  502  0.00000000000E+00  0.00000000000E+00  0.38388739186E+03  0.38388739186E+03  0.00000000000E+00 0. -1.
         21   -1    0    0  501  503 -0.00000000000E+00 -0.00000000000E+00 -0.26700431072E+03  0.26700431072E+03  0.00000000000E+00 0. -1.
          6    1    1    2  501    0 -0.44989622128E+02 -0.42806961925E+01 -0.21151824384E+03  0.27696815329E+03  0.17300000000E+03 0. -1.
         -6    1    1    2    0  502  0.44989622128E+02  0.42806961925E+01  0.32840132498E+03  0.37392354928E+03  0.17300000000E+03 0. -1.
<mgrwt>
<rscale>  2 0.17880545E+03</rscale>
<asrwt>0</asrwt>
<pdfrwt beam="1">  1       21 0.59059599E-01 0.17880545E+03</pdfrwt>
<pdfrwt beam="2">  1       21 0.41077586E-01 0.17880545E+03</pdfrwt>
<totfact> 0.15435154E+04</totfact>
</mgrwt>
</event>
<event>
 4    1  0.4173994E+000  0.2870754E+03  0.7546771E-02  0.1091886E+00
         21   -1    0    0  501  502  0.00000000000E+00  0.00000000000E+00  0.39862968982E+03  0.39862968982E+03  0.00000000000E+00 0.  1.
         21   -1    0    0  502  503 -0.00000000000E+00 -0.00000000000E+00 -0.35944038894E+03  0.35944038894E+03  0.00000000000E+00 0.  1.
          6    1    1    2  501    0 -0.15412234962E+03  0.16949797030E+03  0.26664619212E+03  0.39180665175E+03  0.17300000000E+03 0.  1.
         -6    1    1    2    0  503  0.15412234962E+03 -0.16949797030E+03 -0.22745689124E+03  0.36626342700E+03  0.17300000000E+03 0.  1.
<mgrwt>
<rscale>  2 0.28707536E+03</rscale>
<asrwt>0</asrwt>
<pdfrwt beam="1">  1       21 0.61327645E-01 0.28707536E+03</pdfrwt>
<pdfrwt beam="2">  1       21 0.55298521E-01 0.28707536E+03</pdfrwt>
<totfact> 0.71955621E+03</totfact>
</mgrwt>
</event>
<event>
 4    1  0.4173994E+000  0.2127175E+03  0.7546771E-02  0.1139432E+00
         21   -1    0    0  503  502  0.00000000000E+00  0.00000000000E+00  0.11317019667E+03  0.11317019667E+03  0.00000000000E+00 0. -1.
         21   -1    0    0  501  503 -0.00000000000E+00 -0.00000000000E+00 -0.46815036690E+03  0.46815036690E+03  0.00000000000E+00 0. -1.
          6    1    1    2  501    0  0.61557875998E+02  0.10737944879E+03 -0.28852805595E+03  0.35846500135E+03  0.17300000000E+03 0. -1.
         -6    1    1    2    0  502 -0.61557875998E+02 -0.10737944879E+03 -0.66452114277E+02  0.22285556222E+03  0.17300000000E+03 0. -1.
<mgrwt>
<rscale>  2 0.21271746E+03</rscale>
<asrwt>0</asrwt>
<pdfrwt beam="1">  1       21 0.17410800E-01 0.21271746E+03</pdfrwt>
<pdfrwt beam="2">  1       21 0.72023132E-01 0.21271746E+03</pdfrwt>
<totfact> 0.51438560E+04</totfact>
</mgrwt>
</event>
<event>
 4    1  0.4173994E+000  0.2363639E+03  0.7546771E-02  0.1122239E+00
         21   -1    0    0  501  502  0.00000000000E+00  0.00000000000E+00  0.34852530727E+03  0.34852530727E+03  0.00000000000E+00 0. -1.
         21   -1    0    0  502  503 -0.00000000000E+00 -0.00000000000E+00 -0.16342001904E+03  0.16342001904E+03  0.00000000000E+00 0.  1.
          6    1    1    2  501    0  0.11260139284E+03  0.11515136607E+03  0.57172587912E+02  0.24318021216E+03  0.17300000000E+03 0.  1.
         -6    1    1    2    0  503 -0.11260139284E+03 -0.11515136607E+03  0.12793270032E+03  0.26876511416E+03  0.17300000000E+03 0. -1.
<mgrwt>
<rscale>  2 0.23636394E+03</rscale>
<asrwt>0</asrwt>
<pdfrwt beam="1">  1       21 0.53619278E-01 0.23636394E+03</pdfrwt>
<pdfrwt beam="2">  1       21 0.25141541E-01 0.23636394E+03</pdfrwt>
<totfact> 0.48328728E+04</totfact>
</mgrwt>
</event>
<event>
 4    1  0.4173994E+000  0.2019989E+03  0.7546771E-02  0.1148063E+00
         21   -1    0    0  503  502  0.00000000000E+00  0.00000000000E+00  0.40619764487E+03  0.40619764487E+03  0.00000000000E+00 0.  1.
         21   -1    0    0  501  503 -0.00000000000E+00 -0.00000000000E+00 -0.10045492985E+03  0.10045492985E+03  0.00000000000E+00 0.  1.
          6    1    1    2  501    0  0.10872598406E+02  0.10371271129E+03  0.15413545859E+03  0.25408911719E+03  0.17300000000E+03 0.  1.
         -6    1    1    2    0  502 -0.10872598406E+02 -0.10371271129E+03  0.15160725644E+03  0.25256345754E+03  0.17300000000E+03 0.  1.
<mgrwt>
<rscale>  2 0.20199886E+03</rscale>
<asrwt>0</asrwt>
<pdfrwt beam="1">  1       21 0.62491945E-01 0.20199886E+03</pdfrwt>
<pdfrwt beam="2">  1       21 0.15454605E-01 0.20199886E+03</pdfrwt>
<totfact> 0.87833126E+04</totfact>
</mgrwt>
</event>
<event>
 4    1  0.4173994E+000  0.2102051E+03  0.7546771E-02  0.1141404E+00
         21   -1    0    0  503  502  0.00000000000E+00  0.00000000000E+00  0.26788225146E+02  0.26788225146E+02  0.00000000000E+00 0.  1.
         21   -1    0    0  501  503 -0.00000000000E+00 -0.00000000000E+00 -0.21334384501E+04  0.21334384501E+04  0.00000000000E+00 0.  1.
          6    1    1    2  501    0 -0.10179720987E+03 -0.62405883570E+02 -0.15677728608E+04  0.15818021082E+04  0.17300000000E+03 0.  1.
         -6    1    1    2    0  502  0.10179720987E+03  0.62405883570E+02 -0.53887736417E+03  0.57842456712E+03  0.17300000000E+03 0.  1.
<mgrwt>
<rscale>  2 0.21020506E+03</rscale>
<asrwt>0</asrwt>
<pdfrwt beam="1">  1       21 0.41212647E-02 0.21020506E+03</pdfrwt>
<pdfrwt beam="2">  1       21 0.32822135E+00 0.21020506E+03</pdfrwt>
<totfact> 0.85708091E+03</totfact>
</mgrwt>
</event>
<event>
 4    1  0.4173994E+000  0.1845598E+03  0.7546771E-02  0.1163462E+00
         21   -1    0    0  501  502  0.00000000000E+00  0.00000000000E+00  0.43311271508E+03  0.43311271508E+03  0.00000000000E+00 0.  1.
         21   -1    0    0  502  503 -0.00000000000E+00 -0.00000000000E+00 -0.78865601973E+02  0.78865601973E+02  0.00000000000E+00 0.  1.
          6    1    1    2  501    0 -0.55681576630E+02  0.32138528631E+02  0.19065012816E+03  0.26534843954E+03  0.17300000000E+03 0.  1.
         -6    1    1    2    0  503  0.55681576630E+02 -0.32138528631E+02  0.16359698495E+03  0.24662987751E+03  0.17300000000E+03 0.  1.
<mgrwt>
<rscale>  2 0.18455981E+03</rscale>
<asrwt>0</asrwt>
<pdfrwt beam="1">  1       21 0.66632724E-01 0.18455981E+03</pdfrwt>
<pdfrwt beam="2">  1       21 0.12133170E-01 0.18455981E+03</pdfrwt>
<totfact> 0.11913907E+05</totfact>
</mgrwt>
</event>
<event>
 4    1  0.4173994E+000  0.1916583E+03  0.7546771E-02  0.1156974E+00
         21   -1    0    0  501  502  0.00000000000E+00  0.00000000000E+00  0.76588742537E+02  0.76588742537E+02  0.00000000000E+00 0. -1.
         21   -1    0    0  502  503 -0.00000000000E+00 -0.00000000000E+00 -0.62139111570E+03  0.62139111570E+03  0.00000000000E+00 0. -1.
          6    1    1    2  501    0 -0.53422723831E+02 -0.62848333826E+02 -0.10570099596E+03  0.21887348180E+03  0.17300000000E+03 0. -1.
         -6    1    1    2    0  503  0.53422723831E+02  0.62848333826E+02 -0.43910137720E+03  0.47910637644E+03  0.17300000000E+03 0. -1.
<mgrwt>
<rscale>  2 0.19165829E+03</rscale>
<asrwt>0</asrwt>
<pdfrwt beam="1">  1       21 0.11782884E-01 0.19165829E+03</pdfrwt>
<pdfrwt beam="2">  1       21 0.95598633E-01 0.19165829E+03</pdfrwt>
<totfact> 0.55371979E+04</totfact>
</mgrwt>
</event>
<event>
 4    1  0.4173994E+000  0.1920650E+03  0.7546771E-02  0.1156612E+00
         21   -1    0    0  503  502  0.00000000000E+00  0.00000000000E+00  0.39494270382E+03  0.39494270382E+03  0.00000000000E+00 0. -1.
         21   -1    0    0  501  503 -0.00000000000E+00 -0.00000000000E+00 -0.10892374575E+03  0.10892374575E+03  0.00000000000E+00 0. -1.
          6    1    1    2  501    0  0.75724242369E+02  0.35011205413E+02  0.47910361742E+02  0.19795036789E+03  0.17300000000E+03 0. -1.
         -6    1    1    2    0  502 -0.75724242369E+02 -0.35011205413E+02  0.23810859633E+03  0.30591608168E+03  0.17300000000E+03 0. -1.
<mgrwt>
<rscale>  2 0.19206495E+03</rscale>
<asrwt>0</asrwt>
<pdfrwt beam="1">  1       21 0.60760415E-01 0.19206495E+03</pdfrwt>
<pdfrwt beam="2">  1       21 0.16757500E-01 0.19206495E+03</pdfrwt>
<totfact> 0.80808602E+04</totfact>
</mgrwt>
</event>
<event>
 4    1  0.4173994E+000  0.1878054E+03  0.7546771E-02  0.1160456E+00
         21   -1    0    0  501  502  0.00000000000E+00  0.00000000000E+00  0.68447913256E+02  0.68447913256E+02  0.00000000000E+00 0.  1.
         21   -1    0    0  502  503 -0.00000000000E+00 -0.00000000000E+00 -0.64985522346E+03  0.64985522346E+03  0.00000000000E+00 0.  1.
          6    1    1    2  501    0 -0.14052238145E+01  0.73074544508E+02 -0.12727511601E+03  0.22686960762E+03  0.17300000000E+03 0.  1.
         -6    1    1    2    0  503  0.14052238145E+01 -0.73074544508E+02 -0.45413219420E+03  0.49143352909E+03  0.17300000000E+03 0.  1.
<mgrwt>
<rscale>  2 0.18780539E+03</rscale>
<asrwt>0</asrwt>
<pdfrwt beam="1">  1       21 0.10530448E-01 0.18780539E+03</pdfrwt>
<pdfrwt beam="2">  1       21 0.99977730E-01 0.18780539E+03</pdfrwt>
<totfact> 0.60966269E+04</totfact>
</mgrwt>
</event>
<event>
 4    1  0.4173994E+000  0.2651417E+03  0.7546771E-02  0.1104093E+00
         21   -1    0    0  503  502  0.00000000000E+00  0.00000000000E+00  0.18694483630E+04  0.18694483630E+04  0.00000000000E+00 0. -1.
         21   -1    0    0  501  503 -0.00000000000E+00 -0.00000000000E+00 -0.57687537184E+02  0.57687537184E+02  0.00000000000E+00 0. -1.
          6    1    1    2  501    0  0.11470859215E+03  0.16496374075E+03  0.33735015958E+03  0.42907485016E+03  0.17300000000E+03 0. -1.
         -6    1    1    2    0  502 -0.11470859215E+03 -0.16496374075E+03  0.14744106662E+04  0.14980610500E+04  0.17300000000E+03 0. -1.
<mgrwt>
<rscale>  2 0.26514165E+03</rscale>
<asrwt>0</asrwt>
<pdfrwt beam="1">  1       21 0.28760739E+00 0.26514165E+03</pdfrwt>
<pdfrwt beam="2">  1       21 0.88750071E-02 0.26514165E+03</pdfrwt>
<totfact> 0.37475472E+03</totfact>
</mgrwt>
</event>
<event>
 4    1  0.4173994E+000  0.1991634E+03  0.7546771E-02  0.1150447E+00
         21   -1    0    0  501  502  0.00000000000E+00  0.00000000000E+00  0.33383735001E+02  0.33383735001E+02  0.00000000000E+00 0.  1.
         21   -1    0    0  502  503 -0.00000000000E+00 -0.00000000000E+00 -0.12544767094E+04  0.12544767094E+04  0.00000000000E+00 0. -1.
          6    1    1    2  501    0  0.78577135128E+02 -0.59688150820E+02 -0.46252039973E+03  0.50357835704E+03  0.17300000000E+03 0.  1.
         -6    1    1    2    0  503 -0.78577135128E+02  0.59688150820E+02 -0.75857257463E+03  0.78428208733E+03  0.17300000000E+03 0. -1.
<mgrwt>
<rscale>  2 0.19916335E+03</rscale>
<asrwt>0</asrwt>
<pdfrwt beam="1">  1       21 0.51359595E-02 0.19916335E+03</pdfrwt>
<pdfrwt beam="2">  1       21 0.19299641E+00 0.19916335E+03</pdfrwt>
<totfact> 0.38144775E+04</totfact>
</mgrwt>
</event>
<event>
 4    1  0.4173994E+000  0.1904359E+03  0.7546771E-02  0.1158069E+00
         21   -1    0    0  501  502  0.00000000000E+00  0.00000000000E+00  0.12564589797E+03  0.12564589797E+03  0.00000000000E+00 0. -1.
         21   -1    0    0  502  503 -0.00000000000E+00 -0.00000000000E+00 -0.31240342695E+03  0.31240342695E+03  0.00000000000E+00 0.  1.
          6    1    1    2  501    0  0.78270056454E+02  0.14513462868E+02 -0.32965467179E+02  0.19326811524E+03  0.17300000000E+03 0. -1.
         -6    1    1    2    0  503 -0.78270056454E+02 -0.14513462868E+02 -0.15379206179E+03  0.24478120968E+03  0.17300000000E+03 0.  1.
<mgrwt>
<rscale>  2 0.19043593E+03</rscale>
<asrwt>0</asrwt>
<pdfrwt beam="1">  1       21 0.19330138E-01 0.19043593E+03</pdfrwt>
<pdfrwt beam="2">  1       21 0.48062065E-01 0.19043593E+03</pdfrwt>
<totfact> 0.10184183E+05</totfact>
</mgrwt>
</event>
<event>
 4    1  0.4173994E+000  0.2001866E+03  0.7546771E-02  0.1149582E+00
         21   -1    0    0  503  502  0.00000000000E+00  0.00000000000E+00  0.74906211864E+03  0.74906211864E+03  0.00000000000E+00 0. -1.
         21   -1    0    0  501  503 -0.00000000000E+00 -0.00000000000E+00 -0.63596179778E+02  0.63596179778E+02  0.00000000000E+00 0.  1.
          6    1    1    2  501    0 -0.20402254015E+01  0.10070512402E+03  0.18083366299E+03  0.26976934257E+03  0.17300000000E+03 0. -1.
         -6    1    1    2    0  502  0.20402254015E+01 -0.10070512402E+03  0.50463227587E+03  0.54288895584E+03  0.17300000000E+03 0. -1.
<mgrwt>
<rscale>  2 0.20018662E+03</rscale>
<asrwt>0</asrwt>
<pdfrwt beam="1">  1       21 0.11524032E+00 0.20018662E+03</pdfrwt>
<pdfrwt beam="2">  1       21 0.97840282E-02 0.20018662E+03</pdfrwt>
<totfact> 0.48994448E+04</totfact>
</mgrwt>
</event>
<event>
 4    1  0.4173994E+000  0.2508031E+03  0.7546771E-02  0.1112798E+00
         21   -1    0    0  503  502  0.00000000000E+00  0.00000000000E+00  0.45578401251E+03  0.45578401251E+03  0.00000000000E+00 0.  1.
         21   -1    0    0  501  503 -0.00000000000E+00 -0.00000000000E+00 -0.15615509076E+03  0.15615509076E+03  0.00000000000E+00 0. -1.
          6    1    1    2  501    0  0.16572177477E+03  0.74225764868E+02  0.45511903440E+02  0.25489900776E+03  0.17300000000E+03 0. -1.
         -6    1    1    2    0  502 -0.16572177477E+03 -0.74225764868E+02  0.25411701831E+03  0.35704009550E+03  0.17300000000E+03 0. -1.
<mgrwt>
<rscale>  2 0.25080305E+03</rscale>
<asrwt>0</asrwt>
<pdfrwt beam="1">  1       21 0.70120617E-01 0.25080305E+03</pdfrwt>
<pdfrwt beam="2">  1       21 0.24023860E-01 0.25080305E+03</pdfrwt>
<totfact> 0.29287111E+04</totfact>
</mgrwt>
</event>
<event>
 4    1  0.4173994E+000  0.2896262E+03  0.7546771E-02  0.1090544E+00
         21   -1    0    0  501  502  0.00000000000E+00  0.00000000000E+00  0.26780897611E+03  0.26780897611E+03  0.00000000000E+00 0.  1.
         21   -1    0    0  502  503 -0.00000000000E+00 -0.00000000000E+00 -0.33257013324E+03  0.33257013324E+03  0.00000000000E+00 0.  1.
          6    1    1    2  501    0  0.83277224810E+02  0.21683918938E+03  0.40027569372E+02  0.29237909729E+03  0.17300000000E+03 0.  1.
         -6    1    1    2    0  503 -0.83277224810E+02 -0.21683918938E+03 -0.10478872650E+03  0.30800001206E+03  0.17300000000E+03 0.  1.
<mgrwt>
<rscale>  2 0.28962619E+03</rscale>
<asrwt>0</asrwt>
<pdfrwt beam="1">  1       21 0.41201381E-01 0.28962619E+03</pdfrwt>
<pdfrwt beam="2">  1       21 0.51164636E-01 0.28962619E+03</pdfrwt>
<totfact> 0.19618422E+04</totfact>
</mgrwt>
</event>
<event>
 4    1  0.4173994E+000  0.2402010E+03  0.7546771E-02  0.1119659E+00
         21   -1    0    0  501  502  0.00000000000E+00  0.00000000000E+00  0.46890861838E+02  0.46890861838E+02  0.00000000000E+00 0. -1.
         21   -1    0    0  502  503 -0.00000000000E+00 -0.00000000000E+00 -0.21735813963E+04  0.21735813963E+04  0.00000000000E+00 0. -1.
          6    1    1    2  501    0 -0.16191162414E+03 -0.39397488404E+02 -0.33201238947E+03  0.40979112105E+03  0.17300000000E+03 0. -1.
         -6    1    1    2    0  503  0.16191162414E+03  0.39397488404E+02 -0.17946781450E+04  0.18106811371E+04  0.17300000000E+03 0. -1.
<mgrwt>
<rscale>  2 0.24020103E+03</rscale>
<asrwt>0</asrwt>
<pdfrwt beam="1">  1       21 0.72139790E-02 0.24020103E+03</pdfrwt>
<pdfrwt beam="2">  1       21 0.33439712E+00 0.24020103E+03</pdfrwt>
<totfact> 0.29320447E+03</totfact>
</mgrwt>
</event>
<event>
 4    1  0.4173994E+000  0.1901713E+03  0.7546771E-02  0.1158307E+00
         21   -1    0    0  503  502  0.00000000000E+00  0.00000000000E+00  0.62687903414E+03  0.62687903414E+03  0.00000000000E+00 0. -1.
         21   -1    0    0  501  503 -0.00000000000E+00 -0.00000000000E+00 -0.94465954763E+02  0.94465954763E+02  0.00000000000E+00 0. -1.
          6    1    1    2  501    0 -0.42407109617E+02  0.66616436349E+02  0.41170021446E+02  0.19457667693E+03  0.17300000000E+03 0. -1.
         -6    1    1    2    0  502  0.42407109617E+02 -0.66616436349E+02  0.49124305793E+03  0.52676831198E+03  0.17300000000E+03 0. -1.
<mgrwt>
<rscale>  2 0.19017127E+03</rscale>
<asrwt>0</asrwt>
<pdfrwt beam="1">  1       21 0.96442926E-01 0.19017127E+03</pdfrwt>
<pdfrwt beam="2">  1       21 0.14533224E-01 0.19017127E+03</pdfrwt>
<totfact> 0.37202447E+04</totfact>
</mgrwt>
</event>
<event>
 4    1  0.4173994E+000  0.2293557E+03  0.7546771E-02  0.1127094E+00
         21   -1    0    0  503  502  0.00000000000E+00  0.00000000000E+00  0.28341386824E+04  0.28341386824E+04  0.00000000000E+00 0. -1.
         21   -1    0    0  501  503 -0.00000000000E+00 -0.00000000000E+00 -0.19558681329E+02  0.19558681329E+02  0.00000000000E+00 0. -1.
          6    1    1    2  501    0  0.53296848541E+02  0.14083499579E+03  0.10850090642E+04  0.11089854460E+04  0.17300000000E+03 0. -1.
         -6    1    1    2    0  502 -0.53296848541E+02 -0.14083499579E+03  0.17295709369E+04  0.17447119177E+04  0.17300000000E+03 0. -1.
<mgrwt>
<rscale>  2 0.22935573E+03</rscale>
<asrwt>0</asrwt>
<pdfrwt beam="1">  1       21 0.43602101E+00 0.22935573E+03</pdfrwt>
<pdfrwt beam="2">  1       21 0.30090301E-02 0.22935573E+03</pdfrwt>
<totfact> 0.30802660E+03</totfact>
</mgrwt>
</event>
<event>
 4    1  0.4173994E+000  0.2888723E+03  0.7546771E-02  0.1090939E+00
         21   -1    0    0  503  502  0.00000000000E+00  0.00000000000E+00  0.37535596277E+03  0.37535596277E+03  0.00000000000E+00 0.  1.
         21   -1    0    0  501  503 -0.00000000000E+00 -0.00000000000E+00 -0.39095482485E+03  0.39095482485E+03  0.00000000000E+00 0. -1.
          6    1    1    2  501    0  0.21558525906E+03 -0.83911824701E+02 -0.25944653751E+03  0.38827786967E+03  0.17300000000E+03 0. -1.
         -6    1    1    2    0  502 -0.21558525906E+03  0.83911824701E+02  0.24384767542E+03  0.37803291795E+03  0.17300000000E+03 0.  1.
<mgrwt>
<rscale>  2 0.28887229E+03</rscale>
<asrwt>0</asrwt>
<pdfrwt beam="1">  1       21 0.57747071E-01 0.28887229E+03</pdfrwt>
<pdfrwt beam="2">  1       21 0.60146896E-01 0.28887229E+03</pdfrwt>
<totfact> 0.68334692E+03</totfact>
</mgrwt>
</event>
<event>
 4    1  0.4173994E+000  0.1861793E+03  0.7546771E-02  0.1161953E+00
         21   -1    0    0  501  502  0.00000000000E+00  0.00000000000E+00  0.21373313886E+04  0.21373313886E+04  0.00000000000E+00 0. -1.
         21   -1    0    0  502  503 -0.00000000000E+00 -0.00000000000E+00 -0.17529301073E+02  0.17529301073E+02  0.00000000000E+00 0. -1.
          6    1    1    2  501    0 -0.67858860446E+02 -0.11353040982E+02  0.13546136440E+04  0.13673481053E+04  0.17300000000E+03 0. -1.
         -6    1    1    2    0  503  0.67858860446E+02  0.11353040982E+02  0.76518844349E+03  0.78751258437E+03  0.17300000000E+03 0. -1.
<mgrwt>
<rscale>  2 0.18617926E+03</rscale>
<asrwt>0</asrwt>
<pdfrwt beam="1">  1       21 0.32882001E+00 0.18617926E+03</pdfrwt>
<pdfrwt beam="2">  1       21 0.26968172E-02 0.18617926E+03</pdfrwt>
<totfact> 0.17677677E+04</totfact>
</mgrwt>
</event>
<event>
 4    1  0.4173994E+000  0.1734961E+03  0.7546771E-02  0.1174250E+00
         21   -1    0    0  501  502  0.00000000000E+00  0.00000000000E+00  0.50035859008E+02  0.50035859008E+02  0.00000000000E+00 0. -1.
         21   -1    0    0  502  503 -0.00000000000E+00 -0.00000000000E+00 -0.60396789806E+03  0.60396789806E+03  0.00000000000E+00 0. -1.
          6    1    1    2  501    0 -0.13109981173E+02  0.18866692392E+00 -0.25643354643E+03  0.30961116087E+03  0.17300000000E+03 0.  1.
         -6    1    1    2    0  503  0.13109981173E+02 -0.18866692392E+00 -0.29749849262E+03  0.34439259619E+03  0.17300000000E+03 0.  1.
<mgrwt>
<rscale>  2 0.17349613E+03</rscale>
<asrwt>0</asrwt>
<pdfrwt beam="1">  1       21 0.76978243E-02 0.17349613E+03</pdfrwt>
<pdfrwt beam="2">  1       21 0.92918140E-01 0.17349613E+03</pdfrwt>
<totfact> 0.12608861E+05</totfact>
</mgrwt>
</event>
<event>
 4    1  0.4173994E+000  0.2576137E+03  0.7546771E-02  0.1108586E+00
         21   -1    0    0  503  502  0.00000000000E+00  0.00000000000E+00  0.39047273871E+03  0.39047273871E+03  0.00000000000E+00 0.  1.
         21   -1    0    0  501  503 -0.00000000000E+00 -0.00000000000E+00 -0.17363025073E+03  0.17363025073E+03  0.00000000000E+00 0. -1.
          6    1    1    2  501    0  0.18439422694E+03  0.49341404020E+02  0.67414552953E+02  0.26628842827E+03  0.17300000000E+03 0. -1.
         -6    1    1    2    0  502 -0.18439422694E+03 -0.49341404020E+02  0.14942793502E+03  0.29781456117E+03  0.17300000000E+03 0.  1.
<mgrwt>
<rscale>  2 0.25761367E+03</rscale>
<asrwt>0</asrwt>
<pdfrwt beam="1">  1       21 0.60072729E-01 0.25761367E+03</pdfrwt>
<pdfrwt beam="2">  1       21 0.26712346E-01 0.25761367E+03</pdfrwt>
<totfact> 0.33415759E+04</totfact>
</mgrwt>
</event>
<event>
 4    1  0.4173994E+000  0.1822219E+03  0.7546771E-02  0.1165670E+00
         21   -1    0    0  501  502  0.00000000000E+00  0.00000000000E+00  0.52947017410E+03  0.52947017410E+03  0.00000000000E+00 0.  1.
         21   -1    0    0  502  503 -0.00000000000E+00 -0.00000000000E+00 -0.71811776826E+02  0.71811776826E+02  0.00000000000E+00 0.  1.
          6    1    1    2  501    0  0.12783501137E+02  0.55788793260E+02  0.33584190228E+03  0.38209238501E+03  0.17300000000E+03 0.  1.
         -6    1    1    2    0  503 -0.12783501137E+02 -0.55788793260E+02  0.12181649500E+03  0.21918956592E+03  0.17300000000E+03 0.  1.
<mgrwt>
<rscale>  2 0.18222186E+03</rscale>
<asrwt>0</asrwt>
<pdfrwt beam="1">  1       21 0.81456947E-01 0.18222186E+03</pdfrwt>
<pdfrwt beam="2">  1       21 0.11047966E-01 0.18222186E+03</pdfrwt>
<totfact> 0.90168315E+04</totfact>
</mgrwt>
</event>
<event>
 4    1  0.4173994E+000  0.2240374E+03  0.7546771E-02  0.1130908E+00
         21   -1    0    0  503  502  0.00000000000E+00  0.00000000000E+00  0.44192839182E+03  0.44192839182E+03  0.00000000000E+00 0.  1.
         21   -1    0    0  501  503 -0.00000000000E+00 -0.00000000000E+00 -0.17632773786E+03  0.17632773786E+03  0.00000000000E+00 0.  1.
          6    1    1    2  501    0 -0.12855200976E+03  0.61140144770E+02 -0.51611522447E+02  0.22990538438E+03  0.17300000000E+03 0.  1.
         -6    1    1    2    0  502  0.12855200976E+03 -0.61140144770E+02  0.31721217641E+03  0.38835074530E+03  0.17300000000E+03 0.  1.
<mgrwt>
<rscale>  2 0.22403736E+03</rscale>
<asrwt>0</asrwt>
<pdfrwt beam="1">  1       21 0.67988983E-01 0.22403736E+03</pdfrwt>
<pdfrwt beam="2">  1       21 0.27127344E-01 0.22403736E+03</pdfrwt>
<totfact> 0.25145195E+04</totfact>
</mgrwt>
</event>
<event>
 4    1  0.4173994E+000  0.1934660E+03  0.7546771E-02  0.1155372E+00
         21   -1    0    0  501  502  0.00000000000E+00  0.00000000000E+00  0.77012051192E+03  0.77012051192E+03  0.00000000000E+00 0. -1.
         21   -1    0    0  502  503 -0.00000000000E+00 -0.00000000000E+00 -0.65129497615E+02  0.65129497615E+02  0.00000000000E+00 0. -1.
          6    1    1    2  501    0 -0.33304692655E+02 -0.79942982102E+02  0.56287651972E+03  0.59519665607E+03  0.17300000000E+03 0. -1.
         -6    1    1    2    0  503  0.33304692655E+02  0.79942982102E+02  0.14211449459E+03  0.24005335347E+03  0.17300000000E+03 0. -1.
<mgrwt>
<rscale>  2 0.19346597E+03</rscale>
<asrwt>0</asrwt>
<pdfrwt beam="1">  1       21 0.11848007E+00 0.19346597E+03</pdfrwt>
<pdfrwt beam="2">  1       21 0.10019923E-01 0.19346597E+03</pdfrwt>
<totfact> 0.44054971E+04</totfact>
</mgrwt>
</event>
<event>
 4    1  0.4173994E+000  0.1780456E+03  0.7546771E-02  0.1169708E+00
         21   -1    0    0  503  502  0.00000000000E+00  0.00000000000E+00  0.46450116555E+02  0.46450116555E+02  0.00000000000E+00 0. -1.
         21   -1    0    0  501  503 -0.00000000000E+00 -0.00000000000E+00 -0.16669245602E+04  0.16669245602E+04  0.00000000000E+00 0. -1.
          6    1    1    2  501    0  0.78555007497E+00  0.42078561526E+02 -0.14685996041E+04  0.14793529057E+04  0.17300000000E+03 0. -1.
         -6    1    1    2    0  502 -0.78555007497E+00 -0.42078561526E+02 -0.15187483946E+03  0.23402177097E+03  0.17300000000E+03 0. -1.
<mgrwt>
<rscale>  2 0.17804556E+03</rscale>
<asrwt>0</asrwt>
<pdfrwt beam="1">  1       21 0.71461709E-02 0.17804556E+03</pdfrwt>
<pdfrwt beam="2">  1       21 0.25644996E+00 0.17804556E+03</pdfrwt>
<totfact> 0.90286875E+03</totfact>
</mgrwt>
</event>
<event>
 4    1  0.4173994E+000  0.1780834E+03  0.7546771E-02  0.1169671E+00
         21   -1    0    0  501  502  0.00000000000E+00  0.00000000000E+00  0.45119062636E+03  0.45119062636E+03  0.00000000000E+00 0.  1.
         21   -1    0    0  502  503 -0.00000000000E+00 -0.00000000000E+00 -0.11244062351E+03  0.11244062351E+03  0.00000000000E+00 0.  1.
          6    1    1    2  501    0 -0.40948416749E+02  0.10388614835E+02  0.34192345690E+03  0.38551957995E+03  0.17300000000E+03 0.  1.
         -6    1    1    2    0  503  0.40948416749E+02 -0.10388614835E+02 -0.31734540474E+01  0.17811166992E+03  0.17300000000E+03 0.  1.
<mgrwt>
<rscale>  2 0.17808340E+03</rscale>
<asrwt>0</asrwt>
<pdfrwt beam="1">  1       21 0.69413941E-01 0.17808340E+03</pdfrwt>
<pdfrwt beam="2">  1       21 0.17298558E-01 0.17808340E+03</pdfrwt>
<totfact> 0.57413350E+04</totfact>
</mgrwt>
</event>
<event>
 4    1  0.4173994E+000  0.1800868E+03  0.7546771E-02  0.1167719E+00
         21   -1    0    0  501  502  0.00000000000E+00  0.00000000000E+00  0.13105611948E+03  0.13105611948E+03  0.00000000000E+00 0.  1.
         21   -1    0    0  502  503 -0.00000000000E+00 -0.00000000000E+00 -0.31892453199E+03  0.31892453199E+03  0.00000000000E+00 0.  1.
          6    1    1    2  501    0 -0.32965287737E+02 -0.37623585443E+02  0.12569055312E+02  0.18052486125E+03  0.17300000000E+03 0.  1.
         -6    1    1    2    0  503  0.32965287737E+02  0.37623585443E+02 -0.20043746782E+03  0.26945579022E+03  0.17300000000E+03 0.  1.
<mgrwt>
<rscale>  2 0.18008677E+03</rscale>
<asrwt>0</asrwt>
<pdfrwt beam="1">  1       21 0.20162480E-01 0.18008677E+03</pdfrwt>
<pdfrwt beam="2">  1       21 0.49065312E-01 0.18008677E+03</pdfrwt>
<totfact> 0.90553027E+04</totfact>
</mgrwt>
</event>
<event>
 4    1  0.4173994E+000  0.1765179E+03  0.7546771E-02  0.1171216E+00
         21   -1    0    0  501  502  0.00000000000E+00  0.00000000000E+00  0.79856346092E+02  0.79856346092E+02  0.00000000000E+00 0.  1.
         21   -1    0    0  502  503 -0.00000000000E+00 -0.00000000000E+00 -0.45873520668E+03  0.45873520668E+03  0.00000000000E+00 0.  1.
          6    1    1    2  501    0  0.23486818709E+02  0.26037419810E+02 -0.85337291081E+02  0.19606384453E+03  0.17300000000E+03 0.  1.
         -6    1    1    2    0  503 -0.23486818709E+02 -0.26037419810E+02 -0.29354156951E+03  0.34252770824E+03  0.17300000000E+03 0.  1.
<mgrwt>
<rscale>  2 0.17651793E+03</rscale>
<asrwt>0</asrwt>
<pdfrwt beam="1">  1       21 0.12285591E-01 0.17651793E+03</pdfrwt>
<pdfrwt beam="2">  1       21 0.70574650E-01 0.17651793E+03</pdfrwt>
<totfact> 0.10302571E+05</totfact>
</mgrwt>
</event>
<event>
 4    1  0.4173994E+000  0.1860333E+03  0.7546771E-02  0.1162089E+00
         21   -1    0    0  503  502  0.00000000000E+00  0.00000000000E+00  0.38879968757E+03  0.38879968757E+03  0.00000000000E+00 0. -1.
         21   -1    0    0  501  503 -0.00000000000E+00 -0.00000000000E+00 -0.16960213437E+03  0.16960213437E+03  0.00000000000E+00 0. -1.
          6    1    1    2  501    0  0.59045987649E+02 -0.34538999311E+02 -0.82860308984E+02  0.20365215917E+03  0.17300000000E+03 0. -1.
         -6    1    1    2    0  502 -0.59045987649E+02  0.34538999311E+02  0.30205786218E+03  0.35474966277E+03  0.17300000000E+03 0. -1.
<mgrwt>
<rscale>  2 0.18603325E+03</rscale>
<asrwt>0</asrwt>
<pdfrwt beam="1">  1       21 0.59815336E-01 0.18603325E+03</pdfrwt>
<pdfrwt beam="2">  1       21 0.26092636E-01 0.18603325E+03</pdfrwt>
<totfact> 0.36527626E+04</totfact>
</mgrwt>
</event>
<event>
 4    1  0.4173994E+000  0.2163245E+03  0.7546771E-02  0.1136653E+00
         21   -1    0    0  503  502  0.00000000000E+00  0.00000000000E+00  0.32808214724E+03  0.32808214724E+03  0.00000000000E+00 0.  1.
         21   -1    0    0  501  503 -0.00000000000E+00 -0.00000000000E+00 -0.14912054327E+03  0.14912054327E+03  0.00000000000E+00 0. -1.
          6    1    1    2  501    0  0.99717375059E+02 -0.83209055113E+02  0.39724713059E+02  0.21994170721E+03  0.17300000000E+03 0. -1.
         -6    1    1    2    0  502 -0.99717375059E+02  0.83209055113E+02  0.13923689090E+03  0.25726098330E+03  0.17300000000E+03 0. -1.
<mgrwt>
<rscale>  2 0.21632453E+03</rscale>
<asrwt>0</asrwt>
<pdfrwt beam="1">  1       21 0.50474176E-01 0.21632453E+03</pdfrwt>
<pdfrwt beam="2">  1       21 0.22941622E-01 0.21632453E+03</pdfrwt>
<totfact> 0.65930422E+04</totfact>
</mgrwt>
</event>
<event>
 4    1  0.4173994E+000  0.1807740E+03  0.7546771E-02  0.1167056E+00
         21   -1    0    0  503  502  0.00000000000E+00  0.00000000000E+00  0.19643925631E+03  0.19643925631E+03  0.00000000000E+00 0. -1.
         21   -1    0    0  501  503 -0.00000000000E+00 -0.00000000000E+00 -0.12532162768E+04  0.12532162768E+04  0.00000000000E+00 0. -1.
          6    1    1    2  501    0  0.51369882187E+02 -0.10552661922E+02 -0.12033955242E+04  0.12168976995E+04  0.17300000000E+03 0. -1.
         -6    1    1    2    0  502 -0.51369882187E+02  0.10552661922E+02  0.14661850370E+03  0.23275783359E+03  0.17300000000E+03 0. -1.
<mgrwt>
<rscale>  2 0.18077396E+03</rscale>
<asrwt>0</asrwt>
<pdfrwt beam="1">  1       21 0.30221424E-01 0.18077396E+03</pdfrwt>
<pdfrwt beam="2">  1       21 0.19280250E+00 0.18077396E+03</pdfrwt>
<totfact> 0.15908053E+03</totfact>
</mgrwt>
</event>
<event>
 4    1  0.4173994E+000  0.1932750E+03  0.7546771E-02  0.1155540E+00
         21   -1    0    0  503  502  0.00000000000E+00  0.00000000000E+00  0.12696360575E+03  0.12696360575E+03  0.00000000000E+00 0.  1.
         21   -1    0    0  501  503 -0.00000000000E+00 -0.00000000000E+00 -0.37665503615E+03  0.37665503615E+03  0.00000000000E+00 0.  1.
          6    1    1    2  501    0 -0.19991157175E+02 -0.83824728665E+02 -0.70428533936E+01  0.19340329181E+03  0.17300000000E+03 0.  1.
         -6    1    1    2    0  502  0.19991157175E+02  0.83824728665E+02 -0.24264857701E+03  0.31021535008E+03  0.17300000000E+03 0.  1.
<mgrwt>
<rscale>  2 0.19327502E+03</rscale>
<asrwt>0</asrwt>
<pdfrwt beam="1">  1       21 0.19532862E-01 0.19327502E+03</pdfrwt>
<pdfrwt beam="2">  1       21 0.57946929E-01 0.19327502E+03</pdfrwt>
<totfact> 0.67333547E+04</totfact>
</mgrwt>
</event>
<event>
 4    1  0.4173994E+000  0.2983752E+03  0.7546771E-02  0.1086056E+00
         21   -1    0    0  501  502  0.00000000000E+00  0.00000000000E+00  0.37468714534E+03  0.37468714534E+03  0.00000000000E+00 0. -1.
         21   -1    0    0  502  503 -0.00000000000E+00 -0.00000000000E+00 -0.43106306416E+03  0.43106306416E+03  0.00000000000E+00 0.  1.
          6    1    1    2  501    0  0.21330400471E+03 -0.11661981280E+03  0.24170572712E+03  0.38399145522E+03  0.17300000000E+03 0. -1.
         -6    1    1    2    0  503 -0.21330400471E+03  0.11661981280E+03 -0.29808164594E+03  0.42175875428E+03  0.17300000000E+03 0.  1.
<mgrwt>
<rscale>  2 0.29837523E+03</rscale>
<asrwt>0</asrwt>
<pdfrwt beam="1">  1       21 0.57644176E-01 0.29837523E+03</pdfrwt>
<pdfrwt beam="2">  1       21 0.66317395E-01 0.29837523E+03</pdfrwt>
<totfact> 0.55132099E+03</totfact>
</mgrwt>
</event>
<event>
 4    1  0.4173994E+000  0.1748760E+03  0.7546771E-02  0.1172856E+00
         21   -1    0    0  501  502  0.00000000000E+00  0.00000000000E+00  0.21390103346E+03  0.21390103346E+03  0.00000000000E+00 0. -1.
         21   -1    0    0  502  503 -0.00000000000E+00 -0.00000000000E+00 -0.18543488371E+03  0.18543488371E+03  0.00000000000E+00 0. -1.
          6    1    1    2  501    0  0.20218082043E+02 -0.15615006381E+02  0.10978151482E+03  0.20647900683E+03  0.17300000000E+03 0. -1.
         -6    1    1    2    0  503 -0.20218082043E+02  0.15615006381E+02 -0.81315365072E+02  0.19285691033E+03  0.17300000000E+03 0. -1.
<mgrwt>
<rscale>  2 0.17487595E+03</rscale>
<asrwt>0</asrwt>
<pdfrwt beam="1">  1       21 0.32907851E-01 0.17487595E+03</pdfrwt>
<pdfrwt beam="2">  1       21 0.28528444E-01 0.17487595E+03</pdfrwt>
<totfact> 0.10514825E+05</totfact>
</mgrwt>
</event>
<event>
 4    1  0.4173994E+000  0.1871312E+03  0.7546771E-02  0.1161075E+00
         21   -1    0    0  503  502  0.00000000000E+00  0.00000000000E+00  0.45206254520E+03  0.45206254520E+03  0.00000000000E+00 0. -1.
         21   -1    0    0  501  503 -0.00000000000E+00 -0.00000000000E+00 -0.17381781788E+03  0.17381781788E+03  0.00000000000E+00 0. -1.
          6    1    1    2  501    0  0.39483430105E+02  0.59414979137E+02 -0.93875049852E+02  0.20935760312E+03  0.17300000000E+03 0. -1.
         -6    1    1    2    0  502 -0.39483430105E+02 -0.59414979137E+02  0.37211977718E+03  0.41652275996E+03  0.17300000000E+03 0. -1.
<mgrwt>
<rscale>  2 0.18713119E+03</rscale>
<asrwt>0</asrwt>
<pdfrwt beam="1">  1       21 0.69548083E-01 0.18713119E+03</pdfrwt>
<pdfrwt beam="2">  1       21 0.26741203E-01 0.18713119E+03</pdfrwt>
<totfact> 0.25101992E+04</totfact>
</mgrwt>
</event>
<event>
 4    1  0.4173994E+000  0.2049632E+03  0.7546771E-02  0.1145618E+00
         21   -1    0    0  501  502  0.00000000000E+00  0.00000000000E+00  0.25448067479E+02  0.25448067479E+02  0.00000000000E+00 0.  1.
         21   -1    0    0  502  503 -0.00000000000E+00 -0.00000000000E+00 -0.21929880448E+04  0.21929880448E+04  0.00000000000E+00 0.  1.
          6    1    1    2  501    0  0.48143089131E+02  0.98808592865E+02 -0.53223861534E+03  0.57034010793E+03  0.17300000000E+03 0.  1.
         -6    1    1    2    0  503 -0.48143089131E+02 -0.98808592865E+02 -0.16353013620E+04  0.16480960044E+04  0.17300000000E+03 0.  1.
<mgrwt>
<rscale>  2 0.20496316E+03</rscale>
<asrwt>0</asrwt>
<pdfrwt beam="1">  1       21 0.39150876E-02 0.20496316E+03</pdfrwt>
<pdfrwt beam="2">  1       21 0.33738275E+00 0.20496316E+03</pdfrwt>
<totfact> 0.83058476E+03</totfact>
</mgrwt>
</event>
<event>
 4    1  0.4173994E+000  0.2102816E+03  0.7546771E-02  0.1141343E+00
         21   -1    0    0  503  502  0.00000000000E+00  0.00000000000E+00  0.11104417253E+04  0.11104417253E+04  0.00000000000E+00 0. -1.
         21   -1    0    0  501  503 -0.00000000000E+00 -0.00000000000E+00 -0.75963040431E+02  0.75963040431E+02  0.00000000000E+00 0.  1.
          6    1    1    2  501    0 -0.10292381782E+03 -0.60795111246E+02  0.10806255881E+03  0.23642308357E+03  0.17300000000E+03 0.  1.
         -6    1    1    2    0  502  0.10292381782E+03  0.60795111246E+02  0.92641612608E+03  0.94998168219E+03  0.17300000000E+03 0. -1.
<mgrwt>
<rscale>  2 0.21028162E+03</rscale>
<asrwt>0</asrwt>
<pdfrwt beam="1">  1       21 0.17083718E+00 0.21028162E+03</pdfrwt>
<pdfrwt beam="2">  1       21 0.11686622E-01 0.21028162E+03</pdfrwt>
<totfact> 0.12782161E+04</totfact>
</mgrwt>
</event>
<event>
 4    1  0.4173994E+000  0.2048580E+03  0.7546771E-02  0.1145704E+00
         21   -1    0    0  503  502  0.00000000000E+00  0.00000000000E+00  0.15978181575E+03  0.15978181575E+03  0.00000000000E+00 0. -1.
         21   -1    0    0  501  503 -0.00000000000E+00 -0.00000000000E+00 -0.54794856419E+03  0.54794856419E+03  0.00000000000E+00 0.  1.
          6    1    1    2  501    0  0.10887335629E+03 -0.13578581452E+02 -0.44942246199E+03  0.49391024987E+03  0.17300000000E+03 0.  1.
         -6    1    1    2    0  502 -0.10887335629E+03  0.13578581452E+02  0.61255713545E+02  0.21382013008E+03  0.17300000000E+03 0. -1.
<mgrwt>
<rscale>  2 0.20485796E+03</rscale>
<asrwt>0</asrwt>
<pdfrwt beam="1">  1       21 0.24581818E-01 0.20485796E+03</pdfrwt>
<pdfrwt beam="2">  1       21 0.84299777E-01 0.20485796E+03</pdfrwt>
<totfact> 0.18957755E+04</totfact>
</mgrwt>
</event>
<event>
 4    1  0.4173994E+000  0.2056629E+03  0.7546771E-02  0.1145047E+00
         21   -1    0    0  501  502  0.00000000000E+00  0.00000000000E+00  0.60660931197E+03  0.60660931197E+03  0.00000000000E+00 0.  1.
         21   -1    0    0  502  503 -0.00000000000E+00 -0.00000000000E+00 -0.77195871158E+02  0.77195871158E+02  0.00000000000E+00 0.  1.
          6    1    1    2  501    0  0.10755608617E+03  0.28282905219E+02  0.37105338711E+03  0.42423796446E+03  0.17300000000E+03 0.  1.
         -6    1    1    2    0  503 -0.10755608617E+03 -0.28282905219E+02  0.15836005370E+03  0.25956721867E+03  0.17300000000E+03 0.  1.
<mgrwt>
<rscale>  2 0.20566291E+03</rscale>
<asrwt>0</asrwt>
<pdfrwt beam="1">  1       21 0.93324507E-01 0.20566291E+03</pdfrwt>
<pdfrwt beam="2">  1       21 0.11876288E-01 0.20566291E+03</pdfrwt>
<totfact> 0.57360323E+04</totfact>
</mgrwt>
</event>
<event>
 4    1  0.4173994E+000  0.1784322E+03  0.7546771E-02  0.1169329E+00
         21   -1    0    0  503  502  0.00000000000E+00  0.00000000000E+00  0.12485456586E+04  0.12485456586E+04  0.00000000000E+00 0. -1.
         21   -1    0    0  501  503 -0.00000000000E+00 -0.00000000000E+00 -0.40332101230E+02  0.40332101230E+02  0.00000000000E+00 0.  1.
          6    1    1    2  501    0  0.39848808483E+02  0.17920355080E+02  0.21330560116E+03  0.27809592976E+03  0.17300000000E+03 0.  1.
         -6    1    1    2    0  502 -0.39848808483E+02 -0.17920355080E+02  0.99490795617E+03  0.10107818300E+04  0.17300000000E+03 0. -1.
<mgrwt>
<rscale>  2 0.17843225E+03</rscale>
<asrwt>0</asrwt>
<pdfrwt beam="1">  1       21 0.19208392E+00 0.17843225E+03</pdfrwt>
<pdfrwt beam="2">  1       21 0.62049396E-02 0.17843225E+03</pdfrwt>
<totfact> 0.28420268E+04</totfact>
</mgrwt>
</event>
<event>
 4    1  0.4173994E+000  0.2605327E+03  0.7546771E-02  0.1106824E+00
         21   -1    0    0  501  502  0.00000000000E+00  0.00000000000E+00  0.78912832834E+03  0.78912832834E+03  0.00000000000E+00 0. -1.
         21   -1    0    0  502  503 -0.00000000000E+00 -0.00000000000E+00 -0.19017309800E+03  0.19017309800E+03  0.00000000000E+00 0. -1.
          6    1    1    2  501    0  0.91641331580E+02  0.17190162313E+03  0.66185178961E+03  0.71128411560E+03  0.17300000000E+03 0. -1.
         -6    1    1    2    0  503 -0.91641331580E+02 -0.17190162313E+03 -0.62896559278E+02  0.26801731074E+03  0.17300000000E+03 0. -1.
<mgrwt>
<rscale>  2 0.26053273E+03</rscale>
<asrwt>0</asrwt>
<pdfrwt beam="1">  1       21 0.12140436E+00 0.26053273E+03</pdfrwt>
<pdfrwt beam="2">  1       21 0.29257400E-01 0.26053273E+03</pdfrwt>
<totfact> 0.54734097E+03</totfact>
</mgrwt>
</event>
<event>
 4    1  0.4173994E+000  0.1790682E+03  0.7546771E-02  0.1168708E+00
         21   -1    0    0  501  502  0.00000000000E+00  0.00000000000E+00  0.10693695877E+03  0.10693695877E+03  0.00000000000E+00 0. -1.
         21   -1    0    0  502  503 -0.00000000000E+00 -0.00000000000E+00 -0.42457599098E+03  0.42457599098E+03  0.00000000000E+00 0. -1.
          6    1    1    2  501    0 -0.15562230502E+02  0.43522750556E+02 -0.14780991098E+02  0.17967718423E+03  0.17300000000E+03 0.  1.
         -6    1    1    2    0  503  0.15562230502E+02 -0.43522750556E+02 -0.30285804111E+03  0.35183576552E+03  0.17300000000E+03 0.  1.
<mgrwt>
<rscale>  2 0.17906818E+03</rscale>
<asrwt>0</asrwt>
<pdfrwt beam="1">  1       21 0.16451840E-01 0.17906818E+03</pdfrwt>
<pdfrwt beam="2">  1       21 0.65319384E-01 0.17906818E+03</pdfrwt>
<totfact> 0.71865135E+04</totfact>
</mgrwt>
</event>
<event>
 4    1  0.4173994E+000  0.3491361E+03  0.7546771E-02  0.1062970E+00
         21   -1    0    0  501  502  0.00000000000E+00  0.00000000000E+00  0.12392504132E+04  0.12392504132E+04  0.00000000000E+00 0. -1.
         21   -1    0    0  502  503 -0.00000000000E+00 -0.00000000000E+00 -0.22748434428E+03  0.22748434428E+03  0.00000000000E+00 0.  1.
          6    1    1    2  501    0 -0.25011176105E+03 -0.17149662165E+03  0.10583997217E+04  0.11144980732E+04  0.17300000000E+03 0. -1.
         -6    1    1    2    0  503  0.25011176105E+03  0.17149662165E+03 -0.46633652703E+02  0.35223668437E+03  0.17300000000E+03 0.  1.
<mgrwt>
<rscale>  2 0.34913605E+03</rscale>
<asrwt>0</asrwt>
<pdfrwt beam="1">  1       21 0.19065391E+00 0.34913605E+03</pdfrwt>
<pdfrwt beam="2">  1       21 0.34997592E-01 0.34913605E+03</pdfrwt>
<totfact> 0.10716449E+03</totfact>
</mgrwt>
</event>
<event>
 4    1  0.4173994E+000  0.1743386E+03  0.7546771E-02  0.1173397E+00
         21   -1    0    0  501  502  0.00000000000E+00  0.00000000000E+00  0.55781224509E+03  0.55781224509E+03  0.00000000000E+00 0.  1.
         21   -1    0    0  502  503 -0.00000000000E+00 -0.00000000000E+00 -0.12625207029E+03  0.12625207029E+03  0.00000000000E+00 0.  1.
          6    1    1    2  501    0 -0.21478433404E+02  0.19023393724E+01  0.47365074710E+03  0.50471672473E+03  0.17300000000E+03 0.  1.
         -6    1    1    2    0  503  0.21478433404E+02 -0.19023393724E+01 -0.42090572302E+02  0.17934759065E+03  0.17300000000E+03 0.  1.
<mgrwt>
<rscale>  2 0.17433858E+03</rscale>
<asrwt>0</asrwt>
<pdfrwt beam="1">  1       21 0.85817267E-01 0.17433858E+03</pdfrwt>
<pdfrwt beam="2">  1       21 0.19423396E-01 0.17433858E+03</pdfrwt>
<totfact> 0.28875930E+04</totfact>
</mgrwt>
</event>
<event>
 4    1  0.4173994E+000  0.2487306E+03  0.7546771E-02  0.1114110E+00
         21   -1    0    0  501  502  0.00000000000E+00  0.00000000000E+00  0.75216399106E+03  0.75216399106E+03  0.00000000000E+00 0.  1.
         21   -1    0    0  502  503 -0.00000000000E+00 -0.00000000000E+00 -0.12066219549E+03  0.12066219549E+03  0.00000000000E+00 0.  1.
          6    1    1    2  501    0  0.67553956708E+02  0.16545203484E+03  0.56197809296E+03  0.61456186822E+03  0.17300000000E+03 0.  1.
         -6    1    1    2    0  503 -0.67553956708E+02 -0.16545203484E+03  0.69523702607E+02  0.25826431833E+03  0.17300000000E+03 0.  1.
<mgrwt>
<rscale>  2 0.24873060E+03</rscale>
<asrwt>0</asrwt>
<pdfrwt beam="1">  1       21 0.11571753E+00 0.24873060E+03</pdfrwt>
<pdfrwt beam="2">  1       21 0.18563415E-01 0.24873060E+03</pdfrwt>
<totfact> 0.14798539E+04</totfact>
</mgrwt>
</event>
<event>
 4    1  0.4173994E+000  0.2001967E+03  0.7546771E-02  0.1149573E+00
         21   -1    0    0  501  502  0.00000000000E+00  0.00000000000E+00  0.15686651847E+04  0.15686651847E+04  0.00000000000E+00 0. -1.
         21   -1    0    0  502  503 -0.00000000000E+00 -0.00000000000E+00 -0.52098532203E+02  0.52098532203E+02  0.00000000000E+00 0.  1.
          6    1    1    2  501    0  0.42834526183E+02  0.91186302748E+02  0.13367797114E+04  0.13516873660E+04  0.17300000000E+03 0. -1.
         -6    1    1    2    0  503 -0.42834526183E+02 -0.91186302748E+02  0.17978694102E+03  0.26907635088E+03  0.17300000000E+03 0.  1.
<mgrwt>
<rscale>  2 0.20019675E+03</rscale>
<asrwt>0</asrwt>
<pdfrwt beam="1">  1       21 0.24133307E+00 0.20019675E+03</pdfrwt>
<pdfrwt beam="2">  1       21 0.80151600E-02 0.20019675E+03</pdfrwt>
<totfact> 0.88847215E+03</totfact>
</mgrwt>
</event>
<event>
 4    1  0.4173994E+000  0.2267923E+03  0.7546771E-02  0.1128918E+00
         21   -1    0    0  501  502  0.00000000000E+00  0.00000000000E+00  0.11995028372E+03  0.11995028372E+03  0.00000000000E+00 0. -1.
         21   -1    0    0  502  503 -0.00000000000E+00 -0.00000000000E+00 -0.42938281815E+03  0.42938281815E+03  0.00000000000E+00 0. -1.
          6    1    1    2  501    0  0.12482742187E+03 -0.76966773908E+02 -0.14460334068E+03  0.26897006464E+03  0.17300000000E+03 0. -1.
         -6    1    1    2    0  503 -0.12482742187E+03  0.76966773908E+02 -0.16482919375E+03  0.28036303723E+03  0.17300000000E+03 0. -1.
<mgrwt>
<rscale>  2 0.22679235E+03</rscale>
<asrwt>0</asrwt>
<pdfrwt beam="1">  1       21 0.18453890E-01 0.22679235E+03</pdfrwt>
<pdfrwt beam="2">  1       21 0.66058895E-01 0.22679235E+03</pdfrwt>
<totfact> 0.55532096E+04</totfact>
</mgrwt>
</event>
<event>
 4    1  0.4173994E+000  0.1876225E+03  0.7546771E-02  0.1160623E+00
         21   -1    0    0  503  502  0.00000000000E+00  0.00000000000E+00  0.84609667505E+03  0.84609667505E+03  0.00000000000E+00 0.  1.
         21   -1    0    0  501  503 -0.00000000000E+00 -0.00000000000E+00 -0.42124058390E+02  0.42124058390E+02  0.00000000000E+00 0.  1.
          6    1    1    2  501    0  0.23327747227E+02 -0.68767766225E+02  0.35270671939E+03  0.39950496788E+03  0.17300000000E+03 0.  1.
         -6    1    1    2    0  502 -0.23327747227E+02  0.68767766225E+02  0.45126589727E+03  0.48871576555E+03  0.17300000000E+03 0.  1.
<mgrwt>
<rscale>  2 0.18762247E+03</rscale>
<asrwt>0</asrwt>
<pdfrwt beam="1">  1       21 0.13016871E+00 0.18762247E+03</pdfrwt>
<pdfrwt beam="2">  1       21 0.64806250E-02 0.18762247E+03</pdfrwt>
<totfact> 0.74611691E+04</totfact>
</mgrwt>
</event>
<event>
 4    1  0.4173994E+000  0.2067209E+03  0.7546771E-02  0.1144189E+00
         21   -1    0    0  503  502  0.00000000000E+00  0.00000000000E+00  0.12449234410E+03  0.12449234410E+03  0.00000000000E+00 0. -1.
         21   -1    0    0  501  503 -0.00000000000E+00 -0.00000000000E+00 -0.38644013601E+03  0.38644013601E+03  0.00000000000E+00 0.  1.
          6    1    1    2  501    0 -0.96638284430E+01 -0.11274368608E+03 -0.21636700791E+03  0.29924607006E+03  0.17300000000E+03 0.  1.
         -6    1    1    2    0  502  0.96638284430E+01  0.11274368608E+03 -0.45580783997E+02  0.21168641005E+03  0.17300000000E+03 0. -1.
<mgrwt>
<rscale>  2 0.20672089E+03</rscale>
<asrwt>0</asrwt>
<pdfrwt beam="1">  1       21 0.19152669E-01 0.20672089E+03</pdfrwt>
<pdfrwt beam="2">  1       21 0.59452327E-01 0.20672089E+03</pdfrwt>
<totfact> 0.65704889E+04</totfact>
</mgrwt>
</event>
<event>
 4    1  0.4173994E+000  0.3034942E+03  0.7546771E-02  0.1083507E+00
         21   -1    0    0  503  502  0.00000000000E+00  0.00000000000E+00  0.18033483173E+04  0.18033483173E+04  0.00000000000E+00 0.  1.
         21   -1    0    0  501  503 -0.00000000000E+00 -0.00000000000E+00 -0.51124959805E+02  0.51124959805E+02  0.00000000000E+00 0.  1.
          6    1    1    2  501    0 -0.24847251221E+03  0.21003091361E+02  0.90465916076E+03  0.95421010072E+03  0.17300000000E+03 0.  1.
         -6    1    1    2    0  502  0.24847251221E+03 -0.21003091361E+02  0.84756419673E+03  0.90026317638E+03  0.17300000000E+03 0.  1.
<mgrwt>
<rscale>  2 0.30349418E+03</rscale>
<asrwt>0</asrwt>
<pdfrwt beam="1">  1       21 0.27743815E+00 0.30349418E+03</pdfrwt>
<pdfrwt beam="2">  1       21 0.78653798E-02 0.30349418E+03</pdfrwt>
<totfact> 0.51674324E+03</totfact>
</mgrwt>
</event>
<event>
 4    1  0.4173994E+000  0.2143085E+03  0.7546771E-02  0.1138199E+00
         21   -1    0    0  503  502  0.00000000000E+00  0.00000000000E+00  0.62501433457E+02  0.62501433457E+02  0.00000000000E+00 0. -1.
         21   -1    0    0  501  503 -0.00000000000E+00 -0.00000000000E+00 -0.14595595370E+04  0.14595595370E+04  0.00000000000E+00 0. -1.
          6    1    1    2  501    0  0.11426063450E+03  0.54255217272E+02 -0.12347925080E+04  0.12532520333E+04  0.17300000000E+03 0. -1.
         -6    1    1    2    0  502 -0.11426063450E+03 -0.54255217272E+02 -0.16226559558E+03  0.26880893718E+03  0.17300000000E+03 0. -1.
<mgrwt>
<rscale>  2 0.21430847E+03</rscale>
<asrwt>0</asrwt>
<pdfrwt beam="1">  1       21 0.96156062E-02 0.21430847E+03</pdfrwt>
<pdfrwt beam="2">  1       21 0.22454760E+00 0.21430847E+03</pdfrwt>
<totfact> 0.80486146E+03</totfact>
</mgrwt>
</event>
<event>
 4    1  0.4173994E+000  0.2562277E+03  0.7546771E-02  0.1109431E+00
         21   -1    0    0  501  502  0.00000000000E+00  0.00000000000E+00  0.89287716996E+02  0.89287716996E+02  0.00000000000E+00 0. -1.
         21   -1    0    0  502  503 -0.00000000000E+00 -0.00000000000E+00 -0.74354823074E+03  0.74354823074E+03  0.00000000000E+00 0.  1.
          6    1    1    2  501    0 -0.20900844758E+01  0.18899543663E+03 -0.28325330097E+03  0.38194904900E+03  0.17300000000E+03 0. -1.
         -6    1    1    2    0  503  0.20900844758E+01 -0.18899543663E+03 -0.37100721277E+03  0.45088689874E+03  0.17300000000E+03 0. -1.
<mgrwt>
<rscale>  2 0.25622772E+03</rscale>
<asrwt>0</asrwt>
<pdfrwt beam="1">  1       21 0.13736572E-01 0.25622772E+03</pdfrwt>
<pdfrwt beam="2">  1       21 0.11439204E+00 0.25622772E+03</pdfrwt>
<totfact> 0.26410736E+04</totfact>
</mgrwt>
</event>
<event>
 4    1  0.4173994E+000  0.1936226E+03  0.7546771E-02  0.1155234E+00
         21   -1    0    0  503  502  0.00000000000E+00  0.00000000000E+00  0.54767123946E+03  0.54767123946E+03  0.00000000000E+00 0. -1.
         21   -1    0    0  501  503 -0.00000000000E+00 -0.00000000000E+00 -0.69791288934E+02  0.69791288934E+02  0.00000000000E+00 0. -1.
          6    1    1    2  501    0 -0.77051812758E+02  0.40295339109E+02  0.19618686359E+03  0.27564285162E+03  0.17300000000E+03 0. -1.
         -6    1    1    2    0  502  0.77051812758E+02 -0.40295339109E+02  0.28169308693E+03  0.34181967677E+03  0.17300000000E+03 0. -1.
<mgrwt>
<rscale>  2 0.19362256E+03</rscale>
<asrwt>0</asrwt>
<pdfrwt beam="1">  1       21 0.84257111E-01 0.19362256E+03</pdfrwt>
<pdfrwt beam="2">  1       21 0.10737122E-01 0.19362256E+03</pdfrwt>
<totfact> 0.87432169E+04</totfact>
</mgrwt>
</event>
<event>
 4    1  0.4173994E+000  0.3311458E+03  0.7546771E-02  0.1070631E+00
         21   -1    0    0  501  502  0.00000000000E+00  0.00000000000E+00  0.29614641394E+03  0.29614641394E+03  0.00000000000E+00 0. -1.
         21   -1    0    0  502  503 -0.00000000000E+00 -0.00000000000E+00 -0.51952952820E+03  0.51952952820E+03  0.00000000000E+00 0.  1.
          6    1    1    2  501    0 -0.98104913639E+01 -0.28219191403E+03  0.10690178013E+03  0.34797343675E+03  0.17300000000E+03 0. -1.
         -6    1    1    2    0  503  0.98104913639E+01  0.28219191403E+03 -0.33028489439E+03  0.46770250539E+03  0.17300000000E+03 0.  1.
<mgrwt>
<rscale>  2 0.33114577E+03</rscale>
<asrwt>0</asrwt>
<pdfrwt beam="1">  1       21 0.45560987E-01 0.33114577E+03</pdfrwt>
<pdfrwt beam="2">  1       21 0.79927619E-01 0.33114577E+03</pdfrwt>
<totfact> 0.58713145E+03</totfact>
</mgrwt>
</event>
<event>
 4    1  0.4173994E+000  0.1957490E+03  0.7546771E-02  0.1153376E+00
         21   -1    0    0  501  502  0.00000000000E+00  0.00000000000E+00  0.27485308940E+03  0.27485308940E+03  0.00000000000E+00 0. -1.
         21   -1    0    0  502  503 -0.00000000000E+00 -0.00000000000E+00 -0.28871229355E+03  0.28871229355E+03  0.00000000000E+00 0. -1.
          6    1    1    2  501    0  0.60767875050E+02 -0.68526882806E+02  0.19570462414E+03  0.27679950905E+03  0.17300000000E+03 0. -1.
         -6    1    1    2    0  503 -0.60767875050E+02  0.68526882806E+02 -0.20956382828E+03  0.28676587389E+03  0.17300000000E+03 0. -1.
<mgrwt>
<rscale>  2 0.19574899E+03</rscale>
<asrwt>0</asrwt>
<pdfrwt beam="1">  1       21 0.42285091E-01 0.19574899E+03</pdfrwt>
<pdfrwt beam="2">  1       21 0.44417276E-01 0.19574899E+03</pdfrwt>
<totfact> 0.26147650E+04</totfact>
</mgrwt>
</event>
<event>
 4    1  0.4173994E+000  0.1925510E+03  0.7546771E-02  0.1156180E+00
         21   -1    0    0  503  502  0.00000000000E+00  0.00000000000E+00  0.14556068785E+04  0.14556068785E+04  0.00000000000E+00 0.  1.
         21   -1    0    0  501  503 -0.00000000000E+00 -0.00000000000E+00 -0.47156624355E+02  0.47156624355E+02  0.00000000000E+00 0.  1.
          6    1    1    2  501    0  0.56043201648E+02 -0.63293357349E+02  0.19468970346E+03  0.27382470701E+03  0.17300000000E+03 0.  1.
         -6    1    1    2    0  502 -0.56043201648E+02  0.63293357349E+02  0.12137605506E+04  0.12289387958E+04  0.17300000000E+03 0.  1.
<mgrwt>
<rscale>  2 0.19255101E+03</rscale>
<asrwt>0</asrwt>
<pdfrwt beam="1">  1       21 0.22393949E+00 0.19255101E+03</pdfrwt>
<pdfrwt beam="2">  1       21 0.72548664E-02 0.19255101E+03</pdfrwt>
<totfact> 0.13534369E+04</totfact>
</mgrwt>
</event>
<event>
 4    1  0.4173994E+000  0.2017072E+03  0.7546771E-02  0.1148307E+00
         21   -1    0    0  503  502  0.00000000000E+00  0.00000000000E+00  0.64199072093E+02  0.64199072093E+02  0.00000000000E+00 0. -1.
         21   -1    0    0  501  503 -0.00000000000E+00 -0.00000000000E+00 -0.71228133826E+03  0.71228133826E+03  0.00000000000E+00 0.  1.
          6    1    1    2  501    0 -0.85500355017E+02 -0.58706730674E+02 -0.45295873041E+03  0.49584009760E+03  0.17300000000E+03 0.  1.
         -6    1    1    2    0  502  0.85500355017E+02  0.58706730674E+02 -0.19512353575E+03  0.28064031275E+03  0.17300000000E+03 0. -1.
<mgrwt>
<rscale>  2 0.20170719E+03</rscale>
<asrwt>0</asrwt>
<pdfrwt beam="1">  1       21 0.98767800E-02 0.20170719E+03</pdfrwt>
<pdfrwt beam="2">  1       21 0.10958175E+00 0.20170719E+03</pdfrwt>
<totfact> 0.54417794E+04</totfact>
</mgrwt>
</event>
<event>
 4    1  0.4173994E+000  0.2084398E+03  0.7546771E-02  0.1142808E+00
         21   -1    0    0  501  502  0.00000000000E+00  0.00000000000E+00  0.81328272522E+02  0.81328272522E+02  0.00000000000E+00 0. -1.
         21   -1    0    0  502  503 -0.00000000000E+00 -0.00000000000E+00 -0.56906149768E+03  0.56906149768E+03  0.00000000000E+00 0.  1.
          6    1    1    2  501    0 -0.11448526405E+03 -0.20279559314E+02 -0.32433339114E+03  0.38553765681E+03  0.17300000000E+03 0.  1.
         -6    1    1    2    0  503  0.11448526405E+03  0.20279559314E+02 -0.16339983402E+03  0.26485211340E+03  0.17300000000E+03 0. -1.
<mgrwt>
<rscale>  2 0.20843977E+03</rscale>
<asrwt>0</asrwt>
<pdfrwt beam="1">  1       21 0.12512041E-01 0.20843977E+03</pdfrwt>
<pdfrwt beam="2">  1       21 0.87547927E-01 0.20843977E+03</pdfrwt>
<totfact> 0.60509948E+04</totfact>
</mgrwt>
</event>
<event>
 4    1  0.4173994E+000  0.2100233E+03  0.7546771E-02  0.1141548E+00
         21   -1    0    0  503  502  0.00000000000E+00  0.00000000000E+00  0.42824959946E+03  0.42824959946E+03  0.00000000000E+00 0. -1.
         21   -1    0    0  501  503 -0.00000000000E+00 -0.00000000000E+00 -0.12121923356E+03  0.12121923356E+03  0.00000000000E+00 0. -1.
          6    1    1    2  501    0  0.11707776774E+03 -0.21761918513E+02  0.47005219439E+02  0.21521913356E+03  0.17300000000E+03 0. -1.
         -6    1    1    2    0  502 -0.11707776774E+03  0.21761918513E+02  0.26002514647E+03  0.33424969946E+03  0.17300000000E+03 0. -1.
<mgrwt>
<rscale>  2 0.21002330E+03</rscale>
<asrwt>0</asrwt>
<pdfrwt beam="1">  1       21 0.65884553E-01 0.21002330E+03</pdfrwt>
<pdfrwt beam="2">  1       21 0.18649113E-01 0.21002330E+03</pdfrwt>
<totfact> 0.55183183E+04</totfact>
</mgrwt>
</event>
<event>
 4    1  0.4173994E+000  0.2867826E+03  0.7546771E-02  0.1092041E+00
         21   -1    0    0  501  502  0.00000000000E+00  0.00000000000E+00  0.11708315519E+03  0.11708315519E+03  0.00000000000E+00 0.  1.
         21   -1    0    0  502  503 -0.00000000000E+00 -0.00000000000E+00 -0.77882614201E+03  0.77882614201E+03  0.00000000000E+00 0. -1.
          6    1    1    2  501    0  0.45953901013E+02  0.22406141964E+03 -0.19058636822E+03  0.34433623762E+03  0.17300000000E+03 0.  1.
         -6    1    1    2    0  503 -0.45953901013E+02 -0.22406141964E+03 -0.47115661861E+03  0.55157305958E+03  0.17300000000E+03 0. -1.
<mgrwt>
<rscale>  2 0.28678264E+03</rscale>
<asrwt>0</asrwt>
<pdfrwt beam="1">  1       21 0.18012793E-01 0.28678264E+03</pdfrwt>
<pdfrwt beam="2">  1       21 0.11981941E+00 0.28678264E+03</pdfrwt>
<totfact> 0.14084501E+04</totfact>
</mgrwt>
</event>
<event>
 4    1  0.4173994E+000  0.1891246E+03  0.7546771E-02  0.1159253E+00
         21   -1    0    0  503  502  0.00000000000E+00  0.00000000000E+00  0.46196662096E+03  0.46196662096E+03  0.00000000000E+00 0. -1.
         21   -1    0    0  501  503 -0.00000000000E+00 -0.00000000000E+00 -0.91431067539E+02  0.91431067539E+02  0.00000000000E+00 0. -1.
          6    1    1    2  501    0 -0.13535872443E+01  0.76402157172E+02  0.76973226034E+02  0.20418863667E+03  0.17300000000E+03 0. -1.
         -6    1    1    2    0  502  0.13535872443E+01 -0.76402157172E+02  0.29356232738E+03  0.34920905183E+03  0.17300000000E+03 0. -1.
<mgrwt>
<rscale>  2 0.18912462E+03</rscale>
<asrwt>0</asrwt>
<pdfrwt beam="1">  1       21 0.71071787E-01 0.18912462E+03</pdfrwt>
<pdfrwt beam="2">  1       21 0.14066318E-01 0.18912462E+03</pdfrwt>
<totfact> 0.79108409E+04</totfact>
</mgrwt>
</event>
<event>
 4    1  0.4173994E+000  0.1759893E+03  0.7546771E-02  0.1171742E+00
         21   -1    0    0  501  502  0.00000000000E+00  0.00000000000E+00  0.40244463886E+03  0.40244463886E+03  0.00000000000E+00 0.  1.
         21   -1    0    0  502  503 -0.00000000000E+00 -0.00000000000E+00 -0.82816044469E+02  0.82816044469E+02  0.00000000000E+00 0.  1.
          6    1    1    2  501    0 -0.16057365302E+02 -0.28025077383E+02  0.22433222629E+03  0.28512662397E+03  0.17300000000E+03 0.  1.
         -6    1    1    2    0  503  0.16057365302E+02  0.28025077383E+02  0.95296368100E+02  0.20013405936E+03  0.17300000000E+03 0.  1.
<mgrwt>
<rscale>  2 0.17598933E+03</rscale>
<asrwt>0</asrwt>
<pdfrwt beam="1">  1       21 0.61914559E-01 0.17598933E+03</pdfrwt>
<pdfrwt beam="2">  1       21 0.12740930E-01 0.17598933E+03</pdfrwt>
<totfact> 0.12839411E+05</totfact>
</mgrwt>
</event>
<event>
 4    1  0.4173994E+000  0.1901984E+03  0.7546771E-02  0.1158282E+00
         21   -1    0    0  501  502  0.00000000000E+00  0.00000000000E+00  0.12987910263E+03  0.12987910263E+03  0.00000000000E+00 0. -1.
         21   -1    0    0  502  503 -0.00000000000E+00 -0.00000000000E+00 -0.53244219533E+03  0.53244219533E+03  0.00000000000E+00 0. -1.
          6    1    1    2  501    0  0.73358609431E+02 -0.29410068796E+02  0.27406193005E+02  0.19216278812E+03  0.17300000000E+03 0. -1.
         -6    1    1    2    0  503 -0.73358609431E+02  0.29410068796E+02 -0.42996928570E+03  0.47015850984E+03  0.17300000000E+03 0. -1.
<mgrwt>
<rscale>  2 0.19019842E+03</rscale>
<asrwt>0</asrwt>
<pdfrwt beam="1">  1       21 0.19981400E-01 0.19019842E+03</pdfrwt>
<pdfrwt beam="2">  1       21 0.81914185E-01 0.19019842E+03</pdfrwt>
<totfact> 0.30185219E+04</totfact>
</mgrwt>
</event>
<event>
 4    1  0.4173994E+000  0.1944251E+03  0.7546771E-02  0.1154530E+00
         21   -1    0    0  503  502  0.00000000000E+00  0.00000000000E+00  0.93584038686E+02  0.93584038686E+02  0.00000000000E+00 0.  1.
         21   -1    0    0  501  503 -0.00000000000E+00 -0.00000000000E+00 -0.43744606799E+03  0.43744606799E+03  0.00000000000E+00 0. -1.
          6    1    1    2  501    0  0.70801277323E+02  0.53472316889E+02 -0.98433343133E+02  0.21792253804E+03  0.17300000000E+03 0.  1.
         -6    1    1    2    0  502 -0.70801277323E+02 -0.53472316889E+02 -0.24542868617E+03  0.31310756864E+03  0.17300000000E+03 0.  1.
<mgrwt>
<rscale>  2 0.19442507E+03</rscale>
<asrwt>0</asrwt>
<pdfrwt beam="1">  1       21 0.14397544E-01 0.19442507E+03</pdfrwt>
<pdfrwt beam="2">  1       21 0.67299395E-01 0.19442507E+03</pdfrwt>
<totfact> 0.85320485E+04</totfact>
</mgrwt>
</event>
<event>
 4    1  0.4173994E+000  0.1916417E+03  0.7546771E-02  0.1156989E+00
         21   -1    0    0  503  502  0.00000000000E+00  0.00000000000E+00  0.13932531576E+03  0.13932531576E+03  0.00000000000E+00 0. -1.
         21   -1    0    0  501  503 -0.00000000000E+00 -0.00000000000E+00 -0.38828505572E+03  0.38828505572E+03  0.00000000000E+00 0. -1.
          6    1    1    2  501    0  0.38724848767E+02  0.72786968334E+02 -0.27396918412E+03  0.33434364136E+03  0.17300000000E+03 0. -1.
         -6    1    1    2    0  502 -0.38724848767E+02 -0.72786968334E+02  0.25009444164E+02  0.19326673011E+03  0.17300000000E+03 0. -1.
<mgrwt>
<rscale>  2 0.19164174E+03</rscale>
<asrwt>0</asrwt>
<pdfrwt beam="1">  1       21 0.21434664E-01 0.19164174E+03</pdfrwt>
<pdfrwt beam="2">  1       21 0.59736163E-01 0.19164174E+03</pdfrwt>
<totfact> 0.53057250E+04</totfact>
</mgrwt>
</event>
<event>
 4    1  0.4173994E+000  0.2063441E+03  0.7546771E-02  0.1144494E+00
         21   -1    0    0  501  502  0.00000000000E+00  0.00000000000E+00  0.14716262382E+03  0.14716262382E+03  0.00000000000E+00 0.  1.
         21   -1    0    0  502  503 -0.00000000000E+00 -0.00000000000E+00 -0.52954518247E+03  0.52954518247E+03  0.00000000000E+00 0. -1.
          6    1    1    2  501    0  0.71485993793E+02 -0.86825235955E+02  0.36698140934E+02  0.20958201844E+03  0.17300000000E+03 0.  1.
         -6    1    1    2    0  503 -0.71485993793E+02  0.86825235955E+02 -0.41908069959E+03  0.46712578785E+03  0.17300000000E+03 0. -1.
<mgrwt>
<rscale>  2 0.20634405E+03</rscale>
<asrwt>0</asrwt>
<pdfrwt beam="1">  1       21 0.22640404E-01 0.20634405E+03</pdfrwt>
<pdfrwt beam="2">  1       21 0.81468489E-01 0.20634405E+03</pdfrwt>
<totfact> 0.23941573E+04</totfact>
</mgrwt>
</event>
<event>
 4    1  0.4173994E+000  0.2073724E+03  0.7546771E-02  0.1143664E+00
         21   -1    0    0  501  502  0.00000000000E+00  0.00000000000E+00  0.15219535345E+03  0.15219535345E+03  0.00000000000E+00 0. -1.
         21   -1    0    0  502  503 -0.00000000000E+00 -0.00000000000E+00 -0.30403972320E+03  0.30403972320E+03  0.00000000000E+00 0. -1.
          6    1    1    2  501    0 -0.27258958693E+02 -0.11104622088E+03 -0.13656433661E+03  0.24830048738E+03  0.17300000000E+03 0. -1.
         -6    1    1    2    0  503  0.27258958693E+02  0.11104622088E+03 -0.15280033148E+02  0.20793458927E+03  0.17300000000E+03 0. -1.
<mgrwt>
<rscale>  2 0.20737240E+03</rscale>
<asrwt>0</asrwt>
<pdfrwt beam="1">  1       21 0.23414670E-01 0.20737240E+03</pdfrwt>
<pdfrwt beam="2">  1       21 0.46775341E-01 0.20737240E+03</pdfrwt>
<totfact> 0.74594770E+04</totfact>
</mgrwt>
</event>
<event>
 4    1  0.4173994E+000  0.2016054E+03  0.7546771E-02  0.1148392E+00
         21   -1    0    0  503  502  0.00000000000E+00  0.00000000000E+00  0.21180830447E+03  0.21180830447E+03  0.00000000000E+00 0.  1.
         21   -1    0    0  501  503 -0.00000000000E+00 -0.00000000000E+00 -0.19862657368E+03  0.19862657368E+03  0.00000000000E+00 0.  1.
          6    1    1    2  501    0 -0.81972714661E+02 -0.63215628640E+02 -0.31191254079E+02  0.20400400973E+03  0.17300000000E+03 0.  1.
         -6    1    1    2    0  502  0.81972714661E+02  0.63215628640E+02  0.44372984874E+02  0.20643086843E+03  0.17300000000E+03 0.  1.
<mgrwt>
<rscale>  2 0.20160541E+03</rscale>
<asrwt>0</asrwt>
<pdfrwt beam="1">  1       21 0.32585893E-01 0.20160541E+03</pdfrwt>
<pdfrwt beam="2">  1       21 0.30557934E-01 0.20160541E+03</pdfrwt>
<totfact> 0.92826032E+04</totfact>
</mgrwt>
</event>
<event>
 4    1  0.4173994E+000  0.1968759E+03  0.7546771E-02  0.1152402E+00
         21   -1    0    0  503  502  0.00000000000E+00  0.00000000000E+00  0.98526066052E+02  0.98526066052E+02  0.00000000000E+00 0. -1.
         21   -1    0    0  501  503 -0.00000000000E+00 -0.00000000000E+00 -0.39416703385E+03  0.39416703385E+03  0.00000000000E+00 0. -1.
          6    1    1    2  501    0  0.76710759316E+01  0.93660400350E+02 -0.15869034179E+03  0.25286901862E+03  0.17300000000E+03 0. -1.
         -6    1    1    2    0  502 -0.76710759316E+01 -0.93660400350E+02 -0.13695062601E+03  0.23982408128E+03  0.17300000000E+03 0. -1.
<mgrwt>
<rscale>  2 0.19687589E+03</rscale>
<asrwt>0</asrwt>
<pdfrwt beam="1">  1       21 0.15157856E-01 0.19687589E+03</pdfrwt>
<pdfrwt beam="2">  1       21 0.60641082E-01 0.19687589E+03</pdfrwt>
<totfact> 0.97309056E+04</totfact>
</mgrwt>
</event>
<event>
 4    1  0.4173994E+000  0.2266556E+03  0.7546771E-02  0.1129016E+00
         21   -1    0    0  503  502  0.00000000000E+00  0.00000000000E+00  0.21882037492E+03  0.21882037492E+03  0.00000000000E+00 0.  1.
         21   -1    0    0  501  503 -0.00000000000E+00 -0.00000000000E+00 -0.28880595915E+03  0.28880595915E+03  0.00000000000E+00 0.  1.
          6    1    1    2  501    0  0.10456991005E+03 -0.10251289319E+03 -0.14477880098E+03  0.26894917842E+03  0.17300000000E+03 0.  1.
         -6    1    1    2    0  502 -0.10456991005E+03  0.10251289319E+03  0.74793216750E+02  0.23867715565E+03  0.17300000000E+03 0.  1.
<mgrwt>
<rscale>  2 0.22665560E+03</rscale>
<asrwt>0</asrwt>
<pdfrwt beam="1">  1       21 0.33664673E-01 0.22665560E+03</pdfrwt>
<pdfrwt beam="2">  1       21 0.44431686E-01 0.22665560E+03</pdfrwt>
<totfact> 0.40655938E+04</totfact>
</mgrwt>
</event>
<event>
 4    1  0.4173994E+000  0.1823936E+03  0.7546771E-02  0.1165506E+00
         21   -1    0    0  501  502  0.00000000000E+00  0.00000000000E+00  0.92797320186E+02  0.92797320186E+02  0.00000000000E+00 0. -1.
         21   -1    0    0  502  503 -0.00000000000E+00 -0.00000000000E+00 -0.10974634018E+04  0.10974634018E+04  0.00000000000E+00 0. -1.
          6    1    1    2  501    0 -0.19913387105E+02 -0.54239080985E+02 -0.13984523646E+02  0.18292891459E+03  0.17300000000E+03 0. -1.
         -6    1    1    2    0  503  0.19913387105E+02  0.54239080985E+02 -0.99068155797E+03  0.10073318074E+04  0.17300000000E+03 0. -1.
<mgrwt>
<rscale>  2 0.18239359E+03</rscale>
<asrwt>0</asrwt>
<pdfrwt beam="1">  1       21 0.14276511E-01 0.18239359E+03</pdfrwt>
<pdfrwt beam="2">  1       21 0.16884052E+00 0.18239359E+03</pdfrwt>
<totfact> 0.94084178E+03</totfact>
</mgrwt>
</event>
<event>
 4    1  0.4173994E+000  0.1913040E+03  0.7546771E-02  0.1157290E+00
         21   -1    0    0  503  502  0.00000000000E+00  0.00000000000E+00  0.48342484284E+03  0.48342484284E+03  0.00000000000E+00 0.  1.
         21   -1    0    0  501  503 -0.00000000000E+00 -0.00000000000E+00 -0.17699140808E+03  0.17699140808E+03  0.00000000000E+00 0.  1.
          6    1    1    2  501    0  0.22407864622E+02  0.78524447909E+02 -0.96581515285E+02  0.21430163418E+03  0.17300000000E+03 0.  1.
         -6    1    1    2    0  502 -0.22407864622E+02 -0.78524447909E+02  0.40301495004E+03  0.44611461674E+03  0.17300000000E+03 0.  1.
<mgrwt>
<rscale>  2 0.19130395E+03</rscale>
<asrwt>0</asrwt>
<pdfrwt beam="1">  1       21 0.74373052E-01 0.19130395E+03</pdfrwt>
<pdfrwt beam="2">  1       21 0.27229448E-01 0.19130395E+03</pdfrwt>
<totfact> 0.20847189E+04</totfact>
</mgrwt>
</event>
<event>
 4    1  0.4173994E+000  0.1988576E+03  0.7546771E-02  0.1150706E+00
         21   -1    0    0  503  502  0.00000000000E+00  0.00000000000E+00  0.29313047103E+03  0.29313047103E+03  0.00000000000E+00 0.  1.
         21   -1    0    0  501  503 -0.00000000000E+00 -0.00000000000E+00 -0.21196746702E+03  0.21196746702E+03  0.00000000000E+00 0. -1.
          6    1    1    2  501    0  0.32171945956E+02 -0.92629997170E+02 -0.11169624584E+03  0.22807981458E+03  0.17300000000E+03 0. -1.
         -6    1    1    2    0  502 -0.32171945956E+02  0.92629997170E+02  0.19285924985E+03  0.27701812348E+03  0.17300000000E+03 0.  1.
<mgrwt>
<rscale>  2 0.19885761E+03</rscale>
<asrwt>0</asrwt>
<pdfrwt beam="1">  1       21 0.45096995E-01 0.19885761E+03</pdfrwt>
<pdfrwt beam="2">  1       21 0.32610380E-01 0.19885761E+03</pdfrwt>
<totfact> 0.42560535E+04</totfact>
</mgrwt>
</event>
<event>
 4    1  0.4173994E+000  0.3692705E+03  0.7546771E-02  0.1054972E+00
         21   -1    0    0  503  502  0.00000000000E+00  0.00000000000E+00  0.38016121347E+03  0.38016121347E+03  0.00000000000E+00 0.  1.
         21   -1    0    0  501  503 -0.00000000000E+00 -0.00000000000E+00 -0.36155950260E+03  0.36155950260E+03  0.00000000000E+00 0. -1.
          6    1    1    2  501    0 -0.20397076777E+03 -0.25461264892E+03  0.42329786615E+02  0.37168869492E+03  0.17300000000E+03 0.  1.
         -6    1    1    2    0  502  0.20397076777E+03  0.25461264892E+03 -0.23728075752E+02  0.37003202115E+03  0.17300000000E+03 0. -1.
<mgrwt>
<rscale>  2 0.36927046E+03</rscale>
<asrwt>0</asrwt>
<pdfrwt beam="1">  1       21 0.58486340E-01 0.36927046E+03</pdfrwt>
<pdfrwt beam="2">  1       21 0.55624539E-01 0.36927046E+03</pdfrwt>
<totfact> 0.76015938E+03</totfact>
</mgrwt>
</event>
<event>
 4    1  0.4173994E+000  0.1923637E+03  0.7546771E-02  0.1156347E+00
         21   -1    0    0  501  502  0.00000000000E+00  0.00000000000E+00  0.72930103037E+02  0.72930103037E+02  0.00000000000E+00 0.  1.
         21   -1    0    0  502  503 -0.00000000000E+00 -0.00000000000E+00 -0.51958017766E+03  0.51958017766E+03  0.00000000000E+00 0.  1.
          6    1    1    2  501    0  0.26961554659E+02 -0.79673433228E+02 -0.17794140731E+03  0.26204374793E+03  0.17300000000E+03 0.  1.
         -6    1    1    2    0  503 -0.26961554659E+02  0.79673433228E+02 -0.26870866731E+03  0.33046653277E+03  0.17300000000E+03 0.  1.
<mgrwt>
<rscale>  2 0.19236367E+03</rscale>
<asrwt>0</asrwt>
<pdfrwt beam="1">  1       21 0.11220016E-01 0.19236367E+03</pdfrwt>
<pdfrwt beam="2">  1       21 0.79935411E-01 0.19236367E+03</pdfrwt>
<totfact> 0.91175833E+04</totfact>
</mgrwt>
</event>
<event>
 4    1  0.4173994E+000  0.1777260E+03  0.7546771E-02  0.1170022E+00
         21   -1    0    0  503  502  0.00000000000E+00  0.00000000000E+00  0.35198755777E+03  0.35198755777E+03  0.00000000000E+00 0.  1.
         21   -1    0    0  501  503 -0.00000000000E+00 -0.00000000000E+00 -0.32701246981E+03  0.32701246981E+03  0.00000000000E+00 0.  1.
          6    1    1    2  501    0 -0.35587399089E+02 -0.19775822751E+02 -0.27670256827E+03  0.32886297668E+03  0.17300000000E+03 0.  1.
         -6    1    1    2    0  502  0.35587399089E+02  0.19775822751E+02  0.30167765623E+03  0.35013705090E+03  0.17300000000E+03 0.  1.
<mgrwt>
<rscale>  2 0.17772604E+03</rscale>
<asrwt>0</asrwt>
<pdfrwt beam="1">  1       21 0.54151932E-01 0.17772604E+03</pdfrwt>
<pdfrwt beam="2">  1       21 0.50309611E-01 0.17772604E+03</pdfrwt>
<totfact> 0.12246511E+04</totfact>
</mgrwt>
</event>
<event>
 4    1  0.4173994E+000  0.1882945E+03  0.7546771E-02  0.1160009E+00
         21   -1    0    0  503  502  0.00000000000E+00  0.00000000000E+00  0.40850079939E+03  0.40850079939E+03  0.00000000000E+00 0. -1.
         21   -1    0    0  501  503 -0.00000000000E+00 -0.00000000000E+00 -0.93858371159E+02  0.93858371159E+02  0.00000000000E+00 0. -1.
          6    1    1    2  501    0 -0.35756048152E+02 -0.65171601377E+02  0.88403849740E+02  0.20801459866E+03  0.17300000000E+03 0.  1.
         -6    1    1    2    0  502  0.35756048152E+02  0.65171601377E+02  0.22623857849E+03  0.29434457189E+03  0.17300000000E+03 0.  1.
<mgrwt>
<rscale>  2 0.18829454E+03</rscale>
<asrwt>0</asrwt>
<pdfrwt beam="1">  1       21 0.62846276E-01 0.18829454E+03</pdfrwt>
<pdfrwt beam="2">  1       21 0.14439750E-01 0.18829454E+03</pdfrwt>
<totfact> 0.98741893E+04</totfact>
</mgrwt>
</event>
<event>
 4    1  0.4173994E+000  0.1821180E+03  0.7546771E-02  0.1165769E+00
         21   -1    0    0  503  502  0.00000000000E+00  0.00000000000E+00  0.92026971036E+02  0.92026971036E+02  0.00000000000E+00 0.  1.
         21   -1    0    0  501  503 -0.00000000000E+00 -0.00000000000E+00 -0.48951583076E+03  0.48951583076E+03  0.00000000000E+00 0.  1.
          6    1    1    2  501    0 -0.21847902877E+02  0.52541792358E+02 -0.34807538164E+03  0.39284022466E+03  0.17300000000E+03 0.  1.
         -6    1    1    2    0  502  0.21847902877E+02 -0.52541792358E+02 -0.49413478089E+02  0.18870257715E+03  0.17300000000E+03 0.  1.
<mgrwt>
<rscale>  2 0.18211801E+03</rscale>
<asrwt>0</asrwt>
<pdfrwt beam="1">  1       21 0.14157996E-01 0.18211801E+03</pdfrwt>
<pdfrwt beam="2">  1       21 0.75310125E-01 0.18211801E+03</pdfrwt>
<totfact> 0.68953449E+04</totfact>
</mgrwt>
</event>
<event>
 4    1  0.4173994E+000  0.2990500E+03  0.7546771E-02  0.1085716E+00
         21   -1    0    0  501  502  0.00000000000E+00  0.00000000000E+00  0.76099633326E+03  0.76099633326E+03  0.00000000000E+00 0.  1.
         21   -1    0    0  502  503 -0.00000000000E+00 -0.00000000000E+00 -0.16173842243E+03  0.16173842243E+03  0.00000000000E+00 0.  1.
          6    1    1    2  501    0 -0.12834339112E+03 -0.20743648745E+03  0.58388175673E+02  0.30469673682E+03  0.17300000000E+03 0.  1.
         -6    1    1    2    0  503  0.12834339112E+03  0.20743648745E+03  0.54086973515E+03  0.61803801887E+03  0.17300000000E+03 0.  1.
<mgrwt>
<rscale>  2 0.29905003E+03</rscale>
<asrwt>0</asrwt>
<pdfrwt beam="1">  1       21 0.11707636E+00 0.29905003E+03</pdfrwt>
<pdfrwt beam="2">  1       21 0.24882835E-01 0.29905003E+03</pdfrwt>
<totfact> 0.80387146E+03</totfact>
</mgrwt>
</event>
<event>
 4    1  0.4173994E+000  0.2003449E+03  0.7546771E-02  0.1149448E+00
         21   -1    0    0  501  502  0.00000000000E+00  0.00000000000E+00  0.33718485953E+03  0.33718485953E+03  0.00000000000E+00 0. -1.
         21   -1    0    0  502  503 -0.00000000000E+00 -0.00000000000E+00 -0.11913331032E+03  0.11913331032E+03  0.00000000000E+00 0.  1.
          6    1    1    2  501    0  0.91719471131E+02  0.42386736502E+02  0.11545048225E+03  0.23122913023E+03  0.17300000000E+03 0. -1.
         -6    1    1    2    0  503 -0.91719471131E+02 -0.42386736502E+02  0.10260106695E+03  0.22508903962E+03  0.17300000000E+03 0.  1.
<mgrwt>
<rscale>  2 0.20034494E+03</rscale>
<asrwt>0</asrwt>
<pdfrwt beam="1">  1       21 0.51874593E-01 0.20034494E+03</pdfrwt>
<pdfrwt beam="2">  1       21 0.18328202E-01 0.20034494E+03</pdfrwt>
<totfact> 0.95496473E+04</totfact>
</mgrwt>
</event>
<event>
 4    1  0.4173994E+000  0.3258453E+03  0.7546771E-02  0.1072990E+00
         21   -1    0    0  501  502  0.00000000000E+00  0.00000000000E+00  0.38711598548E+03  0.38711598548E+03  0.00000000000E+00 0. -1.
         21   -1    0    0  502  503 -0.00000000000E+00 -0.00000000000E+00 -0.30574622926E+03  0.30574622926E+03  0.00000000000E+00 0.  1.
          6    1    1    2  501    0 -0.68926727517E+02 -0.26738598858E+03  0.15183561923E+03  0.35948465325E+03  0.17300000000E+03 0.  1.
         -6    1    1    2    0  503  0.68926727517E+02  0.26738598858E+03 -0.70465863019E+02  0.33337756149E+03  0.17300000000E+03 0. -1.
<mgrwt>
<rscale>  2 0.32584530E+03</rscale>
<asrwt>0</asrwt>
<pdfrwt beam="1">  1       21 0.59556306E-01 0.32584530E+03</pdfrwt>
<pdfrwt beam="2">  1       21 0.47037881E-01 0.32584530E+03</pdfrwt>
<totfact> 0.10611245E+04</totfact>
</mgrwt>
</event>
<event>
 4    1  0.4173994E+000  0.1975779E+03  0.7546771E-02  0.1151799E+00
         21   -1    0    0  503  502  0.00000000000E+00  0.00000000000E+00  0.40928459064E+02  0.40928459064E+02  0.00000000000E+00 0. -1.
         21   -1    0    0  501  503 -0.00000000000E+00 -0.00000000000E+00 -0.12855055737E+04  0.12855055737E+04  0.00000000000E+00 0.  1.
          6    1    1    2  501    0  0.23095580383E+02  0.92599161072E+02 -0.95919081449E+03  0.97932835610E+03  0.17300000000E+03 0.  1.
         -6    1    1    2    0  502 -0.23095580383E+02 -0.92599161072E+02 -0.28538630019E+03  0.34710567671E+03  0.17300000000E+03 0. -1.
<mgrwt>
<rscale>  2 0.19757786E+03</rscale>
<asrwt>0</asrwt>
<pdfrwt beam="1">  1       21 0.62966852E-02 0.19757786E+03</pdfrwt>
<pdfrwt beam="2">  1       21 0.19777011E+00 0.19757786E+03</pdfrwt>
<totfact> 0.25101453E+04</totfact>
</mgrwt>
</event>
<event>
 4    1  0.4173994E+000  0.1810952E+03  0.7546771E-02  0.1166747E+00
         21   -1    0    0  503  502  0.00000000000E+00  0.00000000000E+00  0.10593332988E+03  0.10593332988E+03  0.00000000000E+00 0.  1.
         21   -1    0    0  501  503 -0.00000000000E+00 -0.00000000000E+00 -0.50746615775E+03  0.50746615775E+03  0.00000000000E+00 0.  1.
          6    1    1    2  501    0  0.23689470146E+02 -0.48013281691E+02 -0.39228507401E+03  0.43206833430E+03  0.17300000000E+03 0. -1.
         -6    1    1    2    0  502 -0.23689470146E+02  0.48013281691E+02 -0.92477538643E+01  0.18133115332E+03  0.17300000000E+03 0. -1.
<mgrwt>
<rscale>  2 0.18109519E+03</rscale>
<asrwt>0</asrwt>
<pdfrwt beam="1">  1       21 0.16297435E-01 0.18109519E+03</pdfrwt>
<pdfrwt beam="2">  1       21 0.78071717E-01 0.18109519E+03</pdfrwt>
<totfact> 0.49262021E+04</totfact>
</mgrwt>
</event>
<event>
 4    1  0.4173994E+000  0.1778664E+03  0.7546771E-02  0.1169884E+00
         21   -1    0    0  501  502  0.00000000000E+00  0.00000000000E+00  0.30420201461E+03  0.30420201461E+03  0.00000000000E+00 0. -1.
         21   -1    0    0  502  503 -0.00000000000E+00 -0.00000000000E+00 -0.12329487207E+03  0.12329487207E+03  0.00000000000E+00 0. -1.
          6    1    1    2  501    0  0.41227318894E+02  0.27854932469E+01  0.17501495374E+03  0.24953293335E+03  0.17300000000E+03 0. -1.
         -6    1    1    2    0  503 -0.41227318894E+02 -0.27854932469E+01  0.58921887978E+01  0.17796395333E+03  0.17300000000E+03 0. -1.
<mgrwt>
<rscale>  2 0.17786638E+03</rscale>
<asrwt>0</asrwt>
<pdfrwt beam="1">  1       21 0.46800310E-01 0.17786638E+03</pdfrwt>
<pdfrwt beam="2">  1       21 0.18968442E-01 0.17786638E+03</pdfrwt>
<totfact> 0.11195864E+05</totfact>
</mgrwt>
</event>
<event>
 4    1  0.4173994E+000  0.2805127E+03  0.7546771E-02  0.1095409E+00
         21   -1    0    0  503  502  0.00000000000E+00  0.00000000000E+00  0.25433386127E+03  0.25433386127E+03  0.00000000000E+00 0.  1.
         21   -1    0    0  501  503 -0.00000000000E+00 -0.00000000000E+00 -0.40178987471E+03  0.40178987471E+03  0.00000000000E+00 0. -1.
          6    1    1    2  501    0  0.37141378265E+02 -0.21766698469E+03 -0.23105410636E+03  0.36341903949E+03  0.17300000000E+03 0. -1.
         -6    1    1    2    0  502 -0.37141378265E+02  0.21766698469E+03  0.83598092922E+02  0.29270469648E+03  0.17300000000E+03 0.  1.
<mgrwt>
<rscale>  2 0.28051274E+03</rscale>
<asrwt>0</asrwt>
<pdfrwt beam="1">  1       21 0.39128286E-01 0.28051274E+03</pdfrwt>
<pdfrwt beam="2">  1       21 0.61813827E-01 0.28051274E+03</pdfrwt>
<totfact> 0.14587656E+04</totfact>
</mgrwt>
</event>
<event>
 4    1  0.4173994E+000  0.2544757E+03  0.7546771E-02  0.1110509E+00
         21   -1    0    0  503  502  0.00000000000E+00  0.00000000000E+00  0.11807530138E+04  0.11807530138E+04  0.00000000000E+00 0.  1.
         21   -1    0    0  501  503 -0.00000000000E+00 -0.00000000000E+00 -0.59432618477E+02  0.59432618477E+02  0.00000000000E+00 0.  1.
          6    1    1    2  501    0  0.76242400528E+01  0.18646913877E+03  0.38837055460E+03  0.46431622461E+03  0.17300000000E+03 0.  1.
         -6    1    1    2    0  502 -0.76242400528E+01 -0.18646913877E+03  0.73294984076E+03  0.77586940771E+03  0.17300000000E+03 0.  1.
<mgrwt>
<rscale>  2 0.25447567E+03</rscale>
<asrwt>0</asrwt>
<pdfrwt beam="1">  1       21 0.18165429E+00 0.25447567E+03</pdfrwt>
<pdfrwt beam="2">  1       21 0.91434806E-02 0.25447567E+03</pdfrwt>
<totfact> 0.16162052E+04</totfact>
</mgrwt>
</event>
<event>
 4    1  0.4173994E+000  0.1872377E+03  0.7546771E-02  0.1160977E+00
         21   -1    0    0  503  502  0.00000000000E+00  0.00000000000E+00  0.18737134241E+03  0.18737134241E+03  0.00000000000E+00 0.  1.
         21   -1    0    0  501  503 -0.00000000000E+00 -0.00000000000E+00 -0.23506344278E+03  0.23506344278E+03  0.00000000000E+00 0. -1.
          6    1    1    2  501    0 -0.79789549114E+01  0.71170820538E+02 -0.11925160667E+03  0.22198850221E+03  0.17300000000E+03 0. -1.
         -6    1    1    2    0  502  0.79789549114E+01 -0.71170820538E+02  0.71559506303E+02  0.20044628298E+03  0.17300000000E+03 0.  1.
<mgrwt>
<rscale>  2 0.18723768E+03</rscale>
<asrwt>0</asrwt>
<pdfrwt beam="1">  1       21 0.28826360E-01 0.18723768E+03</pdfrwt>
<pdfrwt beam="2">  1       21 0.36163607E-01 0.18723768E+03</pdfrwt>
<totfact> 0.85099780E+04</totfact>
</mgrwt>
</event>
<event>
 4    1  0.4173994E+000  0.2102024E+03  0.7546771E-02  0.1141406E+00
         21   -1    0    0  501  502  0.00000000000E+00  0.00000000000E+00  0.59588799310E+03  0.59588799310E+03  0.00000000000E+00 0.  1.
         21   -1    0    0  502  503 -0.00000000000E+00 -0.00000000000E+00 -0.10482200739E+03  0.10482200739E+03  0.00000000000E+00 0.  1.
          6    1    1    2  501    0  0.54053970180E+02 -0.10646220969E+03  0.43505249532E+03  0.48317254420E+03  0.17300000000E+03 0.  1.
         -6    1    1    2    0  503 -0.54053970180E+02  0.10646220969E+03  0.56013490382E+02  0.21753745629E+03  0.17300000000E+03 0.  1.
<mgrwt>
<rscale>  2 0.21020236E+03</rscale>
<asrwt>0</asrwt>
<pdfrwt beam="1">  1       21 0.91675074E-01 0.21020236E+03</pdfrwt>
<pdfrwt beam="2">  1       21 0.16126463E-01 0.21020236E+03</pdfrwt>
<totfact> 0.34266406E+04</totfact>
</mgrwt>
</event>
<event>
 4    1  0.4173994E+000  0.2619106E+03  0.7546771E-02  0.1106001E+00
         21   -1    0    0  501  502  0.00000000000E+00  0.00000000000E+00  0.47572989519E+03  0.47572989519E+03  0.00000000000E+00 0. -1.
         21   -1    0    0  502  503 -0.00000000000E+00 -0.00000000000E+00 -0.32428305704E+03  0.32428305704E+03  0.00000000000E+00 0. -1.
          6    1    1    2  501    0  0.19205390620E+03 -0.42230990795E+02  0.37381461967E+03  0.45643677476E+03  0.17300000000E+03 0. -1.
         -6    1    1    2    0  503 -0.19205390620E+03  0.42230990795E+02 -0.22236778151E+03  0.34357617747E+03  0.17300000000E+03 0. -1.
<mgrwt>
<rscale>  2 0.26191059E+03</rscale>
<asrwt>0</asrwt>
<pdfrwt beam="1">  1       21 0.73189215E-01 0.26191059E+03</pdfrwt>
<pdfrwt beam="2">  1       21 0.49889701E-01 0.26191059E+03</pdfrwt>
<totfact> 0.61386642E+03</totfact>
</mgrwt>
</event>
<event>
 4    1  0.4173994E+000  0.2017359E+03  0.7546771E-02  0.1148283E+00
         21   -1    0    0  503  502  0.00000000000E+00  0.00000000000E+00  0.12286148843E+03  0.12286148843E+03  0.00000000000E+00 0.  1.
         21   -1    0    0  501  503 -0.00000000000E+00 -0.00000000000E+00 -0.35375585453E+03  0.35375585453E+03  0.00000000000E+00 0.  1.
          6    1    1    2  501    0  0.10122653596E+03 -0.22837922992E+02 -0.17556094723E+03  0.26743041806E+03  0.17300000000E+03 0.  1.
         -6    1    1    2    0  502 -0.10122653596E+03  0.22837922992E+02 -0.55333418868E+02  0.20918692491E+03  0.17300000000E+03 0.  1.
<mgrwt>
<rscale>  2 0.20173592E+03</rscale>
<asrwt>0</asrwt>
<pdfrwt beam="1">  1       21 0.18901767E-01 0.20173592E+03</pdfrwt>
<pdfrwt beam="2">  1       21 0.54423978E-01 0.20173592E+03</pdfrwt>
<totfact> 0.81469174E+04</totfact>
</mgrwt>
</event>
<event>
 4    1  0.4173994E+000  0.2008480E+03  0.7546771E-02  0.1149026E+00
         21   -1    0    0  501  502  0.00000000000E+00  0.00000000000E+00  0.13811302881E+03  0.13811302881E+03  0.00000000000E+00 0.  1.
         21   -1    0    0  502  503 -0.00000000000E+00 -0.00000000000E+00 -0.29514744404E+03  0.29514744404E+03  0.00000000000E+00 0. -1.
          6    1    1    2  501    0  0.21381670712E+02 -0.99768386106E+02 -0.56428867171E+02  0.20862436042E+03  0.17300000000E+03 0. -1.
         -6    1    1    2    0  503 -0.21381670712E+02  0.99768386106E+02 -0.10060554806E+03  0.22463611243E+03  0.17300000000E+03 0.  1.
<mgrwt>
<rscale>  2 0.20084797E+03</rscale>
<asrwt>0</asrwt>
<pdfrwt beam="1">  1       21 0.21248158E-01 0.20084797E+03</pdfrwt>
<pdfrwt beam="2">  1       21 0.45407299E-01 0.20084797E+03</pdfrwt>
<totfact> 0.95543094E+04</totfact>
</mgrwt>
</event>
<event>
 4    1  0.4173994E+000  0.1962379E+03  0.7546771E-02  0.1152952E+00
         21   -1    0    0  501  502  0.00000000000E+00  0.00000000000E+00  0.47785079700E+02  0.47785079700E+02  0.00000000000E+00 0. -1.
         21   -1    0    0  502  503 -0.00000000000E+00 -0.00000000000E+00 -0.14024418606E+04  0.14024418606E+04  0.00000000000E+00 0. -1.
          6    1    1    2  501    0 -0.40328125324E+02  0.83390389161E+02 -0.20440674734E+03  0.28335742985E+03  0.17300000000E+03 0. -1.
         -6    1    1    2    0  503  0.40328125324E+02 -0.83390389161E+02 -0.11502500335E+04  0.11668695104E+04  0.17300000000E+03 0. -1.
<mgrwt>
<rscale>  2 0.19623790E+03</rscale>
<asrwt>0</asrwt>
<pdfrwt beam="1">  1       21 0.73515522E-02 0.19623790E+03</pdfrwt>
<pdfrwt beam="2">  1       21 0.21576024E+00 0.19623790E+03</pdfrwt>
<totfact> 0.14803534E+04</totfact>
</mgrwt>
</event>
<event>
 4    1  0.4173994E+000  0.2090764E+03  0.7546771E-02  0.1142299E+00
         21   -1    0    0  501  502  0.00000000000E+00  0.00000000000E+00  0.87997181697E+02  0.87997181697E+02  0.00000000000E+00 0. -1.
         21   -1    0    0  502  503 -0.00000000000E+00 -0.00000000000E+00 -0.57229410439E+03  0.57229410439E+03  0.00000000000E+00 0.  1.
          6    1    1    2  501    0  0.42688489803E+02 -0.10936921209E+03 -0.12220256697E+03  0.24217018621E+03  0.17300000000E+03 0. -1.
         -6    1    1    2    0  503 -0.42688489803E+02  0.10936921209E+03 -0.36209435573E+03  0.41812109988E+03  0.17300000000E+03 0.  1.
<mgrwt>
<rscale>  2 0.20907638E+03</rscale>
<asrwt>0</asrwt>
<pdfrwt beam="1">  1       21 0.13538029E-01 0.20907638E+03</pdfrwt>
<pdfrwt beam="2">  1       21 0.88045242E-01 0.20907638E+03</pdfrwt>
<totfact> 0.51793955E+04</totfact>
</mgrwt>
</event>
<event>
 4    1  0.4173994E+000  0.1916941E+03  0.7546771E-02  0.1156942E+00
         21   -1    0    0  503  502  0.00000000000E+00  0.00000000000E+00  0.51608516924E+03  0.51608516924E+03  0.00000000000E+00 0. -1.
         21   -1    0    0  501  503 -0.00000000000E+00 -0.00000000000E+00 -0.74215678385E+02  0.74215678385E+02  0.00000000000E+00 0.  1.
          6    1    1    2  501    0 -0.77206851831E+02  0.29270276203E+02  0.16146514144E+03  0.25063447277E+03  0.17300000000E+03 0. -1.
         -6    1    1    2    0  502  0.77206851831E+02 -0.29270276203E+02  0.28040434941E+03  0.33966637486E+03  0.17300000000E+03 0.  1.
<mgrwt>
<rscale>  2 0.19169415E+03</rscale>
<asrwt>0</asrwt>
<pdfrwt beam="1">  1       21 0.79397716E-01 0.19169415E+03</pdfrwt>
<pdfrwt beam="2">  1       21 0.11417797E-01 0.19169415E+03</pdfrwt>
<totfact> 0.89762107E+04</totfact>
</mgrwt>
</event>
<event>
 4    1  0.4173994E+000  0.1845859E+03  0.7546771E-02  0.1163437E+00
         21   -1    0    0  501  502  0.00000000000E+00  0.00000000000E+00  0.25863402323E+04  0.25863402323E+04  0.00000000000E+00 0. -1.
         21   -1    0    0  502  503 -0.00000000000E+00 -0.00000000000E+00 -0.40179561598E+02  0.40179561598E+02  0.00000000000E+00 0. -1.
          6    1    1    2  501    0 -0.69491260810E+01 -0.63989697783E+02  0.23497343573E+04  0.23569733816E+04  0.17300000000E+03 0. -1.
         -6    1    1    2    0  503  0.69491260810E+01  0.63989697783E+02  0.19642631339E+03  0.26954641227E+03  0.17300000000E+03 0. -1.
<mgrwt>
<rscale>  2 0.18458595E+03</rscale>
<asrwt>0</asrwt>
<pdfrwt beam="1">  1       21 0.39789837E+00 0.18458595E+03</pdfrwt>
<pdfrwt beam="2">  1       21 0.61814731E-02 0.18458595E+03</pdfrwt>
<totfact> 0.17031418E+03</totfact>
</mgrwt>
</event>
<event>
 4    1  0.4173994E+000  0.2134441E+03  0.7546771E-02  0.1138867E+00
         21   -1    0    0  501  502  0.00000000000E+00  0.00000000000E+00  0.10930762056E+03  0.10930762056E+03  0.00000000000E+00 0.  1.
         21   -1    0    0  502  503 -0.00000000000E+00 -0.00000000000E+00 -0.66003208714E+03  0.66003208714E+03  0.00000000000E+00 0. -1.
          6    1    1    2  501    0  0.11023394216E+03 -0.58973264255E+02 -0.41841942254E+02  0.21750658848E+03  0.17300000000E+03 0.  1.
         -6    1    1    2    0  503 -0.11023394216E+03  0.58973264255E+02 -0.50888252433E+03  0.55183311922E+03  0.17300000000E+03 0. -1.
<mgrwt>
<rscale>  2 0.21344406E+03</rscale>
<asrwt>0</asrwt>
<pdfrwt beam="1">  1       21 0.16816557E-01 0.21344406E+03</pdfrwt>
<pdfrwt beam="2">  1       21 0.10154340E+00 0.21344406E+03</pdfrwt>
<totfact> 0.24886742E+04</totfact>
</mgrwt>
</event>
<event>
 4    1  0.4173994E+000  0.1929537E+03  0.7546771E-02  0.1155824E+00
         21   -1    0    0  501  502  0.00000000000E+00  0.00000000000E+00  0.99622951906E+02  0.99622951906E+02  0.00000000000E+00 0. -1.
         21   -1    0    0  502  503 -0.00000000000E+00 -0.00000000000E+00 -0.41409537424E+03  0.41409537424E+03  0.00000000000E+00 0. -1.
          6    1    1    2  501    0 -0.93832769337E+01 -0.84935791246E+02 -0.77031343209E+02  0.20776179234E+03  0.17300000000E+03 0. -1.
         -6    1    1    2    0  503  0.93832769337E+01  0.84935791246E+02 -0.23744107912E+03  0.30595653380E+03  0.17300000000E+03 0. -1.
<mgrwt>
<rscale>  2 0.19295371E+03</rscale>
<asrwt>0</asrwt>
<pdfrwt beam="1">  1       21 0.15326608E-01 0.19295371E+03</pdfrwt>
<pdfrwt beam="2">  1       21 0.63706981E-01 0.19295371E+03</pdfrwt>
<totfact> 0.85870130E+04</totfact>
</mgrwt>
</event>
<event>
 4    1  0.4173994E+000  0.3102682E+03  0.7546771E-02  0.1080217E+00
         21   -1    0    0  503  502  0.00000000000E+00  0.00000000000E+00  0.13525604950E+03  0.13525604950E+03  0.00000000000E+00 0.  1.
         21   -1    0    0  501  503 -0.00000000000E+00 -0.00000000000E+00 -0.11894793219E+04  0.11894793219E+04  0.00000000000E+00 0. -1.
          6    1    1    2  501    0  0.22531283678E+03 -0.12478583202E+03 -0.94688873809E+03  0.99642594337E+03  0.17300000000E+03 0. -1.
         -6    1    1    2    0  502 -0.22531283678E+03  0.12478583202E+03 -0.10733453432E+03  0.32830942805E+03  0.17300000000E+03 0.  1.
<mgrwt>
<rscale>  2 0.31026824E+03</rscale>
<asrwt>0</asrwt>
<pdfrwt beam="1">  1       21 0.20808622E-01 0.31026824E+03</pdfrwt>
<pdfrwt beam="2">  1       21 0.18299682E+00 0.31026824E+03</pdfrwt>
<totfact> 0.34100649E+03</totfact>
</mgrwt>
</event>
<event>
 4    1  0.4173994E+000  0.2267780E+03  0.7546771E-02  0.1128928E+00
         21   -1    0    0  503  502  0.00000000000E+00  0.00000000000E+00  0.28851266560E+03  0.28851266560E+03  0.00000000000E+00 0.  1.
         21   -1    0    0  501  503 -0.00000000000E+00 -0.00000000000E+00 -0.26015424067E+03  0.26015424067E+03  0.00000000000E+00 0. -1.
          6    1    1    2  501    0  0.14247695097E+03  0.34634740330E+02  0.16810400200E+03  0.28228921745E+03  0.17300000000E+03 0.  1.
         -6    1    1    2    0  502 -0.14247695097E+03 -0.34634740330E+02 -0.13974557707E+03  0.26637768883E+03  0.17300000000E+03 0. -1.
<mgrwt>
<rscale>  2 0.22677797E+03</rscale>
<asrwt>0</asrwt>
<pdfrwt beam="1">  1       21 0.44386564E-01 0.22677797E+03</pdfrwt>
<pdfrwt beam="2">  1       21 0.40023729E-01 0.22677797E+03</pdfrwt>
<totfact> 0.28797003E+04</totfact>
</mgrwt>
</event>
<event>
 4    1  0.4173994E+000  0.1907713E+03  0.7546771E-02  0.1157768E+00
         21   -1    0    0  503  502  0.00000000000E+00  0.00000000000E+00  0.17991103172E+03  0.17991103172E+03  0.00000000000E+00 0. -1.
         21   -1    0    0  501  503 -0.00000000000E+00 -0.00000000000E+00 -0.24951655033E+03  0.24951655033E+03  0.00000000000E+00 0. -1.
          6    1    1    2  501    0  0.68550431723E+02 -0.42018199456E+02 -0.12821772389E+03  0.22985533602E+03  0.17300000000E+03 0. -1.
         -6    1    1    2    0  502 -0.68550431723E+02  0.42018199456E+02  0.58612205284E+02  0.19957224602E+03  0.17300000000E+03 0. -1.
<mgrwt>
<rscale>  2 0.19077130E+03</rscale>
<asrwt>0</asrwt>
<pdfrwt beam="1">  1       21 0.27678620E-01 0.19077130E+03</pdfrwt>
<pdfrwt beam="2">  1       21 0.38387162E-01 0.19077130E+03</pdfrwt>
<totfact> 0.81593756E+04</totfact>
</mgrwt>
</event>
<event>
 4    1  0.4173994E+000  0.1800800E+03  0.7546771E-02  0.1167726E+00
         21   -1    0    0  501  502  0.00000000000E+00  0.00000000000E+00  0.74983436530E+03  0.74983436530E+03  0.00000000000E+00 0. -1.
         21   -1    0    0  502  503 -0.00000000000E+00 -0.00000000000E+00 -0.68062455164E+02  0.68062455164E+02  0.00000000000E+00 0. -1.
          6    1    1    2  501    0  0.28459141800E+02  0.41108228356E+02  0.58781229038E+03  0.61477808835E+03  0.17300000000E+03 0. -1.
         -6    1    1    2    0  503 -0.28459141800E+02 -0.41108228356E+02  0.93959619751E+02  0.20311873211E+03  0.17300000000E+03 0. -1.
<mgrwt>
<rscale>  2 0.18008001E+03</rscale>
<asrwt>0</asrwt>
<pdfrwt beam="1">  1       21 0.11535913E+00 0.18008001E+03</pdfrwt>
<pdfrwt beam="2">  1       21 0.10471147E-01 0.18008001E+03</pdfrwt>
<totfact> 0.43810297E+04</totfact>
</mgrwt>
</event>
<event>
 4    1  0.4173994E+000  0.1789682E+03  0.7546771E-02  0.1168805E+00
         21   -1    0    0  501  502  0.00000000000E+00  0.00000000000E+00  0.73523576441E+02  0.73523576441E+02  0.00000000000E+00 0.  1.
         21   -1    0    0  502  503 -0.00000000000E+00 -0.00000000000E+00 -0.19151039202E+04  0.19151039202E+04  0.00000000000E+00 0.  1.
          6    1    1    2  501    0  0.36259466144E+02  0.28033323864E+02 -0.46853728930E+02  0.18499969742E+03  0.17300000000E+03 0.  1.
         -6    1    1    2    0  503 -0.36259466144E+02 -0.28033323864E+02 -0.17947266148E+04  0.18036277992E+04  0.17300000000E+03 0.  1.
<mgrwt>
<rscale>  2 0.17896820E+03</rscale>
<asrwt>0</asrwt>
<pdfrwt beam="1">  1       21 0.11311321E-01 0.17896820E+03</pdfrwt>
<pdfrwt beam="2">  1       21 0.29463133E+00 0.17896820E+03</pdfrwt>
<totfact> 0.24323866E+03</totfact>
</mgrwt>
</event>
<event>
 4    1  0.4173994E+000  0.1781829E+03  0.7546771E-02  0.1169573E+00
         21   -1    0    0  501  502  0.00000000000E+00  0.00000000000E+00  0.90767725761E+02  0.90767725761E+02  0.00000000000E+00 0.  1.
         21   -1    0    0  502  503 -0.00000000000E+00 -0.00000000000E+00 -0.37178857760E+03  0.37178857760E+03  0.00000000000E+00 0.  1.
          6    1    1    2  501    0 -0.33121814563E+01  0.42534599095E+02 -0.84245714679E+02  0.19709516257E+03  0.17300000000E+03 0.  1.
         -6    1    1    2    0  503  0.33121814563E+01 -0.42534599095E+02 -0.19677513716E+03  0.26546114079E+03  0.17300000000E+03 0.  1.
<mgrwt>
<rscale>  2 0.17818295E+03</rscale>
<asrwt>0</asrwt>
<pdfrwt beam="1">  1       21 0.13964265E-01 0.17818295E+03</pdfrwt>
<pdfrwt beam="2">  1       21 0.57198243E-01 0.17818295E+03</pdfrwt>
<totfact> 0.12886561E+05</totfact>
</mgrwt>
</event>
<event>
 4    1  0.4173994E+000  0.2239334E+03  0.7546771E-02  0.1130984E+00
         21   -1    0    0  501  502  0.00000000000E+00  0.00000000000E+00  0.65470728745E+02  0.65470728745E+02  0.00000000000E+00 0. -1.
         21   -1    0    0  502  503 -0.00000000000E+00 -0.00000000000E+00 -0.77784157393E+03  0.77784157393E+03  0.00000000000E+00 0. -1.
          6    1    1    2  501    0 -0.11850610082E+03 -0.78571554903E+02 -0.40835827200E+03  0.46572810038E+03  0.17300000000E+03 0. -1.
         -6    1    1    2    0  503  0.11850610082E+03  0.78571554903E+02 -0.30401257319E+03  0.37758420230E+03  0.17300000000E+03 0. -1.
<mgrwt>
<rscale>  2 0.22393344E+03</rscale>
<asrwt>0</asrwt>
<pdfrwt beam="1">  1       21 0.10072419E-01 0.22393344E+03</pdfrwt>
<pdfrwt beam="2">  1       21 0.11966794E+00 0.22393344E+03</pdfrwt>
<totfact> 0.41899390E+04</totfact>
</mgrwt>
</event>
<event>
 4    1  0.4173994E+000  0.2217775E+03  0.7546771E-02  0.1132565E+00
         21   -1    0    0  501  502  0.00000000000E+00  0.00000000000E+00  0.26392777708E+03  0.26392777708E+03  0.00000000000E+00 0.  1.
         21   -1    0    0  502  503 -0.00000000000E+00 -0.00000000000E+00 -0.33258858837E+03  0.33258858837E+03  0.00000000000E+00 0.  1.
          6    1    1    2  501    0 -0.52923755716E+02 -0.12827843101E+03 -0.23209863781E+03  0.32102189560E+03  0.17300000000E+03 0.  1.
         -6    1    1    2    0  503  0.52923755716E+02  0.12827843101E+03  0.16343782652E+03  0.27549446985E+03  0.17300000000E+03 0.  1.
<mgrwt>
<rscale>  2 0.22177755E+03</rscale>
<asrwt>0</asrwt>
<pdfrwt beam="1">  1       21 0.40604274E-01 0.22177755E+03</pdfrwt>
<pdfrwt beam="2">  1       21 0.51167475E-01 0.22177755E+03</pdfrwt>
<totfact> 0.20866040E+04</totfact>
</mgrwt>
</event>
<event>
 4    1  0.4173994E+000  0.2604258E+03  0.7546771E-02  0.1106888E+00
         21   -1    0    0  501  502  0.00000000000E+00  0.00000000000E+00  0.58162005840E+02  0.58162005840E+02  0.00000000000E+00 0. -1.
         21   -1    0    0  502  503 -0.00000000000E+00 -0.00000000000E+00 -0.25246521984E+04  0.25246521984E+04  0.00000000000E+00 0. -1.
          6    1    1    2  501    0  0.17987634794E+03 -0.74411734735E+02 -0.28591005444E+03  0.38673785184E+03  0.17300000000E+03 0. -1.
         -6    1    1    2    0  503 -0.17987634794E+03  0.74411734735E+02 -0.21805801381E+04  0.21960763524E+04  0.17300000000E+03 0. -1.
<mgrwt>
<rscale>  2 0.26042582E+03</rscale>
<asrwt>0</asrwt>
<pdfrwt beam="1">  1       21 0.89480034E-02 0.26042582E+03</pdfrwt>
<pdfrwt beam="2">  1       21 0.38840792E+00 0.26042582E+03</pdfrwt>
<totfact> 0.92764504E+02</totfact>
</mgrwt>
</event>
<event>
 4    1  0.4173994E+000  0.2095226E+03  0.7546771E-02  0.1141945E+00
         21   -1    0    0  501  502  0.00000000000E+00  0.00000000000E+00  0.58651014374E+03  0.58651014374E+03  0.00000000000E+00 0.  1.
         21   -1    0    0  502  503 -0.00000000000E+00 -0.00000000000E+00 -0.88164202830E+02  0.88164202830E+02  0.00000000000E+00 0.  1.
          6    1    1    2  501    0  0.11806147938E+03  0.56763669135E+01  0.38026942383E+03  0.43417112842E+03  0.17300000000E+03 0.  1.
         -6    1    1    2    0  503 -0.11806147938E+03 -0.56763669135E+01  0.11807651708E+03  0.24050321815E+03  0.17300000000E+03 0.  1.
<mgrwt>
<rscale>  2 0.20952263E+03</rscale>
<asrwt>0</asrwt>
<pdfrwt beam="1">  1       21 0.90232327E-01 0.20952263E+03</pdfrwt>
<pdfrwt beam="2">  1       21 0.13563724E-01 0.20952263E+03</pdfrwt>
<totfact> 0.48755289E+04</totfact>
</mgrwt>
</event>
<event>
 4    1  0.4173994E+000  0.2242627E+03  0.7546771E-02  0.1130744E+00
         21   -1    0    0  503  502  0.00000000000E+00  0.00000000000E+00  0.13970830362E+04  0.13970830362E+04  0.00000000000E+00 0.  1.
         21   -1    0    0  501  503 -0.00000000000E+00 -0.00000000000E+00 -0.38532159968E+02  0.38532159968E+02  0.00000000000E+00 0. -1.
          6    1    1    2  501    0  0.13339976420E+03 -0.50687829308E+02  0.49523307179E+03  0.54364468959E+03  0.17300000000E+03 0.  1.
         -6    1    1    2    0  502 -0.13339976420E+03  0.50687829308E+02  0.86331780444E+03  0.89197050657E+03  0.17300000000E+03 0. -1.
<mgrwt>
<rscale>  2 0.22426269E+03</rscale>
<asrwt>0</asrwt>
<pdfrwt beam="1">  1       21 0.21493581E+00 0.22426269E+03</pdfrwt>
<pdfrwt beam="2">  1       21 0.59280257E-02 0.22426269E+03</pdfrwt>
<totfact> 0.21250475E+04</totfact>
</mgrwt>
</event>
<event>
 4    1  0.4173994E+000  0.1806498E+03  0.7546771E-02  0.1167176E+00
         21   -1    0    0  503  502  0.00000000000E+00  0.00000000000E+00  0.12729239480E+03  0.12729239480E+03  0.00000000000E+00 0. -1.
         21   -1    0    0  501  503 -0.00000000000E+00 -0.00000000000E+00 -0.26242331611E+03  0.26242331611E+03  0.00000000000E+00 0. -1.
          6    1    1    2  501    0  0.48450828804E+02  0.18917646239E+02 -0.37978651944E+02  0.18459885740E+03  0.17300000000E+03 0. -1.
         -6    1    1    2    0  502 -0.48450828804E+02 -0.18917646239E+02 -0.97152269366E+02  0.20511685351E+03  0.17300000000E+03 0. -1.
<mgrwt>
<rscale>  2 0.18064983E+03</rscale>
<asrwt>0</asrwt>
<pdfrwt beam="1">  1       21 0.19583446E-01 0.18064983E+03</pdfrwt>
<pdfrwt beam="2">  1       21 0.40372817E-01 0.18064983E+03</pdfrwt>
<totfact> 0.14248497E+05</totfact>
</mgrwt>
</event>
<event>
 4    1  0.4173994E+000  0.2016333E+03  0.7546771E-02  0.1148368E+00
         21   -1    0    0  503  502  0.00000000000E+00  0.00000000000E+00  0.35668179760E+03  0.35668179760E+03  0.00000000000E+00 0. -1.
         21   -1    0    0  501  503 -0.00000000000E+00 -0.00000000000E+00 -0.11801770646E+03  0.11801770646E+03  0.00000000000E+00 0. -1.
          6    1    1    2  501    0 -0.10349327324E+03  0.40162327717E+01  0.75451510588E+02  0.21528798894E+03  0.17300000000E+03 0. -1.
         -6    1    1    2    0  502  0.10349327324E+03 -0.40162327717E+01  0.16321258054E+03  0.25941151512E+03  0.17300000000E+03 0. -1.
<mgrwt>
<rscale>  2 0.20163330E+03</rscale>
<asrwt>0</asrwt>
<pdfrwt beam="1">  1       21 0.54874123E-01 0.20163330E+03</pdfrwt>
<pdfrwt beam="2">  1       21 0.18156570E-01 0.20163330E+03</pdfrwt>
<totfact> 0.86270567E+04</totfact>
</mgrwt>
</event>
<event>
 4    1  0.4173994E+000  0.4677192E+03  0.7546771E-02  0.1022566E+00
         21   -1    0    0  503  502  0.00000000000E+00  0.00000000000E+00  0.59237939930E+03  0.59237939930E+03  0.00000000000E+00 0. -1.
         21   -1    0    0  501  503 -0.00000000000E+00 -0.00000000000E+00 -0.40113111844E+03  0.40113111844E+03  0.00000000000E+00 0. -1.
          6    1    1    2  501    0  0.20302797325E+03 -0.38420297825E+03 -0.44326924165E+02  0.46981503023E+03  0.17300000000E+03 0. -1.
         -6    1    1    2    0  502 -0.20302797325E+03  0.38420297825E+03  0.23557520503E+03  0.52369548752E+03  0.17300000000E+03 0. -1.
<mgrwt>
<rscale>  2 0.46771924E+03</rscale>
<asrwt>0</asrwt>
<pdfrwt beam="1">  1       21 0.91135292E-01 0.46771924E+03</pdfrwt>
<pdfrwt beam="2">  1       21 0.61712480E-01 0.46771924E+03</pdfrwt>
<totfact> 0.21373892E+03</totfact>
</mgrwt>
</event>
<event>
 4    1  0.4173994E+000  0.2391748E+03  0.7546771E-02  0.1120344E+00
         21   -1    0    0  501  502  0.00000000000E+00  0.00000000000E+00  0.15647579604E+03  0.15647579604E+03  0.00000000000E+00 0. -1.
         21   -1    0    0  502  503 -0.00000000000E+00 -0.00000000000E+00 -0.12248260085E+04  0.12248260085E+04  0.00000000000E+00 0. -1.
          6    1    1    2  501    0  0.15843421473E+03  0.46627956284E+02  0.44293654850E+02  0.24324163822E+03  0.17300000000E+03 0. -1.
         -6    1    1    2    0  503 -0.15843421473E+03 -0.46627956284E+02 -0.11126438673E+04  0.11380601663E+04  0.17300000000E+03 0. -1.
<mgrwt>
<rscale>  2 0.23917476E+03</rscale>
<asrwt>0</asrwt>
<pdfrwt beam="1">  1       21 0.24073200E-01 0.23917476E+03</pdfrwt>
<pdfrwt beam="2">  1       21 0.18843477E+00 0.23917476E+03</pdfrwt>
<totfact> 0.24924211E+03</totfact>
</mgrwt>
</event>
<event>
 4    1  0.4173994E+000  0.2719172E+03  0.7546771E-02  0.1100187E+00
         21   -1    0    0  503  502  0.00000000000E+00  0.00000000000E+00  0.83248342700E+03  0.83248342700E+03  0.00000000000E+00 0. -1.
         21   -1    0    0  501  503 -0.00000000000E+00 -0.00000000000E+00 -0.90609642276E+02  0.90609642276E+02  0.00000000000E+00 0. -1.
          6    1    1    2  501    0 -0.20426572386E+03  0.47806595114E+02  0.30602340403E+03  0.40937669731E+03  0.17300000000E+03 0. -1.
         -6    1    1    2    0  502  0.20426572386E+03 -0.47806595114E+02  0.43585038070E+03  0.51371637197E+03  0.17300000000E+03 0. -1.
<mgrwt>
<rscale>  2 0.27191719E+03</rscale>
<asrwt>0</asrwt>
<pdfrwt beam="1">  1       21 0.12807437E+00 0.27191719E+03</pdfrwt>
<pdfrwt beam="2">  1       21 0.13939945E-01 0.27191719E+03</pdfrwt>
<totfact> 0.19231528E+04</totfact>
</mgrwt>
</event>
<event>
 4    1  0.4173994E+000  0.2227756E+03  0.7546771E-02  0.1131830E+00
         21   -1    0    0  501  502  0.00000000000E+00  0.00000000000E+00  0.21896246748E+03  0.21896246748E+03  0.00000000000E+00 0.  1.
         21   -1    0    0  502  503 -0.00000000000E+00 -0.00000000000E+00 -0.23323264868E+03  0.23323264868E+03  0.00000000000E+00 0. -1.
          6    1    1    2  501    0  0.87457032884E+02  0.10977820194E+03 -0.45104100822E+02  0.22729576796E+03  0.17300000000E+03 0. -1.
         -6    1    1    2    0  503 -0.87457032884E+02 -0.10977820194E+03  0.30833919617E+02  0.22489934820E+03  0.17300000000E+03 0. -1.
<mgrwt>
<rscale>  2 0.22277564E+03</rscale>
<asrwt>0</asrwt>
<pdfrwt beam="1">  1       21 0.33686533E-01 0.22277564E+03</pdfrwt>
<pdfrwt beam="2">  1       21 0.35881946E-01 0.22277564E+03</pdfrwt>
<totfact> 0.62731794E+04</totfact>
</mgrwt>
</event>
<event>
 4    1  0.4173994E+000  0.1927297E+03  0.7546771E-02  0.1156022E+00
         21   -1    0    0  501  502  0.00000000000E+00  0.00000000000E+00  0.18027309621E+03  0.18027309621E+03  0.00000000000E+00 0.  1.
         21   -1    0    0  502  503 -0.00000000000E+00 -0.00000000000E+00 -0.23125048987E+03  0.23125048987E+03  0.00000000000E+00 0.  1.
          6    1    1    2  501    0  0.84573914673E+02 -0.79372801606E+01  0.42439946701E+02  0.19734714727E+03  0.17300000000E+03 0.  1.
         -6    1    1    2    0  503 -0.84573914673E+02  0.79372801606E+01 -0.93417340360E+02  0.21417643881E+03  0.17300000000E+03 0.  1.
<mgrwt>
<rscale>  2 0.19272973E+03</rscale>
<asrwt>0</asrwt>
<pdfrwt beam="1">  1       21 0.27734323E-01 0.19272973E+03</pdfrwt>
<pdfrwt beam="2">  1       21 0.35576998E-01 0.19272973E+03</pdfrwt>
<totfact> 0.94541708E+04</totfact>
</mgrwt>
</event>
<event>
 4    1  0.4173994E+000  0.2374657E+03  0.7546771E-02  0.1121493E+00
         21   -1    0    0  501  502  0.00000000000E+00  0.00000000000E+00  0.11462108321E+03  0.11462108321E+03  0.00000000000E+00 0.  1.
         21   -1    0    0  502  503 -0.00000000000E+00 -0.00000000000E+00 -0.67800359950E+03  0.67800359950E+03  0.00000000000E+00 0.  1.
          6    1    1    2  501    0  0.16257928481E+03  0.53805000414E+01 -0.74095283687E+02  0.24875707969E+03  0.17300000000E+03 0.  1.
         -6    1    1    2    0  503 -0.16257928481E+03 -0.53805000414E+01 -0.48928723260E+03  0.54386760302E+03  0.17300000000E+03 0.  1.
<mgrwt>
<rscale>  2 0.23746573E+03</rscale>
<asrwt>0</asrwt>
<pdfrwt beam="1">  1       21 0.17634013E-01 0.23746573E+03</pdfrwt>
<pdfrwt beam="2">  1       21 0.10430824E+00 0.23746573E+03</pdfrwt>
<totfact> 0.21093412E+04</totfact>
</mgrwt>
</event>
<event>
 4    1  0.4173994E+000  0.2046633E+03  0.7546771E-02  0.1145863E+00
         21   -1    0    0  501  502  0.00000000000E+00  0.00000000000E+00  0.11579325638E+03  0.11579325638E+03  0.00000000000E+00 0.  1.
         21   -1    0    0  502  503 -0.00000000000E+00 -0.00000000000E+00 -0.22433342088E+04  0.22433342088E+04  0.00000000000E+00 0.  1.
          6    1    1    2  501    0  0.10695325936E+03  0.22782726472E+02  0.16512185150E+02  0.20532828488E+03  0.17300000000E+03 0.  1.
         -6    1    1    2    0  503 -0.10695325936E+03 -0.22782726472E+02 -0.21440531376E+04  0.21537991803E+04  0.17300000000E+03 0.  1.
<mgrwt>
<rscale>  2 0.20466327E+03</rscale>
<asrwt>0</asrwt>
<pdfrwt beam="1">  1       21 0.17814348E-01 0.20466327E+03</pdfrwt>
<pdfrwt beam="2">  1       21 0.34512832E+00 0.20466327E+03</pdfrwt>
<totfact> 0.52519398E+02</totfact>
</mgrwt>
</event>
<event>
 4    1  0.4173994E+000  0.1937900E+03  0.7546771E-02  0.1155087E+00
         21   -1    0    0  501  502  0.00000000000E+00  0.00000000000E+00  0.70350953780E+03  0.70350953780E+03  0.00000000000E+00 0. -1.
         21   -1    0    0  502  503 -0.00000000000E+00 -0.00000000000E+00 -0.70101153793E+02  0.70101153793E+02  0.00000000000E+00 0. -1.
          6    1    1    2  501    0 -0.38124806374E+02  0.78562499628E+02  0.50560783543E+03  0.54147377633E+03  0.17300000000E+03 0. -1.
         -6    1    1    2    0  503  0.38124806374E+02 -0.78562499628E+02  0.12780054858E+03  0.23213691526E+03  0.17300000000E+03 0. -1.
<mgrwt>
<rscale>  2 0.19379001E+03</rscale>
<asrwt>0</asrwt>
<pdfrwt beam="1">  1       21 0.10823223E+00 0.19379001E+03</pdfrwt>
<pdfrwt beam="2">  1       21 0.10784793E-01 0.19379001E+03</pdfrwt>
<totfact> 0.48183817E+04</totfact>
</mgrwt>
</event>
<event>
 4    1  0.4173994E+000  0.1817899E+03  0.7546771E-02  0.1166082E+00
         21   -1    0    0  503  502  0.00000000000E+00  0.00000000000E+00  0.74728689945E+02  0.74728689945E+02  0.00000000000E+00 0. -1.
         21   -1    0    0  501  503 -0.00000000000E+00 -0.00000000000E+00 -0.46886961527E+03  0.46886961527E+03  0.00000000000E+00 0. -1.
          6    1    1    2  501    0  0.47981625412E+02  0.28571722659E+02 -0.26185212447E+03  0.31876968927E+03  0.17300000000E+03 0. -1.
         -6    1    1    2    0  502 -0.47981625412E+02 -0.28571722659E+02 -0.13228880086E+03  0.22482861594E+03  0.17300000000E+03 0. -1.
<mgrwt>
<rscale>  2 0.18178993E+03</rscale>
<asrwt>0</asrwt>
<pdfrwt beam="1">  1       21 0.11496721E-01 0.18178993E+03</pdfrwt>
<pdfrwt beam="2">  1       21 0.72133788E-01 0.18178993E+03</pdfrwt>
<totfact> 0.11029071E+05</totfact>
</mgrwt>
</event>
<event>
 4    1  0.4173994E+000  0.2363128E+03  0.7546771E-02  0.1122274E+00
         21   -1    0    0  503  502  0.00000000000E+00  0.00000000000E+00  0.37771192323E+03  0.37771192323E+03  0.00000000000E+00 0.  1.
         21   -1    0    0  501  503 -0.00000000000E+00 -0.00000000000E+00 -0.22759283278E+03  0.22759283278E+03  0.00000000000E+00 0.  1.
          6    1    1    2  501    0 -0.14523679322E+03  0.69433654468E+02 -0.10409072764E+03  0.25822207121E+03  0.17300000000E+03 0.  1.
         -6    1    1    2    0  502  0.14523679322E+03 -0.69433654468E+02  0.25420981809E+03  0.34708268480E+03  0.17300000000E+03 0.  1.
<mgrwt>
<rscale>  2 0.23631284E+03</rscale>
<asrwt>0</asrwt>
<pdfrwt beam="1">  1       21 0.58109527E-01 0.23631284E+03</pdfrwt>
<pdfrwt beam="2">  1       21 0.35014282E-01 0.23631284E+03</pdfrwt>
<totfact> 0.21297354E+04</totfact>
</mgrwt>
</event>
<event>
 4    1  0.4173994E+000  0.1822629E+03  0.7546771E-02  0.1165631E+00
         21   -1    0    0  501  502  0.00000000000E+00  0.00000000000E+00  0.43263081305E+03  0.43263081305E+03  0.00000000000E+00 0.  1.
         21   -1    0    0  502  503 -0.00000000000E+00 -0.00000000000E+00 -0.82160415579E+02  0.82160415579E+02  0.00000000000E+00 0. -1.
          6    1    1    2  501    0 -0.52965909718E+02  0.22031319197E+02  0.10940028415E+03  0.21257513681E+03  0.17300000000E+03 0. -1.
         -6    1    1    2    0  503  0.52965909718E+02 -0.22031319197E+02  0.24107011331E+03  0.30221609181E+03  0.17300000000E+03 0.  1.
<mgrwt>
<rscale>  2 0.18226291E+03</rscale>
<asrwt>0</asrwt>
<pdfrwt beam="1">  1       21 0.66558585E-01 0.18226291E+03</pdfrwt>
<pdfrwt beam="2">  1       21 0.12640064E-01 0.18226291E+03</pdfrwt>
<totfact> 0.11108130E+05</totfact>
</mgrwt>
</event>
<event>
 4    1  0.4173994E+000  0.1807026E+03  0.7546771E-02  0.1167125E+00
         21   -1    0    0  503  502  0.00000000000E+00  0.00000000000E+00  0.29790668133E+02  0.29790668133E+02  0.00000000000E+00 0.  1.
         21   -1    0    0  501  503 -0.00000000000E+00 -0.00000000000E+00 -0.13558647118E+04  0.13558647118E+04  0.00000000000E+00 0.  1.
          6    1    1    2  501    0 -0.29391380187E+02  0.43134494602E+02 -0.96629366183E+03  0.98304469825E+03  0.17300000000E+03 0.  1.
         -6    1    1    2    0  502  0.29391380187E+02 -0.43134494602E+02 -0.35978038183E+03  0.40261068168E+03  0.17300000000E+03 0.  1.
<mgrwt>
<rscale>  2 0.18070262E+03</rscale>
<asrwt>0</asrwt>
<pdfrwt beam="1">  1       21 0.45831784E-02 0.18070262E+03</pdfrwt>
<pdfrwt beam="2">  1       21 0.20859463E+00 0.18070262E+03</pdfrwt>
<totfact> 0.37223552E+04</totfact>
</mgrwt>
</event>
<event>
 4    1  0.4173994E+000  0.2664908E+03  0.7546771E-02  0.1103305E+00
         21   -1    0    0  501  502  0.00000000000E+00  0.00000000000E+00  0.53872138203E+03  0.53872138203E+03  0.00000000000E+00 0. -1.
         21   -1    0    0  502  503 -0.00000000000E+00 -0.00000000000E+00 -0.16873875255E+03  0.16873875255E+03  0.00000000000E+00 0. -1.
          6    1    1    2  501    0 -0.44366398315E+01  0.20265410308E+03  0.35043646385E+03  0.44025343209E+03  0.17300000000E+03 0. -1.
         -6    1    1    2    0  503  0.44366398315E+01 -0.20265410308E+03  0.19546165623E+02  0.26720670249E+03  0.17300000000E+03 0. -1.
<mgrwt>
<rscale>  2 0.26649084E+03</rscale>
<asrwt>0</asrwt>
<pdfrwt beam="1">  1       21 0.82880212E-01 0.26649084E+03</pdfrwt>
<pdfrwt beam="2">  1       21 0.25959808E-01 0.26649084E+03</pdfrwt>
<totfact> 0.17176670E+04</totfact>
</mgrwt>
</event>
<event>
 4    1  0.4173994E+000  0.2565649E+03  0.7546771E-02  0.1109225E+00
         21   -1    0    0  501  502  0.00000000000E+00  0.00000000000E+00  0.16167164937E+03  0.16167164937E+03  0.00000000000E+00 0. -1.
         21   -1    0    0  502  503 -0.00000000000E+00 -0.00000000000E+00 -0.43096394173E+03  0.43096394173E+03  0.00000000000E+00 0.  1.
          6    1    1    2  501    0 -0.10547861660E+03 -0.15738737049E+03 -0.20429300401E+03  0.32796517260E+03  0.17300000000E+03 0.  1.
         -6    1    1    2    0  503  0.10547861660E+03  0.15738737049E+03 -0.64999288347E+02  0.26467041851E+03  0.17300000000E+03 0.  1.
<mgrwt>
<rscale>  2 0.25656485E+03</rscale>
<asrwt>0</asrwt>
<pdfrwt beam="1">  1       21 0.24872561E-01 0.25656485E+03</pdfrwt>
<pdfrwt beam="2">  1       21 0.66302145E-01 0.25656485E+03</pdfrwt>
<totfact> 0.30933161E+04</totfact>
</mgrwt>
</event>
<event>
 4    1  0.4173994E+000  0.1832391E+03  0.7546771E-02  0.1164705E+00
         21   -1    0    0  501  502  0.00000000000E+00  0.00000000000E+00  0.40162876597E+03  0.40162876597E+03  0.00000000000E+00 0.  1.
         21   -1    0    0  502  503 -0.00000000000E+00 -0.00000000000E+00 -0.10907137211E+03  0.10907137211E+03  0.00000000000E+00 0.  1.
          6    1    1    2  501    0 -0.14328209962E+02 -0.58670716994E+02  0.26967398390E+03  0.32603774049E+03  0.17300000000E+03 0.  1.
         -6    1    1    2    0  503  0.14328209962E+02  0.58670716994E+02  0.22883409963E+02  0.18466239759E+03  0.17300000000E+03 0.  1.
<mgrwt>
<rscale>  2 0.18323905E+03</rscale>
<asrwt>0</asrwt>
<pdfrwt beam="1">  1       21 0.61789040E-01 0.18323905E+03</pdfrwt>
<pdfrwt beam="2">  1       21 0.16780211E-01 0.18323905E+03</pdfrwt>
<totfact> 0.78024885E+04</totfact>
</mgrwt>
</event>
<event>
 4    1  0.4173994E+000  0.1923634E+03  0.7546771E-02  0.1156347E+00
         21   -1    0    0  503  502  0.00000000000E+00  0.00000000000E+00  0.22555150527E+03  0.22555150527E+03  0.00000000000E+00 0.  1.
         21   -1    0    0  501  503 -0.00000000000E+00 -0.00000000000E+00 -0.30903207382E+03  0.30903207382E+03  0.00000000000E+00 0.  1.
          6    1    1    2  501    0  0.41315746161E+02  0.73264455045E+02 -0.22481487262E+03  0.29588071618E+03  0.17300000000E+03 0.  1.
         -6    1    1    2    0  502 -0.41315746161E+02 -0.73264455045E+02  0.14133430407E+03  0.23870286291E+03  0.17300000000E+03 0.  1.
<mgrwt>
<rscale>  2 0.19236338E+03</rscale>
<asrwt>0</asrwt>
<pdfrwt beam="1">  1       21 0.34700232E-01 0.19236338E+03</pdfrwt>
<pdfrwt beam="2">  1       21 0.47543396E-01 0.19236338E+03</pdfrwt>
<totfact> 0.33874296E+04</totfact>
</mgrwt>
</event>
<event>
 4    1  0.4173994E+000  0.1888981E+03  0.7546771E-02  0.1159459E+00
         21   -1    0    0  503  502  0.00000000000E+00  0.00000000000E+00  0.15380297982E+03  0.15380297982E+03  0.00000000000E+00 0. -1.
         21   -1    0    0  501  503 -0.00000000000E+00 -0.00000000000E+00 -0.34827965808E+03  0.34827965808E+03  0.00000000000E+00 0. -1.
          6    1    1    2  501    0  0.56483644932E+02 -0.50626902768E+02 -0.24229265979E+03  0.30722665642E+03  0.17300000000E+03 0. -1.
         -6    1    1    2    0  502 -0.56483644932E+02  0.50626902768E+02  0.47815981524E+02  0.19485598148E+03  0.17300000000E+03 0. -1.
<mgrwt>
<rscale>  2 0.18889808E+03</rscale>
<asrwt>0</asrwt>
<pdfrwt beam="1">  1       21 0.23661997E-01 0.18889808E+03</pdfrwt>
<pdfrwt beam="2">  1       21 0.53581485E-01 0.18889808E+03</pdfrwt>
<totfact> 0.55532440E+04</totfact>
</mgrwt>
</event>
<event>
 4    1  0.4173994E+000  0.4248254E+03  0.7546771E-02  0.1035507E+00
         21   -1    0    0  503  502  0.00000000000E+00  0.00000000000E+00  0.46562578779E+03  0.46562578779E+03  0.00000000000E+00 0. -1.
         21   -1    0    0  501  503 -0.00000000000E+00 -0.00000000000E+00 -0.59299913894E+03  0.59299913894E+03  0.00000000000E+00 0.  1.
          6    1    1    2  501    0 -0.33919178220E+03  0.18840534322E+03 -0.37520543839E+03  0.56679428319E+03  0.17300000000E+03 0.  1.
         -6    1    1    2    0  502  0.33919178220E+03 -0.18840534322E+03  0.24783208723E+03  0.49183064354E+03  0.17300000000E+03 0. -1.
<mgrwt>
<rscale>  2 0.42482542E+03</rscale>
<asrwt>0</asrwt>
<pdfrwt beam="1">  1       21 0.71634737E-01 0.42482542E+03</pdfrwt>
<pdfrwt beam="2">  1       21 0.91230636E-01 0.42482542E+03</pdfrwt>
<totfact> 0.15542037E+03</totfact>
</mgrwt>
</event>
<event>
 4    1  0.4173994E+000  0.2955908E+03  0.7546771E-02  0.1087466E+00
         21   -1    0    0  501  502  0.00000000000E+00  0.00000000000E+00  0.17016226340E+03  0.17016226340E+03  0.00000000000E+00 0. -1.
         21   -1    0    0  502  503 -0.00000000000E+00 -0.00000000000E+00 -0.54933588269E+03  0.54933588269E+03  0.00000000000E+00 0.  1.
          6    1    1    2  501    0 -0.13173565880E+03 -0.20022646453E+03 -0.97669685300E+02  0.31130899172E+03  0.17300000000E+03 0. -1.
         -6    1    1    2    0  503  0.13173565880E+03  0.20022646453E+03 -0.28150393398E+03  0.40818915437E+03  0.17300000000E+03 0.  1.
<mgrwt>
<rscale>  2 0.29559080E+03</rscale>
<asrwt>0</asrwt>
<pdfrwt beam="1">  1       21 0.26178809E-01 0.29559080E+03</pdfrwt>
<pdfrwt beam="2">  1       21 0.84513215E-01 0.29559080E+03</pdfrwt>
<totfact> 0.15947262E+04</totfact>
</mgrwt>
</event>
<event>
 4    1  0.4173994E+000  0.1736196E+03  0.7546771E-02  0.1174125E+00
         21   -1    0    0  503  502  0.00000000000E+00  0.00000000000E+00  0.15644893270E+04  0.15644893270E+04  0.00000000000E+00 0.  1.
         21   -1    0    0  501  503 -0.00000000000E+00 -0.00000000000E+00 -0.48264730526E+02  0.48264730526E+02  0.00000000000E+00 0.  1.
          6    1    1    2  501    0 -0.81762890728E+01  0.12162600976E+02  0.13308131060E+03  0.21875652172E+03  0.17300000000E+03 0.  1.
         -6    1    1    2    0  502  0.81762890728E+01 -0.12162600976E+02  0.13831432859E+04  0.13939975358E+04  0.17300000000E+03 0.  1.
<mgrwt>
<rscale>  2 0.17361964E+03</rscale>
<asrwt>0</asrwt>
<pdfrwt beam="1">  1       21 0.24069063E+00 0.17361964E+03</pdfrwt>
<pdfrwt beam="2">  1       21 0.74253443E-02 0.17361964E+03</pdfrwt>
<totfact> 0.10499463E+04</totfact>
</mgrwt>
</event>
<event>
 4    1  0.4173994E+000  0.1753397E+03  0.7546771E-02  0.1172391E+00
         21   -1    0    0  501  502  0.00000000000E+00  0.00000000000E+00  0.17399464811E+03  0.17399464811E+03  0.00000000000E+00 0.  1.
         21   -1    0    0  502  503 -0.00000000000E+00 -0.00000000000E+00 -0.34722386269E+03  0.34722386269E+03  0.00000000000E+00 0.  1.
          6    1    1    2  501    0 -0.45246307332E+01 -0.28187414622E+02  0.96020333181E+02  0.19990974716E+03  0.17300000000E+03 0.  1.
         -6    1    1    2    0  503  0.45246307332E+01  0.28187414622E+02 -0.26924954776E+03  0.32130876364E+03  0.17300000000E+03 0.  1.
<mgrwt>
<rscale>  2 0.17533968E+03</rscale>
<asrwt>0</asrwt>
<pdfrwt beam="1">  1       21 0.26768408E-01 0.17533968E+03</pdfrwt>
<pdfrwt beam="2">  1       21 0.53419055E-01 0.17533968E+03</pdfrwt>
<totfact> 0.44456104E+04</totfact>
</mgrwt>
</event>
<event>
 4    1  0.4173994E+000  0.1769477E+03  0.7546771E-02  0.1170790E+00
         21   -1    0    0  501  502  0.00000000000E+00  0.00000000000E+00  0.10722651203E+03  0.10722651203E+03  0.00000000000E+00 0.  1.
         21   -1    0    0  502  503 -0.00000000000E+00 -0.00000000000E+00 -0.31636141498E+03  0.31636141498E+03  0.00000000000E+00 0.  1.
          6    1    1    2  501    0  0.11393965107E+02 -0.35379080903E+02 -0.45799151852E+02  0.18277872994E+03  0.17300000000E+03 0.  1.
         -6    1    1    2    0  503 -0.11393965107E+02  0.35379080903E+02 -0.16333575110E+03  0.24080919707E+03  0.17300000000E+03 0.  1.
<mgrwt>
<rscale>  2 0.17694774E+03</rscale>
<asrwt>0</asrwt>
<pdfrwt beam="1">  1       21 0.16496386E-01 0.17694774E+03</pdfrwt>
<pdfrwt beam="2">  1       21 0.48670987E-01 0.17694774E+03</pdfrwt>
<totfact> 0.13358706E+05</totfact>
</mgrwt>
</event>
<event>
 4    1  0.4173994E+000  0.1778239E+03  0.7546771E-02  0.1169926E+00
         21   -1    0    0  501  502  0.00000000000E+00  0.00000000000E+00  0.20031227071E+04  0.20031227071E+04  0.00000000000E+00 0.  1.
         21   -1    0    0  502  503 -0.00000000000E+00 -0.00000000000E+00 -0.28301130634E+02  0.28301130634E+02  0.00000000000E+00 0.  1.
          6    1    1    2  501    0 -0.33004724226E+02 -0.24556637426E+02  0.16628495151E+04  0.16723306641E+04  0.17300000000E+03 0. -1.
         -6    1    1    2    0  503  0.33004724226E+02  0.24556637426E+02  0.31197206131E+03  0.35909317357E+03  0.17300000000E+03 0. -1.
<mgrwt>
<rscale>  2 0.17782390E+03</rscale>
<asrwt>0</asrwt>
<pdfrwt beam="1">  1       21 0.30817261E+00 0.17782390E+03</pdfrwt>
<pdfrwt beam="2">  1       21 0.43540217E-02 0.17782390E+03</pdfrwt>
<totfact> 0.10584677E+04</totfact>
</mgrwt>
</event>
<event>
 4    1  0.4173994E+000  0.1959369E+03  0.7546771E-02  0.1153213E+00
         21   -1    0    0  503  502  0.00000000000E+00  0.00000000000E+00  0.16585933677E+03  0.16585933677E+03  0.00000000000E+00 0.  1.
         21   -1    0    0  501  503 -0.00000000000E+00 -0.00000000000E+00 -0.33446729811E+03  0.33446729811E+03  0.00000000000E+00 0.  1.
          6    1    1    2  501    0 -0.84080417234E+02  0.37319558251E+02 -0.22312722425E+03  0.29694616379E+03  0.17300000000E+03 0.  1.
         -6    1    1    2    0  502  0.84080417234E+02 -0.37319558251E+02  0.54519262908E+02  0.20338047108E+03  0.17300000000E+03 0.  1.
<mgrwt>
<rscale>  2 0.19593689E+03</rscale>
<asrwt>0</asrwt>
<pdfrwt beam="1">  1       21 0.25516821E-01 0.19593689E+03</pdfrwt>
<pdfrwt beam="2">  1       21 0.51456508E-01 0.19593689E+03</pdfrwt>
<totfact> 0.52188541E+04</totfact>
</mgrwt>
</event>
<event>
 4    1  0.4173994E+000  0.2097663E+03  0.7546771E-02  0.1141751E+00
         21   -1    0    0  503  502  0.00000000000E+00  0.00000000000E+00  0.89872518897E+02  0.89872518897E+02  0.00000000000E+00 0.  1.
         21   -1    0    0  501  503 -0.00000000000E+00 -0.00000000000E+00 -0.64800710442E+03  0.64800710442E+03  0.00000000000E+00 0. -1.
          6    1    1    2  501    0 -0.82047807584E+02 -0.85679866199E+02 -0.46147720584E+03  0.50691527272E+03  0.17300000000E+03 0. -1.
         -6    1    1    2    0  502  0.82047807584E+02  0.85679866199E+02 -0.96657379680E+02  0.23096435060E+03  0.17300000000E+03 0.  1.
<mgrwt>
<rscale>  2 0.20976626E+03</rscale>
<asrwt>0</asrwt>
<pdfrwt beam="1">  1       21 0.13826541E-01 0.20976626E+03</pdfrwt>
<pdfrwt beam="2">  1       21 0.99693403E-01 0.20976626E+03</pdfrwt>
<totfact> 0.37262085E+04</totfact>
</mgrwt>
</event>
<event>
 4    1  0.4173994E+000  0.2580773E+03  0.7546771E-02  0.1108304E+00
         21   -1    0    0  501  502  0.00000000000E+00  0.00000000000E+00  0.10714510394E+04  0.10714510394E+04  0.00000000000E+00 0.  1.
         21   -1    0    0  502  503 -0.00000000000E+00 -0.00000000000E+00 -0.95514317011E+02  0.95514317011E+02  0.00000000000E+00 0. -1.
          6    1    1    2  501    0  0.34199007709E+02 -0.18842850668E+03  0.83275839285E+03  0.87183164379E+03  0.17300000000E+03 0.  1.
         -6    1    1    2    0  503 -0.34199007709E+02  0.18842850668E+03  0.14317832949E+03  0.29513371257E+03  0.17300000000E+03 0. -1.
<mgrwt>
<rscale>  2 0.25807726E+03</rscale>
<asrwt>0</asrwt>
<pdfrwt beam="1">  1       21 0.16483861E+00 0.25807726E+03</pdfrwt>
<pdfrwt beam="2">  1       21 0.14694511E-01 0.25807726E+03</pdfrwt>
<totfact> 0.90313298E+03</totfact>
</mgrwt>
</event>
<event>
 4    1  0.4173994E+000  0.1786256E+03  0.7546771E-02  0.1169140E+00
         21   -1    0    0  501  502  0.00000000000E+00  0.00000000000E+00  0.72278671309E+03  0.72278671309E+03  0.00000000000E+00 0.  1.
         21   -1    0    0  502  503 -0.00000000000E+00 -0.00000000000E+00 -0.46205706275E+02  0.46205706275E+02  0.00000000000E+00 0.  1.
          6    1    1    2  501    0  0.39766898804E+02 -0.19917194001E+02  0.25708251632E+03  0.31304715468E+03  0.17300000000E+03 0.  1.
         -6    1    1    2    0  503 -0.39766898804E+02  0.19917194001E+02  0.41949849049E+03  0.45594526468E+03  0.17300000000E+03 0.  1.
<mgrwt>
<rscale>  2 0.17862559E+03</rscale>
<asrwt>0</asrwt>
<pdfrwt beam="1">  1       21 0.11119795E+00 0.17862559E+03</pdfrwt>
<pdfrwt beam="2">  1       21 0.71085707E-02 0.17862559E+03</pdfrwt>
<totfact> 0.94277512E+04</totfact>
</mgrwt>
</event>
<event>
 4    1  0.4173994E+000  0.1824168E+03  0.7546771E-02  0.1165484E+00
         21   -1    0    0  501  502  0.00000000000E+00  0.00000000000E+00  0.29570240698E+03  0.29570240698E+03  0.00000000000E+00 0.  1.
         21   -1    0    0  502  503 -0.00000000000E+00 -0.00000000000E+00 -0.30372858629E+03  0.30372858629E+03  0.00000000000E+00 0.  1.
          6    1    1    2  501    0  0.56315901114E+02  0.13244097450E+02  0.23378414585E+03  0.29653147166E+03  0.17300000000E+03 0.  1.
         -6    1    1    2    0  503 -0.56315901114E+02 -0.13244097450E+02 -0.24181032516E+03  0.30289952161E+03  0.17300000000E+03 0.  1.
<mgrwt>
<rscale>  2 0.18241679E+03</rscale>
<asrwt>0</asrwt>
<pdfrwt beam="1">  1       21 0.45492678E-01 0.18241679E+03</pdfrwt>
<pdfrwt beam="2">  1       21 0.46727474E-01 0.18241679E+03</pdfrwt>
<totfact> 0.20442237E+04</totfact>
</mgrwt>
</event>
<event>
 4    1  0.4173994E+000  0.2789206E+03  0.7546771E-02  0.1096280E+00
         21   -1    0    0  501  502  0.00000000000E+00  0.00000000000E+00  0.17587151996E+03  0.17587151996E+03  0.00000000000E+00 0.  1.
         21   -1    0    0  502  503 -0.00000000000E+00 -0.00000000000E+00 -0.55055455156E+03  0.55055455156E+03  0.00000000000E+00 0. -1.
          6    1    1    2  501    0 -0.15960514033E+03  0.14964592266E+03 -0.26319691824E+02  0.28015964942E+03  0.17300000000E+03 0.  1.
         -6    1    1    2    0  503  0.15960514033E+03 -0.14964592266E+03 -0.34836333978E+03  0.44626642210E+03  0.17300000000E+03 0. -1.
<mgrwt>
<rscale>  2 0.27892060E+03</rscale>
<asrwt>0</asrwt>
<pdfrwt beam="1">  1       21 0.27057157E-01 0.27892060E+03</pdfrwt>
<pdfrwt beam="2">  1       21 0.84700700E-01 0.27892060E+03</pdfrwt>
<totfact> 0.14991941E+04</totfact>
</mgrwt>
</event>
<event>
 4    1  0.4173994E+000  0.3235248E+03  0.7546771E-02  0.1074038E+00
         21   -1    0    0  501  502  0.00000000000E+00  0.00000000000E+00  0.33327389662E+03  0.33327389662E+03  0.00000000000E+00 0. -1.
         21   -1    0    0  502  503 -0.00000000000E+00 -0.00000000000E+00 -0.15888793477E+04  0.15888793477E+04  0.00000000000E+00 0. -1.
          6    1    1    2  501    0  0.22788785203E+03 -0.15101792629E+03  0.23306560133E+03  0.39873281993E+03  0.17300000000E+03 0. -1.
         -6    1    1    2    0  503 -0.22788785203E+03  0.15101792629E+03 -0.14886710524E+04  0.15234204244E+04  0.17300000000E+03 0. -1.
<mgrwt>
<rscale>  2 0.32352479E+03</rscale>
<asrwt>0</asrwt>
<pdfrwt beam="1">  1       21 0.51272908E-01 0.32352479E+03</pdfrwt>
<pdfrwt beam="2">  1       21 0.24444297E+00 0.32352479E+03</pdfrwt>
<totfact> 0.22545064E+02</totfact>
</mgrwt>
</event>
<event>
 4    1  0.4173994E+000  0.1962583E+03  0.7546771E-02  0.1152935E+00
         21   -1    0    0  503  502  0.00000000000E+00  0.00000000000E+00  0.24235408925E+03  0.24235408925E+03  0.00000000000E+00 0. -1.
         21   -1    0    0  501  503 -0.00000000000E+00 -0.00000000000E+00 -0.15937002454E+03  0.15937002454E+03  0.00000000000E+00 0.  1.
          6    1    1    2  501    0 -0.87280364478E+02 -0.31152089274E+02  0.52047444890E+02  0.20304248622E+03  0.17300000000E+03 0.  1.
         -6    1    1    2    0  502  0.87280364478E+02  0.31152089274E+02  0.30936619824E+02  0.19868162757E+03  0.17300000000E+03 0. -1.
<mgrwt>
<rscale>  2 0.19625829E+03</rscale>
<asrwt>0</asrwt>
<pdfrwt beam="1">  1       21 0.37285244E-01 0.19625829E+03</pdfrwt>
<pdfrwt beam="2">  1       21 0.24518466E-01 0.19625829E+03</pdfrwt>
<totfact> 0.10890143E+05</totfact>
</mgrwt>
</event>
<event>
 4    1  0.4173994E+000  0.1768125E+03  0.7546771E-02  0.1170924E+00
         21   -1    0    0  503  502  0.00000000000E+00  0.00000000000E+00  0.15997619936E+03  0.15997619936E+03  0.00000000000E+00 0. -1.
         21   -1    0    0  501  503 -0.00000000000E+00 -0.00000000000E+00 -0.26739173041E+03  0.26739173041E+03  0.00000000000E+00 0. -1.
          6    1    1    2  501    0 -0.15954123112E+02 -0.32849821771E+02 -0.16456833625E+03  0.24154788786E+03  0.17300000000E+03 0. -1.
         -6    1    1    2    0  502  0.15954123112E+02  0.32849821771E+02  0.57152805193E+02  0.18582004191E+03  0.17300000000E+03 0. -1.
<mgrwt>
<rscale>  2 0.17681246E+03</rscale>
<asrwt>0</asrwt>
<pdfrwt beam="1">  1       21 0.24611723E-01 0.17681246E+03</pdfrwt>
<pdfrwt beam="2">  1       21 0.41137189E-01 0.17681246E+03</pdfrwt>
<totfact> 0.89371693E+04</totfact>
</mgrwt>
</event>
<event>
 4    1  0.4173994E+000  0.1740804E+03  0.7546771E-02  0.1173658E+00
         21   -1    0    0  501  502  0.00000000000E+00  0.00000000000E+00  0.16956752734E+03  0.16956752734E+03  0.00000000000E+00 0. -1.
         21   -1    0    0  502  503 -0.00000000000E+00 -0.00000000000E+00 -0.19655771592E+03  0.19655771592E+03  0.00000000000E+00 0. -1.
          6    1    1    2  501    0  0.16953124800E+02  0.93583769448E+01  0.41662421944E+02  0.17899649455E+03  0.17300000000E+03 0. -1.
         -6    1    1    2    0  503 -0.16953124800E+02 -0.93583769448E+01 -0.68652610526E+02  0.18712874870E+03  0.17300000000E+03 0. -1.
<mgrwt>
<rscale>  2 0.17408041E+03</rscale>
<asrwt>0</asrwt>
<pdfrwt beam="1">  1       21 0.26087312E-01 0.17408041E+03</pdfrwt>
<pdfrwt beam="2">  1       21 0.30239648E-01 0.17408041E+03</pdfrwt>
<totfact> 0.14738120E+05</totfact>
</mgrwt>
</event>
<event>
 4    1  0.4173994E+000  0.1822490E+03  0.7546771E-02  0.1165644E+00
         21   -1    0    0  501  502  0.00000000000E+00  0.00000000000E+00  0.10548652606E+04  0.10548652606E+04  0.00000000000E+00 0.  1.
         21   -1    0    0  502  503 -0.00000000000E+00 -0.00000000000E+00 -0.52974914707E+02  0.52974914707E+02  0.00000000000E+00 0. -1.
          6    1    1    2  501    0 -0.80650209528E+01  0.56750736256E+02  0.85372821278E+03  0.87296423290E+03  0.17300000000E+03 0.  1.
         -6    1    1    2    0  503  0.80650209528E+01 -0.56750736256E+02  0.14816213309E+03  0.23487594238E+03  0.17300000000E+03 0. -1.
<mgrwt>
<rscale>  2 0.18224898E+03</rscale>
<asrwt>0</asrwt>
<pdfrwt beam="1">  1       21 0.16228695E+00 0.18224898E+03</pdfrwt>
<pdfrwt beam="2">  1       21 0.81499876E-02 0.18224898E+03</pdfrwt>
<totfact> 0.28333048E+04</totfact>
</mgrwt>
</event>
<event>
 4    1  0.4173994E+000  0.2785574E+03  0.7546771E-02  0.1096479E+00
         21   -1    0    0  503  502  0.00000000000E+00  0.00000000000E+00  0.41081833518E+02  0.41081833518E+02  0.00000000000E+00 0.  1.
         21   -1    0    0  501  503 -0.00000000000E+00 -0.00000000000E+00 -0.19396245544E+04  0.19396245544E+04  0.00000000000E+00 0. -1.
          6    1    1    2  501    0  0.16483524606E+03  0.14315921697E+03 -0.11096281513E+04  0.11440580641E+04  0.17300000000E+03 0. -1.
         -6    1    1    2    0  502 -0.16483524606E+03 -0.14315921697E+03 -0.78891456960E+03  0.83664832390E+03  0.17300000000E+03 0.  1.
<mgrwt>
<rscale>  2 0.27855739E+03</rscale>
<asrwt>0</asrwt>
<pdfrwt beam="1">  1       21 0.63202814E-02 0.27855739E+03</pdfrwt>
<pdfrwt beam="2">  1       21 0.29840381E+00 0.27855739E+03</pdfrwt>
<totfact> 0.57972308E+03</totfact>
</mgrwt>
</event>
<event>
 4    1  0.4173994E+000  0.1901630E+03  0.7546771E-02  0.1158314E+00
         21   -1    0    0  501  502  0.00000000000E+00  0.00000000000E+00  0.53154244063E+03  0.53154244063E+03  0.00000000000E+00 0. -1.
         21   -1    0    0  502  503 -0.00000000000E+00 -0.00000000000E+00 -0.68090136607E+02  0.68090136607E+02  0.00000000000E+00 0. -1.
          6    1    1    2  501    0 -0.36595968447E+02  0.69954936007E+02  0.22297435521E+03  0.29305207909E+03  0.17300000000E+03 0. -1.
         -6    1    1    2    0  503  0.36595968447E+02 -0.69954936007E+02  0.24047794881E+03  0.30658049814E+03  0.17300000000E+03 0. -1.
<mgrwt>
<rscale>  2 0.19016298E+03</rscale>
<asrwt>0</asrwt>
<pdfrwt beam="1">  1       21 0.81775757E-01 0.19016298E+03</pdfrwt>
<pdfrwt beam="2">  1       21 0.10475406E-01 0.19016298E+03</pdfrwt>
<totfact> 0.97910980E+04</totfact>
</mgrwt>
</event>
<event>
 4    1  0.4173994E+000  0.2109339E+03  0.7546771E-02  0.1140829E+00
         21   -1    0    0  503  502  0.00000000000E+00  0.00000000000E+00  0.12401184358E+03  0.12401184358E+03  0.00000000000E+00 0.  1.
         21   -1    0    0  501  503 -0.00000000000E+00 -0.00000000000E+00 -0.71807732330E+03  0.71807732330E+03  0.00000000000E+00 0. -1.
          6    1    1    2  501    0 -0.14430277073E+02 -0.11981602272E+03 -0.59486296714E+03  0.63115375454E+03  0.17300000000E+03 0. -1.
         -6    1    1    2    0  502  0.14430277073E+02  0.11981602272E+03  0.79748741728E+00  0.21093541235E+03  0.17300000000E+03 0.  1.
<mgrwt>
<rscale>  2 0.21093390E+03</rscale>
<asrwt>0</asrwt>
<pdfrwt beam="1">  1       21 0.19078745E-01 0.21093390E+03</pdfrwt>
<pdfrwt beam="2">  1       21 0.11047344E+00 0.21093390E+03</pdfrwt>
<totfact> 0.16098888E+04</totfact>
</mgrwt>
</event>
<event>
 4    1  0.4173994E+000  0.1799117E+03  0.7546771E-02  0.1167889E+00
         21   -1    0    0  503  502  0.00000000000E+00  0.00000000000E+00  0.15830401494E+03  0.15830401494E+03  0.00000000000E+00 0.  1.
         21   -1    0    0  501  503 -0.00000000000E+00 -0.00000000000E+00 -0.29816522774E+03  0.29816522774E+03  0.00000000000E+00 0.  1.
          6    1    1    2  501    0 -0.14186109550E+02  0.47307299300E+02 -0.19787304582E+03  0.26743591482E+03  0.17300000000E+03 0.  1.
         -6    1    1    2    0  502  0.14186109550E+02 -0.47307299300E+02  0.58011833027E+02  0.18903332786E+03  0.17300000000E+03 0.  1.
<mgrwt>
<rscale>  2 0.17991172E+03</rscale>
<asrwt>0</asrwt>
<pdfrwt beam="1">  1       21 0.24354464E-01 0.17991172E+03</pdfrwt>
<pdfrwt beam="2">  1       21 0.45871573E-01 0.17991172E+03</pdfrwt>
<totfact> 0.72916594E+04</totfact>
</mgrwt>
</event>
<event>
 4    1  0.4173994E+000  0.2430878E+03  0.7546771E-02  0.1117753E+00
         21   -1    0    0  501  502  0.00000000000E+00  0.00000000000E+00  0.96258895302E+03  0.96258895302E+03  0.00000000000E+00 0.  1.
         21   -1    0    0  502  503 -0.00000000000E+00 -0.00000000000E+00 -0.98822905859E+02  0.98822905859E+02  0.00000000000E+00 0.  1.
          6    1    1    2  501    0  0.13744143608E+03  0.10135343686E+03  0.75851744873E+03  0.79651766305E+03  0.17300000000E+03 0.  1.
         -6    1    1    2    0  503 -0.13744143608E+03 -0.10135343686E+03  0.10524859843E+03  0.26489419583E+03  0.17300000000E+03 0.  1.
<mgrwt>
<rscale>  2 0.24308778E+03</rscale>
<asrwt>0</asrwt>
<pdfrwt beam="1">  1       21 0.14809060E+00 0.24308778E+03</pdfrwt>
<pdfrwt beam="2">  1       21 0.15203525E-01 0.24308778E+03</pdfrwt>
<totfact> 0.11435053E+04</totfact>
</mgrwt>
</event>
<event>
 4    1  0.4173994E+000  0.1899293E+03  0.7546771E-02  0.1158525E+00
         21   -1    0    0  501  502  0.00000000000E+00  0.00000000000E+00  0.15042475929E+03  0.15042475929E+03  0.00000000000E+00 0.  1.
         21   -1    0    0  502  503 -0.00000000000E+00 -0.00000000000E+00 -0.59607770434E+03  0.59607770434E+03  0.00000000000E+00 0.  1.
          6    1    1    2  501    0  0.23113021997E+02 -0.74899447601E+02  0.65735394957E+02  0.20098328584E+03  0.17300000000E+03 0.  1.
         -6    1    1    2    0  503 -0.23113021997E+02  0.74899447601E+02 -0.51138834001E+03  0.54551917778E+03  0.17300000000E+03 0.  1.
<mgrwt>
<rscale>  2 0.18992930E+03</rscale>
<asrwt>0</asrwt>
<pdfrwt beam="1">  1       21 0.23142271E-01 0.18992930E+03</pdfrwt>
<pdfrwt beam="2">  1       21 0.91704260E-01 0.18992930E+03</pdfrwt>
<totfact> 0.17675567E+04</totfact>
</mgrwt>
</event>
<event>
 4    1  0.4173994E+000  0.2739745E+03  0.7546771E-02  0.1099026E+00
         21   -1    0    0  501  502  0.00000000000E+00  0.00000000000E+00  0.63229674446E+02  0.63229674446E+02  0.00000000000E+00 0.  1.
         21   -1    0    0  502  503 -0.00000000000E+00 -0.00000000000E+00 -0.11925196090E+04  0.11925196090E+04  0.00000000000E+00 0. -1.
          6    1    1    2  501    0  0.20639423611E+03  0.50343387365E+02 -0.52244664307E+03  0.58992587009E+03  0.17300000000E+03 0. -1.
         -6    1    1    2    0  503 -0.20639423611E+03 -0.50343387365E+02 -0.60684329150E+03  0.66582341337E+03  0.17300000000E+03 0. -1.
<mgrwt>
<rscale>  2 0.27397452E+03</rscale>
<asrwt>0</asrwt>
<pdfrwt beam="1">  1       21 0.97276425E-02 0.27397452E+03</pdfrwt>
<pdfrwt beam="2">  1       21 0.18346455E+00 0.27397452E+03</pdfrwt>
<totfact> 0.13918063E+04</totfact>
</mgrwt>
</event>
<event>
 4    1  0.4173994E+000  0.1956356E+03  0.7546771E-02  0.1153474E+00
         21   -1    0    0  501  502  0.00000000000E+00  0.00000000000E+00  0.77172637433E+02  0.77172637433E+02  0.00000000000E+00 0.  1.
         21   -1    0    0  502  503 -0.00000000000E+00 -0.00000000000E+00 -0.49598339659E+03  0.49598339659E+03  0.00000000000E+00 0.  1.
          6    1    1    2  501    0  0.32984623608E+01  0.91287397419E+02 -0.21197527780E+03  0.28845586696E+03  0.17300000000E+03 0. -1.
         -6    1    1    2    0  503 -0.32984623608E+01 -0.91287397419E+02 -0.20683548136E+03  0.28470016707E+03  0.17300000000E+03 0. -1.
<mgrwt>
<rscale>  2 0.19563555E+03</rscale>
<asrwt>0</asrwt>
<pdfrwt beam="1">  1       21 0.11872714E-01 0.19563555E+03</pdfrwt>
<pdfrwt beam="2">  1       21 0.76305136E-01 0.19563555E+03</pdfrwt>
<totfact> 0.91384052E+04</totfact>
</mgrwt>
</event>
<event>
 4    1  0.4173994E+000  0.1916078E+03  0.7546771E-02  0.1157019E+00
         21   -1    0    0  503  502  0.00000000000E+00  0.00000000000E+00  0.36465037156E+02  0.36465037156E+02  0.00000000000E+00 0. -1.
         21   -1    0    0  501  503 -0.00000000000E+00 -0.00000000000E+00 -0.11622752383E+04  0.11622752383E+04  0.00000000000E+00 0.  1.
          6    1    1    2  501    0 -0.74464502046E+02  0.35207679411E+02 -0.34370012268E+03  0.39350135589E+03  0.17300000000E+03 0. -1.
         -6    1    1    2    0  502  0.74464502046E+02 -0.35207679411E+02 -0.78211007848E+03  0.80523891958E+03  0.17300000000E+03 0.  1.
<mgrwt>
<rscale>  2 0.19160778E+03</rscale>
<asrwt>0</asrwt>
<pdfrwt beam="1">  1       21 0.56100058E-02 0.19160778E+03</pdfrwt>
<pdfrwt beam="2">  1       21 0.17881157E+00 0.19160778E+03</pdfrwt>
<totfact> 0.41030250E+04</totfact>
</mgrwt>
</event>
<event>
 4    1  0.4173994E+000  0.1792150E+03  0.7546771E-02  0.1168565E+00
         21   -1    0    0  503  502  0.00000000000E+00  0.00000000000E+00  0.14550208776E+03  0.14550208776E+03  0.00000000000E+00 0.  1.
         21   -1    0    0  501  503 -0.00000000000E+00 -0.00000000000E+00 -0.40292065574E+03  0.40292065574E+03  0.00000000000E+00 0.  1.
          6    1    1    2  501    0  0.10649525044E+01  0.46774918539E+02 -0.31309517041E+03  0.36075838571E+03  0.17300000000E+03 0.  1.
         -6    1    1    2    0  502 -0.10649525044E+01 -0.46774918539E+02  0.55676602429E+02  0.18766435779E+03  0.17300000000E+03 0.  1.
<mgrwt>
<rscale>  2 0.17921503E+03</rscale>
<asrwt>0</asrwt>
<pdfrwt beam="1">  1       21 0.22384936E-01 0.17921503E+03</pdfrwt>
<pdfrwt beam="2">  1       21 0.61987794E-01 0.17921503E+03</pdfrwt>
<totfact> 0.45424725E+04</totfact>
</mgrwt>
</event>
<event>
 4    1  0.4173994E+000  0.2020508E+03  0.7546771E-02  0.1148020E+00
         21   -1    0    0  503  502  0.00000000000E+00  0.00000000000E+00  0.78614610102E+02  0.78614610102E+02  0.00000000000E+00 0.  1.
         21   -1    0    0  501  503 -0.00000000000E+00 -0.00000000000E+00 -0.76937155020E+03  0.76937155020E+03  0.00000000000E+00 0.  1.
          6    1    1    2  501    0 -0.10271798604E+03  0.18561918456E+02 -0.10365252592E+03  0.22708671384E+03  0.17300000000E+03 0.  1.
         -6    1    1    2    0  502  0.10271798604E+03 -0.18561918456E+02 -0.58710441417E+03  0.62089944646E+03  0.17300000000E+03 0.  1.
<mgrwt>
<rscale>  2 0.20205081E+03</rscale>
<asrwt>0</asrwt>
<pdfrwt beam="1">  1       21 0.12094555E-01 0.20205081E+03</pdfrwt>
<pdfrwt beam="2">  1       21 0.11836486E+00 0.20205081E+03</pdfrwt>
<totfact> 0.31440741E+04</totfact>
</mgrwt>
</event>
<event>
 4    1  0.4173994E+000  0.2138378E+03  0.7546771E-02  0.1138562E+00
         21   -1    0    0  503  502  0.00000000000E+00  0.00000000000E+00  0.57702351948E+02  0.57702351948E+02  0.00000000000E+00 0. -1.
         21   -1    0    0  501  503 -0.00000000000E+00 -0.00000000000E+00 -0.82678332630E+03  0.82678332630E+03  0.00000000000E+00 0. -1.
          6    1    1    2  501    0 -0.95329089628E+02 -0.81914394171E+02 -0.47465232408E+03  0.52059718790E+03  0.17300000000E+03 0. -1.
         -6    1    1    2    0  502  0.95329089628E+02  0.81914394171E+02 -0.29442865028E+03  0.36388849034E+03  0.17300000000E+03 0. -1.
<mgrwt>
<rscale>  2 0.21383780E+03</rscale>
<asrwt>0</asrwt>
<pdfrwt beam="1">  1       21 0.88772852E-02 0.21383780E+03</pdfrwt>
<pdfrwt beam="2">  1       21 0.12719743E+00 0.21383780E+03</pdfrwt>
<totfact> 0.45170726E+04</totfact>
</mgrwt>
</event>
<event>
 4    1  0.4173994E+000  0.3290967E+03  0.7546771E-02  0.1071537E+00
         21   -1    0    0  501  502  0.00000000000E+00  0.00000000000E+00  0.25122763681E+04  0.25122763681E+04  0.00000000000E+00 0.  1.
         21   -1    0    0  502  503 -0.00000000000E+00 -0.00000000000E+00 -0.83777373155E+02  0.83777373155E+02  0.00000000000E+00 0. -1.
          6    1    1    2  501    0  0.13236515748E+03 -0.24668833477E+03  0.21186117958E+04  0.21440197319E+04  0.17300000000E+03 0.  1.
         -6    1    1    2    0  503 -0.13236515748E+03  0.24668833477E+03  0.30988719914E+03  0.45203400936E+03  0.17300000000E+03 0. -1.
<mgrwt>
<rscale>  2 0.32909675E+03</rscale>
<asrwt>0</asrwt>
<pdfrwt beam="1">  1       21 0.38650400E+00 0.32909675E+03</pdfrwt>
<pdfrwt beam="2">  1       21 0.12888829E-01 0.32909675E+03</pdfrwt>
<totfact> 0.46267193E+02</totfact>
</mgrwt>
</event>
<event>
 4    1  0.4173994E+000  0.2034216E+03  0.7546771E-02  0.1146884E+00
         21   -1    0    0  501  502  0.00000000000E+00  0.00000000000E+00  0.28546320693E+02  0.28546320693E+02  0.00000000000E+00 0.  1.
         21   -1    0    0  502  503 -0.00000000000E+00 -0.00000000000E+00 -0.14512603896E+04  0.14512603896E+04  0.00000000000E+00 0.  1.
          6    1    1    2  501    0  0.10596717424E+03 -0.14909360184E+02 -0.68622067876E+03  0.71573678891E+03  0.17300000000E+03 0.  1.
         -6    1    1    2    0  503 -0.10596717424E+03  0.14909360184E+02 -0.73649339019E+03  0.76406992143E+03  0.17300000000E+03 0.  1.
<mgrwt>
<rscale>  2 0.20342156E+03</rscale>
<asrwt>0</asrwt>
<pdfrwt beam="1">  1       21 0.43917411E-02 0.20342156E+03</pdfrwt>
<pdfrwt beam="2">  1       21 0.22327086E+00 0.20342156E+03</pdfrwt>
<totfact> 0.31915534E+04</totfact>
</mgrwt>
</event>
<event>
 4    1  0.4173994E+000  0.3048417E+03  0.7546771E-02  0.1082845E+00
         21   -1    0    0  503  502  0.00000000000E+00  0.00000000000E+00  0.41392834774E+03  0.41392834774E+03  0.00000000000E+00 0. -1.
         21   -1    0    0  501  503 -0.00000000000E+00 -0.00000000000E+00 -0.22458072638E+03  0.22458072638E+03  0.00000000000E+00 0.  1.
          6    1    1    2  501    0  0.73771129165E+02 -0.23991092838E+03  0.10058746622E+03  0.32100821082E+03  0.17300000000E+03 0.  1.
         -6    1    1    2    0  502 -0.73771129165E+02  0.23991092838E+03  0.88760155131E+02  0.31750086329E+03  0.17300000000E+03 0. -1.
<mgrwt>
<rscale>  2 0.30484165E+03</rscale>
<asrwt>0</asrwt>
<pdfrwt beam="1">  1       21 0.63681284E-01 0.30484165E+03</pdfrwt>
<pdfrwt beam="2">  1       21 0.34550881E-01 0.30484165E+03</pdfrwt>
<totfact> 0.17386831E+04</totfact>
</mgrwt>
</event>
<event>
 4    1  0.4173994E+000  0.1758774E+03  0.7546771E-02  0.1171854E+00
         21   -1    0    0  501  502  0.00000000000E+00  0.00000000000E+00  0.30588236535E+03  0.30588236535E+03  0.00000000000E+00 0.  1.
         21   -1    0    0  502  503 -0.00000000000E+00 -0.00000000000E+00 -0.10718186226E+03  0.10718186226E+03  0.00000000000E+00 0.  1.
          6    1    1    2  501    0 -0.28113850486E+02 -0.14610086212E+02  0.14844030062E+03  0.23014640136E+03  0.17300000000E+03 0. -1.
         -6    1    1    2    0  503  0.28113850486E+02  0.14610086212E+02  0.50260202476E+02  0.18291782625E+03  0.17300000000E+03 0. -1.
<mgrwt>
<rscale>  2 0.17587735E+03</rscale>
<asrwt>0</asrwt>
<pdfrwt beam="1">  1       21 0.47058825E-01 0.17587735E+03</pdfrwt>
<pdfrwt beam="2">  1       21 0.16489517E-01 0.17587735E+03</pdfrwt>
<totfact> 0.14338263E+05</totfact>
</mgrwt>
</event>
<event>
 4    1  0.4173994E+000  0.1879357E+03  0.7546771E-02  0.1160337E+00
         21   -1    0    0  501  502  0.00000000000E+00  0.00000000000E+00  0.24384575683E+03  0.24384575683E+03  0.00000000000E+00 0.  1.
         21   -1    0    0  502  503 -0.00000000000E+00 -0.00000000000E+00 -0.14563600812E+03  0.14563600812E+03  0.00000000000E+00 0.  1.
          6    1    1    2  501    0 -0.13294486134E+02  0.72208501757E+02  0.63457925973E+02  0.19836007526E+03  0.17300000000E+03 0.  1.
         -6    1    1    2    0  503  0.13294486134E+02 -0.72208501757E+02  0.34751822738E+02  0.19112168969E+03  0.17300000000E+03 0.  1.
<mgrwt>
<rscale>  2 0.18793566E+03</rscale>
<asrwt>0</asrwt>
<pdfrwt beam="1">  1       21 0.37514732E-01 0.18793566E+03</pdfrwt>
<pdfrwt beam="2">  1       21 0.22405540E-01 0.18793566E+03</pdfrwt>
<totfact> 0.12800803E+05</totfact>
</mgrwt>
</event>
<event>
 4    1  0.4173994E+000  0.2387325E+03  0.7546771E-02  0.1120640E+00
         21   -1    0    0  503  502  0.00000000000E+00  0.00000000000E+00  0.28481341568E+03  0.28481341568E+03  0.00000000000E+00 0. -1.
         21   -1    0    0  501  503 -0.00000000000E+00 -0.00000000000E+00 -0.20241747219E+03  0.20241747219E+03  0.00000000000E+00 0.  1.
          6    1    1    2  501    0  0.16282828988E+03 -0.23476784174E+02  0.15171599772E+02  0.23921410665E+03  0.17300000000E+03 0.  1.
         -6    1    1    2    0  502 -0.16282828988E+03  0.23476784174E+02  0.67224343717E+02  0.24801678122E+03  0.17300000000E+03 0.  1.
<mgrwt>
<rscale>  2 0.23873251E+03</rscale>
<asrwt>0</asrwt>
<pdfrwt beam="1">  1       21 0.43817449E-01 0.23873251E+03</pdfrwt>
<pdfrwt beam="2">  1       21 0.31141149E-01 0.23873251E+03</pdfrwt>
<totfact> 0.48543037E+04</totfact>
</mgrwt>
</event>
<event>
 4    1  0.4173994E+000  0.1961767E+03  0.7546771E-02  0.1153005E+00
         21   -1    0    0  501  502  0.00000000000E+00  0.00000000000E+00  0.80152802423E+02  0.80152802423E+02  0.00000000000E+00 0.  1.
         21   -1    0    0  502  503 -0.00000000000E+00 -0.00000000000E+00 -0.61346638187E+03  0.61346638187E+03  0.00000000000E+00 0. -1.
          6    1    1    2  501    0  0.91659949596E+02 -0.12440426814E+02 -0.10498336258E+03  0.22250127415E+03  0.17300000000E+03 0.  1.
         -6    1    1    2    0  503 -0.91659949596E+02  0.12440426814E+02 -0.42833021686E+03  0.47111791014E+03  0.17300000000E+03 0.  1.
<mgrwt>
<rscale>  2 0.19617673E+03</rscale>
<asrwt>0</asrwt>
<pdfrwt beam="1">  1       21 0.12331201E-01 0.19617673E+03</pdfrwt>
<pdfrwt beam="2">  1       21 0.94379439E-01 0.19617673E+03</pdfrwt>
<totfact> 0.52481020E+04</totfact>
</mgrwt>
</event>
<event>
 4    1  0.4173994E+000  0.2296951E+03  0.7546771E-02  0.1126855E+00
         21   -1    0    0  503  502  0.00000000000E+00  0.00000000000E+00  0.94483069998E+03  0.94483069998E+03  0.00000000000E+00 0.  1.
         21   -1    0    0  501  503 -0.00000000000E+00 -0.00000000000E+00 -0.75323719257E+02  0.75323719257E+02  0.00000000000E+00 0. -1.
          6    1    1    2  501    0 -0.58482637504E+02 -0.13932196366E+03  0.17533538356E+03  0.28896768880E+03  0.17300000000E+03 0. -1.
         -6    1    1    2    0  502  0.58482637504E+02  0.13932196366E+03  0.69417159716E+03  0.73118673043E+03  0.17300000000E+03 0.  1.
<mgrwt>
<rscale>  2 0.22969508E+03</rscale>
<asrwt>0</asrwt>
<pdfrwt beam="1">  1       21 0.14535856E+00 0.22969508E+03</pdfrwt>
<pdfrwt beam="2">  1       21 0.11588265E-01 0.22969508E+03</pdfrwt>
<totfact> 0.19800566E+04</totfact>
</mgrwt>
</event>
<event>
 4    1  0.4173994E+000  0.1772452E+03  0.7546771E-02  0.1170496E+00
         21   -1    0    0  501  502  0.00000000000E+00  0.00000000000E+00  0.79615765756E+03  0.79615765756E+03  0.00000000000E+00 0. -1.
         21   -1    0    0  502  503 -0.00000000000E+00 -0.00000000000E+00 -0.19813032937E+03  0.19813032937E+03  0.00000000000E+00 0. -1.
          6    1    1    2  501    0  0.13477506058E+01 -0.38536258246E+02  0.74390656309E+03  0.76473056316E+03  0.17300000000E+03 0. -1.
         -6    1    1    2    0  503 -0.13477506058E+01  0.38536258246E+02 -0.14587923490E+03  0.22955742377E+03  0.17300000000E+03 0. -1.
<mgrwt>
<rscale>  2 0.17724520E+03</rscale>
<asrwt>0</asrwt>
<pdfrwt beam="1">  1       21 0.12248579E+00 0.17724520E+03</pdfrwt>
<pdfrwt beam="2">  1       21 0.30481589E-01 0.17724520E+03</pdfrwt>
<totfact> 0.52505045E+03</totfact>
</mgrwt>
</event>
<event>
 4    1  0.4173994E+000  0.2785205E+03  0.7546771E-02  0.1096500E+00
         21   -1    0    0  501  502  0.00000000000E+00  0.00000000000E+00  0.10725140950E+04  0.10725140950E+04  0.00000000000E+00 0.  1.
         21   -1    0    0  502  503 -0.00000000000E+00 -0.00000000000E+00 -0.82255003808E+02  0.82255003808E+02  0.00000000000E+00 0. -1.
          6    1    1    2  501    0  0.70801020809E+02 -0.20647485382E+03  0.69570405800E+03  0.74938493855E+03  0.17300000000E+03 0.  1.
         -6    1    1    2    0  503 -0.70801020809E+02  0.20647485382E+03  0.29455503318E+03  0.40538416025E+03  0.17300000000E+03 0. -1.
<mgrwt>
<rscale>  2 0.27852047E+03</rscale>
<asrwt>0</asrwt>
<pdfrwt beam="1">  1       21 0.16500216E+00 0.27852047E+03</pdfrwt>
<pdfrwt beam="2">  1       21 0.12654617E-01 0.27852047E+03</pdfrwt>
<totfact> 0.11685096E+04</totfact>
</mgrwt>
</event>
<event>
 4    1  0.4173994E+000  0.2141574E+03  0.7546771E-02  0.1138315E+00
         21   -1    0    0  501  502  0.00000000000E+00  0.00000000000E+00  0.56529768476E+03  0.56529768476E+03  0.00000000000E+00 0.  1.
         21   -1    0    0  502  503 -0.00000000000E+00 -0.00000000000E+00 -0.94361239085E+02  0.94361239085E+02  0.00000000000E+00 0.  1.
          6    1    1    2  501    0  0.12462724704E+03  0.20060527469E+02  0.11196724205E+03  0.24166099966E+03  0.17300000000E+03 0.  1.
         -6    1    1    2    0  503 -0.12462724704E+03 -0.20060527469E+02  0.35896920363E+03  0.41799792418E+03  0.17300000000E+03 0.  1.
<mgrwt>
<rscale>  2 0.21415736E+03</rscale>
<asrwt>0</asrwt>
<pdfrwt beam="1">  1       21 0.86968873E-01 0.21415736E+03</pdfrwt>
<pdfrwt beam="2">  1       21 0.14517114E-01 0.21415736E+03</pdfrwt>
<totfact> 0.46826812E+04</totfact>
</mgrwt>
</event>
<event>
 4    1  0.4173994E+000  0.1940262E+03  0.7546771E-02  0.1154879E+00
         21   -1    0    0  501  502  0.00000000000E+00  0.00000000000E+00  0.10074567404E+04  0.10074567404E+04  0.00000000000E+00 0.  1.
         21   -1    0    0  502  503 -0.00000000000E+00 -0.00000000000E+00 -0.68642858840E+02  0.68642858840E+02  0.00000000000E+00 0. -1.
          6    1    1    2  501    0  0.22026293683E+02  0.85041265327E+02  0.83259010181E+03  0.85489908882E+03  0.17300000000E+03 0.  1.
         -6    1    1    2    0  503 -0.22026293683E+02 -0.85041265327E+02  0.10622377972E+03  0.22120051040E+03  0.17300000000E+03 0. -1.
<mgrwt>
<rscale>  2 0.19402622E+03</rscale>
<asrwt>0</asrwt>
<pdfrwt beam="1">  1       21 0.15499333E+00 0.19402622E+03</pdfrwt>
<pdfrwt beam="2">  1       21 0.10560441E-01 0.19402622E+03</pdfrwt>
<totfact> 0.20178023E+04</totfact>
</mgrwt>
</event>
<event>
 4    1  0.4173994E+000  0.1831170E+03  0.7546771E-02  0.1164820E+00
         21   -1    0    0  501  502  0.00000000000E+00  0.00000000000E+00  0.17918729969E+03  0.17918729969E+03  0.00000000000E+00 0.  1.
         21   -1    0    0  502  503 -0.00000000000E+00 -0.00000000000E+00 -0.31657507850E+03  0.31657507850E+03  0.00000000000E+00 0.  1.
          6    1    1    2  501    0  0.36342722671E+02  0.47770877695E+02  0.89811126832E+02  0.20395560485E+03  0.17300000000E+03 0.  1.
         -6    1    1    2    0  503 -0.36342722671E+02 -0.47770877695E+02 -0.22719890564E+03  0.29180677335E+03  0.17300000000E+03 0.  1.
<mgrwt>
<rscale>  2 0.18311704E+03</rscale>
<asrwt>0</asrwt>
<pdfrwt beam="1">  1       21 0.27567277E-01 0.18311704E+03</pdfrwt>
<pdfrwt beam="2">  1       21 0.48703858E-01 0.18311704E+03</pdfrwt>
<totfact> 0.50755940E+04</totfact>
</mgrwt>
</event>
<event>
 4    1  0.4173994E+000  0.2092615E+03  0.7546771E-02  0.1142152E+00
         21   -1    0    0  501  502  0.00000000000E+00  0.00000000000E+00  0.71343056556E+03  0.71343056556E+03  0.00000000000E+00 0.  1.
         21   -1    0    0  502  503 -0.00000000000E+00 -0.00000000000E+00 -0.63832240267E+02  0.63832240267E+02  0.00000000000E+00 0.  1.
          6    1    1    2  501    0 -0.49412668087E+02  0.10686320626E+03  0.40097211410E+03  0.45229303875E+03  0.17300000000E+03 0.  1.
         -6    1    1    2    0  503  0.49412668087E+02 -0.10686320626E+03  0.24862621119E+03  0.32496976707E+03  0.17300000000E+03 0.  1.
<mgrwt>
<rscale>  2 0.20926146E+03</rscale>
<asrwt>0</asrwt>
<pdfrwt beam="1">  1       21 0.10975854E+00 0.20926146E+03</pdfrwt>
<pdfrwt beam="2">  1       21 0.98203451E-02 0.20926146E+03</pdfrwt>
<totfact> 0.54550104E+04</totfact>
</mgrwt>
</event>
<event>
 4    1  0.4173994E+000  0.2494259E+03  0.7546771E-02  0.1113668E+00
         21   -1    0    0  503  502  0.00000000000E+00  0.00000000000E+00  0.66770340777E+03  0.66770340777E+03  0.00000000000E+00 0.  1.
         21   -1    0    0  501  503 -0.00000000000E+00 -0.00000000000E+00 -0.11687995233E+03  0.11687995233E+03  0.00000000000E+00 0. -1.
          6    1    1    2  501    0 -0.17899270894E+03 -0.15680471806E+02  0.98743439987E+02  0.26826019830E+03  0.17300000000E+03 0. -1.
         -6    1    1    2    0  502  0.17899270894E+03  0.15680471806E+02  0.45208001545E+03  0.51632316181E+03  0.17300000000E+03 0.  1.
<mgrwt>
<rscale>  2 0.24942587E+03</rscale>
<asrwt>0</asrwt>
<pdfrwt beam="1">  1       21 0.10272360E+00 0.24942587E+03</pdfrwt>
<pdfrwt beam="2">  1       21 0.17981531E-01 0.24942587E+03</pdfrwt>
<totfact> 0.20980264E+04</totfact>
</mgrwt>
</event>
<event>
 4    1  0.4173994E+000  0.1958981E+03  0.7546771E-02  0.1153247E+00
         21   -1    0    0  501  502  0.00000000000E+00  0.00000000000E+00  0.43703181401E+02  0.43703181401E+02  0.00000000000E+00 0. -1.
         21   -1    0    0  502  503 -0.00000000000E+00 -0.00000000000E+00 -0.14547124022E+04  0.14547124022E+04  0.00000000000E+00 0.  1.
          6    1    1    2  501    0 -0.23358412764E+02 -0.88890071070E+02 -0.23381843411E+03  0.30503626065E+03  0.17300000000E+03 0. -1.
         -6    1    1    2    0  503  0.23358412764E+02  0.88890071070E+02 -0.11771907867E+04  0.11933793230E+04  0.17300000000E+03 0.  1.
<mgrwt>
<rscale>  2 0.19589809E+03</rscale>
<asrwt>0</asrwt>
<pdfrwt beam="1">  1       21 0.67235658E-02 0.19589809E+03</pdfrwt>
<pdfrwt beam="2">  1       21 0.22380193E+00 0.19589809E+03</pdfrwt>
<totfact> 0.15420028E+04</totfact>
</mgrwt>
</event>
<event>
 4    1  0.4173994E+000  0.2992775E+03  0.7546771E-02  0.1085602E+00
         21   -1    0    0  501  502  0.00000000000E+00  0.00000000000E+00  0.10053630713E+04  0.10053630713E+04  0.00000000000E+00 0.  1.
         21   -1    0    0  502  503 -0.00000000000E+00 -0.00000000000E+00 -0.10242555939E+03  0.10242555939E+03  0.00000000000E+00 0. -1.
          6    1    1    2  501    0 -0.23617114736E+03 -0.62138748374E+02  0.65133556637E+03  0.71680196352E+03  0.17300000000E+03 0.  1.
         -6    1    1    2    0  503  0.23617114736E+03  0.62138748374E+02  0.25160194554E+03  0.39098666716E+03  0.17300000000E+03 0. -1.
<mgrwt>
<rscale>  2 0.29927752E+03</rscale>
<asrwt>0</asrwt>
<pdfrwt beam="1">  1       21 0.15467123E+00 0.29927752E+03</pdfrwt>
<pdfrwt beam="2">  1       21 0.15757779E-01 0.29927752E+03</pdfrwt>
<totfact> 0.92398636E+03</totfact>
</mgrwt>
</event>
<event>
 4    1  0.4173994E+000  0.2146034E+03  0.7546771E-02  0.1137972E+00
         21   -1    0    0  503  502  0.00000000000E+00  0.00000000000E+00  0.43410730337E+03  0.43410730337E+03  0.00000000000E+00 0. -1.
         21   -1    0    0  501  503 -0.00000000000E+00 -0.00000000000E+00 -0.11139426323E+03  0.11139426323E+03  0.00000000000E+00 0. -1.
          6    1    1    2  501    0  0.19001555648E+02  0.12555696043E+03  0.10184082510E+03  0.23754191859E+03  0.17300000000E+03 0. -1.
         -6    1    1    2    0  502 -0.19001555648E+02 -0.12555696043E+03  0.22087221503E+03  0.30795964801E+03  0.17300000000E+03 0. -1.
<mgrwt>
<rscale>  2 0.21460338E+03</rscale>
<asrwt>0</asrwt>
<pdfrwt beam="1">  1       21 0.66785738E-01 0.21460338E+03</pdfrwt>
<pdfrwt beam="2">  1       21 0.17137579E-01 0.21460338E+03</pdfrwt>
<totfact> 0.62513725E+04</totfact>
</mgrwt>
</event>
<event>
 4    1  0.4173994E+000  0.1914216E+03  0.7546771E-02  0.1157185E+00
         21   -1    0    0  501  502  0.00000000000E+00  0.00000000000E+00  0.65707912612E+03  0.65707912612E+03  0.00000000000E+00 0.  1.
         21   -1    0    0  502  503 -0.00000000000E+00 -0.00000000000E+00 -0.30463020001E+03  0.30463020001E+03  0.00000000000E+00 0.  1.
          6    1    1    2  501    0  0.71635201037E+02  0.39769453552E+02  0.61084393743E+03  0.64013477281E+03  0.17300000000E+03 0.  1.
         -6    1    1    2    0  503 -0.71635201037E+02 -0.39769453552E+02 -0.25839501133E+03  0.32157455332E+03  0.17300000000E+03 0.  1.
<mgrwt>
<rscale>  2 0.19142155E+03</rscale>
<asrwt>0</asrwt>
<pdfrwt beam="1">  1       21 0.10108910E+00 0.19142155E+03</pdfrwt>
<pdfrwt beam="2">  1       21 0.46866185E-01 0.19142155E+03</pdfrwt>
<totfact> 0.34906494E+03</totfact>
</mgrwt>
</event>
<event>
 4    1  0.4173994E+000  0.1965160E+03  0.7546771E-02  0.1152712E+00
         21   -1    0    0  501  502  0.00000000000E+00  0.00000000000E+00  0.32182922913E+03  0.32182922913E+03  0.00000000000E+00 0.  1.
         21   -1    0    0  502  503 -0.00000000000E+00 -0.00000000000E+00 -0.17907065238E+03  0.17907065238E+03  0.00000000000E+00 0. -1.
          6    1    1    2  501    0  0.36592590716E+02  0.85735281064E+02  0.21522783415E+03  0.29144738240E+03  0.17300000000E+03 0.  1.
         -6    1    1    2    0  503 -0.36592590716E+02 -0.85735281064E+02 -0.72469257405E+02  0.20945249911E+03  0.17300000000E+03 0. -1.
<mgrwt>
<rscale>  2 0.19651605E+03</rscale>
<asrwt>0</asrwt>
<pdfrwt beam="1">  1       21 0.49512189E-01 0.19651605E+03</pdfrwt>
<pdfrwt beam="2">  1       21 0.27549331E-01 0.19651605E+03</pdfrwt>
<totfact> 0.48799944E+04</totfact>
</mgrwt>
</event>
<event>
 4    1  0.4173994E+000  0.2227890E+03  0.7546771E-02  0.1131821E+00
         21   -1    0    0  501  502  0.00000000000E+00  0.00000000000E+00  0.73573523581E+02  0.73573523581E+02  0.00000000000E+00 0.  1.
         21   -1    0    0  502  503 -0.00000000000E+00 -0.00000000000E+00 -0.12397858240E+04  0.12397858240E+04  0.00000000000E+00 0.  1.
          6    1    1    2  501    0 -0.26822730106E+02  0.13779147741E+03 -0.13973838459E+03  0.26298624721E+03  0.17300000000E+03 0.  1.
         -6    1    1    2    0  503  0.26822730106E+02 -0.13779147741E+03 -0.10264739158E+04  0.10503731004E+04  0.17300000000E+03 0.  1.
<mgrwt>
<rscale>  2 0.22278903E+03</rscale>
<asrwt>0</asrwt>
<pdfrwt beam="1">  1       21 0.11319005E-01 0.22278903E+03</pdfrwt>
<pdfrwt beam="2">  1       21 0.19073626E+00 0.22278903E+03</pdfrwt>
<totfact> 0.98095694E+03</totfact>
</mgrwt>
</event>
<event>
 4    1  0.4173994E+000  0.2017277E+03  0.7546771E-02  0.1148289E+00
         21   -1    0    0  503  502  0.00000000000E+00  0.00000000000E+00  0.51650633968E+03  0.51650633968E+03  0.00000000000E+00 0.  1.
         21   -1    0    0  501  503 -0.00000000000E+00 -0.00000000000E+00 -0.87892667171E+02  0.87892667171E+02  0.00000000000E+00 0.  1.
          6    1    1    2  501    0  0.10364999664E+03 -0.46642654248E+01  0.11703904502E+03  0.23322138674E+03  0.17300000000E+03 0. -1.
         -6    1    1    2    0  502 -0.10364999664E+03  0.46642654248E+01  0.31157462748E+03  0.37117762010E+03  0.17300000000E+03 0. -1.
<mgrwt>
<rscale>  2 0.20172773E+03</rscale>
<asrwt>0</asrwt>
<pdfrwt beam="1">  1       21 0.79462512E-01 0.20172773E+03</pdfrwt>
<pdfrwt beam="2">  1       21 0.13521949E-01 0.20172773E+03</pdfrwt>
<totfact> 0.65839034E+04</totfact>
</mgrwt>
</event>
<event>
 4    1  0.4173994E+000  0.2380843E+03  0.7546771E-02  0.1121076E+00
         21   -1    0    0  501  502  0.00000000000E+00  0.00000000000E+00  0.16010243084E+03  0.16010243084E+03  0.00000000000E+00 0.  1.
         21   -1    0    0  502  503 -0.00000000000E+00 -0.00000000000E+00 -0.35635859503E+03  0.35635859503E+03  0.00000000000E+00 0. -1.
          6    1    1    2  501    0 -0.30418905452E+02 -0.16071666439E+03 -0.77340584779E+02  0.25033122473E+03  0.17300000000E+03 0.  1.
         -6    1    1    2    0  503  0.30418905452E+02  0.16071666439E+03 -0.11891557941E+03  0.26612980113E+03  0.17300000000E+03 0. -1.
<mgrwt>
<rscale>  2 0.23808435E+03</rscale>
<asrwt>0</asrwt>
<pdfrwt beam="1">  1       21 0.24631143E-01 0.23808435E+03</pdfrwt>
<pdfrwt beam="2">  1       21 0.54824399E-01 0.23808435E+03</pdfrwt>
<totfact> 0.47917140E+04</totfact>
</mgrwt>
</event>
<event>
 4    1  0.4173994E+000  0.1889646E+03  0.7546771E-02  0.1159398E+00
         21   -1    0    0  503  502  0.00000000000E+00  0.00000000000E+00  0.13060471947E+04  0.13060471947E+04  0.00000000000E+00 0. -1.
         21   -1    0    0  501  503 -0.00000000000E+00 -0.00000000000E+00 -0.39845071009E+02  0.39845071009E+02  0.00000000000E+00 0. -1.
          6    1    1    2  501    0 -0.60182932607E+02  0.46439736196E+02  0.25610914712E+03  0.31827587045E+03  0.17300000000E+03 0. -1.
         -6    1    1    2    0  502  0.60182932607E+02 -0.46439736196E+02  0.10100929765E+04  0.10276163952E+04  0.17300000000E+03 0. -1.
<mgrwt>
<rscale>  2 0.18896464E+03</rscale>
<asrwt>0</asrwt>
<pdfrwt beam="1">  1       21 0.20093030E+00 0.18896464E+03</pdfrwt>
<pdfrwt beam="2">  1       21 0.61300119E-02 0.18896464E+03</pdfrwt>
<totfact> 0.25240982E+04</totfact>
</mgrwt>
</event>
<event>
 4    1  0.4173994E+000  0.1905570E+03  0.7546771E-02  0.1157960E+00
         21   -1    0    0  503  502  0.00000000000E+00  0.00000000000E+00  0.49583010073E+02  0.49583010073E+02  0.00000000000E+00 0. -1.
         21   -1    0    0  501  503 -0.00000000000E+00 -0.00000000000E+00 -0.78432219718E+03  0.78432219718E+03  0.00000000000E+00 0. -1.
          6    1    1    2  501    0  0.72894869831E+02  0.32700097868E+02 -0.47470385487E+03  0.51152293035E+03  0.17300000000E+03 0. -1.
         -6    1    1    2    0  502 -0.72894869831E+02 -0.32700097868E+02 -0.26003533224E+03  0.32238227690E+03  0.17300000000E+03 0. -1.
<mgrwt>
<rscale>  2 0.19055697E+03</rscale>
<asrwt>0</asrwt>
<pdfrwt beam="1">  1       21 0.76281561E-02 0.19055697E+03</pdfrwt>
<pdfrwt beam="2">  1       21 0.12066494E+00 0.19055697E+03</pdfrwt>
<totfact> 0.67971337E+04</totfact>
</mgrwt>
</event>
<event>
 4    1  0.4173994E+000  0.1758497E+03  0.7546771E-02  0.1171881E+00
         21   -1    0    0  501  502  0.00000000000E+00  0.00000000000E+00  0.10593908601E+04  0.10593908601E+04  0.00000000000E+00 0.  1.
         21   -1    0    0  502  503 -0.00000000000E+00 -0.00000000000E+00 -0.40940202963E+02  0.40940202963E+02  0.00000000000E+00 0.  1.
          6    1    1    2  501    0  0.18199775530E+02  0.25746382714E+02  0.80397272865E+03  0.82297949942E+03  0.17300000000E+03 0.  1.
         -6    1    1    2    0  503 -0.18199775530E+02 -0.25746382714E+02  0.21447792852E+03  0.27735156368E+03  0.17300000000E+03 0.  1.
<mgrwt>
<rscale>  2 0.17584967E+03</rscale>
<asrwt>0</asrwt>
<pdfrwt beam="1">  1       21 0.16298319E+00 0.17584967E+03</pdfrwt>
<pdfrwt beam="2">  1       21 0.62984935E-02 0.17584967E+03</pdfrwt>
<totfact> 0.43883867E+04</totfact>
</mgrwt>
</event>
<event>
 4    1  0.4173994E+000  0.3685000E+03  0.7546771E-02  0.1055268E+00
         21   -1    0    0  503  502  0.00000000000E+00  0.00000000000E+00  0.21495348094E+03  0.21495348094E+03  0.00000000000E+00 0.  1.
         21   -1    0    0  501  503 -0.00000000000E+00 -0.00000000000E+00 -0.65979400804E+03  0.65979400804E+03  0.00000000000E+00 0. -1.
          6    1    1    2  501    0  0.11447399826E+03 -0.30456353519E+03 -0.31262614727E+03  0.48324667738E+03  0.17300000000E+03 0.  1.
         -6    1    1    2    0  502 -0.11447399826E+03  0.30456353519E+03 -0.13221437984E+03  0.39150081160E+03  0.17300000000E+03 0. -1.
<mgrwt>
<rscale>  2 0.36849999E+03</rscale>
<asrwt>0</asrwt>
<pdfrwt beam="1">  1       21 0.33069766E-01 0.36849999E+03</pdfrwt>
<pdfrwt beam="2">  1       21 0.10150677E+00 0.36849999E+03</pdfrwt>
<totfact> 0.63313049E+03</totfact>
</mgrwt>
</event>
<event>
 4    1  0.4173994E+000  0.2125981E+03  0.7546771E-02  0.1139525E+00
         21   -1    0    0  501  502  0.00000000000E+00  0.00000000000E+00  0.40851748417E+03  0.40851748417E+03  0.00000000000E+00 0.  1.
         21   -1    0    0  502  503 -0.00000000000E+00 -0.00000000000E+00 -0.11558517326E+03  0.11558517326E+03  0.00000000000E+00 0.  1.
          6    1    1    2  501    0 -0.10753116450E+03 -0.60876862811E+02  0.20067527416E+03  0.29234997763E+03  0.17300000000E+03 0.  1.
         -6    1    1    2    0  503  0.10753116450E+03  0.60876862811E+02  0.92257036754E+02  0.23175267980E+03  0.17300000000E+03 0.  1.
<mgrwt>
<rscale>  2 0.21259808E+03</rscale>
<asrwt>0</asrwt>
<pdfrwt beam="1">  1       21 0.62848843E-01 0.21259808E+03</pdfrwt>
<pdfrwt beam="2">  1       21 0.17782335E-01 0.21259808E+03</pdfrwt>
<totfact> 0.66720504E+04</totfact>
</mgrwt>
</event>
<event>
 4    1  0.4173994E+000  0.2102228E+03  0.7546771E-02  0.1141390E+00
         21   -1    0    0  503  502  0.00000000000E+00  0.00000000000E+00  0.61854703227E+03  0.61854703227E+03  0.00000000000E+00 0.  1.
         21   -1    0    0  501  503 -0.00000000000E+00 -0.00000000000E+00 -0.77424120765E+02  0.77424120765E+02  0.00000000000E+00 0.  1.
          6    1    1    2  501    0  0.10516457929E+03 -0.56612959607E+02  0.36724494426E+03  0.42315773066E+03  0.17300000000E+03 0.  1.
         -6    1    1    2    0  502 -0.10516457929E+03  0.56612959607E+02  0.17387796724E+03  0.27281342237E+03  0.17300000000E+03 0.  1.
<mgrwt>
<rscale>  2 0.21022278E+03</rscale>
<asrwt>0</asrwt>
<pdfrwt beam="1">  1       21 0.95161079E-01 0.21022278E+03</pdfrwt>
<pdfrwt beam="2">  1       21 0.11911404E-01 0.21022278E+03</pdfrwt>
<totfact> 0.54392308E+04</totfact>
</mgrwt>
</event>
<event>
 4    1  0.4173994E+000  0.2232694E+03  0.7546771E-02  0.1131469E+00
         21   -1    0    0  503  502  0.00000000000E+00  0.00000000000E+00  0.13706690550E+03  0.13706690550E+03  0.00000000000E+00 0. -1.
         21   -1    0    0  501  503 -0.00000000000E+00 -0.00000000000E+00 -0.42867816457E+03  0.42867816457E+03  0.00000000000E+00 0.  1.
          6    1    1    2  501    0  0.13722224762E+03  0.33019190002E+02 -0.25594893331E+03  0.33964550433E+03  0.17300000000E+03 0.  1.
         -6    1    1    2    0  502 -0.13722224762E+03 -0.33019190002E+02 -0.35662325755E+02  0.22609956574E+03  0.17300000000E+03 0. -1.
<mgrwt>
<rscale>  2 0.22326937E+03</rscale>
<asrwt>0</asrwt>
<pdfrwt beam="1">  1       21 0.21087216E-01 0.22326937E+03</pdfrwt>
<pdfrwt beam="2">  1       21 0.65950486E-01 0.22326937E+03</pdfrwt>
<totfact> 0.43483386E+04</totfact>
</mgrwt>
</event>
<event>
 4    1  0.4173994E+000  0.1900738E+03  0.7546771E-02  0.1158395E+00
         21   -1    0    0  501  502  0.00000000000E+00  0.00000000000E+00  0.19482737647E+03  0.19482737647E+03  0.00000000000E+00 0. -1.
         21   -1    0    0  502  503 -0.00000000000E+00 -0.00000000000E+00 -0.22954502170E+03  0.22954502170E+03  0.00000000000E+00 0. -1.
          6    1    1    2  501    0 -0.53436201814E+01  0.78552600773E+02  0.75654571509E+02  0.20457683045E+03  0.17300000000E+03 0. -1.
         -6    1    1    2    0  503  0.53436201814E+01 -0.78552600773E+02 -0.11037221673E+03  0.21979556772E+03  0.17300000000E+03 0. -1.
<mgrwt>
<rscale>  2 0.19007384E+03</rscale>
<asrwt>0</asrwt>
<pdfrwt beam="1">  1       21 0.29973443E-01 0.19007384E+03</pdfrwt>
<pdfrwt beam="2">  1       21 0.35314619E-01 0.19007384E+03</pdfrwt>
<totfact> 0.82610367E+04</totfact>
</mgrwt>
</event>
<event>
 4    1  0.4173994E+000  0.2855015E+03  0.7546771E-02  0.1092722E+00
         21   -1    0    0  501  502  0.00000000000E+00  0.00000000000E+00  0.65199927815E+02  0.65199927815E+02  0.00000000000E+00 0.  1.
         21   -1    0    0  502  503 -0.00000000000E+00 -0.00000000000E+00 -0.18679719611E+04  0.18679719611E+04  0.00000000000E+00 0. -1.
          6    1    1    2  501    0  0.20335991313E+03  0.10112792824E+03 -0.34550825233E+03  0.44820426657E+03  0.17300000000E+03 0.  1.
         -6    1    1    2    0  503 -0.20335991313E+03 -0.10112792824E+03 -0.14572637810E+04  0.14849676224E+04  0.17300000000E+03 0. -1.
<mgrwt>
<rscale>  2 0.28550151E+03</rscale>
<asrwt>0</asrwt>
<pdfrwt beam="1">  1       21 0.10030760E-01 0.28550151E+03</pdfrwt>
<pdfrwt beam="2">  1       21 0.28738024E+00 0.28550151E+03</pdfrwt>
<totfact> 0.29748133E+03</totfact>
</mgrwt>
</event>
<event>
 4    1  0.4173994E+000  0.2035342E+03  0.7546771E-02  0.1146791E+00
         21   -1    0    0  503  502  0.00000000000E+00  0.00000000000E+00  0.39019503703E+03  0.39019503703E+03  0.00000000000E+00 0. -1.
         21   -1    0    0  501  503 -0.00000000000E+00 -0.00000000000E+00 -0.10991948415E+03  0.10991948415E+03  0.00000000000E+00 0. -1.
          6    1    1    2  501    0 -0.45887520829E+02  0.96909747799E+02  0.93940856863E+02  0.22416745610E+03  0.17300000000E+03 0. -1.
         -6    1    1    2    0  502  0.45887520829E+02 -0.96909747799E+02  0.18633469602E+03  0.27594706508E+03  0.17300000000E+03 0. -1.
<mgrwt>
<rscale>  2 0.20353418E+03</rscale>
<asrwt>0</asrwt>
<pdfrwt beam="1">  1       21 0.60030005E-01 0.20353418E+03</pdfrwt>
<pdfrwt beam="2">  1       21 0.16910690E-01 0.20353418E+03</pdfrwt>
<totfact> 0.81153489E+04</totfact>
</mgrwt>
</event>
<event>
 4    1  0.4173994E+000  0.2261729E+03  0.7546771E-02  0.1129363E+00
         21   -1    0    0  501  502  0.00000000000E+00  0.00000000000E+00  0.26012151859E+03  0.26012151859E+03  0.00000000000E+00 0.  1.
         21   -1    0    0  502  503 -0.00000000000E+00 -0.00000000000E+00 -0.45938985462E+03  0.45938985462E+03  0.00000000000E+00 0.  1.
          6    1    1    2  501    0 -0.30034071077E+02 -0.14255921779E+03  0.17243283981E+03  0.28440685689E+03  0.17300000000E+03 0.  1.
         -6    1    1    2    0  503  0.30034071077E+02  0.14255921779E+03 -0.37170117584E+03  0.43510451632E+03  0.17300000000E+03 0.  1.
<mgrwt>
<rscale>  2 0.22617289E+03</rscale>
<asrwt>0</asrwt>
<pdfrwt beam="1">  1       21 0.40018695E-01 0.22617289E+03</pdfrwt>
<pdfrwt beam="2">  1       21 0.70675363E-01 0.22617289E+03</pdfrwt>
<totfact> 0.10680729E+04</totfact>
</mgrwt>
</event>
<event>
 4    1  0.4173994E+000  0.2190962E+03  0.7546771E-02  0.1134559E+00
         21   -1    0    0  501  502  0.00000000000E+00  0.00000000000E+00  0.12724053235E+03  0.12724053235E+03  0.00000000000E+00 0.  1.
         21   -1    0    0  502  503 -0.00000000000E+00 -0.00000000000E+00 -0.45375131224E+03  0.45375131224E+03  0.00000000000E+00 0. -1.
          6    1    1    2  501    0  0.11610705557E+03  0.67773794042E+02 -0.43986042437E+02  0.22346791143E+03  0.17300000000E+03 0.  1.
         -6    1    1    2    0  503 -0.11610705557E+03 -0.67773794042E+02 -0.28252473745E+03  0.35752393316E+03  0.17300000000E+03 0. -1.
<mgrwt>
<rscale>  2 0.21909618E+03</rscale>
<asrwt>0</asrwt>
<pdfrwt beam="1">  1       21 0.19575467E-01 0.21909618E+03</pdfrwt>
<pdfrwt beam="2">  1       21 0.69807894E-01 0.21909618E+03</pdfrwt>
<totfact> 0.44205404E+04</totfact>
</mgrwt>
</event>
<event>
 4    1  0.4173994E+000  0.2187715E+03  0.7546771E-02  0.1134802E+00
         21   -1    0    0  501  502  0.00000000000E+00  0.00000000000E+00  0.83085814548E+02  0.83085814548E+02  0.00000000000E+00 0. -1.
         21   -1    0    0  502  503 -0.00000000000E+00 -0.00000000000E+00 -0.75625395341E+03  0.75625395341E+03  0.00000000000E+00 0. -1.
          6    1    1    2  501    0  0.27999877408E+02  0.13095027406E+03 -0.54144779565E+03  0.58397489914E+03  0.17300000000E+03 0. -1.
         -6    1    1    2    0  503 -0.27999877408E+02 -0.13095027406E+03 -0.13172034321E+03  0.25536486882E+03  0.17300000000E+03 0. -1.
<mgrwt>
<rscale>  2 0.21877150E+03</rscale>
<asrwt>0</asrwt>
<pdfrwt beam="1">  1       21 0.12782433E-01 0.21877150E+03</pdfrwt>
<pdfrwt beam="2">  1       21 0.11634676E+00 0.21877150E+03</pdfrwt>
<totfact> 0.29414536E+04</totfact>
</mgrwt>
</event>
<event>
 4    1  0.4173994E+000  0.1990944E+03  0.7546771E-02  0.1150505E+00
         21   -1    0    0  503  502  0.00000000000E+00  0.00000000000E+00  0.20667347911E+03  0.20667347911E+03  0.00000000000E+00 0. -1.
         21   -1    0    0  501  503 -0.00000000000E+00 -0.00000000000E+00 -0.20570041550E+03  0.20570041550E+03  0.00000000000E+00 0. -1.
          6    1    1    2  501    0 -0.63931522931E+02 -0.74982371502E+02 -0.53125415275E+02  0.20606044115E+03  0.17300000000E+03 0. -1.
         -6    1    1    2    0  502  0.63931522931E+02  0.74982371502E+02  0.54098478891E+02  0.20631345346E+03  0.17300000000E+03 0. -1.
<mgrwt>
<rscale>  2 0.19909444E+03</rscale>
<asrwt>0</asrwt>
<pdfrwt beam="1">  1       21 0.31795920E-01 0.19909444E+03</pdfrwt>
<pdfrwt beam="2">  1       21 0.31646218E-01 0.19909444E+03</pdfrwt>
<totfact> 0.91057514E+04</totfact>
</mgrwt>
</event>
<event>
 4    1  0.4173994E+000  0.1752266E+03  0.7546771E-02  0.1172504E+00
         21   -1    0    0  501  502  0.00000000000E+00  0.00000000000E+00  0.68734826477E+02  0.68734826477E+02  0.00000000000E+00 0.  1.
         21   -1    0    0  502  503 -0.00000000000E+00 -0.00000000000E+00 -0.11489121850E+04  0.11489121850E+04  0.00000000000E+00 0. -1.
          6    1    1    2  501    0  0.27679335225E+02 -0.30380318895E+01 -0.64118440913E+02  0.18658925398E+03  0.17300000000E+03 0.  1.
         -6    1    1    2    0  503 -0.27679335225E+02  0.30380318895E+01 -0.10160589176E+04  0.10310577575E+04  0.17300000000E+03 0. -1.
<mgrwt>
<rscale>  2 0.17522664E+03</rscale>
<asrwt>0</asrwt>
<pdfrwt beam="1">  1       21 0.10574588E-01 0.17522664E+03</pdfrwt>
<pdfrwt beam="2">  1       21 0.17675573E+00 0.17522664E+03</pdfrwt>
<totfact> 0.14268100E+04</totfact>
</mgrwt>
</event>
<event>
 4    1  0.4173994E+000  0.2046418E+03  0.7546771E-02  0.1145881E+00
         21   -1    0    0  501  502  0.00000000000E+00  0.00000000000E+00  0.28503811953E+02  0.28503811953E+02  0.00000000000E+00 0.  1.
         21   -1    0    0  502  503 -0.00000000000E+00 -0.00000000000E+00 -0.15905666951E+04  0.15905666951E+04  0.00000000000E+00 0.  1.
          6    1    1    2  501    0 -0.74760651368E+02  0.79750345534E+02 -0.55742724395E+03  0.59380418060E+03  0.17300000000E+03 0.  1.
         -6    1    1    2    0  503  0.74760651368E+02 -0.79750345534E+02 -0.10046356392E+04  0.10252663265E+04  0.17300000000E+03 0.  1.
<mgrwt>
<rscale>  2 0.20464182E+03</rscale>
<asrwt>0</asrwt>
<pdfrwt beam="1">  1       21 0.43852028E-02 0.20464182E+03</pdfrwt>
<pdfrwt beam="2">  1       21 0.24470251E+00 0.20464182E+03</pdfrwt>
<totfact> 0.23753155E+04</totfact>
</mgrwt>
</event>
<event>
 4    1  0.4173994E+000  0.2521458E+03  0.7546771E-02  0.1111956E+00
         21   -1    0    0  501  502  0.00000000000E+00  0.00000000000E+00  0.83163530364E+02  0.83163530364E+02  0.00000000000E+00 0. -1.
         21   -1    0    0  502  503 -0.00000000000E+00 -0.00000000000E+00 -0.84110065756E+03  0.84110065756E+03  0.00000000000E+00 0. -1.
          6    1    1    2  501    0  0.17781651601E+03 -0.45053341451E+02 -0.23949479168E+03  0.34775749048E+03  0.17300000000E+03 0. -1.
         -6    1    1    2    0  503 -0.17781651601E+03  0.45053341451E+02 -0.51844233552E+03  0.57650669744E+03  0.17300000000E+03 0. -1.
<mgrwt>
<rscale>  2 0.25214582E+03</rscale>
<asrwt>0</asrwt>
<pdfrwt beam="1">  1       21 0.12794390E-01 0.25214582E+03</pdfrwt>
<pdfrwt beam="2">  1       21 0.12940010E+00 0.25214582E+03</pdfrwt>
<totfact> 0.22107204E+04</totfact>
</mgrwt>
</event>
<event>
 4    1  0.4173994E+000  0.2811950E+03  0.7546771E-02  0.1095038E+00
         21   -1    0    0  501  502  0.00000000000E+00  0.00000000000E+00  0.15440676847E+03  0.15440676847E+03  0.00000000000E+00 0.  1.
         21   -1    0    0  502  503 -0.00000000000E+00 -0.00000000000E+00 -0.51660539667E+03  0.51660539667E+03  0.00000000000E+00 0. -1.
          6    1    1    2  501    0  0.71311728191E+02 -0.20989587485E+03 -0.21245524582E+03  0.35243137252E+03  0.17300000000E+03 0.  1.
         -6    1    1    2    0  503 -0.71311728191E+02  0.20989587485E+03 -0.14974338238E+03  0.31858079262E+03  0.17300000000E+03 0.  1.
<mgrwt>
<rscale>  2 0.28119502E+03</rscale>
<asrwt>0</asrwt>
<pdfrwt beam="1">  1       21 0.23754888E-01 0.28119502E+03</pdfrwt>
<pdfrwt beam="2">  1       21 0.79477752E-01 0.28119502E+03</pdfrwt>
<totfact> 0.22278404E+04</totfact>
</mgrwt>
</event>
<event>
 4    1  0.4173994E+000  0.1778967E+03  0.7546771E-02  0.1169854E+00
         21   -1    0    0  501  502  0.00000000000E+00  0.00000000000E+00  0.19175780783E+03  0.19175780783E+03  0.00000000000E+00 0. -1.
         21   -1    0    0  502  503 -0.00000000000E+00 -0.00000000000E+00 -0.86076769202E+03  0.86076769202E+03  0.00000000000E+00 0. -1.
          6    1    1    2  501    0  0.19953360013E+02 -0.36333169535E+02  0.13862460024E+03  0.22553052028E+03  0.17300000000E+03 0. -1.
         -6    1    1    2    0  503 -0.19953360013E+02  0.36333169535E+02 -0.80763448444E+03  0.82699497957E+03  0.17300000000E+03 0. -1.
<mgrwt>
<rscale>  2 0.17789670E+03</rscale>
<asrwt>0</asrwt>
<pdfrwt beam="1">  1       21 0.29501201E-01 0.17789670E+03</pdfrwt>
<pdfrwt beam="2">  1       21 0.13242580E+00 0.17789670E+03</pdfrwt>
<totfact> 0.45991467E+03</totfact>
</mgrwt>
</event>
<event>
 4    1  0.4173994E+000  0.1974250E+03  0.7546771E-02  0.1151930E+00
         21   -1    0    0  501  502  0.00000000000E+00  0.00000000000E+00  0.27168397024E+03  0.27168397024E+03  0.00000000000E+00 0.  1.
         21   -1    0    0  502  503 -0.00000000000E+00 -0.00000000000E+00 -0.26608980398E+03  0.26608980398E+03  0.00000000000E+00 0.  1.
          6    1    1    2  501    0 -0.90883491081E+02 -0.28068406643E+02  0.18533282072E+03  0.27078570649E+03  0.17300000000E+03 0.  1.
         -6    1    1    2    0  503  0.90883491081E+02  0.28068406643E+02 -0.17973865446E+03  0.26698806773E+03  0.17300000000E+03 0.  1.
<mgrwt>
<rscale>  2 0.19742503E+03</rscale>
<asrwt>0</asrwt>
<pdfrwt beam="1">  1       21 0.41797534E-01 0.19742503E+03</pdfrwt>
<pdfrwt beam="2">  1       21 0.40936893E-01 0.19742503E+03</pdfrwt>
<totfact> 0.31589229E+04</totfact>
</mgrwt>
</event>
<event>
 4    1  0.4173994E+000  0.1766961E+03  0.7546771E-02  0.1171039E+00
         21   -1    0    0  501  502  0.00000000000E+00  0.00000000000E+00  0.23883789712E+03  0.23883789712E+03  0.00000000000E+00 0.  1.
         21   -1    0    0  502  503 -0.00000000000E+00 -0.00000000000E+00 -0.13168593421E+03  0.13168593421E+03  0.00000000000E+00 0.  1.
          6    1    1    2  501    0  0.22585149291E+02 -0.27971955545E+02  0.37730806350E+02  0.18067964194E+03  0.17300000000E+03 0.  1.
         -6    1    1    2    0  503 -0.22585149291E+02  0.27971955545E+02  0.69421156558E+02  0.18984418939E+03  0.17300000000E+03 0.  1.
<mgrwt>
<rscale>  2 0.17669612E+03</rscale>
<asrwt>0</asrwt>
<pdfrwt beam="1">  1       21 0.36744292E-01 0.17669612E+03</pdfrwt>
<pdfrwt beam="2">  1       21 0.20259374E-01 0.17669612E+03</pdfrwt>
<totfact> 0.16176903E+05</totfact>
</mgrwt>
</event>
<event>
 4    1  0.4173994E+000  0.1863924E+03  0.7546771E-02  0.1161756E+00
         21   -1    0    0  503  502  0.00000000000E+00  0.00000000000E+00  0.10568791978E+03  0.10568791978E+03  0.00000000000E+00 0.  1.
         21   -1    0    0  501  503 -0.00000000000E+00 -0.00000000000E+00 -0.52155902217E+03  0.52155902217E+03  0.00000000000E+00 0.  1.
          6    1    1    2  501    0 -0.33555960023E+02 -0.60721607869E+02 -0.39863533646E+03  0.44005936826E+03  0.17300000000E+03 0.  1.
         -6    1    1    2    0  502  0.33555960023E+02  0.60721607869E+02 -0.17235765927E+02  0.18718757369E+03  0.17300000000E+03 0.  1.
<mgrwt>
<rscale>  2 0.18639237E+03</rscale>
<asrwt>0</asrwt>
<pdfrwt beam="1">  1       21 0.16259680E-01 0.18639237E+03</pdfrwt>
<pdfrwt beam="2">  1       21 0.80239850E-01 0.18639237E+03</pdfrwt>
<totfact> 0.46390779E+04</totfact>
</mgrwt>
</event>
<event>
 4    1  0.4173994E+000  0.1938586E+03  0.7546771E-02  0.1155026E+00
         21   -1    0    0  503  502  0.00000000000E+00  0.00000000000E+00  0.11492280354E+03  0.11492280354E+03  0.00000000000E+00 0. -1.
         21   -1    0    0  501  503 -0.00000000000E+00 -0.00000000000E+00 -0.47000847129E+03  0.47000847129E+03  0.00000000000E+00 0. -1.
          6    1    1    2  501    0 -0.19815681245E+02 -0.85202674724E+02 -0.33886141172E+03  0.39039494535E+03  0.17300000000E+03 0. -1.
         -6    1    1    2    0  502  0.19815681245E+02  0.85202674724E+02 -0.16224256038E+02  0.19453632948E+03  0.17300000000E+03 0. -1.
<mgrwt>
<rscale>  2 0.19385860E+03</rscale>
<asrwt>0</asrwt>
<pdfrwt beam="1">  1       21 0.17680432E-01 0.19385860E+03</pdfrwt>
<pdfrwt beam="2">  1       21 0.72308994E-01 0.19385860E+03</pdfrwt>
<totfact> 0.50021659E+04</totfact>
</mgrwt>
</event>
<event>
 4    1  0.4173994E+000  0.1891068E+03  0.7546771E-02  0.1159269E+00
         21   -1    0    0  503  502  0.00000000000E+00  0.00000000000E+00  0.65275843642E+03  0.65275843642E+03  0.00000000000E+00 0. -1.
         21   -1    0    0  501  503 -0.00000000000E+00 -0.00000000000E+00 -0.71372388793E+02  0.71372388793E+02  0.00000000000E+00 0. -1.
          6    1    1    2  501    0  0.42631018984E+01  0.76250870597E+02  0.11614659482E+03  0.22192656622E+03  0.17300000000E+03 0. -1.
         -6    1    1    2    0  502 -0.42631018984E+01 -0.76250870597E+02  0.46523945281E+03  0.50220425900E+03  0.17300000000E+03 0. -1.
<mgrwt>
<rscale>  2 0.18910677E+03</rscale>
<asrwt>0</asrwt>
<pdfrwt beam="1">  1       21 0.10042437E+00 0.18910677E+03</pdfrwt>
<pdfrwt beam="2">  1       21 0.10980368E-01 0.18910677E+03</pdfrwt>
<totfact> 0.55973424E+04</totfact>
</mgrwt>
</event>
<event>
 4    1  0.4173994E+000  0.1856631E+03  0.7546771E-02  0.1162432E+00
         21   -1    0    0  503  502  0.00000000000E+00  0.00000000000E+00  0.46611513442E+02  0.46611513442E+02  0.00000000000E+00 0. -1.
         21   -1    0    0  501  503 -0.00000000000E+00 -0.00000000000E+00 -0.10751385282E+04  0.10751385282E+04  0.00000000000E+00 0. -1.
          6    1    1    2  501    0  0.14139525716E+02  0.65892728012E+02 -0.82762677425E+03  0.84819623628E+03  0.17300000000E+03 0. -1.
         -6    1    1    2    0  502 -0.14139525716E+02 -0.65892728012E+02 -0.20090024053E+03  0.27355380538E+03  0.17300000000E+03 0. -1.
<mgrwt>
<rscale>  2 0.18566308E+03</rscale>
<asrwt>0</asrwt>
<pdfrwt beam="1">  1       21 0.71710027E-02 0.18566308E+03</pdfrwt>
<pdfrwt beam="2">  1       21 0.16540591E+00 0.18566308E+03</pdfrwt>
<totfact> 0.33518682E+04</totfact>
</mgrwt>
</event>
<event>
 4    1  0.4173994E+000  0.2120430E+03  0.7546771E-02  0.1139958E+00
         21   -1    0    0  501  502  0.00000000000E+00  0.00000000000E+00  0.75363105641E+03  0.75363105641E+03  0.00000000000E+00 0. -1.
         21   -1    0    0  502  503 -0.00000000000E+00 -0.00000000000E+00 -0.59661249908E+02  0.59661249908E+02  0.00000000000E+00 0. -1.
          6    1    1    2  501    0 -0.95257989192E+02  0.77195508456E+02  0.34810274369E+03  0.40759998920E+03  0.17300000000E+03 0. -1.
         -6    1    1    2    0  503  0.95257989192E+02 -0.77195508456E+02  0.34586706281E+03  0.40569231712E+03  0.17300000000E+03 0. -1.
<mgrwt>
<rscale>  2 0.21204299E+03</rscale>
<asrwt>0</asrwt>
<pdfrwt beam="1">  1       21 0.11594323E+00 0.21204299E+03</pdfrwt>
<pdfrwt beam="2">  1       21 0.91786544E-02 0.21204299E+03</pdfrwt>
<totfact> 0.53697466E+04</totfact>
</mgrwt>
</event>
<event>
 4    1  0.4173994E+000  0.2308684E+03  0.7546771E-02  0.1126030E+00
         21   -1    0    0  501  502  0.00000000000E+00  0.00000000000E+00  0.13653557762E+04  0.13653557762E+04  0.00000000000E+00 0. -1.
         21   -1    0    0  502  503 -0.00000000000E+00 -0.00000000000E+00 -0.43449803319E+02  0.43449803319E+02  0.00000000000E+00 0. -1.
          6    1    1    2  501    0  0.13633335940E+03  0.69169669590E+02  0.88542094780E+03  0.91502485370E+03  0.17300000000E+03 0. -1.
         -6    1    1    2    0  503 -0.13633335940E+03 -0.69169669590E+02  0.43648502509E+03  0.49378072584E+03  0.17300000000E+03 0. -1.
<mgrwt>
<rscale>  2 0.23086842E+03</rscale>
<asrwt>0</asrwt>
<pdfrwt beam="1">  1       21 0.21005470E+00 0.23086842E+03</pdfrwt>
<pdfrwt beam="2">  1       21 0.66845862E-02 0.23086842E+03</pdfrwt>
<totfact> 0.18457400E+04</totfact>
</mgrwt>
</event>
<event>
 4    1  0.4173994E+000  0.1851526E+03  0.7546771E-02  0.1162907E+00
         21   -1    0    0  503  502  0.00000000000E+00  0.00000000000E+00  0.91666354375E+02  0.91666354375E+02  0.00000000000E+00 0. -1.
         21   -1    0    0  501  503 -0.00000000000E+00 -0.00000000000E+00 -0.37671106753E+03  0.37671106753E+03  0.00000000000E+00 0. -1.
          6    1    1    2  501    0  0.52675788780E+00 -0.65971223714E+02 -0.16245863822E+03  0.24632151543E+03  0.17300000000E+03 0. -1.
         -6    1    1    2    0  502 -0.52675788780E+00  0.65971223714E+02 -0.12258607494E+03  0.22205590647E+03  0.17300000000E+03 0. -1.
<mgrwt>
<rscale>  2 0.18515259E+03</rscale>
<asrwt>0</asrwt>
<pdfrwt beam="1">  1       21 0.14102516E-01 0.18515259E+03</pdfrwt>
<pdfrwt beam="2">  1       21 0.57955550E-01 0.18515259E+03</pdfrwt>
<totfact> 0.12278922E+05</totfact>
</mgrwt>
</event>
<event>
 4    1  0.4173994E+000  0.1908753E+03  0.7546771E-02  0.1157674E+00
         21   -1    0    0  503  502  0.00000000000E+00  0.00000000000E+00  0.97631336138E+02  0.97631336138E+02  0.00000000000E+00 0.  1.
         21   -1    0    0  501  503 -0.00000000000E+00 -0.00000000000E+00 -0.39925953189E+03  0.39925953189E+03  0.00000000000E+00 0.  1.
          6    1    1    2  501    0  0.70804110670E+02 -0.38615616171E+02 -0.21431951202E+03  0.28699519357E+03  0.17300000000E+03 0.  1.
         -6    1    1    2    0  502 -0.70804110670E+02  0.38615616171E+02 -0.87308683729E+02  0.20989567445E+03  0.17300000000E+03 0.  1.
<mgrwt>
<rscale>  2 0.19087532E+03</rscale>
<asrwt>0</asrwt>
<pdfrwt beam="1">  1       21 0.15020206E-01 0.19087532E+03</pdfrwt>
<pdfrwt beam="2">  1       21 0.61424543E-01 0.19087532E+03</pdfrwt>
<totfact> 0.96477442E+04</totfact>
</mgrwt>
</event>
<event>
 4    1  0.4173994E+000  0.1914924E+03  0.7546771E-02  0.1157122E+00
         21   -1    0    0  501  502  0.00000000000E+00  0.00000000000E+00  0.14877578229E+03  0.14877578229E+03  0.00000000000E+00 0.  1.
         21   -1    0    0  502  503 -0.00000000000E+00 -0.00000000000E+00 -0.25544380896E+03  0.25544380896E+03  0.00000000000E+00 0.  1.
          6    1    1    2  501    0 -0.37541868212E+02  0.73013422903E+02 -0.15460730035E+02  0.19211555368E+03  0.17300000000E+03 0.  1.
         -6    1    1    2    0  503  0.37541868212E+02 -0.73013422903E+02 -0.91207296642E+02  0.21210403757E+03  0.17300000000E+03 0.  1.
<mgrwt>
<rscale>  2 0.19149243E+03</rscale>
<asrwt>0</asrwt>
<pdfrwt beam="1">  1       21 0.22888582E-01 0.19149243E+03</pdfrwt>
<pdfrwt beam="2">  1       21 0.39299048E-01 0.19149243E+03</pdfrwt>
<totfact> 0.11186607E+05</totfact>
</mgrwt>
</event>
<event>
 4    1  0.4173994E+000  0.1899901E+03  0.7546771E-02  0.1158470E+00
         21   -1    0    0  501  502  0.00000000000E+00  0.00000000000E+00  0.50839024835E+02  0.50839024835E+02  0.00000000000E+00 0. -1.
         21   -1    0    0  502  503 -0.00000000000E+00 -0.00000000000E+00 -0.13366702814E+04  0.13366702814E+04  0.00000000000E+00 0. -1.
          6    1    1    2  501    0  0.78523570354E+02 -0.11360566467E+01 -0.16789805971E+03  0.25354684021E+03  0.17300000000E+03 0. -1.
         -6    1    1    2    0  503 -0.78523570354E+02  0.11360566467E+01 -0.11179331969E+04  0.11339624660E+04  0.17300000000E+03 0. -1.
<mgrwt>
<rscale>  2 0.18999011E+03</rscale>
<asrwt>0</asrwt>
<pdfrwt beam="1">  1       21 0.78213901E-02 0.18999011E+03</pdfrwt>
<pdfrwt beam="2">  1       21 0.20564154E+00 0.18999011E+03</pdfrwt>
<totfact> 0.15460099E+04</totfact>
</mgrwt>
</event>
<event>
 4    1  0.4173994E+000  0.1857478E+03  0.7546771E-02  0.1162353E+00
         21   -1    0    0  501  502  0.00000000000E+00  0.00000000000E+00  0.19083399689E+03  0.19083399689E+03  0.00000000000E+00 0. -1.
         21   -1    0    0  502  503 -0.00000000000E+00 -0.00000000000E+00 -0.18157509544E+03  0.18157509544E+03  0.00000000000E+00 0. -1.
          6    1    1    2  501    0  0.27578170366E+02  0.61746988255E+02 -0.75585343714E+01  0.18590152630E+03  0.17300000000E+03 0. -1.
         -6    1    1    2    0  503 -0.27578170366E+02 -0.61746988255E+02  0.16817435825E+02  0.18650756603E+03  0.17300000000E+03 0. -1.
<mgrwt>
<rscale>  2 0.18574780E+03</rscale>
<asrwt>0</asrwt>
<pdfrwt beam="1">  1       21 0.29359077E-01 0.18574780E+03</pdfrwt>
<pdfrwt beam="2">  1       21 0.27934630E-01 0.18574780E+03</pdfrwt>
<totfact> 0.13633000E+05</totfact>
</mgrwt>
</event>
<event>
 4    1  0.4173994E+000  0.2003505E+03  0.7546771E-02  0.1149444E+00
         21   -1    0    0  501  502  0.00000000000E+00  0.00000000000E+00  0.63117928353E+02  0.63117928353E+02  0.00000000000E+00 0. -1.
         21   -1    0    0  502  503 -0.00000000000E+00 -0.00000000000E+00 -0.68866423470E+03  0.68866423470E+03  0.00000000000E+00 0.  1.
          6    1    1    2  501    0  0.78560113044E+02  0.63558093734E+02 -0.41676304717E+03  0.46241946339E+03  0.17300000000E+03 0. -1.
         -6    1    1    2    0  503 -0.78560113044E+02 -0.63558093734E+02 -0.20878325918E+03  0.28936269966E+03  0.17300000000E+03 0. -1.
<mgrwt>
<rscale>  2 0.20035050E+03</rscale>
<asrwt>0</asrwt>
<pdfrwt beam="1">  1       21 0.97104499E-02 0.20035050E+03</pdfrwt>
<pdfrwt beam="2">  1       21 0.10594835E+00 0.20035050E+03</pdfrwt>
<totfact> 0.60873416E+04</totfact>
</mgrwt>
</event>
<event>
 4    1  0.4173994E+000  0.2134114E+03  0.7546771E-02  0.1138893E+00
         21   -1    0    0  503  502  0.00000000000E+00  0.00000000000E+00  0.15601363225E+03  0.15601363225E+03  0.00000000000E+00 0. -1.
         21   -1    0    0  501  503 -0.00000000000E+00 -0.00000000000E+00 -0.30105400688E+03  0.30105400688E+03  0.00000000000E+00 0.  1.
          6    1    1    2  501    0 -0.74587979974E+02  0.10026005590E+03 -0.11231392502E+03  0.24116148805E+03  0.17300000000E+03 0. -1.
         -6    1    1    2    0  502  0.74587979974E+02 -0.10026005590E+03 -0.32726449607E+02  0.21590615107E+03  0.17300000000E+03 0.  1.
<mgrwt>
<rscale>  2 0.21341145E+03</rscale>
<asrwt>0</asrwt>
<pdfrwt beam="1">  1       21 0.24002097E-01 0.21341145E+03</pdfrwt>
<pdfrwt beam="2">  1       21 0.46316001E-01 0.21341145E+03</pdfrwt>
<totfact> 0.72440627E+04</totfact>
</mgrwt>
</event>
<event>
 4    1  0.4173994E+000  0.1868247E+03  0.7546771E-02  0.1161357E+00
         21   -1    0    0  501  502  0.00000000000E+00  0.00000000000E+00  0.40685745412E+02  0.40685745412E+02  0.00000000000E+00 0. -1.
         21   -1    0    0  502  503 -0.00000000000E+00 -0.00000000000E+00 -0.10632471064E+04  0.10632471064E+04  0.00000000000E+00 0. -1.
          6    1    1    2  501    0  0.68688974912E+02  0.16008920506E+02 -0.26869694074E+03  0.32726366552E+03  0.17300000000E+03 0. -1.
         -6    1    1    2    0  503 -0.68688974912E+02 -0.16008920506E+02 -0.75386442027E+03  0.77666918631E+03  0.17300000000E+03 0. -1.
<mgrwt>
<rscale>  2 0.18682468E+03</rscale>
<asrwt>0</asrwt>
<pdfrwt beam="1">  1       21 0.62593468E-02 0.18682468E+03</pdfrwt>
<pdfrwt beam="2">  1       21 0.16357644E+00 0.18682468E+03</pdfrwt>
<totfact> 0.43627410E+04</totfact>
</mgrwt>
</event>
<event>
 4    1  0.4173994E+000  0.1889864E+03  0.7546771E-02  0.1159379E+00
         21   -1    0    0  501  502  0.00000000000E+00  0.00000000000E+00  0.90607317511E+03  0.90607317511E+03  0.00000000000E+00 0.  1.
         21   -1    0    0  502  503 -0.00000000000E+00 -0.00000000000E+00 -0.50683671413E+02  0.50683671413E+02  0.00000000000E+00 0.  1.
          6    1    1    2  501    0  0.75256077231E+02 -0.11107511775E+02  0.65322797437E+03  0.68001664720E+03  0.17300000000E+03 0.  1.
         -6    1    1    2    0  503 -0.75256077231E+02  0.11107511775E+02  0.20216152933E+03  0.27674019932E+03  0.17300000000E+03 0.  1.
<mgrwt>
<rscale>  2 0.18898639E+03</rscale>
<asrwt>0</asrwt>
<pdfrwt beam="1">  1       21 0.13939586E+00 0.18898639E+03</pdfrwt>
<pdfrwt beam="2">  1       21 0.77974886E-02 0.18898639E+03</pdfrwt>
<totfact> 0.45495606E+04</totfact>
</mgrwt>
</event>
<event>
 4    1  0.4173994E+000  0.1821827E+03  0.7546771E-02  0.1165707E+00
         21   -1    0    0  501  502  0.00000000000E+00  0.00000000000E+00  0.82919662842E+02  0.82919662842E+02  0.00000000000E+00 0. -1.
         21   -1    0    0  502  503 -0.00000000000E+00 -0.00000000000E+00 -0.47162148877E+03  0.47162148877E+03  0.00000000000E+00 0. -1.
          6    1    1    2  501    0 -0.22039162999E+02 -0.52685843119E+02 -0.86506257729E+02  0.20167760262E+03  0.17300000000E+03 0. -1.
         -6    1    1    2    0  503  0.22039162999E+02  0.52685843119E+02 -0.30219556820E+03  0.35286354900E+03  0.17300000000E+03 0. -1.
<mgrwt>
<rscale>  2 0.18218266E+03</rscale>
<asrwt>0</asrwt>
<pdfrwt beam="1">  1       21 0.12756871E-01 0.18218266E+03</pdfrwt>
<pdfrwt beam="2">  1       21 0.72557152E-01 0.18218266E+03</pdfrwt>
<totfact> 0.90383163E+04</totfact>
</mgrwt>
</event>
<event>
 4    1  0.4173994E+000  0.2370037E+03  0.7546771E-02  0.1121805E+00
         21   -1    0    0  503  502  0.00000000000E+00  0.00000000000E+00  0.39235007162E+03  0.39235007162E+03  0.00000000000E+00 0. -1.
         21   -1    0    0  501  503 -0.00000000000E+00 -0.00000000000E+00 -0.32200324356E+03  0.32200324356E+03  0.00000000000E+00 0. -1.
          6    1    1    2  501    0 -0.11897425228E+03  0.10994044340E+03 -0.23101136529E+03  0.33096378154E+03  0.17300000000E+03 0. -1.
         -6    1    1    2    0  502  0.11897425228E+03 -0.10994044340E+03  0.30135819335E+03  0.38338953364E+03  0.17300000000E+03 0. -1.
<mgrwt>
<rscale>  2 0.23700374E+03</rscale>
<asrwt>0</asrwt>
<pdfrwt beam="1">  1       21 0.60361549E-01 0.23700374E+03</pdfrwt>
<pdfrwt beam="2">  1       21 0.49538961E-01 0.23700374E+03</pdfrwt>
<totfact> 0.96562417E+03</totfact>
</mgrwt>
</event>
<event>
 4    1  0.4173994E+000  0.1809784E+03  0.7546771E-02  0.1166859E+00
         21   -1    0    0  501  502  0.00000000000E+00  0.00000000000E+00  0.89279438563E+03  0.89279438563E+03  0.00000000000E+00 0.  1.
         21   -1    0    0  502  503 -0.00000000000E+00 -0.00000000000E+00 -0.38643960160E+02  0.38643960160E+02  0.00000000000E+00 0.  1.
          6    1    1    2  501    0  0.19499155638E+02  0.49436472425E+02  0.53190131736E+03  0.56184712626E+03  0.17300000000E+03 0.  1.
         -6    1    1    2    0  503 -0.19499155638E+02 -0.49436472425E+02  0.32224910811E+03  0.36959121953E+03  0.17300000000E+03 0.  1.
<mgrwt>
<rscale>  2 0.18097840E+03</rscale>
<asrwt>0</asrwt>
<pdfrwt beam="1">  1       21 0.13735297E+00 0.18097840E+03</pdfrwt>
<pdfrwt beam="2">  1       21 0.59452253E-02 0.18097840E+03</pdfrwt>
<totfact> 0.75719476E+04</totfact>
</mgrwt>
</event>
<event>
 4    1  0.4173994E+000  0.1734570E+03  0.7546771E-02  0.1174290E+00
         21   -1    0    0  503  502  0.00000000000E+00  0.00000000000E+00  0.29621198850E+02  0.29621198850E+02  0.00000000000E+00 0. -1.
         21   -1    0    0  501  503 -0.00000000000E+00 -0.00000000000E+00 -0.10932735250E+04  0.10932735250E+04  0.00000000000E+00 0. -1.
          6    1    1    2  501    0  0.67710315125E+01 -0.10606075423E+02 -0.68134603853E+03  0.70307877221E+03  0.17300000000E+03 0. -1.
         -6    1    1    2    0  502 -0.67710315125E+01  0.10606075423E+02 -0.38230628764E+03  0.41981595166E+03  0.17300000000E+03 0. -1.
<mgrwt>
<rscale>  2 0.17345701E+03</rscale>
<asrwt>0</asrwt>
<pdfrwt beam="1">  1       21 0.45571074E-02 0.17345701E+03</pdfrwt>
<pdfrwt beam="2">  1       21 0.16819593E+00 0.17345701E+03</pdfrwt>
<totfact> 0.69891132E+04</totfact>
</mgrwt>
</event>
<event>
 4    1  0.4173994E+000  0.1772421E+03  0.7546771E-02  0.1170499E+00
         21   -1    0    0  503  502  0.00000000000E+00  0.00000000000E+00  0.13641324171E+04  0.13641324171E+04  0.00000000000E+00 0.  1.
         21   -1    0    0  501  503 -0.00000000000E+00 -0.00000000000E+00 -0.30365732215E+02  0.30365732215E+02  0.00000000000E+00 0.  1.
          6    1    1    2  501    0  0.33728102308E+02  0.18659057211E+02  0.32415946159E+03  0.36945108179E+03  0.17300000000E+03 0.  1.
         -6    1    1    2    0  502 -0.33728102308E+02 -0.18659057211E+02  0.10096072233E+04  0.10250470675E+04  0.17300000000E+03 0.  1.
<mgrwt>
<rscale>  2 0.17724205E+03</rscale>
<asrwt>0</asrwt>
<pdfrwt beam="1">  1       21 0.20986648E+00 0.17724205E+03</pdfrwt>
<pdfrwt beam="2">  1       21 0.46716522E-02 0.17724205E+03</pdfrwt>
<totfact> 0.35480140E+04</totfact>
</mgrwt>
</event>
<event>
 4    1  0.4173994E+000  0.1747807E+03  0.7546771E-02  0.1172952E+00
         21   -1    0    0  501  502  0.00000000000E+00  0.00000000000E+00  0.13123106498E+04  0.13123106498E+04  0.00000000000E+00 0.  1.
         21   -1    0    0  502  503 -0.00000000000E+00 -0.00000000000E+00 -0.24734444711E+02  0.24734444711E+02  0.00000000000E+00 0.  1.
          6    1    1    2  501    0  0.24783002554E+02  0.22605171297E+01  0.80599651127E+03  0.82472946069E+03  0.17300000000E+03 0.  1.
         -6    1    1    2    0  503 -0.24783002554E+02 -0.22605171297E+01  0.48157969377E+03  0.51231563377E+03  0.17300000000E+03 0.  1.
<mgrwt>
<rscale>  2 0.17478074E+03</rscale>
<asrwt>0</asrwt>
<pdfrwt beam="1">  1       21 0.20189389E+00 0.17478074E+03</pdfrwt>
<pdfrwt beam="2">  1       21 0.38053002E-02 0.17478074E+03</pdfrwt>
<totfact> 0.56280344E+04</totfact>
</mgrwt>
</event>
<event>
 4    1  0.4173994E+000  0.2183211E+03  0.7546771E-02  0.1135141E+00
         21   -1    0    0  501  502  0.00000000000E+00  0.00000000000E+00  0.59726873075E+03  0.59726873075E+03  0.00000000000E+00 0.  1.
         21   -1    0    0  502  503 -0.00000000000E+00 -0.00000000000E+00 -0.79865688633E+02  0.79865688633E+02  0.00000000000E+00 0. -1.
          6    1    1    2  501    0 -0.13315641269E+03  0.21098960078E+01  0.24924717746E+03  0.33134308107E+03  0.17300000000E+03 0.  1.
         -6    1    1    2    0  503  0.13315641269E+03 -0.21098960078E+01  0.26815586465E+03  0.34579133831E+03  0.17300000000E+03 0. -1.
<mgrwt>
<rscale>  2 0.21832105E+03</rscale>
<asrwt>0</asrwt>
<pdfrwt beam="1">  1       21 0.91887494E-01 0.21832105E+03</pdfrwt>
<pdfrwt beam="2">  1       21 0.12287029E-01 0.21832105E+03</pdfrwt>
<totfact> 0.55625047E+04</totfact>
</mgrwt>
</event>
<event>
 4    1  0.4173994E+000  0.1999192E+03  0.7546771E-02  0.1149807E+00
         21   -1    0    0  501  502  0.00000000000E+00  0.00000000000E+00  0.28405335814E+03  0.28405335814E+03  0.00000000000E+00 0. -1.
         21   -1    0    0  502  503 -0.00000000000E+00 -0.00000000000E+00 -0.14070630343E+03  0.14070630343E+03  0.00000000000E+00 0. -1.
          6    1    1    2  501    0 -0.55789976551E+02 -0.83223479665E+02  0.72369288403E+02  0.21261463486E+03  0.17300000000E+03 0. -1.
         -6    1    1    2    0  503  0.55789976551E+02  0.83223479665E+02  0.70977766303E+02  0.21214502672E+03  0.17300000000E+03 0. -1.
<mgrwt>
<rscale>  2 0.19991916E+03</rscale>
<asrwt>0</asrwt>
<pdfrwt beam="1">  1       21 0.43700517E-01 0.19991916E+03</pdfrwt>
<pdfrwt beam="2">  1       21 0.21647124E-01 0.19991916E+03</pdfrwt>
<totfact> 0.99842510E+04</totfact>
</mgrwt>
</event>
<event>
 4    1  0.4173994E+000  0.2970989E+03  0.7546771E-02  0.1086700E+00
         21   -1    0    0  503  502  0.00000000000E+00  0.00000000000E+00  0.25660054236E+04  0.25660054236E+04  0.00000000000E+00 0. -1.
         21   -1    0    0  501  503 -0.00000000000E+00 -0.00000000000E+00 -0.43076513457E+02  0.43076513457E+02  0.00000000000E+00 0.  1.
          6    1    1    2  501    0 -0.20436142276E+03  0.12874447989E+03  0.67594961085E+03  0.73836008060E+03  0.17300000000E+03 0.  1.
         -6    1    1    2    0  502  0.20436142276E+03 -0.12874447989E+03  0.18469792993E+04  0.18707218565E+04  0.17300000000E+03 0. -1.
<mgrwt>
<rscale>  2 0.29709886E+03</rscale>
<asrwt>0</asrwt>
<pdfrwt beam="1">  1       21 0.39476995E+00 0.29709886E+03</pdfrwt>
<pdfrwt beam="2">  1       21 0.66271579E-02 0.29709886E+03</pdfrwt>
<totfact> 0.13791348E+03</totfact>
</mgrwt>
</event>
<event>
 4    1  0.4173994E+000  0.1905198E+03  0.7546771E-02  0.1157993E+00
         21   -1    0    0  503  502  0.00000000000E+00  0.00000000000E+00  0.18282857598E+04  0.18282857598E+04  0.00000000000E+00 0. -1.
         21   -1    0    0  501  503 -0.00000000000E+00 -0.00000000000E+00 -0.40016879344E+02  0.40016879344E+02  0.00000000000E+00 0. -1.
          6    1    1    2  501    0  0.29456021900E+02 -0.74169536134E+02  0.23103625872E+03  0.29945872864E+03  0.17300000000E+03 0. -1.
         -6    1    1    2    0  502 -0.29456021900E+02  0.74169536134E+02  0.15572326217E+04  0.15688439105E+04  0.17300000000E+03 0. -1.
<mgrwt>
<rscale>  2 0.19051976E+03</rscale>
<asrwt>0</asrwt>
<pdfrwt beam="1">  1       21 0.28127467E+00 0.19051976E+03</pdfrwt>
<pdfrwt beam="2">  1       21 0.61564444E-02 0.19051976E+03</pdfrwt>
<totfact> 0.82740435E+03</totfact>
</mgrwt>
</event>
<event>
 4    1  0.4173994E+000  0.1919499E+03  0.7546771E-02  0.1156714E+00
         21   -1    0    0  501  502  0.00000000000E+00  0.00000000000E+00  0.72241930039E+03  0.72241930039E+03  0.00000000000E+00 0. -1.
         21   -1    0    0  502  503 -0.00000000000E+00 -0.00000000000E+00 -0.55182870663E+02  0.55182870663E+02  0.00000000000E+00 0. -1.
          6    1    1    2  501    0  0.17882944119E+02  0.81215453889E+02  0.22659834775E+03  0.29697063970E+03  0.17300000000E+03 0. -1.
         -6    1    1    2    0  503 -0.17882944119E+02 -0.81215453889E+02  0.44063808198E+03  0.48063153136E+03  0.17300000000E+03 0. -1.
<mgrwt>
<rscale>  2 0.19194986E+03</rscale>
<asrwt>0</asrwt>
<pdfrwt beam="1">  1       21 0.11114142E+00 0.19194986E+03</pdfrwt>
<pdfrwt beam="2">  1       21 0.84896729E-02 0.19194986E+03</pdfrwt>
<totfact> 0.68941194E+04</totfact>
</mgrwt>
</event>
<event>
 4    1  0.4173994E+000  0.2545864E+03  0.7546771E-02  0.1110440E+00
         21   -1    0    0  501  502  0.00000000000E+00  0.00000000000E+00  0.13551565738E+03  0.13551565738E+03  0.00000000000E+00 0. -1.
         21   -1    0    0  502  503 -0.00000000000E+00 -0.00000000000E+00 -0.67887256619E+03  0.67887256619E+03  0.00000000000E+00 0.  1.
          6    1    1    2  501    0 -0.10016511302E+03  0.15764579348E+03 -0.50335228456E+02  0.25951470342E+03  0.17300000000E+03 0. -1.
         -6    1    1    2    0  503  0.10016511302E+03 -0.15764579348E+03 -0.49302168035E+03  0.55487352015E+03  0.17300000000E+03 0.  1.
<mgrwt>
<rscale>  2 0.25458642E+03</rscale>
<asrwt>0</asrwt>
<pdfrwt beam="1">  1       21 0.20848562E-01 0.25458642E+03</pdfrwt>
<pdfrwt beam="2">  1       21 0.10444193E+00 0.25458642E+03</pdfrwt>
<totfact> 0.15236780E+04</totfact>
</mgrwt>
</event>
<event>
 4    1  0.4173994E+000  0.2014495E+03  0.7546771E-02  0.1148522E+00
         21   -1    0    0  501  502  0.00000000000E+00  0.00000000000E+00  0.40668665133E+02  0.40668665133E+02  0.00000000000E+00 0. -1.
         21   -1    0    0  502  503 -0.00000000000E+00 -0.00000000000E+00 -0.13869382653E+04  0.13869382653E+04  0.00000000000E+00 0.  1.
          6    1    1    2  501    0  0.10220236246E+03  0.14407036838E+02 -0.29507097679E+03  0.35727967609E+03  0.17300000000E+03 0. -1.
         -6    1    1    2    0  503 -0.10220236246E+03 -0.14407036838E+02 -0.10511986234E+04  0.10703272544E+04  0.17300000000E+03 0.  1.
<mgrwt>
<rscale>  2 0.20144946E+03</rscale>
<asrwt>0</asrwt>
<pdfrwt beam="1">  1       21 0.62567174E-02 0.20144946E+03</pdfrwt>
<pdfrwt beam="2">  1       21 0.21337513E+00 0.20144946E+03</pdfrwt>
<totfact> 0.20146874E+04</totfact>
</mgrwt>
</event>
<event>
 4    1  0.4173994E+000  0.3079710E+03  0.7546771E-02  0.1081322E+00
         21   -1    0    0  501  502  0.00000000000E+00  0.00000000000E+00  0.61525033433E+03  0.61525033433E+03  0.00000000000E+00 0.  1.
         21   -1    0    0  502  503 -0.00000000000E+00 -0.00000000000E+00 -0.17542379997E+03  0.17542379997E+03  0.00000000000E+00 0. -1.
          6    1    1    2  501    0 -0.20922881997E+03 -0.14539761917E+03  0.35755730599E+03  0.47190400913E+03  0.17300000000E+03 0.  1.
         -6    1    1    2    0  503  0.20922881997E+03  0.14539761917E+03  0.82269228372E+02  0.31877012517E+03  0.17300000000E+03 0. -1.
<mgrwt>
<rscale>  2 0.30797105E+03</rscale>
<asrwt>0</asrwt>
<pdfrwt beam="1">  1       21 0.94653896E-01 0.30797105E+03</pdfrwt>
<pdfrwt beam="2">  1       21 0.26988277E-01 0.30797105E+03</pdfrwt>
<totfact> 0.11467745E+04</totfact>
</mgrwt>
</event>
<event>
 4    1  0.4173994E+000  0.1941047E+03  0.7546771E-02  0.1154810E+00
         21   -1    0    0  503  502  0.00000000000E+00  0.00000000000E+00  0.52848005288E+03  0.52848005288E+03  0.00000000000E+00 0. -1.
         21   -1    0    0  501  503 -0.00000000000E+00 -0.00000000000E+00 -0.76211868603E+02  0.76211868603E+02  0.00000000000E+00 0. -1.
          6    1    1    2  501    0  0.86019522551E+02 -0.18661818094E+02  0.14931819723E+03  0.24489292709E+03  0.17300000000E+03 0. -1.
         -6    1    1    2    0  502 -0.86019522551E+02  0.18661818094E+02  0.30294998705E+03  0.35979899440E+03  0.17300000000E+03 0. -1.
<mgrwt>
<rscale>  2 0.19410467E+03</rscale>
<asrwt>0</asrwt>
<pdfrwt beam="1">  1       21 0.81304621E-01 0.19410467E+03</pdfrwt>
<pdfrwt beam="2">  1       21 0.11724903E-01 0.19410467E+03</pdfrwt>
<totfact> 0.81052365E+04</totfact>
</mgrwt>
</event>
<event>
 4    1  0.4173994E+000  0.2299533E+03  0.7546771E-02  0.1126673E+00
         21   -1    0    0  501  502  0.00000000000E+00  0.00000000000E+00  0.27671732181E+02  0.27671732181E+02  0.00000000000E+00 0. -1.
         21   -1    0    0  502  503 -0.00000000000E+00 -0.00000000000E+00 -0.19413838904E+04  0.19413838904E+04  0.00000000000E+00 0.  1.
          6    1    1    2  501    0 -0.58497648473E+02 -0.13974101718E+03 -0.10801805972E+04  0.11043860961E+04  0.17300000000E+03 0. -1.
         -6    1    1    2    0  503  0.58497648473E+02  0.13974101718E+03 -0.83353156101E+03  0.86466952644E+03  0.17300000000E+03 0.  1.
<mgrwt>
<rscale>  2 0.22995331E+03</rscale>
<asrwt>0</asrwt>
<pdfrwt beam="1">  1       21 0.42571878E-02 0.22995331E+03</pdfrwt>
<pdfrwt beam="2">  1       21 0.29867457E+00 0.22995331E+03</pdfrwt>
<totfact> 0.11819221E+04</totfact>
</mgrwt>
</event>
<event>
 4    1  0.4173994E+000  0.2548587E+03  0.7546771E-02  0.1110272E+00
         21   -1    0    0  503  502  0.00000000000E+00  0.00000000000E+00  0.11424241959E+03  0.11424241959E+03  0.00000000000E+00 0.  1.
         21   -1    0    0  501  503 -0.00000000000E+00 -0.00000000000E+00 -0.75345963391E+03  0.75345963391E+03  0.00000000000E+00 0.  1.
          6    1    1    2  501    0  0.18373953807E+03 -0.35549216936E+02 -0.53453310047E+03  0.59218122240E+03  0.17300000000E+03 0.  1.
         -6    1    1    2    0  502 -0.18373953807E+03  0.35549216936E+02 -0.10468411385E+03  0.27552083109E+03  0.17300000000E+03 0.  1.
<mgrwt>
<rscale>  2 0.25485872E+03</rscale>
<asrwt>0</asrwt>
<pdfrwt beam="1">  1       21 0.17575756E-01 0.25485872E+03</pdfrwt>
<pdfrwt beam="2">  1       21 0.11591687E+00 0.25485872E+03</pdfrwt>
<totfact> 0.16261721E+04</totfact>
</mgrwt>
</event>
<event>
 4    1  0.4173994E+000  0.2385654E+03  0.7546771E-02  0.1120752E+00
         21   -1    0    0  503  502  0.00000000000E+00  0.00000000000E+00  0.51436788749E+03  0.51436788749E+03  0.00000000000E+00 0.  1.
         21   -1    0    0  501  503 -0.00000000000E+00 -0.00000000000E+00 -0.13760623354E+03  0.13760623354E+03  0.00000000000E+00 0. -1.
          6    1    1    2  501    0  0.16169207789E+03  0.28985174592E+02  0.44092275967E+02  0.24260584741E+03  0.17300000000E+03 0. -1.
         -6    1    1    2    0  502 -0.16169207789E+03 -0.28985174592E+02  0.33266937798E+03  0.40936827362E+03  0.17300000000E+03 0.  1.
<mgrwt>
<rscale>  2 0.23856544E+03</rscale>
<asrwt>0</asrwt>
<pdfrwt beam="1">  1       21 0.79133520E-01 0.23856544E+03</pdfrwt>
<pdfrwt beam="2">  1       21 0.21170190E-01 0.23856544E+03</pdfrwt>
<totfact> 0.28550933E+04</totfact>
</mgrwt>
</event>
<event>
 4    1  0.4173994E+000  0.1851351E+03  0.7546771E-02  0.1162924E+00
         21   -1    0    0  503  502  0.00000000000E+00  0.00000000000E+00  0.48123262945E+03  0.48123262945E+03  0.00000000000E+00 0.  1.
         21   -1    0    0  501  503 -0.00000000000E+00 -0.00000000000E+00 -0.86191763119E+02  0.86191763119E+02  0.00000000000E+00 0. -1.
          6    1    1    2  501    0  0.20339666859E+02 -0.62708205895E+02  0.79289159876E+02  0.20139958294E+03  0.17300000000E+03 0. -1.
         -6    1    1    2    0  502 -0.20339666859E+02  0.62708205895E+02  0.31575170646E+03  0.36602480963E+03  0.17300000000E+03 0.  1.
<mgrwt>
<rscale>  2 0.18513514E+03</rscale>
<asrwt>0</asrwt>
<pdfrwt beam="1">  1       21 0.74035788E-01 0.18513514E+03</pdfrwt>
<pdfrwt beam="2">  1       21 0.13260272E-01 0.18513514E+03</pdfrwt>
<totfact> 0.80515788E+04</totfact>
</mgrwt>
</event>
<event>
 4    1  0.4173994E+000  0.2048196E+03  0.7546771E-02  0.1145735E+00
         21   -1    0    0  501  502  0.00000000000E+00  0.00000000000E+00  0.21515030140E+03  0.21515030140E+03  0.00000000000E+00 0.  1.
         21   -1    0    0  502  503 -0.00000000000E+00 -0.00000000000E+00 -0.43416371960E+03  0.43416371960E+03  0.00000000000E+00 0.  1.
          6    1    1    2  501    0 -0.13688086084E+01 -0.10963663770E+03  0.13146128063E+03  0.24337858218E+03  0.17300000000E+03 0.  1.
         -6    1    1    2    0  503  0.13688086084E+01  0.10963663770E+03 -0.35047469883E+03  0.40593543881E+03  0.17300000000E+03 0.  1.
<mgrwt>
<rscale>  2 0.20481959E+03</rscale>
<asrwt>0</asrwt>
<pdfrwt beam="1">  1       21 0.33100046E-01 0.20481959E+03</pdfrwt>
<pdfrwt beam="2">  1       21 0.66794419E-01 0.20481959E+03</pdfrwt>
<totfact> 0.17913814E+04</totfact>
</mgrwt>
</event>
<event>
 4    1  0.4173994E+000  0.2779136E+03  0.7546771E-02  0.1096834E+00
         21   -1    0    0  501  502  0.00000000000E+00  0.00000000000E+00  0.16541480271E+03  0.16541480271E+03  0.00000000000E+00 0. -1.
         21   -1    0    0  502  503 -0.00000000000E+00 -0.00000000000E+00 -0.56202708722E+03  0.56202708722E+03  0.00000000000E+00 0.  1.
          6    1    1    2  501    0 -0.21585761709E+03  0.26691970656E+02 -0.48686252595E+02  0.28214592562E+03  0.17300000000E+03 0. -1.
         -6    1    1    2    0  503  0.21585761709E+03 -0.26691970656E+02 -0.34792603191E+03  0.44529596431E+03  0.17300000000E+03 0.  1.
<mgrwt>
<rscale>  2 0.27791361E+03</rscale>
<asrwt>0</asrwt>
<pdfrwt beam="1">  1       21 0.25448431E-01 0.27791361E+03</pdfrwt>
<pdfrwt beam="2">  1       21 0.86465706E-01 0.27791361E+03</pdfrwt>
<totfact> 0.16101150E+04</totfact>
</mgrwt>
</event>
<event>
 4    1  0.4173994E+000  0.1765561E+03  0.7546771E-02  0.1171178E+00
         21   -1    0    0  501  502  0.00000000000E+00  0.00000000000E+00  0.62252099033E+03  0.62252099033E+03  0.00000000000E+00 0.  1.
         21   -1    0    0  502  503 -0.00000000000E+00 -0.00000000000E+00 -0.50251098300E+02  0.50251098300E+02  0.00000000000E+00 0.  1.
          6    1    1    2  501    0 -0.34664408250E+02 -0.64361794541E+01  0.30611106569E+03  0.35337802725E+03  0.17300000000E+03 0.  1.
         -6    1    1    2    0  503  0.34664408250E+02  0.64361794541E+01  0.26615882633E+03  0.31939406137E+03  0.17300000000E+03 0.  1.
<mgrwt>
<rscale>  2 0.17655607E+03</rscale>
<asrwt>0</asrwt>
<pdfrwt beam="1">  1       21 0.95772454E-01 0.17655607E+03</pdfrwt>
<pdfrwt beam="2">  1       21 0.77309387E-02 0.17655607E+03</pdfrwt>
<totfact> 0.11648997E+05</totfact>
</mgrwt>
</event>
<event>
 4    1  0.4173994E+000  0.1861353E+03  0.7546771E-02  0.1161994E+00
         21   -1    0    0  501  502  0.00000000000E+00  0.00000000000E+00  0.87014358268E+02  0.87014358268E+02  0.00000000000E+00 0. -1.
         21   -1    0    0  502  503 -0.00000000000E+00 -0.00000000000E+00 -0.67681417329E+03  0.67681417329E+03  0.00000000000E+00 0. -1.
          6    1    1    2  501    0  0.69445450870E+01 -0.68331007871E+02 -0.49848321280E+02  0.19269459898E+03  0.17300000000E+03 0. -1.
         -6    1    1    2    0  503 -0.69445450870E+01  0.68331007871E+02 -0.53995149375E+03  0.57113393258E+03  0.17300000000E+03 0. -1.
<mgrwt>
<rscale>  2 0.18613531E+03</rscale>
<asrwt>0</asrwt>
<pdfrwt beam="1">  1       21 0.13386825E-01 0.18613531E+03</pdfrwt>
<pdfrwt beam="2">  1       21 0.10412525E+00 0.18613531E+03</pdfrwt>
<totfact> 0.36066940E+04</totfact>
</mgrwt>
</event>
<event>
 4    1  0.4173994E+000  0.2048579E+03  0.7546771E-02  0.1145704E+00
         21   -1    0    0  501  502  0.00000000000E+00  0.00000000000E+00  0.10794042270E+03  0.10794042270E+03  0.00000000000E+00 0.  1.
         21   -1    0    0  502  503 -0.00000000000E+00 -0.00000000000E+00 -0.39369484805E+03  0.39369484805E+03  0.00000000000E+00 0.  1.
          6    1    1    2  501    0  0.99095176974E+01 -0.10926838061E+03 -0.11489794828E+03  0.23487936491E+03  0.17300000000E+03 0. -1.
         -6    1    1    2    0  503 -0.99095176974E+01  0.10926838061E+03 -0.17085647708E+03  0.26675590584E+03  0.17300000000E+03 0. -1.
<mgrwt>
<rscale>  2 0.20485794E+03</rscale>
<asrwt>0</asrwt>
<pdfrwt beam="1">  1       21 0.16606219E-01 0.20485794E+03</pdfrwt>
<pdfrwt beam="2">  1       21 0.60568439E-01 0.20485794E+03</pdfrwt>
<totfact> 0.82268528E+04</totfact>
</mgrwt>
</event>
<event>
 4    1  0.4173994E+000  0.2022624E+03  0.7546771E-02  0.1147844E+00
         21   -1    0    0  503  502  0.00000000000E+00  0.00000000000E+00  0.23499479829E+03  0.23499479829E+03  0.00000000000E+00 0. -1.
         21   -1    0    0  501  503 -0.00000000000E+00 -0.00000000000E+00 -0.75157414052E+03  0.75157414052E+03  0.00000000000E+00 0.  1.
          6    1    1    2  501    0  0.10440690246E+03  0.89590400845E+01 -0.69068584736E+03  0.71969229913E+03  0.17300000000E+03 0.  1.
         -6    1    1    2    0  502 -0.10440690246E+03 -0.89590400845E+01  0.17410650513E+03  0.26687663968E+03  0.17300000000E+03 0. -1.
<mgrwt>
<rscale>  2 0.20226237E+03</rscale>
<asrwt>0</asrwt>
<pdfrwt beam="1">  1       21 0.36153046E-01 0.20226237E+03</pdfrwt>
<pdfrwt beam="2">  1       21 0.11562679E+00 0.20226237E+03</pdfrwt>
<totfact> 0.42349079E+03</totfact>
</mgrwt>
</event>
<event>
 4    1  0.4173994E+000  0.2269007E+03  0.7546771E-02  0.1128840E+00
         21   -1    0    0  501  502  0.00000000000E+00  0.00000000000E+00  0.91793445607E+02  0.91793445607E+02  0.00000000000E+00 0.  1.
         21   -1    0    0  502  503 -0.00000000000E+00 -0.00000000000E+00 -0.59989690450E+03  0.59989690450E+03  0.00000000000E+00 0.  1.
          6    1    1    2  501    0  0.14635705893E+03 -0.11599976398E+02 -0.16583720184E+03  0.28104434822E+03  0.17300000000E+03 0.  1.
         -6    1    1    2    0  503 -0.14635705893E+03  0.11599976398E+02 -0.34226625705E+03  0.41064600188E+03  0.17300000000E+03 0.  1.
<mgrwt>
<rscale>  2 0.22690075E+03</rscale>
<asrwt>0</asrwt>
<pdfrwt beam="1">  1       21 0.14122069E-01 0.22690075E+03</pdfrwt>
<pdfrwt beam="2">  1       21 0.92291832E-01 0.22690075E+03</pdfrwt>
<totfact> 0.42635840E+04</totfact>
</mgrwt>
</event>
<event>
 4    1  0.4173994E+000  0.2218521E+03  0.7546771E-02  0.1132510E+00
         21   -1    0    0  501  502  0.00000000000E+00  0.00000000000E+00  0.30766182688E+03  0.30766182688E+03  0.00000000000E+00 0.  1.
         21   -1    0    0  502  503 -0.00000000000E+00 -0.00000000000E+00 -0.25853592016E+03  0.25853592016E+03  0.00000000000E+00 0. -1.
          6    1    1    2  501    0 -0.73873901748E+02 -0.11760957962E+03  0.19935790403E+03  0.29826488308E+03  0.17300000000E+03 0.  1.
         -6    1    1    2    0  503  0.73873901748E+02  0.11760957962E+03 -0.15023199730E+03  0.26793286396E+03  0.17300000000E+03 0. -1.
<mgrwt>
<rscale>  2 0.22185213E+03</rscale>
<asrwt>0</asrwt>
<pdfrwt beam="1">  1       21 0.47332589E-01 0.22185213E+03</pdfrwt>
<pdfrwt beam="2">  1       21 0.39774757E-01 0.22185213E+03</pdfrwt>
<totfact> 0.25600191E+04</totfact>
</mgrwt>
</event>
<event>
 4    1  0.4173994E+000  0.1959834E+03  0.7546771E-02  0.1153173E+00
         21   -1    0    0  503  502  0.00000000000E+00  0.00000000000E+00  0.18652340744E+03  0.18652340744E+03  0.00000000000E+00 0. -1.
         21   -1    0    0  501  503 -0.00000000000E+00 -0.00000000000E+00 -0.63038130675E+03  0.63038130675E+03  0.00000000000E+00 0. -1.
          6    1    1    2  501    0 -0.41381859676E+01  0.91996515112E+02 -0.55709282015E+03  0.59056066042E+03  0.17300000000E+03 0. -1.
         -6    1    1    2    0  502  0.41381859676E+01 -0.91996515112E+02  0.11323492084E+03  0.22634405376E+03  0.17300000000E+03 0. -1.
<mgrwt>
<rscale>  2 0.19598338E+03</rscale>
<asrwt>0</asrwt>
<pdfrwt beam="1">  1       21 0.28695908E-01 0.19598338E+03</pdfrwt>
<pdfrwt beam="2">  1       21 0.96981741E-01 0.19598338E+03</pdfrwt>
<totfact> 0.10229496E+04</totfact>
</mgrwt>
</event>
<event>
 4    1  0.4173994E+000  0.2063541E+03  0.7546771E-02  0.1144486E+00
         21   -1    0    0  503  502  0.00000000000E+00  0.00000000000E+00  0.95813892630E+03  0.95813892630E+03  0.00000000000E+00 0. -1.
         21   -1    0    0  501  503 -0.00000000000E+00 -0.00000000000E+00 -0.44461807245E+02  0.44461807245E+02  0.00000000000E+00 0. -1.
          6    1    1    2  501    0  0.16180870458E+02  0.11131572122E+03  0.46730715672E+03  0.51084047322E+03  0.17300000000E+03 0. -1.
         -6    1    1    2    0  502 -0.16180870458E+02 -0.11131572122E+03  0.44636996234E+03  0.49176026033E+03  0.17300000000E+03 0. -1.
<mgrwt>
<rscale>  2 0.20635409E+03</rscale>
<asrwt>0</asrwt>
<pdfrwt beam="1">  1       21 0.14740597E+00 0.20635409E+03</pdfrwt>
<pdfrwt beam="2">  1       21 0.68402787E-02 0.20635409E+03</pdfrwt>
<totfact> 0.48877054E+04</totfact>
</mgrwt>
</event>
<event>
 4    1  0.4173994E+000  0.2618212E+03  0.7546771E-02  0.1106054E+00
         21   -1    0    0  503  502  0.00000000000E+00  0.00000000000E+00  0.22023749212E+03  0.22023749212E+03  0.00000000000E+00 0. -1.
         21   -1    0    0  501  503 -0.00000000000E+00 -0.00000000000E+00 -0.31338439792E+03  0.31338439792E+03  0.00000000000E+00 0. -1.
          6    1    1    2  501    0 -0.14093645214E+03  0.13696079757E+03 -0.68559328091E+02  0.27064871158E+03  0.17300000000E+03 0. -1.
         -6    1    1    2    0  502  0.14093645214E+03 -0.13696079757E+03 -0.24587577707E+02  0.26297317846E+03  0.17300000000E+03 0. -1.
<mgrwt>
<rscale>  2 0.26182121E+03</rscale>
<asrwt>0</asrwt>
<pdfrwt beam="1">  1       21 0.33882691E-01 0.26182121E+03</pdfrwt>
<pdfrwt beam="2">  1       21 0.48212984E-01 0.26182121E+03</pdfrwt>
<totfact> 0.33371656E+04</totfact>
</mgrwt>
</event>
<event>
 4    1  0.4173994E+000  0.1940621E+03  0.7546771E-02  0.1154848E+00
         21   -1    0    0  501  502  0.00000000000E+00  0.00000000000E+00  0.20587724317E+03  0.20587724317E+03  0.00000000000E+00 0.  1.
         21   -1    0    0  502  503 -0.00000000000E+00 -0.00000000000E+00 -0.18741482760E+03  0.18741482760E+03  0.00000000000E+00 0. -1.
          6    1    1    2  501    0  0.30672690895E+02 -0.82403245113E+02 -0.21205295001E+02  0.19521724644E+03  0.17300000000E+03 0. -1.
         -6    1    1    2    0  503 -0.30672690895E+02  0.82403245113E+02  0.39667710575E+02  0.19807482433E+03  0.17300000000E+03 0.  1.
<mgrwt>
<rscale>  2 0.19406213E+03</rscale>
<asrwt>0</asrwt>
<pdfrwt beam="1">  1       21 0.31673422E-01 0.19406213E+03</pdfrwt>
<pdfrwt beam="2">  1       21 0.28833050E-01 0.19406213E+03</pdfrwt>
<totfact> 0.11025862E+05</totfact>
</mgrwt>
</event>
<event>
 4    1  0.4173994E+000  0.1780750E+03  0.7546771E-02  0.1169679E+00
         21   -1    0    0  503  502  0.00000000000E+00  0.00000000000E+00  0.27220172260E+03  0.27220172260E+03  0.00000000000E+00 0. -1.
         21   -1    0    0  501  503 -0.00000000000E+00 -0.00000000000E+00 -0.17093153504E+03  0.17093153504E+03  0.00000000000E+00 0. -1.
          6    1    1    2  501    0 -0.73997835577E+01 -0.41556520355E+02 -0.74399521357E+02  0.19299220181E+03  0.17300000000E+03 0. -1.
         -6    1    1    2    0  502  0.73997835577E+01  0.41556520355E+02  0.17566970892E+03  0.25014105583E+03  0.17300000000E+03 0. -1.
<mgrwt>
<rscale>  2 0.17807499E+03</rscale>
<asrwt>0</asrwt>
<pdfrwt beam="1">  1       21 0.41877188E-01 0.17807499E+03</pdfrwt>
<pdfrwt beam="2">  1       21 0.26297159E-01 0.17807499E+03</pdfrwt>
<totfact> 0.75923044E+04</totfact>
</mgrwt>
</event>
<event>
 4    1  0.4173994E+000  0.2640460E+03  0.7546771E-02  0.1104736E+00
         21   -1    0    0  501  502  0.00000000000E+00  0.00000000000E+00  0.11112604036E+04  0.11112604036E+04  0.00000000000E+00 0.  1.
         21   -1    0    0  502  503 -0.00000000000E+00 -0.00000000000E+00 -0.13164930435E+03  0.13164930435E+03  0.00000000000E+00 0.  1.
          6    1    1    2  501    0 -0.12337014679E+03 -0.15675173028E+03  0.93941946341E+03  0.97582233337E+03  0.17300000000E+03 0.  1.
         -6    1    1    2    0  503  0.12337014679E+03  0.15675173028E+03  0.40191635841E+02  0.26708737458E+03  0.17300000000E+03 0.  1.
<mgrwt>
<rscale>  2 0.26404602E+03</rscale>
<asrwt>0</asrwt>
<pdfrwt beam="1">  1       21 0.17096313E+00 0.26404602E+03</pdfrwt>
<pdfrwt beam="2">  1       21 0.20253740E-01 0.26404602E+03</pdfrwt>
<totfact> 0.44825853E+03</totfact>
</mgrwt>
</event>
<event>
 4    1  0.4173994E+000  0.2586001E+03  0.7546771E-02  0.1107987E+00
         21   -1    0    0  501  502  0.00000000000E+00  0.00000000000E+00  0.19335157782E+04  0.19335157782E+04  0.00000000000E+00 0. -1.
         21   -1    0    0  502  503 -0.00000000000E+00 -0.00000000000E+00 -0.40243411582E+02  0.40243411582E+02  0.00000000000E+00 0. -1.
          6    1    1    2  501    0  0.15536599912E+03  0.11316554851E+03  0.13166319114E+04  0.13417874740E+04  0.17300000000E+03 0. -1.
         -6    1    1    2    0  503 -0.15536599912E+03 -0.11316554851E+03  0.57664045520E+03  0.63197171584E+03  0.17300000000E+03 0. -1.
<mgrwt>
<rscale>  2 0.25860015E+03</rscale>
<asrwt>0</asrwt>
<pdfrwt beam="1">  1       21 0.29746389E+00 0.25860015E+03</pdfrwt>
<pdfrwt beam="2">  1       21 0.61912956E-02 0.25860015E+03</pdfrwt>
<totfact> 0.61850647E+03</totfact>
</mgrwt>
</event>
<event>
 4    1  0.4173994E+000  0.2006138E+03  0.7546771E-02  0.1149222E+00
         21   -1    0    0  501  502  0.00000000000E+00  0.00000000000E+00  0.10870638694E+03  0.10870638694E+03  0.00000000000E+00 0.  1.
         21   -1    0    0  502  503 -0.00000000000E+00 -0.00000000000E+00 -0.37024766781E+03  0.37024766781E+03  0.00000000000E+00 0.  1.
          6    1    1    2  501    0 -0.65863537888E+02  0.77323384629E+02 -0.13261015906E+03  0.24048152885E+03  0.17300000000E+03 0.  1.
         -6    1    1    2    0  503  0.65863537888E+02 -0.77323384629E+02 -0.12893112181E+03  0.23847252589E+03  0.17300000000E+03 0.  1.
<mgrwt>
<rscale>  2 0.20061384E+03</rscale>
<asrwt>0</asrwt>
<pdfrwt beam="1">  1       21 0.16724059E-01 0.20061384E+03</pdfrwt>
<pdfrwt beam="2">  1       21 0.56961180E-01 0.20061384E+03</pdfrwt>
<totfact> 0.92789571E+04</totfact>
</mgrwt>
</event>
<event>
 4    1  0.4173994E+000  0.2460409E+03  0.7546771E-02  0.1115833E+00
         21   -1    0    0  503  502  0.00000000000E+00  0.00000000000E+00  0.10652856105E+04  0.10652856105E+04  0.00000000000E+00 0. -1.
         21   -1    0    0  501  503 -0.00000000000E+00 -0.00000000000E+00 -0.11094452508E+03  0.11094452508E+03  0.00000000000E+00 0. -1.
          6    1    1    2  501    0 -0.15253996602E+03 -0.85666155050E+02  0.66416781411E+02  0.25484764117E+03  0.17300000000E+03 0. -1.
         -6    1    1    2    0  502  0.15253996602E+03  0.85666155050E+02  0.88792430401E+03  0.92138249441E+03  0.17300000000E+03 0. -1.
<mgrwt>
<rscale>  2 0.24604091E+03</rscale>
<asrwt>0</asrwt>
<pdfrwt beam="1">  1       21 0.16389009E+00 0.24604091E+03</pdfrwt>
<pdfrwt beam="2">  1       21 0.17068389E-01 0.24604091E+03</pdfrwt>
<totfact> 0.70185987E+03</totfact>
</mgrwt>
</event>
<event>
 4    1  0.4173994E+000  0.2460398E+03  0.7546771E-02  0.1115833E+00
         21   -1    0    0  501  502  0.00000000000E+00  0.00000000000E+00  0.53145813534E+03  0.53145813534E+03  0.00000000000E+00 0.  1.
         21   -1    0    0  502  503 -0.00000000000E+00 -0.00000000000E+00 -0.24860155249E+03  0.24860155249E+03  0.00000000000E+00 0.  1.
          6    1    1    2  501    0 -0.58779404623E+02 -0.16477728865E+03  0.42852265325E+03  0.49413281374E+03  0.17300000000E+03 0.  1.
         -6    1    1    2    0  503  0.58779404623E+02  0.16477728865E+03 -0.14566607040E+03  0.28592687410E+03  0.17300000000E+03 0.  1.
<mgrwt>
<rscale>  2 0.24603978E+03</rscale>
<asrwt>0</asrwt>
<pdfrwt beam="1">  1       21 0.81762790E-01 0.24603978E+03</pdfrwt>
<pdfrwt beam="2">  1       21 0.38246393E-01 0.24603978E+03</pdfrwt>
<totfact> 0.83342093E+03</totfact>
</mgrwt>
</event>
<event>
 4    1  0.4173994E+000  0.2014852E+03  0.7546771E-02  0.1148492E+00
         21   -1    0    0  503  502  0.00000000000E+00  0.00000000000E+00  0.17904549289E+03  0.17904549289E+03  0.00000000000E+00 0. -1.
         21   -1    0    0  501  503 -0.00000000000E+00 -0.00000000000E+00 -0.28047924968E+03  0.28047924968E+03  0.00000000000E+00 0. -1.
          6    1    1    2  501    0  0.10307977856E+03  0.64702604038E+01 -0.15129069781E+03  0.25196265648E+03  0.17300000000E+03 0. -1.
         -6    1    1    2    0  502 -0.10307977856E+03 -0.64702604038E+01  0.49856941021E+02  0.20756208610E+03  0.17300000000E+03 0. -1.
<mgrwt>
<rscale>  2 0.20148525E+03</rscale>
<asrwt>0</asrwt>
<pdfrwt beam="1">  1       21 0.27545461E-01 0.20148525E+03</pdfrwt>
<pdfrwt beam="2">  1       21 0.43150654E-01 0.20148525E+03</pdfrwt>
<totfact> 0.64673638E+04</totfact>
</mgrwt>
</event>
<event>
 4    1  0.4173994E+000  0.2304247E+03  0.7546771E-02  0.1126341E+00
         21   -1    0    0  503  502  0.00000000000E+00  0.00000000000E+00  0.17309669758E+04  0.17309669758E+04  0.00000000000E+00 0. -1.
         21   -1    0    0  501  503 -0.00000000000E+00 -0.00000000000E+00 -0.37286990061E+02  0.37286990061E+02  0.00000000000E+00 0.  1.
          6    1    1    2  501    0  0.11871791858E+03  0.95250107538E+02  0.47450158706E+03  0.52749150069E+03  0.17300000000E+03 0.  1.
         -6    1    1    2    0  502 -0.11871791858E+03 -0.95250107538E+02  0.12191783987E+04  0.12407624652E+04  0.17300000000E+03 0. -1.
<mgrwt>
<rscale>  2 0.23042467E+03</rscale>
<asrwt>0</asrwt>
<pdfrwt beam="1">  1       21 0.26630255E+00 0.23042467E+03</pdfrwt>
<pdfrwt beam="2">  1       21 0.57364614E-02 0.23042467E+03</pdfrwt>
<totfact> 0.10983137E+04</totfact>
</mgrwt>
</event>
<event>
 4    1  0.4173994E+000  0.1737962E+03  0.7546771E-02  0.1173946E+00
         21   -1    0    0  501  502  0.00000000000E+00  0.00000000000E+00  0.69839425507E+03  0.69839425507E+03  0.00000000000E+00 0.  1.
         21   -1    0    0  502  503 -0.00000000000E+00 -0.00000000000E+00 -0.53504396780E+02  0.53504396780E+02  0.00000000000E+00 0.  1.
          6    1    1    2  501    0 -0.14877806267E+02  0.74006250914E+01  0.48703467204E+03  0.51711496801E+03  0.17300000000E+03 0.  1.
         -6    1    1    2    0  503  0.14877806267E+02 -0.74006250914E+01  0.15785518625E+03  0.23478368384E+03  0.17300000000E+03 0.  1.
<mgrwt>
<rscale>  2 0.17379620E+03</rscale>
<asrwt>0</asrwt>
<pdfrwt beam="1">  1       21 0.10744526E+00 0.17379620E+03</pdfrwt>
<pdfrwt beam="2">  1       21 0.82314461E-02 0.17379620E+03</pdfrwt>
<totfact> 0.79607390E+04</totfact>
</mgrwt>
</event>
<event>
 4    1  0.4173994E+000  0.2379509E+03  0.7546771E-02  0.1121165E+00
         21   -1    0    0  501  502  0.00000000000E+00  0.00000000000E+00  0.21781364985E+03  0.21781364985E+03  0.00000000000E+00 0. -1.
         21   -1    0    0  502  503 -0.00000000000E+00 -0.00000000000E+00 -0.47523902786E+03  0.47523902786E+03  0.00000000000E+00 0. -1.
          6    1    1    2  501    0  0.15657743602E+03 -0.46638252956E+02  0.10452102382E+03  0.25989471817E+03  0.17300000000E+03 0. -1.
         -6    1    1    2    0  503 -0.15657743602E+03  0.46638252956E+02 -0.36194640183E+03  0.43315795954E+03  0.17300000000E+03 0. -1.
<mgrwt>
<rscale>  2 0.23795088E+03</rscale>
<asrwt>0</asrwt>
<pdfrwt beam="1">  1       21 0.33509793E-01 0.23795088E+03</pdfrwt>
<pdfrwt beam="2">  1       21 0.73113696E-01 0.23795088E+03</pdfrwt>
<totfact> 0.14043289E+04</totfact>
</mgrwt>
</event>
<event>
 4    1  0.4173994E+000  0.1779402E+03  0.7546771E-02  0.1169811E+00
         21   -1    0    0  501  502  0.00000000000E+00  0.00000000000E+00  0.22002103962E+03  0.22002103962E+03  0.00000000000E+00 0.  1.
         21   -1    0    0  502  503 -0.00000000000E+00 -0.00000000000E+00 -0.14439671856E+03  0.14439671856E+03  0.00000000000E+00 0.  1.
          6    1    1    2  501    0  0.21368341448E+02 -0.35736880861E+02  0.48415326735E+02  0.18440925826E+03  0.17300000000E+03 0.  1.
         -6    1    1    2    0  503 -0.21368341448E+02  0.35736880861E+02  0.27208994328E+02  0.18000849992E+03  0.17300000000E+03 0.  1.
<mgrwt>
<rscale>  2 0.17794024E+03</rscale>
<asrwt>0</asrwt>
<pdfrwt beam="1">  1       21 0.33849391E-01 0.17794024E+03</pdfrwt>
<pdfrwt beam="2">  1       21 0.22214880E-01 0.17794024E+03</pdfrwt>
<totfact> 0.16009087E+05</totfact>
</mgrwt>
</event>
<event>
 4    1  0.4173994E+000  0.1964615E+03  0.7546771E-02  0.1152759E+00
         21   -1    0    0  503  502  0.00000000000E+00  0.00000000000E+00  0.40756013033E+02  0.40756013033E+02  0.00000000000E+00 0. -1.
         21   -1    0    0  501  503 -0.00000000000E+00 -0.00000000000E+00 -0.16916683280E+04  0.16916683280E+04  0.00000000000E+00 0. -1.
          6    1    1    2  501    0 -0.91001508037E+02 -0.19668486034E+02 -0.14001541428E+04  0.14138701310E+04  0.17300000000E+03 0. -1.
         -6    1    1    2    0  502  0.91001508037E+02  0.19668486034E+02 -0.25075817220E+03  0.31855421004E+03  0.17300000000E+03 0. -1.
<mgrwt>
<rscale>  2 0.19646151E+03</rscale>
<asrwt>0</asrwt>
<pdfrwt beam="1">  1       21 0.62701567E-02 0.19646151E+03</pdfrwt>
<pdfrwt beam="2">  1       21 0.26025663E+00 0.19646151E+03</pdfrwt>
<totfact> 0.10549112E+04</totfact>
</mgrwt>
</event>
<event>
 4    1  0.4173994E+000  0.1961851E+03  0.7546771E-02  0.1152998E+00
         21   -1    0    0  501  502  0.00000000000E+00  0.00000000000E+00  0.29714730056E+03  0.29714730056E+03  0.00000000000E+00 0.  1.
         21   -1    0    0  502  503 -0.00000000000E+00 -0.00000000000E+00 -0.14952890455E+03  0.14952890455E+03  0.00000000000E+00 0. -1.
          6    1    1    2  501    0 -0.91593574141E+02 -0.13045930243E+02  0.15549312827E+03  0.25033316212E+03  0.17300000000E+03 0.  1.
         -6    1    1    2    0  503  0.91593574141E+02  0.13045930243E+02 -0.78747322597E+01  0.19634304298E+03  0.17300000000E+03 0. -1.
<mgrwt>
<rscale>  2 0.19618506E+03</rscale>
<asrwt>0</asrwt>
<pdfrwt beam="1">  1       21 0.45714969E-01 0.19618506E+03</pdfrwt>
<pdfrwt beam="2">  1       21 0.23004447E-01 0.19618506E+03</pdfrwt>
<totfact> 0.81271348E+04</totfact>
</mgrwt>
</event>
<event>
 4    1  0.4173994E+000  0.1959146E+03  0.7546771E-02  0.1153232E+00
         21   -1    0    0  501  502  0.00000000000E+00  0.00000000000E+00  0.26585024353E+03  0.26585024353E+03  0.00000000000E+00 0. -1.
         21   -1    0    0  502  503 -0.00000000000E+00 -0.00000000000E+00 -0.40369127603E+03  0.40369127603E+03  0.00000000000E+00 0. -1.
          6    1    1    2  501    0  0.14229211014E+02 -0.90835318825E+02  0.19938924602E+03  0.27953281922E+03  0.17300000000E+03 0. -1.
         -6    1    1    2    0  503 -0.14229211014E+02  0.90835318825E+02 -0.33723027852E+03  0.39000870034E+03  0.17300000000E+03 0. -1.
<mgrwt>
<rscale>  2 0.19591459E+03</rscale>
<asrwt>0</asrwt>
<pdfrwt beam="1">  1       21 0.40900037E-01 0.19591459E+03</pdfrwt>
<pdfrwt beam="2">  1       21 0.62106350E-01 0.19591459E+03</pdfrwt>
<totfact> 0.13823481E+04</totfact>
</mgrwt>
</event>
<event>
 4    1  0.4173994E+000  0.2281515E+03  0.7546771E-02  0.1127948E+00
         21   -1    0    0  501  502  0.00000000000E+00  0.00000000000E+00  0.42228351531E+02  0.42228351531E+02  0.00000000000E+00 0.  1.
         21   -1    0    0  502  503 -0.00000000000E+00 -0.00000000000E+00 -0.12731194914E+04  0.12731194914E+04  0.00000000000E+00 0.  1.
          6    1    1    2  501    0 -0.56370570884E+02  0.13764620316E+03 -0.49819996311E+03  0.54795649622E+03  0.17300000000E+03 0.  1.
         -6    1    1    2    0  503  0.56370570884E+02 -0.13764620316E+03 -0.73269117674E+03  0.76739134669E+03  0.17300000000E+03 0.  1.
<mgrwt>
<rscale>  2 0.22815153E+03</rscale>
<asrwt>0</asrwt>
<pdfrwt beam="1">  1       21 0.64966704E-02 0.22815153E+03</pdfrwt>
<pdfrwt beam="2">  1       21 0.19586451E+00 0.22815153E+03</pdfrwt>
<totfact> 0.23963447E+04</totfact>
</mgrwt>
</event>
<event>
 4    1  0.4173994E+000  0.3835642E+03  0.7546771E-02  0.1049624E+00
         21   -1    0    0  503  502  0.00000000000E+00  0.00000000000E+00  0.80183358269E+03  0.80183358269E+03  0.00000000000E+00 0. -1.
         21   -1    0    0  501  503 -0.00000000000E+00 -0.00000000000E+00 -0.26972828610E+03  0.26972828610E+03  0.00000000000E+00 0.  1.
          6    1    1    2  501    0  0.13498959339E+03  0.31459549125E+03 -0.36914703240E+02  0.38533648770E+03  0.17300000000E+03 0.  1.
         -6    1    1    2    0  502 -0.13498959339E+03 -0.31459549125E+03  0.56901999984E+03  0.68622538109E+03  0.17300000000E+03 0. -1.
<mgrwt>
<rscale>  2 0.38356422E+03</rscale>
<asrwt>0</asrwt>
<pdfrwt beam="1">  1       21 0.12335901E+00 0.38356422E+03</pdfrwt>
<pdfrwt beam="2">  1       21 0.41496660E-01 0.38356422E+03</pdfrwt>
<totfact> 0.24450323E+03</totfact>
</mgrwt>
</event>
<event>
 4    1  0.4173994E+000  0.1998858E+03  0.7546771E-02  0.1149835E+00
         21   -1    0    0  503  502  0.00000000000E+00  0.00000000000E+00  0.12415209549E+03  0.12415209549E+03  0.00000000000E+00 0. -1.
         21   -1    0    0  501  503 -0.00000000000E+00 -0.00000000000E+00 -0.47405373335E+03  0.47405373335E+03  0.00000000000E+00 0. -1.
          6    1    1    2  501    0  0.94060872689E+02  0.34320043745E+02 -0.34444934189E+03  0.39824573105E+03  0.17300000000E+03 0. -1.
         -6    1    1    2    0  502 -0.94060872689E+02 -0.34320043745E+02 -0.54522959753E+01  0.19996009778E+03  0.17300000000E+03 0. -1.
<mgrwt>
<rscale>  2 0.19988575E+03</rscale>
<asrwt>0</asrwt>
<pdfrwt beam="1">  1       21 0.19100323E-01 0.19988575E+03</pdfrwt>
<pdfrwt beam="2">  1       21 0.72931342E-01 0.19988575E+03</pdfrwt>
<totfact> 0.42399140E+04</totfact>
</mgrwt>
</event>
<event>
 4    1  0.4173994E+000  0.2641664E+03  0.7546771E-02  0.1104665E+00
         21   -1    0    0  501  502  0.00000000000E+00  0.00000000000E+00  0.10004625569E+04  0.10004625569E+04  0.00000000000E+00 0.  1.
         21   -1    0    0  502  503 -0.00000000000E+00 -0.00000000000E+00 -0.11192341965E+03  0.11192341965E+03  0.00000000000E+00 0. -1.
          6    1    1    2  501    0  0.10128107642E+03  0.17203792563E+03  0.78567937200E+03  0.82890046440E+03  0.17300000000E+03 0.  1.
         -6    1    1    2    0  503 -0.10128107642E+03 -0.17203792563E+03  0.10285976526E+03  0.28348551216E+03  0.17300000000E+03 0. -1.
<mgrwt>
<rscale>  2 0.26416643E+03</rscale>
<asrwt>0</asrwt>
<pdfrwt beam="1">  1       21 0.15391731E+00 0.26416643E+03</pdfrwt>
<pdfrwt beam="2">  1       21 0.17218988E-01 0.26416643E+03</pdfrwt>
<totfact> 0.80989324E+03</totfact>
</mgrwt>
</event>
<event>
 4    1  0.4173994E+000  0.2427705E+03  0.7546771E-02  0.1117961E+00
         21   -1    0    0  503  502  0.00000000000E+00  0.00000000000E+00  0.38790070093E+03  0.38790070093E+03  0.00000000000E+00 0.  1.
         21   -1    0    0  501  503 -0.00000000000E+00 -0.00000000000E+00 -0.21242119150E+03  0.21242119150E+03  0.00000000000E+00 0. -1.
          6    1    1    2  501    0 -0.16991584147E+03  0.11709270527E+02 -0.72424891664E+02  0.25334337396E+03  0.17300000000E+03 0. -1.
         -6    1    1    2    0  502  0.16991584147E+03 -0.11709270527E+02  0.24790440110E+03  0.34697851847E+03  0.17300000000E+03 0.  1.
<mgrwt>
<rscale>  2 0.24277047E+03</rscale>
<asrwt>0</asrwt>
<pdfrwt beam="1">  1       21 0.59677031E-01 0.24277047E+03</pdfrwt>
<pdfrwt beam="2">  1       21 0.32680183E-01 0.24277047E+03</pdfrwt>
<totfact> 0.22993267E+04</totfact>
</mgrwt>
</event>
<event>
 4    1  0.4173994E+000  0.1862052E+03  0.7546771E-02  0.1161929E+00
         21   -1    0    0  503  502  0.00000000000E+00  0.00000000000E+00  0.12805678257E+04  0.12805678257E+04  0.00000000000E+00 0. -1.
         21   -1    0    0  501  503 -0.00000000000E+00 -0.00000000000E+00 -0.27075875885E+02  0.27075875885E+02  0.00000000000E+00 0. -1.
          6    1    1    2  501    0 -0.10291223964E+02  0.68099019576E+02  0.62790923566E+03  0.65493693894E+03  0.17300000000E+03 0. -1.
         -6    1    1    2    0  502  0.10291223964E+02 -0.68099019576E+02  0.62558271418E+03  0.65270676267E+03  0.17300000000E+03 0. -1.
<mgrwt>
<rscale>  2 0.18620522E+03</rscale>
<asrwt>0</asrwt>
<pdfrwt beam="1">  1       21 0.19701039E+00 0.18620522E+03</pdfrwt>
<pdfrwt beam="2">  1       21 0.41655204E-02 0.18620522E+03</pdfrwt>
<totfact> 0.51596321E+04</totfact>
</mgrwt>
</event>
<event>
 4    1  0.4173994E+000  0.3130873E+03  0.7546771E-02  0.1078875E+00
         21   -1    0    0  503  502  0.00000000000E+00  0.00000000000E+00  0.83387529458E+03  0.83387529458E+03  0.00000000000E+00 0. -1.
         21   -1    0    0  501  503 -0.00000000000E+00 -0.00000000000E+00 -0.16611909134E+03  0.16611909134E+03  0.00000000000E+00 0.  1.
          6    1    1    2  501    0 -0.24947236895E+03 -0.76538786441E+02  0.63526366441E+02  0.31946713123E+03  0.17300000000E+03 0.  1.
         -6    1    1    2    0  502  0.24947236895E+03  0.76538786441E+02  0.60422983680E+03  0.68052725469E+03  0.17300000000E+03 0. -1.
<mgrwt>
<rscale>  2 0.31308729E+03</rscale>
<asrwt>0</asrwt>
<pdfrwt beam="1">  1       21 0.12828850E+00 0.31308729E+03</pdfrwt>
<pdfrwt beam="2">  1       21 0.25556784E-01 0.31308729E+03</pdfrwt>
<totfact> 0.60172463E+03</totfact>
</mgrwt>
</event>
<event>
 4    1  0.4173994E+000  0.2252584E+03  0.7546771E-02  0.1130022E+00
         21   -1    0    0  501  502  0.00000000000E+00  0.00000000000E+00  0.76754161939E+03  0.76754161939E+03  0.00000000000E+00 0.  1.
         21   -1    0    0  502  503 -0.00000000000E+00 -0.00000000000E+00 -0.66159502001E+02  0.66159502001E+02  0.00000000000E+00 0.  1.
          6    1    1    2  501    0  0.60112911956E+02 -0.13114406048E+03  0.33916188463E+03  0.40715121364E+03  0.17300000000E+03 0.  1.
         -6    1    1    2    0  503 -0.60112911956E+02  0.13114406048E+03  0.36222023276E+03  0.42654990775E+03  0.17300000000E+03 0.  1.
<mgrwt>
<rscale>  2 0.22525836E+03</rscale>
<asrwt>0</asrwt>
<pdfrwt beam="1">  1       21 0.11808332E+00 0.22525836E+03</pdfrwt>
<pdfrwt beam="2">  1       21 0.10178385E-01 0.22525836E+03</pdfrwt>
<totfact> 0.42485039E+04</totfact>
</mgrwt>
</event>
<event>
 4    1  0.4173994E+000  0.2056454E+03  0.7546771E-02  0.1145062E+00
         21   -1    0    0  503  502  0.00000000000E+00  0.00000000000E+00  0.25640154458E+03  0.25640154458E+03  0.00000000000E+00 0.  1.
         21   -1    0    0  501  503 -0.00000000000E+00 -0.00000000000E+00 -0.24940972066E+03  0.24940972066E+03  0.00000000000E+00 0.  1.
          6    1    1    2  501    0  0.10628552900E+03  0.32625175980E+02 -0.14368819424E+03  0.25087110823E+03  0.17300000000E+03 0.  1.
         -6    1    1    2    0  502 -0.10628552900E+03 -0.32625175980E+02  0.15068001816E+03  0.25494015701E+03  0.17300000000E+03 0.  1.
<mgrwt>
<rscale>  2 0.20564536E+03</rscale>
<asrwt>0</asrwt>
<pdfrwt beam="1">  1       21 0.39446391E-01 0.20564536E+03</pdfrwt>
<pdfrwt beam="2">  1       21 0.38370726E-01 0.20564536E+03</pdfrwt>
<totfact> 0.40309166E+04</totfact>
</mgrwt>
</event>
<event>
 4    1  0.4173994E+000  0.2658200E+03  0.7546771E-02  0.1103696E+00
         21   -1    0    0  503  502  0.00000000000E+00  0.00000000000E+00  0.10316029427E+03  0.10316029427E+03  0.00000000000E+00 0. -1.
         21   -1    0    0  501  503 -0.00000000000E+00 -0.00000000000E+00 -0.10736285128E+04  0.10736285128E+04  0.00000000000E+00 0.  1.
          6    1    1    2  501    0 -0.19619411923E+03  0.47319491916E+02 -0.83925868102E+03  0.88034958988E+03  0.17300000000E+03 0. -1.
         -6    1    1    2    0  502  0.19619411923E+03 -0.47319491916E+02 -0.13120953747E+03  0.29643921714E+03  0.17300000000E+03 0.  1.
<mgrwt>
<rscale>  2 0.26581999E+03</rscale>
<asrwt>0</asrwt>
<pdfrwt beam="1">  1       21 0.15870813E-01 0.26581999E+03</pdfrwt>
<pdfrwt beam="2">  1       21 0.16517363E+00 0.26581999E+03</pdfrwt>
<totfact> 0.77599620E+03</totfact>
</mgrwt>
</event>
<event>
 4    1  0.4173994E+000  0.2592504E+03  0.7546771E-02  0.1107594E+00
         21   -1    0    0  503  502  0.00000000000E+00  0.00000000000E+00  0.14180140940E+03  0.14180140940E+03  0.00000000000E+00 0. -1.
         21   -1    0    0  501  503 -0.00000000000E+00 -0.00000000000E+00 -0.47399757821E+03  0.47399757821E+03  0.00000000000E+00 0.  1.
          6    1    1    2  501    0  0.18318630857E+03 -0.61029163834E+02 -0.16413143713E+03  0.30683857506E+03  0.17300000000E+03 0. -1.
         -6    1    1    2    0  502 -0.18318630857E+03  0.61029163834E+02 -0.16806473168E+03  0.30896041255E+03  0.17300000000E+03 0. -1.
<mgrwt>
<rscale>  2 0.25925042E+03</rscale>
<asrwt>0</asrwt>
<pdfrwt beam="1">  1       21 0.21815602E-01 0.25925042E+03</pdfrwt>
<pdfrwt beam="2">  1       21 0.72922703E-01 0.25925042E+03</pdfrwt>
<totfact> 0.32129303E+04</totfact>
</mgrwt>
</event>
<event>
 4    1  0.4173994E+000  0.1931008E+03  0.7546771E-02  0.1155694E+00
         21   -1    0    0  503  502  0.00000000000E+00  0.00000000000E+00  0.56275007157E+02  0.56275007157E+02  0.00000000000E+00 0. -1.
         21   -1    0    0  501  503 -0.00000000000E+00 -0.00000000000E+00 -0.71902022102E+03  0.71902022102E+03  0.00000000000E+00 0. -1.
          6    1    1    2  501    0 -0.73134940514E+02  0.44835330955E+02 -0.43995931279E+03  0.48047073099E+03  0.17300000000E+03 0. -1.
         -6    1    1    2    0  502  0.73134940514E+02 -0.44835330955E+02 -0.22278590107E+03  0.29482449719E+03  0.17300000000E+03 0. -1.
<mgrwt>
<rscale>  2 0.19310082E+03</rscale>
<asrwt>0</asrwt>
<pdfrwt beam="1">  1       21 0.86576930E-02 0.19310082E+03</pdfrwt>
<pdfrwt beam="2">  1       21 0.11061850E+00 0.19310082E+03</pdfrwt>
<totfact> 0.67349755E+04</totfact>
</mgrwt>
</event>
<event>
 4    1  0.4173994E+000  0.1814032E+03  0.7546771E-02  0.1166452E+00
         21   -1    0    0  501  502  0.00000000000E+00  0.00000000000E+00  0.15902440778E+03  0.15902440778E+03  0.00000000000E+00 0.  1.
         21   -1    0    0  502  503 -0.00000000000E+00 -0.00000000000E+00 -0.20947294780E+03  0.20947294780E+03  0.00000000000E+00 0.  1.
          6    1    1    2  501    0  0.52869042879E+02 -0.13526636009E+02 -0.49282989688E+01  0.18147009039E+03  0.17300000000E+03 0. -1.
         -6    1    1    2    0  503 -0.52869042879E+02  0.13526636009E+02 -0.45520241054E+02  0.18702726518E+03  0.17300000000E+03 0. -1.
<mgrwt>
<rscale>  2 0.18140316E+03</rscale>
<asrwt>0</asrwt>
<pdfrwt beam="1">  1       21 0.24465294E-01 0.18140316E+03</pdfrwt>
<pdfrwt beam="2">  1       21 0.32226607E-01 0.18140316E+03</pdfrwt>
<totfact> 0.14674213E+05</totfact>
</mgrwt>
</event>
<event>
 4    1  0.4173994E+000  0.2785081E+03  0.7546771E-02  0.1096507E+00
         21   -1    0    0  501  502  0.00000000000E+00  0.00000000000E+00  0.24740895517E+03  0.24740895517E+03  0.00000000000E+00 0. -1.
         21   -1    0    0  502  503 -0.00000000000E+00 -0.00000000000E+00 -0.52942618925E+03  0.52942618925E+03  0.00000000000E+00 0. -1.
          6    1    1    2  501    0 -0.14791969583E+03  0.16049151810E+03  0.10703744145E+03  0.29836852661E+03  0.17300000000E+03 0. -1.
         -6    1    1    2    0  503  0.14791969583E+03 -0.16049151810E+03 -0.38905467554E+03  0.47846661781E+03  0.17300000000E+03 0. -1.
<mgrwt>
<rscale>  2 0.27850810E+03</rscale>
<asrwt>0</asrwt>
<pdfrwt beam="1">  1       21 0.38062917E-01 0.27850810E+03</pdfrwt>
<pdfrwt beam="2">  1       21 0.81450181E-01 0.27850810E+03</pdfrwt>
<totfact> 0.83410765E+03</totfact>
</mgrwt>
</event>
<event>
 4    1  0.4173994E+000  0.1896457E+03  0.7546771E-02  0.1158781E+00
         21   -1    0    0  503  502  0.00000000000E+00  0.00000000000E+00  0.10579005176E+04  0.10579005176E+04  0.00000000000E+00 0. -1.
         21   -1    0    0  501  503 -0.00000000000E+00 -0.00000000000E+00 -0.35078135847E+02  0.35078135847E+02  0.00000000000E+00 0. -1.
          6    1    1    2  501    0  0.33478050559E+02 -0.70112138392E+02  0.41547235013E+03  0.45670862214E+03  0.17300000000E+03 0. -1.
         -6    1    1    2    0  502 -0.33478050559E+02  0.70112138392E+02  0.60735003161E+03  0.63627003129E+03  0.17300000000E+03 0. -1.
<mgrwt>
<rscale>  2 0.18964570E+03</rscale>
<asrwt>0</asrwt>
<pdfrwt beam="1">  1       21 0.16275390E+00 0.18964570E+03</pdfrwt>
<pdfrwt beam="2">  1       21 0.53966371E-02 0.18964570E+03</pdfrwt>
<totfact> 0.56883545E+04</totfact>
</mgrwt>
</event>
<event>
 4    1  0.4173994E+000  0.1782013E+03  0.7546771E-02  0.1169555E+00
         21   -1    0    0  503  502  0.00000000000E+00  0.00000000000E+00  0.60477378731E+02  0.60477378731E+02  0.00000000000E+00 0. -1.
         21   -1    0    0  501  503 -0.00000000000E+00 -0.00000000000E+00 -0.12374697624E+04  0.12374697624E+04  0.00000000000E+00 0. -1.
          6    1    1    2  501    0  0.39709240295E+02  0.15807103957E+02 -0.10808954694E+04  0.10954865147E+04  0.17300000000E+03 0. -1.
         -6    1    1    2    0  502 -0.39709240295E+02 -0.15807103957E+02 -0.96096914322E+02  0.20246062640E+03  0.17300000000E+03 0. -1.
<mgrwt>
<rscale>  2 0.17820126E+03</rscale>
<asrwt>0</asrwt>
<pdfrwt beam="1">  1       21 0.93042125E-02 0.17820126E+03</pdfrwt>
<pdfrwt beam="2">  1       21 0.19037996E+00 0.17820126E+03</pdfrwt>
<totfact> 0.14454215E+04</totfact>
</mgrwt>
</event>
<event>
 4    1  0.4173994E+000  0.1736380E+03  0.7546771E-02  0.1174106E+00
         21   -1    0    0  503  502  0.00000000000E+00  0.00000000000E+00  0.87988649150E+02  0.87988649150E+02  0.00000000000E+00 0. -1.
         21   -1    0    0  501  503 -0.00000000000E+00 -0.00000000000E+00 -0.34299858639E+03  0.34299858639E+03  0.00000000000E+00 0. -1.
          6    1    1    2  501    0  0.14217518005E+02 -0.43599957057E+01 -0.13428040366E+03  0.21950256078E+03  0.17300000000E+03 0. -1.
         -6    1    1    2    0  502 -0.14217518005E+02  0.43599957057E+01 -0.12072953357E+03  0.21148467476E+03  0.17300000000E+03 0. -1.
<mgrwt>
<rscale>  2 0.17363798E+03</rscale>
<asrwt>0</asrwt>
<pdfrwt beam="1">  1       21 0.13536715E-01 0.17363798E+03</pdfrwt>
<pdfrwt beam="2">  1       21 0.52769013E-01 0.17363798E+03</pdfrwt>
<totfact> 0.16182866E+05</totfact>
</mgrwt>
</event>
<event>
 4    1  0.4173994E+000  0.2086395E+03  0.7546771E-02  0.1142648E+00
         21   -1    0    0  503  502  0.00000000000E+00  0.00000000000E+00  0.32091659929E+02  0.32091659929E+02  0.00000000000E+00 0. -1.
         21   -1    0    0  501  503 -0.00000000000E+00 -0.00000000000E+00 -0.14954973185E+04  0.14954973185E+04  0.00000000000E+00 0.  1.
          6    1    1    2  501    0  0.84463664360E+02  0.80419668300E+02 -0.96460821647E+03  0.98691410210E+03  0.17300000000E+03 0.  1.
         -6    1    1    2    0  502 -0.84463664360E+02 -0.80419668300E+02 -0.49879744212E+03  0.54067487635E+03  0.17300000000E+03 0. -1.
<mgrwt>
<rscale>  2 0.20863948E+03</rscale>
<asrwt>0</asrwt>
<pdfrwt beam="1">  1       21 0.49371790E-02 0.20863948E+03</pdfrwt>
<pdfrwt beam="2">  1       21 0.23007649E+00 0.20863948E+03</pdfrwt>
<totfact> 0.23706503E+04</totfact>
</mgrwt>
</event>
<event>
 4    1  0.4173994E+000  0.2008694E+03  0.7546771E-02  0.1149008E+00
         21   -1    0    0  501  502  0.00000000000E+00  0.00000000000E+00  0.58003894782E+02  0.58003894782E+02  0.00000000000E+00 0. -1.
         21   -1    0    0  502  503 -0.00000000000E+00 -0.00000000000E+00 -0.11560981395E+04  0.11560981395E+04  0.00000000000E+00 0. -1.
          6    1    1    2  501    0 -0.56457664026E+02 -0.85041413258E+02 -0.16592816209E+03  0.26053918088E+03  0.17300000000E+03 0. -1.
         -6    1    1    2    0  503  0.56457664026E+02  0.85041413258E+02 -0.93216608260E+03  0.95356285338E+03  0.17300000000E+03 0. -1.
<mgrwt>
<rscale>  2 0.20086938E+03</rscale>
<asrwt>0</asrwt>
<pdfrwt beam="1">  1       21 0.89236781E-02 0.20086938E+03</pdfrwt>
<pdfrwt beam="2">  1       21 0.17786121E+00 0.20086938E+03</pdfrwt>
<totfact> 0.18547845E+04</totfact>
</mgrwt>
</event>
<event>
 4    1  0.4173994E+000  0.1983573E+03  0.7546771E-02  0.1151132E+00
         21   -1    0    0  503  502  0.00000000000E+00  0.00000000000E+00  0.64253664639E+03  0.64253664639E+03  0.00000000000E+00 0. -1.
         21   -1    0    0  501  503 -0.00000000000E+00 -0.00000000000E+00 -0.10090327582E+03  0.10090327582E+03  0.00000000000E+00 0.  1.
          6    1    1    2  501    0  0.72496702493E+02 -0.64504554960E+02  0.37746912832E+02  0.20191691091E+03  0.17300000000E+03 0.  1.
         -6    1    1    2    0  502 -0.72496702493E+02  0.64504554960E+02  0.50388645774E+03  0.54152301131E+03  0.17300000000E+03 0. -1.
<mgrwt>
<rscale>  2 0.19835728E+03</rscale>
<asrwt>0</asrwt>
<pdfrwt beam="1">  1       21 0.98851789E-01 0.19835728E+03</pdfrwt>
<pdfrwt beam="2">  1       21 0.15523581E-01 0.19835728E+03</pdfrwt>
<totfact> 0.30989081E+04</totfact>
</mgrwt>
</event>
<event>
 4    1  0.4173994E+000  0.2361593E+03  0.7546771E-02  0.1122378E+00
         21   -1    0    0  501  502  0.00000000000E+00  0.00000000000E+00  0.39885704392E+03  0.39885704392E+03  0.00000000000E+00 0.  1.
         21   -1    0    0  502  503 -0.00000000000E+00 -0.00000000000E+00 -0.26480370932E+03  0.26480370932E+03  0.00000000000E+00 0. -1.
          6    1    1    2  501    0 -0.74874530515E+02  0.14225334456E+03  0.29499140190E+03  0.37787714479E+03  0.17300000000E+03 0.  1.
         -6    1    1    2    0  503  0.74874530515E+02 -0.14225334456E+03 -0.16093806729E+03  0.28578360845E+03  0.17300000000E+03 0. -1.
<mgrwt>
<rscale>  2 0.23615929E+03</rscale>
<asrwt>0</asrwt>
<pdfrwt beam="1">  1       21 0.61362623E-01 0.23615929E+03</pdfrwt>
<pdfrwt beam="2">  1       21 0.40739032E-01 0.23615929E+03</pdfrwt>
<totfact> 0.13959070E+04</totfact>
</mgrwt>
</event>
<event>
 4    1  0.4173994E+000  0.1949680E+03  0.7546771E-02  0.1154055E+00
         21   -1    0    0  503  502  0.00000000000E+00  0.00000000000E+00  0.60229564531E+03  0.60229564531E+03  0.00000000000E+00 0. -1.
         21   -1    0    0  501  503 -0.00000000000E+00 -0.00000000000E+00 -0.63623351338E+02  0.63623351338E+02  0.00000000000E+00 0. -1.
          6    1    1    2  501    0  0.75739717379E+02 -0.48446017194E+02  0.29916478159E+03  0.35708834749E+03  0.17300000000E+03 0. -1.
         -6    1    1    2    0  502 -0.75739717379E+02  0.48446017194E+02  0.23950751238E+03  0.30883064915E+03  0.17300000000E+03 0. -1.
<mgrwt>
<rscale>  2 0.19496800E+03</rscale>
<asrwt>0</asrwt>
<pdfrwt beam="1">  1       21 0.92660865E-01 0.19496800E+03</pdfrwt>
<pdfrwt beam="2">  1       21 0.97882083E-02 0.19496800E+03</pdfrwt>
<totfact> 0.82659841E+04</totfact>
</mgrwt>
</event>
<event>
 4    1  0.4173994E+000  0.1740246E+03  0.7546771E-02  0.1173715E+00
         21   -1    0    0  503  502  0.00000000000E+00  0.00000000000E+00  0.60033821422E+03  0.60033821422E+03  0.00000000000E+00 0. -1.
         21   -1    0    0  501  503 -0.00000000000E+00 -0.00000000000E+00 -0.58316391396E+02  0.58316391396E+02  0.00000000000E+00 0. -1.
          6    1    1    2  501    0 -0.18842640051E+02 -0.72596616648E+00  0.15002503019E+03  0.22976527543E+03  0.17300000000E+03 0. -1.
         -6    1    1    2    0  502  0.18842640051E+02  0.72596616648E+00  0.39199679263E+03  0.42888933018E+03  0.17300000000E+03 0. -1.
<mgrwt>
<rscale>  2 0.17402463E+03</rscale>
<asrwt>0</asrwt>
<pdfrwt beam="1">  1       21 0.92359721E-01 0.17402463E+03</pdfrwt>
<pdfrwt beam="2">  1       21 0.89717529E-02 0.17402463E+03</pdfrwt>
<totfact> 0.97923357E+04</totfact>
</mgrwt>
</event>
<event>
 4    1  0.4173994E+000  0.1836932E+03  0.7546771E-02  0.1164276E+00
         21   -1    0    0  503  502  0.00000000000E+00  0.00000000000E+00  0.19139947947E+03  0.19139947947E+03  0.00000000000E+00 0. -1.
         21   -1    0    0  501  503 -0.00000000000E+00 -0.00000000000E+00 -0.19183597702E+03  0.19183597702E+03  0.00000000000E+00 0. -1.
          6    1    1    2  501    0 -0.15452116315E+02 -0.59794751843E+02 -0.54753831256E+02  0.19167984319E+03  0.17300000000E+03 0. -1.
         -6    1    1    2    0  502  0.15452116315E+02  0.59794751843E+02  0.54317333707E+02  0.19155561330E+03  0.17300000000E+03 0. -1.
<mgrwt>
<rscale>  2 0.18369317E+03</rscale>
<asrwt>0</asrwt>
<pdfrwt beam="1">  1       21 0.29446074E-01 0.18369317E+03</pdfrwt>
<pdfrwt beam="2">  1       21 0.29513227E-01 0.18369317E+03</pdfrwt>
<totfact> 0.12194016E+05</totfact>
</mgrwt>
</event>
<event>
 4    1  0.4173994E+000  0.2338978E+03  0.7546771E-02  0.1123926E+00
         21   -1    0    0  503  502  0.00000000000E+00  0.00000000000E+00  0.27117060004E+03  0.27117060004E+03  0.00000000000E+00 0. -1.
         21   -1    0    0  501  503 -0.00000000000E+00 -0.00000000000E+00 -0.24071995555E+03  0.24071995555E+03  0.00000000000E+00 0. -1.
          6    1    1    2  501    0  0.98273565193E+02  0.12296943070E+03 -0.87757829975E+02  0.24981915704E+03  0.17300000000E+03 0. -1.
         -6    1    1    2    0  502 -0.98273565193E+02 -0.12296943070E+03  0.11820847446E+03  0.26207139855E+03  0.17300000000E+03 0. -1.
<mgrwt>
<rscale>  2 0.23389779E+03</rscale>
<asrwt>0</asrwt>
<pdfrwt beam="1">  1       21 0.41718554E-01 0.23389779E+03</pdfrwt>
<pdfrwt beam="2">  1       21 0.37033839E-01 0.23389779E+03</pdfrwt>
<totfact> 0.38117445E+04</totfact>
</mgrwt>
</event>
<event>
 4    1  0.4173994E+000  0.2757551E+03  0.7546771E-02  0.1098030E+00
         21   -1    0    0  501  502  0.00000000000E+00  0.00000000000E+00  0.92074361297E+02  0.92074361297E+02  0.00000000000E+00 0.  1.
         21   -1    0    0  502  503 -0.00000000000E+00 -0.00000000000E+00 -0.14913512134E+04  0.14913512134E+04  0.00000000000E+00 0. -1.
          6    1    1    2  501    0  0.14627065048E+03 -0.15721573970E+03 -0.17077007218E+03  0.32435059666E+03  0.17300000000E+03 0.  1.
         -6    1    1    2    0  503 -0.14627065048E+03  0.15721573970E+03 -0.12285067799E+04  0.12590749780E+04  0.17300000000E+03 0. -1.
<mgrwt>
<rscale>  2 0.27575513E+03</rscale>
<asrwt>0</asrwt>
<pdfrwt beam="1">  1       21 0.14165287E-01 0.27575513E+03</pdfrwt>
<pdfrwt beam="2">  1       21 0.22943863E+00 0.27575513E+03</pdfrwt>
<totfact> 0.35695394E+03</totfact>
</mgrwt>
</event>
<event>
 4    1  0.4173994E+000  0.2861393E+03  0.7546771E-02  0.1092382E+00
         21   -1    0    0  501  502  0.00000000000E+00  0.00000000000E+00  0.88977027778E+02  0.88977027778E+02  0.00000000000E+00 0.  1.
         21   -1    0    0  502  503 -0.00000000000E+00 -0.00000000000E+00 -0.12519912624E+04  0.12519912624E+04  0.00000000000E+00 0. -1.
          6    1    1    2  501    0 -0.22530312564E+03 -0.34426907960E+02 -0.23634165939E+03  0.37112409027E+03  0.17300000000E+03 0.  1.
         -6    1    1    2    0  503  0.22530312564E+03  0.34426907960E+02 -0.92667257527E+03  0.96984419995E+03  0.17300000000E+03 0. -1.
<mgrwt>
<rscale>  2 0.28613932E+03</rscale>
<asrwt>0</asrwt>
<pdfrwt beam="1">  1       21 0.13688773E-01 0.28613932E+03</pdfrwt>
<pdfrwt beam="2">  1       21 0.19261404E+00 0.28613932E+03</pdfrwt>
<totfact> 0.64835650E+03</totfact>
</mgrwt>
</event>
<event>
 4    1  0.4173994E+000  0.3004260E+03  0.7546771E-02  0.1085028E+00
         21   -1    0    0  501  502  0.00000000000E+00  0.00000000000E+00  0.21002582923E+03  0.21002582923E+03  0.00000000000E+00 0.  1.
         21   -1    0    0  502  503 -0.00000000000E+00 -0.00000000000E+00 -0.43126543281E+03  0.43126543281E+03  0.00000000000E+00 0. -1.
          6    1    1    2  501    0 -0.16569696813E+03  0.18130442498E+03 -0.91528433416E+02  0.31405928403E+03  0.17300000000E+03 0. -1.
         -6    1    1    2    0  503  0.16569696813E+03 -0.18130442498E+03 -0.12971117016E+03  0.32723197801E+03  0.17300000000E+03 0.  1.
<mgrwt>
<rscale>  2 0.30042600E+03</rscale>
<asrwt>0</asrwt>
<pdfrwt beam="1">  1       21 0.32311666E-01 0.30042600E+03</pdfrwt>
<pdfrwt beam="2">  1       21 0.66348528E-01 0.30042600E+03</pdfrwt>
<totfact> 0.18189331E+04</totfact>
</mgrwt>
</event>
<event>
 4    1  0.4173994E+000  0.1811111E+03  0.7546771E-02  0.1166732E+00
         21   -1    0    0  501  502  0.00000000000E+00  0.00000000000E+00  0.17233745104E+03  0.17233745104E+03  0.00000000000E+00 0. -1.
         21   -1    0    0  502  503 -0.00000000000E+00 -0.00000000000E+00 -0.46926847453E+03  0.46926847453E+03  0.00000000000E+00 0. -1.
          6    1    1    2  501    0  0.29003630720E+02 -0.45066712359E+02  0.98866792309E+02  0.20633919109E+03  0.17300000000E+03 0.  1.
         -6    1    1    2    0  503 -0.29003630720E+02  0.45066712359E+02 -0.39579781580E+03  0.43526673448E+03  0.17300000000E+03 0.  1.
<mgrwt>
<rscale>  2 0.18111107E+03</rscale>
<asrwt>0</asrwt>
<pdfrwt beam="1">  1       21 0.26513454E-01 0.18111107E+03</pdfrwt>
<pdfrwt beam="2">  1       21 0.72195150E-01 0.18111107E+03</pdfrwt>
<totfact> 0.23579883E+04</totfact>
</mgrwt>
</event>
<event>
 4    1  0.4173994E+000  0.1746347E+03  0.7546771E-02  0.1173099E+00
         21   -1    0    0  503  502  0.00000000000E+00  0.00000000000E+00  0.81632966825E+02  0.81632966825E+02  0.00000000000E+00 0.  1.
         21   -1    0    0  501  503 -0.00000000000E+00 -0.00000000000E+00 -0.52282323045E+03  0.52282323045E+03  0.00000000000E+00 0.  1.
          6    1    1    2  501    0 -0.15699379414E+02 -0.17938899063E+02 -0.38206441297E+03  0.42008390861E+03  0.17300000000E+03 0.  1.
         -6    1    1    2    0  502  0.15699379414E+02  0.17938899063E+02 -0.59125850659E+02  0.18437228867E+03  0.17300000000E+03 0.  1.
<mgrwt>
<rscale>  2 0.17463469E+03</rscale>
<asrwt>0</asrwt>
<pdfrwt beam="1">  1       21 0.12558918E-01 0.17463469E+03</pdfrwt>
<pdfrwt beam="2">  1       21 0.80434345E-01 0.17463469E+03</pdfrwt>
<totfact> 0.74062535E+04</totfact>
</mgrwt>
</event>
<event>
 4    1  0.4173994E+000  0.1834051E+03  0.7546771E-02  0.1164548E+00
         21   -1    0    0  503  502  0.00000000000E+00  0.00000000000E+00  0.32953780778E+03  0.32953780778E+03  0.00000000000E+00 0. -1.
         21   -1    0    0  501  503 -0.00000000000E+00 -0.00000000000E+00 -0.10329396091E+03  0.10329396091E+03  0.00000000000E+00 0. -1.
          6    1    1    2  501    0 -0.17571516894E+02 -0.58306757184E+02  0.89608284676E+02  0.20412515970E+03  0.17300000000E+03 0. -1.
         -6    1    1    2    0  502  0.17571516894E+02  0.58306757184E+02  0.13663556220E+03  0.22870660899E+03  0.17300000000E+03 0. -1.
<mgrwt>
<rscale>  2 0.18340511E+03</rscale>
<asrwt>0</asrwt>
<pdfrwt beam="1">  1       21 0.50698124E-01 0.18340511E+03</pdfrwt>
<pdfrwt beam="2">  1       21 0.15891379E-01 0.18340511E+03</pdfrwt>
<totfact> 0.13110555E+05</totfact>
</mgrwt>
</event>
<event>
 4    1  0.4173994E+000  0.1834123E+03  0.7546771E-02  0.1164541E+00
         21   -1    0    0  501  502  0.00000000000E+00  0.00000000000E+00  0.74632352857E+03  0.74632352857E+03  0.00000000000E+00 0.  1.
         21   -1    0    0  502  503 -0.00000000000E+00 -0.00000000000E+00 -0.50773447942E+02  0.50773447942E+02  0.00000000000E+00 0. -1.
          6    1    1    2  501    0  0.36333631428E+02  0.48897112630E+02  0.48130086292E+03  0.51506366699E+03  0.17300000000E+03 0.  1.
         -6    1    1    2    0  503 -0.36333631428E+02 -0.48897112630E+02  0.21424921771E+03  0.28203330953E+03  0.17300000000E+03 0. -1.
<mgrwt>
<rscale>  2 0.18341227E+03</rscale>
<asrwt>0</asrwt>
<pdfrwt beam="1">  1       21 0.11481900E+00 0.18341227E+03</pdfrwt>
<pdfrwt beam="2">  1       21 0.78113002E-02 0.18341227E+03</pdfrwt>
<totfact> 0.73932673E+04</totfact>
</mgrwt>
</event>
<event>
 4    1  0.4173994E+000  0.2346913E+03  0.7546771E-02  0.1123381E+00
         21   -1    0    0  503  502  0.00000000000E+00  0.00000000000E+00  0.36510070969E+03  0.36510070969E+03  0.00000000000E+00 0. -1.
         21   -1    0    0  501  503 -0.00000000000E+00 -0.00000000000E+00 -0.21441984264E+03  0.21441984264E+03  0.00000000000E+00 0.  1.
          6    1    1    2  501    0  0.14015250211E+03  0.74217797936E+02 -0.82416781175E+02  0.24874189675E+03  0.17300000000E+03 0.  1.
         -6    1    1    2    0  502 -0.14015250211E+03 -0.74217797936E+02  0.23309764823E+03  0.33077865558E+03  0.17300000000E+03 0. -1.
<mgrwt>
<rscale>  2 0.23469130E+03</rscale>
<asrwt>0</asrwt>
<pdfrwt beam="1">  1       21 0.56169340E-01 0.23469130E+03</pdfrwt>
<pdfrwt beam="2">  1       21 0.32987668E-01 0.23469130E+03</pdfrwt>
<totfact> 0.25804570E+04</totfact>
</mgrwt>
</event>
<event>
 4    1  0.4173994E+000  0.2124931E+03  0.7546771E-02  0.1139607E+00
         21   -1    0    0  501  502  0.00000000000E+00  0.00000000000E+00  0.36607857777E+03  0.36607857777E+03  0.00000000000E+00 0.  1.
         21   -1    0    0  502  503 -0.00000000000E+00 -0.00000000000E+00 -0.12337129329E+03  0.12337129329E+03  0.00000000000E+00 0.  1.
          6    1    1    2  501    0 -0.98759976702E+02  0.73964676425E+02  0.12504602333E+03  0.24655590504E+03  0.17300000000E+03 0.  1.
         -6    1    1    2    0  503  0.98759976702E+02 -0.73964676425E+02  0.11766126115E+03  0.24289396603E+03  0.17300000000E+03 0.  1.
<mgrwt>
<rscale>  2 0.21249307E+03</rscale>
<asrwt>0</asrwt>
<pdfrwt beam="1">  1       21 0.56319781E-01 0.21249307E+03</pdfrwt>
<pdfrwt beam="2">  1       21 0.18980199E-01 0.21249307E+03</pdfrwt>
<totfact> 0.74834883E+04</totfact>
</mgrwt>
</event>
<event>
 4    1  0.4173994E+000  0.2375501E+03  0.7546771E-02  0.1121436E+00
         21   -1    0    0  503  502  0.00000000000E+00  0.00000000000E+00  0.19805162931E+03  0.19805162931E+03  0.00000000000E+00 0.  1.
         21   -1    0    0  501  503 -0.00000000000E+00 -0.00000000000E+00 -0.28817752609E+03  0.28817752609E+03  0.00000000000E+00 0.  1.
          6    1    1    2  501    0  0.60272583996E+02  0.15122256996E+03 -0.19238715455E+02  0.23832787965E+03  0.17300000000E+03 0.  1.
         -6    1    1    2    0  502 -0.60272583996E+02 -0.15122256996E+03 -0.70887181324E+02  0.24790127576E+03  0.17300000000E+03 0.  1.
<mgrwt>
<rscale>  2 0.23755010E+03</rscale>
<asrwt>0</asrwt>
<pdfrwt beam="1">  1       21 0.30469482E-01 0.23755010E+03</pdfrwt>
<pdfrwt beam="2">  1       21 0.44335004E-01 0.23755010E+03</pdfrwt>
<totfact> 0.49482256E+04</totfact>
</mgrwt>
</event>
<event>
 4    1  0.4173994E+000  0.2510179E+03  0.7546771E-02  0.1112663E+00
         21   -1    0    0  503  502  0.00000000000E+00  0.00000000000E+00  0.17657880501E+03  0.17657880501E+03  0.00000000000E+00 0.  1.
         21   -1    0    0  501  503 -0.00000000000E+00 -0.00000000000E+00 -0.35926315628E+03  0.35926315628E+03  0.00000000000E+00 0. -1.
          6    1    1    2  501    0 -0.15187178566E+03 -0.10007976704E+03 -0.11335545453E+03  0.27542595760E+03  0.17300000000E+03 0. -1.
         -6    1    1    2    0  502  0.15187178566E+03  0.10007976704E+03 -0.69328896737E+02  0.26041600368E+03  0.17300000000E+03 0. -1.
<mgrwt>
<rscale>  2 0.25101793E+03</rscale>
<asrwt>0</asrwt>
<pdfrwt beam="1">  1       21 0.27165970E-01 0.25101793E+03</pdfrwt>
<pdfrwt beam="2">  1       21 0.55271255E-01 0.25101793E+03</pdfrwt>
<totfact> 0.38785873E+04</totfact>
</mgrwt>
</event>
<event>
 4    1  0.4173994E+000  0.2236364E+03  0.7546771E-02  0.1131201E+00
         21   -1    0    0  501  502  0.00000000000E+00  0.00000000000E+00  0.66602007113E+03  0.66602007113E+03  0.00000000000E+00 0.  1.
         21   -1    0    0  502  503 -0.00000000000E+00 -0.00000000000E+00 -0.76941595520E+02  0.76941595520E+02  0.00000000000E+00 0.  1.
          6    1    1    2  501    0  0.10762286644E+02  0.14130957982E+03  0.35212508311E+03  0.41713942311E+03  0.17300000000E+03 0.  1.
         -6    1    1    2    0  503 -0.10762286644E+02 -0.14130957982E+03  0.23695339250E+03  0.32582224353E+03  0.17300000000E+03 0.  1.
<mgrwt>
<rscale>  2 0.22363637E+03</rscale>
<asrwt>0</asrwt>
<pdfrwt beam="1">  1       21 0.10246462E+00 0.22363637E+03</pdfrwt>
<pdfrwt beam="2">  1       21 0.11837169E-01 0.22363637E+03</pdfrwt>
<totfact> 0.45858067E+04</totfact>
</mgrwt>
</event>
<event>
 4    1  0.4173994E+000  0.2034640E+03  0.7546771E-02  0.1146849E+00
         21   -1    0    0  503  502  0.00000000000E+00  0.00000000000E+00  0.44703276277E+03  0.44703276277E+03  0.00000000000E+00 0. -1.
         21   -1    0    0  501  503 -0.00000000000E+00 -0.00000000000E+00 -0.15912128676E+03  0.15912128676E+03  0.00000000000E+00 0.  1.
          6    1    1    2  501    0 -0.43159427016E+02 -0.98009481414E+02 -0.51997279428E+02  0.21000312297E+03  0.17300000000E+03 0.  1.
         -6    1    1    2    0  502  0.43159427016E+02  0.98009481414E+02  0.33990875544E+03  0.39615092656E+03  0.17300000000E+03 0. -1.
<mgrwt>
<rscale>  2 0.20346399E+03</rscale>
<asrwt>0</asrwt>
<pdfrwt beam="1">  1       21 0.68774271E-01 0.20346399E+03</pdfrwt>
<pdfrwt beam="2">  1       21 0.24480198E-01 0.20346399E+03</pdfrwt>
<totfact> 0.30189797E+04</totfact>
</mgrwt>
</event>
<event>
 4    1  0.4173994E+000  0.2215618E+03  0.7546771E-02  0.1132724E+00
         21   -1    0    0  501  502  0.00000000000E+00  0.00000000000E+00  0.61843568322E+03  0.61843568322E+03  0.00000000000E+00 0. -1.
         21   -1    0    0  502  503 -0.00000000000E+00 -0.00000000000E+00 -0.43521590280E+03  0.43521590280E+03  0.00000000000E+00 0.  1.
          6    1    1    2  501    0  0.10374686624E+03 -0.91636369976E+02  0.56797648425E+03  0.60966131845E+03  0.17300000000E+03 0. -1.
         -6    1    1    2    0  503 -0.10374686624E+03  0.91636369976E+02 -0.38475670383E+03  0.44399026757E+03  0.17300000000E+03 0.  1.
<mgrwt>
<rscale>  2 0.22156181E+03</rscale>
<asrwt>0</asrwt>
<pdfrwt beam="1">  1       21 0.95143951E-01 0.22156181E+03</pdfrwt>
<pdfrwt beam="2">  1       21 0.66956293E-01 0.22156181E+03</pdfrwt>
<totfact> 0.18383825E+03</totfact>
</mgrwt>
</event>
<event>
 4    1  0.4173994E+000  0.1815751E+03  0.7546771E-02  0.1166287E+00
         21   -1    0    0  501  502  0.00000000000E+00  0.00000000000E+00  0.16550618209E+03  0.16550618209E+03  0.00000000000E+00 0. -1.
         21   -1    0    0  502  503 -0.00000000000E+00 -0.00000000000E+00 -0.20258690809E+03  0.20258690809E+03  0.00000000000E+00 0. -1.
          6    1    1    2  501    0 -0.42069959973E+02  0.35646100058E+02  0.52419714060E+01  0.18165077552E+03  0.17300000000E+03 0. -1.
         -6    1    1    2    0  503  0.42069959973E+02 -0.35646100058E+02 -0.42322697411E+02  0.18644231466E+03  0.17300000000E+03 0. -1.
<mgrwt>
<rscale>  2 0.18157512E+03</rscale>
<asrwt>0</asrwt>
<pdfrwt beam="1">  1       21 0.25462490E-01 0.18157512E+03</pdfrwt>
<pdfrwt beam="2">  1       21 0.31167216E-01 0.18157512E+03</pdfrwt>
<totfact> 0.14517465E+05</totfact>
</mgrwt>
</event>
<event>
 4    1  0.4173994E+000  0.2723900E+03  0.7546771E-02  0.1099919E+00
         21   -1    0    0  501  502  0.00000000000E+00  0.00000000000E+00  0.17667395135E+04  0.17667395135E+04  0.00000000000E+00 0.  1.
         21   -1    0    0  502  503 -0.00000000000E+00 -0.00000000000E+00 -0.53216882700E+02  0.53216882700E+02  0.00000000000E+00 0. -1.
          6    1    1    2  501    0  0.27890979445E+02  0.20854116229E+03  0.12746072324E+04  0.13033878624E+04  0.17300000000E+03 0.  1.
         -6    1    1    2    0  503 -0.27890979445E+02 -0.20854116229E+03  0.43891539841E+03  0.51656853376E+03  0.17300000000E+03 0. -1.
<mgrwt>
<rscale>  2 0.27239002E+03</rscale>
<asrwt>0</asrwt>
<pdfrwt beam="1">  1       21 0.27180603E+00 0.27239002E+03</pdfrwt>
<pdfrwt beam="2">  1       21 0.81872141E-02 0.27239002E+03</pdfrwt>
<totfact> 0.53175853E+03</totfact>
</mgrwt>
</event>
<event>
 4    1  0.4173994E+000  0.1733157E+03  0.7546771E-02  0.1174434E+00
         21   -1    0    0  501  502  0.00000000000E+00  0.00000000000E+00  0.41601586872E+02  0.41601586872E+02  0.00000000000E+00 0.  1.
         21   -1    0    0  502  503 -0.00000000000E+00 -0.00000000000E+00 -0.80038129875E+03  0.80038129875E+03  0.00000000000E+00 0.  1.
          6    1    1    2  501    0 -0.64495152068E+01  0.82296251275E+01 -0.51109396277E+03  0.53968079617E+03  0.17300000000E+03 0. -1.
         -6    1    1    2    0  503  0.64495152068E+01 -0.82296251275E+01 -0.24768574911E+03  0.30230208946E+03  0.17300000000E+03 0. -1.
<mgrwt>
<rscale>  2 0.17331567E+03</rscale>
<asrwt>0</asrwt>
<pdfrwt beam="1">  1       21 0.64002444E-02 0.17331567E+03</pdfrwt>
<pdfrwt beam="2">  1       21 0.12313558E+00 0.17331567E+03</pdfrwt>
<totfact> 0.88198066E+04</totfact>
</mgrwt>
</event>
<event>
 4    1  0.4173994E+000  0.1762834E+03  0.7546771E-02  0.1171449E+00
         21   -1    0    0  503  502  0.00000000000E+00  0.00000000000E+00  0.39391005326E+03  0.39391005326E+03  0.00000000000E+00 0. -1.
         21   -1    0    0  501  503 -0.00000000000E+00 -0.00000000000E+00 -0.10883758644E+03  0.10883758644E+03  0.00000000000E+00 0. -1.
          6    1    1    2  501    0  0.10209662729E+02 -0.32289456530E+02  0.10678285092E+02  0.17660654571E+03  0.17300000000E+03 0. -1.
         -6    1    1    2    0  502 -0.10209662729E+02  0.32289456530E+02  0.27439418174E+03  0.32614109399E+03  0.17300000000E+03 0. -1.
<mgrwt>
<rscale>  2 0.17628343E+03</rscale>
<asrwt>0</asrwt>
<pdfrwt beam="1">  1       21 0.60601546E-01 0.17628343E+03</pdfrwt>
<pdfrwt beam="2">  1       21 0.16744244E-01 0.17628343E+03</pdfrwt>
<totfact> 0.81910220E+04</totfact>
</mgrwt>
</event>
<event>
 4    1  0.4173994E+000  0.1957373E+03  0.7546771E-02  0.1153386E+00
         21   -1    0    0  501  502  0.00000000000E+00  0.00000000000E+00  0.43015441588E+03  0.43015441588E+03  0.00000000000E+00 0. -1.
         21   -1    0    0  502  503 -0.00000000000E+00 -0.00000000000E+00 -0.15188039434E+03  0.15188039434E+03  0.00000000000E+00 0. -1.
          6    1    1    2  501    0  0.88336206931E+02  0.24099833318E+02  0.32628709438E+03  0.38049488220E+03  0.17300000000E+03 0. -1.
         -6    1    1    2    0  503 -0.88336206931E+02 -0.24099833318E+02 -0.48013072848E+02  0.20153992802E+03  0.17300000000E+03 0. -1.
<mgrwt>
<rscale>  2 0.19573729E+03</rscale>
<asrwt>0</asrwt>
<pdfrwt beam="1">  1       21 0.66177602E-01 0.19573729E+03</pdfrwt>
<pdfrwt beam="2">  1       21 0.23366215E-01 0.19573729E+03</pdfrwt>
<totfact> 0.36042976E+04</totfact>
</mgrwt>
</event>
<event>
 4    1  0.4173994E+000  0.1907492E+03  0.7546771E-02  0.1157787E+00
         21   -1    0    0  501  502  0.00000000000E+00  0.00000000000E+00  0.44184331697E+03  0.44184331697E+03  0.00000000000E+00 0. -1.
         21   -1    0    0  502  503 -0.00000000000E+00 -0.00000000000E+00 -0.12871849415E+03  0.12871849415E+03  0.00000000000E+00 0. -1.
          6    1    1    2  501    0 -0.77107573581E+02  0.22598586155E+02  0.32778823746E+03  0.37924978921E+03  0.17300000000E+03 0. -1.
         -6    1    1    2    0  503  0.77107573581E+02 -0.22598586155E+02 -0.14663414635E+02  0.19131202191E+03  0.17300000000E+03 0. -1.
<mgrwt>
<rscale>  2 0.19074924E+03</rscale>
<asrwt>0</asrwt>
<pdfrwt beam="1">  1       21 0.67975894E-01 0.19074924E+03</pdfrwt>
<pdfrwt beam="2">  1       21 0.19802845E-01 0.19074924E+03</pdfrwt>
<totfact> 0.46517805E+04</totfact>
</mgrwt>
</event>
<event>
 4    1  0.4173994E+000  0.1880737E+03  0.7546771E-02  0.1160210E+00
         21   -1    0    0  501  502  0.00000000000E+00  0.00000000000E+00  0.17764927693E+04  0.17764927693E+04  0.00000000000E+00 0. -1.
         21   -1    0    0  502  503 -0.00000000000E+00 -0.00000000000E+00 -0.34000247487E+02  0.34000247487E+02  0.00000000000E+00 0. -1.
          6    1    1    2  501    0  0.68581232535E+02  0.27190428182E+02  0.14539798993E+04  0.14660931937E+04  0.17300000000E+03 0. -1.
         -6    1    1    2    0  503 -0.68581232535E+02 -0.27190428182E+02  0.28851262250E+03  0.34439982315E+03  0.17300000000E+03 0. -1.
<mgrwt>
<rscale>  2 0.18807367E+03</rscale>
<asrwt>0</asrwt>
<pdfrwt beam="1">  1       21 0.27330651E+00 0.18807367E+03</pdfrwt>
<pdfrwt beam="2">  1       21 0.52308087E-02 0.18807367E+03</pdfrwt>
<totfact> 0.12175207E+04</totfact>
</mgrwt>
</event>
<event>
 4    1  0.4173994E+000  0.1775217E+03  0.7546771E-02  0.1170223E+00
         21   -1    0    0  503  502  0.00000000000E+00  0.00000000000E+00  0.13975622585E+03  0.13975622585E+03  0.00000000000E+00 0. -1.
         21   -1    0    0  501  503 -0.00000000000E+00 -0.00000000000E+00 -0.41529536444E+03  0.41529536444E+03  0.00000000000E+00 0. -1.
          6    1    1    2  501    0  0.64634939090E+01  0.39283355385E+02 -0.32538837845E+03  0.37066366911E+03  0.17300000000E+03 0. -1.
         -6    1    1    2    0  502 -0.64634939090E+01 -0.39283355385E+02  0.49849239858E+02  0.18438792118E+03  0.17300000000E+03 0. -1.
<mgrwt>
<rscale>  2 0.17752171E+03</rscale>
<asrwt>0</asrwt>
<pdfrwt beam="1">  1       21 0.21500958E-01 0.17752171E+03</pdfrwt>
<pdfrwt beam="2">  1       21 0.63891594E-01 0.17752171E+03</pdfrwt>
<totfact> 0.45940432E+04</totfact>
</mgrwt>
</event>
<event>
 4    1  0.4173994E+000  0.1990594E+03  0.7546771E-02  0.1150535E+00
         21   -1    0    0  503  502  0.00000000000E+00  0.00000000000E+00  0.32307490678E+02  0.32307490678E+02  0.00000000000E+00 0. -1.
         21   -1    0    0  501  503 -0.00000000000E+00 -0.00000000000E+00 -0.17198282415E+04  0.17198282415E+04  0.00000000000E+00 0.  1.
          6    1    1    2  501    0 -0.71537901508E+01 -0.98206314947E+02 -0.13129730614E+04  0.13279770017E+04  0.17300000000E+03 0.  1.
         -6    1    1    2    0  502  0.71537901508E+01  0.98206314947E+02 -0.37454768938E+03  0.42415873046E+03  0.17300000000E+03 0. -1.
<mgrwt>
<rscale>  2 0.19905943E+03</rscale>
<asrwt>0</asrwt>
<pdfrwt beam="1">  1       21 0.49703822E-02 0.19905943E+03</pdfrwt>
<pdfrwt beam="2">  1       21 0.26458901E+00 0.19905943E+03</pdfrwt>
<totfact> 0.14758760E+04</totfact>
</mgrwt>
</event>
<event>
 4    1  0.4173994E+000  0.3816174E+03  0.7546771E-02  0.1050338E+00
         21   -1    0    0  503  502  0.00000000000E+00  0.00000000000E+00  0.39648245291E+03  0.39648245291E+03  0.00000000000E+00 0.  1.
         21   -1    0    0  501  503 -0.00000000000E+00 -0.00000000000E+00 -0.39006911305E+03  0.39006911305E+03  0.00000000000E+00 0. -1.
          6    1    1    2  501    0  0.30119007708E+03  0.15807404463E+03 -0.91789606830E+02  0.39250120769E+03  0.17300000000E+03 0. -1.
         -6    1    1    2    0  502 -0.30119007708E+03 -0.15807404463E+03  0.98202946686E+02  0.39405035827E+03  0.17300000000E+03 0.  1.
<mgrwt>
<rscale>  2 0.38161743E+03</rscale>
<asrwt>0</asrwt>
<pdfrwt beam="1">  1       21 0.60997301E-01 0.38161743E+03</pdfrwt>
<pdfrwt beam="2">  1       21 0.60010632E-01 0.38161743E+03</pdfrwt>
<totfact> 0.58555746E+03</totfact>
</mgrwt>
</event>
<event>
 4    1  0.4173994E+000  0.2368991E+03  0.7546771E-02  0.1121876E+00
         21   -1    0    0  503  502  0.00000000000E+00  0.00000000000E+00  0.46323304953E+03  0.46323304953E+03  0.00000000000E+00 0.  1.
         21   -1    0    0  501  503 -0.00000000000E+00 -0.00000000000E+00 -0.12987417267E+03  0.12987417267E+03  0.00000000000E+00 0.  1.
          6    1    1    2  501    0 -0.31425251666E+02 -0.15875969004E+03  0.89823578052E+02  0.25335639088E+03  0.17300000000E+03 0.  1.
         -6    1    1    2    0  502  0.31425251666E+02  0.15875969004E+03  0.24353529880E+03  0.33975083132E+03  0.17300000000E+03 0.  1.
<mgrwt>
<rscale>  2 0.23689910E+03</rscale>
<asrwt>0</asrwt>
<pdfrwt beam="1">  1       21 0.71266622E-01 0.23689910E+03</pdfrwt>
<pdfrwt beam="2">  1       21 0.19980642E-01 0.23689910E+03</pdfrwt>
<totfact> 0.40304787E+04</totfact>
</mgrwt>
</event>
<event>
 4    1  0.4173994E+000  0.1771336E+03  0.7546771E-02  0.1170606E+00
         21   -1    0    0  503  502  0.00000000000E+00  0.00000000000E+00  0.13997483529E+03  0.13997483529E+03  0.00000000000E+00 0. -1.
         21   -1    0    0  501  503 -0.00000000000E+00 -0.00000000000E+00 -0.22523067185E+03  0.22523067185E+03  0.00000000000E+00 0. -1.
          6    1    1    2  501    0  0.18012336446E+02 -0.33509183149E+02 -0.55236667606E+02  0.18554621814E+03  0.17300000000E+03 0. -1.
         -6    1    1    2    0  502 -0.18012336446E+02  0.33509183149E+02 -0.30019168950E+02  0.17965928900E+03  0.17300000000E+03 0. -1.
<mgrwt>
<rscale>  2 0.17713359E+03</rscale>
<asrwt>0</asrwt>
<pdfrwt beam="1">  1       21 0.21534590E-01 0.17713359E+03</pdfrwt>
<pdfrwt beam="2">  1       21 0.34650873E-01 0.17713359E+03</pdfrwt>
<totfact> 0.16210455E+05</totfact>
</mgrwt>
</event>
<event>
 4    1  0.4173994E+000  0.1802902E+03  0.7546771E-02  0.1167522E+00
         21   -1    0    0  503  502  0.00000000000E+00  0.00000000000E+00  0.51598361297E+03  0.51598361297E+03  0.00000000000E+00 0.  1.
         21   -1    0    0  501  503 -0.00000000000E+00 -0.00000000000E+00 -0.16554754850E+03  0.16554754850E+03  0.00000000000E+00 0.  1.
          6    1    1    2  501    0  0.42137140116E+02  0.28284880282E+02 -0.92986932795E+02  0.20285744428E+03  0.17300000000E+03 0.  1.
         -6    1    1    2    0  502 -0.42137140116E+02 -0.28284880282E+02  0.44342299726E+03  0.47867371719E+03  0.17300000000E+03 0.  1.
<mgrwt>
<rscale>  2 0.18029025E+03</rscale>
<asrwt>0</asrwt>
<pdfrwt beam="1">  1       21 0.79382093E-01 0.18029025E+03</pdfrwt>
<pdfrwt beam="2">  1       21 0.25468854E-01 0.18029025E+03</pdfrwt>
<totfact> 0.20613182E+04</totfact>
</mgrwt>
</event>
<event>
 4    1  0.4173994E+000  0.1979526E+03  0.7546771E-02  0.1151478E+00
         21   -1    0    0  501  502  0.00000000000E+00  0.00000000000E+00  0.41128882697E+02  0.41128882697E+02  0.00000000000E+00 0.  1.
         21   -1    0    0  502  503 -0.00000000000E+00 -0.00000000000E+00 -0.11384682972E+04  0.11384682972E+04  0.00000000000E+00 0.  1.
          6    1    1    2  501    0 -0.92477904143E+02  0.26533930623E+02 -0.31044872634E+03  0.36818965753E+03  0.17300000000E+03 0.  1.
         -6    1    1    2    0  503  0.92477904143E+02 -0.26533930623E+02 -0.78689068819E+03  0.81140752239E+03  0.17300000000E+03 0.  1.
<mgrwt>
<rscale>  2 0.19795255E+03</rscale>
<asrwt>0</asrwt>
<pdfrwt beam="1">  1       21 0.63275199E-02 0.19795255E+03</pdfrwt>
<pdfrwt beam="2">  1       21 0.17514898E+00 0.19795255E+03</pdfrwt>
<totfact> 0.35241738E+04</totfact>
</mgrwt>
</event>
<event>
 4    1  0.4173994E+000  0.3075953E+03  0.7546771E-02  0.1081504E+00
         21   -1    0    0  503  502  0.00000000000E+00  0.00000000000E+00  0.11240733022E+03  0.11240733022E+03  0.00000000000E+00 0.  1.
         21   -1    0    0  501  503 -0.00000000000E+00 -0.00000000000E+00 -0.85684752677E+03  0.85684752677E+03  0.00000000000E+00 0. -1.
          6    1    1    2  501    0  0.17258220118E+03  0.18681884006E+03 -0.30781545947E+03  0.43516117963E+03  0.17300000000E+03 0.  1.
         -6    1    1    2    0  502 -0.17258220118E+03 -0.18681884006E+03 -0.43662473707E+03  0.53409367736E+03  0.17300000000E+03 0.  1.
<mgrwt>
<rscale>  2 0.30759534E+03</rscale>
<asrwt>0</asrwt>
<pdfrwt beam="1">  1       21 0.17293436E-01 0.30759534E+03</pdfrwt>
<pdfrwt beam="2">  1       21 0.13182270E+00 0.30759534E+03</pdfrwt>
<totfact> 0.11808111E+04</totfact>
</mgrwt>
</event>
<event>
 4    1  0.4173994E+000  0.2465703E+03  0.7546771E-02  0.1115492E+00
         21   -1    0    0  501  502  0.00000000000E+00  0.00000000000E+00  0.18152876623E+03  0.18152876623E+03  0.00000000000E+00 0. -1.
         21   -1    0    0  502  503 -0.00000000000E+00 -0.00000000000E+00 -0.35143543819E+03  0.35143543819E+03  0.00000000000E+00 0. -1.
          6    1    1    2  501    0  0.63113874806E+02  0.16396511732E+03 -0.27178257538E+02  0.24806365831E+03  0.17300000000E+03 0. -1.
         -6    1    1    2    0  503 -0.63113874806E+02 -0.16396511732E+03 -0.14272841442E+03  0.28490054611E+03  0.17300000000E+03 0. -1.
<mgrwt>
<rscale>  2 0.24657032E+03</rscale>
<asrwt>0</asrwt>
<pdfrwt beam="1">  1       21 0.27927503E-01 0.24657032E+03</pdfrwt>
<pdfrwt beam="2">  1       21 0.54066990E-01 0.24657032E+03</pdfrwt>
<totfact> 0.38593716E+04</totfact>
</mgrwt>
</event>
<event>
 4    1  0.4173994E+000  0.2057384E+03  0.7546771E-02  0.1144986E+00
         21   -1    0    0  503  502  0.00000000000E+00  0.00000000000E+00  0.58748151646E+02  0.58748151646E+02  0.00000000000E+00 0. -1.
         21   -1    0    0  501  503 -0.00000000000E+00 -0.00000000000E+00 -0.73190855610E+03  0.73190855610E+03  0.00000000000E+00 0.  1.
          6    1    1    2  501    0  0.50071331184E+02  0.99459228911E+02 -0.38592817751E+03  0.43734292566E+03  0.17300000000E+03 0. -1.
         -6    1    1    2    0  502 -0.50071331184E+02 -0.99459228911E+02 -0.28723222694E+03  0.35331378209E+03  0.17300000000E+03 0. -1.
<mgrwt>
<rscale>  2 0.20573837E+03</rscale>
<asrwt>0</asrwt>
<pdfrwt beam="1">  1       21 0.90381774E-02 0.20573837E+03</pdfrwt>
<pdfrwt beam="2">  1       21 0.11260131E+00 0.20573837E+03</pdfrwt>
<totfact> 0.59443417E+04</totfact>
</mgrwt>
</event>
<event>
 4    1  0.4173994E+000  0.2014793E+03  0.7546771E-02  0.1148497E+00
         21   -1    0    0  501  502  0.00000000000E+00  0.00000000000E+00  0.68610714916E+03  0.68610714916E+03  0.00000000000E+00 0.  1.
         21   -1    0    0  502  503 -0.00000000000E+00 -0.00000000000E+00 -0.76743634628E+02  0.76743634628E+02  0.00000000000E+00 0.  1.
          6    1    1    2  501    0  0.26707601996E+02  0.99757682323E+02  0.48722866329E+03  0.52724345564E+03  0.17300000000E+03 0.  1.
         -6    1    1    2    0  503 -0.26707601996E+02 -0.99757682323E+02  0.12213485124E+03  0.23560732814E+03  0.17300000000E+03 0.  1.
<mgrwt>
<rscale>  2 0.20147926E+03</rscale>
<asrwt>0</asrwt>
<pdfrwt beam="1">  1       21 0.10555494E+00 0.20147926E+03</pdfrwt>
<pdfrwt beam="2">  1       21 0.11806713E-01 0.20147926E+03</pdfrwt>
<totfact> 0.43376032E+04</totfact>
</mgrwt>
</event>
<event>
 4    1  0.4173994E+000  0.1753612E+03  0.7546771E-02  0.1172370E+00
         21   -1    0    0  503  502  0.00000000000E+00  0.00000000000E+00  0.58038859728E+03  0.58038859728E+03  0.00000000000E+00 0.  1.
         21   -1    0    0  501  503 -0.00000000000E+00 -0.00000000000E+00 -0.17694836442E+03  0.17694836442E+03  0.00000000000E+00 0.  1.
          6    1    1    2  501    0  0.12885297198E+02  0.25622694048E+02 -0.11522464202E+03  0.20982914827E+03  0.17300000000E+03 0.  1.
         -6    1    1    2    0  502 -0.12885297198E+02 -0.25622694048E+02  0.51866487488E+03  0.54750781343E+03  0.17300000000E+03 0.  1.
<mgrwt>
<rscale>  2 0.17536121E+03</rscale>
<asrwt>0</asrwt>
<pdfrwt beam="1">  1       21 0.89290553E-01 0.17536121E+03</pdfrwt>
<pdfrwt beam="2">  1       21 0.27222826E-01 0.17536121E+03</pdfrwt>
<totfact> 0.13923948E+04</totfact>
</mgrwt>
</event>
<event>
 4    1  0.4173994E+000  0.1919122E+03  0.7546771E-02  0.1156748E+00
         21   -1    0    0  503  502  0.00000000000E+00  0.00000000000E+00  0.69586190889E+02  0.69586190889E+02  0.00000000000E+00 0.  1.
         21   -1    0    0  501  503 -0.00000000000E+00 -0.00000000000E+00 -0.69424682707E+03  0.69424682707E+03  0.00000000000E+00 0.  1.
          6    1    1    2  501    0  0.18206047293E+02 -0.81054566381E+02 -0.49850259740E+03  0.53416771009E+03  0.17300000000E+03 0.  1.
         -6    1    1    2    0  502 -0.18206047293E+02  0.81054566381E+02 -0.12615803878E+03  0.22966530787E+03  0.17300000000E+03 0.  1.
<mgrwt>
<rscale>  2 0.19191223E+03</rscale>
<asrwt>0</asrwt>
<pdfrwt beam="1">  1       21 0.10705568E-01 0.19191223E+03</pdfrwt>
<pdfrwt beam="2">  1       21 0.10680721E+00 0.19191223E+03</pdfrwt>
<totfact> 0.50452032E+04</totfact>
</mgrwt>
</event>
<event>
 4    1  0.4173994E+000  0.1854039E+03  0.7546771E-02  0.1162673E+00
         21   -1    0    0  503  502  0.00000000000E+00  0.00000000000E+00  0.44622050129E+03  0.44622050129E+03  0.00000000000E+00 0. -1.
         21   -1    0    0  501  503 -0.00000000000E+00 -0.00000000000E+00 -0.31983424680E+03  0.31983424680E+03  0.00000000000E+00 0. -1.
          6    1    1    2  501    0  0.47765925721E+01 -0.66503924895E+02 -0.27053361977E+03  0.32796802785E+03  0.17300000000E+03 0. -1.
         -6    1    1    2    0  502 -0.47765925721E+01  0.66503924895E+02  0.39691987426E+03  0.43808672023E+03  0.17300000000E+03 0. -1.
<mgrwt>
<rscale>  2 0.18540385E+03</rscale>
<asrwt>0</asrwt>
<pdfrwt beam="1">  1       21 0.68649308E-01 0.18540385E+03</pdfrwt>
<pdfrwt beam="2">  1       21 0.49205268E-01 0.18540385E+03</pdfrwt>
<totfact> 0.76600169E+03</totfact>
</mgrwt>
</event>
<event>
 4    1  0.4173994E+000  0.2897144E+03  0.7546771E-02  0.1090498E+00
         21   -1    0    0  501  502  0.00000000000E+00  0.00000000000E+00  0.58850960612E+03  0.58850960612E+03  0.00000000000E+00 0.  1.
         21   -1    0    0  502  503 -0.00000000000E+00 -0.00000000000E+00 -0.28929840064E+03  0.28929840064E+03  0.00000000000E+00 0. -1.
          6    1    1    2  501    0 -0.23121915504E+03  0.23305299029E+02  0.46212473061E+03  0.54542983166E+03  0.17300000000E+03 0.  1.
         -6    1    1    2    0  503  0.23121915504E+03 -0.23305299029E+02 -0.16291352512E+03  0.33237817511E+03  0.17300000000E+03 0. -1.
<mgrwt>
<rscale>  2 0.28971440E+03</rscale>
<asrwt>0</asrwt>
<pdfrwt beam="1">  1       21 0.90539939E-01 0.28971440E+03</pdfrwt>
<pdfrwt beam="2">  1       21 0.44507446E-01 0.28971440E+03</pdfrwt>
<totfact> 0.47112361E+03</totfact>
</mgrwt>
</event>
<event>
 4    1  0.4173994E+000  0.2072542E+03  0.7546771E-02  0.1143759E+00
         21   -1    0    0  503  502  0.00000000000E+00  0.00000000000E+00  0.56353565084E+03  0.56353565084E+03  0.00000000000E+00 0. -1.
         21   -1    0    0  501  503 -0.00000000000E+00 -0.00000000000E+00 -0.36031772273E+03  0.36031772273E+03  0.00000000000E+00 0. -1.
          6    1    1    2  501    0  0.91543807445E+02 -0.68154598267E+02 -0.30855915951E+03  0.37170293631E+03  0.17300000000E+03 0. -1.
         -6    1    1    2    0  502 -0.91543807445E+02  0.68154598267E+02  0.51177708762E+03  0.55215043726E+03  0.17300000000E+03 0. -1.
<mgrwt>
<rscale>  2 0.20725424E+03</rscale>
<asrwt>0</asrwt>
<pdfrwt beam="1">  1       21 0.86697793E-01 0.20725424E+03</pdfrwt>
<pdfrwt beam="2">  1       21 0.55433495E-01 0.20725424E+03</pdfrwt>
<totfact> 0.34711047E+03</totfact>
</mgrwt>
</event>
<event>
 4    1  0.4173994E+000  0.2119434E+03  0.7546771E-02  0.1140036E+00
         21   -1    0    0  503  502  0.00000000000E+00  0.00000000000E+00  0.12148803029E+04  0.12148803029E+04  0.00000000000E+00 0.  1.
         21   -1    0    0  501  503 -0.00000000000E+00 -0.00000000000E+00 -0.38386957926E+02  0.38386957926E+02  0.00000000000E+00 0.  1.
          6    1    1    2  501    0 -0.73663721061E+02 -0.97799092936E+02  0.70843357331E+03  0.73945800028E+03  0.17300000000E+03 0. -1.
         -6    1    1    2    0  502  0.73663721061E+02  0.97799092936E+02  0.46805977169E+03  0.51380926057E+03  0.17300000000E+03 0. -1.
<mgrwt>
<rscale>  2 0.21194340E+03</rscale>
<asrwt>0</asrwt>
<pdfrwt beam="1">  1       21 0.18690463E+00 0.21194340E+03</pdfrwt>
<pdfrwt beam="2">  1       21 0.59056867E-02 0.21194340E+03</pdfrwt>
<totfact> 0.32702393E+04</totfact>
</mgrwt>
</event>
<event>
 4    1  0.4173994E+000  0.2083735E+03  0.7546771E-02  0.1142861E+00
         21   -1    0    0  503  502  0.00000000000E+00  0.00000000000E+00  0.18485779651E+03  0.18485779651E+03  0.00000000000E+00 0.  1.
         21   -1    0    0  501  503 -0.00000000000E+00 -0.00000000000E+00 -0.23878466905E+03  0.23878466905E+03  0.00000000000E+00 0.  1.
          6    1    1    2  501    0  0.87302887683E+02 -0.76607516294E+02  0.12140801312E+00  0.20837351197E+03  0.17300000000E+03 0.  1.
         -6    1    1    2    0  502 -0.87302887683E+02  0.76607516294E+02 -0.54048280545E+02  0.21526895359E+03  0.17300000000E+03 0.  1.
<mgrwt>
<rscale>  2 0.20837348E+03</rscale>
<asrwt>0</asrwt>
<pdfrwt beam="1">  1       21 0.28439661E-01 0.20837348E+03</pdfrwt>
<pdfrwt beam="2">  1       21 0.36736103E-01 0.20837348E+03</pdfrwt>
<totfact> 0.83923336E+04</totfact>
</mgrwt>
</event>
<event>
 4    1  0.4173994E+000  0.3568358E+03  0.7546771E-02  0.1059844E+00
         21   -1    0    0  501  502  0.00000000000E+00  0.00000000000E+00  0.24386889566E+03  0.24386889566E+03  0.00000000000E+00 0. -1.
         21   -1    0    0  502  503 -0.00000000000E+00 -0.00000000000E+00 -0.14523093085E+04  0.14523093085E+04  0.00000000000E+00 0.  1.
          6    1    1    2  501    0 -0.63540927657E+02 -0.30555745294E+03  0.74506194226E+02  0.36453117769E+03  0.17300000000E+03 0. -1.
         -6    1    1    2    0  503  0.63540927657E+02  0.30555745294E+03 -0.12829466070E+04  0.13316470264E+04  0.17300000000E+03 0.  1.
<mgrwt>
<rscale>  2 0.35683583E+03</rscale>
<asrwt>0</asrwt>
<pdfrwt beam="1">  1       21 0.37518292E-01 0.35683583E+03</pdfrwt>
<pdfrwt beam="2">  1       21 0.22343220E+00 0.35683583E+03</pdfrwt>
<totfact> 0.56717827E+02</totfact>
</mgrwt>
</event>
<event>
 4    1  0.4173994E+000  0.1786443E+03  0.7546771E-02  0.1169122E+00
         21   -1    0    0  501  502  0.00000000000E+00  0.00000000000E+00  0.43242985949E+03  0.43242985949E+03  0.00000000000E+00 0. -1.
         21   -1    0    0  502  503 -0.00000000000E+00 -0.00000000000E+00 -0.19463787051E+03  0.19463787051E+03  0.00000000000E+00 0. -1.
          6    1    1    2  501    0  0.21672407787E+02 -0.38924081241E+02  0.36593778708E+03  0.40721522733E+03  0.17300000000E+03 0. -1.
         -6    1    1    2    0  503 -0.21672407787E+02  0.38924081241E+02 -0.12814579810E+03  0.21985250267E+03  0.17300000000E+03 0. -1.
<mgrwt>
<rscale>  2 0.17864428E+03</rscale>
<asrwt>0</asrwt>
<pdfrwt beam="1">  1       21 0.66527671E-01 0.17864428E+03</pdfrwt>
<pdfrwt beam="2">  1       21 0.29944288E-01 0.17864428E+03</pdfrwt>
<totfact> 0.22340709E+04</totfact>
</mgrwt>
</event>
<event>
 4    1  0.4173994E+000  0.2000498E+03  0.7546771E-02  0.1149697E+00
         21   -1    0    0  501  502  0.00000000000E+00  0.00000000000E+00  0.25828762970E+03  0.25828762970E+03  0.00000000000E+00 0.  1.
         21   -1    0    0  502  503 -0.00000000000E+00 -0.00000000000E+00 -0.15494549033E+03  0.15494549033E+03  0.00000000000E+00 0.  1.
          6    1    1    2  501    0 -0.97684512204E+02  0.23423368338E+02  0.50880899079E+02  0.20641895262E+03  0.17300000000E+03 0. -1.
         -6    1    1    2    0  503  0.97684512204E+02 -0.23423368338E+02  0.52461240290E+02  0.20681416741E+03  0.17300000000E+03 0. -1.
<mgrwt>
<rscale>  2 0.20004979E+03</rscale>
<asrwt>0</asrwt>
<pdfrwt beam="1">  1       21 0.39736559E-01 0.20004979E+03</pdfrwt>
<pdfrwt beam="2">  1       21 0.23837768E-01 0.20004979E+03</pdfrwt>
<totfact> 0.10093700E+05</totfact>
</mgrwt>
</event>
<event>
 4    1  0.4173994E+000  0.2544623E+03  0.7546771E-02  0.1110517E+00
         21   -1    0    0  503  502  0.00000000000E+00  0.00000000000E+00  0.10855974865E+04  0.10855974865E+04  0.00000000000E+00 0. -1.
         21   -1    0    0  501  503 -0.00000000000E+00 -0.00000000000E+00 -0.69020489487E+02  0.69020489487E+02  0.00000000000E+00 0.  1.
          6    1    1    2  501    0 -0.16419900872E+03  0.88660728179E+02  0.29552164836E+03  0.38997959412E+03  0.17300000000E+03 0.  1.
         -6    1    1    2    0  502  0.16419900872E+03 -0.88660728179E+02  0.72105534862E+03  0.76463838182E+03  0.17300000000E+03 0. -1.
<mgrwt>
<rscale>  2 0.25446225E+03</rscale>
<asrwt>0</asrwt>
<pdfrwt beam="1">  1       21 0.16701499E+00 0.25446225E+03</pdfrwt>
<pdfrwt beam="2">  1       21 0.10618538E-01 0.25446225E+03</pdfrwt>
<totfact> 0.15698851E+04</totfact>
</mgrwt>
</event>
<event>
 4    1  0.4173994E+000  0.2247730E+03  0.7546771E-02  0.1130374E+00
         21   -1    0    0  501  502  0.00000000000E+00  0.00000000000E+00  0.10147679373E+04  0.10147679373E+04  0.00000000000E+00 0.  1.
         21   -1    0    0  502  503 -0.00000000000E+00 -0.00000000000E+00 -0.89151704577E+02  0.89151704577E+02  0.00000000000E+00 0. -1.
          6    1    1    2  501    0  0.10853585862E+03  0.93882195183E+02  0.82957711176E+03  0.85948885015E+03  0.17300000000E+03 0.  1.
         -6    1    1    2    0  503 -0.10853585862E+03 -0.93882195183E+02  0.96039120928E+02  0.24443079169E+03  0.17300000000E+03 0. -1.
<mgrwt>
<rscale>  2 0.22477299E+03</rscale>
<asrwt>0</asrwt>
<pdfrwt beam="1">  1       21 0.15611814E+00 0.22477299E+03</pdfrwt>
<pdfrwt beam="2">  1       21 0.13715648E-01 0.22477299E+03</pdfrwt>
<totfact> 0.12127065E+04</totfact>
</mgrwt>
</event>
<event>
 4    1  0.4173994E+000  0.1892647E+03  0.7546771E-02  0.1159126E+00
         21   -1    0    0  501  502  0.00000000000E+00  0.00000000000E+00  0.19868920943E+02  0.19868920943E+02  0.00000000000E+00 0. -1.
         21   -1    0    0  502  503 -0.00000000000E+00 -0.00000000000E+00 -0.22426548672E+04  0.22426548672E+04  0.00000000000E+00 0. -1.
          6    1    1    2  501    0  0.35437019785E+01 -0.76678383614E+02 -0.61043555239E+03  0.63910304017E+03  0.17300000000E+03 0. -1.
         -6    1    1    2    0  503 -0.35437019785E+01  0.76678383614E+02 -0.16123503939E+04  0.16234207480E+04  0.17300000000E+03 0. -1.
<mgrwt>
<rscale>  2 0.18926471E+03</rscale>
<asrwt>0</asrwt>
<pdfrwt beam="1">  1       21 0.30567580E-02 0.18926471E+03</pdfrwt>
<pdfrwt beam="2">  1       21 0.34502372E+00 0.18926471E+03</pdfrwt>
<totfact> 0.11521316E+04</totfact>
</mgrwt>
</event>
<event>
 4    1  0.4173994E+000  0.1966367E+03  0.7546771E-02  0.1152608E+00
         21   -1    0    0  503  502  0.00000000000E+00  0.00000000000E+00  0.29724812126E+03  0.29724812126E+03  0.00000000000E+00 0.  1.
         21   -1    0    0  501  503 -0.00000000000E+00 -0.00000000000E+00 -0.13784017996E+03  0.13784017996E+03  0.00000000000E+00 0.  1.
          6    1    1    2  501    0  0.92643200328E+02 -0.12419561468E+02  0.28086349761E+02  0.19863245233E+03  0.17300000000E+03 0.  1.
         -6    1    1    2    0  502 -0.92643200328E+02  0.12419561468E+02  0.13132159154E+03  0.23645584890E+03  0.17300000000E+03 0.  1.
<mgrwt>
<rscale>  2 0.19663674E+03</rscale>
<asrwt>0</asrwt>
<pdfrwt beam="1">  1       21 0.45730480E-01 0.19663674E+03</pdfrwt>
<pdfrwt beam="2">  1       21 0.21206182E-01 0.19663674E+03</pdfrwt>
<totfact> 0.94675111E+04</totfact>
</mgrwt>
</event>
<event>
 4    1  0.4173994E+000  0.1979002E+03  0.7546771E-02  0.1151523E+00
         21   -1    0    0  503  502  0.00000000000E+00  0.00000000000E+00  0.76400669758E+02  0.76400669758E+02  0.00000000000E+00 0. -1.
         21   -1    0    0  501  503 -0.00000000000E+00 -0.00000000000E+00 -0.59798109746E+03  0.59798109746E+03  0.00000000000E+00 0. -1.
          6    1    1    2  501    0  0.95694709277E+02  0.88320092128E+01 -0.38818835044E+03  0.43572316577E+03  0.17300000000E+03 0. -1.
         -6    1    1    2    0  502 -0.95694709277E+02 -0.88320092128E+01 -0.13339207727E+03  0.23865860145E+03  0.17300000000E+03 0. -1.
<mgrwt>
<rscale>  2 0.19790018E+03</rscale>
<asrwt>0</asrwt>
<pdfrwt beam="1">  1       21 0.11753949E-01 0.19790018E+03</pdfrwt>
<pdfrwt beam="2">  1       21 0.91997091E-01 0.19790018E+03</pdfrwt>
<totfact> 0.60646786E+04</totfact>
</mgrwt>
</event>
<event>
 4    1  0.4173994E+000  0.3367405E+03  0.7546771E-02  0.1068193E+00
         21   -1    0    0  503  502  0.00000000000E+00  0.00000000000E+00  0.42008969767E+03  0.42008969767E+03  0.00000000000E+00 0.  1.
         21   -1    0    0  501  503 -0.00000000000E+00 -0.00000000000E+00 -0.27181704174E+03  0.27181704174E+03  0.00000000000E+00 0. -1.
          6    1    1    2  501    0 -0.23333484149E+03  0.17035267957E+03  0.10297279457E+03  0.35213290120E+03  0.17300000000E+03 0. -1.
         -6    1    1    2    0  502  0.23333484149E+03 -0.17035267957E+03  0.45299861362E+02  0.33977383820E+03  0.17300000000E+03 0.  1.
<mgrwt>
<rscale>  2 0.33674053E+03</rscale>
<asrwt>0</asrwt>
<pdfrwt beam="1">  1       21 0.64629184E-01 0.33674053E+03</pdfrwt>
<pdfrwt beam="2">  1       21 0.41818007E-01 0.33674053E+03</pdfrwt>
<totfact> 0.11277802E+04</totfact>
</mgrwt>
</event>
<event>
 4    1  0.4173994E+000  0.2658099E+03  0.7546771E-02  0.1103702E+00
         21   -1    0    0  503  502  0.00000000000E+00  0.00000000000E+00  0.13744622656E+04  0.13744622656E+04  0.00000000000E+00 0. -1.
         21   -1    0    0  501  503 -0.00000000000E+00 -0.00000000000E+00 -0.63036243118E+02  0.63036243118E+02  0.00000000000E+00 0.  1.
          6    1    1    2  501    0 -0.11177015474E+03  0.16802774042E+03  0.34697763295E+03  0.43709079927E+03  0.17300000000E+03 0.  1.
         -6    1    1    2    0  502  0.11177015474E+03 -0.16802774042E+03  0.96444838952E+03  0.10004077094E+04  0.17300000000E+03 0. -1.
<mgrwt>
<rscale>  2 0.26580987E+03</rscale>
<asrwt>0</asrwt>
<pdfrwt beam="1">  1       21 0.21145571E+00 0.26580987E+03</pdfrwt>
<pdfrwt beam="2">  1       21 0.96978846E-02 0.26580987E+03</pdfrwt>
<totfact> 0.92079348E+03</totfact>
</mgrwt>
</event>
<event>
 4    1  0.4173994E+000  0.2403916E+03  0.7546771E-02  0.1119532E+00
         21   -1    0    0  501  502  0.00000000000E+00  0.00000000000E+00  0.13054286331E+03  0.13054286331E+03  0.00000000000E+00 0. -1.
         21   -1    0    0  502  503 -0.00000000000E+00 -0.00000000000E+00 -0.45132048033E+03  0.45132048033E+03  0.00000000000E+00 0.  1.
          6    1    1    2  501    0  0.15914005876E+02  0.16615006453E+03 -0.12012305526E+03  0.26873341424E+03  0.17300000000E+03 0.  1.
         -6    1    1    2    0  503 -0.15914005876E+02 -0.16615006453E+03 -0.20065456176E+03  0.31312992940E+03  0.17300000000E+03 0.  1.
<mgrwt>
<rscale>  2 0.24039155E+03</rscale>
<asrwt>0</asrwt>
<pdfrwt beam="1">  1       21 0.20083518E-01 0.24039155E+03</pdfrwt>
<pdfrwt beam="2">  1       21 0.69433919E-01 0.24039155E+03</pdfrwt>
<totfact> 0.42229698E+04</totfact>
</mgrwt>
</event>
<event>
 4    1  0.4173994E+000  0.2638967E+03  0.7546771E-02  0.1104824E+00
         21   -1    0    0  503  502  0.00000000000E+00  0.00000000000E+00  0.18156711620E+03  0.18156711620E+03  0.00000000000E+00 0.  1.
         21   -1    0    0  501  503 -0.00000000000E+00 -0.00000000000E+00 -0.11227126136E+04  0.11227126136E+04  0.00000000000E+00 0.  1.
          6    1    1    2  501    0 -0.14080899040E+03 -0.14101531520E+03 -0.99971707180E+03  0.10339611765E+04  0.17300000000E+03 0.  1.
         -6    1    1    2    0  502  0.14080899040E+03  0.14101531520E+03  0.58571574440E+02  0.27031855325E+03  0.17300000000E+03 0.  1.
<mgrwt>
<rscale>  2 0.26389674E+03</rscale>
<asrwt>0</asrwt>
<pdfrwt beam="1">  1       21 0.27933402E-01 0.26389674E+03</pdfrwt>
<pdfrwt beam="2">  1       21 0.17272502E+00 0.26389674E+03</pdfrwt>
<totfact> 0.23542287E+03</totfact>
</mgrwt>
</event>
<event>
 4    1  0.4173994E+000  0.2184489E+03  0.7546771E-02  0.1135045E+00
         21   -1    0    0  503  502  0.00000000000E+00  0.00000000000E+00  0.52328636314E+03  0.52328636314E+03  0.00000000000E+00 0.  1.
         21   -1    0    0  501  503 -0.00000000000E+00 -0.00000000000E+00 -0.10661441859E+03  0.10661441859E+03  0.00000000000E+00 0. -1.
          6    1    1    2  501    0  0.92826318653E+02  0.95782091658E+02  0.88551771483E+02  0.23571455354E+03  0.17300000000E+03 0. -1.
         -6    1    1    2    0  502 -0.92826318653E+02 -0.95782091658E+02  0.32812017307E+03  0.39418622819E+03  0.17300000000E+03 0. -1.
<mgrwt>
<rscale>  2 0.21844893E+03</rscale>
<asrwt>0</asrwt>
<pdfrwt beam="1">  1       21 0.80505593E-01 0.21844893E+03</pdfrwt>
<pdfrwt beam="2">  1       21 0.16402219E-01 0.21844893E+03</pdfrwt>
<totfact> 0.44595955E+04</totfact>
</mgrwt>
</event>
<event>
 4    1  0.4173994E+000  0.1753634E+03  0.7546771E-02  0.1172367E+00
         21   -1    0    0  503  502  0.00000000000E+00  0.00000000000E+00  0.57854966910E+02  0.57854966910E+02  0.00000000000E+00 0.  1.
         21   -1    0    0  501  503 -0.00000000000E+00 -0.00000000000E+00 -0.64042701174E+03  0.64042701174E+03  0.00000000000E+00 0.  1.
          6    1    1    2  501    0 -0.27354502760E+02 -0.86629141236E+01 -0.43524909265E+03  0.46924842840E+03  0.17300000000E+03 0.  1.
         -6    1    1    2    0  502  0.27354502760E+02  0.86629141236E+01 -0.14732295219E+03  0.22903355026E+03  0.17300000000E+03 0.  1.
<mgrwt>
<rscale>  2 0.17536338E+03</rscale>
<asrwt>0</asrwt>
<pdfrwt beam="1">  1       21 0.89007639E-02 0.17536338E+03</pdfrwt>
<pdfrwt beam="2">  1       21 0.98527235E-01 0.17536338E+03</pdfrwt>
<totfact> 0.85325354E+04</totfact>
</mgrwt>
</event>
<event>
 4    1  0.4173994E+000  0.1927114E+03  0.7546771E-02  0.1156038E+00
         21   -1    0    0  503  502  0.00000000000E+00  0.00000000000E+00  0.43210149064E+03  0.43210149064E+03  0.00000000000E+00 0. -1.
         21   -1    0    0  501  503 -0.00000000000E+00 -0.00000000000E+00 -0.24562373272E+03  0.24562373272E+03  0.00000000000E+00 0. -1.
          6    1    1    2  501    0  0.43533777254E+02 -0.72893780288E+02 -0.17997938673E+03  0.26368593557E+03  0.17300000000E+03 0. -1.
         -6    1    1    2    0  502 -0.43533777254E+02  0.72893780288E+02  0.36645714465E+03  0.41403928779E+03  0.17300000000E+03 0. -1.
<mgrwt>
<rscale>  2 0.19271142E+03</rscale>
<asrwt>0</asrwt>
<pdfrwt beam="1">  1       21 0.66477152E-01 0.19271142E+03</pdfrwt>
<pdfrwt beam="2">  1       21 0.37788267E-01 0.19271142E+03</pdfrwt>
<totfact> 0.14016416E+04</totfact>
</mgrwt>
</event>
<event>
 4    1  0.4173994E+000  0.1766813E+03  0.7546771E-02  0.1171054E+00
         21   -1    0    0  503  502  0.00000000000E+00  0.00000000000E+00  0.19264490325E+03  0.19264490325E+03  0.00000000000E+00 0.  1.
         21   -1    0    0  501  503 -0.00000000000E+00 -0.00000000000E+00 -0.22034738598E+03  0.22034738598E+03  0.00000000000E+00 0.  1.
          6    1    1    2  501    0 -0.34950086323E+02 -0.81109677192E+01 -0.12007399010E+03  0.21362129910E+03  0.17300000000E+03 0.  1.
         -6    1    1    2    0  502  0.34950086323E+02  0.81109677192E+01  0.92371507365E+02  0.19937099013E+03  0.17300000000E+03 0.  1.
<mgrwt>
<rscale>  2 0.17668134E+03</rscale>
<asrwt>0</asrwt>
<pdfrwt beam="1">  1       21 0.29637678E-01 0.17668134E+03</pdfrwt>
<pdfrwt beam="2">  1       21 0.33899598E-01 0.17668134E+03</pdfrwt>
<totfact> 0.92045650E+04</totfact>
</mgrwt>
</event>
<event>
 4    1  0.4173994E+000  0.1841501E+03  0.7546771E-02  0.1163846E+00
         21   -1    0    0  501  502  0.00000000000E+00  0.00000000000E+00  0.17184062888E+03  0.17184062888E+03  0.00000000000E+00 0.  1.
         21   -1    0    0  502  503 -0.00000000000E+00 -0.00000000000E+00 -0.38046363088E+03  0.38046363088E+03  0.00000000000E+00 0. -1.
          6    1    1    2  501    0 -0.12344380809E+02  0.61885923758E+02  0.87273933949E+02  0.20378417712E+03  0.17300000000E+03 0.  1.
         -6    1    1    2    0  503  0.12344380809E+02 -0.61885923758E+02 -0.29589693595E+03  0.34852008264E+03  0.17300000000E+03 0. -1.
<mgrwt>
<rscale>  2 0.18415008E+03</rscale>
<asrwt>0</asrwt>
<pdfrwt beam="1">  1       21 0.26437020E-01 0.18415008E+03</pdfrwt>
<pdfrwt beam="2">  1       21 0.58532867E-01 0.18415008E+03</pdfrwt>
<totfact> 0.37347957E+04</totfact>
</mgrwt>
</event>
<event>
 4    1  0.4173994E+000  0.2983714E+03  0.7546771E-02  0.1086058E+00
         21   -1    0    0  503  502  0.00000000000E+00  0.00000000000E+00  0.31486953519E+03  0.31486953519E+03  0.00000000000E+00 0.  1.
         21   -1    0    0  501  503 -0.00000000000E+00 -0.00000000000E+00 -0.49876784436E+03  0.49876784436E+03  0.00000000000E+00 0. -1.
          6    1    1    2  501    0  0.24128179347E+03 -0.29657671350E+02 -0.35968645076E+03  0.46733266972E+03  0.17300000000E+03 0. -1.
         -6    1    1    2    0  502 -0.24128179347E+03  0.29657671350E+02  0.17578814159E+03  0.34630470983E+03  0.17300000000E+03 0.  1.
<mgrwt>
<rscale>  2 0.29837138E+03</rscale>
<asrwt>0</asrwt>
<pdfrwt beam="1">  1       21 0.48441467E-01 0.29837138E+03</pdfrwt>
<pdfrwt beam="2">  1       21 0.76733514E-01 0.29837138E+03</pdfrwt>
<totfact> 0.57569116E+03</totfact>
</mgrwt>
</event>
<event>
 4    1  0.4173994E+000  0.2809019E+03  0.7546771E-02  0.1095197E+00
         21   -1    0    0  503  502  0.00000000000E+00  0.00000000000E+00  0.14530246497E+04  0.14530246497E+04  0.00000000000E+00 0. -1.
         21   -1    0    0  501  503 -0.00000000000E+00 -0.00000000000E+00 -0.91490104650E+02  0.91490104650E+02  0.00000000000E+00 0.  1.
          6    1    1    2  501    0  0.22129844916E+03 -0.19724414584E+01  0.18843085977E+03  0.33824855216E+03  0.17300000000E+03 0.  1.
         -6    1    1    2    0  502 -0.22129844916E+03  0.19724414584E+01  0.11731036853E+04  0.12062662022E+04  0.17300000000E+03 0. -1.
<mgrwt>
<rscale>  2 0.28090193E+03</rscale>
<asrwt>0</asrwt>
<pdfrwt beam="1">  1       21 0.22354224E+00 0.28090193E+03</pdfrwt>
<pdfrwt beam="2">  1       21 0.14075402E-01 0.28090193E+03</pdfrwt>
<totfact> 0.39128629E+03</totfact>
</mgrwt>
</event>
<event>
 4    1  0.4173994E+000  0.1816866E+03  0.7546771E-02  0.1166181E+00
         21   -1    0    0  503  502  0.00000000000E+00  0.00000000000E+00  0.24500679743E+03  0.24500679743E+03  0.00000000000E+00 0. -1.
         21   -1    0    0  501  503 -0.00000000000E+00 -0.00000000000E+00 -0.14686336317E+03  0.14686336317E+03  0.00000000000E+00 0. -1.
          6    1    1    2  501    0 -0.30481330158E+02  0.46388629882E+02 -0.72437580721E+01  0.18183093384E+03  0.17300000000E+03 0. -1.
         -6    1    1    2    0  502  0.30481330158E+02 -0.46388629882E+02  0.10538719233E+03  0.21003922676E+03  0.17300000000E+03 0. -1.
<mgrwt>
<rscale>  2 0.18168659E+03</rscale>
<asrwt>0</asrwt>
<pdfrwt beam="1">  1       21 0.37693354E-01 0.18168659E+03</pdfrwt>
<pdfrwt beam="2">  1       21 0.22594363E-01 0.18168659E+03</pdfrwt>
<totfact> 0.12507172E+05</totfact>
</mgrwt>
</event>
<event>
 4    1  0.4173994E+000  0.1981250E+03  0.7546771E-02  0.1151331E+00
         21   -1    0    0  503  502  0.00000000000E+00  0.00000000000E+00  0.54166394504E+03  0.54166394504E+03  0.00000000000E+00 0.  1.
         21   -1    0    0  501  503 -0.00000000000E+00 -0.00000000000E+00 -0.87908197213E+02  0.87908197213E+02  0.00000000000E+00 0. -1.
          6    1    1    2  501    0  0.62150684855E+01  0.96363275419E+02  0.35880129804E+03  0.40986812440E+03  0.17300000000E+03 0.  1.
         -6    1    1    2    0  502 -0.62150684855E+01 -0.96363275419E+02  0.94954449788E+02  0.21970401785E+03  0.17300000000E+03 0.  1.
<mgrwt>
<rscale>  2 0.19812498E+03</rscale>
<asrwt>0</asrwt>
<pdfrwt beam="1">  1       21 0.83332912E-01 0.19812498E+03</pdfrwt>
<pdfrwt beam="2">  1       21 0.13524338E-01 0.19812498E+03</pdfrwt>
<totfact> 0.59184416E+04</totfact>
</mgrwt>
</event>
<event>
 4    1  0.4173994E+000  0.2370131E+03  0.7546771E-02  0.1121799E+00
         21   -1    0    0  503  502  0.00000000000E+00  0.00000000000E+00  0.83473667614E+03  0.83473667614E+03  0.00000000000E+00 0.  1.
         21   -1    0    0  501  503 -0.00000000000E+00 -0.00000000000E+00 -0.11784185085E+03  0.11784185085E+03  0.00000000000E+00 0.  1.
          6    1    1    2  501    0 -0.10402198572E+03  0.12419990798E+03  0.46515431609E+02  0.24153441998E+03  0.17300000000E+03 0.  1.
         -6    1    1    2    0  502  0.10402198572E+03 -0.12419990798E+03  0.67037939367E+03  0.71104410701E+03  0.17300000000E+03 0.  1.
<mgrwt>
<rscale>  2 0.23701306E+03</rscale>
<asrwt>0</asrwt>
<pdfrwt beam="1">  1       21 0.12842102E+00 0.23701306E+03</pdfrwt>
<pdfrwt beam="2">  1       21 0.18129516E-01 0.23701306E+03</pdfrwt>
<totfact> 0.11993825E+04</totfact>
</mgrwt>
</event>
<event>
 4    1  0.4173994E+000  0.2045498E+03  0.7546771E-02  0.1145956E+00
         21   -1    0    0  503  502  0.00000000000E+00  0.00000000000E+00  0.61634515722E+03  0.61634515722E+03  0.00000000000E+00 0.  1.
         21   -1    0    0  501  503 -0.00000000000E+00 -0.00000000000E+00 -0.13723472868E+03  0.13723472868E+03  0.00000000000E+00 0.  1.
          6    1    1    2  501    0 -0.99871472943E+02  0.44014812065E+02 -0.28293490502E+02  0.20649730360E+03  0.17300000000E+03 0.  1.
         -6    1    1    2    0  502  0.99871472943E+02 -0.44014812065E+02  0.50740391905E+03  0.54708258230E+03  0.17300000000E+03 0.  1.
<mgrwt>
<rscale>  2 0.20454979E+03</rscale>
<asrwt>0</asrwt>
<pdfrwt beam="1">  1       21 0.94822330E-01 0.20454979E+03</pdfrwt>
<pdfrwt beam="2">  1       21 0.21113036E-01 0.20454979E+03</pdfrwt>
<totfact> 0.19262597E+04</totfact>
</mgrwt>
</event>
<event>
 4    1  0.4173994E+000  0.2027745E+03  0.7546771E-02  0.1147419E+00
         21   -1    0    0  501  502  0.00000000000E+00  0.00000000000E+00  0.64337806659E+02  0.64337806659E+02  0.00000000000E+00 0. -1.
         21   -1    0    0  502  503 -0.00000000000E+00 -0.00000000000E+00 -0.63909506798E+03  0.63909506798E+03  0.00000000000E+00 0.  1.
          6    1    1    2  501    0  0.62322958286E+02 -0.85465540229E+02 -0.28619556730E+03  0.35074978609E+03  0.17300000000E+03 0. -1.
         -6    1    1    2    0  503 -0.62322958286E+02  0.85465540229E+02 -0.28856169401E+03  0.35268308855E+03  0.17300000000E+03 0.  1.
<mgrwt>
<rscale>  2 0.20277453E+03</rscale>
<asrwt>0</asrwt>
<pdfrwt beam="1">  1       21 0.98981240E-02 0.20277453E+03</pdfrwt>
<pdfrwt beam="2">  1       21 0.98322319E-01 0.20277453E+03</pdfrwt>
<totfact> 0.70263719E+04</totfact>
</mgrwt>
</event>
<event>
 4    1  0.4173994E+000  0.1810607E+03  0.7546771E-02  0.1166780E+00
         21   -1    0    0  503  502  0.00000000000E+00  0.00000000000E+00  0.27459151192E+02  0.27459151192E+02  0.00000000000E+00 0. -1.
         21   -1    0    0  501  503 -0.00000000000E+00 -0.00000000000E+00 -0.16544706853E+04  0.16544706853E+04  0.00000000000E+00 0.  1.
          6    1    1    2  501    0  0.53240547642E+02 -0.44068039859E+01 -0.12572218330E+04  0.12701927858E+04  0.17300000000E+03 0.  1.
         -6    1    1    2    0  502 -0.53240547642E+02  0.44068039859E+01 -0.36978970115E+03  0.41173705069E+03  0.17300000000E+03 0. -1.
<mgrwt>
<rscale>  2 0.18106070E+03</rscale>
<asrwt>0</asrwt>
<pdfrwt beam="1">  1       21 0.42244836E-02 0.18106070E+03</pdfrwt>
<pdfrwt beam="2">  1       21 0.25453403E+00 0.18106070E+03</pdfrwt>
<totfact> 0.22592684E+04</totfact>
</mgrwt>
</event>
<event>
 4    1  0.4173994E+000  0.1818214E+03  0.7546771E-02  0.1166052E+00
         21   -1    0    0  501  502  0.00000000000E+00  0.00000000000E+00  0.13341050447E+03  0.13341050447E+03  0.00000000000E+00 0.  1.
         21   -1    0    0  502  503 -0.00000000000E+00 -0.00000000000E+00 -0.42703381299E+03  0.42703381299E+03  0.00000000000E+00 0.  1.
          6    1    1    2  501    0 -0.36432077473E+02  0.42458469359E+02  0.34732499869E+02  0.18510906092E+03  0.17300000000E+03 0.  1.
         -6    1    1    2    0  503  0.36432077473E+02 -0.42458469359E+02 -0.32835580839E+03  0.37533525653E+03  0.17300000000E+03 0.  1.
<mgrwt>
<rscale>  2 0.18182139E+03</rscale>
<asrwt>0</asrwt>
<pdfrwt beam="1">  1       21 0.20524693E-01 0.18182139E+03</pdfrwt>
<pdfrwt beam="2">  1       21 0.65697509E-01 0.18182139E+03</pdfrwt>
<totfact> 0.47075003E+04</totfact>
</mgrwt>
</event>
<event>
 4    1  0.4173994E+000  0.1801483E+03  0.7546771E-02  0.1167660E+00
         21   -1    0    0  503  502  0.00000000000E+00  0.00000000000E+00  0.50616408099E+03  0.50616408099E+03  0.00000000000E+00 0.  1.
         21   -1    0    0  501  503 -0.00000000000E+00 -0.00000000000E+00 -0.64177599453E+02  0.64177599453E+02  0.00000000000E+00 0.  1.
          6    1    1    2  501    0 -0.47562535770E+02 -0.16192561614E+02  0.21218354152E+03  0.27834376076E+03  0.17300000000E+03 0.  1.
         -6    1    1    2    0  502  0.47562535770E+02  0.16192561614E+02  0.22980294002E+03  0.29199791969E+03  0.17300000000E+03 0.  1.
<mgrwt>
<rscale>  2 0.18014826E+03</rscale>
<asrwt>0</asrwt>
<pdfrwt beam="1">  1       21 0.77871395E-01 0.18014826E+03</pdfrwt>
<pdfrwt beam="2">  1       21 0.98734772E-02 0.18014826E+03</pdfrwt>
<totfact> 0.12185391E+05</totfact>
</mgrwt>
</event>
<event>
 4    1  0.4173994E+000  0.2170665E+03  0.7546771E-02  0.1136089E+00
         21   -1    0    0  503  502  0.00000000000E+00  0.00000000000E+00  0.24038909525E+03  0.24038909525E+03  0.00000000000E+00 0. -1.
         21   -1    0    0  501  503 -0.00000000000E+00 -0.00000000000E+00 -0.37623764482E+03  0.37623764482E+03  0.00000000000E+00 0.  1.
          6    1    1    2  501    0  0.83693280429E+02 -0.10091737815E+03 -0.28131516184E+03  0.35532534765E+03  0.17300000000E+03 0.  1.
         -6    1    1    2    0  502 -0.83693280429E+02  0.10091737815E+03  0.14546661226E+03  0.26130139243E+03  0.17300000000E+03 0. -1.
<mgrwt>
<rscale>  2 0.21706654E+03</rscale>
<asrwt>0</asrwt>
<pdfrwt beam="1">  1       21 0.36982938E-01 0.21706654E+03</pdfrwt>
<pdfrwt beam="2">  1       21 0.57882714E-01 0.21706654E+03</pdfrwt>
<totfact> 0.19450034E+04</totfact>
</mgrwt>
</event>
<event>
 4    1  0.4173994E+000  0.2571632E+03  0.7546771E-02  0.1108860E+00
         21   -1    0    0  503  502  0.00000000000E+00  0.00000000000E+00  0.10325476203E+04  0.10325476203E+04  0.00000000000E+00 0. -1.
         21   -1    0    0  501  503 -0.00000000000E+00 -0.00000000000E+00 -0.66281487998E+02  0.66281487998E+02  0.00000000000E+00 0.  1.
          6    1    1    2  501    0 -0.38027774662E+02  0.18643437834E+03  0.38228453750E+03  0.46073241332E+03  0.17300000000E+03 0.  1.
         -6    1    1    2    0  502  0.38027774662E+02 -0.18643437834E+03  0.58398159479E+03  0.63809669496E+03  0.17300000000E+03 0. -1.
<mgrwt>
<rscale>  2 0.25716316E+03</rscale>
<asrwt>0</asrwt>
<pdfrwt beam="1">  1       21 0.15885347E+00 0.25716316E+03</pdfrwt>
<pdfrwt beam="2">  1       21 0.10197153E-01 0.25716316E+03</pdfrwt>
<totfact> 0.19332470E+04</totfact>
</mgrwt>
</event>
<event>
 4    1  0.4173994E+000  0.2808449E+03  0.7546771E-02  0.1095228E+00
         21   -1    0    0  503  502  0.00000000000E+00  0.00000000000E+00  0.11784773973E+03  0.11784773973E+03  0.00000000000E+00 0.  1.
         21   -1    0    0  501  503 -0.00000000000E+00 -0.00000000000E+00 -0.67373781256E+03  0.67373781256E+03  0.00000000000E+00 0.  1.
          6    1    1    2  501    0  0.74150183077E+02 -0.20843844778E+03 -0.24577190056E+03  0.37319922731E+03  0.17300000000E+03 0.  1.
         -6    1    1    2    0  502 -0.74150183077E+02  0.20843844778E+03 -0.31011817226E+03  0.41838632498E+03  0.17300000000E+03 0.  1.
<mgrwt>
<rscale>  2 0.28084486E+03</rscale>
<asrwt>0</asrwt>
<pdfrwt beam="1">  1       21 0.18130421E-01 0.28084486E+03</pdfrwt>
<pdfrwt beam="2">  1       21 0.10365197E+00 0.28084486E+03</pdfrwt>
<totfact> 0.19919575E+04</totfact>
</mgrwt>
</event>
<event>
 4    1  0.4173994E+000  0.1876655E+03  0.7546771E-02  0.1160584E+00
         21   -1    0    0  501  502  0.00000000000E+00  0.00000000000E+00  0.76788352449E+02  0.76788352449E+02  0.00000000000E+00 0.  1.
         21   -1    0    0  502  503 -0.00000000000E+00 -0.00000000000E+00 -0.97053681030E+03  0.97053681030E+03  0.00000000000E+00 0.  1.
          6    1    1    2  501    0 -0.11729152747E+02 -0.71775840265E+02 -0.66565751728E+02  0.19912142922E+03  0.17300000000E+03 0.  1.
         -6    1    1    2    0  503  0.11729152747E+02  0.71775840265E+02 -0.82718270612E+03  0.84820373353E+03  0.17300000000E+03 0.  1.
<mgrwt>
<rscale>  2 0.18766551E+03</rscale>
<asrwt>0</asrwt>
<pdfrwt beam="1">  1       21 0.11813593E-01 0.18766551E+03</pdfrwt>
<pdfrwt beam="2">  1       21 0.14931335E+00 0.18766551E+03</pdfrwt>
<totfact> 0.18319242E+04</totfact>
</mgrwt>
</event>
<event>
 4    1  0.4173994E+000  0.1838783E+03  0.7546771E-02  0.1164101E+00
         21   -1    0    0  501  502  0.00000000000E+00  0.00000000000E+00  0.30083356834E+03  0.30083356834E+03  0.00000000000E+00 0.  1.
         21   -1    0    0  502  503 -0.00000000000E+00 -0.00000000000E+00 -0.12906929944E+03  0.12906929944E+03  0.00000000000E+00 0.  1.
          6    1    1    2  501    0  0.14030532761E+02  0.60707367313E+02  0.16314907733E+03  0.24582282589E+03  0.17300000000E+03 0.  1.
         -6    1    1    2    0  503 -0.14030532761E+02 -0.60707367313E+02  0.86151915781E+01  0.18408004189E+03  0.17300000000E+03 0.  1.
<mgrwt>
<rscale>  2 0.18387833E+03</rscale>
<asrwt>0</asrwt>
<pdfrwt beam="1">  1       21 0.46282087E-01 0.18387833E+03</pdfrwt>
<pdfrwt beam="2">  1       21 0.19856815E-01 0.18387833E+03</pdfrwt>
<totfact> 0.10497327E+05</totfact>
</mgrwt>
</event>
<event>
 4    1  0.4173994E+000  0.2159861E+03  0.7546771E-02  0.1136911E+00
         21   -1    0    0  501  502  0.00000000000E+00  0.00000000000E+00  0.36452056978E+03  0.36452056978E+03  0.00000000000E+00 0. -1.
         21   -1    0    0  502  503 -0.00000000000E+00 -0.00000000000E+00 -0.14546029673E+03  0.14546029673E+03  0.00000000000E+00 0.  1.
          6    1    1    2  501    0 -0.99245360675E+02  0.82893689182E+02  0.19793407584E+03  0.29296399728E+03  0.17300000000E+03 0. -1.
         -6    1    1    2    0  503  0.99245360675E+02 -0.82893689182E+02  0.21126197210E+02  0.21701686923E+03  0.17300000000E+03 0.  1.
<mgrwt>
<rscale>  2 0.21598612E+03</rscale>
<asrwt>0</asrwt>
<pdfrwt beam="1">  1       21 0.56080088E-01 0.21598612E+03</pdfrwt>
<pdfrwt beam="2">  1       21 0.22378507E-01 0.21598612E+03</pdfrwt>
<totfact> 0.55342013E+04</totfact>
</mgrwt>
</event>
<event>
 4    1  0.4173994E+000  0.2135708E+03  0.7546771E-02  0.1138769E+00
         21   -1    0    0  503  502  0.00000000000E+00  0.00000000000E+00  0.44397347672E+02  0.44397347672E+02  0.00000000000E+00 0.  1.
         21   -1    0    0  501  503 -0.00000000000E+00 -0.00000000000E+00 -0.10435102712E+04  0.10435102712E+04  0.00000000000E+00 0. -1.
          6    1    1    2  501    0  0.12225143188E+03 -0.27167890564E+02 -0.56720648062E+03  0.60608225393E+03  0.17300000000E+03 0. -1.
         -6    1    1    2    0  502 -0.12225143188E+03  0.27167890564E+02 -0.43190644290E+03  0.48182536493E+03  0.17300000000E+03 0.  1.
<mgrwt>
<rscale>  2 0.21357085E+03</rscale>
<asrwt>0</asrwt>
<pdfrwt beam="1">  1       21 0.68303626E-02 0.21357085E+03</pdfrwt>
<pdfrwt beam="2">  1       21 0.16054001E+00 0.21357085E+03</pdfrwt>
<totfact> 0.38867523E+04</totfact>
</mgrwt>
</event>
<event>
 4    1  0.4173994E+000  0.1803014E+03  0.7546771E-02  0.1167512E+00
         21   -1    0    0  501  502  0.00000000000E+00  0.00000000000E+00  0.75423019587E+03  0.75423019587E+03  0.00000000000E+00 0. -1.
         21   -1    0    0  502  503 -0.00000000000E+00 -0.00000000000E+00 -0.55970104824E+02  0.55970104824E+02  0.00000000000E+00 0. -1.
          6    1    1    2  501    0 -0.32528571291E+02 -0.39006220774E+02  0.54337374232E+03  0.57250643407E+03  0.17300000000E+03 0. -1.
         -6    1    1    2    0  503  0.32528571291E+02  0.39006220774E+02  0.15488634873E+03  0.23769386663E+03  0.17300000000E+03 0. -1.
<mgrwt>
<rscale>  2 0.18030140E+03</rscale>
<asrwt>0</asrwt>
<pdfrwt beam="1">  1       21 0.11603541E+00 0.18030140E+03</pdfrwt>
<pdfrwt beam="2">  1       21 0.86107859E-02 0.18030140E+03</pdfrwt>
<totfact> 0.60906442E+04</totfact>
</mgrwt>
</event>
<event>
 4    1  0.4173994E+000  0.1753298E+03  0.7546771E-02  0.1172401E+00
         21   -1    0    0  501  502  0.00000000000E+00  0.00000000000E+00  0.85562102281E+03  0.85562102281E+03  0.00000000000E+00 0.  1.
         21   -1    0    0  502  503 -0.00000000000E+00 -0.00000000000E+00 -0.38809524319E+02  0.38809524319E+02  0.00000000000E+00 0.  1.
          6    1    1    2  501    0  0.20290126500E+01  0.28414979439E+02  0.28654092852E+03  0.33592593181E+03  0.17300000000E+03 0.  1.
         -6    1    1    2    0  503 -0.20290126500E+01 -0.28414979439E+02  0.53027056998E+03  0.55850461532E+03  0.17300000000E+03 0.  1.
<mgrwt>
<rscale>  2 0.17532977E+03</rscale>
<asrwt>0</asrwt>
<pdfrwt beam="1">  1       21 0.13163399E+00 0.17532977E+03</pdfrwt>
<pdfrwt beam="2">  1       21 0.59706967E-02 0.17532977E+03</pdfrwt>
<totfact> 0.83964984E+04</totfact>
</mgrwt>
</event>
<event>
 4    1  0.4173994E+000  0.2147961E+03  0.7546771E-02  0.1137823E+00
         21   -1    0    0  503  502  0.00000000000E+00  0.00000000000E+00  0.16328419133E+03  0.16328419133E+03  0.00000000000E+00 0. -1.
         21   -1    0    0  501  503 -0.00000000000E+00 -0.00000000000E+00 -0.29718804642E+03  0.29718804642E+03  0.00000000000E+00 0.  1.
          6    1    1    2  501    0  0.22730926488E+02  0.12526643563E+03 -0.15869715413E+02  0.21538157484E+03  0.17300000000E+03 0.  1.
         -6    1    1    2    0  502 -0.22730926488E+02 -0.12526643563E+03 -0.11803413968E+03  0.24509066291E+03  0.17300000000E+03 0. -1.
<mgrwt>
<rscale>  2 0.21479612E+03</rscale>
<asrwt>0</asrwt>
<pdfrwt beam="1">  1       21 0.25120645E-01 0.21479612E+03</pdfrwt>
<pdfrwt beam="2">  1       21 0.45721238E-01 0.21479612E+03</pdfrwt>
<totfact> 0.68160274E+04</totfact>
</mgrwt>
</event>
<event>
 4    1  0.4173994E+000  0.2937508E+03  0.7546771E-02  0.1088407E+00
         21   -1    0    0  503  502  0.00000000000E+00  0.00000000000E+00  0.36474721964E+03  0.36474721964E+03  0.00000000000E+00 0. -1.
         21   -1    0    0  501  503 -0.00000000000E+00 -0.00000000000E+00 -0.27184316043E+03  0.27184316043E+03  0.00000000000E+00 0. -1.
          6    1    1    2  501    0  0.18556066141E+03  0.14808035920E+03 -0.68197183851E+02  0.30156327318E+03  0.17300000000E+03 0. -1.
         -6    1    1    2    0  502 -0.18556066141E+03 -0.14808035920E+03  0.16110124306E+03  0.33502710690E+03  0.17300000000E+03 0. -1.
<mgrwt>
<rscale>  2 0.29375083E+03</rscale>
<asrwt>0</asrwt>
<pdfrwt beam="1">  1       21 0.56114957E-01 0.29375083E+03</pdfrwt>
<pdfrwt beam="2">  1       21 0.41822025E-01 0.29375083E+03</pdfrwt>
<totfact> 0.15603223E+04</totfact>
</mgrwt>
</event>
<event>
 4    1  0.4173994E+000  0.2728658E+03  0.7546771E-02  0.1099651E+00
         21   -1    0    0  501  502  0.00000000000E+00  0.00000000000E+00  0.34189615225E+03  0.34189615225E+03  0.00000000000E+00 0. -1.
         21   -1    0    0  502  503 -0.00000000000E+00 -0.00000000000E+00 -0.28759799636E+03  0.28759799636E+03  0.00000000000E+00 0. -1.
          6    1    1    2  501    0  0.37516834269E+02  0.20765168022E+03  0.18223572078E+03  0.32812435308E+03  0.17300000000E+03 0. -1.
         -6    1    1    2    0  503 -0.37516834269E+02 -0.20765168022E+03 -0.12793756489E+03  0.30136979554E+03  0.17300000000E+03 0. -1.
<mgrwt>
<rscale>  2 0.27286578E+03</rscale>
<asrwt>0</asrwt>
<pdfrwt beam="1">  1       21 0.52599408E-01 0.27286578E+03</pdfrwt>
<pdfrwt beam="2">  1       21 0.44245846E-01 0.27286578E+03</pdfrwt>
<totfact> 0.16095734E+04</totfact>
</mgrwt>
</event>
<event>
 4    1  0.4173994E+000  0.2715112E+03  0.7546771E-02  0.1100418E+00
         21   -1    0    0  503  502  0.00000000000E+00  0.00000000000E+00  0.55404995636E+02  0.55404995636E+02  0.00000000000E+00 0. -1.
         21   -1    0    0  501  503 -0.00000000000E+00 -0.00000000000E+00 -0.13381692199E+04  0.13381692199E+04  0.00000000000E+00 0.  1.
          6    1    1    2  501    0 -0.18761475602E+03  0.92682489890E+02 -0.69400792515E+03  0.74522838162E+03  0.17300000000E+03 0. -1.
         -6    1    1    2    0  502  0.18761475602E+03 -0.92682489890E+02 -0.58875629916E+03  0.64834583396E+03  0.17300000000E+03 0.  1.
<mgrwt>
<rscale>  2 0.27151122E+03</rscale>
<asrwt>0</asrwt>
<pdfrwt beam="1">  1       21 0.85238448E-02 0.27151122E+03</pdfrwt>
<pdfrwt beam="2">  1       21 0.20587220E+00 0.27151122E+03</pdfrwt>
<totfact> 0.12513021E+04</totfact>
</mgrwt>
</event>
<event>
 4    1  0.4173994E+000  0.1963730E+03  0.7546771E-02  0.1152836E+00
         21   -1    0    0  503  502  0.00000000000E+00  0.00000000000E+00  0.12546081299E+04  0.12546081299E+04  0.00000000000E+00 0.  1.
         21   -1    0    0  501  503 -0.00000000000E+00 -0.00000000000E+00 -0.95576171511E+02  0.95576171511E+02  0.00000000000E+00 0.  1.
          6    1    1    2  501    0 -0.74680452987E+02  0.55282937356E+02  0.23473012675E+02  0.19777096740E+03  0.17300000000E+03 0.  1.
         -6    1    1    2    0  502  0.74680452987E+02 -0.55282937356E+02  0.11355589458E+04  0.11524133341E+04  0.17300000000E+03 0.  1.
<mgrwt>
<rscale>  2 0.19637305E+03</rscale>
<asrwt>0</asrwt>
<pdfrwt beam="1">  1       21 0.19301662E+00 0.19637305E+03</pdfrwt>
<pdfrwt beam="2">  1       21 0.14704027E-01 0.19637305E+03</pdfrwt>
<totfact> 0.60415904E+03</totfact>
</mgrwt>
</event>
<event>
 4    1  0.4173994E+000  0.1793377E+03  0.7546771E-02  0.1168446E+00
         21   -1    0    0  501  502  0.00000000000E+00  0.00000000000E+00  0.29777225900E+03  0.29777225900E+03  0.00000000000E+00 0. -1.
         21   -1    0    0  502  503 -0.00000000000E+00 -0.00000000000E+00 -0.12213137548E+03  0.12213137548E+03  0.00000000000E+00 0. -1.
          6    1    1    2  501    0  0.41725084301E+02 -0.22181635915E+02  0.15921478952E+03  0.23981525563E+03  0.17300000000E+03 0. -1.
         -6    1    1    2    0  503 -0.41725084301E+02  0.22181635915E+02  0.16426094003E+02  0.18008837885E+03  0.17300000000E+03 0. -1.
<mgrwt>
<rscale>  2 0.17933769E+03</rscale>
<asrwt>0</asrwt>
<pdfrwt beam="1">  1       21 0.45811117E-01 0.17933769E+03</pdfrwt>
<pdfrwt beam="2">  1       21 0.18789442E-01 0.17933769E+03</pdfrwt>
<totfact> 0.11900134E+05</totfact>
</mgrwt>
</event>
<event>
 4    1  0.4173994E+000  0.1952094E+03  0.7546771E-02  0.1153845E+00
         21   -1    0    0  501  502  0.00000000000E+00  0.00000000000E+00  0.10122289339E+04  0.10122289339E+04  0.00000000000E+00 0.  1.
         21   -1    0    0  502  503 -0.00000000000E+00 -0.00000000000E+00 -0.48148001378E+02  0.48148001378E+02  0.00000000000E+00 0.  1.
          6    1    1    2  501    0 -0.62663847930E+02 -0.65199255022E+02  0.72965175137E+03  0.75531343094E+03  0.17300000000E+03 0.  1.
         -6    1    1    2    0  503  0.62663847930E+02  0.65199255022E+02  0.23442918111E+03  0.30506350429E+03  0.17300000000E+03 0.  1.
<mgrwt>
<rscale>  2 0.19520938E+03</rscale>
<asrwt>0</asrwt>
<pdfrwt beam="1">  1       21 0.15572751E+00 0.19520938E+03</pdfrwt>
<pdfrwt beam="2">  1       21 0.74073856E-02 0.19520938E+03</pdfrwt>
<totfact> 0.37069116E+04</totfact>
</mgrwt>
</event>
<event>
 4    1  0.4173994E+000  0.3190231E+03  0.7546771E-02  0.1076100E+00
         21   -1    0    0  503  502  0.00000000000E+00  0.00000000000E+00  0.41738025566E+03  0.41738025566E+03  0.00000000000E+00 0.  1.
         21   -1    0    0  501  503 -0.00000000000E+00 -0.00000000000E+00 -0.73943585146E+03  0.73943585146E+03  0.00000000000E+00 0. -1.
          6    1    1    2  501    0  0.26088480932E+03  0.61529326314E+02 -0.63455625553E+03  0.71023755404E+03  0.17300000000E+03 0. -1.
         -6    1    1    2    0  502 -0.26088480932E+03 -0.61529326314E+02  0.31250065974E+03  0.44657855308E+03  0.17300000000E+03 0.  1.
<mgrwt>
<rscale>  2 0.31902311E+03</rscale>
<asrwt>0</asrwt>
<pdfrwt beam="1">  1       21 0.64212347E-01 0.31902311E+03</pdfrwt>
<pdfrwt beam="2">  1       21 0.11375936E+00 0.31902311E+03</pdfrwt>
<totfact> 0.12232703E+03</totfact>
</mgrwt>
</event>
<event>
 4    1  0.4173994E+000  0.1880066E+03  0.7546771E-02  0.1160272E+00
         21   -1    0    0  503  502  0.00000000000E+00  0.00000000000E+00  0.81530747605E+02  0.81530747605E+02  0.00000000000E+00 0. -1.
         21   -1    0    0  501  503 -0.00000000000E+00 -0.00000000000E+00 -0.53290030070E+03  0.53290030070E+03  0.00000000000E+00 0.  1.
          6    1    1    2  501    0  0.73602402004E+02  0.42265301400E+00 -0.35834354289E+03  0.40466849018E+03  0.17300000000E+03 0.  1.
         -6    1    1    2    0  502 -0.73602402004E+02 -0.42265301400E+00 -0.93026010210E+02  0.20976255813E+03  0.17300000000E+03 0. -1.
<mgrwt>
<rscale>  2 0.18800663E+03</rscale>
<asrwt>0</asrwt>
<pdfrwt beam="1">  1       21 0.12543192E-01 0.18800663E+03</pdfrwt>
<pdfrwt beam="2">  1       21 0.81984663E-01 0.18800663E+03</pdfrwt>
<totfact> 0.70671087E+04</totfact>
</mgrwt>
</event>
<event>
 4    1  0.4173994E+000  0.2373103E+03  0.7546771E-02  0.1121598E+00
         21   -1    0    0  501  502  0.00000000000E+00  0.00000000000E+00  0.96676624108E+02  0.96676624108E+02  0.00000000000E+00 0.  1.
         21   -1    0    0  502  503 -0.00000000000E+00 -0.00000000000E+00 -0.59016587496E+03  0.59016587496E+03  0.00000000000E+00 0. -1.
          6    1    1    2  501    0 -0.11846212875E+03 -0.11114802645E+03 -0.20765815168E+03  0.31533802132E+03  0.17300000000E+03 0.  1.
         -6    1    1    2    0  503  0.11846212875E+03  0.11114802645E+03 -0.28583109917E+03  0.37150447775E+03  0.17300000000E+03 0. -1.
<mgrwt>
<rscale>  2 0.23731026E+03</rscale>
<asrwt>0</asrwt>
<pdfrwt beam="1">  1       21 0.14873327E-01 0.23731026E+03</pdfrwt>
<pdfrwt beam="2">  1       21 0.90794752E-01 0.23731026E+03</pdfrwt>
<totfact> 0.40107484E+04</totfact>
</mgrwt>
</event>
<event>
 4    1  0.4173994E+000  0.2057848E+03  0.7546771E-02  0.1144948E+00
         21   -1    0    0  503  502  0.00000000000E+00  0.00000000000E+00  0.17139650057E+03  0.17139650057E+03  0.00000000000E+00 0. -1.
         21   -1    0    0  501  503 -0.00000000000E+00 -0.00000000000E+00 -0.26970507144E+03  0.26970507144E+03  0.00000000000E+00 0.  1.
          6    1    1    2  501    0  0.92586793480E+02 -0.62016726217E+02 -0.11304378770E+03  0.23478987754E+03  0.17300000000E+03 0.  1.
         -6    1    1    2    0  502 -0.92586793480E+02  0.62016726217E+02  0.14735216830E+02  0.20631169446E+03  0.17300000000E+03 0. -1.
<mgrwt>
<rscale>  2 0.20578481E+03</rscale>
<asrwt>0</asrwt>
<pdfrwt beam="1">  1       21 0.26368692E-01 0.20578481E+03</pdfrwt>
<pdfrwt beam="2">  1       21 0.41493088E-01 0.20578481E+03</pdfrwt>
<totfact> 0.76055573E+04</totfact>
</mgrwt>
</event>
<event>
 4    1  0.4173994E+000  0.1894038E+03  0.7546771E-02  0.1159000E+00
         21   -1    0    0  503  502  0.00000000000E+00  0.00000000000E+00  0.53006154702E+03  0.53006154702E+03  0.00000000000E+00 0.  1.
         21   -1    0    0  501  503 -0.00000000000E+00 -0.00000000000E+00 -0.90726120901E+02  0.90726120901E+02  0.00000000000E+00 0. -1.
          6    1    1    2  501    0 -0.77081406559E+02  0.18030159090E+01  0.63223485305E+02  0.19967724757E+03  0.17300000000E+03 0. -1.
         -6    1    1    2    0  502  0.77081406559E+02 -0.18030159090E+01  0.37611194081E+03  0.42111042035E+03  0.17300000000E+03 0.  1.
<mgrwt>
<rscale>  2 0.18940379E+03</rscale>
<asrwt>0</asrwt>
<pdfrwt beam="1">  1       21 0.81547929E-01 0.18940379E+03</pdfrwt>
<pdfrwt beam="2">  1       21 0.13957865E-01 0.18940379E+03</pdfrwt>
<totfact> 0.58966648E+04</totfact>
</mgrwt>
</event>
<event>
 4    1  0.4173994E+000  0.1955910E+03  0.7546771E-02  0.1153513E+00
         21   -1    0    0  501  502  0.00000000000E+00  0.00000000000E+00  0.13934399255E+03  0.13934399255E+03  0.00000000000E+00 0.  1.
         21   -1    0    0  502  503 -0.00000000000E+00 -0.00000000000E+00 -0.28631722420E+03  0.28631722420E+03  0.00000000000E+00 0. -1.
          6    1    1    2  501    0  0.29276847991E+01  0.91204538859E+02 -0.30326073912E+02  0.19792804249E+03  0.17300000000E+03 0.  1.
         -6    1    1    2    0  503 -0.29276847991E+01 -0.91204538859E+02 -0.11664715774E+03  0.22773317425E+03  0.17300000000E+03 0.  1.
<mgrwt>
<rscale>  2 0.19559100E+03</rscale>
<asrwt>0</asrwt>
<pdfrwt beam="1">  1       21 0.21437537E-01 0.19559100E+03</pdfrwt>
<pdfrwt beam="2">  1       21 0.44048804E-01 0.19559100E+03</pdfrwt>
<totfact> 0.10022719E+05</totfact>
</mgrwt>
</event>
<event>
 4    1  0.4173994E+000  0.1922844E+03  0.7546771E-02  0.1156417E+00
         21   -1    0    0  503  502  0.00000000000E+00  0.00000000000E+00  0.95498529714E+02  0.95498529714E+02  0.00000000000E+00 0. -1.
         21   -1    0    0  501  503 -0.00000000000E+00 -0.00000000000E+00 -0.39369049269E+03  0.39369049269E+03  0.00000000000E+00 0. -1.
          6    1    1    2  501    0 -0.82067026184E+02 -0.17587131211E+02 -0.18059592402E+03  0.26379573867E+03  0.17300000000E+03 0. -1.
         -6    1    1    2    0  502  0.82067026184E+02  0.17587131211E+02 -0.11759603895E+03  0.22539328373E+03  0.17300000000E+03 0. -1.
<mgrwt>
<rscale>  2 0.19228444E+03</rscale>
<asrwt>0</asrwt>
<pdfrwt beam="1">  1       21 0.14692082E-01 0.19228444E+03</pdfrwt>
<pdfrwt beam="2">  1       21 0.60567767E-01 0.19228444E+03</pdfrwt>
<totfact> 0.10346282E+05</totfact>
</mgrwt>
</event>
<event>
 4    1  0.4173994E+000  0.1854886E+03  0.7546771E-02  0.1162594E+00
         21   -1    0    0  503  502  0.00000000000E+00  0.00000000000E+00  0.96637982633E+02  0.96637982633E+02  0.00000000000E+00 0.  1.
         21   -1    0    0  501  503 -0.00000000000E+00 -0.00000000000E+00 -0.40761998842E+03  0.40761998842E+03  0.00000000000E+00 0. -1.
          6    1    1    2  501    0 -0.46901218601E+01 -0.66746017372E+02 -0.24518790527E+03  0.30744615296E+03  0.17300000000E+03 0. -1.
         -6    1    1    2    0  502  0.46901218601E+01  0.66746017372E+02 -0.65794100512E+02  0.19681181809E+03  0.17300000000E+03 0.  1.
<mgrwt>
<rscale>  2 0.18548862E+03</rscale>
<asrwt>0</asrwt>
<pdfrwt beam="1">  1       21 0.14867382E-01 0.18548862E+03</pdfrwt>
<pdfrwt beam="2">  1       21 0.62710768E-01 0.18548862E+03</pdfrwt>
<totfact> 0.94183506E+04</totfact>
</mgrwt>
</event>
<event>
 4    1  0.4173994E+000  0.2280133E+03  0.7546771E-02  0.1128046E+00
         21   -1    0    0  503  502  0.00000000000E+00  0.00000000000E+00  0.46251742305E+03  0.46251742305E+03  0.00000000000E+00 0.  1.
         21   -1    0    0  501  503 -0.00000000000E+00 -0.00000000000E+00 -0.14934146624E+03  0.14934146624E+03  0.00000000000E+00 0.  1.
          6    1    1    2  501    0  0.14809683307E+03  0.11331057244E+02  0.30872981463E+03  0.38380224499E+03  0.17300000000E+03 0.  1.
         -6    1    1    2    0  502 -0.14809683307E+03 -0.11331057244E+02  0.44461421859E+01  0.22805664429E+03  0.17300000000E+03 0.  1.
<mgrwt>
<rscale>  2 0.22801330E+03</rscale>
<asrwt>0</asrwt>
<pdfrwt beam="1">  1       21 0.71156526E-01 0.22801330E+03</pdfrwt>
<pdfrwt beam="2">  1       21 0.22975610E-01 0.22801330E+03</pdfrwt>
<totfact> 0.31195203E+04</totfact>
</mgrwt>
</event>
<event>
 4    1  0.4173994E+000  0.2292669E+03  0.7546771E-02  0.1127157E+00
         21   -1    0    0  503  502  0.00000000000E+00  0.00000000000E+00  0.37378848556E+03  0.37378848556E+03  0.00000000000E+00 0. -1.
         21   -1    0    0  501  503 -0.00000000000E+00 -0.00000000000E+00 -0.14526808073E+03  0.14526808073E+03  0.00000000000E+00 0. -1.
          6    1    1    2  501    0 -0.89759887507E+02  0.12073716137E+03  0.67852394207E+02  0.23909673135E+03  0.17300000000E+03 0. -1.
         -6    1    1    2    0  502  0.89759887507E+02 -0.12073716137E+03  0.16066801063E+03  0.27995983494E+03  0.17300000000E+03 0. -1.
<mgrwt>
<rscale>  2 0.22926687E+03</rscale>
<asrwt>0</asrwt>
<pdfrwt beam="1">  1       21 0.57505920E-01 0.22926687E+03</pdfrwt>
<pdfrwt beam="2">  1       21 0.22348936E-01 0.22926687E+03</pdfrwt>
<totfact> 0.52281032E+04</totfact>
</mgrwt>
</event>
<event>
 4    1  0.4173994E+000  0.1773795E+03  0.7546771E-02  0.1170364E+00
         21   -1    0    0  503  502  0.00000000000E+00  0.00000000000E+00  0.85753977029E+03  0.85753977029E+03  0.00000000000E+00 0. -1.
         21   -1    0    0  501  503 -0.00000000000E+00 -0.00000000000E+00 -0.48426973897E+02  0.48426973897E+02  0.00000000000E+00 0. -1.
          6    1    1    2  501    0 -0.27064636993E+02  0.28319607694E+02  0.18155433336E+03  0.25382173019E+03  0.17300000000E+03 0. -1.
         -6    1    1    2    0  502  0.27064636993E+02 -0.28319607694E+02  0.62755846303E+03  0.65214501400E+03  0.17300000000E+03 0. -1.
<mgrwt>
<rscale>  2 0.17737952E+03</rscale>
<asrwt>0</asrwt>
<pdfrwt beam="1">  1       21 0.13192918E+00 0.17737952E+03</pdfrwt>
<pdfrwt beam="2">  1       21 0.74503043E-02 0.17737952E+03</pdfrwt>
<totfact> 0.57005947E+04</totfact>
</mgrwt>
</event>
<event>
 4    1  0.4173994E+000  0.1990126E+03  0.7546771E-02  0.1150575E+00
         21   -1    0    0  503  502  0.00000000000E+00  0.00000000000E+00  0.10850072544E+04  0.10850072544E+04  0.00000000000E+00 0.  1.
         21   -1    0    0  501  503 -0.00000000000E+00 -0.00000000000E+00 -0.67090186687E+02  0.67090186687E+02  0.00000000000E+00 0. -1.
          6    1    1    2  501    0  0.41669220431E+02  0.89110617352E+02  0.12000345909E+03  0.23239375260E+03  0.17300000000E+03 0. -1.
         -6    1    1    2    0  502 -0.41669220431E+02 -0.89110617352E+02  0.89791360859E+03  0.91970368845E+03  0.17300000000E+03 0.  1.
<mgrwt>
<rscale>  2 0.19901263E+03</rscale>
<asrwt>0</asrwt>
<pdfrwt beam="1">  1       21 0.16692418E+00 0.19901263E+03</pdfrwt>
<pdfrwt beam="2">  1       21 0.10321568E-01 0.19901263E+03</pdfrwt>
<totfact> 0.17134461E+04</totfact>
</mgrwt>
</event>
<event>
 4    1  0.4173994E+000  0.1808048E+03  0.7546771E-02  0.1167026E+00
         21   -1    0    0  503  502  0.00000000000E+00  0.00000000000E+00  0.23154583107E+03  0.23154583107E+03  0.00000000000E+00 0.  1.
         21   -1    0    0  501  503 -0.00000000000E+00 -0.00000000000E+00 -0.14252789485E+03  0.14252789485E+03  0.00000000000E+00 0.  1.
          6    1    1    2  501    0 -0.68415403147E+01 -0.52101594971E+02  0.62676172492E+02  0.19136009373E+03  0.17300000000E+03 0.  1.
         -6    1    1    2    0  502  0.68415403147E+01  0.52101594971E+02  0.26341763727E+02  0.18271363219E+03  0.17300000000E+03 0.  1.
<mgrwt>
<rscale>  2 0.18080482E+03</rscale>
<asrwt>0</asrwt>
<pdfrwt beam="1">  1       21 0.35622435E-01 0.18080482E+03</pdfrwt>
<pdfrwt beam="2">  1       21 0.21927368E-01 0.18080482E+03</pdfrwt>
<totfact> 0.14815730E+05</totfact>
</mgrwt>
</event>
<event>
 4    1  0.4173994E+000  0.1911891E+03  0.7546771E-02  0.1157393E+00
         21   -1    0    0  501  502  0.00000000000E+00  0.00000000000E+00  0.65156349481E+02  0.65156349481E+02  0.00000000000E+00 0. -1.
         21   -1    0    0  502  503 -0.00000000000E+00 -0.00000000000E+00 -0.56991417976E+03  0.56991417976E+03  0.00000000000E+00 0. -1.
          6    1    1    2  501    0 -0.81237350469E+02  0.49755723386E+01 -0.21268520546E+03  0.28598646830E+03  0.17300000000E+03 0. -1.
         -6    1    1    2    0  503  0.81237350469E+02 -0.49755723386E+01 -0.29207262482E+03  0.34908406094E+03  0.17300000000E+03 0. -1.
<mgrwt>
<rscale>  2 0.19118908E+03</rscale>
<asrwt>0</asrwt>
<pdfrwt beam="1">  1       21 0.10024054E-01 0.19118908E+03</pdfrwt>
<pdfrwt beam="2">  1       21 0.87679103E-01 0.19118908E+03</pdfrwt>
<totfact> 0.90222956E+04</totfact>
</mgrwt>
</event>
<event>
 4    1  0.4173994E+000  0.2364076E+03  0.7546771E-02  0.1122209E+00
         21   -1    0    0  501  502  0.00000000000E+00  0.00000000000E+00  0.42697662579E+03  0.42697662579E+03  0.00000000000E+00 0.  1.
         21   -1    0    0  502  503 -0.00000000000E+00 -0.00000000000E+00 -0.13091575468E+03  0.13091575468E+03  0.00000000000E+00 0.  1.
          6    1    1    2  501    0  0.85728492564E+01  0.16089152606E+03  0.14441498873E+03  0.27702755436E+03  0.17300000000E+03 0.  1.
         -6    1    1    2    0  503 -0.85728492564E+01 -0.16089152606E+03  0.15164588238E+03  0.28086482611E+03  0.17300000000E+03 0.  1.
<mgrwt>
<rscale>  2 0.23640765E+03</rscale>
<asrwt>0</asrwt>
<pdfrwt beam="1">  1       21 0.65688711E-01 0.23640765E+03</pdfrwt>
<pdfrwt beam="2">  1       21 0.20140886E-01 0.23640765E+03</pdfrwt>
<totfact> 0.47542757E+04</totfact>
</mgrwt>
</event>
<event>
 4    1  0.4173994E+000  0.2641602E+03  0.7546771E-02  0.1104669E+00
         21   -1    0    0  501  502  0.00000000000E+00  0.00000000000E+00  0.12027665934E+03  0.12027665934E+03  0.00000000000E+00 0. -1.
         21   -1    0    0  502  503 -0.00000000000E+00 -0.00000000000E+00 -0.81307444438E+03  0.81307444438E+03  0.00000000000E+00 0.  1.
          6    1    1    2  501    0 -0.11889955557E+03  0.16035744411E+03 -0.96628434148E+02  0.28127863140E+03  0.17300000000E+03 0. -1.
         -6    1    1    2    0  503  0.11889955557E+03 -0.16035744411E+03 -0.59616935089E+03  0.65207247231E+03  0.17300000000E+03 0.  1.
<mgrwt>
<rscale>  2 0.26416021E+03</rscale>
<asrwt>0</asrwt>
<pdfrwt beam="1">  1       21 0.18504101E-01 0.26416021E+03</pdfrwt>
<pdfrwt beam="2">  1       21 0.12508838E+00 0.26416021E+03</pdfrwt>
<totfact> 0.12154188E+04</totfact>
</mgrwt>
</event>
<event>
 4    1  0.4173994E+000  0.1858180E+03  0.7546771E-02  0.1162288E+00
         21   -1    0    0  501  502  0.00000000000E+00  0.00000000000E+00  0.90021311928E+02  0.90021311928E+02  0.00000000000E+00 0. -1.
         21   -1    0    0  502  503 -0.00000000000E+00 -0.00000000000E+00 -0.44811042886E+03  0.44811042886E+03  0.00000000000E+00 0. -1.
          6    1    1    2  501    0 -0.65136103395E+02  0.18884044788E+02 -0.28116794152E+03  0.33702185456E+03  0.17300000000E+03 0. -1.
         -6    1    1    2    0  503  0.65136103395E+02 -0.18884044788E+02 -0.76921175421E+02  0.20110988623E+03  0.17300000000E+03 0. -1.
<mgrwt>
<rscale>  2 0.18581797E+03</rscale>
<asrwt>0</asrwt>
<pdfrwt beam="1">  1       21 0.13849433E-01 0.18581797E+03</pdfrwt>
<pdfrwt beam="2">  1       21 0.68940063E-01 0.18581797E+03</pdfrwt>
<totfact> 0.87126906E+04</totfact>
</mgrwt>
</event>
<event>
 4    1  0.4173994E+000  0.2407890E+03  0.7546771E-02  0.1119268E+00
         21   -1    0    0  501  502  0.00000000000E+00  0.00000000000E+00  0.44629257333E+02  0.44629257333E+02  0.00000000000E+00 0.  1.
         21   -1    0    0  502  503 -0.00000000000E+00 -0.00000000000E+00 -0.13005210909E+04  0.13005210909E+04  0.00000000000E+00 0.  1.
          6    1    1    2  501    0 -0.91929837643E+02  0.13999736010E+03 -0.64991635859E+03  0.69308774989E+03  0.17300000000E+03 0.  1.
         -6    1    1    2    0  503  0.91929837643E+02 -0.13999736010E+03 -0.60597547498E+03  0.65206259835E+03  0.17300000000E+03 0.  1.
<mgrwt>
<rscale>  2 0.24078903E+03</rscale>
<asrwt>0</asrwt>
<pdfrwt beam="1">  1       21 0.68660404E-02 0.24078903E+03</pdfrwt>
<pdfrwt beam="2">  1       21 0.20008015E+00 0.24078903E+03</pdfrwt>
<totfact> 0.20279552E+04</totfact>
</mgrwt>
</event>
<event>
 4    1  0.4173994E+000  0.2165750E+03  0.7546771E-02  0.1136463E+00
         21   -1    0    0  503  502  0.00000000000E+00  0.00000000000E+00  0.56513587133E+03  0.56513587133E+03  0.00000000000E+00 0. -1.
         21   -1    0    0  501  503 -0.00000000000E+00 -0.00000000000E+00 -0.88783721607E+02  0.88783721607E+02  0.00000000000E+00 0.  1.
          6    1    1    2  501    0 -0.12850109975E+03 -0.21522429900E+02  0.32164656670E+03  0.38776444073E+03  0.17300000000E+03 0. -1.
         -6    1    1    2    0  502  0.12850109975E+03  0.21522429900E+02  0.15470558303E+03  0.26615515221E+03  0.17300000000E+03 0.  1.
<mgrwt>
<rscale>  2 0.21657504E+03</rscale>
<asrwt>0</asrwt>
<pdfrwt beam="1">  1       21 0.86943978E-01 0.21657504E+03</pdfrwt>
<pdfrwt beam="2">  1       21 0.13659034E-01 0.21657504E+03</pdfrwt>
<totfact> 0.52281601E+04</totfact>
</mgrwt>
</event>
<event>
 4    1  0.4173994E+000  0.1796918E+03  0.7546771E-02  0.1168102E+00
         21   -1    0    0  501  502  0.00000000000E+00  0.00000000000E+00  0.15242229067E+04  0.15242229067E+04  0.00000000000E+00 0.  1.
         21   -1    0    0  502  503 -0.00000000000E+00 -0.00000000000E+00 -0.27448601546E+02  0.27448601546E+02  0.00000000000E+00 0.  1.
          6    1    1    2  501    0  0.66584839612E+01  0.48122980330E+02  0.11190303063E+04  0.11333657764E+04  0.17300000000E+03 0.  1.
         -6    1    1    2    0  503 -0.66584839612E+01 -0.48122980330E+02  0.37774399885E+03  0.41830573187E+03  0.17300000000E+03 0.  1.
<mgrwt>
<rscale>  2 0.17969184E+03</rscale>
<asrwt>0</asrwt>
<pdfrwt beam="1">  1       21 0.23449577E+00 0.17969184E+03</pdfrwt>
<pdfrwt beam="2">  1       21 0.42228630E-02 0.17969184E+03</pdfrwt>
<totfact> 0.29708516E+04</totfact>
</mgrwt>
</event>
<event>
 4    1  0.4173994E+000  0.2094096E+03  0.7546771E-02  0.1142034E+00
         21   -1    0    0  503  502  0.00000000000E+00  0.00000000000E+00  0.35494990797E+02  0.35494990797E+02  0.00000000000E+00 0.  1.
         21   -1    0    0  501  503 -0.00000000000E+00 -0.00000000000E+00 -0.12354580954E+04  0.12354580954E+04  0.00000000000E+00 0.  1.
          6    1    1    2  501    0  0.35699421193E+02 -0.11246755674E+03 -0.59871668530E+03  0.63428232614E+03  0.17300000000E+03 0.  1.
         -6    1    1    2    0  502 -0.35699421193E+02  0.11246755674E+03 -0.60124641931E+03  0.63667076007E+03  0.17300000000E+03 0.  1.
<mgrwt>
<rscale>  2 0.20940965E+03</rscale>
<asrwt>0</asrwt>
<pdfrwt beam="1">  1       21 0.54607676E-02 0.20940965E+03</pdfrwt>
<pdfrwt beam="2">  1       21 0.19007048E+00 0.20940965E+03</pdfrwt>
<totfact> 0.35679450E+04</totfact>
</mgrwt>
</event>
<event>
 4    1  0.4173994E+000  0.2648875E+03  0.7546771E-02  0.1104242E+00
         21   -1    0    0  501  502  0.00000000000E+00  0.00000000000E+00  0.10975093645E+03  0.10975093645E+03  0.00000000000E+00 0.  1.
         21   -1    0    0  502  503 -0.00000000000E+00 -0.00000000000E+00 -0.77163291499E+03  0.77163291499E+03  0.00000000000E+00 0.  1.
          6    1    1    2  501    0  0.15335748244E+03 -0.12929767197E+03 -0.14845090869E+03  0.30364959689E+03  0.17300000000E+03 0.  1.
         -6    1    1    2    0  503 -0.15335748244E+03  0.12929767197E+03 -0.51343106985E+03  0.57773425455E+03  0.17300000000E+03 0.  1.
<mgrwt>
<rscale>  2 0.26488753E+03</rscale>
<asrwt>0</asrwt>
<pdfrwt beam="1">  1       21 0.16884759E-01 0.26488753E+03</pdfrwt>
<pdfrwt beam="2">  1       21 0.11871276E+00 0.26488753E+03</pdfrwt>
<totfact> 0.16431093E+04</totfact>
</mgrwt>
</event>
<event>
 4    1  0.4173994E+000  0.1735074E+03  0.7546771E-02  0.1174239E+00
         21   -1    0    0  501  502  0.00000000000E+00  0.00000000000E+00  0.42162766413E+02  0.42162766413E+02  0.00000000000E+00 0.  1.
         21   -1    0    0  502  503 -0.00000000000E+00 -0.00000000000E+00 -0.12766891259E+04  0.12766891259E+04  0.00000000000E+00 0.  1.
          6    1    1    2  501    0 -0.12502890980E+02  0.44170822761E+01 -0.10550392909E+04  0.10692112693E+04  0.17300000000E+03 0.  1.
         -6    1    1    2    0  503  0.12502890980E+02 -0.44170822761E+01 -0.17948706854E+03  0.24964062304E+03  0.17300000000E+03 0.  1.
<mgrwt>
<rscale>  2 0.17350744E+03</rscale>
<asrwt>0</asrwt>
<pdfrwt beam="1">  1       21 0.64865801E-02 0.17350744E+03</pdfrwt>
<pdfrwt beam="2">  1       21 0.19641369E+00 0.17350744E+03</pdfrwt>
<totfact> 0.24779135E+04</totfact>
</mgrwt>
</event>
<event>
 4    1  0.4173994E+000  0.2212002E+03  0.7546771E-02  0.1132991E+00
         21   -1    0    0  503  502  0.00000000000E+00  0.00000000000E+00  0.12987113572E+04  0.12987113572E+04  0.00000000000E+00 0. -1.
         21   -1    0    0  501  503 -0.00000000000E+00 -0.00000000000E+00 -0.78036304766E+02  0.78036304766E+02  0.00000000000E+00 0. -1.
          6    1    1    2  501    0  0.53853125544E+02 -0.12688717334E+03  0.11527931519E+03  0.24943703494E+03  0.17300000000E+03 0. -1.
         -6    1    1    2    0  502 -0.53853125544E+02  0.12688717334E+03  0.11053957373E+04  0.11273106271E+04  0.17300000000E+03 0. -1.
<mgrwt>
<rscale>  2 0.22120017E+03</rscale>
<asrwt>0</asrwt>
<pdfrwt beam="1">  1       21 0.19980173E+00 0.22120017E+03</pdfrwt>
<pdfrwt beam="2">  1       21 0.12005586E-01 0.22120017E+03</pdfrwt>
<totfact> 0.77094779E+03</totfact>
</mgrwt>
</event>
<event>
 4    1  0.4173994E+000  0.2027688E+03  0.7546771E-02  0.1147424E+00
         21   -1    0    0  503  502  0.00000000000E+00  0.00000000000E+00  0.68413638719E+03  0.68413638719E+03  0.00000000000E+00 0.  1.
         21   -1    0    0  501  503 -0.00000000000E+00 -0.00000000000E+00 -0.84623764901E+02  0.84623764901E+02  0.00000000000E+00 0.  1.
          6    1    1    2  501    0 -0.86412661048E+02 -0.60984009837E+02  0.50668770371E+03  0.54575418142E+03  0.17300000000E+03 0.  1.
         -6    1    1    2    0  502  0.86412661048E+02  0.60984009837E+02  0.92824918574E+02  0.22300597067E+03  0.17300000000E+03 0.  1.
<mgrwt>
<rscale>  2 0.20276883E+03</rscale>
<asrwt>0</asrwt>
<pdfrwt beam="1">  1       21 0.10525175E+00 0.20276883E+03</pdfrwt>
<pdfrwt beam="2">  1       21 0.13019041E-01 0.20276883E+03</pdfrwt>
<totfact> 0.36621627E+04</totfact>
</mgrwt>
</event>
<event>
 4    1  0.4173994E+000  0.1771045E+03  0.7546771E-02  0.1170635E+00
         21   -1    0    0  501  502  0.00000000000E+00  0.00000000000E+00  0.55448346880E+02  0.55448346880E+02  0.00000000000E+00 0. -1.
         21   -1    0    0  502  503 -0.00000000000E+00 -0.00000000000E+00 -0.56751276483E+03  0.56751276483E+03  0.00000000000E+00 0. -1.
          6    1    1    2  501    0  0.30384918410E+02 -0.22666523813E+02 -0.23833071405E+03  0.29693020026E+03  0.17300000000E+03 0. -1.
         -6    1    1    2    0  503 -0.30384918410E+02  0.22666523813E+02 -0.27373370391E+03  0.32603091145E+03  0.17300000000E+03 0. -1.
<mgrwt>
<rscale>  2 0.17710453E+03</rscale>
<asrwt>0</asrwt>
<pdfrwt beam="1">  1       21 0.85305149E-02 0.17710453E+03</pdfrwt>
<pdfrwt beam="2">  1       21 0.87309657E-01 0.17710453E+03</pdfrwt>
<totfact> 0.12160127E+05</totfact>
</mgrwt>
</event>
<event>
 4    1  0.4173994E+000  0.1926300E+03  0.7546771E-02  0.1156110E+00
         21   -1    0    0  503  502  0.00000000000E+00  0.00000000000E+00  0.10236882884E+03  0.10236882884E+03  0.00000000000E+00 0.  1.
         21   -1    0    0  501  503 -0.00000000000E+00 -0.00000000000E+00 -0.46499080305E+03  0.46499080305E+03  0.00000000000E+00 0.  1.
          6    1    1    2  501    0  0.63871517786E+02  0.55657421281E+02 -0.31450907144E+03  0.36881197831E+03  0.17300000000E+03 0.  1.
         -6    1    1    2    0  502 -0.63871517786E+02 -0.55657421281E+02 -0.48112902773E+02  0.19854765358E+03  0.17300000000E+03 0.  1.
<mgrwt>
<rscale>  2 0.19263001E+03</rscale>
<asrwt>0</asrwt>
<pdfrwt beam="1">  1       21 0.15749051E-01 0.19263001E+03</pdfrwt>
<pdfrwt beam="2">  1       21 0.71537045E-01 0.19263001E+03</pdfrwt>
<totfact> 0.63392000E+04</totfact>
</mgrwt>
</event>
<event>
 4    1  0.4173994E+000  0.2302335E+03  0.7546771E-02  0.1126475E+00
         21   -1    0    0  503  502  0.00000000000E+00  0.00000000000E+00  0.25042814168E+03  0.25042814168E+03  0.00000000000E+00 0.  1.
         21   -1    0    0  501  503 -0.00000000000E+00 -0.00000000000E+00 -0.28180370634E+03  0.28180370634E+03  0.00000000000E+00 0.  1.
          6    1    1    2  501    0 -0.50289277954E+02 -0.14335086189E+03 -0.14844827816E+03  0.27394227926E+03  0.17300000000E+03 0.  1.
         -6    1    1    2    0  502  0.50289277954E+02  0.14335086189E+03  0.11707271350E+03  0.25828956875E+03  0.17300000000E+03 0.  1.
<mgrwt>
<rscale>  2 0.23023354E+03</rscale>
<asrwt>0</asrwt>
<pdfrwt beam="1">  1       21 0.38527406E-01 0.23023354E+03</pdfrwt>
<pdfrwt beam="2">  1       21 0.43354417E-01 0.23023354E+03</pdfrwt>
<totfact> 0.32591011E+04</totfact>
</mgrwt>
</event>
<event>
 4    1  0.4173994E+000  0.1793924E+03  0.7546771E-02  0.1168392E+00
         21   -1    0    0  503  502  0.00000000000E+00  0.00000000000E+00  0.28650863910E+03  0.28650863910E+03  0.00000000000E+00 0.  1.
         21   -1    0    0  501  503 -0.00000000000E+00 -0.00000000000E+00 -0.55965727279E+03  0.55965727279E+03  0.00000000000E+00 0.  1.
          6    1    1    2  501    0  0.25202430524E+02  0.40217674146E+02 -0.51482554567E+03  0.54518525869E+03  0.17300000000E+03 0.  1.
         -6    1    1    2    0  502 -0.25202430524E+02 -0.40217674146E+02  0.24167691198E+03  0.30098065320E+03  0.17300000000E+03 0.  1.
<mgrwt>
<rscale>  2 0.17939237E+03</rscale>
<asrwt>0</asrwt>
<pdfrwt beam="1">  1       21 0.44078253E-01 0.17939237E+03</pdfrwt>
<pdfrwt beam="2">  1       21 0.86101117E-01 0.17939237E+03</pdfrwt>
<totfact> 0.58118174E+03</totfact>
</mgrwt>
</event>
<event>
 4    1  0.4173994E+000  0.2083876E+03  0.7546771E-02  0.1142849E+00
         21   -1    0    0  501  502  0.00000000000E+00  0.00000000000E+00  0.26926125635E+03  0.26926125635E+03  0.00000000000E+00 0.  1.
         21   -1    0    0  502  503 -0.00000000000E+00 -0.00000000000E+00 -0.32903170095E+03  0.32903170095E+03  0.00000000000E+00 0.  1.
          6    1    1    2  501    0  0.93209780113E+02 -0.69342154050E+02  0.18371592255E+03  0.27780737506E+03  0.17300000000E+03 0.  1.
         -6    1    1    2    0  503 -0.93209780113E+02  0.69342154050E+02 -0.24348636716E+03  0.32048558225E+03  0.17300000000E+03 0.  1.
<mgrwt>
<rscale>  2 0.20838761E+03</rscale>
<asrwt>0</asrwt>
<pdfrwt beam="1">  1       21 0.41424809E-01 0.20838761E+03</pdfrwt>
<pdfrwt beam="2">  1       21 0.50620262E-01 0.20838761E+03</pdfrwt>
<totfact> 0.20644955E+04</totfact>
</mgrwt>
</event>
<event>
 4    1  0.4173994E+000  0.1851022E+03  0.7546771E-02  0.1162955E+00
         21   -1    0    0  501  502  0.00000000000E+00  0.00000000000E+00  0.98741832133E+03  0.98741832133E+03  0.00000000000E+00 0. -1.
         21   -1    0    0  502  503 -0.00000000000E+00 -0.00000000000E+00 -0.46069662043E+02  0.46069662043E+02  0.00000000000E+00 0. -1.
          6    1    1    2  501    0  0.63659478652E+02 -0.16771385251E+02  0.72739062917E+03  0.75057307172E+03  0.17300000000E+03 0. -1.
         -6    1    1    2    0  503 -0.63659478652E+02  0.16771385251E+02  0.21395803012E+03  0.28291491166E+03  0.17300000000E+03 0. -1.
<mgrwt>
<rscale>  2 0.18510216E+03</rscale>
<asrwt>0</asrwt>
<pdfrwt beam="1">  1       21 0.15191050E+00 0.18510216E+03</pdfrwt>
<pdfrwt beam="2">  1       21 0.70876410E-02 0.18510216E+03</pdfrwt>
<totfact> 0.42987396E+04</totfact>
</mgrwt>
</event>
<event>
 4    1  0.4173994E+000  0.1946804E+03  0.7546771E-02  0.1154306E+00
         21   -1    0    0  501  502  0.00000000000E+00  0.00000000000E+00  0.20586086922E+03  0.20586086922E+03  0.00000000000E+00 0.  1.
         21   -1    0    0  502  503 -0.00000000000E+00 -0.00000000000E+00 -0.21260386814E+03  0.21260386814E+03  0.00000000000E+00 0.  1.
          6    1    1    2  501    0  0.55661798690E+02 -0.69808568199E+02  0.73230515259E+02  0.20799802978E+03  0.17300000000E+03 0.  1.
         -6    1    1    2    0  503 -0.55661798690E+02  0.69808568199E+02 -0.79973514186E+02  0.21046670758E+03  0.17300000000E+03 0.  1.
<mgrwt>
<rscale>  2 0.19468044E+03</rscale>
<asrwt>0</asrwt>
<pdfrwt beam="1">  1       21 0.31670903E-01 0.19468044E+03</pdfrwt>
<pdfrwt beam="2">  1       21 0.32708287E-01 0.19468044E+03</pdfrwt>
<totfact> 0.86161252E+04</totfact>
</mgrwt>
</event>
<event>
 4    1  0.4173994E+000  0.1759772E+03  0.7546771E-02  0.1171754E+00
         21   -1    0    0  501  502  0.00000000000E+00  0.00000000000E+00  0.15174925427E+03  0.15174925427E+03  0.00000000000E+00 0.  1.
         21   -1    0    0  502  503 -0.00000000000E+00 -0.00000000000E+00 -0.20437920247E+03  0.20437920247E+03  0.00000000000E+00 0.  1.
          6    1    1    2  501    0 -0.70276081761E+01 -0.31457781876E+02 -0.19426685386E+02  0.17704625221E+03  0.17300000000E+03 0. -1.
         -6    1    1    2    0  503  0.70276081761E+01  0.31457781876E+02 -0.33203262810E+02  0.17908220453E+03  0.17300000000E+03 0. -1.
<mgrwt>
<rscale>  2 0.17597721E+03</rscale>
<asrwt>0</asrwt>
<pdfrwt beam="1">  1       21 0.23346039E-01 0.17597721E+03</pdfrwt>
<pdfrwt beam="2">  1       21 0.31442954E-01 0.17597721E+03</pdfrwt>
<totfact> 0.16858951E+05</totfact>
</mgrwt>
</event>
<event>
 4    1  0.4173994E+000  0.1916708E+03  0.7546771E-02  0.1156963E+00
         21   -1    0    0  503  502  0.00000000000E+00  0.00000000000E+00  0.37855834718E+03  0.37855834718E+03  0.00000000000E+00 0.  1.
         21   -1    0    0  501  503 -0.00000000000E+00 -0.00000000000E+00 -0.10859528099E+03  0.10859528099E+03  0.00000000000E+00 0.  1.
          6    1    1    2  501    0 -0.59097791719E+02 -0.57586146598E+02  0.21441453839E+03  0.28759573630E+03  0.17300000000E+03 0. -1.
         -6    1    1    2    0  502  0.59097791719E+02  0.57586146598E+02  0.55548527791E+02  0.19955789187E+03  0.17300000000E+03 0. -1.
<mgrwt>
<rscale>  2 0.19167085E+03</rscale>
<asrwt>0</asrwt>
<pdfrwt beam="1">  1       21 0.58239745E-01 0.19167085E+03</pdfrwt>
<pdfrwt beam="2">  1       21 0.16706966E-01 0.19167085E+03</pdfrwt>
<totfact> 0.88999101E+04</totfact>
</mgrwt>
</event>
<event>
 4    1  0.4173994E+000  0.1776070E+03  0.7546771E-02  0.1170139E+00
         21   -1    0    0  501  502  0.00000000000E+00  0.00000000000E+00  0.50128895788E+02  0.50128895788E+02  0.00000000000E+00 0. -1.
         21   -1    0    0  502  503 -0.00000000000E+00 -0.00000000000E+00 -0.10272696166E+04  0.10272696166E+04  0.00000000000E+00 0. -1.
          6    1    1    2  501    0  0.62421235360E+01  0.39702292085E+02 -0.15325800738E+03  0.23458954139E+03  0.17300000000E+03 0. -1.
         -6    1    1    2    0  503 -0.62421235360E+01 -0.39702292085E+02 -0.82388271341E+03  0.84280897098E+03  0.17300000000E+03 0. -1.
<mgrwt>
<rscale>  2 0.17760697E+03</rscale>
<asrwt>0</asrwt>
<pdfrwt beam="1">  1       21 0.77121378E-02 0.17760697E+03</pdfrwt>
<pdfrwt beam="2">  1       21 0.15804148E+00 0.17760697E+03</pdfrwt>
<totfact> 0.33592530E+04</totfact>
</mgrwt>
</event>
<event>
 4    1  0.4173994E+000  0.1788253E+03  0.7546771E-02  0.1168945E+00
         21   -1    0    0  501  502  0.00000000000E+00  0.00000000000E+00  0.11239610419E+03  0.11239610419E+03  0.00000000000E+00 0.  1.
         21   -1    0    0  502  503 -0.00000000000E+00 -0.00000000000E+00 -0.47688113486E+03  0.47688113486E+03  0.00000000000E+00 0.  1.
          6    1    1    2  501    0  0.16344743188E+02 -0.42217570323E+02  0.48894342836E+01  0.17889209161E+03  0.17300000000E+03 0.  1.
         -6    1    1    2    0  503 -0.16344743188E+02  0.42217570323E+02 -0.36937446496E+03  0.41038514744E+03  0.17300000000E+03 0.  1.
<mgrwt>
<rscale>  2 0.17882526E+03</rscale>
<asrwt>0</asrwt>
<pdfrwt beam="1">  1       21 0.17291708E-01 0.17882526E+03</pdfrwt>
<pdfrwt beam="2">  1       21 0.73366329E-01 0.17882526E+03</pdfrwt>
<totfact> 0.50824606E+04</totfact>
</mgrwt>
</event>
<event>
 4    1  0.4173994E+000  0.4112286E+03  0.7546771E-02  0.1039960E+00
         21   -1    0    0  503  502  0.00000000000E+00  0.00000000000E+00  0.30392495222E+03  0.30392495222E+03  0.00000000000E+00 0. -1.
         21   -1    0    0  501  503 -0.00000000000E+00 -0.00000000000E+00 -0.58207878437E+03  0.58207878437E+03  0.00000000000E+00 0.  1.
          6    1    1    2  501    0 -0.35350424287E+03 -0.11922547021E+03 -0.23209329432E+03  0.47220362106E+03  0.17300000000E+03 0.  1.
         -6    1    1    2    0  502  0.35350424287E+03  0.11922547021E+03 -0.46060537835E+02  0.41380011553E+03  0.17300000000E+03 0. -1.
<mgrwt>
<rscale>  2 0.41122860E+03</rscale>
<asrwt>0</asrwt>
<pdfrwt beam="1">  1       21 0.46757686E-01 0.41122860E+03</pdfrwt>
<pdfrwt beam="2">  1       21 0.89550581E-01 0.41122860E+03</pdfrwt>
<totfact> 0.41315334E+03</totfact>
</mgrwt>
</event>
<event>
 4    1  0.4173994E+000  0.1763424E+03  0.7546771E-02  0.1171391E+00
         21   -1    0    0  503  502  0.00000000000E+00  0.00000000000E+00  0.58453794804E+02  0.58453794804E+02  0.00000000000E+00 0. -1.
         21   -1    0    0  501  503 -0.00000000000E+00 -0.00000000000E+00 -0.57328832577E+03  0.57328832577E+03  0.00000000000E+00 0. -1.
          6    1    1    2  501    0  0.24123086556E+02 -0.24201896110E+02 -0.34219965105E+03  0.38496396748E+03  0.17300000000E+03 0. -1.
         -6    1    1    2    0  502 -0.24123086556E+02  0.24201896110E+02 -0.17263487992E+03  0.24677815309E+03  0.17300000000E+03 0. -1.
<mgrwt>
<rscale>  2 0.17634244E+03</rscale>
<asrwt>0</asrwt>
<pdfrwt beam="1">  1       21 0.89928917E-02 0.17634244E+03</pdfrwt>
<pdfrwt beam="2">  1       21 0.88198203E-01 0.17634244E+03</pdfrwt>
<totfact> 0.10837225E+05</totfact>
</mgrwt>
</event>
<event>
 4    1  0.4173994E+000  0.2722740E+03  0.7546771E-02  0.1099985E+00
         21   -1    0    0  503  502  0.00000000000E+00  0.00000000000E+00  0.11083346442E+03  0.11083346442E+03  0.00000000000E+00 0. -1.
         21   -1    0    0  501  503 -0.00000000000E+00 -0.00000000000E+00 -0.88737127953E+03  0.88737127953E+03  0.00000000000E+00 0.  1.
          6    1    1    2  501    0 -0.10537545289E+03 -0.18193445664E+03 -0.63593375060E+03  0.69176937468E+03  0.17300000000E+03 0. -1.
         -6    1    1    2    0  502  0.10537545289E+03  0.18193445664E+03 -0.14060406451E+03  0.30643536927E+03  0.17300000000E+03 0. -1.
<mgrwt>
<rscale>  2 0.27227400E+03</rscale>
<asrwt>0</asrwt>
<pdfrwt beam="1">  1       21 0.17051303E-01 0.27227400E+03</pdfrwt>
<pdfrwt beam="2">  1       21 0.13651865E+00 0.27227400E+03</pdfrwt>
<totfact> 0.11269452E+04</totfact>
</mgrwt>
</event>
<event>
 4    1  0.4173994E+000  0.1814158E+03  0.7546771E-02  0.1166440E+00
         21   -1    0    0  501  502  0.00000000000E+00  0.00000000000E+00  0.32885946969E+03  0.32885946969E+03  0.00000000000E+00 0. -1.
         21   -1    0    0  502  503 -0.00000000000E+00 -0.00000000000E+00 -0.10104417665E+03  0.10104417665E+03  0.00000000000E+00 0.  1.
          6    1    1    2  501    0  0.37180487190E+02 -0.40003929298E+02  0.13492325648E+03  0.22608845199E+03  0.17300000000E+03 0. -1.
         -6    1    1    2    0  503 -0.37180487190E+02  0.40003929298E+02  0.92892036567E+02  0.20381519434E+03  0.17300000000E+03 0.  1.
<mgrwt>
<rscale>  2 0.18141583E+03</rscale>
<asrwt>0</asrwt>
<pdfrwt beam="1">  1       21 0.50593764E-01 0.18141583E+03</pdfrwt>
<pdfrwt beam="2">  1       21 0.15545258E-01 0.18141583E+03</pdfrwt>
<totfact> 0.13716415E+05</totfact>
</mgrwt>
</event>
<event>
 4    1  0.4173994E+000  0.1901857E+03  0.7546771E-02  0.1158294E+00
         21   -1    0    0  501  502  0.00000000000E+00  0.00000000000E+00  0.43177898670E+02  0.43177898670E+02  0.00000000000E+00 0.  1.
         21   -1    0    0  502  503 -0.00000000000E+00 -0.00000000000E+00 -0.11974724243E+04  0.11974724243E+04  0.00000000000E+00 0.  1.
          6    1    1    2  501    0  0.74090533357E+02 -0.27425995261E+02 -0.23713541532E+03  0.30397992951E+03  0.17300000000E+03 0.  1.
         -6    1    1    2    0  503 -0.74090533357E+02  0.27425995261E+02 -0.91715911031E+03  0.93667039345E+03  0.17300000000E+03 0.  1.
<mgrwt>
<rscale>  2 0.19018568E+03</rscale>
<asrwt>0</asrwt>
<pdfrwt beam="1">  1       21 0.66427537E-02 0.19018568E+03</pdfrwt>
<pdfrwt beam="2">  1       21 0.18422652E+00 0.19018568E+03</pdfrwt>
<totfact> 0.28257554E+04</totfact>
</mgrwt>
</event>
<event>
 4    1  0.4173994E+000  0.1902543E+03  0.7546771E-02  0.1158232E+00
         21   -1    0    0  501  502  0.00000000000E+00  0.00000000000E+00  0.75955746865E+03  0.75955746865E+03  0.00000000000E+00 0.  1.
         21   -1    0    0  502  503 -0.00000000000E+00 -0.00000000000E+00 -0.49634988363E+02  0.49634988363E+02  0.00000000000E+00 0.  1.
          6    1    1    2  501    0 -0.15010991715E+02 -0.77732616637E+02  0.43577071909E+03  0.47549217573E+03  0.17300000000E+03 0.  1.
         -6    1    1    2    0  503  0.15010991715E+02  0.77732616637E+02  0.27415176119E+03  0.33370028128E+03  0.17300000000E+03 0.  1.
<mgrwt>
<rscale>  2 0.19025428E+03</rscale>
<asrwt>0</asrwt>
<pdfrwt beam="1">  1       21 0.11685499E+00 0.19025428E+03</pdfrwt>
<pdfrwt beam="2">  1       21 0.76361526E-02 0.19025428E+03</pdfrwt>
<totfact> 0.73442372E+04</totfact>
</mgrwt>
</event>
<event>
 4    1  0.4173994E+000  0.1826236E+03  0.7546771E-02  0.1165288E+00
         21   -1    0    0  501  502  0.00000000000E+00  0.00000000000E+00  0.95673201280E+02  0.95673201280E+02  0.00000000000E+00 0. -1.
         21   -1    0    0  502  503 -0.00000000000E+00 -0.00000000000E+00 -0.42863790259E+03  0.42863790259E+03  0.00000000000E+00 0. -1.
          6    1    1    2  501    0 -0.57225616001E+02 -0.12148773104E+02 -0.53197840239E+02  0.19021402162E+03  0.17300000000E+03 0. -1.
         -6    1    1    2    0  503  0.57225616001E+02  0.12148773104E+02 -0.27976686107E+03  0.33409708225E+03  0.17300000000E+03 0. -1.
<mgrwt>
<rscale>  2 0.18262356E+03</rscale>
<asrwt>0</asrwt>
<pdfrwt beam="1">  1       21 0.14718954E-01 0.18262356E+03</pdfrwt>
<pdfrwt beam="2">  1       21 0.65944294E-01 0.18262356E+03</pdfrwt>
<totfact> 0.86101300E+04</totfact>
</mgrwt>
</event>
<event>
 4    1  0.4173994E+000  0.1771183E+03  0.7546771E-02  0.1170622E+00
         21   -1    0    0  501  502  0.00000000000E+00  0.00000000000E+00  0.48431442985E+02  0.48431442985E+02  0.00000000000E+00 0.  1.
         21   -1    0    0  502  503 -0.00000000000E+00 -0.00000000000E+00 -0.88458779041E+03  0.88458779041E+03  0.00000000000E+00 0.  1.
          6    1    1    2  501    0  0.43079248434E+01  0.37726890798E+02 -0.17668398383E+03  0.25017615124E+03  0.17300000000E+03 0.  1.
         -6    1    1    2    0  503 -0.43079248434E+01 -0.37726890798E+02 -0.65947236359E+03  0.68284308216E+03  0.17300000000E+03 0.  1.
<mgrwt>
<rscale>  2 0.17711826E+03</rscale>
<asrwt>0</asrwt>
<pdfrwt beam="1">  1       21 0.74509912E-02 0.17711826E+03</pdfrwt>
<pdfrwt beam="2">  1       21 0.13609043E+00 0.17711826E+03</pdfrwt>
<totfact> 0.52694023E+04</totfact>
</mgrwt>
</event>
<event>
 4    1  0.4173994E+000  0.1831450E+03  0.7546771E-02  0.1164794E+00
         21   -1    0    0  501  502  0.00000000000E+00  0.00000000000E+00  0.53686263986E+03  0.53686263986E+03  0.00000000000E+00 0. -1.
         21   -1    0    0  502  503 -0.00000000000E+00 -0.00000000000E+00 -0.62814605739E+03  0.62814605739E+03  0.00000000000E+00 0. -1.
          6    1    1    2  501    0  0.93078090100E+01  0.59384081788E+02  0.50713492916E+03  0.53919193322E+03  0.17300000000E+03 0. -1.
         -6    1    1    2    0  503 -0.93078090100E+01 -0.59384081788E+02 -0.59841834669E+03  0.62581676402E+03  0.17300000000E+03 0. -1.
<mgrwt>
<rscale>  2 0.18314504E+03</rscale>
<asrwt>0</asrwt>
<pdfrwt beam="1">  1       21 0.82594252E-01 0.18314504E+03</pdfrwt>
<pdfrwt beam="2">  1       21 0.96637856E-01 0.18314504E+03</pdfrwt>
<totfact> 0.11495304E+03</totfact>
</mgrwt>
</event>
<event>
 4    1  0.4173994E+000  0.1799022E+03  0.7546771E-02  0.1167898E+00
         21   -1    0    0  501  502  0.00000000000E+00  0.00000000000E+00  0.66937637566E+02  0.66937637566E+02  0.00000000000E+00 0.  1.
         21   -1    0    0  502  503 -0.00000000000E+00 -0.00000000000E+00 -0.54585257476E+03  0.54585257476E+03  0.00000000000E+00 0.  1.
          6    1    1    2  501    0  0.45400993341E+02 -0.19353498951E+02 -0.13590811638E+03  0.22546801152E+03  0.17300000000E+03 0.  1.
         -6    1    1    2    0  503 -0.45400993341E+02  0.19353498951E+02 -0.34300682081E+03  0.38732220081E+03  0.17300000000E+03 0.  1.
<mgrwt>
<rscale>  2 0.17990222E+03</rscale>
<asrwt>0</asrwt>
<pdfrwt beam="1">  1       21 0.10298098E-01 0.17990222E+03</pdfrwt>
<pdfrwt beam="2">  1       21 0.83977319E-01 0.17990222E+03</pdfrwt>
<totfact> 0.95388607E+04</totfact>
</mgrwt>
</event>
<event>
 4    1  0.4173994E+000  0.1759010E+03  0.7546771E-02  0.1171830E+00
         21   -1    0    0  501  502  0.00000000000E+00  0.00000000000E+00  0.12428548697E+03  0.12428548697E+03  0.00000000000E+00 0. -1.
         21   -1    0    0  502  503 -0.00000000000E+00 -0.00000000000E+00 -0.25027046022E+03  0.25027046022E+03  0.00000000000E+00 0. -1.
          6    1    1    2  501    0 -0.24172847483E+02  0.20684301540E+02 -0.76583568016E+02  0.19184944560E+03  0.17300000000E+03 0.  1.
         -6    1    1    2    0  503  0.24172847483E+02 -0.20684301540E+02 -0.49401405235E+02  0.18270650159E+03  0.17300000000E+03 0.  1.
<mgrwt>
<rscale>  2 0.17590101E+03</rscale>
<asrwt>0</asrwt>
<pdfrwt beam="1">  1       21 0.19120844E-01 0.17590101E+03</pdfrwt>
<pdfrwt beam="2">  1       21 0.38503148E-01 0.17590101E+03</pdfrwt>
<totfact> 0.16412487E+05</totfact>
</mgrwt>
</event>
<event>
 4    1  0.4173994E+000  0.1732347E+03  0.7546771E-02  0.1174516E+00
         21   -1    0    0  501  502  0.00000000000E+00  0.00000000000E+00  0.14242407313E+03  0.14242407313E+03  0.00000000000E+00 0. -1.
         21   -1    0    0  502  503 -0.00000000000E+00 -0.00000000000E+00 -0.56111114176E+03  0.56111114176E+03  0.00000000000E+00 0. -1.
          6    1    1    2  501    0  0.54640422175E+01 -0.71709142549E+01  0.68636570381E+02  0.18633640697E+03  0.17300000000E+03 0. -1.
         -6    1    1    2    0  503 -0.54640422175E+01  0.71709142549E+01 -0.48732363901E+03  0.51719880792E+03  0.17300000000E+03 0. -1.
<mgrwt>
<rscale>  2 0.17323475E+03</rscale>
<asrwt>0</asrwt>
<pdfrwt beam="1">  1       21 0.21911396E-01 0.17323475E+03</pdfrwt>
<pdfrwt beam="2">  1       21 0.86324792E-01 0.17323475E+03</pdfrwt>
<totfact> 0.22759363E+04</totfact>
</mgrwt>
</event>
<event>
 4    1  0.4173994E+000  0.1766489E+03  0.7546771E-02  0.1171086E+00
         21   -1    0    0  503  502  0.00000000000E+00  0.00000000000E+00  0.89124901562E+03  0.89124901562E+03  0.00000000000E+00 0. -1.
         21   -1    0    0  501  503 -0.00000000000E+00 -0.00000000000E+00 -0.18628795678E+03  0.18628795678E+03  0.00000000000E+00 0. -1.
          6    1    1    2  501    0 -0.35320908697E+02  0.53169503601E+01 -0.13302486903E+03  0.22113446663E+03  0.17300000000E+03 0. -1.
         -6    1    1    2    0  502  0.35320908697E+02 -0.53169503601E+01  0.83798592788E+03  0.85640250577E+03  0.17300000000E+03 0. -1.
<mgrwt>
<rscale>  2 0.17664891E+03</rscale>
<asrwt>0</asrwt>
<pdfrwt beam="1">  1       21 0.13711523E+00 0.17664891E+03</pdfrwt>
<pdfrwt beam="2">  1       21 0.28659686E-01 0.17664891E+03</pdfrwt>
<totfact> 0.44583744E+03</totfact>
</mgrwt>
</event>
<event>
 4    1  0.4173994E+000  0.2878946E+03  0.7546771E-02  0.1091454E+00
         21   -1    0    0  503  502  0.00000000000E+00  0.00000000000E+00  0.53070597790E+03  0.53070597790E+03  0.00000000000E+00 0.  1.
         21   -1    0    0  501  503 -0.00000000000E+00 -0.00000000000E+00 -0.15663197732E+03  0.15663197732E+03  0.00000000000E+00 0.  1.
          6    1    1    2  501    0  0.15380123343E+02  0.22960347013E+03  0.16848534729E+03  0.33357250178E+03  0.17300000000E+03 0.  1.
         -6    1    1    2    0  502 -0.15380123343E+02 -0.22960347013E+03  0.20558865330E+03  0.35376545345E+03  0.17300000000E+03 0.  1.
<mgrwt>
<rscale>  2 0.28789460E+03</rscale>
<asrwt>0</asrwt>
<pdfrwt beam="1">  1       21 0.81647073E-01 0.28789460E+03</pdfrwt>
<pdfrwt beam="2">  1       21 0.24097227E-01 0.28789460E+03</pdfrwt>
<totfact> 0.20323669E+04</totfact>
</mgrwt>
</event>
<event>
 4    1  0.4173994E+000  0.2186014E+03  0.7546771E-02  0.1134930E+00
         21   -1    0    0  501  502  0.00000000000E+00  0.00000000000E+00  0.16806613301E+04  0.16806613301E+04  0.00000000000E+00 0.  1.
         21   -1    0    0  502  503 -0.00000000000E+00 -0.00000000000E+00 -0.28581834083E+02  0.28581834083E+02  0.00000000000E+00 0.  1.
          6    1    1    2  501    0  0.11905237149E+03  0.60696986832E+02  0.88766772293E+03  0.91418848040E+03  0.17300000000E+03 0.  1.
         -6    1    1    2    0  503 -0.11905237149E+03 -0.60696986832E+02  0.76441177307E+03  0.79505468376E+03  0.17300000000E+03 0.  1.
<mgrwt>
<rscale>  2 0.21860144E+03</rscale>
<asrwt>0</asrwt>
<pdfrwt beam="1">  1       21 0.25856321E+00 0.21860144E+03</pdfrwt>
<pdfrwt beam="2">  1       21 0.43972065E-02 0.21860144E+03</pdfrwt>
<totfact> 0.19361573E+04</totfact>
</mgrwt>
</event>
<event>
 4    1  0.4173994E+000  0.2464150E+03  0.7546771E-02  0.1115592E+00
         21   -1    0    0  503  502  0.00000000000E+00  0.00000000000E+00  0.77954087071E+02  0.77954087071E+02  0.00000000000E+00 0. -1.
         21   -1    0    0  501  503 -0.00000000000E+00 -0.00000000000E+00 -0.98988197228E+03  0.98988197228E+03  0.00000000000E+00 0. -1.
          6    1    1    2  501    0 -0.41837796842E+02 -0.17041398857E+03 -0.70244332314E+03  0.74441047210E+03  0.17300000000E+03 0. -1.
         -6    1    1    2    0  502  0.41837796842E+02  0.17041398857E+03 -0.20948456207E+03  0.32342558725E+03  0.17300000000E+03 0. -1.
<mgrwt>
<rscale>  2 0.24641495E+03</rscale>
<asrwt>0</asrwt>
<pdfrwt beam="1">  1       21 0.11992936E-01 0.24641495E+03</pdfrwt>
<pdfrwt beam="2">  1       21 0.15228954E+00 0.24641495E+03</pdfrwt>
<totfact> 0.16299953E+04</totfact>
</mgrwt>
</event>
<event>
 4    1  0.4173994E+000  0.2062385E+03  0.7546771E-02  0.1144580E+00
         21   -1    0    0  503  502  0.00000000000E+00  0.00000000000E+00  0.38982980391E+03  0.38982980391E+03  0.00000000000E+00 0.  1.
         21   -1    0    0  501  503 -0.00000000000E+00 -0.00000000000E+00 -0.11940679596E+03  0.11940679596E+03  0.00000000000E+00 0.  1.
          6    1    1    2  501    0  0.19072497379E+02  0.11064153099E+03  0.60441517713E+02  0.21491273950E+03  0.17300000000E+03 0.  1.
         -6    1    1    2    0  502 -0.19072497379E+02 -0.11064153099E+03  0.20998149024E+03  0.29432386036E+03  0.17300000000E+03 0.  1.
<mgrwt>
<rscale>  2 0.20623847E+03</rscale>
<asrwt>0</asrwt>
<pdfrwt beam="1">  1       21 0.59973815E-01 0.20623847E+03</pdfrwt>
<pdfrwt beam="2">  1       21 0.18370277E-01 0.20623847E+03</pdfrwt>
<totfact> 0.69697743E+04</totfact>
</mgrwt>
</event>
<event>
 4    1  0.4173994E+000  0.2665656E+03  0.7546771E-02  0.1103261E+00
         21   -1    0    0  503  502  0.00000000000E+00  0.00000000000E+00  0.13588412306E+04  0.13588412306E+04  0.00000000000E+00 0.  1.
         21   -1    0    0  501  503 -0.00000000000E+00 -0.00000000000E+00 -0.56332338355E+02  0.56332338355E+02  0.00000000000E+00 0.  1.
          6    1    1    2  501    0 -0.12480139101E+03  0.15985248301E+03  0.46176593734E+03  0.53318381859E+03  0.17300000000E+03 0.  1.
         -6    1    1    2    0  502  0.12480139101E+03 -0.15985248301E+03  0.84074295494E+03  0.88198975040E+03  0.17300000000E+03 0.  1.
<mgrwt>
<rscale>  2 0.26656557E+03</rscale>
<asrwt>0</asrwt>
<pdfrwt beam="1">  1       21 0.20905247E+00 0.26656557E+03</pdfrwt>
<pdfrwt beam="2">  1       21 0.86665146E-02 0.26656557E+03</pdfrwt>
<totfact> 0.11631494E+04</totfact>
</mgrwt>
</event>
<event>
 4    1  0.4173994E+000  0.3276342E+03  0.7546771E-02  0.1072188E+00
         21   -1    0    0  503  502  0.00000000000E+00  0.00000000000E+00  0.39607868231E+03  0.39607868231E+03  0.00000000000E+00 0. -1.
         21   -1    0    0  501  503 -0.00000000000E+00 -0.00000000000E+00 -0.30947541793E+03  0.30947541793E+03  0.00000000000E+00 0.  1.
          6    1    1    2  501    0  0.14862724868E+03 -0.23521286965E+03  0.16766187803E+03  0.36804165314E+03  0.17300000000E+03 0. -1.
         -6    1    1    2    0  502 -0.14862724868E+03  0.23521286965E+03 -0.81058613657E+02  0.33751244710E+03  0.17300000000E+03 0.  1.
<mgrwt>
<rscale>  2 0.32763418E+03</rscale>
<asrwt>0</asrwt>
<pdfrwt beam="1">  1       21 0.60935182E-01 0.32763418E+03</pdfrwt>
<pdfrwt beam="2">  1       21 0.47611603E-01 0.32763418E+03</pdfrwt>
<totfact> 0.98349761E+03</totfact>
</mgrwt>
</event>
<event>
 4    1  0.4173994E+000  0.1805402E+03  0.7546771E-02  0.1167281E+00
         21   -1    0    0  501  502  0.00000000000E+00  0.00000000000E+00  0.37344257057E+03  0.37344257057E+03  0.00000000000E+00 0. -1.
         21   -1    0    0  502  503 -0.00000000000E+00 -0.00000000000E+00 -0.10630770019E+03  0.10630770019E+03  0.00000000000E+00 0. -1.
          6    1    1    2  501    0  0.11189399363E+01  0.51618890547E+02  0.23504611346E+03  0.29638056167E+03  0.17300000000E+03 0. -1.
         -6    1    1    2    0  503 -0.11189399363E+01 -0.51618890547E+02  0.32088756925E+02  0.18336970908E+03  0.17300000000E+03 0. -1.
<mgrwt>
<rscale>  2 0.18054019E+03</rscale>
<asrwt>0</asrwt>
<pdfrwt beam="1">  1       21 0.57452702E-01 0.18054019E+03</pdfrwt>
<pdfrwt beam="2">  1       21 0.16355031E-01 0.18054019E+03</pdfrwt>
<totfact> 0.95678765E+04</totfact>
</mgrwt>
</event>
<event>
 4    1  0.4173994E+000  0.1810829E+03  0.7546771E-02  0.1166759E+00
         21   -1    0    0  503  502  0.00000000000E+00  0.00000000000E+00  0.70298803575E+03  0.70298803575E+03  0.00000000000E+00 0.  1.
         21   -1    0    0  501  503 -0.00000000000E+00 -0.00000000000E+00 -0.86393995146E+02  0.86393995146E+02  0.00000000000E+00 0.  1.
          6    1    1    2  501    0  0.17060921572E+01  0.53470501239E+02  0.40579039086E+02  0.18557387657E+03  0.17300000000E+03 0.  1.
         -6    1    1    2    0  502 -0.17060921572E+01 -0.53470501239E+02  0.57601500152E+03  0.60380815432E+03  0.17300000000E+03 0.  1.
<mgrwt>
<rscale>  2 0.18108287E+03</rscale>
<asrwt>0</asrwt>
<pdfrwt beam="1">  1       21 0.10815200E+00 0.18108287E+03</pdfrwt>
<pdfrwt beam="2">  1       21 0.13291384E-01 0.18108287E+03</pdfrwt>
<totfact> 0.33446363E+04</totfact>
</mgrwt>
</event>
<event>
 4    1  0.4173994E+000  0.1953484E+03  0.7546771E-02  0.1153724E+00
         21   -1    0    0  501  502  0.00000000000E+00  0.00000000000E+00  0.59333052024E+03  0.59333052024E+03  0.00000000000E+00 0. -1.
         21   -1    0    0  502  503 -0.00000000000E+00 -0.00000000000E+00 -0.13742011727E+03  0.13742011727E+03  0.00000000000E+00 0.  1.
          6    1    1    2  501    0 -0.65044664139E+02  0.63255061064E+02  0.49444656537E+03  0.53163748653E+03  0.17300000000E+03 0. -1.
         -6    1    1    2    0  503  0.65044664139E+02 -0.63255061064E+02 -0.38536162394E+02  0.19911315099E+03  0.17300000000E+03 0.  1.
<mgrwt>
<rscale>  2 0.19534844E+03</rscale>
<asrwt>0</asrwt>
<pdfrwt beam="1">  1       21 0.91281617E-01 0.19534844E+03</pdfrwt>
<pdfrwt beam="2">  1       21 0.21141557E-01 0.19534844E+03</pdfrwt>
<totfact> 0.21117554E+04</totfact>
</mgrwt>
</event>
<event>
 4    1  0.4173994E+000  0.1771399E+03  0.7546771E-02  0.1170600E+00
         21   -1    0    0  503  502  0.00000000000E+00  0.00000000000E+00  0.48709901899E+03  0.48709901899E+03  0.00000000000E+00 0.  1.
         21   -1    0    0  501  503 -0.00000000000E+00 -0.00000000000E+00 -0.14093045552E+03  0.14093045552E+03  0.00000000000E+00 0.  1.
          6    1    1    2  501    0 -0.31936804523E+02 -0.20726235374E+02 -0.58287411740E+02  0.18648313244E+03  0.17300000000E+03 0.  1.
         -6    1    1    2    0  502  0.31936804523E+02  0.20726235374E+02  0.40445597521E+03  0.44154634208E+03  0.17300000000E+03 0.  1.
<mgrwt>
<rscale>  2 0.17713988E+03</rscale>
<asrwt>0</asrwt>
<pdfrwt beam="1">  1       21 0.74938310E-01 0.17713988E+03</pdfrwt>
<pdfrwt beam="2">  1       21 0.21681609E-01 0.17713988E+03</pdfrwt>
<totfact> 0.31870693E+04</totfact>
</mgrwt>
</event>
<event>
 4    1  0.4173994E+000  0.1934143E+03  0.7546771E-02  0.1155417E+00
         21   -1    0    0  501  502  0.00000000000E+00  0.00000000000E+00  0.14852233364E+03  0.14852233364E+03  0.00000000000E+00 0. -1.
         21   -1    0    0  502  503 -0.00000000000E+00 -0.00000000000E+00 -0.26286461781E+03  0.26286461781E+03  0.00000000000E+00 0. -1.
          6    1    1    2  501    0  0.16391395329E+02 -0.84920069050E+02 -0.15113847709E+02  0.19400392873E+03  0.17300000000E+03 0. -1.
         -6    1    1    2    0  503 -0.16391395329E+02  0.84920069050E+02 -0.99228436459E+02  0.21738302273E+03  0.17300000000E+03 0. -1.
<mgrwt>
<rscale>  2 0.19341431E+03</rscale>
<asrwt>0</asrwt>
<pdfrwt beam="1">  1       21 0.22849590E-01 0.19341431E+03</pdfrwt>
<pdfrwt beam="2">  1       21 0.40440710E-01 0.19341431E+03</pdfrwt>
<totfact> 0.10584812E+05</totfact>
</mgrwt>
</event>
<event>
 4    1  0.4173994E+000  0.2290917E+03  0.7546771E-02  0.1127281E+00
         21   -1    0    0  501  502  0.00000000000E+00  0.00000000000E+00  0.94208765115E+02  0.94208765115E+02  0.00000000000E+00 0.  1.
         21   -1    0    0  502  503 -0.00000000000E+00 -0.00000000000E+00 -0.60475200185E+03  0.60475200185E+03  0.00000000000E+00 0. -1.
          6    1    1    2  501    0 -0.31039818518E+02 -0.14693713622E+03 -0.15716256256E+03  0.27781840004E+03  0.17300000000E+03 0.  1.
         -6    1    1    2    0  503  0.31039818518E+02  0.14693713622E+03 -0.35338067418E+03  0.42114236692E+03  0.17300000000E+03 0. -1.
<mgrwt>
<rscale>  2 0.22909167E+03</rscale>
<asrwt>0</asrwt>
<pdfrwt beam="1">  1       21 0.14493657E-01 0.22909167E+03</pdfrwt>
<pdfrwt beam="2">  1       21 0.93038765E-01 0.22909167E+03</pdfrwt>
<totfact> 0.39864938E+04</totfact>
</mgrwt>
</event>
<event>
 4    1  0.4173994E+000  0.1840973E+03  0.7546771E-02  0.1163896E+00
         21   -1    0    0  503  502  0.00000000000E+00  0.00000000000E+00  0.14777275499E+03  0.14777275499E+03  0.00000000000E+00 0. -1.
         21   -1    0    0  501  503 -0.00000000000E+00 -0.00000000000E+00 -0.43225516756E+03  0.43225516756E+03  0.00000000000E+00 0.  1.
          6    1    1    2  501    0  0.11853066266E+02 -0.61824816704E+02 -0.34093965673E+03  0.38746826021E+03  0.17300000000E+03 0.  1.
         -6    1    1    2    0  502 -0.11853066266E+02  0.61824816704E+02  0.56457244157E+02  0.19255966233E+03  0.17300000000E+03 0. -1.
<mgrwt>
<rscale>  2 0.18409727E+03</rscale>
<asrwt>0</asrwt>
<pdfrwt beam="1">  1       21 0.22734270E-01 0.18409727E+03</pdfrwt>
<pdfrwt beam="2">  1       21 0.66500795E-01 0.18409727E+03</pdfrwt>
<totfact> 0.37787245E+04</totfact>
</mgrwt>
</event>
<event>
 4    1  0.4173994E+000  0.1954126E+03  0.7546771E-02  0.1153668E+00
         21   -1    0    0  503  502  0.00000000000E+00  0.00000000000E+00  0.73531103863E+02  0.73531103863E+02  0.00000000000E+00 0. -1.
         21   -1    0    0  501  503 -0.00000000000E+00 -0.00000000000E+00 -0.74096999660E+03  0.74096999660E+03  0.00000000000E+00 0. -1.
          6    1    1    2  501    0 -0.42327318035E+01  0.90769962043E+02 -0.55645840070E+03  0.58977288319E+03  0.17300000000E+03 0. -1.
         -6    1    1    2    0  502  0.42327318035E+01 -0.90769962043E+02 -0.11098049203E+03  0.22472821727E+03  0.17300000000E+03 0. -1.
<mgrwt>
<rscale>  2 0.19541265E+03</rscale>
<asrwt>0</asrwt>
<pdfrwt beam="1">  1       21 0.11312477E-01 0.19541265E+03</pdfrwt>
<pdfrwt beam="2">  1       21 0.11399539E+00 0.19541265E+03</pdfrwt>
<totfact> 0.38991616E+04</totfact>
</mgrwt>
</event>
<event>
 4    1  0.4173994E+000  0.2762582E+03  0.7546771E-02  0.1097750E+00
         21   -1    0    0  501  502  0.00000000000E+00  0.00000000000E+00  0.90889552516E+03  0.90889552516E+03  0.00000000000E+00 0.  1.
         21   -1    0    0  502  503 -0.00000000000E+00 -0.00000000000E+00 -0.11699643904E+03  0.11699643904E+03  0.00000000000E+00 0. -1.
          6    1    1    2  501    0  0.21061585094E+03 -0.45061921612E+02  0.66848681625E+03  0.72332097782E+03  0.17300000000E+03 0.  1.
         -6    1    1    2    0  503 -0.21061585094E+03  0.45061921612E+02  0.12341226987E+03  0.30257098638E+03  0.17300000000E+03 0. -1.
<mgrwt>
<rscale>  2 0.27625824E+03</rscale>
<asrwt>0</asrwt>
<pdfrwt beam="1">  1       21 0.13983008E+00 0.27625824E+03</pdfrwt>
<pdfrwt beam="2">  1       21 0.17999453E-01 0.27625824E+03</pdfrwt>
<totfact> 0.95527839E+03</totfact>
</mgrwt>
</event>
<event>
 4    1  0.4173994E+000  0.1889820E+03  0.7546771E-02  0.1159383E+00
         21   -1    0    0  503  502  0.00000000000E+00  0.00000000000E+00  0.15837447903E+03  0.15837447903E+03  0.00000000000E+00 0.  1.
         21   -1    0    0  501  503 -0.00000000000E+00 -0.00000000000E+00 -0.25068645842E+03  0.25068645842E+03  0.00000000000E+00 0.  1.
          6    1    1    2  501    0 -0.32844813844E+02  0.68603444053E+02 -0.11097975360E+03  0.21915912037E+03  0.17300000000E+03 0.  1.
         -6    1    1    2    0  502  0.32844813844E+02 -0.68603444053E+02  0.18667774213E+02  0.18990181707E+03  0.17300000000E+03 0.  1.
<mgrwt>
<rscale>  2 0.18898205E+03</rscale>
<asrwt>0</asrwt>
<pdfrwt beam="1">  1       21 0.24365304E-01 0.18898205E+03</pdfrwt>
<pdfrwt beam="2">  1       21 0.38567148E-01 0.18898205E+03</pdfrwt>
<totfact> 0.10327159E+05</totfact>
</mgrwt>
</event>
<event>
 4    1  0.4173994E+000  0.2746148E+03  0.7546771E-02  0.1098667E+00
         21   -1    0    0  503  502  0.00000000000E+00  0.00000000000E+00  0.85436740390E+03  0.85436740390E+03  0.00000000000E+00 0.  1.
         21   -1    0    0  501  503 -0.00000000000E+00 -0.00000000000E+00 -0.16591967742E+03  0.16591967742E+03  0.00000000000E+00 0. -1.
          6    1    1    2  501    0 -0.31987373861E+02  0.21085794600E+03  0.69321868663E+03  0.74563088253E+03  0.17300000000E+03 0.  1.
         -6    1    1    2    0  502  0.31987373861E+02 -0.21085794600E+03 -0.47709601595E+01  0.27465619880E+03  0.17300000000E+03 0. -1.
<mgrwt>
<rscale>  2 0.27461476E+03</rscale>
<asrwt>0</asrwt>
<pdfrwt beam="1">  1       21 0.13144114E+00 0.27461476E+03</pdfrwt>
<pdfrwt beam="2">  1       21 0.25526105E-01 0.27461476E+03</pdfrwt>
<totfact> 0.57847962E+03</totfact>
</mgrwt>
</event>
<event>
 4    1  0.4173994E+000  0.2339543E+03  0.7546771E-02  0.1123887E+00
         21   -1    0    0  501  502  0.00000000000E+00  0.00000000000E+00  0.12195085599E+04  0.12195085599E+04  0.00000000000E+00 0. -1.
         21   -1    0    0  502  503 -0.00000000000E+00 -0.00000000000E+00 -0.63464852496E+02  0.63464852496E+02  0.00000000000E+00 0.  1.
          6    1    1    2  501    0 -0.10231501855E+03 -0.11973827790E+03  0.92513505269E+03  0.95425860433E+03  0.17300000000E+03 0. -1.
         -6    1    1    2    0  503  0.10231501855E+03  0.11973827790E+03  0.23090865467E+03  0.32871480803E+03  0.17300000000E+03 0.  1.
<mgrwt>
<rscale>  2 0.23395431E+03</rscale>
<asrwt>0</asrwt>
<pdfrwt beam="1">  1       21 0.18761668E+00 0.23395431E+03</pdfrwt>
<pdfrwt beam="2">  1       21 0.97638243E-02 0.23395431E+03</pdfrwt>
<totfact> 0.13279778E+04</totfact>
</mgrwt>
</event>
<event>
 4    1  0.4173994E+000  0.1950028E+03  0.7546771E-02  0.1154025E+00
         21   -1    0    0  503  502  0.00000000000E+00  0.00000000000E+00  0.64190998948E+02  0.64190998948E+02  0.00000000000E+00 0.  1.
         21   -1    0    0  501  503 -0.00000000000E+00 -0.00000000000E+00 -0.59392019336E+03  0.59392019336E+03  0.00000000000E+00 0.  1.
          6    1    1    2  501    0  0.89841291542E+02 -0.50611531079E+01 -0.28156977796E+03  0.34250198948E+03  0.17300000000E+03 0. -1.
         -6    1    1    2    0  502 -0.89841291542E+02  0.50611531079E+01 -0.24815941645E+03  0.31560920283E+03  0.17300000000E+03 0. -1.
<mgrwt>
<rscale>  2 0.19500275E+03</rscale>
<asrwt>0</asrwt>
<pdfrwt beam="1">  1       21 0.98755380E-02 0.19500275E+03</pdfrwt>
<pdfrwt beam="2">  1       21 0.91372340E-01 0.19500275E+03</pdfrwt>
<totfact> 0.84066850E+04</totfact>
</mgrwt>
</event>
<event>
 4    1  0.4173994E+000  0.2367370E+03  0.7546771E-02  0.1121986E+00
         21   -1    0    0  503  502  0.00000000000E+00  0.00000000000E+00  0.18736143420E+03  0.18736143420E+03  0.00000000000E+00 0. -1.
         21   -1    0    0  501  503 -0.00000000000E+00 -0.00000000000E+00 -0.34132061855E+03  0.34132061855E+03  0.00000000000E+00 0.  1.
          6    1    1    2  501    0 -0.16018419701E+03 -0.21363723517E+02 -0.16992326437E+03  0.29140744917E+03  0.17300000000E+03 0.  1.
         -6    1    1    2    0  502  0.16018419701E+03  0.21363723517E+02  0.15964080030E+02  0.23727460358E+03  0.17300000000E+03 0. -1.
<mgrwt>
<rscale>  2 0.23673695E+03</rscale>
<asrwt>0</asrwt>
<pdfrwt beam="1">  1       21 0.28824836E-01 0.23673695E+03</pdfrwt>
<pdfrwt beam="2">  1       21 0.52510864E-01 0.23673695E+03</pdfrwt>
<totfact> 0.38767594E+04</totfact>
</mgrwt>
</event>
<event>
 4    1  0.4173994E+000  0.1731656E+03  0.7546771E-02  0.1174586E+00
         21   -1    0    0  501  502  0.00000000000E+00  0.00000000000E+00  0.86665724773E+02  0.86665724773E+02  0.00000000000E+00 0. -1.
         21   -1    0    0  502  503 -0.00000000000E+00 -0.00000000000E+00 -0.36046325458E+03  0.36046325458E+03  0.00000000000E+00 0. -1.
          6    1    1    2  501    0 -0.73299104699E+01 -0.18923749520E+01 -0.92116000456E+02  0.19614195423E+03  0.17300000000E+03 0.  1.
         -6    1    1    2    0  503  0.73299104699E+01  0.18923749520E+01 -0.18168152935E+03  0.25098702512E+03  0.17300000000E+03 0.  1.
<mgrwt>
<rscale>  2 0.17316555E+03</rscale>
<asrwt>0</asrwt>
<pdfrwt beam="1">  1       21 0.13333189E-01 0.17316555E+03</pdfrwt>
<pdfrwt beam="2">  1       21 0.55455885E-01 0.17316555E+03</pdfrwt>
<totfact> 0.14982466E+05</totfact>
</mgrwt>
</event>
<event>
 4    1  0.4173994E+000  0.1904323E+03  0.7546771E-02  0.1158072E+00
         21   -1    0    0  503  502  0.00000000000E+00  0.00000000000E+00  0.17012555518E+03  0.17012555518E+03  0.00000000000E+00 0.  1.
         21   -1    0    0  501  503 -0.00000000000E+00 -0.00000000000E+00 -0.29064554738E+03  0.29064554738E+03  0.00000000000E+00 0.  1.
          6    1    1    2  501    0  0.50925638433E+02  0.61172349315E+02  0.58692974830E+02  0.19927203081E+03  0.17300000000E+03 0.  1.
         -6    1    1    2    0  502 -0.50925638433E+02 -0.61172349315E+02 -0.17921296703E+03  0.26149907174E+03  0.17300000000E+03 0.  1.
<mgrwt>
<rscale>  2 0.19043234E+03</rscale>
<asrwt>0</asrwt>
<pdfrwt beam="1">  1       21 0.26173163E-01 0.19043234E+03</pdfrwt>
<pdfrwt beam="2">  1       21 0.44714699E-01 0.19043234E+03</pdfrwt>
<totfact> 0.66674349E+04</totfact>
</mgrwt>
</event>
<event>
 4    1  0.4173994E+000  0.2482021E+03  0.7546771E-02  0.1114446E+00
         21   -1    0    0  503  502  0.00000000000E+00  0.00000000000E+00  0.15149176419E+03  0.15149176419E+03  0.00000000000E+00 0.  1.
         21   -1    0    0  501  503 -0.00000000000E+00 -0.00000000000E+00 -0.48965715924E+03  0.48965715924E+03  0.00000000000E+00 0.  1.
          6    1    1    2  501    0 -0.66442966730E+02 -0.16510781355E+03 -0.30107188742E+03  0.39019038855E+03  0.17300000000E+03 0.  1.
         -6    1    1    2    0  502  0.66442966730E+02  0.16510781355E+03 -0.37093507632E+02  0.25095853488E+03  0.17300000000E+03 0.  1.
<mgrwt>
<rscale>  2 0.24820205E+03</rscale>
<asrwt>0</asrwt>
<pdfrwt beam="1">  1       21 0.23306425E-01 0.24820205E+03</pdfrwt>
<pdfrwt beam="2">  1       21 0.75331871E-01 0.24820205E+03</pdfrwt>
<totfact> 0.26470123E+04</totfact>
</mgrwt>
</event>
<event>
 4    1  0.4173994E+000  0.1981398E+03  0.7546771E-02  0.1151318E+00
         21   -1    0    0  503  502  0.00000000000E+00  0.00000000000E+00  0.15094149776E+03  0.15094149776E+03  0.00000000000E+00 0.  1.
         21   -1    0    0  501  503 -0.00000000000E+00 -0.00000000000E+00 -0.27825917697E+03  0.27825917697E+03  0.00000000000E+00 0.  1.
          6    1    1    2  501    0  0.51879384012E+02 -0.81479561895E+02 -0.11848563613E+03  0.23086410605E+03  0.17300000000E+03 0.  1.
         -6    1    1    2    0  502 -0.51879384012E+02  0.81479561895E+02 -0.88320430818E+01  0.19833656868E+03  0.17300000000E+03 0.  1.
<mgrwt>
<rscale>  2 0.19813982E+03</rscale>
<asrwt>0</asrwt>
<pdfrwt beam="1">  1       21 0.23221769E-01 0.19813982E+03</pdfrwt>
<pdfrwt beam="2">  1       21 0.42809104E-01 0.19813982E+03</pdfrwt>
<totfact> 0.91264118E+04</totfact>
</mgrwt>
</event>
<event>
 4    1  0.4173994E+000  0.3346095E+03  0.7546771E-02  0.1069115E+00
         21   -1    0    0  501  502  0.00000000000E+00  0.00000000000E+00  0.37455738660E+03  0.37455738660E+03  0.00000000000E+00 0.  1.
         21   -1    0    0  502  503 -0.00000000000E+00 -0.00000000000E+00 -0.30007213832E+03  0.30007213832E+03  0.00000000000E+00 0. -1.
          6    1    1    2  501    0 -0.28407569059E+03  0.36544531098E+02  0.58124451487E+02  0.33962030652E+03  0.17300000000E+03 0.  1.
         -6    1    1    2    0  503  0.28407569059E+03 -0.36544531098E+02  0.16360796793E+02  0.33500921840E+03  0.17300000000E+03 0. -1.
<mgrwt>
<rscale>  2 0.33460947E+03</rscale>
<asrwt>0</asrwt>
<pdfrwt beam="1">  1       21 0.57624213E-01 0.33460947E+03</pdfrwt>
<pdfrwt beam="2">  1       21 0.46164944E-01 0.33460947E+03</pdfrwt>
<totfact> 0.11811074E+04</totfact>
</mgrwt>
</event>
<event>
 4    1  0.4173994E+000  0.1999786E+03  0.7546771E-02  0.1149757E+00
         21   -1    0    0  503  502  0.00000000000E+00  0.00000000000E+00  0.35083609858E+03  0.35083609858E+03  0.00000000000E+00 0. -1.
         21   -1    0    0  501  503 -0.00000000000E+00 -0.00000000000E+00 -0.12949914544E+03  0.12949914544E+03  0.00000000000E+00 0. -1.
          6    1    1    2  501    0  0.77264632205E+02 -0.63973550643E+02  0.27551518778E+02  0.20186759215E+03  0.17300000000E+03 0. -1.
         -6    1    1    2    0  502 -0.77264632205E+02  0.63973550643E+02  0.19378543436E+03  0.27846765188E+03  0.17300000000E+03 0. -1.
<mgrwt>
<rscale>  2 0.19997860E+03</rscale>
<asrwt>0</asrwt>
<pdfrwt beam="1">  1       21 0.53974784E-01 0.19997860E+03</pdfrwt>
<pdfrwt beam="2">  1       21 0.19922946E-01 0.19997860E+03</pdfrwt>
<totfact> 0.75218830E+04</totfact>
</mgrwt>
</event>
<event>
 4    1  0.4173994E+000  0.1964128E+03  0.7546771E-02  0.1152801E+00
         21   -1    0    0  503  502  0.00000000000E+00  0.00000000000E+00  0.55696597038E+03  0.55696597038E+03  0.00000000000E+00 0. -1.
         21   -1    0    0  501  503 -0.00000000000E+00 -0.00000000000E+00 -0.21656771443E+03  0.21656771443E+03  0.00000000000E+00 0. -1.
          6    1    1    2  501    0 -0.72773059376E+02  0.57905593730E+02 -0.14877721389E+03  0.24639934117E+03  0.17300000000E+03 0. -1.
         -6    1    1    2    0  502  0.72773059376E+02 -0.57905593730E+02  0.48917546984E+03  0.52713434364E+03  0.17300000000E+03 0. -1.
<mgrwt>
<rscale>  2 0.19641277E+03</rscale>
<asrwt>0</asrwt>
<pdfrwt beam="1">  1       21 0.85687072E-01 0.19641277E+03</pdfrwt>
<pdfrwt beam="2">  1       21 0.33318110E-01 0.19641277E+03</pdfrwt>
<totfact> 0.10178420E+04</totfact>
</mgrwt>
</event>
<event>
 4    1  0.4173994E+000  0.1969117E+03  0.7546771E-02  0.1152371E+00
         21   -1    0    0  501  502  0.00000000000E+00  0.00000000000E+00  0.29881630214E+03  0.29881630214E+03  0.00000000000E+00 0. -1.
         21   -1    0    0  502  503 -0.00000000000E+00 -0.00000000000E+00 -0.12999070648E+03  0.12999070648E+03  0.00000000000E+00 0. -1.
          6    1    1    2  501    0  0.43375996542E+02  0.83449142560E+02  0.93456175914E+02  0.21796397245E+03  0.17300000000E+03 0. -1.
         -6    1    1    2    0  503 -0.43375996542E+02 -0.83449142560E+02  0.75369419740E+02  0.21084303617E+03  0.17300000000E+03 0. -1.
<mgrwt>
<rscale>  2 0.19691175E+03</rscale>
<asrwt>0</asrwt>
<pdfrwt beam="1">  1       21 0.45971739E-01 0.19691175E+03</pdfrwt>
<pdfrwt beam="2">  1       21 0.19998570E-01 0.19691175E+03</pdfrwt>
<totfact> 0.10451927E+05</totfact>
</mgrwt>
</event>
<event>
 4    1  0.4173994E+000  0.2193520E+03  0.7546771E-02  0.1134367E+00
         21   -1    0    0  501  502  0.00000000000E+00  0.00000000000E+00  0.78803747698E+03  0.78803747698E+03  0.00000000000E+00 0.  1.
         21   -1    0    0  502  503 -0.00000000000E+00 -0.00000000000E+00 -0.17798572137E+03  0.17798572137E+03  0.00000000000E+00 0.  1.
          6    1    1    2  501    0  0.63992304078E+01  0.13470463283E+03  0.69652012158E+03  0.73024349913E+03  0.17300000000E+03 0.  1.
         -6    1    1    2    0  503 -0.63992304078E+01 -0.13470463283E+03 -0.86468365965E+02  0.23577969923E+03  0.17300000000E+03 0.  1.
<mgrwt>
<rscale>  2 0.21935197E+03</rscale>
<asrwt>0</asrwt>
<pdfrwt beam="1">  1       21 0.12123653E+00 0.21935197E+03</pdfrwt>
<pdfrwt beam="2">  1       21 0.27382419E-01 0.21935197E+03</pdfrwt>
<totfact> 0.64184328E+03</totfact>
</mgrwt>
</event>
<event>
 4    1  0.4173994E+000  0.1981212E+03  0.7546771E-02  0.1151334E+00
         21   -1    0    0  501  502  0.00000000000E+00  0.00000000000E+00  0.10948095622E+03  0.10948095622E+03  0.00000000000E+00 0.  1.
         21   -1    0    0  502  503 -0.00000000000E+00 -0.00000000000E+00 -0.57494707604E+03  0.57494707604E+03  0.00000000000E+00 0.  1.
          6    1    1    2  501    0 -0.57264876296E+02  0.77741542361E+02 -0.22775558124E+02  0.19942602517E+03  0.17300000000E+03 0.  1.
         -6    1    1    2    0  503  0.57264876296E+02 -0.77741542361E+02 -0.44269056170E+03  0.48500200709E+03  0.17300000000E+03 0.  1.
<mgrwt>
<rscale>  2 0.19812121E+03</rscale>
<asrwt>0</asrwt>
<pdfrwt beam="1">  1       21 0.16843224E-01 0.19812121E+03</pdfrwt>
<pdfrwt beam="2">  1       21 0.88453395E-01 0.19812121E+03</pdfrwt>
<totfact> 0.34596680E+04</totfact>
</mgrwt>
</event>
<event>
 4    1  0.4173994E+000  0.2177938E+03  0.7546771E-02  0.1135539E+00
         21   -1    0    0  501  502  0.00000000000E+00  0.00000000000E+00  0.14886618194E+03  0.14886618194E+03  0.00000000000E+00 0. -1.
         21   -1    0    0  502  503 -0.00000000000E+00 -0.00000000000E+00 -0.44718069792E+03  0.44718069792E+03  0.00000000000E+00 0.  1.
          6    1    1    2  501    0 -0.33143004482E+01 -0.13226550627E+03  0.10627632872E+02  0.21805296448E+03  0.17300000000E+03 0. -1.
         -6    1    1    2    0  503  0.33143004482E+01  0.13226550627E+03 -0.30894214885E+03  0.37799391539E+03  0.17300000000E+03 0.  1.
<mgrwt>
<rscale>  2 0.21779382E+03</rscale>
<asrwt>0</asrwt>
<pdfrwt beam="1">  1       21 0.22902490E-01 0.21779382E+03</pdfrwt>
<pdfrwt beam="2">  1       21 0.68797029E-01 0.21779382E+03</pdfrwt>
<totfact> 0.33988130E+04</totfact>
</mgrwt>
</event>
<event>
 4    1  0.4173994E+000  0.1855603E+03  0.7546771E-02  0.1162528E+00
         21   -1    0    0  501  502  0.00000000000E+00  0.00000000000E+00  0.10896174406E+04  0.10896174406E+04  0.00000000000E+00 0.  1.
         21   -1    0    0  502  503 -0.00000000000E+00 -0.00000000000E+00 -0.33589289728E+02  0.33589289728E+02  0.00000000000E+00 0.  1.
          6    1    1    2  501    0 -0.58231850850E+02 -0.33356769422E+02  0.39136489486E+03  0.43312712158E+03  0.17300000000E+03 0.  1.
         -6    1    1    2    0  503  0.58231850850E+02  0.33356769422E+02  0.66466325606E+03  0.69007960880E+03  0.17300000000E+03 0.  1.
<mgrwt>
<rscale>  2 0.18556029E+03</rscale>
<asrwt>0</asrwt>
<pdfrwt beam="1">  1       21 0.16763342E+00 0.18556029E+03</pdfrwt>
<pdfrwt beam="2">  1       21 0.51675839E-02 0.18556029E+03</pdfrwt>
<totfact> 0.56633472E+04</totfact>
</mgrwt>
</event>
<event>
 4    1  0.4173994E+000  0.3631182E+03  0.7546771E-02  0.1057356E+00
         21   -1    0    0  503  502  0.00000000000E+00  0.00000000000E+00  0.49078615334E+03  0.49078615334E+03  0.00000000000E+00 0.  1.
         21   -1    0    0  501  503 -0.00000000000E+00 -0.00000000000E+00 -0.40037707886E+03  0.40037707886E+03  0.00000000000E+00 0. -1.
          6    1    1    2  501    0  0.71815275970E+02 -0.31107620049E+03 -0.21036726707E+03  0.41965369464E+03  0.17300000000E+03 0. -1.
         -6    1    1    2    0  502 -0.71815275970E+02  0.31107620049E+03  0.30077634155E+03  0.47150953756E+03  0.17300000000E+03 0.  1.
<mgrwt>
<rscale>  2 0.36311821E+03</rscale>
<asrwt>0</asrwt>
<pdfrwt beam="1">  1       21 0.75505562E-01 0.36311821E+03</pdfrwt>
<pdfrwt beam="2">  1       21 0.61596474E-01 0.36311821E+03</pdfrwt>
<totfact> 0.34628208E+03</totfact>
</mgrwt>
</event>
<event>
 4    1  0.4173994E+000  0.2038178E+03  0.7546771E-02  0.1146557E+00
         21   -1    0    0  503  502  0.00000000000E+00  0.00000000000E+00  0.45032035015E+02  0.45032035015E+02  0.00000000000E+00 0. -1.
         21   -1    0    0  501  503 -0.00000000000E+00 -0.00000000000E+00 -0.14989271146E+04  0.14989271146E+04  0.00000000000E+00 0. -1.
          6    1    1    2  501    0 -0.96426075454E+02  0.48111494929E+02 -0.12056775650E+04  0.12227837481E+04  0.17300000000E+03 0. -1.
         -6    1    1    2    0  502  0.96426075454E+02 -0.48111494929E+02 -0.24821751463E+03  0.32117540152E+03  0.17300000000E+03 0. -1.
<mgrwt>
<rscale>  2 0.20381782E+03</rscale>
<asrwt>0</asrwt>
<pdfrwt beam="1">  1       21 0.69280066E-02 0.20381782E+03</pdfrwt>
<pdfrwt beam="2">  1       21 0.23060413E+00 0.20381782E+03</pdfrwt>
<totfact> 0.13226214E+04</totfact>
</mgrwt>
</event>
<event>
 4    1  0.4173994E+000  0.2513417E+03  0.7546771E-02  0.1112460E+00
         21   -1    0    0  503  502  0.00000000000E+00  0.00000000000E+00  0.62560710260E+03  0.62560710260E+03  0.00000000000E+00 0.  1.
         21   -1    0    0  501  503 -0.00000000000E+00 -0.00000000000E+00 -0.12024077387E+03  0.12024077387E+03  0.00000000000E+00 0.  1.
          6    1    1    2  501    0  0.16749254188E+03  0.72041039756E+02  0.10342027993E+03  0.27178744875E+03  0.17300000000E+03 0.  1.
         -6    1    1    2    0  502 -0.16749254188E+03 -0.72041039756E+02  0.40194604880E+03  0.47406042773E+03  0.17300000000E+03 0.  1.
<mgrwt>
<rscale>  2 0.25134173E+03</rscale>
<asrwt>0</asrwt>
<pdfrwt beam="1">  1       21 0.96247244E-01 0.25134173E+03</pdfrwt>
<pdfrwt beam="2">  1       21 0.18498581E-01 0.25134173E+03</pdfrwt>
<totfact> 0.23227185E+04</totfact>
</mgrwt>
</event>
<event>
 4    1  0.4173994E+000  0.2756113E+03  0.7546771E-02  0.1098110E+00
         21   -1    0    0  501  502  0.00000000000E+00  0.00000000000E+00  0.10661211868E+03  0.10661211868E+03  0.00000000000E+00 0. -1.
         21   -1    0    0  502  503 -0.00000000000E+00 -0.00000000000E+00 -0.71305995684E+03  0.71305995684E+03  0.00000000000E+00 0. -1.
          6    1    1    2  501    0  0.19680816579E+03  0.85434941093E+02 -0.29178233811E+03  0.40137079629E+03  0.17300000000E+03 0. -1.
         -6    1    1    2    0  503 -0.19680816579E+03 -0.85434941093E+02 -0.31466550006E+03  0.41830127923E+03  0.17300000000E+03 0. -1.
<mgrwt>
<rscale>  2 0.27561129E+03</rscale>
<asrwt>0</asrwt>
<pdfrwt beam="1">  1       21 0.16401864E-01 0.27561129E+03</pdfrwt>
<pdfrwt beam="2">  1       21 0.10970153E+00 0.27561129E+03</pdfrwt>
<totfact> 0.20949404E+04</totfact>
</mgrwt>
</event>
<event>
 4    1  0.4173994E+000  0.1899834E+03  0.7546771E-02  0.1158476E+00
         21   -1    0    0  503  502  0.00000000000E+00  0.00000000000E+00  0.11559148634E+04  0.11559148634E+04  0.00000000000E+00 0.  1.
         21   -1    0    0  501  503 -0.00000000000E+00 -0.00000000000E+00 -0.11795668723E+03  0.11795668723E+03  0.00000000000E+00 0.  1.
          6    1    1    2  501    0  0.73713171895E+02 -0.27038211041E+02 -0.27184451836E+02  0.19191844880E+03  0.17300000000E+03 0.  1.
         -6    1    1    2    0  502 -0.73713171895E+02  0.27038211041E+02  0.10651426280E+04  0.10819531018E+04  0.17300000000E+03 0.  1.
<mgrwt>
<rscale>  2 0.18998341E+03</rscale>
<asrwt>0</asrwt>
<pdfrwt beam="1">  1       21 0.17783305E+00 0.18998341E+03</pdfrwt>
<pdfrwt beam="2">  1       21 0.18147183E-01 0.18998341E+03</pdfrwt>
<totfact> 0.52191586E+03</totfact>
</mgrwt>
</event>
<event>
 4    1  0.4173994E+000  0.1945883E+03  0.7546771E-02  0.1154387E+00
         21   -1    0    0  503  502  0.00000000000E+00  0.00000000000E+00  0.53197963354E+02  0.53197963354E+02  0.00000000000E+00 0.  1.
         21   -1    0    0  501  503 -0.00000000000E+00 -0.00000000000E+00 -0.85189695537E+03  0.85189695537E+03  0.00000000000E+00 0.  1.
          6    1    1    2  501    0 -0.56592704832E+02  0.68795828146E+02 -0.58289120306E+03  0.61451342932E+03  0.17300000000E+03 0. -1.
         -6    1    1    2    0  502  0.56592704832E+02 -0.68795828146E+02 -0.21580778896E+03  0.29058148941E+03  0.17300000000E+03 0. -1.
<mgrwt>
<rscale>  2 0.19458828E+03</rscale>
<asrwt>0</asrwt>
<pdfrwt beam="1">  1       21 0.81843027E-02 0.19458828E+03</pdfrwt>
<pdfrwt beam="2">  1       21 0.13106106E+00 0.19458828E+03</pdfrwt>
<totfact> 0.48790613E+04</totfact>
</mgrwt>
</event>
<event>
 4    1  0.4173994E+000  0.1884474E+03  0.7546771E-02  0.1159869E+00
         21   -1    0    0  501  502  0.00000000000E+00  0.00000000000E+00  0.43152282375E+02  0.43152282375E+02  0.00000000000E+00 0.  1.
         21   -1    0    0  502  503 -0.00000000000E+00 -0.00000000000E+00 -0.84314439821E+03  0.84314439821E+03  0.00000000000E+00 0.  1.
          6    1    1    2  501    0 -0.65174106882E+02  0.36547952536E+02 -0.33142320277E+03  0.38125287721E+03  0.17300000000E+03 0.  1.
         -6    1    1    2    0  503  0.65174106882E+02 -0.36547952536E+02 -0.46856891307E+03  0.50504380338E+03  0.17300000000E+03 0.  1.
<mgrwt>
<rscale>  2 0.18844739E+03</rscale>
<asrwt>0</asrwt>
<pdfrwt beam="1">  1       21 0.66388133E-02 0.18844739E+03</pdfrwt>
<pdfrwt beam="2">  1       21 0.12971451E+00 0.18844739E+03</pdfrwt>
<totfact> 0.72185517E+04</totfact>
</mgrwt>
</event>
<event>
 4    1  0.4173994E+000  0.1827983E+03  0.7546771E-02  0.1165122E+00
         21   -1    0    0  503  502  0.00000000000E+00  0.00000000000E+00  0.24015501301E+02  0.24015501301E+02  0.00000000000E+00 0. -1.
         21   -1    0    0  501  503 -0.00000000000E+00 -0.00000000000E+00 -0.13929853143E+04  0.13929853143E+04  0.00000000000E+00 0. -1.
          6    1    1    2  501    0 -0.25493348559E+02  0.53256982675E+02 -0.70837113786E+03  0.73157698568E+03  0.17300000000E+03 0. -1.
         -6    1    1    2    0  502  0.25493348559E+02 -0.53256982675E+02 -0.66059867509E+03  0.68542382987E+03  0.17300000000E+03 0. -1.
<mgrwt>
<rscale>  2 0.18279830E+03</rscale>
<asrwt>0</asrwt>
<pdfrwt beam="1">  1       21 0.36946925E-02 0.18279830E+03</pdfrwt>
<pdfrwt beam="2">  1       21 0.21430543E+00 0.18279830E+03</pdfrwt>
<totfact> 0.49150588E+04</totfact>
</mgrwt>
</event>
<event>
 4    1  0.4173994E+000  0.1998196E+03  0.7546771E-02  0.1149891E+00
         21   -1    0    0  503  502  0.00000000000E+00  0.00000000000E+00  0.43058531584E+03  0.43058531584E+03  0.00000000000E+00 0.  1.
         21   -1    0    0  501  503 -0.00000000000E+00 -0.00000000000E+00 -0.30773802045E+03  0.30773802045E+03  0.00000000000E+00 0.  1.
          6    1    1    2  501    0  0.77279639630E+02 -0.63456383237E+02 -0.24714663991E+03  0.31781962950E+03  0.17300000000E+03 0.  1.
         -6    1    1    2    0  502 -0.77279639630E+02  0.63456383237E+02  0.36999393530E+03  0.42050370680E+03  0.17300000000E+03 0.  1.
<mgrwt>
<rscale>  2 0.19981956E+03</rscale>
<asrwt>0</asrwt>
<pdfrwt beam="1">  1       21 0.66243895E-01 0.19981956E+03</pdfrwt>
<pdfrwt beam="2">  1       21 0.47344311E-01 0.19981956E+03</pdfrwt>
<totfact> 0.88798901E+03</totfact>
</mgrwt>
</event>
<event>
 4    1  0.4173994E+000  0.2443538E+03  0.7546771E-02  0.1116926E+00
         21   -1    0    0  503  502  0.00000000000E+00  0.00000000000E+00  0.38328824688E+02  0.38328824688E+02  0.00000000000E+00 0.  1.
         21   -1    0    0  501  503 -0.00000000000E+00 -0.00000000000E+00 -0.20437524564E+04  0.20437524564E+04  0.00000000000E+00 0.  1.
          6    1    1    2  501    0  0.14072472729E+03  0.99881612266E+02 -0.15103435580E+04  0.15299824994E+04  0.17300000000E+03 0.  1.
         -6    1    1    2    0  502 -0.14072472729E+03 -0.99881612266E+02 -0.49508007379E+03  0.55209878174E+03  0.17300000000E+03 0.  1.
<mgrwt>
<rscale>  2 0.24435381E+03</rscale>
<asrwt>0</asrwt>
<pdfrwt beam="1">  1       21 0.58967424E-02 0.24435381E+03</pdfrwt>
<pdfrwt beam="2">  1       21 0.31442345E+00 0.24435381E+03</pdfrwt>
<totfact> 0.54211798E+03</totfact>
</mgrwt>
</event>
<event>
 4    1  0.4173994E+000  0.1828124E+03  0.7546771E-02  0.1165109E+00
         21   -1    0    0  501  502  0.00000000000E+00  0.00000000000E+00  0.52605420073E+03  0.52605420073E+03  0.00000000000E+00 0. -1.
         21   -1    0    0  502  503 -0.00000000000E+00 -0.00000000000E+00 -0.64351781552E+02  0.64351781552E+02  0.00000000000E+00 0. -1.
          6    1    1    2  501    0 -0.29597012802E+02 -0.51140725709E+02  0.26420548663E+03  0.32128631492E+03  0.17300000000E+03 0. -1.
         -6    1    1    2    0  503  0.29597012802E+02  0.51140725709E+02  0.19749693255E+03  0.26911966736E+03  0.17300000000E+03 0. -1.
<mgrwt>
<rscale>  2 0.18281235E+03</rscale>
<asrwt>0</asrwt>
<pdfrwt beam="1">  1       21 0.80931412E-01 0.18281235E+03</pdfrwt>
<pdfrwt beam="2">  1       21 0.99002745E-02 0.18281235E+03</pdfrwt>
<totfact> 0.11107417E+05</totfact>
</mgrwt>
</event>
<event>
 4    1  0.4173994E+000  0.2184123E+03  0.7546771E-02  0.1135072E+00
         21   -1    0    0  501  502  0.00000000000E+00  0.00000000000E+00  0.66496707157E+02  0.66496707157E+02  0.00000000000E+00 0. -1.
         21   -1    0    0  502  503 -0.00000000000E+00 -0.00000000000E+00 -0.91036500859E+03  0.91036500859E+03  0.00000000000E+00 0. -1.
          6    1    1    2  501    0 -0.75094771039E+02 -0.11016226595E+03 -0.19705565059E+03  0.29416811334E+03  0.17300000000E+03 0. -1.
         -6    1    1    2    0  503  0.75094771039E+02  0.11016226595E+03 -0.64681265084E+03  0.68269360241E+03  0.17300000000E+03 0. -1.
<mgrwt>
<rscale>  2 0.21841234E+03</rscale>
<asrwt>0</asrwt>
<pdfrwt beam="1">  1       21 0.10230264E-01 0.21841234E+03</pdfrwt>
<pdfrwt beam="2">  1       21 0.14005614E+00 0.21841234E+03</pdfrwt>
<totfact> 0.27429602E+04</totfact>
</mgrwt>
</event>
<event>
 4    1  0.4173994E+000  0.1736983E+03  0.7546771E-02  0.1174045E+00
         21   -1    0    0  501  502  0.00000000000E+00  0.00000000000E+00  0.53818055845E+03  0.53818055845E+03  0.00000000000E+00 0. -1.
         21   -1    0    0  502  503 -0.00000000000E+00 -0.00000000000E+00 -0.65218508271E+02  0.65218508271E+02  0.00000000000E+00 0. -1.
          6    1    1    2  501    0 -0.30772368014E+01 -0.15251761978E+02  0.34953125861E+03  0.39031165288E+03  0.17300000000E+03 0. -1.
         -6    1    1    2    0  503  0.30772368014E+01  0.15251761978E+02  0.12343079157E+03  0.21308741384E+03  0.17300000000E+03 0. -1.
<mgrwt>
<rscale>  2 0.17369826E+03</rscale>
<asrwt>0</asrwt>
<pdfrwt beam="1">  1       21 0.82797006E-01 0.17369826E+03</pdfrwt>
<pdfrwt beam="2">  1       21 0.10033617E-01 0.17369826E+03</pdfrwt>
<totfact> 0.10340061E+05</totfact>
</mgrwt>
</event>
<event>
 4    1  0.4173994E+000  0.2126055E+03  0.7546771E-02  0.1139519E+00
         21   -1    0    0  501  502  0.00000000000E+00  0.00000000000E+00  0.21734078470E+03  0.21734078470E+03  0.00000000000E+00 0. -1.
         21   -1    0    0  502  503 -0.00000000000E+00 -0.00000000000E+00 -0.22498957588E+03  0.22498957588E+03  0.00000000000E+00 0. -1.
          6    1    1    2  501    0  0.72309484487E+02 -0.10021699578E+03  0.56998374470E+02  0.22011343094E+03  0.17300000000E+03 0. -1.
         -6    1    1    2    0  503 -0.72309484487E+02  0.10021699578E+03 -0.64647165656E+02  0.22221692963E+03  0.17300000000E+03 0. -1.
<mgrwt>
<rscale>  2 0.21260552E+03</rscale>
<asrwt>0</asrwt>
<pdfrwt beam="1">  1       21 0.33437044E-01 0.21260552E+03</pdfrwt>
<pdfrwt beam="2">  1       21 0.34613781E-01 0.21260552E+03</pdfrwt>
<totfact> 0.68687960E+04</totfact>
</mgrwt>
</event>
<event>
 4    1  0.4173994E+000  0.2261390E+03  0.7546771E-02  0.1129387E+00
         21   -1    0    0  501  502  0.00000000000E+00  0.00000000000E+00  0.65973617876E+03  0.65973617876E+03  0.00000000000E+00 0. -1.
         21   -1    0    0  502  503 -0.00000000000E+00 -0.00000000000E+00 -0.16282445292E+03  0.16282445292E+03  0.00000000000E+00 0. -1.
          6    1    1    2  501    0  0.13779079160E+03  0.47154382647E+02  0.54615601028E+03  0.59112200569E+03  0.17300000000E+03 0. -1.
         -6    1    1    2    0  503 -0.13779079160E+03 -0.47154382647E+02 -0.49244284434E+02  0.23143862599E+03  0.17300000000E+03 0. -1.
<mgrwt>
<rscale>  2 0.22613898E+03</rscale>
<asrwt>0</asrwt>
<pdfrwt beam="1">  1       21 0.10149787E+00 0.22613898E+03</pdfrwt>
<pdfrwt beam="2">  1       21 0.25049916E-01 0.22613898E+03</pdfrwt>
<totfact> 0.11696655E+04</totfact>
</mgrwt>
</event>
<event>
 4    1  0.4173994E+000  0.2552670E+03  0.7546771E-02  0.1110021E+00
         21   -1    0    0  501  502  0.00000000000E+00  0.00000000000E+00  0.48236049514E+03  0.48236049514E+03  0.00000000000E+00 0.  1.
         21   -1    0    0  502  503 -0.00000000000E+00 -0.00000000000E+00 -0.58904266135E+03  0.58904266135E+03  0.00000000000E+00 0. -1.
          6    1    1    2  501    0  0.10301910104E+02 -0.18741956335E+03  0.41693802338E+03  0.48887476660E+03  0.17300000000E+03 0.  1.
         -6    1    1    2    0  503 -0.10301910104E+02  0.18741956335E+03 -0.52362018960E+03  0.58252838989E+03  0.17300000000E+03 0. -1.
<mgrwt>
<rscale>  2 0.25526696E+03</rscale>
<asrwt>0</asrwt>
<pdfrwt beam="1">  1       21 0.74209307E-01 0.25526696E+03</pdfrwt>
<pdfrwt beam="2">  1       21 0.90621947E-01 0.25526696E+03</pdfrwt>
<totfact> 0.15980869E+03</totfact>
</mgrwt>
</event>
<event>
 4    1  0.4173994E+000  0.2094037E+03  0.7546771E-02  0.1142039E+00
         21   -1    0    0  501  502  0.00000000000E+00  0.00000000000E+00  0.81918681743E+02  0.81918681743E+02  0.00000000000E+00 0.  1.
         21   -1    0    0  502  503 -0.00000000000E+00 -0.00000000000E+00 -0.64236138038E+03  0.64236138038E+03  0.00000000000E+00 0. -1.
          6    1    1    2  501    0 -0.10269632017E+03  0.58089247534E+02 -0.13236759910E+03  0.24773186341E+03  0.17300000000E+03 0.  1.
         -6    1    1    2    0  503  0.10269632017E+03 -0.58089247534E+02 -0.42807509954E+03  0.47654819872E+03  0.17300000000E+03 0. -1.
<mgrwt>
<rscale>  2 0.20940366E+03</rscale>
<asrwt>0</asrwt>
<pdfrwt beam="1">  1       21 0.12602874E-01 0.20940366E+03</pdfrwt>
<pdfrwt beam="2">  1       21 0.98824825E-01 0.20940366E+03</pdfrwt>
<totfact> 0.44981773E+04</totfact>
</mgrwt>
</event>
<event>
 4    1  0.4173994E+000  0.1800137E+03  0.7546771E-02  0.1167790E+00
         21   -1    0    0  501  502  0.00000000000E+00  0.00000000000E+00  0.23081996402E+03  0.23081996402E+03  0.00000000000E+00 0. -1.
         21   -1    0    0  502  503 -0.00000000000E+00 -0.00000000000E+00 -0.24653258645E+03  0.24653258645E+03  0.00000000000E+00 0. -1.
          6    1    1    2  501    0  0.18085954549E+02 -0.46355623991E+02  0.14875234341E+03  0.23352131658E+03  0.17300000000E+03 0. -1.
         -6    1    1    2    0  503 -0.18085954549E+02  0.46355623991E+02 -0.16446496584E+03  0.24383123388E+03  0.17300000000E+03 0. -1.
<mgrwt>
<rscale>  2 0.18001374E+03</rscale>
<asrwt>0</asrwt>
<pdfrwt beam="1">  1       21 0.35510764E-01 0.18001374E+03</pdfrwt>
<pdfrwt beam="2">  1       21 0.37928090E-01 0.18001374E+03</pdfrwt>
<totfact> 0.51562087E+04</totfact>
</mgrwt>
</event>
<event>
 4    1  0.4173994E+000  0.2047585E+03  0.7546771E-02  0.1145785E+00
         21   -1    0    0  503  502  0.00000000000E+00  0.00000000000E+00  0.42880773350E+02  0.42880773350E+02  0.00000000000E+00 0. -1.
         21   -1    0    0  501  503 -0.00000000000E+00 -0.00000000000E+00 -0.98421387188E+03  0.98421387188E+03  0.00000000000E+00 0. -1.
          6    1    1    2  501    0 -0.16997888721E+02  0.10820400859E+03 -0.51233268881E+03  0.55173437424E+03  0.17300000000E+03 0. -1.
         -6    1    1    2    0  502  0.16997888721E+02 -0.10820400859E+03 -0.42900040972E+03  0.47536027099E+03  0.17300000000E+03 0. -1.
<mgrwt>
<rscale>  2 0.20475848E+03</rscale>
<asrwt>0</asrwt>
<pdfrwt beam="1">  1       21 0.65970421E-02 0.20475848E+03</pdfrwt>
<pdfrwt beam="2">  1       21 0.15141752E+00 0.20475848E+03</pdfrwt>
<totfact> 0.48516618E+04</totfact>
</mgrwt>
</event>
<event>
 4    1  0.4173994E+000  0.2337216E+03  0.7546771E-02  0.1124047E+00
         21   -1    0    0  501  502  0.00000000000E+00  0.00000000000E+00  0.54099210140E+02  0.54099210140E+02  0.00000000000E+00 0.  1.
         21   -1    0    0  502  503 -0.00000000000E+00 -0.00000000000E+00 -0.10134906154E+04  0.10134906154E+04  0.00000000000E+00 0.  1.
          6    1    1    2  501    0  0.32644295144E+02  0.15372421139E+03 -0.44719493828E+03  0.50458804583E+03  0.17300000000E+03 0.  1.
         -6    1    1    2    0  503 -0.32644295144E+02 -0.15372421139E+03 -0.51219646702E+03  0.56300177974E+03  0.17300000000E+03 0.  1.
<mgrwt>
<rscale>  2 0.23372159E+03</rscale>
<asrwt>0</asrwt>
<pdfrwt beam="1">  1       21 0.83229553E-02 0.23372159E+03</pdfrwt>
<pdfrwt beam="2">  1       21 0.15592163E+00 0.23372159E+03</pdfrwt>
<totfact> 0.29477807E+04</totfact>
</mgrwt>
</event>
<event>
 4    1  0.4173994E+000  0.2023136E+03  0.7546771E-02  0.1147802E+00
         21   -1    0    0  501  502  0.00000000000E+00  0.00000000000E+00  0.19439375725E+03  0.19439375725E+03  0.00000000000E+00 0. -1.
         21   -1    0    0  502  503 -0.00000000000E+00 -0.00000000000E+00 -0.23219345192E+03  0.23219345192E+03  0.00000000000E+00 0. -1.
          6    1    1    2  501    0  0.10308721722E+03  0.19360408252E+02  0.46211168618E+02  0.20752414767E+03  0.17300000000E+03 0. -1.
         -6    1    1    2    0  503 -0.10308721722E+03 -0.19360408252E+02 -0.84010863286E+02  0.21906306150E+03  0.17300000000E+03 0. -1.
<mgrwt>
<rscale>  2 0.20231362E+03</rscale>
<asrwt>0</asrwt>
<pdfrwt beam="1">  1       21 0.29906732E-01 0.20231362E+03</pdfrwt>
<pdfrwt beam="2">  1       21 0.35722069E-01 0.20231362E+03</pdfrwt>
<totfact> 0.80677752E+04</totfact>
</mgrwt>
</event>
<event>
 4    1  0.4173994E+000  0.2587525E+03  0.7546771E-02  0.1107895E+00
         21   -1    0    0  503  502  0.00000000000E+00  0.00000000000E+00  0.75720947387E+03  0.75720947387E+03  0.00000000000E+00 0. -1.
         21   -1    0    0  501  503 -0.00000000000E+00 -0.00000000000E+00 -0.21803506654E+03  0.21803506654E+03  0.00000000000E+00 0. -1.
          6    1    1    2  501    0 -0.18529535208E+03 -0.51860523454E+02 -0.10637758594E+03  0.27976610264E+03  0.17300000000E+03 0. -1.
         -6    1    1    2    0  502  0.18529535208E+03  0.51860523454E+02  0.64555199327E+03  0.69547843778E+03  0.17300000000E+03 0. -1.
<mgrwt>
<rscale>  2 0.25875255E+03</rscale>
<asrwt>0</asrwt>
<pdfrwt beam="1">  1       21 0.11649376E+00 0.25875255E+03</pdfrwt>
<pdfrwt beam="2">  1       21 0.33543857E-01 0.25875255E+03</pdfrwt>
<totfact> 0.46372462E+03</totfact>
</mgrwt>
</event>
<event>
 4    1  0.4173994E+000  0.1776094E+03  0.7546771E-02  0.1170137E+00
         21   -1    0    0  503  502  0.00000000000E+00  0.00000000000E+00  0.10386388005E+03  0.10386388005E+03  0.00000000000E+00 0. -1.
         21   -1    0    0  501  503 -0.00000000000E+00 -0.00000000000E+00 -0.46306550176E+03  0.46306550176E+03  0.00000000000E+00 0. -1.
          6    1    1    2  501    0  0.30133798516E+01 -0.40087552835E+02 -0.34588597465E+03  0.38882155266E+03  0.17300000000E+03 0. -1.
         -6    1    1    2    0  502 -0.30133798516E+01  0.40087552835E+02 -0.13315647055E+02  0.17810782916E+03  0.17300000000E+03 0. -1.
<mgrwt>
<rscale>  2 0.17760938E+03</rscale>
<asrwt>0</asrwt>
<pdfrwt beam="1">  1       21 0.15979059E-01 0.17760938E+03</pdfrwt>
<pdfrwt beam="2">  1       21 0.71240845E-01 0.17760938E+03</pdfrwt>
<totfact> 0.62722361E+04</totfact>
</mgrwt>
</event>
<event>
 4    1  0.4173994E+000  0.1812868E+03  0.7546771E-02  0.1166563E+00
         21   -1    0    0  503  502  0.00000000000E+00  0.00000000000E+00  0.22531413170E+02  0.22531413170E+02  0.00000000000E+00 0. -1.
         21   -1    0    0  501  503 -0.00000000000E+00 -0.00000000000E+00 -0.21050016631E+04  0.21050016631E+04  0.00000000000E+00 0. -1.
          6    1    1    2  501    0 -0.50267286185E+02  0.20226224134E+02 -0.16307064370E+04  0.16407523835E+04  0.17300000000E+03 0. -1.
         -6    1    1    2    0  502  0.50267286185E+02 -0.20226224134E+02 -0.45176381290E+03  0.48678069276E+03  0.17300000000E+03 0. -1.
<mgrwt>
<rscale>  2 0.18128679E+03</rscale>
<asrwt>0</asrwt>
<pdfrwt beam="1">  1       21 0.34663707E-02 0.18128679E+03</pdfrwt>
<pdfrwt beam="2">  1       21 0.32384646E+00 0.18128679E+03</pdfrwt>
<totfact> 0.12538764E+04</totfact>
</mgrwt>
</event>
<event>
 4    1  0.4173994E+000  0.1971616E+03  0.7546771E-02  0.1152156E+00
         21   -1    0    0  501  502  0.00000000000E+00  0.00000000000E+00  0.15433551055E+03  0.15433551055E+03  0.00000000000E+00 0.  1.
         21   -1    0    0  502  503 -0.00000000000E+00 -0.00000000000E+00 -0.32373292286E+03  0.32373292286E+03  0.00000000000E+00 0.  1.
          6    1    1    2  501    0  0.94149885379E+02 -0.89161448231E+01  0.27921131453E+02  0.19912882297E+03  0.17300000000E+03 0.  1.
         -6    1    1    2    0  503 -0.94149885379E+02  0.89161448231E+01 -0.19731854377E+03  0.27893961043E+03  0.17300000000E+03 0.  1.
<mgrwt>
<rscale>  2 0.19716161E+03</rscale>
<asrwt>0</asrwt>
<pdfrwt beam="1">  1       21 0.23743925E-01 0.19716161E+03</pdfrwt>
<pdfrwt beam="2">  1       21 0.49805065E-01 0.19716161E+03</pdfrwt>
<totfact> 0.64057081E+04</totfact>
</mgrwt>
</event>
<event>
 4    1  0.4173994E+000  0.2722317E+03  0.7546771E-02  0.1100009E+00
         21   -1    0    0  501  502  0.00000000000E+00  0.00000000000E+00  0.12057436455E+04  0.12057436455E+04  0.00000000000E+00 0. -1.
         21   -1    0    0  502  503 -0.00000000000E+00 -0.00000000000E+00 -0.33706275796E+03  0.33706275796E+03  0.00000000000E+00 0.  1.
          6    1    1    2  501    0 -0.14666659754E+02 -0.20968067369E+03  0.11318730358E+04  0.11641506195E+04  0.17300000000E+03 0. -1.
         -6    1    1    2    0  503  0.14666659754E+02  0.20968067369E+03 -0.26319214823E+03  0.37865578395E+03  0.17300000000E+03 0.  1.
<mgrwt>
<rscale>  2 0.27223170E+03</rscale>
<asrwt>0</asrwt>
<pdfrwt beam="1">  1       21 0.18549902E+00 0.27223170E+03</pdfrwt>
<pdfrwt beam="2">  1       21 0.51855809E-01 0.27223170E+03</pdfrwt>
<totfact> 0.54491254E+02</totfact>
</mgrwt>
</event>
<event>
 4    1  0.4173994E+000  0.1983832E+03  0.7546771E-02  0.1151110E+00
         21   -1    0    0  503  502  0.00000000000E+00  0.00000000000E+00  0.10228325753E+03  0.10228325753E+03  0.00000000000E+00 0.  1.
         21   -1    0    0  501  503 -0.00000000000E+00 -0.00000000000E+00 -0.38519369086E+03  0.38519369086E+03  0.00000000000E+00 0. -1.
          6    1    1    2  501    0 -0.44718283492E+02 -0.86181000375E+02 -0.14950518359E+03  0.24841032512E+03  0.17300000000E+03 0. -1.
         -6    1    1    2    0  502  0.44718283492E+02  0.86181000375E+02 -0.13340524973E+03  0.23906662327E+03  0.17300000000E+03 0.  1.
<mgrwt>
<rscale>  2 0.19838319E+03</rscale>
<asrwt>0</asrwt>
<pdfrwt beam="1">  1       21 0.15735886E-01 0.19838319E+03</pdfrwt>
<pdfrwt beam="2">  1       21 0.59260567E-01 0.19838319E+03</pdfrwt>
<totfact> 0.95428824E+04</totfact>
</mgrwt>
</event>
<event>
 4    1  0.4173994E+000  0.2406128E+03  0.7546771E-02  0.1119385E+00
         21   -1    0    0  501  502  0.00000000000E+00  0.00000000000E+00  0.88646239584E+02  0.88646239584E+02  0.00000000000E+00 0. -1.
         21   -1    0    0  502  503 -0.00000000000E+00 -0.00000000000E+00 -0.65381018508E+03  0.65381018508E+03  0.00000000000E+00 0. -1.
          6    1    1    2  501    0 -0.50320275986E+02  0.15947851677E+03 -0.27031488085E+03  0.36189040094E+03  0.17300000000E+03 0. -1.
         -6    1    1    2    0  503  0.50320275986E+02 -0.15947851677E+03 -0.29484906465E+03  0.38056602372E+03  0.17300000000E+03 0. -1.
<mgrwt>
<rscale>  2 0.24061282E+03</rscale>
<asrwt>0</asrwt>
<pdfrwt beam="1">  1       21 0.13637884E-01 0.24061282E+03</pdfrwt>
<pdfrwt beam="2">  1       21 0.10058618E+00 0.24061282E+03</pdfrwt>
<totfact> 0.36834706E+04</totfact>
</mgrwt>
</event>
<event>
 4    1  0.4173994E+000  0.2116998E+03  0.7546771E-02  0.1140227E+00
         21   -1    0    0  501  502  0.00000000000E+00  0.00000000000E+00  0.48924765051E+02  0.48924765051E+02  0.00000000000E+00 0. -1.
         21   -1    0    0  502  503 -0.00000000000E+00 -0.00000000000E+00 -0.13447622577E+04  0.13447622577E+04  0.00000000000E+00 0.  1.
          6    1    1    2  501    0 -0.11828094237E+03  0.29957292349E+02 -0.10413807588E+04  0.10626809048E+04  0.17300000000E+03 0.  1.
         -6    1    1    2    0  503  0.11828094237E+03 -0.29957292349E+02 -0.25445673381E+03  0.33100611788E+03  0.17300000000E+03 0. -1.
<mgrwt>
<rscale>  2 0.21169984E+03</rscale>
<asrwt>0</asrwt>
<pdfrwt beam="1">  1       21 0.75268873E-02 0.21169984E+03</pdfrwt>
<pdfrwt beam="2">  1       21 0.20688649E+00 0.21169984E+03</pdfrwt>
<totfact> 0.15954483E+04</totfact>
</mgrwt>
</event>
<event>
 4    1  0.4173994E+000  0.1738974E+03  0.7546771E-02  0.1173843E+00
         21   -1    0    0  503  502  0.00000000000E+00  0.00000000000E+00  0.48295966773E+03  0.48295966773E+03  0.00000000000E+00 0. -1.
         21   -1    0    0  501  503 -0.00000000000E+00 -0.00000000000E+00 -0.13124551085E+03  0.13124551085E+03  0.00000000000E+00 0. -1.
          6    1    1    2  501    0 -0.12899224007E+02  0.12037705177E+02 -0.46218768876E+02  0.17993462958E+03  0.17300000000E+03 0. -1.
         -6    1    1    2    0  502  0.12899224007E+02 -0.12037705177E+02  0.39793292575E+03  0.43427054899E+03  0.17300000000E+03 0. -1.
<mgrwt>
<rscale>  2 0.17389737E+03</rscale>
<asrwt>0</asrwt>
<pdfrwt beam="1">  1       21 0.74301487E-01 0.17389737E+03</pdfrwt>
<pdfrwt beam="2">  1       21 0.20191617E-01 0.17389737E+03</pdfrwt>
<totfact> 0.37178215E+04</totfact>
</mgrwt>
</event>
<event>
 4    1  0.4173994E+000  0.2002867E+03  0.7546771E-02  0.1149497E+00
         21   -1    0    0  501  502  0.00000000000E+00  0.00000000000E+00  0.11968937372E+03  0.11968937372E+03  0.00000000000E+00 0. -1.
         21   -1    0    0  502  503 -0.00000000000E+00 -0.00000000000E+00 -0.36871043262E+03  0.36871043262E+03  0.00000000000E+00 0. -1.
          6    1    1    2  501    0 -0.54407423908E+01  0.10077776168E+03 -0.50844075354E+02  0.20663949024E+03  0.17300000000E+03 0. -1.
         -6    1    1    2    0  503  0.54407423908E+01 -0.10077776168E+03 -0.19817698354E+03  0.28176031610E+03  0.17300000000E+03 0. -1.
<mgrwt>
<rscale>  2 0.20028669E+03</rscale>
<asrwt>0</asrwt>
<pdfrwt beam="1">  1       21 0.18413750E-01 0.20028669E+03</pdfrwt>
<pdfrwt beam="2">  1       21 0.56724683E-01 0.20028669E+03</pdfrwt>
<totfact> 0.78382609E+04</totfact>
</mgrwt>
</event>
<event>
 4    1  0.4173994E+000  0.2077170E+03  0.7546771E-02  0.1143387E+00
         21   -1    0    0  501  502  0.00000000000E+00  0.00000000000E+00  0.76020540744E+03  0.76020540744E+03  0.00000000000E+00 0.  1.
         21   -1    0    0  502  503 -0.00000000000E+00 -0.00000000000E+00 -0.84981423172E+02  0.84981423172E+02  0.00000000000E+00 0. -1.
          6    1    1    2  501    0  0.48447540292E+02  0.10426026645E+03  0.58115712042E+03  0.61716283583E+03  0.17300000000E+03 0.  1.
         -6    1    1    2    0  503 -0.48447540292E+02 -0.10426026645E+03  0.94066863847E+02  0.22802399478E+03  0.17300000000E+03 0. -1.
<mgrwt>
<rscale>  2 0.20771704E+03</rscale>
<asrwt>0</asrwt>
<pdfrwt beam="1">  1       21 0.11695467E+00 0.20771704E+03</pdfrwt>
<pdfrwt beam="2">  1       21 0.13074066E-01 0.20771704E+03</pdfrwt>
<totfact> 0.28056444E+04</totfact>
</mgrwt>
</event>
<event>
 4    1  0.4173994E+000  0.1896090E+03  0.7546771E-02  0.1158814E+00
         21   -1    0    0  501  502  0.00000000000E+00  0.00000000000E+00  0.14808410520E+03  0.14808410520E+03  0.00000000000E+00 0.  1.
         21   -1    0    0  502  503 -0.00000000000E+00 -0.00000000000E+00 -0.27149378192E+03  0.27149378192E+03  0.00000000000E+00 0.  1.
          6    1    1    2  501    0 -0.18098966276E+02 -0.75465202146E+02  0.65231626979E+01  0.18972116636E+03  0.17300000000E+03 0.  1.
         -6    1    1    2    0  503  0.18098966276E+02  0.75465202146E+02 -0.12993283942E+03  0.22985672075E+03  0.17300000000E+03 0.  1.
<mgrwt>
<rscale>  2 0.18960899E+03</rscale>
<asrwt>0</asrwt>
<pdfrwt beam="1">  1       21 0.22782170E-01 0.18960899E+03</pdfrwt>
<pdfrwt beam="2">  1       21 0.41768274E-01 0.18960899E+03</pdfrwt>
<totfact> 0.99831073E+04</totfact>
</mgrwt>
</event>
<event>
 4    1  0.4173994E+000  0.2143501E+03  0.7546771E-02  0.1138167E+00
         21   -1    0    0  501  502  0.00000000000E+00  0.00000000000E+00  0.20768500397E+03  0.20768500397E+03  0.00000000000E+00 0.  1.
         21   -1    0    0  502  503 -0.00000000000E+00 -0.00000000000E+00 -0.24658105961E+03  0.24658105961E+03  0.00000000000E+00 0.  1.
          6    1    1    2  501    0  0.11321842550E+03  0.56555717498E+02  0.53381322017E+02  0.22089709504E+03  0.17300000000E+03 0.  1.
         -6    1    1    2    0  503 -0.11321842550E+03 -0.56555717498E+02 -0.92277377653E+02  0.23336896855E+03  0.17300000000E+03 0.  1.
<mgrwt>
<rscale>  2 0.21435009E+03</rscale>
<asrwt>0</asrwt>
<pdfrwt beam="1">  1       21 0.31951539E-01 0.21435009E+03</pdfrwt>
<pdfrwt beam="2">  1       21 0.37935548E-01 0.21435009E+03</pdfrwt>
<totfact> 0.62512839E+04</totfact>
</mgrwt>
</event>
<event>
 4    1  0.4173994E+000  0.1756901E+03  0.7546771E-02  0.1172041E+00
         21   -1    0    0  503  502  0.00000000000E+00  0.00000000000E+00  0.10107203007E+03  0.10107203007E+03  0.00000000000E+00 0. -1.
         21   -1    0    0  501  503 -0.00000000000E+00 -0.00000000000E+00 -0.36364661903E+03  0.36364661903E+03  0.00000000000E+00 0. -1.
          6    1    1    2  501    0  0.30626769380E+02  0.50830899745E-01 -0.22428458803E+03  0.28490450683E+03  0.17300000000E+03 0. -1.
         -6    1    1    2    0  502 -0.30626769380E+02 -0.50830899745E-01 -0.38290000931E+02  0.17981414226E+03  0.17300000000E+03 0. -1.
<mgrwt>
<rscale>  2 0.17569007E+03</rscale>
<asrwt>0</asrwt>
<pdfrwt beam="1">  1       21 0.15549543E-01 0.17569007E+03</pdfrwt>
<pdfrwt beam="2">  1       21 0.55945634E-01 0.17569007E+03</pdfrwt>
<totfact> 0.11122126E+05</totfact>
</mgrwt>
</event>
<event>
 4    1  0.4173994E+000  0.2190660E+03  0.7546771E-02  0.1134581E+00
         21   -1    0    0  503  502  0.00000000000E+00  0.00000000000E+00  0.58656934159E+03  0.58656934159E+03  0.00000000000E+00 0.  1.
         21   -1    0    0  501  503 -0.00000000000E+00 -0.00000000000E+00 -0.87858648771E+02  0.87858648771E+02  0.00000000000E+00 0. -1.
          6    1    1    2  501    0  0.82763953963E+02 -0.10588227901E+03  0.33780125296E+03  0.40261596538E+03  0.17300000000E+03 0.  1.
         -6    1    1    2    0  502 -0.82763953963E+02  0.10588227901E+03  0.16090943987E+03  0.27181202498E+03  0.17300000000E+03 0.  1.
<mgrwt>
<rscale>  2 0.21906604E+03</rscale>
<asrwt>0</asrwt>
<pdfrwt beam="1">  1       21 0.90241435E-01 0.21906604E+03</pdfrwt>
<pdfrwt beam="2">  1       21 0.13516716E-01 0.21906604E+03</pdfrwt>
<totfact> 0.48826963E+04</totfact>
</mgrwt>
</event>
<event>
 4    1  0.4173994E+000  0.2028868E+03  0.7546771E-02  0.1147326E+00
         21   -1    0    0  503  502  0.00000000000E+00  0.00000000000E+00  0.83430196821E+03  0.83430196821E+03  0.00000000000E+00 0. -1.
         21   -1    0    0  501  503 -0.00000000000E+00 -0.00000000000E+00 -0.52065738712E+02  0.52065738712E+02  0.00000000000E+00 0. -1.
          6    1    1    2  501    0 -0.10594086313E+03 -0.32511929769E+01  0.28968358974E+03  0.35366597080E+03  0.17300000000E+03 0. -1.
         -6    1    1    2    0  502  0.10594086313E+03  0.32511929769E+01  0.49255263976E+03  0.53270173612E+03  0.17300000000E+03 0. -1.
<mgrwt>
<rscale>  2 0.20288676E+03</rscale>
<asrwt>0</asrwt>
<pdfrwt beam="1">  1       21 0.12835414E+00 0.20288676E+03</pdfrwt>
<pdfrwt beam="2">  1       21 0.80101143E-02 0.20288676E+03</pdfrwt>
<totfact> 0.53154855E+04</totfact>
</mgrwt>
</event>
<event>
 4    1  0.4173994E+000  0.1905580E+03  0.7546771E-02  0.1157959E+00
         21   -1    0    0  501  502  0.00000000000E+00  0.00000000000E+00  0.30475558133E+03  0.30475558133E+03  0.00000000000E+00 0.  1.
         21   -1    0    0  502  503 -0.00000000000E+00 -0.00000000000E+00 -0.29121380833E+03  0.29121380833E+03  0.00000000000E+00 0.  1.
          6    1    1    2  501    0  0.79589034550E+02  0.69966221180E+01  0.23582056104E+03  0.30318922170E+03  0.17300000000E+03 0.  1.
         -6    1    1    2    0  503 -0.79589034550E+02 -0.69966221180E+01 -0.22227878804E+03  0.29278016796E+03  0.17300000000E+03 0.  1.
<mgrwt>
<rscale>  2 0.19055804E+03</rscale>
<asrwt>0</asrwt>
<pdfrwt beam="1">  1       21 0.46885474E-01 0.19055804E+03</pdfrwt>
<pdfrwt beam="2">  1       21 0.44802124E-01 0.19055804E+03</pdfrwt>
<totfact> 0.20848292E+04</totfact>
</mgrwt>
</event>
<event>
 4    1  0.4173994E+000  0.1924309E+03  0.7546771E-02  0.1156287E+00
         21   -1    0    0  503  502  0.00000000000E+00  0.00000000000E+00  0.51689450779E+03  0.51689450779E+03  0.00000000000E+00 0.  1.
         21   -1    0    0  501  503 -0.00000000000E+00 -0.00000000000E+00 -0.17417411499E+03  0.17417411499E+03  0.00000000000E+00 0.  1.
          6    1    1    2  501    0  0.51829960704E+02 -0.66440192544E+02 -0.93756052581E+02  0.21405569698E+03  0.17300000000E+03 0.  1.
         -6    1    1    2    0  502 -0.51829960704E+02  0.66440192544E+02  0.43647644538E+03  0.47701292581E+03  0.17300000000E+03 0.  1.
<mgrwt>
<rscale>  2 0.19243088E+03</rscale>
<asrwt>0</asrwt>
<pdfrwt beam="1">  1       21 0.79522231E-01 0.19243088E+03</pdfrwt>
<pdfrwt beam="2">  1       21 0.26796018E-01 0.19243088E+03</pdfrwt>
<totfact> 0.18491119E+04</totfact>
</mgrwt>
</event>
<event>
 4    1  0.4173994E+000  0.1898244E+03  0.7546771E-02  0.1158620E+00
         21   -1    0    0  503  502  0.00000000000E+00  0.00000000000E+00  0.22527089160E+03  0.22527089160E+03  0.00000000000E+00 0. -1.
         21   -1    0    0  501  503 -0.00000000000E+00 -0.00000000000E+00 -0.61763797102E+03  0.61763797102E+03  0.00000000000E+00 0. -1.
          6    1    1    2  501    0 -0.61924495602E+02 -0.47641120995E+02 -0.55898227745E+03  0.59033423250E+03  0.17300000000E+03 0. -1.
         -6    1    1    2    0  502  0.61924495602E+02  0.47641120995E+02  0.16661519803E+03  0.25257463012E+03  0.17300000000E+03 0. -1.
<mgrwt>
<rscale>  2 0.18982444E+03</rscale>
<asrwt>0</asrwt>
<pdfrwt beam="1">  1       21 0.34657060E-01 0.18982444E+03</pdfrwt>
<pdfrwt beam="2">  1       21 0.95021226E-01 0.18982444E+03</pdfrwt>
<totfact> 0.74453927E+03</totfact>
</mgrwt>
</event>
<event>
 4    1  0.4173994E+000  0.1835789E+03  0.7546771E-02  0.1164384E+00
         21   -1    0    0  503  502  0.00000000000E+00  0.00000000000E+00  0.17471310892E+03  0.17471310892E+03  0.00000000000E+00 0. -1.
         21   -1    0    0  501  503 -0.00000000000E+00 -0.00000000000E+00 -0.22693868153E+03  0.22693868153E+03  0.00000000000E+00 0. -1.
          6    1    1    2  501    0  0.24746884430E+02  0.56212097730E+02 -0.10389611344E+03  0.21093982698E+03  0.17300000000E+03 0. -1.
         -6    1    1    2    0  502 -0.24746884430E+02 -0.56212097730E+02  0.51670540832E+02  0.19071196347E+03  0.17300000000E+03 0. -1.
<mgrwt>
<rscale>  2 0.18357889E+03</rscale>
<asrwt>0</asrwt>
<pdfrwt beam="1">  1       21 0.26878940E-01 0.18357889E+03</pdfrwt>
<pdfrwt beam="2">  1       21 0.34913643E-01 0.18357889E+03</pdfrwt>
<totfact> 0.10459871E+05</totfact>
</mgrwt>
</event>
<event>
 4    1  0.4173994E+000  0.1905444E+03  0.7546771E-02  0.1157971E+00
         21   -1    0    0  503  502  0.00000000000E+00  0.00000000000E+00  0.42418228904E+03  0.42418228904E+03  0.00000000000E+00 0.  1.
         21   -1    0    0  501  503 -0.00000000000E+00 -0.00000000000E+00 -0.13006046742E+03  0.13006046742E+03  0.00000000000E+00 0.  1.
          6    1    1    2  501    0  0.79853179932E+02  0.12758927429E+01 -0.14977192145E+02  0.19113208661E+03  0.17300000000E+03 0.  1.
         -6    1    1    2    0  502 -0.79853179932E+02 -0.12758927429E+01  0.30909901376E+03  0.36311066985E+03  0.17300000000E+03 0.  1.
<mgrwt>
<rscale>  2 0.19054437E+03</rscale>
<asrwt>0</asrwt>
<pdfrwt beam="1">  1       21 0.65258813E-01 0.19054437E+03</pdfrwt>
<pdfrwt beam="2">  1       21 0.20009303E-01 0.19054437E+03</pdfrwt>
<totfact> 0.49884086E+04</totfact>
</mgrwt>
</event>
<event>
 4    1  0.4173994E+000  0.1955899E+03  0.7546771E-02  0.1153514E+00
         21   -1    0    0  503  502  0.00000000000E+00  0.00000000000E+00  0.18929647662E+03  0.18929647662E+03  0.00000000000E+00 0. -1.
         21   -1    0    0  501  503 -0.00000000000E+00 -0.00000000000E+00 -0.26473531181E+03  0.26473531181E+03  0.00000000000E+00 0. -1.
          6    1    1    2  501    0 -0.91067683477E+02  0.57522767384E+01 -0.14814906950E+03  0.24536413441E+03  0.17300000000E+03 0.  1.
         -6    1    1    2    0  502  0.91067683477E+02 -0.57522767384E+01  0.72710234303E+02  0.20866765402E+03  0.17300000000E+03 0.  1.
<mgrwt>
<rscale>  2 0.19558991E+03</rscale>
<asrwt>0</asrwt>
<pdfrwt beam="1">  1       21 0.29122535E-01 0.19558991E+03</pdfrwt>
<pdfrwt beam="2">  1       21 0.40728509E-01 0.19558991E+03</pdfrwt>
<totfact> 0.65481129E+04</totfact>
</mgrwt>
</event>
<event>
 4    1  0.4173994E+000  0.2214769E+03  0.7546771E-02  0.1132787E+00
         21   -1    0    0  501  502  0.00000000000E+00  0.00000000000E+00  0.89506135074E+02  0.89506135074E+02  0.00000000000E+00 0.  1.
         21   -1    0    0  502  503 -0.00000000000E+00 -0.00000000000E+00 -0.58238819902E+03  0.58238819902E+03  0.00000000000E+00 0. -1.
          6    1    1    2  501    0 -0.10825243967E+03  0.86048879722E+02 -0.32803972463E+03  0.39580558527E+03  0.17300000000E+03 0.  1.
         -6    1    1    2    0  503  0.10825243967E+03 -0.86048879722E+02 -0.16484233931E+03  0.27608874882E+03  0.17300000000E+03 0.  1.
<mgrwt>
<rscale>  2 0.22147686E+03</rscale>
<asrwt>0</asrwt>
<pdfrwt beam="1">  1       21 0.13770175E-01 0.22147686E+03</pdfrwt>
<pdfrwt beam="2">  1       21 0.89598185E-01 0.22147686E+03</pdfrwt>
<totfact> 0.47946633E+04</totfact>
</mgrwt>
</event>
<event>
 4    1  0.4173994E+000  0.1879463E+03  0.7546771E-02  0.1160327E+00
         21   -1    0    0  501  502  0.00000000000E+00  0.00000000000E+00  0.19713694405E+03  0.19713694405E+03  0.00000000000E+00 0. -1.
         21   -1    0    0  502  503 -0.00000000000E+00 -0.00000000000E+00 -0.24836432227E+03  0.24836432227E+03  0.00000000000E+00 0. -1.
          6    1    1    2  501    0 -0.35656665857E+02 -0.64213734844E+02  0.91947883810E+02  0.20923244227E+03  0.17300000000E+03 0. -1.
         -6    1    1    2    0  503  0.35656665857E+02  0.64213734844E+02 -0.14317526203E+03  0.23626882405E+03  0.17300000000E+03 0. -1.
<mgrwt>
<rscale>  2 0.18794627E+03</rscale>
<asrwt>0</asrwt>
<pdfrwt beam="1">  1       21 0.30328761E-01 0.18794627E+03</pdfrwt>
<pdfrwt beam="2">  1       21 0.38209896E-01 0.18794627E+03</pdfrwt>
<totfact> 0.69044142E+04</totfact>
</mgrwt>
</event>
<event>
 4    1  0.4173994E+000  0.1923533E+03  0.7546771E-02  0.1156356E+00
         21   -1    0    0  503  502  0.00000000000E+00  0.00000000000E+00  0.43465520798E+02  0.43465520798E+02  0.00000000000E+00 0. -1.
         21   -1    0    0  501  503 -0.00000000000E+00 -0.00000000000E+00 -0.18451709488E+04  0.18451709488E+04  0.00000000000E+00 0.  1.
          6    1    1    2  501    0 -0.17591316223E+00 -0.84087704612E+02 -0.15939229661E+04  0.16054875256E+04  0.17300000000E+03 0.  1.
         -6    1    1    2    0  502  0.17591316223E+00  0.84087704612E+02 -0.20778246192E+03  0.28314894401E+03  0.17300000000E+03 0. -1.
<mgrwt>
<rscale>  2 0.19235325E+03</rscale>
<asrwt>0</asrwt>
<pdfrwt beam="1">  1       21 0.66870021E-02 0.19235325E+03</pdfrwt>
<pdfrwt beam="2">  1       21 0.28387250E+00 0.19235325E+03</pdfrwt>
<totfact> 0.69215481E+03</totfact>
</mgrwt>
</event>
<event>
 4    1  0.4173994E+000  0.1824654E+03  0.7546771E-02  0.1165438E+00
         21   -1    0    0  501  502  0.00000000000E+00  0.00000000000E+00  0.11562599587E+04  0.11562599587E+04  0.00000000000E+00 0. -1.
         21   -1    0    0  502  503 -0.00000000000E+00 -0.00000000000E+00 -0.40469151746E+02  0.40469151746E+02  0.00000000000E+00 0. -1.
          6    1    1    2  501    0 -0.56229623370E+02  0.14242079339E+02  0.87928434109E+03  0.89801701534E+03  0.17300000000E+03 0. -1.
         -6    1    1    2    0  503  0.56229623370E+02 -0.14242079339E+02  0.23650646591E+03  0.29871209514E+03  0.17300000000E+03 0. -1.
<mgrwt>
<rscale>  2 0.18246536E+03</rscale>
<asrwt>0</asrwt>
<pdfrwt beam="1">  1       21 0.17788612E+00 0.18246536E+03</pdfrwt>
<pdfrwt beam="2">  1       21 0.62260243E-02 0.18246536E+03</pdfrwt>
<totfact> 0.35046651E+04</totfact>
</mgrwt>
</event>
<event>
 4    1  0.4173994E+000  0.1885253E+03  0.7546771E-02  0.1159798E+00
         21   -1    0    0  503  502  0.00000000000E+00  0.00000000000E+00  0.49875984581E+02  0.49875984581E+02  0.00000000000E+00 0.  1.
         21   -1    0    0  501  503 -0.00000000000E+00 -0.00000000000E+00 -0.13691601201E+04  0.13691601201E+04  0.00000000000E+00 0.  1.
          6    1    1    2  501    0  0.43932379006E+02 -0.60685538472E+02 -0.11509711891E+04  0.11663089070E+04  0.17300000000E+03 0.  1.
         -6    1    1    2    0  502 -0.43932379006E+02  0.60685538472E+02 -0.16831294648E+03  0.25272719770E+03  0.17300000000E+03 0.  1.
<mgrwt>
<rscale>  2 0.18852530E+03</rscale>
<asrwt>0</asrwt>
<pdfrwt beam="1">  1       21 0.76732285E-02 0.18852530E+03</pdfrwt>
<pdfrwt beam="2">  1       21 0.21064002E+00 0.18852530E+03</pdfrwt>
<totfact> 0.14885198E+04</totfact>
</mgrwt>
</event>
<event>
 4    1  0.4173994E+000  0.2014145E+03  0.7546771E-02  0.1148551E+00
         21   -1    0    0  501  502  0.00000000000E+00  0.00000000000E+00  0.24770873331E+03  0.24770873331E+03  0.00000000000E+00 0. -1.
         21   -1    0    0  502  503 -0.00000000000E+00 -0.00000000000E+00 -0.11293709023E+04  0.11293709023E+04  0.00000000000E+00 0. -1.
          6    1    1    2  501    0 -0.27553563859E+02 -0.99396178582E+02  0.19583117244E+03  0.28092284937E+03  0.17300000000E+03 0. -1.
         -6    1    1    2    0  503  0.27553563859E+02  0.99396178582E+02 -0.10774933415E+04  0.10961567863E+04  0.17300000000E+03 0. -1.
<mgrwt>
<rscale>  2 0.20141450E+03</rscale>
<asrwt>0</asrwt>
<pdfrwt beam="1">  1       21 0.38109035E-01 0.20141450E+03</pdfrwt>
<pdfrwt beam="2">  1       21 0.17374937E+00 0.20141450E+03</pdfrwt>
<totfact> 0.13219765E+03</totfact>
</mgrwt>
</event>
<event>
 4    1  0.4173994E+000  0.1855001E+03  0.7546771E-02  0.1162584E+00
         21   -1    0    0  501  502  0.00000000000E+00  0.00000000000E+00  0.90099366350E+02  0.90099366350E+02  0.00000000000E+00 0.  1.
         21   -1    0    0  502  503 -0.00000000000E+00 -0.00000000000E+00 -0.38242807713E+03  0.38242807713E+03  0.00000000000E+00 0. -1.
          6    1    1    2  501    0 -0.16204305776E+02  0.64951615968E+02 -0.13750971592E+03  0.23090953621E+03  0.17300000000E+03 0.  1.
         -6    1    1    2    0  503  0.16204305776E+02 -0.64951615968E+02 -0.15481899486E+03  0.24161790727E+03  0.17300000000E+03 0.  1.
<mgrwt>
<rscale>  2 0.18550011E+03</rscale>
<asrwt>0</asrwt>
<pdfrwt beam="1">  1       21 0.13861441E-01 0.18550011E+03</pdfrwt>
<pdfrwt beam="2">  1       21 0.58835089E-01 0.18550011E+03</pdfrwt>
<totfact> 0.12265491E+05</totfact>
</mgrwt>
</event>
<event>
 4    1  0.4173994E+000  0.2348809E+03  0.7546771E-02  0.1123251E+00
         21   -1    0    0  503  502  0.00000000000E+00  0.00000000000E+00  0.35880885725E+03  0.35880885725E+03  0.00000000000E+00 0.  1.
         21   -1    0    0  501  503 -0.00000000000E+00 -0.00000000000E+00 -0.19529761535E+03  0.19529761535E+03  0.00000000000E+00 0.  1.
          6    1    1    2  501    0  0.65023142194E+02 -0.14495529176E+03 -0.46022352560E+02  0.23934724265E+03  0.17300000000E+03 0.  1.
         -6    1    1    2    0  502 -0.65023142194E+02  0.14495529176E+03  0.20953359446E+03  0.31475922995E+03  0.17300000000E+03 0.  1.
<mgrwt>
<rscale>  2 0.23488092E+03</rscale>
<asrwt>0</asrwt>
<pdfrwt beam="1">  1       21 0.55201363E-01 0.23488092E+03</pdfrwt>
<pdfrwt beam="2">  1       21 0.30045787E-01 0.23488092E+03</pdfrwt>
<totfact> 0.32183416E+04</totfact>
</mgrwt>
</event>
<event>
 4    1  0.4173994E+000  0.1899154E+03  0.7546771E-02  0.1158538E+00
         21   -1    0    0  501  502  0.00000000000E+00  0.00000000000E+00  0.66949736413E+03  0.66949736413E+03  0.00000000000E+00 0.  1.
         21   -1    0    0  502  503 -0.00000000000E+00 -0.00000000000E+00 -0.17281465011E+03  0.17281465011E+03  0.00000000000E+00 0.  1.
          6    1    1    2  501    0 -0.69405597028E+02 -0.36355599007E+02  0.59773870612E+03  0.62718372689E+03  0.17300000000E+03 0.  1.
         -6    1    1    2    0  503  0.69405597028E+02  0.36355599007E+02 -0.10105599210E+03  0.21512828735E+03  0.17300000000E+03 0.  1.
<mgrwt>
<rscale>  2 0.18991542E+03</rscale>
<asrwt>0</asrwt>
<pdfrwt beam="1">  1       21 0.10299959E+00 0.18991542E+03</pdfrwt>
<pdfrwt beam="2">  1       21 0.26586870E-01 0.18991542E+03</pdfrwt>
<totfact> 0.10320067E+04</totfact>
</mgrwt>
</event>
<event>
 4    1  0.4173994E+000  0.2107615E+03  0.7546771E-02  0.1140964E+00
         21   -1    0    0  503  502  0.00000000000E+00  0.00000000000E+00  0.98115559676E+02  0.98115559676E+02  0.00000000000E+00 0.  1.
         21   -1    0    0  501  503 -0.00000000000E+00 -0.00000000000E+00 -0.57111065686E+03  0.57111065686E+03  0.00000000000E+00 0. -1.
          6    1    1    2  501    0  0.54653115103E+02 -0.10725885016E+03 -0.38883707384E+03  0.44228349949E+03  0.17300000000E+03 0. -1.
         -6    1    1    2    0  502 -0.54653115103E+02  0.10725885016E+03 -0.84158023344E+02  0.22694271705E+03  0.17300000000E+03 0.  1.
<mgrwt>
<rscale>  2 0.21076153E+03</rscale>
<asrwt>0</asrwt>
<pdfrwt beam="1">  1       21 0.15094702E-01 0.21076153E+03</pdfrwt>
<pdfrwt beam="2">  1       21 0.87863178E-01 0.21076153E+03</pdfrwt>
<totfact> 0.42665631E+04</totfact>
</mgrwt>
</event>
<event>
 4    1  0.4173994E+000  0.1780830E+03  0.7546771E-02  0.1169671E+00
         21   -1    0    0  503  502  0.00000000000E+00  0.00000000000E+00  0.22432699016E+03  0.22432699016E+03  0.00000000000E+00 0.  1.
         21   -1    0    0  501  503 -0.00000000000E+00 -0.00000000000E+00 -0.19788420030E+03  0.19788420030E+03  0.00000000000E+00 0.  1.
          6    1    1    2  501    0  0.40715329015E+02  0.11260847130E+02 -0.99593248062E+02  0.20404009350E+03  0.17300000000E+03 0.  1.
         -6    1    1    2    0  502 -0.40715329015E+02 -0.11260847130E+02  0.12603603792E+03  0.21817109696E+03  0.17300000000E+03 0.  1.
<mgrwt>
<rscale>  2 0.17808297E+03</rscale>
<asrwt>0</asrwt>
<pdfrwt beam="1">  1       21 0.34511844E-01 0.17808297E+03</pdfrwt>
<pdfrwt beam="2">  1       21 0.30443723E-01 0.17808297E+03</pdfrwt>
<totfact> 0.84281643E+04</totfact>
</mgrwt>
</event>
<event>
 4    1  0.4173994E+000  0.1939765E+03  0.7546771E-02  0.1154923E+00
         21   -1    0    0  503  502  0.00000000000E+00  0.00000000000E+00  0.52891457627E+03  0.52891457627E+03  0.00000000000E+00 0. -1.
         21   -1    0    0  501  503 -0.00000000000E+00 -0.00000000000E+00 -0.73409009947E+02  0.73409009947E+02  0.00000000000E+00 0. -1.
          6    1    1    2  501    0 -0.35270122645E+02 -0.80336146993E+02  0.17480322155E+03  0.26111883182E+03  0.17300000000E+03 0. -1.
         -6    1    1    2    0  502  0.35270122645E+02  0.80336146993E+02  0.28070234477E+03  0.34120475440E+03  0.17300000000E+03 0. -1.
<mgrwt>
<rscale>  2 0.19397649E+03</rscale>
<asrwt>0</asrwt>
<pdfrwt beam="1">  1       21 0.81371471E-01 0.19397649E+03</pdfrwt>
<pdfrwt beam="2">  1       21 0.11293694E-01 0.19397649E+03</pdfrwt>
<totfact> 0.86499377E+04</totfact>
</mgrwt>
</event>
<event>
 4    1  0.4173994E+000  0.2039110E+03  0.7546771E-02  0.1146481E+00
         21   -1    0    0  501  502  0.00000000000E+00  0.00000000000E+00  0.38150072954E+03  0.38150072954E+03  0.00000000000E+00 0. -1.
         21   -1    0    0  502  503 -0.00000000000E+00 -0.00000000000E+00 -0.19322170760E+03  0.19322170760E+03  0.00000000000E+00 0.  1.
          6    1    1    2  501    0 -0.20637628581E+02  0.10594706735E+03  0.28387059405E+03  0.34951710539E+03  0.17300000000E+03 0. -1.
         -6    1    1    2    0  503  0.20637628581E+02 -0.10594706735E+03 -0.95591572105E+02  0.22520533176E+03  0.17300000000E+03 0.  1.
<mgrwt>
<rscale>  2 0.20391099E+03</rscale>
<asrwt>0</asrwt>
<pdfrwt beam="1">  1       21 0.58692420E-01 0.20391099E+03</pdfrwt>
<pdfrwt beam="2">  1       21 0.29726417E-01 0.20391099E+03</pdfrwt>
<totfact> 0.29285325E+04</totfact>
</mgrwt>
</event>
<event>
 4    1  0.4173994E+000  0.2130702E+03  0.7546771E-02  0.1139158E+00
         21   -1    0    0  501  502  0.00000000000E+00  0.00000000000E+00  0.28714563762E+03  0.28714563762E+03  0.00000000000E+00 0.  1.
         21   -1    0    0  502  503 -0.00000000000E+00 -0.00000000000E+00 -0.22344194425E+03  0.22344194425E+03  0.00000000000E+00 0. -1.
          6    1    1    2  501    0 -0.13743267459E+02 -0.12361654152E+03  0.16990299480E+03  0.27251780562E+03  0.17300000000E+03 0. -1.
         -6    1    1    2    0  503  0.13743267459E+02  0.12361654152E+03 -0.10619930144E+03  0.23806977625E+03  0.17300000000E+03 0. -1.
<mgrwt>
<rscale>  2 0.21307024E+03</rscale>
<asrwt>0</asrwt>
<pdfrwt beam="1">  1       21 0.44176252E-01 0.21307024E+03</pdfrwt>
<pdfrwt beam="2">  1       21 0.34375684E-01 0.21307024E+03</pdfrwt>
<totfact> 0.39723592E+04</totfact>
</mgrwt>
</event>
<event>
 4    1  0.4173994E+000  0.2675883E+03  0.7546771E-02  0.1102668E+00
         21   -1    0    0  503  502  0.00000000000E+00  0.00000000000E+00  0.24637613620E+04  0.24637613620E+04  0.00000000000E+00 0. -1.
         21   -1    0    0  501  503 -0.00000000000E+00 -0.00000000000E+00 -0.74115052864E+02  0.74115052864E+02  0.00000000000E+00 0.  1.
          6    1    1    2  501    0 -0.15738881435E+03  0.13001250908E+03  0.20548187472E+03  0.33738152326E+03  0.17300000000E+03 0.  1.
         -6    1    1    2    0  502  0.15738881435E+03 -0.13001250908E+03  0.21841644344E+04  0.22004948916E+04  0.17300000000E+03 0. -1.
<mgrwt>
<rscale>  2 0.26758829E+03</rscale>
<asrwt>0</asrwt>
<pdfrwt beam="1">  1       21 0.37904015E+00 0.26758829E+03</pdfrwt>
<pdfrwt beam="2">  1       21 0.11402318E-01 0.26758829E+03</pdfrwt>
<totfact> 0.68300753E+02</totfact>
</mgrwt>
</event>
<event>
 4    1  0.4173994E+000  0.2383549E+03  0.7546771E-02  0.1120894E+00
         21   -1    0    0  503  502  0.00000000000E+00  0.00000000000E+00  0.12050336343E+04  0.12050336343E+04  0.00000000000E+00 0. -1.
         21   -1    0    0  501  503 -0.00000000000E+00 -0.00000000000E+00 -0.50357958497E+02  0.50357958497E+02  0.00000000000E+00 0.  1.
          6    1    1    2  501    0 -0.12235354223E+02  0.16350642110E+03  0.41882299142E+03  0.48189807198E+03  0.17300000000E+03 0.  1.
         -6    1    1    2    0  502  0.12235354223E+02 -0.16350642110E+03  0.73585268436E+03  0.77349352080E+03  0.17300000000E+03 0. -1.
<mgrwt>
<rscale>  2 0.23835489E+03</rscale>
<asrwt>0</asrwt>
<pdfrwt beam="1">  1       21 0.18538977E+00 0.23835489E+03</pdfrwt>
<pdfrwt beam="2">  1       21 0.77473791E-02 0.23835489E+03</pdfrwt>
<totfact> 0.20587841E+04</totfact>
</mgrwt>
</event>
<event>
 4    1  0.4173994E+000  0.2216257E+03  0.7546771E-02  0.1132677E+00
         21   -1    0    0  503  502  0.00000000000E+00  0.00000000000E+00  0.15715137692E+03  0.15715137692E+03  0.00000000000E+00 0. -1.
         21   -1    0    0  501  503 -0.00000000000E+00 -0.00000000000E+00 -0.43258666474E+03  0.43258666474E+03  0.00000000000E+00 0. -1.
          6    1    1    2  501    0 -0.13714901759E+03  0.19470092408E+02 -0.29304443925E+03  0.36741390951E+03  0.17300000000E+03 0. -1.
         -6    1    1    2    0  502  0.13714901759E+03 -0.19470092408E+02  0.17609151427E+02  0.22232413215E+03  0.17300000000E+03 0. -1.
<mgrwt>
<rscale>  2 0.22162567E+03</rscale>
<asrwt>0</asrwt>
<pdfrwt beam="1">  1       21 0.24177135E-01 0.22162567E+03</pdfrwt>
<pdfrwt beam="2">  1       21 0.66551795E-01 0.22162567E+03</pdfrwt>
<totfact> 0.32916728E+04</totfact>
</mgrwt>
</event>
<event>
 4    1  0.4173994E+000  0.2577304E+03  0.7546771E-02  0.1108515E+00
         21   -1    0    0  501  502  0.00000000000E+00  0.00000000000E+00  0.30464239012E+03  0.30464239012E+03  0.00000000000E+00 0.  1.
         21   -1    0    0  502  503 -0.00000000000E+00 -0.00000000000E+00 -0.31285566448E+03  0.31285566448E+03  0.00000000000E+00 0. -1.
          6    1    1    2  501    0 -0.18521115765E+03 -0.46827206778E+02  0.16586173659E+03  0.30648829647E+03  0.17300000000E+03 0.  1.
         -6    1    1    2    0  503  0.18521115765E+03  0.46827206778E+02 -0.17407501095E+03  0.31100975813E+03  0.17300000000E+03 0. -1.
<mgrwt>
<rscale>  2 0.25773040E+03</rscale>
<asrwt>0</asrwt>
<pdfrwt beam="1">  1       21 0.46868060E-01 0.25773040E+03</pdfrwt>
<pdfrwt beam="2">  1       21 0.48131641E-01 0.25773040E+03</pdfrwt>
<totfact> 0.17340120E+04</totfact>
</mgrwt>
</event>
<event>
 4    1  0.4173994E+000  0.1811332E+03  0.7546771E-02  0.1166711E+00
         21   -1    0    0  501  502  0.00000000000E+00  0.00000000000E+00  0.24964283805E+03  0.24964283805E+03  0.00000000000E+00 0. -1.
         21   -1    0    0  502  503 -0.00000000000E+00 -0.00000000000E+00 -0.14635373305E+03  0.14635373305E+03  0.00000000000E+00 0. -1.
          6    1    1    2  501    0  0.20209534041E+02 -0.49717214324E+02  0.11488222229E+03  0.21449277765E+03  0.17300000000E+03 0. -1.
         -6    1    1    2    0  503 -0.20209534041E+02  0.49717214324E+02 -0.11593117285E+02  0.18150379344E+03  0.17300000000E+03 0. -1.
<mgrwt>
<rscale>  2 0.18113317E+03</rscale>
<asrwt>0</asrwt>
<pdfrwt beam="1">  1       21 0.38406590E-01 0.18113317E+03</pdfrwt>
<pdfrwt beam="2">  1       21 0.22515959E-01 0.18113317E+03</pdfrwt>
<totfact> 0.12127950E+05</totfact>
</mgrwt>
</event>
<event>
 4    1  0.4173994E+000  0.3294904E+03  0.7546771E-02  0.1071363E+00
         21   -1    0    0  501  502  0.00000000000E+00  0.00000000000E+00  0.33755206405E+04  0.33755206405E+04  0.00000000000E+00 0.  1.
         21   -1    0    0  502  503 -0.00000000000E+00 -0.00000000000E+00 -0.33777989994E+02  0.33777989994E+02  0.00000000000E+00 0. -1.
          6    1    1    2  501    0  0.12197584531E+03  0.25250106596E+03  0.20437105054E+04  0.20701006074E+04  0.17300000000E+03 0.  1.
         -6    1    1    2    0  503 -0.12197584531E+03 -0.25250106596E+03  0.12980321451E+04  0.13391980230E+04  0.17300000000E+03 0. -1.
<mgrwt>
<rscale>  2 0.32949036E+03</rscale>
<asrwt>0</asrwt>
<pdfrwt beam="1">  1       21 0.51931060E+00 0.32949036E+03</pdfrwt>
<pdfrwt beam="2">  1       21 0.51966165E-02 0.32949036E+03</pdfrwt>
<totfact> 0.29211424E+02</totfact>
</mgrwt>
</event>
<event>
 4    1  0.4173994E+000  0.2176605E+03  0.7546771E-02  0.1135639E+00
         21   -1    0    0  503  502  0.00000000000E+00  0.00000000000E+00  0.21862533893E+03  0.21862533893E+03  0.00000000000E+00 0. -1.
         21   -1    0    0  501  503 -0.00000000000E+00 -0.00000000000E+00 -0.21804927533E+03  0.21804927533E+03  0.00000000000E+00 0.  1.
          6    1    1    2  501    0  0.45578632334E+02 -0.12397458882E+03 -0.16887149091E+02  0.21831464954E+03  0.17300000000E+03 0.  1.
         -6    1    1    2    0  502 -0.45578632334E+02  0.12397458882E+03  0.17463212693E+02  0.21835996473E+03  0.17300000000E+03 0. -1.
<mgrwt>
<rscale>  2 0.21766054E+03</rscale>
<asrwt>0</asrwt>
<pdfrwt beam="1">  1       21 0.33634668E-01 0.21766054E+03</pdfrwt>
<pdfrwt beam="2">  1       21 0.33546042E-01 0.21766054E+03</pdfrwt>
<totfact> 0.72092187E+04</totfact>
</mgrwt>
</event>
<event>
 4    1  0.4173994E+000  0.1773123E+03  0.7546771E-02  0.1170430E+00
         21   -1    0    0  501  502  0.00000000000E+00  0.00000000000E+00  0.14061631569E+04  0.14061631569E+04  0.00000000000E+00 0. -1.
         21   -1    0    0  502  503 -0.00000000000E+00 -0.00000000000E+00 -0.15479294072E+03  0.15479294072E+03  0.00000000000E+00 0. -1.
          6    1    1    2  501    0 -0.15387434420E+02  0.35691314623E+02  0.13475994229E+04  0.13592144230E+04  0.17300000000E+03 0. -1.
         -6    1    1    2    0  503  0.15387434420E+02 -0.35691314623E+02 -0.96229206675E+02  0.20174167466E+03  0.17300000000E+03 0. -1.
<mgrwt>
<rscale>  2 0.17731228E+03</rscale>
<asrwt>0</asrwt>
<pdfrwt beam="1">  1       21 0.21633279E+00 0.17731228E+03</pdfrwt>
<pdfrwt beam="2">  1       21 0.23814299E-01 0.17731228E+03</pdfrwt>
<totfact> 0.17914349E+03</totfact>
</mgrwt>
</event>
<event>
 4    1  0.4173994E+000  0.1910648E+03  0.7546771E-02  0.1157504E+00
         21   -1    0    0  501  502  0.00000000000E+00  0.00000000000E+00  0.39254131015E+03  0.39254131015E+03  0.00000000000E+00 0. -1.
         21   -1    0    0  502  503 -0.00000000000E+00 -0.00000000000E+00 -0.13091546220E+03  0.13091546220E+03  0.00000000000E+00 0. -1.
          6    1    1    2  501    0 -0.80927376479E+02  0.52470832210E+01  0.27166778665E+03  0.33212822592E+03  0.17300000000E+03 0. -1.
         -6    1    1    2    0  503  0.80927376479E+02 -0.52470832210E+01 -0.10041938712E+02  0.19132854643E+03  0.17300000000E+03 0. -1.
<mgrwt>
<rscale>  2 0.19106484E+03</rscale>
<asrwt>0</asrwt>
<pdfrwt beam="1">  1       21 0.60390970E-01 0.19106484E+03</pdfrwt>
<pdfrwt beam="2">  1       21 0.20140840E-01 0.19106484E+03</pdfrwt>
<totfact> 0.58259733E+04</totfact>
</mgrwt>
</event>
<event>
 4    1  0.4173994E+000  0.2037371E+03  0.7546771E-02  0.1146624E+00
         21   -1    0    0  503  502  0.00000000000E+00  0.00000000000E+00  0.36116175989E+03  0.36116175989E+03  0.00000000000E+00 0.  1.
         21   -1    0    0  501  503 -0.00000000000E+00 -0.00000000000E+00 -0.12731867351E+03  0.12731867351E+03  0.00000000000E+00 0.  1.
          6    1    1    2  501    0  0.10738948580E+03  0.68765617161E+01  0.40738059440E+02  0.20777001287E+03  0.17300000000E+03 0. -1.
         -6    1    1    2    0  502 -0.10738948580E+03 -0.68765617161E+01  0.19310502694E+03  0.28071042053E+03  0.17300000000E+03 0. -1.
<mgrwt>
<rscale>  2 0.20373706E+03</rscale>
<asrwt>0</asrwt>
<pdfrwt beam="1">  1       21 0.55563347E-01 0.20373706E+03</pdfrwt>
<pdfrwt beam="2">  1       21 0.19587488E-01 0.20373706E+03</pdfrwt>
<totfact> 0.72897697E+04</totfact>
</mgrwt>
</event>
<event>
 4    1  0.4173994E+000  0.1876059E+03  0.7546771E-02  0.1160639E+00
         21   -1    0    0  503  502  0.00000000000E+00  0.00000000000E+00  0.58327122067E+02  0.58327122067E+02  0.00000000000E+00 0.  1.
         21   -1    0    0  501  503 -0.00000000000E+00 -0.00000000000E+00 -0.66978278216E+03  0.66978278216E+03  0.00000000000E+00 0.  1.
          6    1    1    2  501    0  0.53739230246E+02  0.48775790612E+02 -0.42031851300E+03  0.46028647057E+03  0.17300000000E+03 0.  1.
         -6    1    1    2    0  502 -0.53739230246E+02 -0.48775790612E+02 -0.19113714709E+03  0.26782343365E+03  0.17300000000E+03 0.  1.
<mgrwt>
<rscale>  2 0.18760592E+03</rscale>
<asrwt>0</asrwt>
<pdfrwt beam="1">  1       21 0.89734035E-02 0.18760592E+03</pdfrwt>
<pdfrwt beam="2">  1       21 0.10304350E+00 0.18760592E+03</pdfrwt>
<totfact> 0.75217889E+04</totfact>
</mgrwt>
</event>
<event>
 4    1  0.4173994E+000  0.2146761E+03  0.7546771E-02  0.1137916E+00
         21   -1    0    0  503  502  0.00000000000E+00  0.00000000000E+00  0.16248866784E+04  0.16248866784E+04  0.00000000000E+00 0.  1.
         21   -1    0    0  501  503 -0.00000000000E+00 -0.00000000000E+00 -0.61172615404E+02  0.61172615404E+02  0.00000000000E+00 0.  1.
          6    1    1    2  501    0  0.12535899890E+03 -0.21022955389E+02  0.16445475956E+03  0.27042782993E+03  0.17300000000E+03 0.  1.
         -6    1    1    2    0  502 -0.12535899890E+03  0.21022955389E+02  0.13992593035E+04  0.14156314639E+04  0.17300000000E+03 0.  1.
<mgrwt>
<rscale>  2 0.21467614E+03</rscale>
<asrwt>0</asrwt>
<pdfrwt beam="1">  1       21 0.24998253E+00 0.21467614E+03</pdfrwt>
<pdfrwt beam="2">  1       21 0.94111728E-02 0.21467614E+03</pdfrwt>
<totfact> 0.58782099E+03</totfact>
</mgrwt>
</event>
<event>
 4    1  0.4173994E+000  0.1821122E+03  0.7546771E-02  0.1165774E+00
         21   -1    0    0  503  502  0.00000000000E+00  0.00000000000E+00  0.68502347978E+03  0.68502347978E+03  0.00000000000E+00 0. -1.
         21   -1    0    0  501  503 -0.00000000000E+00 -0.00000000000E+00 -0.76695214290E+02  0.76695214290E+02  0.00000000000E+00 0. -1.
          6    1    1    2  501    0 -0.50992469478E+02 -0.25211518698E+02  0.72889446029E+02  0.19615739589E+03  0.17300000000E+03 0. -1.
         -6    1    1    2    0  502  0.50992469478E+02  0.25211518698E+02  0.53543881946E+03  0.56556129819E+03  0.17300000000E+03 0. -1.
<mgrwt>
<rscale>  2 0.18211220E+03</rscale>
<asrwt>0</asrwt>
<pdfrwt beam="1">  1       21 0.10538822E+00 0.18211220E+03</pdfrwt>
<pdfrwt beam="2">  1       21 0.11799264E-01 0.18211220E+03</pdfrwt>
<totfact> 0.44037023E+04</totfact>
</mgrwt>
</event>
<event>
 4    1  0.4173994E+000  0.1785929E+03  0.7546771E-02  0.1169172E+00
         21   -1    0    0  501  502  0.00000000000E+00  0.00000000000E+00  0.40643209232E+02  0.40643209232E+02  0.00000000000E+00 0.  1.
         21   -1    0    0  502  503 -0.00000000000E+00 -0.00000000000E+00 -0.90464786519E+03  0.90464786519E+03  0.00000000000E+00 0.  1.
          6    1    1    2  501    0  0.15659572028E+02 -0.41487536575E+02 -0.25994577150E+03  0.31538427673E+03  0.17300000000E+03 0.  1.
         -6    1    1    2    0  503 -0.15659572028E+02  0.41487536575E+02 -0.60405888446E+03  0.62990679770E+03  0.17300000000E+03 0.  1.
<mgrwt>
<rscale>  2 0.17859294E+03</rscale>
<asrwt>0</asrwt>
<pdfrwt beam="1">  1       21 0.62528021E-02 0.17859294E+03</pdfrwt>
<pdfrwt beam="2">  1       21 0.13917658E+00 0.17859294E+03</pdfrwt>
<totfact> 0.67227461E+04</totfact>
</mgrwt>
</event>
<event>
 4    1  0.4173994E+000  0.1870644E+03  0.7546771E-02  0.1161136E+00
         21   -1    0    0  503  502  0.00000000000E+00  0.00000000000E+00  0.66028119950E+02  0.66028119950E+02  0.00000000000E+00 0.  1.
         21   -1    0    0  501  503 -0.00000000000E+00 -0.00000000000E+00 -0.75555592881E+03  0.75555592881E+03  0.00000000000E+00 0. -1.
          6    1    1    2  501    0  0.63749877005E+02 -0.31623604644E+02 -0.56922554092E+03  0.59917511265E+03  0.17300000000E+03 0. -1.
         -6    1    1    2    0  502 -0.63749877005E+02  0.31623604644E+02 -0.12030226794E+03  0.22240893611E+03  0.17300000000E+03 0.  1.
<mgrwt>
<rscale>  2 0.18706443E+03</rscale>
<asrwt>0</asrwt>
<pdfrwt beam="1">  1       21 0.10158172E-01 0.18706443E+03</pdfrwt>
<pdfrwt beam="2">  1       21 0.11623937E+00 0.18706443E+03</pdfrwt>
<totfact> 0.45208284E+04</totfact>
</mgrwt>
</event>
<event>
 4    1  0.4173994E+000  0.1998134E+03  0.7546771E-02  0.1149897E+00
         21   -1    0    0  501  502  0.00000000000E+00  0.00000000000E+00  0.28004659396E+03  0.28004659396E+03  0.00000000000E+00 0. -1.
         21   -1    0    0  502  503 -0.00000000000E+00 -0.00000000000E+00 -0.43530315804E+03  0.43530315804E+03  0.00000000000E+00 0.  1.
          6    1    1    2  501    0  0.37191908972E+02 -0.92807011341E+02  0.21568435362E+03  0.29401550953E+03  0.17300000000E+03 0. -1.
         -6    1    1    2    0  503 -0.37191908972E+02  0.92807011341E+02 -0.37094091770E+03  0.42133424246E+03  0.17300000000E+03 0.  1.
<mgrwt>
<rscale>  2 0.19981336E+03</rscale>
<asrwt>0</asrwt>
<pdfrwt beam="1">  1       21 0.43084092E-01 0.19981336E+03</pdfrwt>
<pdfrwt beam="2">  1       21 0.66969716E-01 0.19981336E+03</pdfrwt>
<totfact> 0.10526296E+04</totfact>
</mgrwt>
</event>
<event>
 4    1  0.4173994E+000  0.1843184E+03  0.7546771E-02  0.1163688E+00
         21   -1    0    0  503  502  0.00000000000E+00  0.00000000000E+00  0.33606057101E+03  0.33606057101E+03  0.00000000000E+00 0. -1.
         21   -1    0    0  501  503 -0.00000000000E+00 -0.00000000000E+00 -0.13568612192E+03  0.13568612192E+03  0.00000000000E+00 0. -1.
          6    1    1    2  501    0  0.48759547458E+02  0.40826166127E+02 -0.18911726801E+02  0.18528605646E+03  0.17300000000E+03 0. -1.
         -6    1    1    2    0  502 -0.48759547458E+02 -0.40826166127E+02  0.21928617589E+03  0.28646063647E+03  0.17300000000E+03 0. -1.
<mgrwt>
<rscale>  2 0.18431839E+03</rscale>
<asrwt>0</asrwt>
<pdfrwt beam="1">  1       21 0.51701626E-01 0.18431839E+03</pdfrwt>
<pdfrwt beam="2">  1       21 0.20874788E-01 0.18431839E+03</pdfrwt>
<totfact> 0.75960021E+04</totfact>
</mgrwt>
</event>
<event>
 4    1  0.4173994E+000  0.1985001E+03  0.7546771E-02  0.1151011E+00
         21   -1    0    0  501  502  0.00000000000E+00  0.00000000000E+00  0.27606327622E+03  0.27606327622E+03  0.00000000000E+00 0. -1.
         21   -1    0    0  502  503 -0.00000000000E+00 -0.00000000000E+00 -0.14577556826E+03  0.14577556826E+03  0.00000000000E+00 0. -1.
          6    1    1    2  501    0 -0.96625369588E+02 -0.11698060922E+02  0.95634121978E+02  0.22033654251E+03  0.17300000000E+03 0. -1.
         -6    1    1    2    0  503  0.96625369588E+02  0.11698060922E+02  0.34653585981E+02  0.20150230197E+03  0.17300000000E+03 0. -1.
<mgrwt>
<rscale>  2 0.19850014E+03</rscale>
<asrwt>0</asrwt>
<pdfrwt beam="1">  1       21 0.42471273E-01 0.19850014E+03</pdfrwt>
<pdfrwt beam="2">  1       21 0.22427011E-01 0.19850014E+03</pdfrwt>
<totfact> 0.99056286E+04</totfact>
</mgrwt>
</event>
<event>
 4    1  0.4173994E+000  0.2091029E+03  0.7546771E-02  0.1142278E+00
         21   -1    0    0  501  502  0.00000000000E+00  0.00000000000E+00  0.59642526779E+03  0.59642526779E+03  0.00000000000E+00 0. -1.
         21   -1    0    0  502  503 -0.00000000000E+00 -0.00000000000E+00 -0.10286416621E+03  0.10286416621E+03  0.00000000000E+00 0. -1.
          6    1    1    2  501    0  0.11136144224E+03 -0.37331510852E+02  0.43419511321E+03  0.48192261708E+03  0.17300000000E+03 0. -1.
         -6    1    1    2    0  503 -0.11136144224E+03  0.37331510852E+02  0.59365988372E+02  0.21736681691E+03  0.17300000000E+03 0. -1.
<mgrwt>
<rscale>  2 0.20910288E+03</rscale>
<asrwt>0</asrwt>
<pdfrwt beam="1">  1       21 0.91757731E-01 0.20910288E+03</pdfrwt>
<pdfrwt beam="2">  1       21 0.15825257E-01 0.20910288E+03</pdfrwt>
<totfact> 0.35418125E+04</totfact>
</mgrwt>
</event>
<event>
 4    1  0.4173994E+000  0.3041047E+03  0.7546771E-02  0.1083207E+00
         21   -1    0    0  501  502  0.00000000000E+00  0.00000000000E+00  0.10277623555E+04  0.10277623555E+04  0.00000000000E+00 0.  1.
         21   -1    0    0  502  503 -0.00000000000E+00 -0.00000000000E+00 -0.90218356315E+02  0.90218356315E+02  0.00000000000E+00 0.  1.
          6    1    1    2  501    0  0.16819672405E+03 -0.18509592334E+03  0.44013264166E+03  0.53497325267E+03  0.17300000000E+03 0.  1.
         -6    1    1    2    0  503 -0.16819672405E+03  0.18509592334E+03  0.49741135751E+03  0.58300745912E+03  0.17300000000E+03 0.  1.
<mgrwt>
<rscale>  2 0.30410465E+03</rscale>
<asrwt>0</asrwt>
<pdfrwt beam="1">  1       21 0.15811728E+00 0.30410465E+03</pdfrwt>
<pdfrwt beam="2">  1       21 0.13879748E-01 0.30410465E+03</pdfrwt>
<totfact> 0.10960687E+04</totfact>
</mgrwt>
</event>
<event>
 4    1  0.4173994E+000  0.2131483E+03  0.7546771E-02  0.1139097E+00
         21   -1    0    0  501  502  0.00000000000E+00  0.00000000000E+00  0.19850754955E+03  0.19850754955E+03  0.00000000000E+00 0.  1.
         21   -1    0    0  502  503 -0.00000000000E+00 -0.00000000000E+00 -0.22915919878E+03  0.22915919878E+03  0.00000000000E+00 0.  1.
          6    1    1    2  501    0 -0.11947754842E+02  0.12393732207E+03 -0.77153131708E+01  0.21328791505E+03  0.17300000000E+03 0.  1.
         -6    1    1    2    0  503  0.11947754842E+02 -0.12393732207E+03 -0.22936336058E+02  0.21437883328E+03  0.17300000000E+03 0.  1.
<mgrwt>
<rscale>  2 0.21314833E+03</rscale>
<asrwt>0</asrwt>
<pdfrwt beam="1">  1       21 0.30539623E-01 0.21314833E+03</pdfrwt>
<pdfrwt beam="2">  1       21 0.35255261E-01 0.21314833E+03</pdfrwt>
<totfact> 0.79139019E+04</totfact>
</mgrwt>
</event>
<event>
 4    1  0.4173994E+000  0.2352182E+03  0.7546771E-02  0.1123020E+00
         21   -1    0    0  503  502  0.00000000000E+00  0.00000000000E+00  0.26342602808E+02  0.26342602808E+02  0.00000000000E+00 0. -1.
         21   -1    0    0  501  503 -0.00000000000E+00 -0.00000000000E+00 -0.23455361598E+04  0.23455361598E+04  0.00000000000E+00 0. -1.
          6    1    1    2  501    0 -0.71318700191E+02 -0.14252110367E+03 -0.77613227959E+03  0.81099256310E+03  0.17300000000E+03 0. -1.
         -6    1    1    2    0  502  0.71318700191E+02  0.14252110367E+03 -0.15430612774E+04  0.15608861995E+04  0.17300000000E+03 0. -1.
<mgrwt>
<rscale>  2 0.23521824E+03</rscale>
<asrwt>0</asrwt>
<pdfrwt beam="1">  1       21 0.40527075E-02 0.23521824E+03</pdfrwt>
<pdfrwt beam="2">  1       21 0.36085178E+00 0.23521824E+03</pdfrwt>
<totfact> 0.54986052E+03</totfact>
</mgrwt>
</event>
<event>
 4    1  0.4173994E+000  0.2785661E+03  0.7546771E-02  0.1096475E+00
         21   -1    0    0  503  502  0.00000000000E+00  0.00000000000E+00  0.15839512030E+03  0.15839512030E+03  0.00000000000E+00 0. -1.
         21   -1    0    0  501  503 -0.00000000000E+00 -0.00000000000E+00 -0.67740817029E+03  0.67740817029E+03  0.00000000000E+00 0. -1.
          6    1    1    2  501    0 -0.19647460114E+02  0.21744895051E+03 -0.47936816532E+03  0.55443025413E+03  0.17300000000E+03 0. -1.
         -6    1    1    2    0  502  0.19647460114E+02 -0.21744895051E+03 -0.39644884670E+02  0.28137303646E+03  0.17300000000E+03 0. -1.
<mgrwt>
<rscale>  2 0.27856609E+03</rscale>
<asrwt>0</asrwt>
<pdfrwt beam="1">  1       21 0.24368480E-01 0.27856609E+03</pdfrwt>
<pdfrwt beam="2">  1       21 0.10421664E+00 0.27856609E+03</pdfrwt>
<totfact> 0.11243347E+04</totfact>
</mgrwt>
</event>
<event>
 4    1  0.4173994E+000  0.2654527E+03  0.7546771E-02  0.1103911E+00
         21   -1    0    0  501  502  0.00000000000E+00  0.00000000000E+00  0.26456822138E+03  0.26456822138E+03  0.00000000000E+00 0. -1.
         21   -1    0    0  502  503 -0.00000000000E+00 -0.00000000000E+00 -0.32927623605E+03  0.32927623605E+03  0.00000000000E+00 0.  1.
          6    1    1    2  501    0  0.18158362020E+03 -0.86968638701E+02  0.97457197562E+02  0.28277740468E+03  0.17300000000E+03 0. -1.
         -6    1    1    2    0  503 -0.18158362020E+03  0.86968638701E+02 -0.16216521223E+03  0.31106705274E+03  0.17300000000E+03 0.  1.
<mgrwt>
<rscale>  2 0.26545274E+03</rscale>
<asrwt>0</asrwt>
<pdfrwt beam="1">  1       21 0.40702803E-01 0.26545274E+03</pdfrwt>
<pdfrwt beam="2">  1       21 0.50657882E-01 0.26545274E+03</pdfrwt>
<totfact> 0.20754938E+04</totfact>
</mgrwt>
</event>
<event>
 4    1  0.4173994E+000  0.1881297E+03  0.7546771E-02  0.1160159E+00
         21   -1    0    0  503  502  0.00000000000E+00  0.00000000000E+00  0.32977498126E+03  0.32977498126E+03  0.00000000000E+00 0.  1.
         21   -1    0    0  501  503 -0.00000000000E+00 -0.00000000000E+00 -0.11178298219E+03  0.11178298219E+03  0.00000000000E+00 0.  1.
          6    1    1    2  501    0 -0.73876705556E+02  0.24502798412E+01  0.15309081621E+03  0.24254807668E+03  0.17300000000E+03 0.  1.
         -6    1    1    2    0  502  0.73876705556E+02 -0.24502798412E+01  0.64901182861E+02  0.19900988677E+03  0.17300000000E+03 0.  1.
<mgrwt>
<rscale>  2 0.18812967E+03</rscale>
<asrwt>0</asrwt>
<pdfrwt beam="1">  1       21 0.50734612E-01 0.18812967E+03</pdfrwt>
<pdfrwt beam="2">  1       21 0.17197382E-01 0.18812967E+03</pdfrwt>
<totfact> 0.11307096E+05</totfact>
</mgrwt>
</event>
<event>
 4    1  0.4173994E+000  0.1764944E+03  0.7546771E-02  0.1171240E+00
         21   -1    0    0  501  502  0.00000000000E+00  0.00000000000E+00  0.81185723350E+03  0.81185723350E+03  0.00000000000E+00 0.  1.
         21   -1    0    0  502  503 -0.00000000000E+00 -0.00000000000E+00 -0.39091433431E+02  0.39091433431E+02  0.00000000000E+00 0.  1.
          6    1    1    2  501    0  0.34352870324E+02  0.64144601497E+01  0.32854813484E+03  0.37295327040E+03  0.17300000000E+03 0.  1.
         -6    1    1    2    0  503 -0.34352870324E+02 -0.64144601497E+01  0.44421766523E+03  0.47799539653E+03  0.17300000000E+03 0.  1.
<mgrwt>
<rscale>  2 0.17649438E+03</rscale>
<asrwt>0</asrwt>
<pdfrwt beam="1">  1       21 0.12490110E+00 0.17649438E+03</pdfrwt>
<pdfrwt beam="2">  1       21 0.60140673E-02 0.17649438E+03</pdfrwt>
<totfact> 0.94552331E+04</totfact>
</mgrwt>
</event>
<event>
 4    1  0.4173994E+000  0.2200851E+03  0.7546771E-02  0.1133820E+00
         21   -1    0    0  503  502  0.00000000000E+00  0.00000000000E+00  0.88761389810E+02  0.88761389810E+02  0.00000000000E+00 0.  1.
         21   -1    0    0  501  503 -0.00000000000E+00 -0.00000000000E+00 -0.10225675714E+04  0.10225675714E+04  0.00000000000E+00 0.  1.
          6    1    1    2  501    0 -0.90220532982E+02  0.10182684761E+03 -0.84636105405E+03  0.87450813906E+03  0.17300000000E+03 0.  1.
         -6    1    1    2    0  502  0.90220532982E+02 -0.10182684761E+03 -0.87445127508E+02  0.23682082212E+03  0.17300000000E+03 0.  1.
<mgrwt>
<rscale>  2 0.22008510E+03</rscale>
<asrwt>0</asrwt>
<pdfrwt beam="1">  1       21 0.13655599E-01 0.22008510E+03</pdfrwt>
<pdfrwt beam="2">  1       21 0.15731808E+00 0.22008510E+03</pdfrwt>
<totfact> 0.12012279E+04</totfact>
</mgrwt>
</event>
<event>
 4    1  0.4173994E+000  0.2146238E+03  0.7546771E-02  0.1137956E+00
         21   -1    0    0  501  502  0.00000000000E+00  0.00000000000E+00  0.11891890550E+04  0.11891890550E+04  0.00000000000E+00 0. -1.
         21   -1    0    0  502  503 -0.00000000000E+00 -0.00000000000E+00 -0.11028093815E+03  0.11028093815E+03  0.00000000000E+00 0. -1.
          6    1    1    2  501    0  0.12539190161E+03  0.20279585421E+02  0.10627870762E+04  0.10842415598E+04  0.17300000000E+03 0. -1.
         -6    1    1    2    0  503 -0.12539190161E+03 -0.20279585421E+02  0.16121040609E+02  0.21522843336E+03  0.17300000000E+03 0. -1.
<mgrwt>
<rscale>  2 0.21462384E+03</rscale>
<asrwt>0</asrwt>
<pdfrwt beam="1">  1       21 0.18295215E+00 0.21462384E+03</pdfrwt>
<pdfrwt beam="2">  1       21 0.16966299E-01 0.21462384E+03</pdfrwt>
<totfact> 0.53392320E+03</totfact>
</mgrwt>
</event>
<event>
 4    1  0.4173994E+000  0.2211063E+03  0.7546771E-02  0.1133061E+00
         21   -1    0    0  501  502  0.00000000000E+00  0.00000000000E+00  0.27379830450E+03  0.27379830450E+03  0.00000000000E+00 0. -1.
         21   -1    0    0  502  503 -0.00000000000E+00 -0.00000000000E+00 -0.71227480605E+03  0.71227480605E+03  0.00000000000E+00 0. -1.
          6    1    1    2  501    0  0.10670704733E+03 -0.87020582116E+02  0.20754965933E+03  0.30325704732E+03  0.17300000000E+03 0. -1.
         -6    1    1    2    0  503 -0.10670704733E+03  0.87020582116E+02 -0.64602616088E+03  0.68281606323E+03  0.17300000000E+03 0. -1.
<mgrwt>
<rscale>  2 0.22110625E+03</rscale>
<asrwt>0</asrwt>
<pdfrwt beam="1">  1       21 0.42122816E-01 0.22110625E+03</pdfrwt>
<pdfrwt beam="2">  1       21 0.10958074E+00 0.22110625E+03</pdfrwt>
<totfact> 0.34936980E+03</totfact>
</mgrwt>
</event>
<event>
 4    1  0.4173994E+000  0.2419809E+03  0.7546771E-02  0.1118480E+00
         21   -1    0    0  501  502  0.00000000000E+00  0.00000000000E+00  0.10418662341E+03  0.10418662341E+03  0.00000000000E+00 0. -1.
         21   -1    0    0  502  503 -0.00000000000E+00 -0.00000000000E+00 -0.59063717818E+03  0.59063717818E+03  0.00000000000E+00 0. -1.
          6    1    1    2  501    0  0.11290560826E+03 -0.12600826962E+03 -0.16675147478E+03  0.29387210608E+03  0.17300000000E+03 0. -1.
         -6    1    1    2    0  503 -0.11290560826E+03  0.12600826962E+03 -0.31969907998E+03  0.40095169551E+03  0.17300000000E+03 0. -1.
<mgrwt>
<rscale>  2 0.24198091E+03</rscale>
<asrwt>0</asrwt>
<pdfrwt beam="1">  1       21 0.16028711E-01 0.24198091E+03</pdfrwt>
<pdfrwt beam="2">  1       21 0.90867257E-01 0.24198091E+03</pdfrwt>
<totfact> 0.34825491E+04</totfact>
</mgrwt>
</event>
<event>
 4    1  0.4173994E+000  0.2330580E+03  0.7546771E-02  0.1124506E+00
         21   -1    0    0  503  502  0.00000000000E+00  0.00000000000E+00  0.24203287617E+04  0.24203287617E+04  0.00000000000E+00 0.  1.
         21   -1    0    0  501  503 -0.00000000000E+00 -0.00000000000E+00 -0.23411371834E+03  0.23411371834E+03  0.00000000000E+00 0.  1.
          6    1    1    2  501    0  0.10497265791E+03 -0.11561904906E+03 -0.16889938339E+03  0.28782464301E+03  0.17300000000E+03 0.  1.
         -6    1    1    2    0  502 -0.10497265791E+03  0.11561904906E+03  0.23551144267E+04  0.23666178370E+04  0.17300000000E+03 0.  1.
<mgrwt>
<rscale>  2 0.23305798E+03</rscale>
<asrwt>0</asrwt>
<pdfrwt beam="1">  1       21 0.37235825E+00 0.23305798E+03</pdfrwt>
<pdfrwt beam="2">  1       21 0.36017497E-01 0.23305798E+03</pdfrwt>
<totfact> 0.89464486E+01</totfact>
</mgrwt>
</event>
<event>
 4    1  0.4173994E+000  0.1953343E+03  0.7546771E-02  0.1153736E+00
         21   -1    0    0  503  502  0.00000000000E+00  0.00000000000E+00  0.29264510703E+02  0.29264510703E+02  0.00000000000E+00 0. -1.
         21   -1    0    0  501  503 -0.00000000000E+00 -0.00000000000E+00 -0.13039650707E+04  0.13039650707E+04  0.00000000000E+00 0. -1.
          6    1    1    2  501    0  0.83946631273E+02 -0.34343298909E+02 -0.63019162301E+03  0.65977040006E+03  0.17300000000E+03 0. -1.
         -6    1    1    2    0  502 -0.83946631273E+02  0.34343298909E+02 -0.64450893702E+03  0.67345918138E+03  0.17300000000E+03 0. -1.
<mgrwt>
<rscale>  2 0.19533433E+03</rscale>
<asrwt>0</asrwt>
<pdfrwt beam="1">  1       21 0.45022330E-02 0.19533433E+03</pdfrwt>
<pdfrwt beam="2">  1       21 0.20060999E+00 0.19533433E+03</pdfrwt>
<totfact> 0.42660551E+04</totfact>
</mgrwt>
</event>
<event>
 4    1  0.4173994E+000  0.1881320E+03  0.7546771E-02  0.1160157E+00
         21   -1    0    0  503  502  0.00000000000E+00  0.00000000000E+00  0.22543127608E+03  0.22543127608E+03  0.00000000000E+00 0.  1.
         21   -1    0    0  501  503 -0.00000000000E+00 -0.00000000000E+00 -0.15883333599E+03  0.15883333599E+03  0.00000000000E+00 0.  1.
          6    1    1    2  501    0 -0.73851222931E+02  0.32609803216E+01  0.53917757124E+02  0.19570580383E+03  0.17300000000E+03 0.  1.
         -6    1    1    2    0  502  0.73851222931E+02 -0.32609803216E+01  0.12680182969E+02  0.18855880823E+03  0.17300000000E+03 0.  1.
<mgrwt>
<rscale>  2 0.18813197E+03</rscale>
<asrwt>0</asrwt>
<pdfrwt beam="1">  1       21 0.34681735E-01 0.18813197E+03</pdfrwt>
<pdfrwt beam="2">  1       21 0.24435898E-01 0.18813197E+03</pdfrwt>
<totfact> 0.12697222E+05</totfact>
</mgrwt>
</event>
<event>
 4    1  0.4173994E+000  0.1741737E+03  0.7546771E-02  0.1173564E+00
         21   -1    0    0  501  502  0.00000000000E+00  0.00000000000E+00  0.48481711380E+03  0.48481711380E+03  0.00000000000E+00 0.  1.
         21   -1    0    0  502  503 -0.00000000000E+00 -0.00000000000E+00 -0.11764857144E+03  0.11764857144E+03  0.00000000000E+00 0.  1.
          6    1    1    2  501    0 -0.23934028927E+01 -0.20043304597E+02  0.38968925210E+03  0.42684209684E+03  0.17300000000E+03 0.  1.
         -6    1    1    2    0  503  0.23934028927E+01  0.20043304597E+02 -0.22520709740E+02  0.17562358840E+03  0.17300000000E+03 0.  1.
<mgrwt>
<rscale>  2 0.17417366E+03</rscale>
<asrwt>0</asrwt>
<pdfrwt beam="1">  1       21 0.74587248E-01 0.17417366E+03</pdfrwt>
<pdfrwt beam="2">  1       21 0.18099780E-01 0.17417366E+03</pdfrwt>
<totfact> 0.45147392E+04</totfact>
</mgrwt>
</event>
<event>
 4    1  0.4173994E+000  0.1846097E+03  0.7546771E-02  0.1163415E+00
         21   -1    0    0  503  502  0.00000000000E+00  0.00000000000E+00  0.29913052563E+03  0.29913052563E+03  0.00000000000E+00 0. -1.
         21   -1    0    0  501  503 -0.00000000000E+00 -0.00000000000E+00 -0.23656779560E+03  0.23656779560E+03  0.00000000000E+00 0. -1.
          6    1    1    2  501    0  0.16802727925E+02  0.62204443640E+02 -0.16156879655E+03  0.24532672193E+03  0.17300000000E+03 0. -1.
         -6    1    1    2    0  502 -0.16802727925E+02 -0.62204443640E+02  0.22413152658E+03  0.29037159930E+03  0.17300000000E+03 0. -1.
<mgrwt>
<rscale>  2 0.18460965E+03</rscale>
<asrwt>0</asrwt>
<pdfrwt beam="1">  1       21 0.46020081E-01 0.18460965E+03</pdfrwt>
<pdfrwt beam="2">  1       21 0.36395045E-01 0.18460965E+03</pdfrwt>
<totfact> 0.33084627E+04</totfact>
</mgrwt>
</event>
<event>
 4    1  0.4173994E+000  0.2114213E+03  0.7546771E-02  0.1140445E+00
         21   -1    0    0  501  502  0.00000000000E+00  0.00000000000E+00  0.82161391933E+03  0.82161391933E+03  0.00000000000E+00 0.  1.
         21   -1    0    0  502  503 -0.00000000000E+00 -0.00000000000E+00 -0.65543854868E+02  0.65543854868E+02  0.00000000000E+00 0. -1.
          6    1    1    2  501    0 -0.47459672168E+02  0.11188176860E+03  0.56090727856E+03  0.59942966708E+03  0.17300000000E+03 0.  1.
         -6    1    1    2    0  503  0.47459672168E+02 -0.11188176860E+03  0.19516278589E+03  0.28772810712E+03  0.17300000000E+03 0. -1.
<mgrwt>
<rscale>  2 0.21142126E+03</rscale>
<asrwt>0</asrwt>
<pdfrwt beam="1">  1       21 0.12640213E+00 0.21142126E+03</pdfrwt>
<pdfrwt beam="2">  1       21 0.10083671E-01 0.21142126E+03</pdfrwt>
<totfact> 0.36698963E+04</totfact>
</mgrwt>
</event>
<event>
 4    1  0.4173994E+000  0.1876299E+03  0.7546771E-02  0.1160616E+00
         21   -1    0    0  501  502  0.00000000000E+00  0.00000000000E+00  0.63141126534E+02  0.63141126534E+02  0.00000000000E+00 0.  1.
         21   -1    0    0  502  503 -0.00000000000E+00 -0.00000000000E+00 -0.56613113244E+03  0.56613113244E+03  0.00000000000E+00 0.  1.
          6    1    1    2  501    0 -0.23840345361E+02  0.68612206255E+02 -0.21278198978E+03  0.28369203741E+03  0.17300000000E+03 0. -1.
         -6    1    1    2    0  503  0.23840345361E+02 -0.68612206255E+02 -0.29020801613E+03  0.34558022157E+03  0.17300000000E+03 0. -1.
<mgrwt>
<rscale>  2 0.18762995E+03</rscale>
<asrwt>0</asrwt>
<pdfrwt beam="1">  1       21 0.97140195E-02 0.18762995E+03</pdfrwt>
<pdfrwt beam="2">  1       21 0.87097097E-01 0.18762995E+03</pdfrwt>
<totfact> 0.96974006E+04</totfact>
</mgrwt>
</event>
<event>
 4    1  0.4173994E+000  0.2545584E+03  0.7546771E-02  0.1110457E+00
         21   -1    0    0  503  502  0.00000000000E+00  0.00000000000E+00  0.12146523257E+04  0.12146523257E+04  0.00000000000E+00 0.  1.
         21   -1    0    0  501  503 -0.00000000000E+00 -0.00000000000E+00 -0.91734124024E+02  0.91734124024E+02  0.00000000000E+00 0.  1.
          6    1    1    2  501    0 -0.29209221707E+02  0.18443921166E+03  0.13892676792E+03  0.29000111771E+03  0.17300000000E+03 0.  1.
         -6    1    1    2    0  502  0.29209221707E+02 -0.18443921166E+03  0.98399143376E+03  0.10163853320E+04  0.17300000000E+03 0.  1.
<mgrwt>
<rscale>  2 0.25455844E+03</rscale>
<asrwt>0</asrwt>
<pdfrwt beam="1">  1       21 0.18686958E+00 0.25455844E+03</pdfrwt>
<pdfrwt beam="2">  1       21 0.14112943E-01 0.25455844E+03</pdfrwt>
<totfact> 0.68365411E+03</totfact>
</mgrwt>
</event>
<event>
 4    1  0.4173994E+000  0.1868562E+03  0.7546771E-02  0.1161328E+00
         21   -1    0    0  503  502  0.00000000000E+00  0.00000000000E+00  0.25753946666E+03  0.25753946666E+03  0.00000000000E+00 0. -1.
         21   -1    0    0  501  503 -0.00000000000E+00 -0.00000000000E+00 -0.30892235810E+03  0.30892235810E+03  0.00000000000E+00 0. -1.
          6    1    1    2  501    0  0.69476020892E+02  0.12622349310E+02 -0.23785845908E+03  0.30247625979E+03  0.17300000000E+03 0. -1.
         -6    1    1    2    0  502 -0.69476020892E+02 -0.12622349310E+02  0.18647556765E+03  0.26398556496E+03  0.17300000000E+03 0. -1.
<mgrwt>
<rscale>  2 0.18685620E+03</rscale>
<asrwt>0</asrwt>
<pdfrwt beam="1">  1       21 0.39621457E-01 0.18685620E+03</pdfrwt>
<pdfrwt beam="2">  1       21 0.47526516E-01 0.18685620E+03</pdfrwt>
<totfact> 0.26081569E+04</totfact>
</mgrwt>
</event>
<event>
 4    1  0.4173994E+000  0.2866027E+03  0.7546771E-02  0.1092136E+00
         21   -1    0    0  503  502  0.00000000000E+00  0.00000000000E+00  0.78626250296E+02  0.78626250296E+02  0.00000000000E+00 0.  1.
         21   -1    0    0  501  503 -0.00000000000E+00 -0.00000000000E+00 -0.10513316623E+04  0.10513316623E+04  0.00000000000E+00 0. -1.
          6    1    1    2  501    0  0.77046717468E+02  0.21511838546E+03 -0.44149263216E+03  0.52636191037E+03  0.17300000000E+03 0.  1.
         -6    1    1    2    0  502 -0.77046717468E+02 -0.21511838546E+03 -0.53121277981E+03  0.60359600219E+03  0.17300000000E+03 0. -1.
<mgrwt>
<rscale>  2 0.28660272E+03</rscale>
<asrwt>0</asrwt>
<pdfrwt beam="1">  1       21 0.12096346E-01 0.28660272E+03</pdfrwt>
<pdfrwt beam="2">  1       21 0.16174333E+00 0.28660272E+03</pdfrwt>
<totfact> 0.13339336E+04</totfact>
</mgrwt>
</event>
<event>
 4    1  0.4173994E+000  0.1788858E+03  0.7546771E-02  0.1168886E+00
         21   -1    0    0  501  502  0.00000000000E+00  0.00000000000E+00  0.14164342899E+03  0.14164342899E+03  0.00000000000E+00 0.  1.
         21   -1    0    0  502  503 -0.00000000000E+00 -0.00000000000E+00 -0.37718861812E+03  0.37718861812E+03  0.00000000000E+00 0.  1.
          6    1    1    2  501    0  0.30299710942E+02  0.33956562929E+02  0.46509999343E+02  0.18483316988E+03  0.17300000000E+03 0.  1.
         -6    1    1    2    0  503 -0.30299710942E+02 -0.33956562929E+02 -0.28205518847E+03  0.33399887724E+03  0.17300000000E+03 0.  1.
<mgrwt>
<rscale>  2 0.17888578E+03</rscale>
<asrwt>0</asrwt>
<pdfrwt beam="1">  1       21 0.21791296E-01 0.17888578E+03</pdfrwt>
<pdfrwt beam="2">  1       21 0.58029019E-01 0.17888578E+03</pdfrwt>
<totfact> 0.55049204E+04</totfact>
</mgrwt>
</event>
<event>
 4    1  0.4173994E+000  0.1761964E+03  0.7546771E-02  0.1171536E+00
         21   -1    0    0  501  502  0.00000000000E+00  0.00000000000E+00  0.37145842427E+03  0.37145842427E+03  0.00000000000E+00 0. -1.
         21   -1    0    0  502  503 -0.00000000000E+00 -0.00000000000E+00 -0.10146503645E+03  0.10146503645E+03  0.00000000000E+00 0. -1.
          6    1    1    2  501    0 -0.21798421693E+02  0.25318018016E+02  0.23428332436E+03  0.29314475826E+03  0.17300000000E+03 0.  1.
         -6    1    1    2    0  503  0.21798421693E+02 -0.25318018016E+02  0.35710063463E+02  0.17977870246E+03  0.17300000000E+03 0.  1.
<mgrwt>
<rscale>  2 0.17619641E+03</rscale>
<asrwt>0</asrwt>
<pdfrwt beam="1">  1       21 0.57147449E-01 0.17619641E+03</pdfrwt>
<pdfrwt beam="2">  1       21 0.15610006E-01 0.17619641E+03</pdfrwt>
<totfact> 0.10555143E+05</totfact>
</mgrwt>
</event>
<event>
 4    1  0.4173994E+000  0.2383183E+03  0.7546771E-02  0.1120918E+00
         21   -1    0    0  501  502  0.00000000000E+00  0.00000000000E+00  0.35168089866E+03  0.35168089866E+03  0.00000000000E+00 0. -1.
         21   -1    0    0  502  503 -0.00000000000E+00 -0.00000000000E+00 -0.55110717916E+03  0.55110717916E+03  0.00000000000E+00 0.  1.
          6    1    1    2  501    0  0.43100396318E+02  0.15814223746E+03  0.27982254293E+03  0.36755444081E+03  0.17300000000E+03 0. -1.
         -6    1    1    2    0  503 -0.43100396318E+02 -0.15814223746E+03 -0.47924882342E+03  0.53523363701E+03  0.17300000000E+03 0.  1.
<mgrwt>
<rscale>  2 0.23831830E+03</rscale>
<asrwt>0</asrwt>
<pdfrwt beam="1">  1       21 0.54104753E-01 0.23831830E+03</pdfrwt>
<pdfrwt beam="2">  1       21 0.84785720E-01 0.23831830E+03</pdfrwt>
<totfact> 0.37592952E+03</totfact>
</mgrwt>
</event>
<event>
 4    1  0.4173994E+000  0.2254258E+03  0.7546771E-02  0.1129901E+00
         21   -1    0    0  501  502  0.00000000000E+00  0.00000000000E+00  0.56001989086E+03  0.56001989086E+03  0.00000000000E+00 0. -1.
         21   -1    0    0  502  503 -0.00000000000E+00 -0.00000000000E+00 -0.30678254933E+03  0.30678254933E+03  0.00000000000E+00 0.  1.
          6    1    1    2  501    0 -0.13918639334E+03 -0.38921937128E+02  0.49031878486E+03  0.53965663164E+03  0.17300000000E+03 0. -1.
         -6    1    1    2    0  503  0.13918639334E+03  0.38921937128E+02 -0.23708144334E+03  0.32714580856E+03  0.17300000000E+03 0.  1.
<mgrwt>
<rscale>  2 0.22542575E+03</rscale>
<asrwt>0</asrwt>
<pdfrwt beam="1">  1       21 0.86156906E-01 0.22542575E+03</pdfrwt>
<pdfrwt beam="2">  1       21 0.47197316E-01 0.22542575E+03</pdfrwt>
<totfact> 0.48685279E+03</totfact>
</mgrwt>
</event>
<event>
 4    1  0.4173994E+000  0.1731944E+03  0.7546771E-02  0.1174557E+00
         21   -1    0    0  503  502  0.00000000000E+00  0.00000000000E+00  0.10523409856E+03  0.10523409856E+03  0.00000000000E+00 0.  1.
         21   -1    0    0  501  503 -0.00000000000E+00 -0.00000000000E+00 -0.45471766172E+03  0.45471766172E+03  0.00000000000E+00 0.  1.
          6    1    1    2  501    0 -0.63092872326E+01 -0.52445144740E+01 -0.34576590195E+03  0.38671743042E+03  0.17300000000E+03 0.  1.
         -6    1    1    2    0  502  0.63092872326E+01  0.52445144740E+01 -0.37176612023E+01  0.17323432986E+03  0.17300000000E+03 0.  1.
<mgrwt>
<rscale>  2 0.17319443E+03</rscale>
<asrwt>0</asrwt>
<pdfrwt beam="1">  1       21 0.16189862E-01 0.17319443E+03</pdfrwt>
<pdfrwt beam="2">  1       21 0.69956562E-01 0.17319443E+03</pdfrwt>
<totfact> 0.63873778E+04</totfact>
</mgrwt>
</event>
<event>
 4    1  0.4173994E+000  0.2566411E+03  0.7546771E-02  0.1109178E+00
         21   -1    0    0  501  502  0.00000000000E+00  0.00000000000E+00  0.66140350894E+02  0.66140350894E+02  0.00000000000E+00 0. -1.
         21   -1    0    0  502  503 -0.00000000000E+00 -0.00000000000E+00 -0.12147574727E+04  0.12147574727E+04  0.00000000000E+00 0.  1.
          6    1    1    2  501    0 -0.15101771499E+03 -0.11458313889E+03 -0.30242163171E+03  0.39664025172E+03  0.17300000000E+03 0. -1.
         -6    1    1    2    0  503  0.15101771499E+03  0.11458313889E+03 -0.84619549005E+03  0.88425757183E+03  0.17300000000E+03 0.  1.
<mgrwt>
<rscale>  2 0.25664108E+03</rscale>
<asrwt>0</asrwt>
<pdfrwt beam="1">  1       21 0.10175439E-01 0.25664108E+03</pdfrwt>
<pdfrwt beam="2">  1       21 0.18688576E+00 0.25664108E+03</pdfrwt>
<totfact> 0.12303191E+04</totfact>
</mgrwt>
</event>
<event>
 4    1  0.4173994E+000  0.2020704E+03  0.7546771E-02  0.1148004E+00
         21   -1    0    0  501  502  0.00000000000E+00  0.00000000000E+00  0.30410407861E+03  0.30410407861E+03  0.00000000000E+00 0. -1.
         21   -1    0    0  502  503 -0.00000000000E+00 -0.00000000000E+00 -0.14266135880E+03  0.14266135880E+03  0.00000000000E+00 0.  1.
          6    1    1    2  501    0  0.69324551529E+02 -0.78086945403E+02  0.13489370806E+03  0.24295838524E+03  0.17300000000E+03 0. -1.
         -6    1    1    2    0  503 -0.69324551529E+02  0.78086945403E+02  0.26549011749E+02  0.20380705216E+03  0.17300000000E+03 0. -1.
<mgrwt>
<rscale>  2 0.20207044E+03</rscale>
<asrwt>0</asrwt>
<pdfrwt beam="1">  1       21 0.46785243E-01 0.20207044E+03</pdfrwt>
<pdfrwt beam="2">  1       21 0.21947901E-01 0.20207044E+03</pdfrwt>
<totfact> 0.84467494E+04</totfact>
</mgrwt>
</event>
<event>
 4    1  0.4173994E+000  0.2512734E+03  0.7546771E-02  0.1112503E+00
         21   -1    0    0  503  502  0.00000000000E+00  0.00000000000E+00  0.75606210985E+03  0.75606210985E+03  0.00000000000E+00 0. -1.
         21   -1    0    0  501  503 -0.00000000000E+00 -0.00000000000E+00 -0.11616556619E+03  0.11616556619E+03  0.00000000000E+00 0. -1.
          6    1    1    2  501    0  0.12047696737E+02  0.18183555023E+03  0.88718594562E+02  0.26647570873E+03  0.17300000000E+03 0. -1.
         -6    1    1    2    0  502 -0.12047696737E+02 -0.18183555023E+03  0.55117794910E+03  0.60575196731E+03  0.17300000000E+03 0. -1.
<mgrwt>
<rscale>  2 0.25127339E+03</rscale>
<asrwt>0</asrwt>
<pdfrwt beam="1">  1       21 0.11631724E+00 0.25127339E+03</pdfrwt>
<pdfrwt beam="2">  1       21 0.17871626E-01 0.25127339E+03</pdfrwt>
<totfact> 0.15660942E+04</totfact>
</mgrwt>
</event>
<event>
 4    1  0.4173994E+000  0.2107562E+03  0.7546771E-02  0.1140969E+00
         21   -1    0    0  503  502  0.00000000000E+00  0.00000000000E+00  0.43228900379E+02  0.43228900379E+02  0.00000000000E+00 0.  1.
         21   -1    0    0  501  503 -0.00000000000E+00 -0.00000000000E+00 -0.11834496903E+04  0.11834496903E+04  0.00000000000E+00 0. -1.
          6    1    1    2  501    0 -0.35640739600E+01 -0.12031825823E+03 -0.79274995768E+03  0.82028695058E+03  0.17300000000E+03 0. -1.
         -6    1    1    2    0  502  0.35640739600E+01  0.12031825823E+03 -0.34747083225E+03  0.40639164011E+03  0.17300000000E+03 0.  1.
<mgrwt>
<rscale>  2 0.21075622E+03</rscale>
<asrwt>0</asrwt>
<pdfrwt beam="1">  1       21 0.66506008E-02 0.21075622E+03</pdfrwt>
<pdfrwt beam="2">  1       21 0.18206916E+00 0.21075622E+03</pdfrwt>
<totfact> 0.28756921E+04</totfact>
</mgrwt>
</event>
<event>
 4    1  0.4173994E+000  0.1931462E+03  0.7546771E-02  0.1155654E+00
         21   -1    0    0  501  502  0.00000000000E+00  0.00000000000E+00  0.89057683562E+03  0.89057683562E+03  0.00000000000E+00 0.  1.
         21   -1    0    0  502  503 -0.00000000000E+00 -0.00000000000E+00 -0.95068925622E+03  0.95068925622E+03  0.00000000000E+00 0.  1.
          6    1    1    2  501    0 -0.51621149398E+02 -0.68641863469E+02  0.87006597717E+03  0.89124646037E+03  0.17300000000E+03 0.  1.
         -6    1    1    2    0  503  0.51621149398E+02  0.68641863469E+02 -0.93017839777E+03  0.95001963146E+03  0.17300000000E+03 0.  1.
<mgrwt>
<rscale>  2 0.19314618E+03</rscale>
<asrwt>0</asrwt>
<pdfrwt beam="1">  1       21 0.13701182E+00 0.19314618E+03</pdfrwt>
<pdfrwt beam="2">  1       21 0.14625988E+00 0.19314618E+03</pdfrwt>
<totfact> 0.12073722E+02</totfact>
</mgrwt>
</event>
<event>
 4    1  0.4173994E+000  0.1892093E+03  0.7546771E-02  0.1159176E+00
         21   -1    0    0  503  502  0.00000000000E+00  0.00000000000E+00  0.24839696854E+04  0.24839696854E+04  0.00000000000E+00 0. -1.
         21   -1    0    0  501  503 -0.00000000000E+00 -0.00000000000E+00 -0.16806995560E+02  0.16806995560E+02  0.00000000000E+00 0.  1.
          6    1    1    2  501    0  0.76108090411E+02  0.88719130340E+01  0.76161708618E+03  0.78476795183E+03  0.17300000000E+03 0.  1.
         -6    1    1    2    0  502 -0.76108090411E+02 -0.88719130340E+01  0.17055456037E+04  0.17160087291E+04  0.17300000000E+03 0. -1.
<mgrwt>
<rscale>  2 0.18920928E+03</rscale>
<asrwt>0</asrwt>
<pdfrwt beam="1">  1       21 0.38214889E+00 0.18920928E+03</pdfrwt>
<pdfrwt beam="2">  1       21 0.25856936E-02 0.18920928E+03</pdfrwt>
<totfact> 0.91126446E+03</totfact>
</mgrwt>
</event>
<event>
 4    1  0.4173994E+000  0.2240997E+03  0.7546771E-02  0.1130863E+00
         21   -1    0    0  501  502  0.00000000000E+00  0.00000000000E+00  0.76650454853E+03  0.76650454853E+03  0.00000000000E+00 0.  1.
         21   -1    0    0  502  503 -0.00000000000E+00 -0.00000000000E+00 -0.67869694446E+02  0.67869694446E+02  0.00000000000E+00 0.  1.
          6    1    1    2  501    0  0.84021752002E+02  0.11503045384E+03  0.42695736493E+03  0.48219627911E+03  0.17300000000E+03 0.  1.
         -6    1    1    2    0  503 -0.84021752002E+02 -0.11503045384E+03  0.27167748915E+03  0.35217796386E+03  0.17300000000E+03 0.  1.
<mgrwt>
<rscale>  2 0.22409967E+03</rscale>
<asrwt>0</asrwt>
<pdfrwt beam="1">  1       21 0.11792377E+00 0.22409967E+03</pdfrwt>
<pdfrwt beam="2">  1       21 0.10441492E-01 0.22409967E+03</pdfrwt>
<totfact> 0.40760762E+04</totfact>
</mgrwt>
</event>
<event>
 4    1  0.4173994E+000  0.1925381E+03  0.7546771E-02  0.1156192E+00
         21   -1    0    0  503  502  0.00000000000E+00  0.00000000000E+00  0.13938398190E+03  0.13938398190E+03  0.00000000000E+00 0. -1.
         21   -1    0    0  501  503 -0.00000000000E+00 -0.00000000000E+00 -0.44299541508E+03  0.44299541508E+03  0.00000000000E+00 0. -1.
          6    1    1    2  501    0  0.76749032374E+02 -0.35376551007E+02 -0.33588435080E+03  0.38715528079E+03  0.17300000000E+03 0. -1.
         -6    1    1    2    0  502 -0.76749032374E+02  0.35376551007E+02  0.32272917618E+02  0.19522411619E+03  0.17300000000E+03 0. -1.
<mgrwt>
<rscale>  2 0.19253809E+03</rscale>
<asrwt>0</asrwt>
<pdfrwt beam="1">  1       21 0.21443689E-01 0.19253809E+03</pdfrwt>
<pdfrwt beam="2">  1       21 0.68153141E-01 0.19253809E+03</pdfrwt>
<totfact> 0.39812196E+04</totfact>
</mgrwt>
</event>
<event>
 4    1  0.4173994E+000  0.2112845E+03  0.7546771E-02  0.1140553E+00
         21   -1    0    0  501  502  0.00000000000E+00  0.00000000000E+00  0.15800513899E+03  0.15800513899E+03  0.00000000000E+00 0.  1.
         21   -1    0    0  502  503 -0.00000000000E+00 -0.00000000000E+00 -0.32348156277E+03  0.32348156277E+03  0.00000000000E+00 0. -1.
          6    1    1    2  501    0  0.10670336921E+03  0.57676102213E+02  0.29194977289E+01  0.21130467395E+03  0.17300000000E+03 0.  1.
         -6    1    1    2    0  503 -0.10670336921E+03 -0.57676102213E+02 -0.16839592151E+03  0.27018202780E+03  0.17300000000E+03 0. -1.
<mgrwt>
<rscale>  2 0.21128450E+03</rscale>
<asrwt>0</asrwt>
<pdfrwt beam="1">  1       21 0.24308483E-01 0.21128450E+03</pdfrwt>
<pdfrwt beam="2">  1       21 0.49766394E-01 0.21128450E+03</pdfrwt>
<totfact> 0.60959205E+04</totfact>
</mgrwt>
</event>
<event>
 4    1  0.4173994E+000  0.4469577E+03  0.7546771E-02  0.1028633E+00
         21   -1    0    0  501  502  0.00000000000E+00  0.00000000000E+00  0.57091627589E+03  0.57091627589E+03  0.00000000000E+00 0.  1.
         21   -1    0    0  502  503 -0.00000000000E+00 -0.00000000000E+00 -0.37249030549E+03  0.37249030549E+03  0.00000000000E+00 0. -1.
          6    1    1    2  501    0 -0.22887141216E+03  0.34272447588E+03  0.21534306661E+03  0.49612884013E+03  0.17300000000E+03 0.  1.
         -6    1    1    2    0  503  0.22887141216E+03 -0.34272447588E+03 -0.16917096207E+02  0.44727774125E+03  0.17300000000E+03 0. -1.
<mgrwt>
<rscale>  2 0.44695770E+03</rscale>
<asrwt>0</asrwt>
<pdfrwt beam="1">  1       21 0.87833273E-01 0.44695770E+03</pdfrwt>
<pdfrwt beam="2">  1       21 0.57306201E-01 0.44695770E+03</pdfrwt>
<totfact> 0.27637587E+03</totfact>
</mgrwt>
</event>
<event>
 4    1  0.4173994E+000  0.3023832E+03  0.7546771E-02  0.1084055E+00
         21   -1    0    0  503  502  0.00000000000E+00  0.00000000000E+00  0.12032214161E+03  0.12032214161E+03  0.00000000000E+00 0.  1.
         21   -1    0    0  501  503 -0.00000000000E+00 -0.00000000000E+00 -0.78240833226E+03  0.78240833226E+03  0.00000000000E+00 0.  1.
          6    1    1    2  501    0  0.22015647906E+03 -0.11418273566E+03 -0.40756050522E+03  0.50748511093E+03  0.17300000000E+03 0.  1.
         -6    1    1    2    0  502 -0.22015647906E+03  0.11418273566E+03 -0.25452568542E+03  0.39524536295E+03  0.17300000000E+03 0.  1.
<mgrwt>
<rscale>  2 0.30238315E+03</rscale>
<asrwt>0</asrwt>
<pdfrwt beam="1">  1       21 0.18511098E-01 0.30238315E+03</pdfrwt>
<pdfrwt beam="2">  1       21 0.12037051E+00 0.30238315E+03</pdfrwt>
<totfact> 0.13136488E+04</totfact>
</mgrwt>
</event>
<event>
 4    1  0.4173994E+000  0.1939818E+03  0.7546771E-02  0.1154918E+00
         21   -1    0    0  503  502  0.00000000000E+00  0.00000000000E+00  0.98677393089E+03  0.98677393089E+03  0.00000000000E+00 0.  1.
         21   -1    0    0  501  503 -0.00000000000E+00 -0.00000000000E+00 -0.28914918144E+03  0.28914918144E+03  0.00000000000E+00 0.  1.
          6    1    1    2  501    0  0.81277752302E+02 -0.33073450769E+02 -0.24559493650E+03  0.31296293551E+03  0.17300000000E+03 0.  1.
         -6    1    1    2    0  502 -0.81277752302E+02  0.33073450769E+02  0.94321968595E+03  0.96296017682E+03  0.17300000000E+03 0.  1.
<mgrwt>
<rscale>  2 0.19398177E+03</rscale>
<asrwt>0</asrwt>
<pdfrwt beam="1">  1       21 0.15181137E+00 0.19398177E+03</pdfrwt>
<pdfrwt beam="2">  1       21 0.44484490E-01 0.19398177E+03</pdfrwt>
<totfact> 0.14032763E+03</totfact>
</mgrwt>
</event>
<event>
 4    1  0.4173994E+000  0.1857679E+03  0.7546771E-02  0.1162335E+00
         21   -1    0    0  501  502  0.00000000000E+00  0.00000000000E+00  0.14321399803E+03  0.14321399803E+03  0.00000000000E+00 0.  1.
         21   -1    0    0  502  503 -0.00000000000E+00 -0.00000000000E+00 -0.24107115057E+03  0.24107115057E+03  0.00000000000E+00 0.  1.
          6    1    1    2  501    0 -0.67653189936E+02  0.19397391317E+01 -0.44917349112E+02  0.19112112638E+03  0.17300000000E+03 0.  1.
         -6    1    1    2    0  503  0.67653189936E+02 -0.19397391317E+01 -0.52939803425E+02  0.19316402223E+03  0.17300000000E+03 0.  1.
<mgrwt>
<rscale>  2 0.18576791E+03</rscale>
<asrwt>0</asrwt>
<pdfrwt beam="1">  1       21 0.22032923E-01 0.18576791E+03</pdfrwt>
<pdfrwt beam="2">  1       21 0.37087869E-01 0.18576791E+03</pdfrwt>
<totfact> 0.13527486E+05</totfact>
</mgrwt>
</event>
<event>
 4    1  0.4173994E+000  0.2172419E+03  0.7546771E-02  0.1135956E+00
         21   -1    0    0  503  502  0.00000000000E+00  0.00000000000E+00  0.12118257668E+04  0.12118257668E+04  0.00000000000E+00 0. -1.
         21   -1    0    0  501  503 -0.00000000000E+00 -0.00000000000E+00 -0.76024038248E+02  0.76024038248E+02  0.00000000000E+00 0.  1.
          6    1    1    2  501    0  0.10719985183E+03  0.75981836641E+02  0.11819719311E+03  0.24731482808E+03  0.17300000000E+03 0.  1.
         -6    1    1    2    0  502 -0.10719985183E+03 -0.75981836641E+02  0.10176045355E+04  0.10405349770E+04  0.17300000000E+03 0. -1.
<mgrwt>
<rscale>  2 0.21724191E+03</rscale>
<asrwt>0</asrwt>
<pdfrwt beam="1">  1       21 0.18643472E+00 0.21724191E+03</pdfrwt>
<pdfrwt beam="2">  1       21 0.11696007E-01 0.21724191E+03</pdfrwt>
<totfact> 0.99228038E+03</totfact>
</mgrwt>
</event>
<event>
 4    1  0.4173994E+000  0.1860806E+03  0.7546771E-02  0.1162045E+00
         21   -1    0    0  503  502  0.00000000000E+00  0.00000000000E+00  0.10588724620E+03  0.10588724620E+03  0.00000000000E+00 0.  1.
         21   -1    0    0  501  503 -0.00000000000E+00 -0.00000000000E+00 -0.83163759035E+03  0.83163759035E+03  0.00000000000E+00 0.  1.
          6    1    1    2  501    0  0.68320820333E+02  0.54094106376E+01 -0.72802576246E+03  0.75143030750E+03  0.17300000000E+03 0.  1.
         -6    1    1    2    0  502 -0.68320820333E+02 -0.54094106376E+01  0.22754183217E+01  0.18609452905E+03  0.17300000000E+03 0.  1.
<mgrwt>
<rscale>  2 0.18608062E+03</rscale>
<asrwt>0</asrwt>
<pdfrwt beam="1">  1       21 0.16290346E-01 0.18608062E+03</pdfrwt>
<pdfrwt beam="2">  1       21 0.12794424E+00 0.18608062E+03</pdfrwt>
<totfact> 0.15248537E+04</totfact>
</mgrwt>
</event>
<event>
 4    1  0.4173994E+000  0.2174694E+03  0.7546771E-02  0.1135784E+00
         21   -1    0    0  503  502  0.00000000000E+00  0.00000000000E+00  0.12754216756E+03  0.12754216756E+03  0.00000000000E+00 0. -1.
         21   -1    0    0  501  503 -0.00000000000E+00 -0.00000000000E+00 -0.37347433211E+03  0.37347433211E+03  0.00000000000E+00 0. -1.
          6    1    1    2  501    0  0.11496164473E+03  0.64403022365E+02 -0.14415518220E+03  0.26090926699E+03  0.17300000000E+03 0. -1.
         -6    1    1    2    0  502 -0.11496164473E+03 -0.64403022365E+02 -0.10177698235E+03  0.24010723268E+03  0.17300000000E+03 0. -1.
<mgrwt>
<rscale>  2 0.21746937E+03</rscale>
<asrwt>0</asrwt>
<pdfrwt beam="1">  1       21 0.19621872E-01 0.21746937E+03</pdfrwt>
<pdfrwt beam="2">  1       21 0.57457590E-01 0.21746937E+03</pdfrwt>
<totfact> 0.67252673E+04</totfact>
</mgrwt>
</event>
<event>
 4    1  0.4173994E+000  0.3615079E+03  0.7546771E-02  0.1057988E+00
         21   -1    0    0  501  502  0.00000000000E+00  0.00000000000E+00  0.58433979821E+03  0.58433979821E+03  0.00000000000E+00 0. -1.
         21   -1    0    0  502  503 -0.00000000000E+00 -0.00000000000E+00 -0.24596038488E+03  0.24596038488E+03  0.00000000000E+00 0.  1.
          6    1    1    2  501    0  0.31237119456E+03  0.56420061029E+02  0.29422124685E+03  0.46610527628E+03  0.17300000000E+03 0. -1.
         -6    1    1    2    0  503 -0.31237119456E+03 -0.56420061029E+02  0.44158166482E+02  0.36419490681E+03  0.17300000000E+03 0.  1.
<mgrwt>
<rscale>  2 0.36150793E+03</rscale>
<asrwt>0</asrwt>
<pdfrwt beam="1">  1       21 0.89898430E-01 0.36150793E+03</pdfrwt>
<pdfrwt beam="2">  1       21 0.37840059E-01 0.36150793E+03</pdfrwt>
<totfact> 0.64656837E+03</totfact>
</mgrwt>
</event>
<event>
 4    1  0.4173994E+000  0.2243574E+03  0.7546771E-02  0.1130676E+00
         21   -1    0    0  501  502  0.00000000000E+00  0.00000000000E+00  0.16401178262E+03  0.16401178262E+03  0.00000000000E+00 0. -1.
         21   -1    0    0  502  503 -0.00000000000E+00 -0.00000000000E+00 -0.30698179245E+03  0.30698179245E+03  0.00000000000E+00 0. -1.
          6    1    1    2  501    0  0.19864208163E+02 -0.14146609875E+03 -0.67791175079E+02  0.23437552619E+03  0.17300000000E+03 0.  1.
         -6    1    1    2    0  503 -0.19864208163E+02  0.14146609875E+03 -0.75178834742E+02  0.23661804887E+03  0.17300000000E+03 0.  1.
<mgrwt>
<rscale>  2 0.22435740E+03</rscale>
<asrwt>0</asrwt>
<pdfrwt beam="1">  1       21 0.25232582E-01 0.22435740E+03</pdfrwt>
<pdfrwt beam="2">  1       21 0.47227968E-01 0.22435740E+03</pdfrwt>
<totfact> 0.62942469E+04</totfact>
</mgrwt>
</event>
<event>
 4    1  0.4173994E+000  0.1777407E+03  0.7546771E-02  0.1170008E+00
         21   -1    0    0  501  502  0.00000000000E+00  0.00000000000E+00  0.77897981064E+03  0.77897981064E+03  0.00000000000E+00 0. -1.
         21   -1    0    0  502  503 -0.00000000000E+00 -0.00000000000E+00 -0.86907444904E+02  0.86907444904E+02  0.00000000000E+00 0. -1.
          6    1    1    2  501    0 -0.22928531128E+02 -0.33719863598E+02  0.66221870398E+03  0.68565688113E+03  0.17300000000E+03 0. -1.
         -6    1    1    2    0  503  0.22928531128E+02  0.33719863598E+02  0.29853661756E+02  0.18023037441E+03  0.17300000000E+03 0. -1.
<mgrwt>
<rscale>  2 0.17774067E+03</rscale>
<asrwt>0</asrwt>
<pdfrwt beam="1">  1       21 0.11984304E+00 0.17774067E+03</pdfrwt>
<pdfrwt beam="2">  1       21 0.13370377E-01 0.17774067E+03</pdfrwt>
<totfact> 0.25834212E+04</totfact>
</mgrwt>
</event>
<event>
 4    1  0.4173994E+000  0.2060225E+03  0.7546771E-02  0.1144755E+00
         21   -1    0    0  503  502  0.00000000000E+00  0.00000000000E+00  0.81524954161E+02  0.81524954161E+02  0.00000000000E+00 0. -1.
         21   -1    0    0  501  503 -0.00000000000E+00 -0.00000000000E+00 -0.52106978167E+03  0.52106978167E+03  0.00000000000E+00 0. -1.
          6    1    1    2  501    0  0.86060014322E+02 -0.71483931019E+02 -0.21113493431E+03  0.29499701515E+03  0.17300000000E+03 0. -1.
         -6    1    1    2    0  502 -0.86060014322E+02  0.71483931019E+02 -0.22840989319E+03  0.30759772068E+03  0.17300000000E+03 0. -1.
<mgrwt>
<rscale>  2 0.20602252E+03</rscale>
<asrwt>0</asrwt>
<pdfrwt beam="1">  1       21 0.12542301E-01 0.20602252E+03</pdfrwt>
<pdfrwt beam="2">  1       21 0.80164578E-01 0.20602252E+03</pdfrwt>
<totfact> 0.73769291E+04</totfact>
</mgrwt>
</event>
<event>
 4    1  0.4173994E+000  0.1867757E+03  0.7546771E-02  0.1161402E+00
         21   -1    0    0  503  502  0.00000000000E+00  0.00000000000E+00  0.15043985361E+03  0.15043985361E+03  0.00000000000E+00 0.  1.
         21   -1    0    0  501  503 -0.00000000000E+00 -0.00000000000E+00 -0.31639951549E+03  0.31639951549E+03  0.00000000000E+00 0.  1.
          6    1    1    2  501    0 -0.68511718156E+01 -0.70065816888E+02 -0.20361618210E+03  0.27630545935E+03  0.17300000000E+03 0. -1.
         -6    1    1    2    0  502  0.68511718156E+01  0.70065816888E+02  0.37656520217E+02  0.19053390975E+03  0.17300000000E+03 0. -1.
<mgrwt>
<rscale>  2 0.18677569E+03</rscale>
<asrwt>0</asrwt>
<pdfrwt beam="1">  1       21 0.23144593E-01 0.18677569E+03</pdfrwt>
<pdfrwt beam="2">  1       21 0.48676848E-01 0.18677569E+03</pdfrwt>
<totfact> 0.70843003E+04</totfact>
</mgrwt>
</event>
<event>
 4    1  0.4173994E+000  0.1857631E+03  0.7546771E-02  0.1162339E+00
         21   -1    0    0  503  502  0.00000000000E+00  0.00000000000E+00  0.12423178442E+04  0.12423178442E+04  0.00000000000E+00 0. -1.
         21   -1    0    0  501  503 -0.00000000000E+00 -0.00000000000E+00 -0.28317377555E+02  0.28317377555E+02  0.00000000000E+00 0. -1.
          6    1    1    2  501    0 -0.45171045485E+02 -0.50383537300E+02  0.69475953545E+03  0.71916530525E+03  0.17300000000E+03 0. -1.
         -6    1    1    2    0  502  0.45171045485E+02  0.50383537300E+02  0.51924093122E+03  0.55146991653E+03  0.17300000000E+03 0. -1.
<mgrwt>
<rscale>  2 0.18576309E+03</rscale>
<asrwt>0</asrwt>
<pdfrwt beam="1">  1       21 0.19112578E+00 0.18576309E+03</pdfrwt>
<pdfrwt beam="2">  1       21 0.43565206E-02 0.18576309E+03</pdfrwt>
<totfact> 0.52281258E+04</totfact>
</mgrwt>
</event>
<event>
 4    1  0.4173994E+000  0.1982085E+03  0.7546771E-02  0.1151259E+00
         21   -1    0    0  503  502  0.00000000000E+00  0.00000000000E+00  0.40144232313E+02  0.40144232313E+02  0.00000000000E+00 0.  1.
         21   -1    0    0  501  503 -0.00000000000E+00 -0.00000000000E+00 -0.11896233727E+04  0.11896233727E+04  0.00000000000E+00 0. -1.
          6    1    1    2  501    0 -0.60658581833E+01  0.96544421138E+02 -0.31578963986E+03  0.37284006831E+03  0.17300000000E+03 0. -1.
         -6    1    1    2    0  502  0.60658581833E+01 -0.96544421138E+02 -0.83368950056E+03  0.85692753675E+03  0.17300000000E+03 0. -1.
<mgrwt>
<rscale>  2 0.19820853E+03</rscale>
<asrwt>0</asrwt>
<pdfrwt beam="1">  1       21 0.61760366E-02 0.19820853E+03</pdfrwt>
<pdfrwt beam="2">  1       21 0.18301896E+00 0.19820853E+03</pdfrwt>
<totfact> 0.32453233E+04</totfact>
</mgrwt>
</event>
<event>
 4    1  0.4173994E+000  0.3134844E+03  0.7546771E-02  0.1078688E+00
         21   -1    0    0  503  502  0.00000000000E+00  0.00000000000E+00  0.14024261512E+03  0.14024261512E+03  0.00000000000E+00 0. -1.
         21   -1    0    0  501  503 -0.00000000000E+00 -0.00000000000E+00 -0.70144870222E+03  0.70144870222E+03  0.00000000000E+00 0. -1.
          6    1    1    2  501    0  0.25977347276E+03 -0.29346153745E+02 -0.29405756739E+03  0.42981659674E+03  0.17300000000E+03 0. -1.
         -6    1    1    2    0  502 -0.25977347276E+03  0.29346153745E+02 -0.26714851971E+03  0.41187472060E+03  0.17300000000E+03 0. -1.
<mgrwt>
<rscale>  2 0.31348438E+03</rscale>
<asrwt>0</asrwt>
<pdfrwt beam="1">  1       21 0.21575787E-01 0.31348438E+03</pdfrwt>
<pdfrwt beam="2">  1       21 0.10791519E+00 0.31348438E+03</pdfrwt>
<totfact> 0.12826261E+04</totfact>
</mgrwt>
</event>
<event>
 4    1  0.4173994E+000  0.2283838E+03  0.7546771E-02  0.1127783E+00
         21   -1    0    0  501  502  0.00000000000E+00  0.00000000000E+00  0.33972666502E+03  0.33972666502E+03  0.00000000000E+00 0.  1.
         21   -1    0    0  502  503 -0.00000000000E+00 -0.00000000000E+00 -0.16440224308E+03  0.16440224308E+03  0.00000000000E+00 0.  1.
          6    1    1    2  501    0 -0.10349237163E+03  0.10732883814E+03  0.15247541309E+03  0.27460499282E+03  0.17300000000E+03 0.  1.
         -6    1    1    2    0  503  0.10349237163E+03 -0.10732883814E+03  0.22849008851E+02  0.22952391528E+03  0.17300000000E+03 0.  1.
<mgrwt>
<rscale>  2 0.22838378E+03</rscale>
<asrwt>0</asrwt>
<pdfrwt beam="1">  1       21 0.52265641E-01 0.22838378E+03</pdfrwt>
<pdfrwt beam="2">  1       21 0.25292653E-01 0.22838378E+03</pdfrwt>
<totfact> 0.50600216E+04</totfact>
</mgrwt>
</event>
<event>
 4    1  0.4173994E+000  0.2379641E+03  0.7546771E-02  0.1121157E+00
         21   -1    0    0  501  502  0.00000000000E+00  0.00000000000E+00  0.11803182985E+04  0.11803182985E+04  0.00000000000E+00 0. -1.
         21   -1    0    0  502  503 -0.00000000000E+00 -0.00000000000E+00 -0.48524459293E+02  0.48524459293E+02  0.00000000000E+00 0. -1.
          6    1    1    2  501    0 -0.52086183843E+02 -0.15487077740E+03  0.63121985547E+03  0.67458537946E+03  0.17300000000E+03 0. -1.
         -6    1    1    2    0  503  0.52086183843E+02  0.15487077740E+03  0.50057398370E+03  0.55425737830E+03  0.17300000000E+03 0. -1.
<mgrwt>
<rscale>  2 0.23796413E+03</rscale>
<asrwt>0</asrwt>
<pdfrwt beam="1">  1       21 0.18158741E+00 0.23796413E+03</pdfrwt>
<pdfrwt beam="2">  1       21 0.74653024E-02 0.23796413E+03</pdfrwt>
<totfact> 0.23314137E+04</totfact>
</mgrwt>
</event>
<event>
 4    1  0.4173994E+000  0.2211654E+03  0.7546771E-02  0.1133017E+00
         21   -1    0    0  503  502  0.00000000000E+00  0.00000000000E+00  0.49209069797E+02  0.49209069797E+02  0.00000000000E+00 0. -1.
         21   -1    0    0  501  503 -0.00000000000E+00 -0.00000000000E+00 -0.99416277622E+03  0.99416277622E+03  0.00000000000E+00 0. -1.
          6    1    1    2  501    0  0.13352753459E+02  0.13713794977E+03 -0.47902691761E+03  0.52761813946E+03  0.17300000000E+03 0. -1.
         -6    1    1    2    0  502 -0.13352753459E+02 -0.13713794977E+03 -0.46592678882E+03  0.51575370656E+03  0.17300000000E+03 0. -1.
<mgrwt>
<rscale>  2 0.22116535E+03</rscale>
<asrwt>0</asrwt>
<pdfrwt beam="1">  1       21 0.75706260E-02 0.22116535E+03</pdfrwt>
<pdfrwt beam="2">  1       21 0.15294812E+00 0.22116535E+03</pdfrwt>
<totfact> 0.36877569E+04</totfact>
</mgrwt>
</event>
<event>
 4    1  0.4173994E+000  0.2207721E+03  0.7546771E-02  0.1133309E+00
         21   -1    0    0  501  502  0.00000000000E+00  0.00000000000E+00  0.34166881772E+03  0.34166881772E+03  0.00000000000E+00 0. -1.
         21   -1    0    0  502  503 -0.00000000000E+00 -0.00000000000E+00 -0.18933250003E+03  0.18933250003E+03  0.00000000000E+00 0. -1.
          6    1    1    2  501    0  0.20563096199E+02 -0.13560405236E+03  0.20799782339E+03  0.30332061334E+03  0.17300000000E+03 0. -1.
         -6    1    1    2    0  503 -0.20563096199E+02  0.13560405236E+03 -0.55661505704E+02  0.22768070440E+03  0.17300000000E+03 0. -1.
<mgrwt>
<rscale>  2 0.22077205E+03</rscale>
<asrwt>0</asrwt>
<pdfrwt beam="1">  1       21 0.52564434E-01 0.22077205E+03</pdfrwt>
<pdfrwt beam="2">  1       21 0.29128077E-01 0.22077205E+03</pdfrwt>
<totfact> 0.38182294E+04</totfact>
</mgrwt>
</event>
<event>
 4    1  0.4173994E+000  0.1897225E+03  0.7546771E-02  0.1158712E+00
         21   -1    0    0  501  502  0.00000000000E+00  0.00000000000E+00  0.35210573406E+03  0.35210573406E+03  0.00000000000E+00 0. -1.
         21   -1    0    0  502  503 -0.00000000000E+00 -0.00000000000E+00 -0.15164091325E+03  0.15164091325E+03  0.00000000000E+00 0.  1.
          6    1    1    2  501    0 -0.77639758808E+02  0.61402733287E+01  0.24401277226E+03  0.30909038828E+03  0.17300000000E+03 0. -1.
         -6    1    1    2    0  503  0.77639758808E+02 -0.61402733287E+01 -0.43547951447E+02  0.19465625903E+03  0.17300000000E+03 0.  1.
<mgrwt>
<rscale>  2 0.18972252E+03</rscale>
<asrwt>0</asrwt>
<pdfrwt beam="1">  1       21 0.54170113E-01 0.18972252E+03</pdfrwt>
<pdfrwt beam="2">  1       21 0.23329371E-01 0.18972252E+03</pdfrwt>
<totfact> 0.55724296E+04</totfact>
</mgrwt>
</event>
<event>
 4    1  0.4173994E+000  0.2202379E+03  0.7546771E-02  0.1133706E+00
         21   -1    0    0  501  502  0.00000000000E+00  0.00000000000E+00  0.17906286981E+03  0.17906286981E+03  0.00000000000E+00 0. -1.
         21   -1    0    0  502  503 -0.00000000000E+00 -0.00000000000E+00 -0.30615247407E+03  0.30615247407E+03  0.00000000000E+00 0. -1.
          6    1    1    2  501    0  0.85080106557E+02 -0.10647580047E+03  0.18802190897E+02  0.22103900787E+03  0.17300000000E+03 0. -1.
         -6    1    1    2    0  503 -0.85080106557E+02  0.10647580047E+03 -0.14589179516E+03  0.26417633602E+03  0.17300000000E+03 0. -1.
<mgrwt>
<rscale>  2 0.22023787E+03</rscale>
<asrwt>0</asrwt>
<pdfrwt beam="1">  1       21 0.27548134E-01 0.22023787E+03</pdfrwt>
<pdfrwt beam="2">  1       21 0.47100380E-01 0.22023787E+03</pdfrwt>
<totfact> 0.53540501E+04</totfact>
</mgrwt>
</event>
<event>
 4    1  0.4173994E+000  0.1845410E+03  0.7546771E-02  0.1163479E+00
         21   -1    0    0  501  502  0.00000000000E+00  0.00000000000E+00  0.10899265864E+04  0.10899265864E+04  0.00000000000E+00 0. -1.
         21   -1    0    0  502  503 -0.00000000000E+00 -0.00000000000E+00 -0.38928065482E+02  0.38928065482E+02  0.00000000000E+00 0. -1.
          6    1    1    2  501    0  0.32831939725E+02  0.55212787088E+02  0.77624149987E+03  0.79787608953E+03  0.17300000000E+03 0. -1.
         -6    1    1    2    0  503 -0.32831939725E+02 -0.55212787088E+02  0.27475702107E+03  0.33097856238E+03  0.17300000000E+03 0. -1.
<mgrwt>
<rscale>  2 0.18454102E+03</rscale>
<asrwt>0</asrwt>
<pdfrwt beam="1">  1       21 0.16768099E+00 0.18454102E+03</pdfrwt>
<pdfrwt beam="2">  1       21 0.59889340E-02 0.18454102E+03</pdfrwt>
<totfact> 0.44044348E+04</totfact>
</mgrwt>
</event>
<event>
 4    1  0.4173994E+000  0.1896439E+03  0.7546771E-02  0.1158783E+00
         21   -1    0    0  501  502  0.00000000000E+00  0.00000000000E+00  0.98010651040E+02  0.98010651040E+02  0.00000000000E+00 0.  1.
         21   -1    0    0  502  503 -0.00000000000E+00 -0.00000000000E+00 -0.52318735120E+03  0.52318735120E+03  0.00000000000E+00 0.  1.
          6    1    1    2  501    0  0.19248443756E+02 -0.75268140486E+02 -0.42855115046E+02  0.19442570932E+03  0.17300000000E+03 0.  1.
         -6    1    1    2    0  503 -0.19248443756E+02  0.75268140486E+02 -0.38232158512E+03  0.42677229292E+03  0.17300000000E+03 0.  1.
<mgrwt>
<rscale>  2 0.18964387E+03</rscale>
<asrwt>0</asrwt>
<pdfrwt beam="1">  1       21 0.15078561E-01 0.18964387E+03</pdfrwt>
<pdfrwt beam="2">  1       21 0.80490363E-01 0.18964387E+03</pdfrwt>
<totfact> 0.52784823E+04</totfact>
</mgrwt>
</event>
<event>
 4    1  0.4173994E+000  0.1769864E+03  0.7546771E-02  0.1170752E+00
         21   -1    0    0  503  502  0.00000000000E+00  0.00000000000E+00  0.59459970535E+02  0.59459970535E+02  0.00000000000E+00 0. -1.
         21   -1    0    0  501  503 -0.00000000000E+00 -0.00000000000E+00 -0.82321041253E+03  0.82321041253E+03  0.00000000000E+00 0. -1.
          6    1    1    2  501    0 -0.32988095966E+02 -0.17521082657E+02 -0.64669557009E+03  0.67047696694E+03  0.17300000000E+03 0. -1.
         -6    1    1    2    0  502  0.32988095966E+02  0.17521082657E+02 -0.11705487190E+03  0.21219341613E+03  0.17300000000E+03 0. -1.
<mgrwt>
<rscale>  2 0.17698645E+03</rscale>
<asrwt>0</asrwt>
<pdfrwt beam="1">  1       21 0.91476886E-02 0.17698645E+03</pdfrwt>
<pdfrwt beam="2">  1       21 0.12664774E+00 0.17698645E+03</pdfrwt>
<totfact> 0.44199607E+04</totfact>
</mgrwt>
</event>
<event>
 4    1  0.4173994E+000  0.2097088E+03  0.7546771E-02  0.1141797E+00
         21   -1    0    0  501  502  0.00000000000E+00  0.00000000000E+00  0.52123351771E+02  0.52123351771E+02  0.00000000000E+00 0.  1.
         21   -1    0    0  502  503 -0.00000000000E+00 -0.00000000000E+00 -0.94596277504E+03  0.94596277504E+03  0.00000000000E+00 0.  1.
          6    1    1    2  501    0 -0.98897030688E+02  0.65331232994E+02 -0.28285847789E+03  0.35211746790E+03  0.17300000000E+03 0.  1.
         -6    1    1    2    0  503  0.98897030688E+02 -0.65331232994E+02 -0.61098094538E+03  0.64596865891E+03  0.17300000000E+03 0.  1.
<mgrwt>
<rscale>  2 0.20970883E+03</rscale>
<asrwt>0</asrwt>
<pdfrwt beam="1">  1       21 0.80189779E-02 0.20970883E+03</pdfrwt>
<pdfrwt beam="2">  1       21 0.14553272E+00 0.20970883E+03</pdfrwt>
<totfact> 0.38282711E+04</totfact>
</mgrwt>
</event>
<event>
 4    1  0.4173994E+000  0.1827542E+03  0.7546771E-02  0.1165164E+00
         21   -1    0    0  501  502  0.00000000000E+00  0.00000000000E+00  0.33312737562E+03  0.33312737562E+03  0.00000000000E+00 0.  1.
         21   -1    0    0  502  503 -0.00000000000E+00 -0.00000000000E+00 -0.10144550130E+03  0.10144550130E+03  0.00000000000E+00 0.  1.
          6    1    1    2  501    0 -0.58253990130E+02 -0.87498628295E+01  0.13933791036E+03  0.22981327362E+03  0.17300000000E+03 0. -1.
         -6    1    1    2    0  503  0.58253990130E+02  0.87498628295E+01  0.92343963959E+02  0.20475960330E+03  0.17300000000E+03 0. -1.
<mgrwt>
<rscale>  2 0.18275417E+03</rscale>
<asrwt>0</asrwt>
<pdfrwt beam="1">  1       21 0.51250365E-01 0.18275417E+03</pdfrwt>
<pdfrwt beam="2">  1       21 0.15607000E-01 0.18275417E+03</pdfrwt>
<totfact> 0.13249839E+05</totfact>
</mgrwt>
</event>
<event>
 4    1  0.4173994E+000  0.1859138E+03  0.7546771E-02  0.1162199E+00
         21   -1    0    0  501  502  0.00000000000E+00  0.00000000000E+00  0.11426485114E+04  0.11426485114E+04  0.00000000000E+00 0. -1.
         21   -1    0    0  502  503 -0.00000000000E+00 -0.00000000000E+00 -0.23213300293E+03  0.23213300293E+03  0.00000000000E+00 0.  1.
          6    1    1    2  501    0  0.22198628979E+02 -0.64359731704E+02  0.10962993583E+04  0.11119515444E+04  0.17300000000E+03 0. -1.
         -6    1    1    2    0  503 -0.22198628979E+02  0.64359731704E+02 -0.18578384985E+03  0.26282996987E+03  0.17300000000E+03 0.  1.
<mgrwt>
<rscale>  2 0.18591384E+03</rscale>
<asrwt>0</asrwt>
<pdfrwt beam="1">  1       21 0.17579208E+00 0.18591384E+03</pdfrwt>
<pdfrwt beam="2">  1       21 0.35712770E-01 0.18591384E+03</pdfrwt>
<totfact> 0.14806259E+03</totfact>
</mgrwt>
</event>
<event>
 4    1  0.4173994E+000  0.2051355E+03  0.7546771E-02  0.1145477E+00
         21   -1    0    0  501  502  0.00000000000E+00  0.00000000000E+00  0.16972302528E+03  0.16972302528E+03  0.00000000000E+00 0.  1.
         21   -1    0    0  502  503 -0.00000000000E+00 -0.00000000000E+00 -0.30033528720E+03  0.30033528720E+03  0.00000000000E+00 0.  1.
          6    1    1    2  501    0  0.60737176995E+02  0.91992256893E+02  0.32863696387E+02  0.20775129973E+03  0.17300000000E+03 0.  1.
         -6    1    1    2    0  503 -0.60737176995E+02 -0.91992256893E+02 -0.16347595831E+03  0.26230701276E+03  0.17300000000E+03 0.  1.
<mgrwt>
<rscale>  2 0.20513552E+03</rscale>
<asrwt>0</asrwt>
<pdfrwt beam="1">  1       21 0.26111235E-01 0.20513552E+03</pdfrwt>
<pdfrwt beam="2">  1       21 0.46205429E-01 0.20513552E+03</pdfrwt>
<totfact> 0.62189313E+04</totfact>
</mgrwt>
</event>
<event>
 4    1  0.4173994E+000  0.1762916E+03  0.7546771E-02  0.1171441E+00
         21   -1    0    0  501  502  0.00000000000E+00  0.00000000000E+00  0.57615668751E+03  0.57615668751E+03  0.00000000000E+00 0. -1.
         21   -1    0    0  502  503 -0.00000000000E+00 -0.00000000000E+00 -0.56165070888E+02  0.56165070888E+02  0.00000000000E+00 0. -1.
          6    1    1    2  501    0  0.31822831479E+02  0.11706790876E+02  0.32290337780E+03  0.36789309989E+03  0.17300000000E+03 0. -1.
         -6    1    1    2    0  503 -0.31822831479E+02 -0.11706790876E+02  0.19708823882E+03  0.26442865851E+03  0.17300000000E+03 0. -1.
<mgrwt>
<rscale>  2 0.17629164E+03</rscale>
<asrwt>0</asrwt>
<pdfrwt beam="1">  1       21 0.88639486E-01 0.17629164E+03</pdfrwt>
<pdfrwt beam="2">  1       21 0.86407806E-02 0.17629164E+03</pdfrwt>
<totfact> 0.11488413E+05</totfact>
</mgrwt>
</event>
<event>
 4    1  0.4173994E+000  0.1941365E+03  0.7546771E-02  0.1154783E+00
         21   -1    0    0  501  502  0.00000000000E+00  0.00000000000E+00  0.47281983297E+02  0.47281983297E+02  0.00000000000E+00 0. -1.
         21   -1    0    0  502  503 -0.00000000000E+00 -0.00000000000E+00 -0.79923233305E+03  0.79923233305E+03  0.00000000000E+00 0. -1.
          6    1    1    2  501    0  0.36905940768E+02  0.79987066813E+02 -0.35416831445E+03  0.40388633832E+03  0.17300000000E+03 0. -1.
         -6    1    1    2    0  503 -0.36905940768E+02 -0.79987066813E+02 -0.39778203531E+03  0.44262797803E+03  0.17300000000E+03 0. -1.
<mgrwt>
<rscale>  2 0.19413650E+03</rscale>
<asrwt>0</asrwt>
<pdfrwt beam="1">  1       21 0.72741510E-02 0.19413650E+03</pdfrwt>
<pdfrwt beam="2">  1       21 0.12295882E+00 0.19413650E+03</pdfrwt>
<totfact> 0.70306931E+04</totfact>
</mgrwt>
</event>
<event>
 4    1  0.4173994E+000  0.2686995E+03  0.7546771E-02  0.1102026E+00
         21   -1    0    0  501  502  0.00000000000E+00  0.00000000000E+00  0.48165362064E+03  0.48165362064E+03  0.00000000000E+00 0. -1.
         21   -1    0    0  502  503 -0.00000000000E+00 -0.00000000000E+00 -0.32907710902E+03  0.32907710902E+03  0.00000000000E+00 0. -1.
          6    1    1    2  501    0 -0.20207561153E+03 -0.37893158544E+02  0.37540460785E+03  0.46165795113E+03  0.17300000000E+03 0. -1.
         -6    1    1    2    0  503  0.20207561153E+03  0.37893158544E+02 -0.22282809623E+03  0.34907277853E+03  0.17300000000E+03 0. -1.
<mgrwt>
<rscale>  2 0.26869954E+03</rscale>
<asrwt>0</asrwt>
<pdfrwt beam="1">  1       21 0.74100557E-01 0.26869954E+03</pdfrwt>
<pdfrwt beam="2">  1       21 0.50627247E-01 0.26869954E+03</pdfrwt>
<totfact> 0.57668716E+03</totfact>
</mgrwt>
</event>
<event>
 4    1  0.4173994E+000  0.1789014E+03  0.7546771E-02  0.1168871E+00
         21   -1    0    0  501  502  0.00000000000E+00  0.00000000000E+00  0.73069962762E+03  0.73069962762E+03  0.00000000000E+00 0.  1.
         21   -1    0    0  502  503 -0.00000000000E+00 -0.00000000000E+00 -0.57308930469E+02  0.57308930469E+02  0.00000000000E+00 0.  1.
          6    1    1    2  501    0  0.44289048297E+02  0.10732706558E+02  0.52797853335E+03  0.55746483518E+03  0.17300000000E+03 0.  1.
         -6    1    1    2    0  503 -0.44289048297E+02 -0.10732706558E+02  0.14541216380E+03  0.23054372290E+03  0.17300000000E+03 0.  1.
<mgrwt>
<rscale>  2 0.17890140E+03</rscale>
<asrwt>0</asrwt>
<pdfrwt beam="1">  1       21 0.11241532E+00 0.17890140E+03</pdfrwt>
<pdfrwt beam="2">  1       21 0.88167591E-02 0.17890140E+03</pdfrwt>
<totfact> 0.63164711E+04</totfact>
</mgrwt>
</event>
<event>
 4    1  0.4173994E+000  0.1790621E+03  0.7546771E-02  0.1168714E+00
         21   -1    0    0  501  502  0.00000000000E+00  0.00000000000E+00  0.20273324113E+03  0.20273324113E+03  0.00000000000E+00 0. -1.
         21   -1    0    0  502  503 -0.00000000000E+00 -0.00000000000E+00 -0.15816340538E+03  0.15816340538E+03  0.00000000000E+00 0.  1.
          6    1    1    2  501    0  0.22900649650E+01  0.46141115830E+02  0.20958391820E+02  0.18028450060E+03  0.17300000000E+03 0.  1.
         -6    1    1    2    0  503 -0.22900649650E+01 -0.46141115830E+02  0.23611443921E+02  0.18061214591E+03  0.17300000000E+03 0. -1.
<mgrwt>
<rscale>  2 0.17906213E+03</rscale>
<asrwt>0</asrwt>
<pdfrwt beam="1">  1       21 0.31189729E-01 0.17906213E+03</pdfrwt>
<pdfrwt beam="2">  1       21 0.24332832E-01 0.17906213E+03</pdfrwt>
<totfact> 0.15818981E+05</totfact>
</mgrwt>
</event>
<event>
 4    1  0.4173994E+000  0.7482006E+03  0.7546771E-02  0.9638178E-01
         21   -1    0    0  503  502  0.00000000000E+00  0.00000000000E+00  0.46981376977E+03  0.46981376977E+03  0.00000000000E+00 0.  1.
         21   -1    0    0  501  503 -0.00000000000E+00 -0.00000000000E+00 -0.14489432143E+04  0.14489432143E+04  0.00000000000E+00 0. -1.
          6    1    1    2  501    0 -0.71897549384E+03  0.11379513248E+03 -0.89392393203E+03  0.11657204164E+04  0.17300000000E+03 0. -1.
         -6    1    1    2    0  502  0.71897549384E+03 -0.11379513248E+03 -0.85205512505E+02  0.75303656769E+03  0.17300000000E+03 0.  1.
<mgrwt>
<rscale>  2 0.74820057E+03</rscale>
<asrwt>0</asrwt>
<pdfrwt beam="1">  1       21 0.72279042E-01 0.74820057E+03</pdfrwt>
<pdfrwt beam="2">  1       21 0.22291434E+00 0.74820057E+03</pdfrwt>
<totfact> 0.11670364E+02</totfact>
</mgrwt>
</event>
<event>
 4    1  0.4173994E+000  0.2141766E+03  0.7546771E-02  0.1138301E+00
         21   -1    0    0  501  502  0.00000000000E+00  0.00000000000E+00  0.88807804851E+03  0.88807804851E+03  0.00000000000E+00 0. -1.
         21   -1    0    0  502  503 -0.00000000000E+00 -0.00000000000E+00 -0.52016954838E+02  0.52016954838E+02  0.00000000000E+00 0.  1.
          6    1    1    2  501    0  0.12435550923E+03 -0.21870139981E+02  0.45736691997E+03  0.50503078637E+03  0.17300000000E+03 0. -1.
         -6    1    1    2    0  503 -0.12435550923E+03  0.21870139981E+02  0.37869417369E+03  0.43506421697E+03  0.17300000000E+03 0. -1.
<mgrwt>
<rscale>  2 0.21417655E+03</rscale>
<asrwt>0</asrwt>
<pdfrwt beam="1">  1       21 0.13662738E+00 0.21417655E+03</pdfrwt>
<pdfrwt beam="2">  1       21 0.80026091E-02 0.21417655E+03</pdfrwt>
<totfact> 0.45158253E+04</totfact>
</mgrwt>
</event>
<event>
 4    1  0.4173994E+000  0.2823539E+03  0.7546771E-02  0.1094410E+00
         21   -1    0    0  501  502  0.00000000000E+00  0.00000000000E+00  0.34591724197E+03  0.34591724197E+03  0.00000000000E+00 0. -1.
         21   -1    0    0  502  503 -0.00000000000E+00 -0.00000000000E+00 -0.31835533917E+03  0.31835533917E+03  0.00000000000E+00 0. -1.
          6    1    1    2  501    0 -0.22241562230E+03 -0.18055191919E+02  0.18828977514E+03  0.33937698569E+03  0.17300000000E+03 0. -1.
         -6    1    1    2    0  503  0.22241562230E+03  0.18055191919E+02 -0.16072787234E+03  0.32489559545E+03  0.17300000000E+03 0. -1.
<mgrwt>
<rscale>  2 0.28235385E+03</rscale>
<asrwt>0</asrwt>
<pdfrwt beam="1">  1       21 0.53218038E-01 0.28235385E+03</pdfrwt>
<pdfrwt beam="2">  1       21 0.48977744E-01 0.28235385E+03</pdfrwt>
<totfact> 0.12651830E+04</totfact>
</mgrwt>
</event>
<event>
 4    1  0.4173994E+000  0.2181938E+03  0.7546771E-02  0.1135237E+00
         21   -1    0    0  501  502  0.00000000000E+00  0.00000000000E+00  0.17841482780E+04  0.17841482780E+04  0.00000000000E+00 0. -1.
         21   -1    0    0  502  503 -0.00000000000E+00 -0.00000000000E+00 -0.26804006129E+02  0.26804006129E+02  0.00000000000E+00 0.  1.
          6    1    1    2  501    0  0.11021107331E+03  0.74384485166E+02  0.93921381061E+03  0.96422565531E+03  0.17300000000E+03 0.  1.
         -6    1    1    2    0  503 -0.11021107331E+03 -0.74384485166E+02  0.81813046127E+03  0.84672662883E+03  0.17300000000E+03 0. -1.
<mgrwt>
<rscale>  2 0.21819380E+03</rscale>
<asrwt>0</asrwt>
<pdfrwt beam="1">  1       21 0.27448426E+00 0.21819380E+03</pdfrwt>
<pdfrwt beam="2">  1       21 0.41236946E-02 0.21819380E+03</pdfrwt>
<totfact> 0.17420630E+04</totfact>
</mgrwt>
</event>
<event>
 4    1  0.4173994E+000  0.2394179E+03  0.7546771E-02  0.1120181E+00
         21   -1    0    0  501  502  0.00000000000E+00  0.00000000000E+00  0.23377535412E+03  0.23377535412E+03  0.00000000000E+00 0.  1.
         21   -1    0    0  502  503 -0.00000000000E+00 -0.00000000000E+00 -0.29034933070E+03  0.29034933070E+03  0.00000000000E+00 0.  1.
          6    1    1    2  501    0 -0.14201546046E+03 -0.84991285204E+02 -0.13163127443E+03  0.27321731639E+03  0.17300000000E+03 0.  1.
         -6    1    1    2    0  503  0.14201546046E+03  0.84991285204E+02  0.75057297849E+02  0.25090736843E+03  0.17300000000E+03 0.  1.
<mgrwt>
<rscale>  2 0.23941786E+03</rscale>
<asrwt>0</asrwt>
<pdfrwt beam="1">  1       21 0.35965439E-01 0.23941786E+03</pdfrwt>
<pdfrwt beam="2">  1       21 0.44669128E-01 0.23941786E+03</pdfrwt>
<totfact> 0.35046442E+04</totfact>
</mgrwt>
</event>
<event>
 4    1  0.4173994E+000  0.2024872E+03  0.7546771E-02  0.1147657E+00
         21   -1    0    0  501  502  0.00000000000E+00  0.00000000000E+00  0.26487661199E+03  0.26487661199E+03  0.00000000000E+00 0. -1.
         21   -1    0    0  502  503 -0.00000000000E+00 -0.00000000000E+00 -0.20936080630E+03  0.20936080630E+03  0.00000000000E+00 0.  1.
          6    1    1    2  501    0 -0.84969167974E+02 -0.62066889406E+02  0.14881386534E+03  0.25128992178E+03  0.17300000000E+03 0. -1.
         -6    1    1    2    0  503  0.84969167974E+02  0.62066889406E+02 -0.93298059659E+02  0.22294749652E+03  0.17300000000E+03 0.  1.
<mgrwt>
<rscale>  2 0.20248718E+03</rscale>
<asrwt>0</asrwt>
<pdfrwt beam="1">  1       21 0.40750248E-01 0.20248718E+03</pdfrwt>
<pdfrwt beam="2">  1       21 0.32209354E-01 0.20248718E+03</pdfrwt>
<totfact> 0.53540655E+04</totfact>
</mgrwt>
</event>
<event>
 4    1  0.4173994E+000  0.1825177E+03  0.7546771E-02  0.1165388E+00
         21   -1    0    0  503  502  0.00000000000E+00  0.00000000000E+00  0.37480537228E+02  0.37480537228E+02  0.00000000000E+00 0.  1.
         21   -1    0    0  501  503 -0.00000000000E+00 -0.00000000000E+00 -0.94157944947E+03  0.94157944947E+03  0.00000000000E+00 0.  1.
          6    1    1    2  501    0  0.49072833975E+02  0.31233986256E+02 -0.33614960705E+03  0.38250393887E+03  0.17300000000E+03 0.  1.
         -6    1    1    2    0  502 -0.49072833975E+02 -0.31233986256E+02 -0.56794930519E+03  0.59655604783E+03  0.17300000000E+03 0.  1.
<mgrwt>
<rscale>  2 0.18251768E+03</rscale>
<asrwt>0</asrwt>
<pdfrwt beam="1">  1       21 0.57662368E-02 0.18251768E+03</pdfrwt>
<pdfrwt beam="2">  1       21 0.14485837E+00 0.18251768E+03</pdfrwt>
<totfact> 0.69475274E+04</totfact>
</mgrwt>
</event>
<event>
 4    1  0.4173994E+000  0.1750628E+03  0.7546771E-02  0.1172669E+00
         21   -1    0    0  503  502  0.00000000000E+00  0.00000000000E+00  0.47674669151E+03  0.47674669151E+03  0.00000000000E+00 0. -1.
         21   -1    0    0  501  503 -0.00000000000E+00 -0.00000000000E+00 -0.74038954507E+02  0.74038954507E+02  0.00000000000E+00 0. -1.
          6    1    1    2  501    0  0.54370777396E+01  0.26237537263E+02  0.10138952877E+03  0.20230374865E+03  0.17300000000E+03 0. -1.
         -6    1    1    2    0  502 -0.54370777396E+01 -0.26237537263E+02  0.30131820824E+03  0.34848189737E+03  0.17300000000E+03 0. -1.
<mgrwt>
<rscale>  2 0.17506276E+03</rscale>
<asrwt>0</asrwt>
<pdfrwt beam="1">  1       21 0.73345643E-01 0.17506276E+03</pdfrwt>
<pdfrwt beam="2">  1       21 0.11390609E-01 0.17506276E+03</pdfrwt>
<totfact> 0.10834540E+05</totfact>
</mgrwt>
</event>
<event>
 4    1  0.4173994E+000  0.1892370E+03  0.7546771E-02  0.1159151E+00
         21   -1    0    0  501  502  0.00000000000E+00  0.00000000000E+00  0.78583319079E+02  0.78583319079E+02  0.00000000000E+00 0. -1.
         21   -1    0    0  502  503 -0.00000000000E+00 -0.00000000000E+00 -0.56500848498E+03  0.56500848498E+03  0.00000000000E+00 0. -1.
          6    1    1    2  501    0  0.74423892855E+02  0.18512840129E+02 -0.10167416559E+03  0.21482150038E+03  0.17300000000E+03 0. -1.
         -6    1    1    2    0  503 -0.74423892855E+02 -0.18512840129E+02 -0.38475100031E+03  0.42877030368E+03  0.17300000000E+03 0. -1.
<mgrwt>
<rscale>  2 0.18923700E+03</rscale>
<asrwt>0</asrwt>
<pdfrwt beam="1">  1       21 0.12089741E-01 0.18923700E+03</pdfrwt>
<pdfrwt beam="2">  1       21 0.86924382E-01 0.18923700E+03</pdfrwt>
<totfact> 0.66015446E+04</totfact>
</mgrwt>
</event>
<event>
 4    1  0.4173994E+000  0.2425765E+03  0.7546771E-02  0.1118088E+00
         21   -1    0    0  503  502  0.00000000000E+00  0.00000000000E+00  0.11738064888E+03  0.11738064888E+03  0.00000000000E+00 0. -1.
         21   -1    0    0  501  503 -0.00000000000E+00 -0.00000000000E+00 -0.14748031888E+04  0.14748031888E+04  0.00000000000E+00 0.  1.
          6    1    1    2  501    0 -0.69126373878E+02  0.15535740385E+03 -0.13255023144E+04  0.13475161461E+04  0.17300000000E+03 0.  1.
         -6    1    1    2    0  502  0.69126373878E+02 -0.15535740385E+03 -0.31920225503E+02  0.24466769156E+03  0.17300000000E+03 0. -1.
<mgrwt>
<rscale>  2 0.24257654E+03</rscale>
<asrwt>0</asrwt>
<pdfrwt beam="1">  1       21 0.18058561E-01 0.24257654E+03</pdfrwt>
<pdfrwt beam="2">  1       21 0.22689281E+00 0.24257654E+03</pdfrwt>
<totfact> 0.24281238E+03</totfact>
</mgrwt>
</event>
<event>
 4    1  0.4173994E+000  0.2255336E+03  0.7546771E-02  0.1129823E+00
         21   -1    0    0  501  502  0.00000000000E+00  0.00000000000E+00  0.14156500978E+04  0.14156500978E+04  0.00000000000E+00 0. -1.
         21   -1    0    0  502  503 -0.00000000000E+00 -0.00000000000E+00 -0.35965438207E+02  0.35965438207E+02  0.00000000000E+00 0.  1.
          6    1    1    2  501    0  0.14058365536E+03 -0.34244045623E+02  0.66731276510E+03  0.70439459487E+03  0.17300000000E+03 0. -1.
         -6    1    1    2    0  503 -0.14058365536E+03  0.34244045623E+02  0.71237189449E+03  0.74722094114E+03  0.17300000000E+03 0.  1.
<mgrwt>
<rscale>  2 0.22553363E+03</rscale>
<asrwt>0</asrwt>
<pdfrwt beam="1">  1       21 0.21779228E+00 0.22553363E+03</pdfrwt>
<pdfrwt beam="2">  1       21 0.55331454E-02 0.22553363E+03</pdfrwt>
<totfact> 0.22933088E+04</totfact>
</mgrwt>
</event>
<event>
 4    1  0.4173994E+000  0.1876588E+03  0.7546771E-02  0.1160590E+00
         21   -1    0    0  503  502  0.00000000000E+00  0.00000000000E+00  0.50004239141E+02  0.50004239141E+02  0.00000000000E+00 0.  1.
         21   -1    0    0  501  503 -0.00000000000E+00 -0.00000000000E+00 -0.10621673403E+04  0.10621673403E+04  0.00000000000E+00 0.  1.
          6    1    1    2  501    0  0.51237441809E+02  0.51590353657E+02 -0.82888070811E+03  0.84985826366E+03  0.17300000000E+03 0. -1.
         -6    1    1    2    0  502 -0.51237441809E+02 -0.51590353657E+02 -0.18328239304E+03  0.26231331577E+03  0.17300000000E+03 0. -1.
<mgrwt>
<rscale>  2 0.18765884E+03</rscale>
<asrwt>0</asrwt>
<pdfrwt beam="1">  1       21 0.76929596E-02 0.18765884E+03</pdfrwt>
<pdfrwt beam="2">  1       21 0.16341037E+00 0.18765884E+03</pdfrwt>
<totfact> 0.30634708E+04</totfact>
</mgrwt>
</event>
<event>
 4    1  0.4173994E+000  0.1871168E+03  0.7546771E-02  0.1161088E+00
         21   -1    0    0  503  502  0.00000000000E+00  0.00000000000E+00  0.24249581509E+04  0.24249581509E+04  0.00000000000E+00 0. -1.
         21   -1    0    0  501  503 -0.00000000000E+00 -0.00000000000E+00 -0.19299010057E+02  0.19299010057E+02  0.00000000000E+00 0. -1.
          6    1    1    2  501    0 -0.27165830288E+02  0.65922072844E+02  0.58950361583E+03  0.61848784555E+03  0.17300000000E+03 0. -1.
         -6    1    1    2    0  502  0.27165830288E+02 -0.65922072844E+02  0.18161555250E+04  0.18257693154E+04  0.17300000000E+03 0. -1.
<mgrwt>
<rscale>  2 0.18711681E+03</rscale>
<asrwt>0</asrwt>
<pdfrwt beam="1">  1       21 0.37307024E+00 0.18711681E+03</pdfrwt>
<pdfrwt beam="2">  1       21 0.29690804E-02 0.18711681E+03</pdfrwt>
<totfact> 0.82576375E+03</totfact>
</mgrwt>
</event>
<event>
 4    1  0.4173994E+000  0.3100913E+03  0.7546771E-02  0.1080302E+00
         21   -1    0    0  503  502  0.00000000000E+00  0.00000000000E+00  0.12496336557E+03  0.12496336557E+03  0.00000000000E+00 0.  1.
         21   -1    0    0  501  503 -0.00000000000E+00 -0.00000000000E+00 -0.88270082774E+03  0.88270082774E+03  0.00000000000E+00 0. -1.
          6    1    1    2  501    0  0.45982653403E+02 -0.25320589350E+03 -0.55931379823E+03  0.63952212925E+03  0.17300000000E+03 0. -1.
         -6    1    1    2    0  502 -0.45982653403E+02  0.25320589350E+03 -0.19842366393E+03  0.36814206405E+03  0.17300000000E+03 0.  1.
<mgrwt>
<rscale>  2 0.31009132E+03</rscale>
<asrwt>0</asrwt>
<pdfrwt beam="1">  1       21 0.19225134E-01 0.31009132E+03</pdfrwt>
<pdfrwt beam="2">  1       21 0.13580012E+00 0.31009132E+03</pdfrwt>
<totfact> 0.89597367E+03</totfact>
</mgrwt>
</event>
<event>
 4    1  0.4173994E+000  0.2180486E+03  0.7546771E-02  0.1135346E+00
         21   -1    0    0  503  502  0.00000000000E+00  0.00000000000E+00  0.26873945604E+03  0.26873945604E+03  0.00000000000E+00 0.  1.
         21   -1    0    0  501  503 -0.00000000000E+00 -0.00000000000E+00 -0.43941601314E+03  0.43941601314E+03  0.00000000000E+00 0.  1.
          6    1    1    2  501    0 -0.11455911081E+03 -0.67025285481E+02 -0.35900542738E+03  0.42003580282E+03  0.17300000000E+03 0.  1.
         -6    1    1    2    0  502  0.11455911081E+03  0.67025285481E+02  0.18832887028E+03  0.28811966636E+03  0.17300000000E+03 0.  1.
<mgrwt>
<rscale>  2 0.21804857E+03</rscale>
<asrwt>0</asrwt>
<pdfrwt beam="1">  1       21 0.41344532E-01 0.21804857E+03</pdfrwt>
<pdfrwt beam="2">  1       21 0.67602463E-01 0.21804857E+03</pdfrwt>
<totfact> 0.11082492E+04</totfact>
</mgrwt>
</event>
<event>
 4    1  0.4173994E+000  0.2017205E+03  0.7546771E-02  0.1148296E+00
         21   -1    0    0  503  502  0.00000000000E+00  0.00000000000E+00  0.39492761535E+02  0.39492761535E+02  0.00000000000E+00 0.  1.
         21   -1    0    0  501  503 -0.00000000000E+00 -0.00000000000E+00 -0.11004946295E+04  0.11004946295E+04  0.00000000000E+00 0. -1.
          6    1    1    2  501    0  0.51241661900E+02  0.90202190893E+02 -0.67441088818E+03  0.70393265960E+03  0.17300000000E+03 0.  1.
         -6    1    1    2    0  502 -0.51241661900E+02 -0.90202190893E+02 -0.38659097980E+03  0.43605473145E+03  0.17300000000E+03 0. -1.
<mgrwt>
<rscale>  2 0.20172046E+03</rscale>
<asrwt>0</asrwt>
<pdfrwt beam="1">  1       21 0.60758084E-02 0.20172046E+03</pdfrwt>
<pdfrwt beam="2">  1       21 0.16930690E+00 0.20172046E+03</pdfrwt>
<totfact> 0.41410770E+04</totfact>
</mgrwt>
</event>
<event>
 4    1  0.4173994E+000  0.1748377E+03  0.7546771E-02  0.1172895E+00
         21   -1    0    0  503  502  0.00000000000E+00  0.00000000000E+00  0.89915173906E+02  0.89915173906E+02  0.00000000000E+00 0.  1.
         21   -1    0    0  501  503 -0.00000000000E+00 -0.00000000000E+00 -0.48512995824E+03  0.48512995824E+03  0.00000000000E+00 0.  1.
          6    1    1    2  501    0 -0.13043538077E+02  0.21658307414E+02 -0.35488626581E+03  0.39561657931E+03  0.17300000000E+03 0.  1.
         -6    1    1    2    0  502  0.13043538077E+02 -0.21658307414E+02 -0.40328518523E+02  0.17942855283E+03  0.17300000000E+03 0.  1.
<mgrwt>
<rscale>  2 0.17483769E+03</rscale>
<asrwt>0</asrwt>
<pdfrwt beam="1">  1       21 0.13833104E-01 0.17483769E+03</pdfrwt>
<pdfrwt beam="2">  1       21 0.74635379E-01 0.17483769E+03</pdfrwt>
<totfact> 0.73604102E+04</totfact>
</mgrwt>
</event>
<event>
 4    1  0.4173994E+000  0.2068963E+03  0.7546771E-02  0.1144048E+00
         21   -1    0    0  503  502  0.00000000000E+00  0.00000000000E+00  0.12739800095E+03  0.12739800095E+03  0.00000000000E+00 0. -1.
         21   -1    0    0  501  503 -0.00000000000E+00 -0.00000000000E+00 -0.35536064523E+03  0.35536064523E+03  0.00000000000E+00 0. -1.
          6    1    1    2  501    0  0.92083326644E+02 -0.66315552187E+02 -0.17031827286E+03  0.26798209936E+03  0.17300000000E+03 0.  1.
         -6    1    1    2    0  502 -0.92083326644E+02  0.66315552187E+02 -0.57644371426E+02  0.21477654682E+03  0.17300000000E+03 0.  1.
<mgrwt>
<rscale>  2 0.20689633E+03</rscale>
<asrwt>0</asrwt>
<pdfrwt beam="1">  1       21 0.19599692E-01 0.20689633E+03</pdfrwt>
<pdfrwt beam="2">  1       21 0.54670868E-01 0.20689633E+03</pdfrwt>
<totfact> 0.75251901E+04</totfact>
</mgrwt>
</event>
<event>
 4    1  0.4173994E+000  0.2304720E+03  0.7546771E-02  0.1126308E+00
         21   -1    0    0  503  502  0.00000000000E+00  0.00000000000E+00  0.42910030725E+02  0.42910030725E+02  0.00000000000E+00 0.  1.
         21   -1    0    0  501  503 -0.00000000000E+00 -0.00000000000E+00 -0.15197425268E+04  0.15197425268E+04  0.00000000000E+00 0.  1.
          6    1    1    2  501    0  0.71775965309E+02  0.13430019454E+03 -0.10749034573E+04  0.10993337864E+04  0.17300000000E+03 0.  1.
         -6    1    1    2    0  502 -0.71775965309E+02 -0.13430019454E+03 -0.40192903881E+03  0.46331877114E+03  0.17300000000E+03 0.  1.
<mgrwt>
<rscale>  2 0.23047198E+03</rscale>
<asrwt>0</asrwt>
<pdfrwt beam="1">  1       21 0.66015447E-02 0.23047198E+03</pdfrwt>
<pdfrwt beam="2">  1       21 0.23380649E+00 0.23047198E+03</pdfrwt>
<totfact> 0.13455665E+04</totfact>
</mgrwt>
</event>
<event>
 4    1  0.4173994E+000  0.4647158E+03  0.7546771E-02  0.1023422E+00
         21   -1    0    0  503  502  0.00000000000E+00  0.00000000000E+00  0.10246701389E+04  0.10246701389E+04  0.00000000000E+00 0. -1.
         21   -1    0    0  501  503 -0.00000000000E+00 -0.00000000000E+00 -0.61360861795E+03  0.61360861795E+03  0.00000000000E+00 0.  1.
          6    1    1    2  501    0  0.33046051629E+03  0.27717791338E+03 -0.45818533540E+03  0.65260596846E+03  0.17300000000E+03 0.  1.
         -6    1    1    2    0  502 -0.33046051629E+03 -0.27717791338E+03  0.86924685632E+03  0.98567278836E+03  0.17300000000E+03 0. -1.
<mgrwt>
<rscale>  2 0.46471577E+03</rscale>
<asrwt>0</asrwt>
<pdfrwt beam="1">  1       21 0.15764156E+00 0.46471577E+03</pdfrwt>
<pdfrwt beam="2">  1       21 0.94401326E-01 0.46471577E+03</pdfrwt>
<totfact> 0.19933430E+02</totfact>
</mgrwt>
</event>
<event>
 4    1  0.4173994E+000  0.1902602E+03  0.7546771E-02  0.1158227E+00
         21   -1    0    0  501  502  0.00000000000E+00  0.00000000000E+00  0.36513812321E+02  0.36513812321E+02  0.00000000000E+00 0.  1.
         21   -1    0    0  502  503 -0.00000000000E+00 -0.00000000000E+00 -0.10211151557E+04  0.10211151557E+04  0.00000000000E+00 0. -1.
          6    1    1    2  501    0 -0.51070252980E+02 -0.60512484017E+02 -0.40205477869E+03  0.44479992865E+03  0.17300000000E+03 0.  1.
         -6    1    1    2    0  503  0.51070252980E+02  0.60512484017E+02 -0.58254656466E+03  0.61282903934E+03  0.17300000000E+03 0.  1.
<mgrwt>
<rscale>  2 0.19026017E+03</rscale>
<asrwt>0</asrwt>
<pdfrwt beam="1">  1       21 0.56175098E-02 0.19026017E+03</pdfrwt>
<pdfrwt beam="2">  1       21 0.15709463E+00 0.19026017E+03</pdfrwt>
<totfact> 0.58424242E+04</totfact>
</mgrwt>
</event>
<event>
 4    1  0.4173994E+000  0.1986491E+03  0.7546771E-02  0.1150884E+00
         21   -1    0    0  501  502  0.00000000000E+00  0.00000000000E+00  0.17593680411E+03  0.17593680411E+03  0.00000000000E+00 0. -1.
         21   -1    0    0  502  503 -0.00000000000E+00 -0.00000000000E+00 -0.38342094838E+03  0.38342094838E+03  0.00000000000E+00 0. -1.
          6    1    1    2  501    0  0.76726291865E+02 -0.60378340817E+02  0.76432874826E+02  0.21284607644E+03  0.17300000000E+03 0. -1.
         -6    1    1    2    0  503 -0.76726291865E+02  0.60378340817E+02 -0.28391701909E+03  0.34651167604E+03  0.17300000000E+03 0. -1.
<mgrwt>
<rscale>  2 0.19864911E+03</rscale>
<asrwt>0</asrwt>
<pdfrwt beam="1">  1       21 0.27067201E-01 0.19864911E+03</pdfrwt>
<pdfrwt beam="2">  1       21 0.58987838E-01 0.19864911E+03</pdfrwt>
<totfact> 0.34843866E+04</totfact>
</mgrwt>
</event>
<event>
 4    1  0.4173994E+000  0.2149480E+03  0.7546771E-02  0.1137707E+00
         21   -1    0    0  503  502  0.00000000000E+00  0.00000000000E+00  0.36938564445E+03  0.36938564445E+03  0.00000000000E+00 0. -1.
         21   -1    0    0  501  503 -0.00000000000E+00 -0.00000000000E+00 -0.12921333131E+03  0.12921333131E+03  0.00000000000E+00 0. -1.
          6    1    1    2  501    0  0.12298459741E+03  0.33888455793E+02  0.75496453203E+02  0.22782087938E+03  0.17300000000E+03 0. -1.
         -6    1    1    2    0  502 -0.12298459741E+03 -0.33888455793E+02  0.16467585994E+03  0.27077809639E+03  0.17300000000E+03 0. -1.
<mgrwt>
<rscale>  2 0.21494799E+03</rscale>
<asrwt>0</asrwt>
<pdfrwt beam="1">  1       21 0.56828560E-01 0.21494799E+03</pdfrwt>
<pdfrwt beam="2">  1       21 0.19878974E-01 0.21494799E+03</pdfrwt>
<totfact> 0.67267805E+04</totfact>
</mgrwt>
</event>
<event>
 4    1  0.4173994E+000  0.1825680E+03  0.7546771E-02  0.1165341E+00
         21   -1    0    0  503  502  0.00000000000E+00  0.00000000000E+00  0.91438098012E+02  0.91438098012E+02  0.00000000000E+00 0.  1.
         21   -1    0    0  501  503 -0.00000000000E+00 -0.00000000000E+00 -0.54115896367E+03  0.54115896367E+03  0.00000000000E+00 0.  1.
          6    1    1    2  501    0  0.76042455424E+00 -0.58322209050E+02 -0.40556845172E+03  0.44476603663E+03  0.17300000000E+03 0.  1.
         -6    1    1    2    0  502 -0.76042455424E+00  0.58322209050E+02 -0.44152413939E+02  0.18783102505E+03  0.17300000000E+03 0.  1.
<mgrwt>
<rscale>  2 0.18256796E+03</rscale>
<asrwt>0</asrwt>
<pdfrwt beam="1">  1       21 0.14067399E-01 0.18256796E+03</pdfrwt>
<pdfrwt beam="2">  1       21 0.83255227E-01 0.18256796E+03</pdfrwt>
<totfact> 0.55642128E+04</totfact>
</mgrwt>
</event>
<event>
 4    1  0.4173994E+000  0.2010430E+03  0.7546771E-02  0.1148862E+00
         21   -1    0    0  503  502  0.00000000000E+00  0.00000000000E+00  0.42700443379E+03  0.42700443379E+03  0.00000000000E+00 0. -1.
         21   -1    0    0  501  503 -0.00000000000E+00 -0.00000000000E+00 -0.28300150750E+03  0.28300150750E+03  0.00000000000E+00 0. -1.
          6    1    1    2  501    0 -0.87339629448E+02 -0.53489195709E+02 -0.21761007342E+03  0.29626415407E+03  0.17300000000E+03 0. -1.
         -6    1    1    2    0  502  0.87339629448E+02  0.53489195709E+02  0.36161299972E+03  0.41374178722E+03  0.17300000000E+03 0. -1.
<mgrwt>
<rscale>  2 0.20104304E+03</rscale>
<asrwt>0</asrwt>
<pdfrwt beam="1">  1       21 0.65692989E-01 0.20104304E+03</pdfrwt>
<pdfrwt beam="2">  1       21 0.43538694E-01 0.20104304E+03</pdfrwt>
<totfact> 0.10736603E+04</totfact>
</mgrwt>
</event>
<event>
 4    1  0.4173994E+000  0.2389097E+03  0.7546771E-02  0.1120521E+00
         21   -1    0    0  503  502  0.00000000000E+00  0.00000000000E+00  0.22355692548E+04  0.22355692548E+04  0.00000000000E+00 0. -1.
         21   -1    0    0  501  503 -0.00000000000E+00 -0.00000000000E+00 -0.34598680693E+02  0.34598680693E+02  0.00000000000E+00 0.  1.
          6    1    1    2  501    0  0.13251852528E+03  0.97916675377E+02  0.51941310159E+03  0.57172353893E+03  0.17300000000E+03 0.  1.
         -6    1    1    2    0  502 -0.13251852528E+03 -0.97916675377E+02  0.16815574725E+04  0.16984443966E+04  0.17300000000E+03 0. -1.
<mgrwt>
<rscale>  2 0.23890968E+03</rscale>
<asrwt>0</asrwt>
<pdfrwt beam="1">  1       21 0.34393362E+00 0.23890968E+03</pdfrwt>
<pdfrwt beam="2">  1       21 0.53228757E-02 0.23890968E+03</pdfrwt>
<totfact> 0.43535423E+03</totfact>
</mgrwt>
</event>
<event>
 4    1  0.4173994E+000  0.2084298E+03  0.7546771E-02  0.1142815E+00
         21   -1    0    0  501  502  0.00000000000E+00  0.00000000000E+00  0.63109874312E+02  0.63109874312E+02  0.00000000000E+00 0. -1.
         21   -1    0    0  502  503 -0.00000000000E+00 -0.00000000000E+00 -0.69924650921E+03  0.69924650921E+03  0.00000000000E+00 0. -1.
          6    1    1    2  501    0  0.87299990489E+02  0.76763881035E+02 -0.36560684939E+03  0.42084599332E+03  0.17300000000E+03 0. -1.
         -6    1    1    2    0  503 -0.87299990489E+02 -0.76763881035E+02 -0.27052978551E+03  0.34151039020E+03  0.17300000000E+03 0. -1.
<mgrwt>
<rscale>  2 0.20842980E+03</rscale>
<asrwt>0</asrwt>
<pdfrwt beam="1">  1       21 0.97092109E-02 0.20842980E+03</pdfrwt>
<pdfrwt beam="2">  1       21 0.10757639E+00 0.20842980E+03</pdfrwt>
<totfact> 0.58455220E+04</totfact>
</mgrwt>
</event>
<event>
 4    1  0.4173994E+000  0.1757776E+03  0.7546771E-02  0.1171953E+00
         21   -1    0    0  503  502  0.00000000000E+00  0.00000000000E+00  0.26707947681E+03  0.26707947681E+03  0.00000000000E+00 0.  1.
         21   -1    0    0  501  503 -0.00000000000E+00 -0.00000000000E+00 -0.22844584202E+03  0.22844584202E+03  0.00000000000E+00 0.  1.
          6    1    1    2  501    0 -0.29566892440E+02 -0.97245004329E+01 -0.15475100378E+03  0.23419146058E+03  0.17300000000E+03 0.  1.
         -6    1    1    2    0  502  0.29566892440E+02  0.97245004329E+01  0.19338463856E+03  0.26133385825E+03  0.17300000000E+03 0.  1.
<mgrwt>
<rscale>  2 0.17577761E+03</rscale>
<asrwt>0</asrwt>
<pdfrwt beam="1">  1       21 0.41089150E-01 0.17577761E+03</pdfrwt>
<pdfrwt beam="2">  1       21 0.35145514E-01 0.17577761E+03</pdfrwt>
<totfact> 0.44893003E+04</totfact>
</mgrwt>
</event>
<event>
 4    1  0.4173994E+000  0.1886992E+03  0.7546771E-02  0.1159640E+00
         21   -1    0    0  501  502  0.00000000000E+00  0.00000000000E+00  0.17018887588E+04  0.17018887588E+04  0.00000000000E+00 0. -1.
         21   -1    0    0  502  503 -0.00000000000E+00 -0.00000000000E+00 -0.22671383644E+02  0.22671383644E+02  0.00000000000E+00 0. -1.
          6    1    1    2  501    0  0.74364335967E+02  0.12179235957E+02  0.10791152761E+04  0.10954894647E+04  0.17300000000E+03 0. -1.
         -6    1    1    2    0  503 -0.74364335967E+02 -0.12179235957E+02  0.60010209908E+03  0.62907067772E+03  0.17300000000E+03 0. -1.
<mgrwt>
<rscale>  2 0.18869920E+03</rscale>
<asrwt>0</asrwt>
<pdfrwt beam="1">  1       21 0.26182894E+00 0.18869920E+03</pdfrwt>
<pdfrwt beam="2">  1       21 0.34879065E-02 0.18869920E+03</pdfrwt>
<totfact> 0.28030964E+04</totfact>
</mgrwt>
</event>
<event>
 4    1  0.4173994E+000  0.1893282E+03  0.7546771E-02  0.1159069E+00
         21   -1    0    0  503  502  0.00000000000E+00  0.00000000000E+00  0.12419549240E+03  0.12419549240E+03  0.00000000000E+00 0. -1.
         21   -1    0    0  501  503 -0.00000000000E+00 -0.00000000000E+00 -0.39950394955E+03  0.39950394955E+03  0.00000000000E+00 0. -1.
          6    1    1    2  501    0 -0.57109459841E+02  0.51523554493E+02 -0.27560624846E+03  0.33437100841E+03  0.17300000000E+03 0. -1.
         -6    1    1    2    0  502  0.57109459841E+02 -0.51523554493E+02  0.29779131343E+00  0.18932843355E+03  0.17300000000E+03 0. -1.
<mgrwt>
<rscale>  2 0.18932820E+03</rscale>
<asrwt>0</asrwt>
<pdfrwt beam="1">  1       21 0.19106999E-01 0.18932820E+03</pdfrwt>
<pdfrwt beam="2">  1       21 0.61462147E-01 0.18932820E+03</pdfrwt>
<totfact> 0.61933048E+04</totfact>
</mgrwt>
</event>
<event>
 4    1  0.4173994E+000  0.1904685E+03  0.7546771E-02  0.1158039E+00
         21   -1    0    0  503  502  0.00000000000E+00  0.00000000000E+00  0.36048909054E+03  0.36048909054E+03  0.00000000000E+00 0.  1.
         21   -1    0    0  501  503 -0.00000000000E+00 -0.00000000000E+00 -0.11769815641E+03  0.11769815641E+03  0.00000000000E+00 0.  1.
          6    1    1    2  501    0 -0.50886409434E+02  0.61317377318E+02  0.21242823473E+03  0.28531386636E+03  0.17300000000E+03 0.  1.
         -6    1    1    2    0  502  0.50886409434E+02 -0.61317377318E+02  0.30362699399E+02  0.19287338059E+03  0.17300000000E+03 0.  1.
<mgrwt>
<rscale>  2 0.19046849E+03</rscale>
<asrwt>0</asrwt>
<pdfrwt beam="1">  1       21 0.55459860E-01 0.19046849E+03</pdfrwt>
<pdfrwt beam="2">  1       21 0.18107409E-01 0.19046849E+03</pdfrwt>
<totfact> 0.85178707E+04</totfact>
</mgrwt>
</event>
<event>
 4    1  0.4173994E+000  0.2091945E+03  0.7546771E-02  0.1142205E+00
         21   -1    0    0  503  502  0.00000000000E+00  0.00000000000E+00  0.15418413117E+03  0.15418413117E+03  0.00000000000E+00 0. -1.
         21   -1    0    0  501  503 -0.00000000000E+00 -0.00000000000E+00 -0.39661479137E+03  0.39661479137E+03  0.00000000000E+00 0. -1.
          6    1    1    2  501    0  0.55766234583E+02 -0.10355414977E+03 -0.26807439046E+03  0.34003854734E+03  0.17300000000E+03 0. -1.
         -6    1    1    2    0  502 -0.55766234583E+02  0.10355414977E+03  0.25643730251E+02  0.21076037520E+03  0.17300000000E+03 0. -1.
<mgrwt>
<rscale>  2 0.20919449E+03</rscale>
<asrwt>0</asrwt>
<pdfrwt beam="1">  1       21 0.23720636E-01 0.20919449E+03</pdfrwt>
<pdfrwt beam="2">  1       21 0.61017660E-01 0.20919449E+03</pdfrwt>
<totfact> 0.41484994E+04</totfact>
</mgrwt>
</event>
<event>
 4    1  0.4173994E+000  0.1744981E+03  0.7546771E-02  0.1173237E+00
         21   -1    0    0  503  502  0.00000000000E+00  0.00000000000E+00  0.63007058492E+02  0.63007058492E+02  0.00000000000E+00 0.  1.
         21   -1    0    0  501  503 -0.00000000000E+00 -0.00000000000E+00 -0.65090443898E+03  0.65090443898E+03  0.00000000000E+00 0.  1.
          6    1    1    2  501    0 -0.22698348641E+02  0.23141934171E+01 -0.47509701239E+03  0.50612917492E+03  0.17300000000E+03 0.  1.
         -6    1    1    2    0  502  0.22698348641E+02 -0.23141934171E+01 -0.11280036809E+03  0.20778232255E+03  0.17300000000E+03 0.  1.
<mgrwt>
<rscale>  2 0.17449805E+03</rscale>
<asrwt>0</asrwt>
<pdfrwt beam="1">  1       21 0.96933938E-02 0.17449805E+03</pdfrwt>
<pdfrwt beam="2">  1       21 0.10013914E+00 0.17449805E+03</pdfrwt>
<totfact> 0.70737533E+04</totfact>
</mgrwt>
</event>
<event>
 4    1  0.4173994E+000  0.1848223E+03  0.7546771E-02  0.1163216E+00
         21   -1    0    0  503  502  0.00000000000E+00  0.00000000000E+00  0.28727927470E+03  0.28727927470E+03  0.00000000000E+00 0.  1.
         21   -1    0    0  501  503 -0.00000000000E+00 -0.00000000000E+00 -0.15915087817E+03  0.15915087817E+03  0.00000000000E+00 0.  1.
          6    1    1    2  501    0  0.52746573558E+02  0.38053581958E+02 -0.48182464177E+02  0.19099954444E+03  0.17300000000E+03 0.  1.
         -6    1    1    2    0  502 -0.52746573558E+02 -0.38053581958E+02  0.17631086070E+03  0.25543060843E+03  0.17300000000E+03 0.  1.
<mgrwt>
<rscale>  2 0.18482228E+03</rscale>
<asrwt>0</asrwt>
<pdfrwt beam="1">  1       21 0.44196811E-01 0.18482228E+03</pdfrwt>
<pdfrwt beam="2">  1       21 0.24484751E-01 0.18482228E+03</pdfrwt>
<totfact> 0.77741776E+04</totfact>
</mgrwt>
</event>
<event>
 4    1  0.4173994E+000  0.4337269E+03  0.7546771E-02  0.1032689E+00
         21   -1    0    0  503  502  0.00000000000E+00  0.00000000000E+00  0.13305757031E+04  0.13305757031E+04  0.00000000000E+00 0.  1.
         21   -1    0    0  501  503 -0.00000000000E+00 -0.00000000000E+00 -0.25211601901E+03  0.25211601901E+03  0.00000000000E+00 0. -1.
          6    1    1    2  501    0 -0.13375832567E+01  0.39772888484E+03  0.14776044730E+02  0.43397855530E+03  0.17300000000E+03 0. -1.
         -6    1    1    2    0  502  0.13375832567E+01 -0.39772888484E+03  0.10636836394E+04  0.11487131668E+04  0.17300000000E+03 0.  1.
<mgrwt>
<rscale>  2 0.43372694E+03</rscale>
<asrwt>0</asrwt>
<pdfrwt beam="1">  1       21 0.20470395E+00 0.43372694E+03</pdfrwt>
<pdfrwt beam="2">  1       21 0.38787081E-01 0.43372694E+03</pdfrwt>
<totfact> 0.66935125E+02</totfact>
</mgrwt>
</event>
<event>
 4    1  0.4173994E+000  0.1813624E+03  0.7546771E-02  0.1166491E+00
         21   -1    0    0  503  502  0.00000000000E+00  0.00000000000E+00  0.60750632623E+02  0.60750632623E+02  0.00000000000E+00 0.  1.
         21   -1    0    0  501  503 -0.00000000000E+00 -0.00000000000E+00 -0.66399806325E+03  0.66399806325E+03  0.00000000000E+00 0. -1.
          6    1    1    2  501    0  0.22354077286E+02  0.49634869709E+02 -0.45731327604E+03  0.49196316682E+03  0.17300000000E+03 0. -1.
         -6    1    1    2    0  502 -0.22354077286E+02 -0.49634869709E+02 -0.14593415458E+03  0.23278552905E+03  0.17300000000E+03 0.  1.
<mgrwt>
<rscale>  2 0.18136241E+03</rscale>
<asrwt>0</asrwt>
<pdfrwt beam="1">  1       21 0.93462511E-02 0.18136241E+03</pdfrwt>
<pdfrwt beam="2">  1       21 0.10215355E+00 0.18136241E+03</pdfrwt>
<totfact> 0.71699931E+04</totfact>
</mgrwt>
</event>
<event>
 4    1  0.4173994E+000  0.2180659E+03  0.7546771E-02  0.1135333E+00
         21   -1    0    0  503  502  0.00000000000E+00  0.00000000000E+00  0.11375155578E+03  0.11375155578E+03  0.00000000000E+00 0.  1.
         21   -1    0    0  501  503 -0.00000000000E+00 -0.00000000000E+00 -0.50527722109E+03  0.50527722109E+03  0.00000000000E+00 0.  1.
          6    1    1    2  501    0 -0.85725241634E+02 -0.10136531220E+03 -0.32437022998E+03  0.39085648219E+03  0.17300000000E+03 0.  1.
         -6    1    1    2    0  502  0.85725241634E+02  0.10136531220E+03 -0.67155435331E+02  0.22817229469E+03  0.17300000000E+03 0.  1.
<mgrwt>
<rscale>  2 0.21806592E+03</rscale>
<asrwt>0</asrwt>
<pdfrwt beam="1">  1       21 0.17500239E-01 0.21806592E+03</pdfrwt>
<pdfrwt beam="2">  1       21 0.77734958E-01 0.21806592E+03</pdfrwt>
<totfact> 0.42843231E+04</totfact>
</mgrwt>
</event>
<event>
 4    1  0.4173994E+000  0.1837567E+03  0.7546771E-02  0.1164216E+00
         21   -1    0    0  501  502  0.00000000000E+00  0.00000000000E+00  0.17040769646E+03  0.17040769646E+03  0.00000000000E+00 0. -1.
         21   -1    0    0  502  503 -0.00000000000E+00 -0.00000000000E+00 -0.50762729103E+03  0.50762729103E+03  0.00000000000E+00 0. -1.
          6    1    1    2  501    0  0.58635399321E+02 -0.19985611835E+02  0.96095719685E+02  0.20736663684E+03  0.17300000000E+03 0. -1.
         -6    1    1    2    0  503 -0.58635399321E+02  0.19985611835E+02 -0.43331531425E+03  0.47066835064E+03  0.17300000000E+03 0. -1.
<mgrwt>
<rscale>  2 0.18375673E+03</rscale>
<asrwt>0</asrwt>
<pdfrwt beam="1">  1       21 0.26216569E-01 0.18375673E+03</pdfrwt>
<pdfrwt beam="2">  1       21 0.78096505E-01 0.18375673E+03</pdfrwt>
<totfact> 0.20190130E+04</totfact>
</mgrwt>
</event>
<event>
 4    1  0.4173994E+000  0.2227358E+03  0.7546771E-02  0.1131860E+00
         21   -1    0    0  503  502  0.00000000000E+00  0.00000000000E+00  0.32069720511E+03  0.32069720511E+03  0.00000000000E+00 0.  1.
         21   -1    0    0  501  503 -0.00000000000E+00 -0.00000000000E+00 -0.18885079380E+03  0.18885079380E+03  0.00000000000E+00 0.  1.
          6    1    1    2  501    0 -0.72313496613E+01 -0.14010695288E+03  0.17426802078E+03  0.28280840463E+03  0.17300000000E+03 0.  1.
         -6    1    1    2    0  502  0.72313496613E+01  0.14010695288E+03 -0.42421609473E+02  0.22673959428E+03  0.17300000000E+03 0.  1.
<mgrwt>
<rscale>  2 0.22273583E+03</rscale>
<asrwt>0</asrwt>
<pdfrwt beam="1">  1       21 0.49338031E-01 0.22273583E+03</pdfrwt>
<pdfrwt beam="2">  1       21 0.29053968E-01 0.22273583E+03</pdfrwt>
<totfact> 0.43786706E+04</totfact>
</mgrwt>
</event>
<event>
 4    1  0.4173994E+000  0.2506682E+03  0.7546771E-02  0.1112883E+00
         21   -1    0    0  503  502  0.00000000000E+00  0.00000000000E+00  0.38108769576E+03  0.38108769576E+03  0.00000000000E+00 0. -1.
         21   -1    0    0  501  503 -0.00000000000E+00 -0.00000000000E+00 -0.18729249000E+03  0.18729249000E+03  0.00000000000E+00 0.  1.
          6    1    1    2  501    0  0.17507885093E+03  0.47464947372E+02 -0.14069931321E+01  0.25067210635E+03  0.17300000000E+03 0. -1.
         -6    1    1    2    0  502 -0.17507885093E+03 -0.47464947372E+02  0.19520219889E+03  0.31770807941E+03  0.17300000000E+03 0. -1.
<mgrwt>
<rscale>  2 0.25066816E+03</rscale>
<asrwt>0</asrwt>
<pdfrwt beam="1">  1       21 0.58628876E-01 0.25066816E+03</pdfrwt>
<pdfrwt beam="2">  1       21 0.28814229E-01 0.25066816E+03</pdfrwt>
<totfact> 0.30485593E+04</totfact>
</mgrwt>
</event>
<event>
 4    1  0.4173994E+000  0.1982774E+03  0.7546771E-02  0.1151201E+00
         21   -1    0    0  503  502  0.00000000000E+00  0.00000000000E+00  0.78741961985E+03  0.78741961985E+03  0.00000000000E+00 0.  1.
         21   -1    0    0  501  503 -0.00000000000E+00 -0.00000000000E+00 -0.53435734479E+02  0.53435734479E+02  0.00000000000E+00 0.  1.
          6    1    1    2  501    0 -0.89877004860E+02  0.36153331985E+02  0.25926705007E+03  0.32639445870E+03  0.17300000000E+03 0.  1.
         -6    1    1    2    0  502  0.89877004860E+02 -0.36153331985E+02  0.47471683530E+03  0.51446089563E+03  0.17300000000E+03 0.  1.
<mgrwt>
<rscale>  2 0.19827743E+03</rscale>
<asrwt>0</asrwt>
<pdfrwt beam="1">  1       21 0.12114147E+00 0.19827743E+03</pdfrwt>
<pdfrwt beam="2">  1       21 0.82208828E-02 0.19827743E+03</pdfrwt>
<totfact> 0.58861717E+04</totfact>
</mgrwt>
</event>
<event>
 4    1  0.4173994E+000  0.2185893E+03  0.7546771E-02  0.1134939E+00
         21   -1    0    0  503  502  0.00000000000E+00  0.00000000000E+00  0.29894367059E+04  0.29894367059E+04  0.00000000000E+00 0. -1.
         21   -1    0    0  501  503 -0.00000000000E+00 -0.00000000000E+00 -0.19333807477E+02  0.19333807477E+02  0.00000000000E+00 0. -1.
          6    1    1    2  501    0  0.26330997019E+02  0.13099219585E+03  0.85879667459E+03  0.88617887870E+03  0.17300000000E+03 0. -1.
         -6    1    1    2    0  502 -0.26330997019E+02 -0.13099219585E+03  0.21113062238E+04  0.21225916346E+04  0.17300000000E+03 0. -1.
<mgrwt>
<rscale>  2 0.21858929E+03</rscale>
<asrwt>0</asrwt>
<pdfrwt beam="1">  1       21 0.45991297E+00 0.21858929E+03</pdfrwt>
<pdfrwt beam="2">  1       21 0.29744343E-02 0.21858929E+03</pdfrwt>
<totfact> 0.22103970E+03</totfact>
</mgrwt>
</event>
<event>
 4    1  0.4173994E+000  0.2374972E+03  0.7546771E-02  0.1121471E+00
         21   -1    0    0  503  502  0.00000000000E+00  0.00000000000E+00  0.74251204110E+03  0.74251204110E+03  0.00000000000E+00 0.  1.
         21   -1    0    0  501  503 -0.00000000000E+00 -0.00000000000E+00 -0.22417678386E+03  0.22417678386E+03  0.00000000000E+00 0. -1.
          6    1    1    2  501    0  0.12110016958E+03 -0.10867681799E+03 -0.13384164887E+03  0.27261417574E+03  0.17300000000E+03 0. -1.
         -6    1    1    2    0  502 -0.12110016958E+03  0.10867681799E+03  0.65217690611E+03  0.69407464923E+03  0.17300000000E+03 0.  1.
<mgrwt>
<rscale>  2 0.23749716E+03</rscale>
<asrwt>0</asrwt>
<pdfrwt beam="1">  1       21 0.11423262E+00 0.23749716E+03</pdfrwt>
<pdfrwt beam="2">  1       21 0.34488736E-01 0.23749716E+03</pdfrwt>
<totfact> 0.46680845E+03</totfact>
</mgrwt>
</event>
<event>
 4    1  0.4173994E+000  0.1790280E+03  0.7546771E-02  0.1168747E+00
         21   -1    0    0  503  502  0.00000000000E+00  0.00000000000E+00  0.16790456381E+03  0.16790456381E+03  0.00000000000E+00 0.  1.
         21   -1    0    0  501  503 -0.00000000000E+00 -0.00000000000E+00 -0.21354081024E+03  0.21354081024E+03  0.00000000000E+00 0.  1.
          6    1    1    2  501    0  0.46004031632E+02  0.23796321521E+01 -0.84936360105E+02  0.19815453274E+03  0.17300000000E+03 0.  1.
         -6    1    1    2    0  502 -0.46004031632E+02 -0.23796321521E+01  0.39300113679E+02  0.18329084132E+03  0.17300000000E+03 0.  1.
<mgrwt>
<rscale>  2 0.17902802E+03</rscale>
<asrwt>0</asrwt>
<pdfrwt beam="1">  1       21 0.25831471E-01 0.17902802E+03</pdfrwt>
<pdfrwt beam="2">  1       21 0.32852433E-01 0.17902802E+03</pdfrwt>
<totfact> 0.12749504E+05</totfact>
</mgrwt>
</event>
<event>
 4    1  0.4173994E+000  0.1779973E+03  0.7546771E-02  0.1169755E+00
         21   -1    0    0  503  502  0.00000000000E+00  0.00000000000E+00  0.12580522215E+03  0.12580522215E+03  0.00000000000E+00 0.  1.
         21   -1    0    0  501  503 -0.00000000000E+00 -0.00000000000E+00 -0.28026496443E+03  0.28026496443E+03  0.00000000000E+00 0.  1.
          6    1    1    2  501    0 -0.33551466849E+02  0.25066530879E+02 -0.14188780258E+03  0.22762948056E+03  0.17300000000E+03 0.  1.
         -6    1    1    2    0  502  0.33551466849E+02 -0.25066530879E+02 -0.12571939697E+02  0.17844070602E+03  0.17300000000E+03 0.  1.
<mgrwt>
<rscale>  2 0.17799728E+03</rscale>
<asrwt>0</asrwt>
<pdfrwt beam="1">  1       21 0.19354650E-01 0.17799728E+03</pdfrwt>
<pdfrwt beam="2">  1       21 0.43117687E-01 0.17799728E+03</pdfrwt>
<totfact> 0.12755908E+05</totfact>
</mgrwt>
</event>
<event>
 4    1  0.4173994E+000  0.2428430E+03  0.7546771E-02  0.1117913E+00
         21   -1    0    0  501  502  0.00000000000E+00  0.00000000000E+00  0.90842351568E+03  0.90842351568E+03  0.00000000000E+00 0. -1.
         21   -1    0    0  502  503 -0.00000000000E+00 -0.00000000000E+00 -0.96009069137E+02  0.96009069137E+02  0.00000000000E+00 0. -1.
          6    1    1    2  501    0 -0.13572036205E+03  0.10307143865E+03  0.69200233752E+03  0.73337573813E+03  0.17300000000E+03 0.  1.
         -6    1    1    2    0  503  0.13572036205E+03 -0.10307143865E+03  0.12041210903E+03  0.27105684669E+03  0.17300000000E+03 0.  1.
<mgrwt>
<rscale>  2 0.24284303E+03</rscale>
<asrwt>0</asrwt>
<pdfrwt beam="1">  1       21 0.13975746E+00 0.24284303E+03</pdfrwt>
<pdfrwt beam="2">  1       21 0.14770627E-01 0.24284303E+03</pdfrwt>
<totfact> 0.14038215E+04</totfact>
</mgrwt>
</event>
<event>
 4    1  0.4173994E+000  0.2025100E+03  0.7546771E-02  0.1147638E+00
         21   -1    0    0  503  502  0.00000000000E+00  0.00000000000E+00  0.55914312081E+03  0.55914312081E+03  0.00000000000E+00 0.  1.
         21   -1    0    0  501  503 -0.00000000000E+00 -0.00000000000E+00 -0.83984704532E+02  0.83984704532E+02  0.00000000000E+00 0. -1.
          6    1    1    2  501    0 -0.10061929949E+03 -0.30936197006E+02  0.12312435923E+03  0.23700189778E+03  0.17300000000E+03 0. -1.
         -6    1    1    2    0  502  0.10061929949E+03  0.30936197006E+02  0.35203405704E+03  0.40612592756E+03  0.17300000000E+03 0.  1.
<mgrwt>
<rscale>  2 0.20250998E+03</rscale>
<asrwt>0</asrwt>
<pdfrwt beam="1">  1       21 0.86022017E-01 0.20250998E+03</pdfrwt>
<pdfrwt beam="2">  1       21 0.12920724E-01 0.20250998E+03</pdfrwt>
<totfact> 0.59635383E+04</totfact>
</mgrwt>
</event>
<event>
 4    1  0.4173994E+000  0.2266137E+03  0.7546771E-02  0.1129046E+00
         21   -1    0    0  503  502  0.00000000000E+00  0.00000000000E+00  0.66749912054E+02  0.66749912054E+02  0.00000000000E+00 0. -1.
         21   -1    0    0  501  503 -0.00000000000E+00 -0.00000000000E+00 -0.10305134606E+04  0.10305134606E+04  0.00000000000E+00 0. -1.
          6    1    1    2  501    0  0.45675559478E+02  0.13906303558E+03 -0.75807530458E+03  0.79122180962E+03  0.17300000000E+03 0. -1.
         -6    1    1    2    0  502 -0.45675559478E+02 -0.13906303558E+03 -0.20568824395E+03  0.30604156302E+03  0.17300000000E+03 0. -1.
<mgrwt>
<rscale>  2 0.22661373E+03</rscale>
<asrwt>0</asrwt>
<pdfrwt beam="1">  1       21 0.10269217E-01 0.22661373E+03</pdfrwt>
<pdfrwt beam="2">  1       21 0.15854053E+00 0.22661373E+03</pdfrwt>
<totfact> 0.19531580E+04</totfact>
</mgrwt>
</event>
<event>
 4    1  0.4173994E+000  0.1889523E+03  0.7546771E-02  0.1159410E+00
         21   -1    0    0  501  502  0.00000000000E+00  0.00000000000E+00  0.25034399717E+03  0.25034399717E+03  0.00000000000E+00 0.  1.
         21   -1    0    0  502  503 -0.00000000000E+00 -0.00000000000E+00 -0.51114966999E+03  0.51114966999E+03  0.00000000000E+00 0.  1.
          6    1    1    2  501    0  0.73025094129E+02 -0.21007078422E+02  0.19289371652E+03  0.27002027255E+03  0.17300000000E+03 0.  1.
         -6    1    1    2    0  503 -0.73025094129E+02  0.21007078422E+02 -0.45369938934E+03  0.49147339460E+03  0.17300000000E+03 0.  1.
<mgrwt>
<rscale>  2 0.18895227E+03</rscale>
<asrwt>0</asrwt>
<pdfrwt beam="1">  1       21 0.38514462E-01 0.18895227E+03</pdfrwt>
<pdfrwt beam="2">  1       21 0.78638409E-01 0.18895227E+03</pdfrwt>
<totfact> 0.93181864E+03</totfact>
</mgrwt>
</event>
<event>
 4    1  0.4173994E+000  0.2349748E+03  0.7546771E-02  0.1123186E+00
         21   -1    0    0  503  502  0.00000000000E+00  0.00000000000E+00  0.26441091900E+03  0.26441091900E+03  0.00000000000E+00 0.  1.
         21   -1    0    0  501  503 -0.00000000000E+00 -0.00000000000E+00 -0.63210967587E+03  0.63210967587E+03  0.00000000000E+00 0. -1.
          6    1    1    2  501    0  0.86429842637E+01  0.15877483325E+03 -0.55067115020E+03  0.59870849711E+03  0.17300000000E+03 0. -1.
         -6    1    1    2    0  502 -0.86429842637E+01 -0.15877483325E+03  0.18297239332E+03  0.29781209776E+03  0.17300000000E+03 0.  1.
<mgrwt>
<rscale>  2 0.23497478E+03</rscale>
<asrwt>0</asrwt>
<pdfrwt beam="1">  1       21 0.40678603E-01 0.23497478E+03</pdfrwt>
<pdfrwt beam="2">  1       21 0.97247642E-01 0.23497478E+03</pdfrwt>
<totfact> 0.49479303E+03</totfact>
</mgrwt>
</event>
<event>
 4    1  0.4173994E+000  0.2689079E+03  0.7546771E-02  0.1101906E+00
         21   -1    0    0  501  502  0.00000000000E+00  0.00000000000E+00  0.46996823827E+03  0.46996823827E+03  0.00000000000E+00 0.  1.
         21   -1    0    0  502  503 -0.00000000000E+00 -0.00000000000E+00 -0.15444029425E+03  0.15444029425E+03  0.00000000000E+00 0.  1.
          6    1    1    2  501    0 -0.33455546814E+02 -0.20313338631E+03  0.13870157364E+03  0.30257159942E+03  0.17300000000E+03 0.  1.
         -6    1    1    2    0  503  0.33455546814E+02  0.20313338631E+03  0.17682637038E+03  0.32183693310E+03  0.17300000000E+03 0.  1.
<mgrwt>
<rscale>  2 0.26890788E+03</rscale>
<asrwt>0</asrwt>
<pdfrwt beam="1">  1       21 0.72302805E-01 0.26890788E+03</pdfrwt>
<pdfrwt beam="2">  1       21 0.23760045E-01 0.26890788E+03</pdfrwt>
<totfact> 0.27718534E+04</totfact>
</mgrwt>
</event>
<event>
 4    1  0.4173994E+000  0.1776112E+03  0.7546771E-02  0.1170135E+00
         21   -1    0    0  501  502  0.00000000000E+00  0.00000000000E+00  0.11600200508E+03  0.11600200508E+03  0.00000000000E+00 0. -1.
         21   -1    0    0  502  503 -0.00000000000E+00 -0.00000000000E+00 -0.27387070853E+03  0.27387070853E+03  0.00000000000E+00 0. -1.
          6    1    1    2  501    0  0.11833152738E+02  0.38428127452E+02 -0.95295884327E+02  0.20156152920E+03  0.17300000000E+03 0. -1.
         -6    1    1    2    0  503 -0.11833152738E+02 -0.38428127452E+02 -0.62572819125E+02  0.18831118442E+03  0.17300000000E+03 0. -1.
<mgrwt>
<rscale>  2 0.17761122E+03</rscale>
<asrwt>0</asrwt>
<pdfrwt beam="1">  1       21 0.17846463E-01 0.17761122E+03</pdfrwt>
<pdfrwt beam="2">  1       21 0.42133954E-01 0.17761122E+03</pdfrwt>
<totfact> 0.15537194E+05</totfact>
</mgrwt>
</event>
<event>
 4    1  0.4173994E+000  0.2060928E+03  0.7546771E-02  0.1144698E+00
         21   -1    0    0  503  502  0.00000000000E+00  0.00000000000E+00  0.36850434125E+03  0.36850434125E+03  0.00000000000E+00 0. -1.
         21   -1    0    0  501  503 -0.00000000000E+00 -0.00000000000E+00 -0.13141931572E+03  0.13141931572E+03  0.00000000000E+00 0.  1.
          6    1    1    2  501    0 -0.78126535353E+02  0.80258939939E+02  0.20618999298E+03  0.29152798523E+03  0.17300000000E+03 0. -1.
         -6    1    1    2    0  502  0.78126535353E+02 -0.80258939939E+02  0.30895032560E+02  0.20839567175E+03  0.17300000000E+03 0.  1.
<mgrwt>
<rscale>  2 0.20609283E+03</rscale>
<asrwt>0</asrwt>
<pdfrwt beam="1">  1       21 0.56692975E-01 0.20609283E+03</pdfrwt>
<pdfrwt beam="2">  1       21 0.20218356E-01 0.20609283E+03</pdfrwt>
<totfact> 0.65756335E+04</totfact>
</mgrwt>
</event>
<event>
 4    1  0.4173994E+000  0.1788165E+03  0.7546771E-02  0.1168953E+00
         21   -1    0    0  503  502  0.00000000000E+00  0.00000000000E+00  0.59399350064E+03  0.59399350064E+03  0.00000000000E+00 0. -1.
         21   -1    0    0  501  503 -0.00000000000E+00 -0.00000000000E+00 -0.15932037864E+03  0.15932037864E+03  0.00000000000E+00 0. -1.
          6    1    1    2  501    0 -0.45230524038E+02 -0.74570792044E+00 -0.89152060554E+02  0.19980852406E+03  0.17300000000E+03 0. -1.
         -6    1    1    2    0  502  0.45230524038E+02  0.74570792044E+00  0.52382518255E+03  0.55350535522E+03  0.17300000000E+03 0. -1.
<mgrwt>
<rscale>  2 0.17881654E+03</rscale>
<asrwt>0</asrwt>
<pdfrwt beam="1">  1       21 0.91383614E-01 0.17881654E+03</pdfrwt>
<pdfrwt beam="2">  1       21 0.24510828E-01 0.17881654E+03</pdfrwt>
<totfact> 0.16092513E+04</totfact>
</mgrwt>
</event>
<event>
 4    1  0.4173994E+000  0.1765675E+03  0.7546771E-02  0.1171167E+00
         21   -1    0    0  501  502  0.00000000000E+00  0.00000000000E+00  0.34980768948E+03  0.34980768948E+03  0.00000000000E+00 0.  1.
         21   -1    0    0  502  503 -0.00000000000E+00 -0.00000000000E+00 -0.13842475031E+03  0.13842475031E+03  0.00000000000E+00 0.  1.
          6    1    1    2  501    0 -0.16336892894E+02  0.31307831949E+02  0.25137782192E+03  0.30719193311E+03  0.17300000000E+03 0.  1.
         -6    1    1    2    0  503  0.16336892894E+02 -0.31307831949E+02 -0.39994882752E+02  0.18104050667E+03  0.17300000000E+03 0.  1.
<mgrwt>
<rscale>  2 0.17656748E+03</rscale>
<asrwt>0</asrwt>
<pdfrwt beam="1">  1       21 0.53816567E-01 0.17656748E+03</pdfrwt>
<pdfrwt beam="2">  1       21 0.21296116E-01 0.17656748E+03</pdfrwt>
<totfact> 0.67489701E+04</totfact>
</mgrwt>
</event>
<event>
 4    1  0.4173994E+000  0.1885771E+03  0.7546771E-02  0.1159751E+00
         21   -1    0    0  501  502  0.00000000000E+00  0.00000000000E+00  0.12007524252E+03  0.12007524252E+03  0.00000000000E+00 0.  1.
         21   -1    0    0  502  503 -0.00000000000E+00 -0.00000000000E+00 -0.86148259575E+03  0.86148259575E+03  0.00000000000E+00 0.  1.
          6    1    1    2  501    0 -0.22682001204E+02  0.71539111416E+02  0.26864258030E+02  0.19048098593E+03  0.17300000000E+03 0.  1.
         -6    1    1    2    0  503  0.22682001204E+02 -0.71539111416E+02 -0.76827161126E+03  0.79107685234E+03  0.17300000000E+03 0.  1.
<mgrwt>
<rscale>  2 0.18857709E+03</rscale>
<asrwt>0</asrwt>
<pdfrwt beam="1">  1       21 0.18473115E-01 0.18857709E+03</pdfrwt>
<pdfrwt beam="2">  1       21 0.13253578E+00 0.18857709E+03</pdfrwt>
<totfact> 0.11047927E+04</totfact>
</mgrwt>
</event>
<event>
 4    1  0.4173994E+000  0.1906440E+03  0.7546771E-02  0.1157882E+00
         21   -1    0    0  501  502  0.00000000000E+00  0.00000000000E+00  0.19589685455E+02  0.19589685455E+02  0.00000000000E+00 0.  1.
         21   -1    0    0  502  503 -0.00000000000E+00 -0.00000000000E+00 -0.18580905201E+04  0.18580905201E+04  0.00000000000E+00 0.  1.
          6    1    1    2  501    0  0.11914414330E+02  0.79209650337E+02 -0.88299342057E+03  0.90333963865E+03  0.17300000000E+03 0.  1.
         -6    1    1    2    0  503 -0.11914414330E+02 -0.79209650337E+02 -0.95550741408E+03  0.97434056692E+03  0.17300000000E+03 0.  1.
<mgrwt>
<rscale>  2 0.19064397E+03</rscale>
<asrwt>0</asrwt>
<pdfrwt beam="1">  1       21 0.30137983E-02 0.19064397E+03</pdfrwt>
<pdfrwt beam="2">  1       21 0.28586003E+00 0.19064397E+03</pdfrwt>
<totfact> 0.25902851E+04</totfact>
</mgrwt>
</event>
<event>
 4    1  0.4173994E+000  0.2049450E+03  0.7546771E-02  0.1145633E+00
         21   -1    0    0  501  502  0.00000000000E+00  0.00000000000E+00  0.14331637957E+04  0.14331637957E+04  0.00000000000E+00 0.  1.
         21   -1    0    0  502  503 -0.00000000000E+00 -0.00000000000E+00 -0.32816141419E+02  0.32816141419E+02  0.00000000000E+00 0. -1.
          6    1    1    2  501    0 -0.50447868303E+02 -0.97613822488E+02  0.93984944799E+03  0.96193525283E+03  0.17300000000E+03 0.  1.
         -6    1    1    2    0  503  0.50447868303E+02  0.97613822488E+02  0.46049820628E+03  0.50404468427E+03  0.17300000000E+03 0. -1.
<mgrwt>
<rscale>  2 0.20494498E+03</rscale>
<asrwt>0</asrwt>
<pdfrwt beam="1">  1       21 0.22048669E+00 0.20494498E+03</pdfrwt>
<pdfrwt beam="2">  1       21 0.50486382E-02 0.20494498E+03</pdfrwt>
<totfact> 0.26189216E+04</totfact>
</mgrwt>
</event>
<event>
 4    1  0.4173994E+000  0.2146925E+03  0.7546771E-02  0.1137903E+00
         21   -1    0    0  501  502  0.00000000000E+00  0.00000000000E+00  0.27782494349E+03  0.27782494349E+03  0.00000000000E+00 0.  1.
         21   -1    0    0  502  503 -0.00000000000E+00 -0.00000000000E+00 -0.21007443581E+03  0.21007443581E+03  0.00000000000E+00 0.  1.
          6    1    1    2  501    0  0.12120184418E+03 -0.38392292950E+02  0.14573379312E+03  0.25948254980E+03  0.17300000000E+03 0.  1.
         -6    1    1    2    0  503 -0.12120184418E+03  0.38392292950E+02 -0.77983285443E+02  0.22841682950E+03  0.17300000000E+03 0.  1.
<mgrwt>
<rscale>  2 0.21469247E+03</rscale>
<asrwt>0</asrwt>
<pdfrwt beam="1">  1       21 0.42742299E-01 0.21469247E+03</pdfrwt>
<pdfrwt beam="2">  1       21 0.32319144E-01 0.21469247E+03</pdfrwt>
<totfact> 0.47981547E+04</totfact>
</mgrwt>
</event>
<event>
 4    1  0.4173994E+000  0.1940763E+03  0.7546771E-02  0.1154835E+00
         21   -1    0    0  501  502  0.00000000000E+00  0.00000000000E+00  0.54820230080E+03  0.54820230080E+03  0.00000000000E+00 0.  1.
         21   -1    0    0  502  503 -0.00000000000E+00 -0.00000000000E+00 -0.16539929725E+03  0.16539929725E+03  0.00000000000E+00 0.  1.
          6    1    1    2  501    0 -0.86221630560E+02  0.17391125436E+02  0.46420740176E+03  0.50314424639E+03  0.17300000000E+03 0.  1.
         -6    1    1    2    0  503  0.86221630560E+02 -0.17391125436E+02 -0.81404398219E+02  0.21045735166E+03  0.17300000000E+03 0.  1.
<mgrwt>
<rscale>  2 0.19407633E+03</rscale>
<asrwt>0</asrwt>
<pdfrwt beam="1">  1       21 0.84338815E-01 0.19407633E+03</pdfrwt>
<pdfrwt beam="2">  1       21 0.25446046E-01 0.19407633E+03</pdfrwt>
<totfact> 0.17847656E+04</totfact>
</mgrwt>
</event>
<event>
 4    1  0.4173994E+000  0.2439592E+03  0.7546771E-02  0.1117183E+00
         21   -1    0    0  503  502  0.00000000000E+00  0.00000000000E+00  0.11773991309E+04  0.11773991309E+04  0.00000000000E+00 0. -1.
         21   -1    0    0  501  503 -0.00000000000E+00 -0.00000000000E+00 -0.83633918414E+02  0.83633918414E+02  0.00000000000E+00 0.  1.
          6    1    1    2  501    0  0.15241096374E+03 -0.79736941009E+02  0.15031085668E+03  0.28654743981E+03  0.17300000000E+03 0.  1.
         -6    1    1    2    0  502 -0.15241096374E+03  0.79736941009E+02  0.94345435580E+03  0.97448560949E+03  0.17300000000E+03 0. -1.
<mgrwt>
<rscale>  2 0.24395918E+03</rscale>
<asrwt>0</asrwt>
<pdfrwt beam="1">  1       21 0.18113832E+00 0.24395918E+03</pdfrwt>
<pdfrwt beam="2">  1       21 0.12866758E-01 0.24395918E+03</pdfrwt>
<totfact> 0.89072704E+03</totfact>
</mgrwt>
</event>
<event>
 4    1  0.4173994E+000  0.1781202E+03  0.7546771E-02  0.1169635E+00
         21   -1    0    0  503  502  0.00000000000E+00  0.00000000000E+00  0.73686704259E+03  0.73686704259E+03  0.00000000000E+00 0.  1.
         21   -1    0    0  501  503 -0.00000000000E+00 -0.00000000000E+00 -0.74114059912E+02  0.74114059912E+02  0.00000000000E+00 0.  1.
          6    1    1    2  501    0  0.34683991760E+02  0.24389385148E+02  0.68885140165E+02  0.19097639626E+03  0.17300000000E+03 0.  1.
         -6    1    1    2    0  502 -0.34683991760E+02 -0.24389385148E+02  0.59386784251E+03  0.62000470624E+03  0.17300000000E+03 0.  1.
<mgrwt>
<rscale>  2 0.17812024E+03</rscale>
<asrwt>0</asrwt>
<pdfrwt beam="1">  1       21 0.11336416E+00 0.17812024E+03</pdfrwt>
<pdfrwt beam="2">  1       21 0.11402164E-01 0.17812024E+03</pdfrwt>
<totfact> 0.39339002E+04</totfact>
</mgrwt>
</event>
<event>
 4    1  0.4173994E+000  0.1892121E+03  0.7546771E-02  0.1159174E+00
         21   -1    0    0  503  502  0.00000000000E+00  0.00000000000E+00  0.25819208427E+03  0.25819208427E+03  0.00000000000E+00 0.  1.
         21   -1    0    0  501  503 -0.00000000000E+00 -0.00000000000E+00 -0.18012454891E+03  0.18012454891E+03  0.00000000000E+00 0.  1.
          6    1    1    2  501    0 -0.49438288964E+02  0.58549691287E+02 -0.66114945981E+02  0.20043052873E+03  0.17300000000E+03 0.  1.
         -6    1    1    2    0  502  0.49438288964E+02 -0.58549691287E+02  0.14418248133E+03  0.23788610445E+03  0.17300000000E+03 0.  1.
<mgrwt>
<rscale>  2 0.18921208E+03</rscale>
<asrwt>0</asrwt>
<pdfrwt beam="1">  1       21 0.39721859E-01 0.18921208E+03</pdfrwt>
<pdfrwt beam="2">  1       21 0.27711469E-01 0.18921208E+03</pdfrwt>
<totfact> 0.76043285E+04</totfact>
</mgrwt>
</event>
<event>
 4    1  0.4173994E+000  0.2405954E+03  0.7546771E-02  0.1119397E+00
         21   -1    0    0  501  502  0.00000000000E+00  0.00000000000E+00  0.32022827436E+02  0.32022827436E+02  0.00000000000E+00 0.  1.
         21   -1    0    0  502  503 -0.00000000000E+00 -0.00000000000E+00 -0.20213912094E+04  0.20213912094E+04  0.00000000000E+00 0.  1.
          6    1    1    2  501    0  0.15529986036E+03  0.61960354240E+02 -0.66082501679E+03  0.70326085839E+03  0.17300000000E+03 0.  1.
         -6    1    1    2    0  503 -0.15529986036E+03 -0.61960354240E+02 -0.13285433652E+04  0.13501531785E+04  0.17300000000E+03 0.  1.
<mgrwt>
<rscale>  2 0.24059537E+03</rscale>
<asrwt>0</asrwt>
<pdfrwt beam="1">  1       21 0.49265882E-02 0.24059537E+03</pdfrwt>
<pdfrwt beam="2">  1       21 0.31098330E+00 0.24059537E+03</pdfrwt>
<totfact> 0.77484212E+03</totfact>
</mgrwt>
</event>
<event>
 4    1  0.4173994E+000  0.2159342E+03  0.7546771E-02  0.1136951E+00
         21   -1    0    0  501  502  0.00000000000E+00  0.00000000000E+00  0.38960482435E+03  0.38960482435E+03  0.00000000000E+00 0. -1.
         21   -1    0    0  502  503 -0.00000000000E+00 -0.00000000000E+00 -0.16305537735E+03  0.16305537735E+03  0.00000000000E+00 0. -1.
          6    1    1    2  501    0 -0.59547949119E+02  0.11468487278E+03  0.25579822008E+03  0.33475410033E+03  0.17300000000E+03 0. -1.
         -6    1    1    2    0  503  0.59547949119E+02 -0.11468487278E+03 -0.29248773080E+02  0.21790610137E+03  0.17300000000E+03 0. -1.
<mgrwt>
<rscale>  2 0.21593420E+03</rscale>
<asrwt>0</asrwt>
<pdfrwt beam="1">  1       21 0.59939203E-01 0.21593420E+03</pdfrwt>
<pdfrwt beam="2">  1       21 0.25085443E-01 0.21593420E+03</pdfrwt>
<totfact> 0.38616182E+04</totfact>
</mgrwt>
</event>
<event>
 4    1  0.4173994E+000  0.2254903E+03  0.7546771E-02  0.1129855E+00
         21   -1    0    0  503  502  0.00000000000E+00  0.00000000000E+00  0.18995449903E+03  0.18995449903E+03  0.00000000000E+00 0. -1.
         21   -1    0    0  501  503 -0.00000000000E+00 -0.00000000000E+00 -0.45883415497E+03  0.45883415497E+03  0.00000000000E+00 0. -1.
          6    1    1    2  501    0  0.12163321661E+03  0.78244686504E+02 -0.34382413521E+03  0.41117016708E+03  0.17300000000E+03 0. -1.
         -6    1    1    2    0  502 -0.12163321661E+03 -0.78244686504E+02  0.74944479262E+02  0.23761848691E+03  0.17300000000E+03 0. -1.
<mgrwt>
<rscale>  2 0.22549029E+03</rscale>
<asrwt>0</asrwt>
<pdfrwt beam="1">  1       21 0.29223769E-01 0.22549029E+03</pdfrwt>
<pdfrwt beam="2">  1       21 0.70589869E-01 0.22549029E+03</pdfrwt>
<totfact> 0.20012486E+04</totfact>
</mgrwt>
</event>
<event>
 4    1  0.4173994E+000  0.2122416E+03  0.7546771E-02  0.1139803E+00
         21   -1    0    0  503  502  0.00000000000E+00  0.00000000000E+00  0.32518241954E+03  0.32518241954E+03  0.00000000000E+00 0. -1.
         21   -1    0    0  501  503 -0.00000000000E+00 -0.00000000000E+00 -0.22333054593E+03  0.22333054593E+03  0.00000000000E+00 0. -1.
          6    1    1    2  501    0  0.86490653379E+02 -0.87389238621E+02 -0.11807538570E+03  0.24287508900E+03  0.17300000000E+03 0. -1.
         -6    1    1    2    0  502 -0.86490653379E+02  0.87389238621E+02  0.21992725931E+03  0.30563787647E+03  0.17300000000E+03 0. -1.
<mgrwt>
<rscale>  2 0.21224164E+03</rscale>
<asrwt>0</asrwt>
<pdfrwt beam="1">  1       21 0.50028065E-01 0.21224164E+03</pdfrwt>
<pdfrwt beam="2">  1       21 0.34358545E-01 0.21224164E+03</pdfrwt>
<totfact> 0.30742543E+04</totfact>
</mgrwt>
</event>
<event>
 4    1  0.4173994E+000  0.2711896E+03  0.7546771E-02  0.1100601E+00
         21   -1    0    0  503  502  0.00000000000E+00  0.00000000000E+00  0.71647067978E+03  0.71647067978E+03  0.00000000000E+00 0.  1.
         21   -1    0    0  501  503 -0.00000000000E+00 -0.00000000000E+00 -0.23052170274E+03  0.23052170274E+03  0.00000000000E+00 0. -1.
          6    1    1    2  501    0 -0.63950969753E+02  0.19880913040E+03 -0.10968238391E+03  0.29253037826E+03  0.17300000000E+03 0. -1.
         -6    1    1    2    0  502  0.63950969753E+02 -0.19880913040E+03  0.59563136096E+03  0.65446200426E+03  0.17300000000E+03 0. -1.
<mgrwt>
<rscale>  2 0.27118960E+03</rscale>
<asrwt>0</asrwt>
<pdfrwt beam="1">  1       21 0.11022626E+00 0.27118960E+03</pdfrwt>
<pdfrwt beam="2">  1       21 0.35464878E-01 0.27118960E+03</pdfrwt>
<totfact> 0.47173562E+03</totfact>
</mgrwt>
</event>
<event>
 4    1  0.4173994E+000  0.1847662E+03  0.7546771E-02  0.1163268E+00
         21   -1    0    0  503  502  0.00000000000E+00  0.00000000000E+00  0.25338564907E+03  0.25338564907E+03  0.00000000000E+00 0.  1.
         21   -1    0    0  501  503 -0.00000000000E+00 -0.00000000000E+00 -0.13762033694E+03  0.13762033694E+03  0.00000000000E+00 0.  1.
          6    1    1    2  501    0  0.22597755597E+02  0.60818462178E+02  0.29548038819E+02  0.18711395057E+03  0.17300000000E+03 0. -1.
         -6    1    1    2    0  502 -0.22597755597E+02 -0.60818462178E+02  0.86217273308E+02  0.20389203544E+03  0.17300000000E+03 0. -1.
<mgrwt>
<rscale>  2 0.18476619E+03</rscale>
<asrwt>0</asrwt>
<pdfrwt beam="1">  1       21 0.38982408E-01 0.18476619E+03</pdfrwt>
<pdfrwt beam="2">  1       21 0.21172360E-01 0.18476619E+03</pdfrwt>
<totfact> 0.13198769E+05</totfact>
</mgrwt>
</event>
<event>
 4    1  0.4173994E+000  0.1768972E+03  0.7546771E-02  0.1170840E+00
         21   -1    0    0  503  502  0.00000000000E+00  0.00000000000E+00  0.10508558315E+03  0.10508558315E+03  0.00000000000E+00 0.  1.
         21   -1    0    0  501  503 -0.00000000000E+00 -0.00000000000E+00 -0.30041605361E+03  0.30041605361E+03  0.00000000000E+00 0.  1.
          6    1    1    2  501    0  0.18459284065E+02  0.31982284732E+02 -0.11664978673E+03  0.21189569238E+03  0.17300000000E+03 0.  1.
         -6    1    1    2    0  502 -0.18459284065E+02 -0.31982284732E+02 -0.78680683729E+02  0.19360594437E+03  0.17300000000E+03 0.  1.
<mgrwt>
<rscale>  2 0.17689718E+03</rscale>
<asrwt>0</asrwt>
<pdfrwt beam="1">  1       21 0.16167013E-01 0.17689718E+03</pdfrwt>
<pdfrwt beam="2">  1       21 0.46217854E-01 0.17689718E+03</pdfrwt>
<totfact> 0.15423008E+05</totfact>
</mgrwt>
</event>
<event>
 4    1  0.4173994E+000  0.2347619E+03  0.7546771E-02  0.1123332E+00
         21   -1    0    0  503  502  0.00000000000E+00  0.00000000000E+00  0.57428899172E+03  0.57428899172E+03  0.00000000000E+00 0.  1.
         21   -1    0    0  501  503 -0.00000000000E+00 -0.00000000000E+00 -0.94392260053E+03  0.94392260053E+03  0.00000000000E+00 0.  1.
          6    1    1    2  501    0  0.13013124354E+03 -0.90829653940E+02 -0.90429975074E+03  0.93427576538E+03  0.17300000000E+03 0.  1.
         -6    1    1    2    0  502 -0.13013124354E+03  0.90829653940E+02  0.53466614193E+03  0.58393582687E+03  0.17300000000E+03 0.  1.
<mgrwt>
<rscale>  2 0.23476194E+03</rscale>
<asrwt>0</asrwt>
<pdfrwt beam="1">  1       21 0.88352154E-01 0.23476194E+03</pdfrwt>
<pdfrwt beam="2">  1       21 0.14521886E+00 0.23476194E+03</pdfrwt>
<totfact> 0.34063609E+02</totfact>
</mgrwt>
</event>
<event>
 4    1  0.4173994E+000  0.2842381E+03  0.7546771E-02  0.1093396E+00
         21   -1    0    0  501  502  0.00000000000E+00  0.00000000000E+00  0.12393546852E+04  0.12393546852E+04  0.00000000000E+00 0.  1.
         21   -1    0    0  502  503 -0.00000000000E+00 -0.00000000000E+00 -0.74156920919E+02  0.74156920919E+02  0.00000000000E+00 0.  1.
          6    1    1    2  501    0  0.16238338904E+03  0.15650533503E+03  0.81099759139E+03  0.85936510179E+03  0.17300000000E+03 0.  1.
         -6    1    1    2    0  503 -0.16238338904E+03 -0.15650533503E+03  0.35420017292E+03  0.45414650436E+03  0.17300000000E+03 0.  1.
<mgrwt>
<rscale>  2 0.28423808E+03</rscale>
<asrwt>0</asrwt>
<pdfrwt beam="1">  1       21 0.19066994E+00 0.28423808E+03</pdfrwt>
<pdfrwt beam="2">  1       21 0.11408758E-01 0.28423808E+03</pdfrwt>
<totfact> 0.93017117E+03</totfact>
</mgrwt>
</event>
<event>
 4    1  0.4173994E+000  0.2899491E+03  0.7546771E-02  0.1090376E+00
         21   -1    0    0  501  502  0.00000000000E+00  0.00000000000E+00  0.65861490443E+03  0.65861490443E+03  0.00000000000E+00 0. -1.
         21   -1    0    0  502  503 -0.00000000000E+00 -0.00000000000E+00 -0.15410164915E+03  0.15410164915E+03  0.00000000000E+00 0. -1.
          6    1    1    2  501    0 -0.52582246194E+02 -0.22666401202E+03  0.42062222321E+03  0.51087525054E+03  0.17300000000E+03 0. -1.
         -6    1    1    2    0  503  0.52582246194E+02  0.22666401202E+03  0.83891032078E+02  0.30184130304E+03  0.17300000000E+03 0. -1.
<mgrwt>
<rscale>  2 0.28994908E+03</rscale>
<asrwt>0</asrwt>
<pdfrwt beam="1">  1       21 0.10132537E+00 0.28994908E+03</pdfrwt>
<pdfrwt beam="2">  1       21 0.23707946E-01 0.28994908E+03</pdfrwt>
<totfact> 0.12618511E+04</totfact>
</mgrwt>
</event>
<event>
 4    1  0.4173994E+000  0.2012552E+03  0.7546771E-02  0.1148684E+00
         21   -1    0    0  501  502  0.00000000000E+00  0.00000000000E+00  0.17062140224E+04  0.17062140224E+04  0.00000000000E+00 0.  1.
         21   -1    0    0  502  503 -0.00000000000E+00 -0.00000000000E+00 -0.50934311620E+02  0.50934311620E+02  0.00000000000E+00 0. -1.
          6    1    1    2  501    0 -0.88784926181E+02  0.51883270166E+02  0.14696192087E+04  0.14833355168E+04  0.17300000000E+03 0.  1.
         -6    1    1    2    0  503  0.88784926181E+02 -0.51883270166E+02  0.18566050210E+03  0.27381281723E+03  0.17300000000E+03 0. -1.
<mgrwt>
<rscale>  2 0.20125515E+03</rscale>
<asrwt>0</asrwt>
<pdfrwt beam="1">  1       21 0.26249442E+00 0.20125515E+03</pdfrwt>
<pdfrwt beam="2">  1       21 0.78360492E-02 0.20125515E+03</pdfrwt>
<totfact> 0.69304904E+03</totfact>
</mgrwt>
</event>
<event>
 4    1  0.4173994E+000  0.1769527E+03  0.7546771E-02  0.1170785E+00
         21   -1    0    0  501  502  0.00000000000E+00  0.00000000000E+00  0.60768409820E+02  0.60768409820E+02  0.00000000000E+00 0.  1.
         21   -1    0    0  502  503 -0.00000000000E+00 -0.00000000000E+00 -0.85324510848E+03  0.85324510848E+03  0.00000000000E+00 0.  1.
          6    1    1    2  501    0 -0.34665361423E+02 -0.13474182365E+02 -0.10861310823E+03  0.20762718549E+03  0.17300000000E+03 0.  1.
         -6    1    1    2    0  503  0.34665361423E+02  0.13474182365E+02 -0.68386359043E+03  0.70638633282E+03  0.17300000000E+03 0.  1.
<mgrwt>
<rscale>  2 0.17695265E+03</rscale>
<asrwt>0</asrwt>
<pdfrwt beam="1">  1       21 0.93489863E-02 0.17695265E+03</pdfrwt>
<pdfrwt beam="2">  1       21 0.13126848E+00 0.17695265E+03</pdfrwt>
<totfact> 0.38883351E+04</totfact>
</mgrwt>
</event>
<event>
 4    1  0.4173994E+000  0.1985057E+03  0.7546771E-02  0.1151006E+00
         21   -1    0    0  503  502  0.00000000000E+00  0.00000000000E+00  0.27777374810E+03  0.27777374810E+03  0.00000000000E+00 0. -1.
         21   -1    0    0  501  503 -0.00000000000E+00 -0.00000000000E+00 -0.23228256025E+03  0.23228256025E+03  0.00000000000E+00 0.  1.
          6    1    1    2  501    0 -0.20676986491E+02  0.95120882610E+02  0.18186466518E+03  0.26921975507E+03  0.17300000000E+03 0. -1.
         -6    1    1    2    0  502  0.20676986491E+02 -0.95120882610E+02 -0.13637347733E+03  0.24083655328E+03  0.17300000000E+03 0.  1.
<mgrwt>
<rscale>  2 0.19850572E+03</rscale>
<asrwt>0</asrwt>
<pdfrwt beam="1">  1       21 0.42734423E-01 0.19850572E+03</pdfrwt>
<pdfrwt beam="2">  1       21 0.35735779E-01 0.19850572E+03</pdfrwt>
<totfact> 0.39649301E+04</totfact>
</mgrwt>
</event>
<event>
 4    1  0.4173994E+000  0.2055448E+03  0.7546771E-02  0.1145143E+00
         21   -1    0    0  501  502  0.00000000000E+00  0.00000000000E+00  0.11838021496E+04  0.11838021496E+04  0.00000000000E+00 0. -1.
         21   -1    0    0  502  503 -0.00000000000E+00 -0.00000000000E+00 -0.44814548644E+02  0.44814548644E+02  0.00000000000E+00 0. -1.
          6    1    1    2  501    0  0.74947455251E+02 -0.81869045392E+02  0.84670289073E+03  0.87129469573E+03  0.17300000000E+03 0. -1.
         -6    1    1    2    0  503 -0.74947455251E+02  0.81869045392E+02  0.29228471019E+03  0.35732200248E+03  0.17300000000E+03 0. -1.
<mgrwt>
<rscale>  2 0.20554479E+03</rscale>
<asrwt>0</asrwt>
<pdfrwt beam="1">  1       21 0.18212338E+00 0.20554479E+03</pdfrwt>
<pdfrwt beam="2">  1       21 0.68945469E-02 0.20554479E+03</pdfrwt>
<totfact> 0.27092986E+04</totfact>
</mgrwt>
</event>
<event>
 4    1  0.4173994E+000  0.1894635E+03  0.7546771E-02  0.1158946E+00
         21   -1    0    0  501  502  0.00000000000E+00  0.00000000000E+00  0.23164561222E+02  0.23164561222E+02  0.00000000000E+00 0.  1.
         21   -1    0    0  502  503 -0.00000000000E+00 -0.00000000000E+00 -0.15498759311E+04  0.15498759311E+04  0.00000000000E+00 0.  1.
          6    1    1    2  501    0 -0.58508359130E+02  0.50439863358E+02 -0.77334218284E+03  0.79621262215E+03  0.17300000000E+03 0.  1.
         -6    1    1    2    0  503  0.58508359130E+02 -0.50439863358E+02 -0.75336918699E+03  0.77682787013E+03  0.17300000000E+03 0.  1.
<mgrwt>
<rscale>  2 0.18946347E+03</rscale>
<asrwt>0</asrwt>
<pdfrwt beam="1">  1       21 0.35637788E-02 0.18946347E+03</pdfrwt>
<pdfrwt beam="2">  1       21 0.23844244E+00 0.18946347E+03</pdfrwt>
<totfact> 0.37085637E+04</totfact>
</mgrwt>
</event>
<event>
 4    1  0.4173994E+000  0.2057722E+03  0.7546771E-02  0.1144958E+00
         21   -1    0    0  503  502  0.00000000000E+00  0.00000000000E+00  0.54573955363E+02  0.54573955363E+02  0.00000000000E+00 0.  1.
         21   -1    0    0  501  503 -0.00000000000E+00 -0.00000000000E+00 -0.78522104702E+03  0.78522104702E+03  0.00000000000E+00 0.  1.
          6    1    1    2  501    0 -0.10913678984E+03  0.22413231000E+02 -0.31949656599E+03  0.38002664051E+03  0.17300000000E+03 0.  1.
         -6    1    1    2    0  502  0.10913678984E+03 -0.22413231000E+02 -0.41115052567E+03  0.45976836187E+03  0.17300000000E+03 0.  1.
<mgrwt>
<rscale>  2 0.20577218E+03</rscale>
<asrwt>0</asrwt>
<pdfrwt beam="1">  1       21 0.83959940E-02 0.20577218E+03</pdfrwt>
<pdfrwt beam="2">  1       21 0.12080322E+00 0.20577218E+03</pdfrwt>
<totfact> 0.56911009E+04</totfact>
</mgrwt>
</event>
<event>
 4    1  0.4173994E+000  0.1932464E+03  0.7546771E-02  0.1155565E+00
         21   -1    0    0  503  502  0.00000000000E+00  0.00000000000E+00  0.28994805933E+03  0.28994805933E+03  0.00000000000E+00 0. -1.
         21   -1    0    0  501  503 -0.00000000000E+00 -0.00000000000E+00 -0.35145501363E+03  0.35145501363E+03  0.00000000000E+00 0. -1.
          6    1    1    2  501    0  0.58914382286E+02  0.62803525810E+02 -0.28601548731E+03  0.34517973039E+03  0.17300000000E+03 0. -1.
         -6    1    1    2    0  502 -0.58914382286E+02 -0.62803525810E+02  0.22450853300E+03  0.29622334257E+03  0.17300000000E+03 0. -1.
<mgrwt>
<rscale>  2 0.19324644E+03</rscale>
<asrwt>0</asrwt>
<pdfrwt beam="1">  1       21 0.44607394E-01 0.19324644E+03</pdfrwt>
<pdfrwt beam="2">  1       21 0.54070002E-01 0.19324644E+03</pdfrwt>
<totfact> 0.15596329E+04</totfact>
</mgrwt>
</event>
<event>
 4    1  0.4173994E+000  0.1906725E+03  0.7546771E-02  0.1157856E+00
         21   -1    0    0  503  502  0.00000000000E+00  0.00000000000E+00  0.26360633097E+03  0.26360633097E+03  0.00000000000E+00 0.  1.
         21   -1    0    0  501  503 -0.00000000000E+00 -0.00000000000E+00 -0.64881529172E+03  0.64881529172E+03  0.00000000000E+00 0. -1.
          6    1    1    2  501    0 -0.47436927194E+02  0.64627782313E+02 -0.59743375315E+03  0.62712287608E+03  0.17300000000E+03 0. -1.
         -6    1    1    2    0  502  0.47436927194E+02 -0.64627782313E+02  0.21222479239E+03  0.28529874660E+03  0.17300000000E+03 0.  1.
<mgrwt>
<rscale>  2 0.19067253E+03</rscale>
<asrwt>0</asrwt>
<pdfrwt beam="1">  1       21 0.40554821E-01 0.19067253E+03</pdfrwt>
<pdfrwt beam="2">  1       21 0.99817736E-01 0.19067253E+03</pdfrwt>
<totfact> 0.48378863E+03</totfact>
</mgrwt>
</event>
<event>
 4    1  0.4173994E+000  0.1992641E+03  0.7546771E-02  0.1150361E+00
         21   -1    0    0  503  502  0.00000000000E+00  0.00000000000E+00  0.14448433099E+04  0.14448433099E+04  0.00000000000E+00 0. -1.
         21   -1    0    0  501  503 -0.00000000000E+00 -0.00000000000E+00 -0.43398657173E+02  0.43398657173E+02  0.00000000000E+00 0.  1.
          6    1    1    2  501    0  0.64999916136E+02  0.74513150954E+02  0.25007101637E+03  0.31975257934E+03  0.17300000000E+03 0.  1.
         -6    1    1    2    0  502 -0.64999916136E+02 -0.74513150954E+02  0.11513736364E+04  0.11684893878E+04  0.17300000000E+03 0. -1.
<mgrwt>
<rscale>  2 0.19926414E+03</rscale>
<asrwt>0</asrwt>
<pdfrwt beam="1">  1       21 0.22228355E+00 0.19926414E+03</pdfrwt>
<pdfrwt beam="2">  1       21 0.66767176E-02 0.19926414E+03</pdfrwt>
<totfact> 0.15899169E+04</totfact>
</mgrwt>
</event>
<event>
 4    1  0.4173994E+000  0.1993838E+03  0.7546771E-02  0.1150260E+00
         21   -1    0    0  501  502  0.00000000000E+00  0.00000000000E+00  0.10498392525E+03  0.10498392525E+03  0.00000000000E+00 0. -1.
         21   -1    0    0  502  503 -0.00000000000E+00 -0.00000000000E+00 -0.50594902694E+03  0.50594902694E+03  0.00000000000E+00 0.  1.
          6    1    1    2  501    0 -0.63656693602E+02 -0.75978532031E+02 -0.47270015401E+02  0.20491063009E+03  0.17300000000E+03 0. -1.
         -6    1    1    2    0  503  0.63656693602E+02  0.75978532031E+02 -0.35369508629E+03  0.40602232209E+03  0.17300000000E+03 0.  1.
<mgrwt>
<rscale>  2 0.19938383E+03</rscale>
<asrwt>0</asrwt>
<pdfrwt beam="1">  1       21 0.16151374E-01 0.19938383E+03</pdfrwt>
<pdfrwt beam="2">  1       21 0.77838309E-01 0.19938383E+03</pdfrwt>
<totfact> 0.49970577E+04</totfact>
</mgrwt>
</event>
<event>
 4    1  0.4173994E+000  0.2043839E+03  0.7546771E-02  0.1146092E+00
         21   -1    0    0  501  502  0.00000000000E+00  0.00000000000E+00  0.18391751054E+03  0.18391751054E+03  0.00000000000E+00 0.  1.
         21   -1    0    0  502  503 -0.00000000000E+00 -0.00000000000E+00 -0.33730648827E+03  0.33730648827E+03  0.00000000000E+00 0.  1.
          6    1    1    2  501    0  0.90669715114E+02  0.60189565867E+02  0.72252196516E+02  0.21677906029E+03  0.17300000000E+03 0.  1.
         -6    1    1    2    0  503 -0.90669715114E+02 -0.60189565867E+02 -0.22564117425E+03  0.30444493852E+03  0.17300000000E+03 0.  1.
<mgrwt>
<rscale>  2 0.20438391E+03</rscale>
<asrwt>0</asrwt>
<pdfrwt beam="1">  1       21 0.28295002E-01 0.20438391E+03</pdfrwt>
<pdfrwt beam="2">  1       21 0.51893305E-01 0.20438391E+03</pdfrwt>
<totfact> 0.41839773E+04</totfact>
</mgrwt>
</event>
<event>
 4    1  0.4173994E+000  0.2011915E+03  0.7546771E-02  0.1148738E+00
         21   -1    0    0  503  502  0.00000000000E+00  0.00000000000E+00  0.41605588937E+03  0.41605588937E+03  0.00000000000E+00 0. -1.
         21   -1    0    0  501  503 -0.00000000000E+00 -0.00000000000E+00 -0.34666426106E+03  0.34666426106E+03  0.00000000000E+00 0. -1.
          6    1    1    2  501    0 -0.96290339084E+02  0.35738070118E+02 -0.28875375919E+03  0.35193290910E+03  0.17300000000E+03 0. -1.
         -6    1    1    2    0  502  0.96290339084E+02 -0.35738070118E+02  0.35814538750E+03  0.41078724133E+03  0.17300000000E+03 0. -1.
<mgrwt>
<rscale>  2 0.20119155E+03</rscale>
<asrwt>0</asrwt>
<pdfrwt beam="1">  1       21 0.64008598E-01 0.20119155E+03</pdfrwt>
<pdfrwt beam="2">  1       21 0.53332963E-01 0.20119155E+03</pdfrwt>
<totfact> 0.74544829E+03</totfact>
</mgrwt>
</event>
<event>
 4    1  0.4173994E+000  0.1874197E+03  0.7546771E-02  0.1160809E+00
         21   -1    0    0  503  502  0.00000000000E+00  0.00000000000E+00  0.10458251289E+04  0.10458251289E+04  0.00000000000E+00 0.  1.
         21   -1    0    0  501  503 -0.00000000000E+00 -0.00000000000E+00 -0.15972693785E+03  0.15972693785E+03  0.00000000000E+00 0.  1.
          6    1    1    2  501    0  0.56527407991E+02  0.44741305942E+02 -0.92615809261E+02  0.20905458722E+03  0.17300000000E+03 0.  1.
         -6    1    1    2    0  502 -0.56527407991E+02 -0.44741305942E+02  0.97871400028E+03  0.99649747950E+03  0.17300000000E+03 0.  1.
<mgrwt>
<rscale>  2 0.18741967E+03</rscale>
<asrwt>0</asrwt>
<pdfrwt beam="1">  1       21 0.16089617E+00 0.18741967E+03</pdfrwt>
<pdfrwt beam="2">  1       21 0.24573376E-01 0.18741967E+03</pdfrwt>
<totfact> 0.38989401E+03</totfact>
</mgrwt>
</event>
<event>
 4    1  0.4173994E+000  0.1845829E+03  0.7546771E-02  0.1163440E+00
         21   -1    0    0  501  502  0.00000000000E+00  0.00000000000E+00  0.11718710139E+03  0.11718710139E+03  0.00000000000E+00 0. -1.
         21   -1    0    0  502  503 -0.00000000000E+00 -0.00000000000E+00 -0.60701424896E+03  0.60701424896E+03  0.00000000000E+00 0. -1.
          6    1    1    2  501    0  0.62623044560E+02 -0.14839180377E+02  0.16460541039E+02  0.18531539708E+03  0.17300000000E+03 0. -1.
         -6    1    1    2    0  503 -0.62623044560E+02  0.14839180377E+02 -0.50628768861E+03  0.53888595326E+03  0.17300000000E+03 0. -1.
<mgrwt>
<rscale>  2 0.18458290E+03</rscale>
<asrwt>0</asrwt>
<pdfrwt beam="1">  1       21 0.18028785E-01 0.18458290E+03</pdfrwt>
<pdfrwt beam="2">  1       21 0.93386805E-01 0.18458290E+03</pdfrwt>
<totfact> 0.27114376E+04</totfact>
</mgrwt>
</event>
<event>
 4    1  0.4173994E+000  0.1897959E+03  0.7546771E-02  0.1158646E+00
         21   -1    0    0  503  502  0.00000000000E+00  0.00000000000E+00  0.12741734434E+03  0.12741734434E+03  0.00000000000E+00 0. -1.
         21   -1    0    0  501  503 -0.00000000000E+00 -0.00000000000E+00 -0.33863749682E+03  0.33863749682E+03  0.00000000000E+00 0. -1.
          6    1    1    2  501    0 -0.77927832734E+02 -0.45543349751E+01 -0.20030835591E+03  0.27594551370E+03  0.17300000000E+03 0. -1.
         -6    1    1    2    0  502  0.77927832734E+02  0.45543349751E+01 -0.10911796572E+02  0.19010932746E+03  0.17300000000E+03 0. -1.
<mgrwt>
<rscale>  2 0.18979591E+03</rscale>
<asrwt>0</asrwt>
<pdfrwt beam="1">  1       21 0.19602668E-01 0.18979591E+03</pdfrwt>
<pdfrwt beam="2">  1       21 0.52098076E-01 0.18979591E+03</pdfrwt>
<totfact> 0.83888193E+04</totfact>
</mgrwt>
</event>
<event>
 4    1  0.4173994E+000  0.2387561E+03  0.7546771E-02  0.1120624E+00
         21   -1    0    0  503  502  0.00000000000E+00  0.00000000000E+00  0.53540932866E+03  0.53540932866E+03  0.00000000000E+00 0.  1.
         21   -1    0    0  501  503 -0.00000000000E+00 -0.00000000000E+00 -0.11417157194E+03  0.11417157194E+03  0.00000000000E+00 0.  1.
          6    1    1    2  501    0 -0.12486849751E+03  0.10716039172E+03  0.12625774916E+03  0.27008426546E+03  0.17300000000E+03 0.  1.
         -6    1    1    2    0  502  0.12486849751E+03 -0.10716039172E+03  0.29498000756E+03  0.37949663514E+03  0.17300000000E+03 0.  1.
<mgrwt>
<rscale>  2 0.23875613E+03</rscale>
<asrwt>0</asrwt>
<pdfrwt beam="1">  1       21 0.82370664E-01 0.23875613E+03</pdfrwt>
<pdfrwt beam="2">  1       21 0.17564858E-01 0.23875613E+03</pdfrwt>
<totfact> 0.36949360E+04</totfact>
</mgrwt>
</event>
<event>
 4    1  0.4173994E+000  0.3448903E+03  0.7546771E-02  0.1064732E+00
         21   -1    0    0  501  502  0.00000000000E+00  0.00000000000E+00  0.11486587055E+04  0.11486587055E+04  0.00000000000E+00 0.  1.
         21   -1    0    0  502  503 -0.00000000000E+00 -0.00000000000E+00 -0.12391632331E+03  0.12391632331E+03  0.00000000000E+00 0. -1.
          6    1    1    2  501    0 -0.29438100994E+03 -0.48581623291E+02  0.77029541571E+03  0.84398126792E+03  0.17300000000E+03 0.  1.
         -6    1    1    2    0  503  0.29438100994E+03  0.48581623291E+02  0.25444696654E+03  0.42859376094E+03  0.17300000000E+03 0.  1.
<mgrwt>
<rscale>  2 0.34489035E+03</rscale>
<asrwt>0</asrwt>
<pdfrwt beam="1">  1       21 0.17671672E+00 0.34489035E+03</pdfrwt>
<pdfrwt beam="2">  1       21 0.19064051E-01 0.34489035E+03</pdfrwt>
<totfact> 0.43671928E+03</totfact>
</mgrwt>
</event>
<event>
 4    1  0.4173994E+000  0.3483585E+03  0.7546771E-02  0.1063291E+00
         21   -1    0    0  503  502  0.00000000000E+00  0.00000000000E+00  0.22122344446E+03  0.22122344446E+03  0.00000000000E+00 0. -1.
         21   -1    0    0  501  503 -0.00000000000E+00 -0.00000000000E+00 -0.54858310641E+03  0.54858310641E+03  0.00000000000E+00 0.  1.
          6    1    1    2  501    0  0.15899784859E+03 -0.25718536465E+03 -0.16634456680E+03  0.38603645236E+03  0.17300000000E+03 0.  1.
         -6    1    1    2    0  502 -0.15899784859E+03  0.25718536465E+03 -0.16101509515E+03  0.38377009851E+03  0.17300000000E+03 0. -1.
<mgrwt>
<rscale>  2 0.34835848E+03</rscale>
<asrwt>0</asrwt>
<pdfrwt beam="1">  1       21 0.34034376E-01 0.34835848E+03</pdfrwt>
<pdfrwt beam="2">  1       21 0.84397400E-01 0.34835848E+03</pdfrwt>
<totfact> 0.93317779E+03</totfact>
</mgrwt>
</event>
<event>
 4    1  0.4173994E+000  0.2143921E+03  0.7546771E-02  0.1138134E+00
         21   -1    0    0  503  502  0.00000000000E+00  0.00000000000E+00  0.22618980816E+03  0.22618980816E+03  0.00000000000E+00 0.  1.
         21   -1    0    0  501  503 -0.00000000000E+00 -0.00000000000E+00 -0.27924031514E+03  0.27924031514E+03  0.00000000000E+00 0.  1.
          6    1    1    2  501    0 -0.11036673459E+03  0.62081773243E+02 -0.15839231349E+03  0.26655597470E+03  0.17300000000E+03 0.  1.
         -6    1    1    2    0  502  0.11036673459E+03 -0.62081773243E+02  0.10534180651E+03  0.23887414861E+03  0.17300000000E+03 0.  1.
<mgrwt>
<rscale>  2 0.21439208E+03</rscale>
<asrwt>0</asrwt>
<pdfrwt beam="1">  1       21 0.34798432E-01 0.21439208E+03</pdfrwt>
<pdfrwt beam="2">  1       21 0.42960049E-01 0.21439208E+03</pdfrwt>
<totfact> 0.41027207E+04</totfact>
</mgrwt>
</event>
<event>
 4    1  0.4173994E+000  0.1805566E+03  0.7546771E-02  0.1167265E+00
         21   -1    0    0  503  502  0.00000000000E+00  0.00000000000E+00  0.52657813668E+02  0.52657813668E+02  0.00000000000E+00 0. -1.
         21   -1    0    0  501  503 -0.00000000000E+00 -0.00000000000E+00 -0.61918001609E+03  0.61918001609E+03  0.00000000000E+00 0. -1.
          6    1    1    2  501    0  0.16536847088E+02 -0.48971729204E+02 -0.28696704724E+03  0.33904392602E+03  0.17300000000E+03 0.  1.
         -6    1    1    2    0  502 -0.16536847088E+02  0.48971729204E+02 -0.27955515518E+03  0.33279390373E+03  0.17300000000E+03 0.  1.
<mgrwt>
<rscale>  2 0.18055663E+03</rscale>
<asrwt>0</asrwt>
<pdfrwt beam="1">  1       21 0.81012018E-02 0.18055663E+03</pdfrwt>
<pdfrwt beam="2">  1       21 0.95258468E-01 0.18055663E+03</pdfrwt>
<totfact> 0.10858576E+05</totfact>
</mgrwt>
</event>
<event>
 4    1  0.4173994E+000  0.2151095E+03  0.7546771E-02  0.1137583E+00
         21   -1    0    0  501  502  0.00000000000E+00  0.00000000000E+00  0.11056303860E+03  0.11056303860E+03  0.00000000000E+00 0.  1.
         21   -1    0    0  502  503 -0.00000000000E+00 -0.00000000000E+00 -0.41861845009E+03  0.41861845009E+03  0.00000000000E+00 0. -1.
          6    1    1    2  501    0 -0.95502886385E+02 -0.84984003851E+02 -0.14983067555E+03  0.26214750343E+03  0.17300000000E+03 0. -1.
         -6    1    1    2    0  503  0.95502886385E+02  0.84984003851E+02 -0.15822473594E+03  0.26703398525E+03  0.17300000000E+03 0. -1.
<mgrwt>
<rscale>  2 0.21510947E+03</rscale>
<asrwt>0</asrwt>
<pdfrwt beam="1">  1       21 0.17009698E-01 0.21510947E+03</pdfrwt>
<pdfrwt beam="2">  1       21 0.64402838E-01 0.21510947E+03</pdfrwt>
<totfact> 0.68607851E+04</totfact>
</mgrwt>
</event>
<event>
 4    1  0.4173994E+000  0.1938793E+03  0.7546771E-02  0.1155008E+00
         21   -1    0    0  503  502  0.00000000000E+00  0.00000000000E+00  0.82304397603E+02  0.82304397603E+02  0.00000000000E+00 0.  1.
         21   -1    0    0  501  503 -0.00000000000E+00 -0.00000000000E+00 -0.45885050027E+03  0.45885050027E+03  0.00000000000E+00 0.  1.
          6    1    1    2  501    0  0.73032106452E+02  0.48233786014E+02 -0.16978968372E+03  0.25771636228E+03  0.17300000000E+03 0.  1.
         -6    1    1    2    0  502 -0.73032106452E+02 -0.48233786014E+02 -0.20675641894E+03  0.28343853559E+03  0.17300000000E+03 0.  1.
<mgrwt>
<rscale>  2 0.19387931E+03</rscale>
<asrwt>0</asrwt>
<pdfrwt beam="1">  1       21 0.12662215E-01 0.19387931E+03</pdfrwt>
<pdfrwt beam="2">  1       21 0.70592386E-01 0.19387931E+03</pdfrwt>
<totfact> 0.96888383E+04</totfact>
</mgrwt>
</event>
<event>
 4    1  0.4173994E+000  0.2311296E+03  0.7546771E-02  0.1125847E+00
         21   -1    0    0  501  502  0.00000000000E+00  0.00000000000E+00  0.31442713818E+02  0.31442713818E+02  0.00000000000E+00 0. -1.
         21   -1    0    0  502  503 -0.00000000000E+00 -0.00000000000E+00 -0.20258236759E+04  0.20258236759E+04  0.00000000000E+00 0.  1.
          6    1    1    2  501    0  0.11367424060E+03 -0.10281083000E+03 -0.58402674451E+03  0.62809882824E+03  0.17300000000E+03 0. -1.
         -6    1    1    2    0  503 -0.11367424060E+03  0.10281083000E+03 -0.14103542176E+04  0.14291675615E+04  0.17300000000E+03 0.  1.
<mgrwt>
<rscale>  2 0.23112962E+03</rscale>
<asrwt>0</asrwt>
<pdfrwt beam="1">  1       21 0.48373403E-02 0.23112962E+03</pdfrwt>
<pdfrwt beam="2">  1       21 0.31166520E+00 0.23112962E+03</pdfrwt>
<totfact> 0.79894284E+03</totfact>
</mgrwt>
</event>
<event>
 4    1  0.4173994E+000  0.2364736E+03  0.7546771E-02  0.1122165E+00
         21   -1    0    0  501  502  0.00000000000E+00  0.00000000000E+00  0.70822037838E+03  0.70822037838E+03  0.00000000000E+00 0. -1.
         21   -1    0    0  502  503 -0.00000000000E+00 -0.00000000000E+00 -0.85309291408E+02  0.85309291408E+02  0.00000000000E+00 0.  1.
          6    1    1    2  501    0 -0.15985729068E+03  0.20890140898E+02  0.20319708494E+03  0.31178326879E+03  0.17300000000E+03 0.  1.
         -6    1    1    2    0  503  0.15985729068E+03 -0.20890140898E+02  0.41971400204E+03  0.48174640100E+03  0.17300000000E+03 0. -1.
<mgrwt>
<rscale>  2 0.23647357E+03</rscale>
<asrwt>0</asrwt>
<pdfrwt beam="1">  1       21 0.10895698E+00 0.23647357E+03</pdfrwt>
<pdfrwt beam="2">  1       21 0.13124507E-01 0.23647357E+03</pdfrwt>
<totfact> 0.32619475E+04</totfact>
</mgrwt>
</event>
<event>
 4    1  0.4173994E+000  0.2316819E+03  0.7546771E-02  0.1125462E+00
         21   -1    0    0  501  502  0.00000000000E+00  0.00000000000E+00  0.23435837261E+03  0.23435837261E+03  0.00000000000E+00 0.  1.
         21   -1    0    0  502  503 -0.00000000000E+00 -0.00000000000E+00 -0.24875887268E+03  0.24875887268E+03  0.00000000000E+00 0.  1.
          6    1    1    2  501    0 -0.50085304664E+02  0.14573591105E+03  0.60816964674E+02  0.23953120194E+03  0.17300000000E+03 0.  1.
         -6    1    1    2    0  503  0.50085304664E+02 -0.14573591105E+03 -0.75217464740E+02  0.24358604335E+03  0.17300000000E+03 0.  1.
<mgrwt>
<rscale>  2 0.23168188E+03</rscale>
<asrwt>0</asrwt>
<pdfrwt beam="1">  1       21 0.36055134E-01 0.23168188E+03</pdfrwt>
<pdfrwt beam="2">  1       21 0.38270596E-01 0.23168188E+03</pdfrwt>
<totfact> 0.47961204E+04</totfact>
</mgrwt>
</event>
<event>
 4    1  0.4173994E+000  0.1916019E+03  0.7546771E-02  0.1157024E+00
         21   -1    0    0  503  502  0.00000000000E+00  0.00000000000E+00  0.46088864141E+02  0.46088864141E+02  0.00000000000E+00 0.  1.
         21   -1    0    0  501  503 -0.00000000000E+00 -0.00000000000E+00 -0.21213674583E+04  0.21213674583E+04  0.00000000000E+00 0.  1.
          6    1    1    2  501    0  0.47812000537E+01  0.82215653630E+02 -0.18940721403E+04  0.19037385708E+04  0.17300000000E+03 0.  1.
         -6    1    1    2    0  502 -0.47812000537E+01 -0.82215653630E+02 -0.18120645389E+03  0.26371775160E+03  0.17300000000E+03 0.  1.
<mgrwt>
<rscale>  2 0.19160186E+03</rscale>
<asrwt>0</asrwt>
<pdfrwt beam="1">  1       21 0.70905952E-02 0.19160186E+03</pdfrwt>
<pdfrwt beam="2">  1       21 0.32636419E+00 0.19160186E+03</pdfrwt>
<totfact> 0.35614053E+03</totfact>
</mgrwt>
</event>
<event>
 4    1  0.4173994E+000  0.3714031E+03  0.7546771E-02  0.1054158E+00
         21   -1    0    0  503  502  0.00000000000E+00  0.00000000000E+00  0.40995917391E+03  0.40995917391E+03  0.00000000000E+00 0.  1.
         21   -1    0    0  501  503 -0.00000000000E+00 -0.00000000000E+00 -0.33676536988E+03  0.33676536988E+03  0.00000000000E+00 0. -1.
          6    1    1    2  501    0 -0.21608823674E+03 -0.24762294405E+03  0.47595383386E+02  0.37444034104E+03  0.17300000000E+03 0. -1.
         -6    1    1    2    0  502  0.21608823674E+03  0.24762294405E+03  0.25598420648E+02  0.37228420275E+03  0.17300000000E+03 0.  1.
<mgrwt>
<rscale>  2 0.37140308E+03</rscale>
<asrwt>0</asrwt>
<pdfrwt beam="1">  1       21 0.63070642E-01 0.37140308E+03</pdfrwt>
<pdfrwt beam="2">  1       21 0.51810057E-01 0.37140308E+03</pdfrwt>
<totfact> 0.74981266E+03</totfact>
</mgrwt>
</event>
<event>
 4    1  0.4173994E+000  0.1881688E+03  0.7546771E-02  0.1160123E+00
         21   -1    0    0  503  502  0.00000000000E+00  0.00000000000E+00  0.19959119107E+03  0.19959119107E+03  0.00000000000E+00 0.  1.
         21   -1    0    0  501  503 -0.00000000000E+00 -0.00000000000E+00 -0.21904707110E+03  0.21904707110E+03  0.00000000000E+00 0.  1.
          6    1    1    2  501    0 -0.40427998448E+02 -0.62000727871E+02 -0.10099866267E+03  0.21356086527E+03  0.17300000000E+03 0.  1.
         -6    1    1    2    0  502  0.40427998448E+02  0.62000727871E+02  0.81542782645E+02  0.20507739689E+03  0.17300000000E+03 0.  1.
<mgrwt>
<rscale>  2 0.18816884E+03</rscale>
<asrwt>0</asrwt>
<pdfrwt beam="1">  1       21 0.30706337E-01 0.18816884E+03</pdfrwt>
<pdfrwt beam="2">  1       21 0.33699549E-01 0.18816884E+03</pdfrwt>
<totfact> 0.86527382E+04</totfact>
</mgrwt>
</event>
<event>
 4    1  0.4173994E+000  0.2012552E+03  0.7546771E-02  0.1148684E+00
         21   -1    0    0  503  502  0.00000000000E+00  0.00000000000E+00  0.25087368986E+03  0.25087368986E+03  0.00000000000E+00 0. -1.
         21   -1    0    0  501  503 -0.00000000000E+00 -0.00000000000E+00 -0.32014290128E+03  0.32014290128E+03  0.00000000000E+00 0. -1.
          6    1    1    2  501    0 -0.10353287362E+02  0.10231071086E+03 -0.23564796275E+03  0.30989294033E+03  0.17300000000E+03 0. -1.
         -6    1    1    2    0  502  0.10353287362E+02 -0.10231071086E+03  0.16637875134E+03  0.26112365081E+03  0.17300000000E+03 0. -1.
<mgrwt>
<rscale>  2 0.20125524E+03</rscale>
<asrwt>0</asrwt>
<pdfrwt beam="1">  1       21 0.38595952E-01 0.20125524E+03</pdfrwt>
<pdfrwt beam="2">  1       21 0.49252754E-01 0.20125524E+03</pdfrwt>
<totfact> 0.25326361E+04</totfact>
</mgrwt>
</event>
<event>
 4    1  0.4173994E+000  0.2090387E+03  0.7546771E-02  0.1142329E+00
         21   -1    0    0  501  502  0.00000000000E+00  0.00000000000E+00  0.62857665111E+03  0.62857665111E+03  0.00000000000E+00 0.  1.
         21   -1    0    0  502  503 -0.00000000000E+00 -0.00000000000E+00 -0.10501283468E+03  0.10501283468E+03  0.00000000000E+00 0. -1.
          6    1    1    2  501    0 -0.11595248324E+03  0.17978172593E+02  0.47503062333E+03  0.51899064169E+03  0.17300000000E+03 0.  1.
         -6    1    1    2    0  503  0.11595248324E+03 -0.17978172593E+02  0.48533193104E+02  0.21459884411E+03  0.17300000000E+03 0. -1.
<mgrwt>
<rscale>  2 0.20903874E+03</rscale>
<asrwt>0</asrwt>
<pdfrwt beam="1">  1       21 0.96704098E-01 0.20903874E+03</pdfrwt>
<pdfrwt beam="2">  1       21 0.16155821E-01 0.20903874E+03</pdfrwt>
<totfact> 0.30155187E+04</totfact>
</mgrwt>
</event>
<event>
 4    1  0.4173994E+000  0.2413528E+03  0.7546771E-02  0.1118895E+00
         21   -1    0    0  501  502  0.00000000000E+00  0.00000000000E+00  0.42874624183E+03  0.42874624183E+03  0.00000000000E+00 0.  1.
         21   -1    0    0  502  503 -0.00000000000E+00 -0.00000000000E+00 -0.14693786812E+03  0.14693786812E+03  0.00000000000E+00 0.  1.
          6    1    1    2  501    0 -0.11560468833E+03 -0.12230185317E+03  0.61884247207E+02  0.24916028437E+03  0.17300000000E+03 0.  1.
         -6    1    1    2    0  503  0.11560468833E+03  0.12230185317E+03  0.21992412650E+03  0.32652382558E+03  0.17300000000E+03 0.  1.
<mgrwt>
<rscale>  2 0.24135283E+03</rscale>
<asrwt>0</asrwt>
<pdfrwt beam="1">  1       21 0.65960960E-01 0.24135283E+03</pdfrwt>
<pdfrwt beam="2">  1       21 0.22605826E-01 0.24135283E+03</pdfrwt>
<totfact> 0.37800784E+04</totfact>
</mgrwt>
</event>
<event>
 4    1  0.4173994E+000  0.1926501E+03  0.7546771E-02  0.1156093E+00
         21   -1    0    0  503  502  0.00000000000E+00  0.00000000000E+00  0.31339722190E+02  0.31339722190E+02  0.00000000000E+00 0. -1.
         21   -1    0    0  501  503 -0.00000000000E+00 -0.00000000000E+00 -0.11997773780E+04  0.11997773780E+04  0.00000000000E+00 0. -1.
          6    1    1    2  501    0 -0.83282755412E+02 -0.15781376544E+02 -0.65424601352E+03  0.68202046553E+03  0.17300000000E+03 0.  1.
         -6    1    1    2    0  502  0.83282755412E+02  0.15781376544E+02 -0.51419164228E+03  0.54909663465E+03  0.17300000000E+03 0.  1.
<mgrwt>
<rscale>  2 0.19265012E+03</rscale>
<asrwt>0</asrwt>
<pdfrwt beam="1">  1       21 0.48214965E-02 0.19265012E+03</pdfrwt>
<pdfrwt beam="2">  1       21 0.18458111E+00 0.19265012E+03</pdfrwt>
<totfact> 0.48476795E+04</totfact>
</mgrwt>
</event>
<event>
 4    1  0.4173994E+000  0.2151424E+03  0.7546771E-02  0.1137557E+00
         21   -1    0    0  501  502  0.00000000000E+00  0.00000000000E+00  0.98887671550E+02  0.98887671550E+02  0.00000000000E+00 0. -1.
         21   -1    0    0  502  503 -0.00000000000E+00 -0.00000000000E+00 -0.97066944333E+03  0.97066944333E+03  0.00000000000E+00 0. -1.
          6    1    1    2  501    0 -0.10078904901E+03 -0.78732526673E+02 -0.51077841537E+02  0.22112256568E+03  0.17300000000E+03 0.  1.
         -6    1    1    2    0  503  0.10078904901E+03  0.78732526673E+02 -0.82070393024E+03  0.84843454920E+03  0.17300000000E+03 0.  1.
<mgrwt>
<rscale>  2 0.21514238E+03</rscale>
<asrwt>0</asrwt>
<pdfrwt beam="1">  1       21 0.15213487E-01 0.21514238E+03</pdfrwt>
<pdfrwt beam="2">  1       21 0.14933377E+00 0.21514238E+03</pdfrwt>
<totfact> 0.11375576E+04</totfact>
</mgrwt>
</event>
<event>
 4    1  0.4173994E+000  0.1931526E+03  0.7546771E-02  0.1155648E+00
         21   -1    0    0  501  502  0.00000000000E+00  0.00000000000E+00  0.71076756659E+02  0.71076756659E+02  0.00000000000E+00 0. -1.
         21   -1    0    0  502  503 -0.00000000000E+00 -0.00000000000E+00 -0.62210530084E+03  0.62210530084E+03  0.00000000000E+00 0. -1.
          6    1    1    2  501    0 -0.82365911799E+02  0.24388023206E+02 -0.13850850740E+03  0.23768156370E+03  0.17300000000E+03 0. -1.
         -6    1    1    2    0  503  0.82365911799E+02 -0.24388023206E+02 -0.41252003679E+03  0.45550049380E+03  0.17300000000E+03 0. -1.
<mgrwt>
<rscale>  2 0.19315258E+03</rscale>
<asrwt>0</asrwt>
<pdfrwt beam="1">  1       21 0.10934886E-01 0.19315258E+03</pdfrwt>
<pdfrwt beam="2">  1       21 0.95708506E-01 0.19315258E+03</pdfrwt>
<totfact> 0.63041127E+04</totfact>
</mgrwt>
</event>
<event>
 4    1  0.4173994E+000  0.3252762E+03  0.7546771E-02  0.1073246E+00
         21   -1    0    0  503  502  0.00000000000E+00  0.00000000000E+00  0.27380502437E+04  0.27380502437E+04  0.00000000000E+00 0.  1.
         21   -1    0    0  501  503 -0.00000000000E+00 -0.00000000000E+00 -0.48914404561E+02  0.48914404561E+02  0.00000000000E+00 0. -1.
          6    1    1    2  501    0  0.24472420605E+03 -0.12643451577E+03  0.19831434804E+04  0.20096424278E+04  0.17300000000E+03 0.  1.
         -6    1    1    2    0  502 -0.24472420605E+03  0.12643451577E+03  0.70599235873E+03  0.77732222044E+03  0.17300000000E+03 0. -1.
<mgrwt>
<rscale>  2 0.32527623E+03</rscale>
<asrwt>0</asrwt>
<pdfrwt beam="1">  1       21 0.42123838E+00 0.32527623E+03</pdfrwt>
<pdfrwt beam="2">  1       21 0.75252951E-02 0.32527623E+03</pdfrwt>
<totfact> 0.72895235E+02</totfact>
</mgrwt>
</event>
<event>
 4    1  0.4173994E+000  0.2550473E+03  0.7546771E-02  0.1110156E+00
         21   -1    0    0  503  502  0.00000000000E+00  0.00000000000E+00  0.20883446443E+03  0.20883446443E+03  0.00000000000E+00 0.  1.
         21   -1    0    0  501  503 -0.00000000000E+00 -0.00000000000E+00 -0.42342373872E+03  0.42342373872E+03  0.00000000000E+00 0. -1.
          6    1    1    2  501    0 -0.45554644909E+02  0.18178254508E+03 -0.26983609214E+03  0.37129588739E+03  0.17300000000E+03 0. -1.
         -6    1    1    2    0  502  0.45554644909E+02 -0.18178254508E+03  0.55246817849E+02  0.26096231577E+03  0.17300000000E+03 0.  1.
<mgrwt>
<rscale>  2 0.25504729E+03</rscale>
<asrwt>0</asrwt>
<pdfrwt beam="1">  1       21 0.32128379E-01 0.25504729E+03</pdfrwt>
<pdfrwt beam="2">  1       21 0.65142113E-01 0.25504729E+03</pdfrwt>
<totfact> 0.19539065E+04</totfact>
</mgrwt>
</event>
<event>
 4    1  0.4173994E+000  0.2299753E+03  0.7546771E-02  0.1126657E+00
         21   -1    0    0  501  502  0.00000000000E+00  0.00000000000E+00  0.63457617218E+03  0.63457617218E+03  0.00000000000E+00 0. -1.
         21   -1    0    0  502  503 -0.00000000000E+00 -0.00000000000E+00 -0.12406215609E+03  0.12406215609E+03  0.00000000000E+00 0. -1.
          6    1    1    2  501    0 -0.10787294300E+03  0.10640999742E+03  0.47256445604E+03  0.52555287507E+03  0.17300000000E+03 0. -1.
         -6    1    1    2    0  503  0.10787294300E+03 -0.10640999742E+03  0.37949560046E+02  0.23308545319E+03  0.17300000000E+03 0. -1.
<mgrwt>
<rscale>  2 0.22997535E+03</rscale>
<asrwt>0</asrwt>
<pdfrwt beam="1">  1       21 0.97627101E-01 0.22997535E+03</pdfrwt>
<pdfrwt beam="2">  1       21 0.19086486E-01 0.22997535E+03</pdfrwt>
<totfact> 0.21413139E+04</totfact>
</mgrwt>
</event>
