<event>
 4    1  0.3883260E+000  0.1975992E+03  0.7546771E-02  0.1151781E+00
         21   -1    0    0  501  502  0.00000000000E+00  0.00000000000E+00  0.14391852951E+04  0.14391852951E+04  0.00000000000E+00 0. -1.
         21   -1    0    0  502  503 -0.00000000000E+00 -0.00000000000E+00 -0.97097210814E+02  0.97097210814E+02  0.00000000000E+00 0. -1.
          6    1    1    2  501    0  0.32124455601E+02 -0.89913586703E+02  0.13230990983E+04  0.13377730217E+04  0.17300000000E+03 0. -1.
         -6    1    1    2    0  503 -0.32124455601E+02  0.89913586703E+02  0.18988985974E+02  0.19850948418E+03  0.17300000000E+03 0. -1.
<mgrwt>
<rscale>  2 0.19759917E+03</rscale>
<asrwt>0</asrwt>
<pdfrwt beam="1">  1       21 0.22141311E+00 0.19759917E+03</pdfrwt>
<pdfrwt beam="2">  1       21 0.14938034E-01 0.19759917E+03</pdfrwt>
<totfact> 0.38784291E+03</totfact>
</mgrwt>
</event>
<event>
 4    1  0.3883260E+000  0.2046783E+03  0.7546771E-02  0.1145851E+00
         21   -1    0    0  501  502  0.00000000000E+00  0.00000000000E+00  0.24880906017E+03  0.24880906017E+03  0.00000000000E+00 0.  1.
         21   -1    0    0  502  503 -0.00000000000E+00 -0.00000000000E+00 -0.18097250343E+03  0.18097250343E+03  0.00000000000E+00 0.  1.
          6    1    1    2  501    0  0.75625601526E+02 -0.79025026886E+02  0.90614802568E+02  0.22383973938E+03  0.17300000000E+03 0.  1.
         -6    1    1    2    0  503 -0.75625601526E+02  0.79025026886E+02 -0.22778245821E+02  0.20594182422E+03  0.17300000000E+03 0.  1.
<mgrwt>
<rscale>  2 0.20467825E+03</rscale>
<asrwt>0</asrwt>
<pdfrwt beam="1">  1       21 0.38278317E-01 0.20467825E+03</pdfrwt>
<pdfrwt beam="2">  1       21 0.27841923E-01 0.20467825E+03</pdfrwt>
<totfact> 0.80652081E+04</totfact>
</mgrwt>
</event>
<event>
 4    1  0.3883260E+000  0.1864802E+03  0.7546771E-02  0.1161675E+00
         21   -1    0    0  503  502  0.00000000000E+00  0.00000000000E+00  0.24299608144E+03  0.24299608144E+03  0.00000000000E+00 0. -1.
         21   -1    0    0  501  503 -0.00000000000E+00 -0.00000000000E+00 -0.18194726359E+03  0.18194726359E+03  0.00000000000E+00 0. -1.
          6    1    1    2  501    0 -0.33651791589E+02 -0.60937733243E+02 -0.67641325264E+02  0.19836884658E+03  0.17300000000E+03 0. -1.
         -6    1    1    2    0  502  0.33651791589E+02  0.60937733243E+02  0.12869014312E+03  0.22657449845E+03  0.17300000000E+03 0. -1.
<mgrwt>
<rscale>  2 0.18648016E+03</rscale>
<asrwt>0</asrwt>
<pdfrwt beam="1">  1       21 0.37384012E-01 0.18648016E+03</pdfrwt>
<pdfrwt beam="2">  1       21 0.27991887E-01 0.18648016E+03</pdfrwt>
<totfact> 0.84330639E+04</totfact>
</mgrwt>
</event>
<event>
 4    1  0.3883260E+000  0.3325303E+03  0.7546771E-02  0.1070023E+00
         21   -1    0    0  503  502  0.00000000000E+00  0.00000000000E+00  0.46482944346E+03  0.46482944346E+03  0.00000000000E+00 0.  1.
         21   -1    0    0  501  503 -0.00000000000E+00 -0.00000000000E+00 -0.27621577682E+03  0.27621577682E+03  0.00000000000E+00 0. -1.
          6    1    1    2  501    0  0.15117400497E+03 -0.24040349730E+03 -0.43718424520E+02  0.33539189307E+03  0.17300000000E+03 0. -1.
         -6    1    1    2    0  502 -0.15117400497E+03  0.24040349730E+03  0.23233209116E+03  0.40565332721E+03  0.17300000000E+03 0.  1.
<mgrwt>
<rscale>  2 0.33253033E+03</rscale>
<asrwt>0</asrwt>
<pdfrwt beam="1">  1       21 0.71512222E-01 0.33253033E+03</pdfrwt>
<pdfrwt beam="2">  1       21 0.42494735E-01 0.33253033E+03</pdfrwt>
<totfact> 0.87260741E+03</totfact>
</mgrwt>
</event>
<event>
 4    1  0.3883260E+000  0.1782459E+03  0.7546771E-02  0.1169512E+00
         21   -1    0    0  501  502  0.00000000000E+00  0.00000000000E+00  0.10462107062E+04  0.10462107062E+04  0.00000000000E+00 0.  1.
         21   -1    0    0  502  503 -0.00000000000E+00 -0.00000000000E+00 -0.31867502668E+02  0.31867502668E+02  0.00000000000E+00 0.  1.
          6    1    1    2  501    0 -0.42810044096E+02 -0.31475146050E+01  0.62408953193E+03  0.64904495267E+03  0.17300000000E+03 0.  1.
         -6    1    1    2    0  503  0.42810044096E+02  0.31475146050E+01  0.39025367161E+03  0.42903325620E+03  0.17300000000E+03 0.  1.
<mgrwt>
<rscale>  2 0.17824592E+03</rscale>
<asrwt>0</asrwt>
<pdfrwt beam="1">  1       21 0.16095547E+00 0.17824592E+03</pdfrwt>
<pdfrwt beam="2">  1       21 0.49026935E-02 0.17824592E+03</pdfrwt>
<totfact> 0.69420272E+04</totfact>
</mgrwt>
</event>
<event>
 4    1  0.3883260E+000  0.1936130E+03  0.7546771E-02  0.1155242E+00
         21   -1    0    0  503  502  0.00000000000E+00  0.00000000000E+00  0.42384534063E+03  0.42384534063E+03  0.00000000000E+00 0.  1.
         21   -1    0    0  501  503 -0.00000000000E+00 -0.00000000000E+00 -0.21593736023E+03  0.21593736023E+03  0.00000000000E+00 0. -1.
          6    1    1    2  501    0 -0.43017841139E+02  0.75541070007E+02 -0.14184763813E+03  0.24001404200E+03  0.17300000000E+03 0. -1.
         -6    1    1    2    0  502  0.43017841139E+02 -0.75541070007E+02  0.34975561853E+03  0.39976865886E+03  0.17300000000E+03 0.  1.
<mgrwt>
<rscale>  2 0.19361298E+03</rscale>
<asrwt>0</asrwt>
<pdfrwt beam="1">  1       21 0.65206975E-01 0.19361298E+03</pdfrwt>
<pdfrwt beam="2">  1       21 0.33221132E-01 0.19361298E+03</pdfrwt>
<totfact> 0.18874960E+04</totfact>
</mgrwt>
</event>
<event>
 4    1  0.3883260E+000  0.2068681E+03  0.7546771E-02  0.1144070E+00
         21   -1    0    0  503  502  0.00000000000E+00  0.00000000000E+00  0.46329808843E+02  0.46329808843E+02  0.00000000000E+00 0. -1.
         21   -1    0    0  501  503 -0.00000000000E+00 -0.00000000000E+00 -0.99524203757E+03  0.99524203757E+03  0.00000000000E+00 0. -1.
          6    1    1    2  501    0  0.95846778991E+02 -0.60653326780E+02 -0.61409378996E+03  0.64800124534E+03  0.17300000000E+03 0. -1.
         -6    1    1    2    0  502 -0.95846778991E+02  0.60653326780E+02 -0.33481843877E+03  0.39357060108E+03  0.17300000000E+03 0. -1.
<mgrwt>
<rscale>  2 0.20686815E+03</rscale>
<asrwt>0</asrwt>
<pdfrwt beam="1">  1       21 0.71276635E-02 0.20686815E+03</pdfrwt>
<pdfrwt beam="2">  1       21 0.15311415E+00 0.20686815E+03</pdfrwt>
<totfact> 0.41161983E+04</totfact>
</mgrwt>
</event>
<event>
 4    1  0.3883260E+000  0.1775724E+03  0.7546771E-02  0.1170173E+00
         21   -1    0    0  503  502  0.00000000000E+00  0.00000000000E+00  0.95638028941E+02  0.95638028941E+02  0.00000000000E+00 0.  1.
         21   -1    0    0  501  503 -0.00000000000E+00 -0.00000000000E+00 -0.44684410026E+03  0.44684410026E+03  0.00000000000E+00 0.  1.
          6    1    1    2  501    0  0.38056278106E+02 -0.12437162168E+02 -0.31448172153E+03  0.36115192991E+03  0.17300000000E+03 0.  1.
         -6    1    1    2    0  502 -0.38056278106E+02  0.12437162168E+02 -0.36724349793E+02  0.18133019929E+03  0.17300000000E+03 0.  1.
<mgrwt>
<rscale>  2 0.17757242E+03</rscale>
<asrwt>0</asrwt>
<pdfrwt beam="1">  1       21 0.14713543E-01 0.17757242E+03</pdfrwt>
<pdfrwt beam="2">  1       21 0.68745246E-01 0.17757242E+03</pdfrwt>
<totfact> 0.78837658E+04</totfact>
</mgrwt>
</event>
<event>
 4    1  0.3883260E+000  0.1803665E+03  0.7546771E-02  0.1167449E+00
         21   -1    0    0  501  502  0.00000000000E+00  0.00000000000E+00  0.21316743668E+03  0.21316743668E+03  0.00000000000E+00 0.  1.
         21   -1    0    0  502  503 -0.00000000000E+00 -0.00000000000E+00 -0.19930675867E+03  0.19930675867E+03  0.00000000000E+00 0.  1.
          6    1    1    2  501    0  0.32024648569E+02 -0.39717866287E+02  0.10675456600E+03  0.20959156562E+03  0.17300000000E+03 0.  1.
         -6    1    1    2    0  503 -0.32024648569E+02  0.39717866287E+02 -0.92893887990E+02  0.20288262973E+03  0.17300000000E+03 0.  1.
<mgrwt>
<rscale>  2 0.18036654E+03</rscale>
<asrwt>0</asrwt>
<pdfrwt beam="1">  1       21 0.32794990E-01 0.18036654E+03</pdfrwt>
<pdfrwt beam="2">  1       21 0.30662578E-01 0.18036654E+03</pdfrwt>
<totfact> 0.91825784E+04</totfact>
</mgrwt>
</event>
<event>
 4    1  0.3883260E+000  0.1793345E+03  0.7546771E-02  0.1168449E+00
         21   -1    0    0  501  502  0.00000000000E+00  0.00000000000E+00  0.33260778859E+03  0.33260778859E+03  0.00000000000E+00 0. -1.
         21   -1    0    0  502  503 -0.00000000000E+00 -0.00000000000E+00 -0.15173014500E+03  0.15173014500E+03  0.00000000000E+00 0. -1.
          6    1    1    2  501    0 -0.47120728443E+02 -0.33932780095E+01  0.23629005842E+03  0.29663760567E+03  0.17300000000E+03 0.  1.
         -6    1    1    2    0  503  0.47120728443E+02  0.33932780095E+01 -0.55412414829E+02  0.18770032792E+03  0.17300000000E+03 0.  1.
<mgrwt>
<rscale>  2 0.17933454E+03</rscale>
<asrwt>0</asrwt>
<pdfrwt beam="1">  1       21 0.51170429E-01 0.17933454E+03</pdfrwt>
<pdfrwt beam="2">  1       21 0.23343099E-01 0.17933454E+03</pdfrwt>
<totfact> 0.63025014E+04</totfact>
</mgrwt>
</event>
<event>
 4    1  0.3883260E+000  0.1793289E+03  0.7546771E-02  0.1168454E+00
         21   -1    0    0  503  502  0.00000000000E+00  0.00000000000E+00  0.73567039987E+03  0.73567039987E+03  0.00000000000E+00 0.  1.
         21   -1    0    0  501  503 -0.00000000000E+00 -0.00000000000E+00 -0.43814110431E+02  0.43814110431E+02  0.00000000000E+00 0. -1.
          6    1    1    2  501    0 -0.41996464484E+02 -0.21590373672E+02  0.36458944468E+03  0.40630568595E+03  0.17300000000E+03 0. -1.
         -6    1    1    2    0  502  0.41996464484E+02  0.21590373672E+02  0.32726684476E+03  0.37317882435E+03  0.17300000000E+03 0. -1.
<mgrwt>
<rscale>  2 0.17932888E+03</rscale>
<asrwt>0</asrwt>
<pdfrwt beam="1">  1       21 0.11318005E+00 0.17932888E+03</pdfrwt>
<pdfrwt beam="2">  1       21 0.67406329E-02 0.17932888E+03</pdfrwt>
<totfact> 0.98960335E+04</totfact>
</mgrwt>
</event>
<event>
 4    1  0.3883260E+000  0.1814730E+03  0.7546771E-02  0.1166385E+00
         21   -1    0    0  503  502  0.00000000000E+00  0.00000000000E+00  0.94723642199E+03  0.94723642199E+03  0.00000000000E+00 0.  1.
         21   -1    0    0  501  503 -0.00000000000E+00 -0.00000000000E+00 -0.71448953878E+02  0.71448953878E+02  0.00000000000E+00 0.  1.
          6    1    1    2  501    0  0.49467279670E+02  0.23589313078E+02  0.72938999997E+02  0.19558263003E+03  0.17300000000E+03 0.  1.
         -6    1    1    2    0  502 -0.49467279670E+02 -0.23589313078E+02  0.80284846811E+03  0.82310274583E+03  0.17300000000E+03 0.  1.
<mgrwt>
<rscale>  2 0.18147305E+03</rscale>
<asrwt>0</asrwt>
<pdfrwt beam="1">  1       21 0.14572867E+00 0.18147305E+03</pdfrwt>
<pdfrwt beam="2">  1       21 0.10992147E-01 0.18147305E+03</pdfrwt>
<totfact> 0.22287427E+04</totfact>
</mgrwt>
</event>
<event>
 4    1  0.3883260E+000  0.1980760E+03  0.7546771E-02  0.1151373E+00
         21   -1    0    0  503  502  0.00000000000E+00  0.00000000000E+00  0.16767403809E+03  0.16767403809E+03  0.00000000000E+00 0. -1.
         21   -1    0    0  501  503 -0.00000000000E+00 -0.00000000000E+00 -0.27766918467E+03  0.27766918467E+03  0.00000000000E+00 0.  1.
          6    1    1    2  501    0  0.14863321465E+02 -0.95310898238E+02 -0.14331311961E+03  0.24448463326E+03  0.17300000000E+03 0.  1.
         -6    1    1    2    0  502 -0.14863321465E+02  0.95310898238E+02  0.33317973039E+02  0.20085858950E+03  0.17300000000E+03 0. -1.
<mgrwt>
<rscale>  2 0.19807596E+03</rscale>
<asrwt>0</asrwt>
<pdfrwt beam="1">  1       21 0.25796006E-01 0.19807596E+03</pdfrwt>
<pdfrwt beam="2">  1       21 0.42718335E-01 0.19807596E+03</pdfrwt>
<totfact> 0.75016563E+04</totfact>
</mgrwt>
</event>
<event>
 4    1  0.3883260E+000  0.2327585E+03  0.7546771E-02  0.1124713E+00
         21   -1    0    0  501  502  0.00000000000E+00  0.00000000000E+00  0.31760281315E+03  0.31760281315E+03  0.00000000000E+00 0.  1.
         21   -1    0    0  502  503 -0.00000000000E+00 -0.00000000000E+00 -0.27152499181E+03  0.27152499181E+03  0.00000000000E+00 0.  1.
          6    1    1    2  501    0  0.12854974165E+03 -0.87877638796E+02  0.20264380878E+03  0.30861145267E+03  0.17300000000E+03 0.  1.
         -6    1    1    2    0  503 -0.12854974165E+03  0.87877638796E+02 -0.15656598744E+03  0.28051635229E+03  0.17300000000E+03 0.  1.
<mgrwt>
<rscale>  2 0.23275849E+03</rscale>
<asrwt>0</asrwt>
<pdfrwt beam="1">  1       21 0.48861971E-01 0.23275849E+03</pdfrwt>
<pdfrwt beam="2">  1       21 0.41773075E-01 0.23275849E+03</pdfrwt>
<totfact> 0.21564769E+04</totfact>
</mgrwt>
</event>
<event>
 4    1  0.3883260E+000  0.2654242E+03  0.7546771E-02  0.1103927E+00
         21   -1    0    0  503  502  0.00000000000E+00  0.00000000000E+00  0.47327377441E+03  0.47327377441E+03  0.00000000000E+00 0.  1.
         21   -1    0    0  501  503 -0.00000000000E+00 -0.00000000000E+00 -0.45593315691E+03  0.45593315691E+03  0.00000000000E+00 0. -1.
          6    1    1    2  501    0 -0.18887551948E+03  0.69620885038E+02 -0.37261935450E+03  0.45748793737E+03  0.17300000000E+03 0. -1.
         -6    1    1    2    0  502  0.18887551948E+03 -0.69620885038E+02  0.38995997200E+03  0.47171899395E+03  0.17300000000E+03 0.  1.
<mgrwt>
<rscale>  2 0.26542424E+03</rscale>
<asrwt>0</asrwt>
<pdfrwt beam="1">  1       21 0.72811350E-01 0.26542424E+03</pdfrwt>
<pdfrwt beam="2">  1       21 0.70143563E-01 0.26542424E+03</pdfrwt>
<totfact> 0.29688634E+03</totfact>
</mgrwt>
</event>
<event>
 4    1  0.3883260E+000  0.2067064E+03  0.7546771E-02  0.1144201E+00
         21   -1    0    0  503  502  0.00000000000E+00  0.00000000000E+00  0.20548294088E+02  0.20548294088E+02  0.00000000000E+00 0. -1.
         21   -1    0    0  501  503 -0.00000000000E+00 -0.00000000000E+00 -0.20865301494E+04  0.20865301494E+04  0.00000000000E+00 0.  1.
          6    1    1    2  501    0  0.10585234796E+03  0.39922677820E+02 -0.10947001364E+04  0.11140448503E+04  0.17300000000E+03 0. -1.
         -6    1    1    2    0  502 -0.10585234796E+03 -0.39922677820E+02 -0.97128171892E+03  0.99303359323E+03  0.17300000000E+03 0. -1.
<mgrwt>
<rscale>  2 0.20670641E+03</rscale>
<asrwt>0</asrwt>
<pdfrwt beam="1">  1       21 0.31612758E-02 0.20670641E+03</pdfrwt>
<pdfrwt beam="2">  1       21 0.32100466E+00 0.20670641E+03</pdfrwt>
<totfact> 0.14762799E+04</totfact>
</mgrwt>
</event>
<event>
 4    1  0.3883260E+000  0.1827591E+03  0.7546771E-02  0.1165159E+00
         21   -1    0    0  503  502  0.00000000000E+00  0.00000000000E+00  0.48071542356E+03  0.48071542356E+03  0.00000000000E+00 0.  1.
         21   -1    0    0  501  503 -0.00000000000E+00 -0.00000000000E+00 -0.72668415284E+02  0.72668415284E+02  0.00000000000E+00 0.  1.
          6    1    1    2  501    0  0.71015602957E+01  0.58493234157E+02  0.14608061888E+03  0.23396674510E+03  0.17300000000E+03 0.  1.
         -6    1    1    2    0  502 -0.71015602957E+01 -0.58493234157E+02  0.26196638939E+03  0.31941709374E+03  0.17300000000E+03 0.  1.
<mgrwt>
<rscale>  2 0.18275911E+03</rscale>
<asrwt>0</asrwt>
<pdfrwt beam="1">  1       21 0.73956217E-01 0.18275911E+03</pdfrwt>
<pdfrwt beam="2">  1       21 0.11179756E-01 0.18275911E+03</pdfrwt>
<totfact> 0.10963412E+05</totfact>
</mgrwt>
</event>
<event>
 4    1  0.3883260E+000  0.1780607E+03  0.7546771E-02  0.1169693E+00
         21   -1    0    0  503  502  0.00000000000E+00  0.00000000000E+00  0.47988022837E+02  0.47988022837E+02  0.00000000000E+00 0. -1.
         21   -1    0    0  501  503 -0.00000000000E+00 -0.00000000000E+00 -0.91973358107E+03  0.91973358107E+03  0.00000000000E+00 0. -1.
          6    1    1    2  501    0  0.42149756231E+02 -0.12694435643E+00 -0.69265718883E+03  0.71517801931E+03  0.17300000000E+03 0. -1.
         -6    1    1    2    0  502 -0.42149756231E+02  0.12694435643E+00 -0.17908836940E+03  0.25254358459E+03  0.17300000000E+03 0. -1.
<mgrwt>
<rscale>  2 0.17806071E+03</rscale>
<asrwt>0</asrwt>
<pdfrwt beam="1">  1       21 0.73827719E-02 0.17806071E+03</pdfrwt>
<pdfrwt beam="2">  1       21 0.14149749E+00 0.17806071E+03</pdfrwt>
<totfact> 0.48414921E+04</totfact>
</mgrwt>
</event>
<event>
 4    1  0.3883260E+000  0.1736036E+03  0.7546771E-02  0.1174141E+00
         21   -1    0    0  503  502  0.00000000000E+00  0.00000000000E+00  0.66262629327E+03  0.66262629327E+03  0.00000000000E+00 0. -1.
         21   -1    0    0  501  503 -0.00000000000E+00 -0.00000000000E+00 -0.33061459908E+03  0.33061459908E+03  0.00000000000E+00 0. -1.
          6    1    1    2  501    0 -0.54596773814E+01  0.13394711403E+02 -0.29519092950E+03  0.34245570696E+03  0.17300000000E+03 0. -1.
         -6    1    1    2    0  502  0.54596773814E+01 -0.13394711403E+02  0.62720262368E+03  0.65078518539E+03  0.17300000000E+03 0. -1.
<mgrwt>
<rscale>  2 0.17360365E+03</rscale>
<asrwt>0</asrwt>
<pdfrwt beam="1">  1       21 0.10194251E+00 0.17360365E+03</pdfrwt>
<pdfrwt beam="2">  1       21 0.50863785E-01 0.17360365E+03</pdfrwt>
<totfact> 0.29327001E+03</totfact>
</mgrwt>
</event>
<event>
 4    1  0.3883260E+000  0.2292679E+03  0.7546771E-02  0.1127156E+00
         21   -1    0    0  503  502  0.00000000000E+00  0.00000000000E+00  0.22063142369E+02  0.22063142369E+02  0.00000000000E+00 0.  1.
         21   -1    0    0  501  503 -0.00000000000E+00 -0.00000000000E+00 -0.29247723176E+04  0.29247723176E+04  0.00000000000E+00 0. -1.
          6    1    1    2  501    0  0.13469644027E+03 -0.67019682230E+02 -0.20858359163E+04  0.20983982554E+04  0.17300000000E+03 0. -1.
         -6    1    1    2    0  502 -0.13469644027E+03  0.67019682230E+02 -0.81687325898E+03  0.84843720455E+03  0.17300000000E+03 0.  1.
<mgrwt>
<rscale>  2 0.22926790E+03</rscale>
<asrwt>0</asrwt>
<pdfrwt beam="1">  1       21 0.33943307E-02 0.22926790E+03</pdfrwt>
<pdfrwt beam="2">  1       21 0.44996483E+00 0.22926790E+03</pdfrwt>
<totfact> 0.20389489E+03</totfact>
</mgrwt>
</event>
<event>
 4    1  0.3883260E+000  0.1747575E+03  0.7546771E-02  0.1172975E+00
         21   -1    0    0  501  502  0.00000000000E+00  0.00000000000E+00  0.14895223624E+03  0.14895223624E+03  0.00000000000E+00 0.  1.
         21   -1    0    0  502  503 -0.00000000000E+00 -0.00000000000E+00 -0.20554762776E+03  0.20554762776E+03  0.00000000000E+00 0.  1.
          6    1    1    2  501    0  0.13669463803E+02  0.20599034166E+02 -0.19431586648E+02  0.17583447048E+03  0.17300000000E+03 0. -1.
         -6    1    1    2    0  503 -0.13669463803E+02 -0.20599034166E+02 -0.37163804869E+02  0.17866539352E+03  0.17300000000E+03 0. -1.
<mgrwt>
<rscale>  2 0.17475747E+03</rscale>
<asrwt>0</asrwt>
<pdfrwt beam="1">  1       21 0.22915729E-01 0.17475747E+03</pdfrwt>
<pdfrwt beam="2">  1       21 0.31622712E-01 0.17475747E+03</pdfrwt>
<totfact> 0.17275272E+05</totfact>
</mgrwt>
</event>
<event>
 4    1  0.3883260E+000  0.2262748E+03  0.7546771E-02  0.1129290E+00
         21   -1    0    0  503  502  0.00000000000E+00  0.00000000000E+00  0.82887527978E+03  0.82887527978E+03  0.00000000000E+00 0.  1.
         21   -1    0    0  501  503 -0.00000000000E+00 -0.00000000000E+00 -0.73069435652E+02  0.73069435652E+02  0.00000000000E+00 0. -1.
          6    1    1    2  501    0  0.75557228191E+02  0.12474932085E+03  0.20056766883E+03  0.30237010031E+03  0.17300000000E+03 0. -1.
         -6    1    1    2    0  502 -0.75557228191E+02 -0.12474932085E+03  0.55523817530E+03  0.59957461512E+03  0.17300000000E+03 0.  1.
<mgrwt>
<rscale>  2 0.22627481E+03</rscale>
<asrwt>0</asrwt>
<pdfrwt beam="1">  1       21 0.12751927E+00 0.22627481E+03</pdfrwt>
<pdfrwt beam="2">  1       21 0.11241452E-01 0.22627481E+03</pdfrwt>
<totfact> 0.29344035E+04</totfact>
</mgrwt>
</event>
<event>
 4    1  0.3883260E+000  0.2662705E+03  0.7546771E-02  0.1103433E+00
         21   -1    0    0  503  502  0.00000000000E+00  0.00000000000E+00  0.88057252333E+02  0.88057252333E+02  0.00000000000E+00 0. -1.
         21   -1    0    0  501  503 -0.00000000000E+00 -0.00000000000E+00 -0.14422533510E+04  0.14422533510E+04  0.00000000000E+00 0.  1.
          6    1    1    2  501    0  0.14159894909E+03  0.14463993268E+03 -0.11856451028E+04  0.12151766466E+04  0.17300000000E+03 0.  1.
         -6    1    1    2    0  502 -0.14159894909E+03 -0.14463993268E+03 -0.16855099585E+03  0.31513395678E+03  0.17300000000E+03 0. -1.
<mgrwt>
<rscale>  2 0.26627049E+03</rscale>
<asrwt>0</asrwt>
<pdfrwt beam="1">  1       21 0.13547271E-01 0.26627049E+03</pdfrwt>
<pdfrwt beam="2">  1       21 0.22188511E+00 0.26627049E+03</pdfrwt>
<totfact> 0.43416123E+03</totfact>
</mgrwt>
</event>
<event>
 4    1  0.3883260E+000  0.2747474E+03  0.7546771E-02  0.1098593E+00
         21   -1    0    0  503  502  0.00000000000E+00  0.00000000000E+00  0.19289194802E+04  0.19289194802E+04  0.00000000000E+00 0. -1.
         21   -1    0    0  501  503 -0.00000000000E+00 -0.00000000000E+00 -0.82707059218E+02  0.82707059218E+02  0.00000000000E+00 0. -1.
          6    1    1    2  501    0  0.11269470514E+03 -0.18126503765E+03  0.19305104588E+03  0.33578984017E+03  0.17300000000E+03 0. -1.
         -6    1    1    2    0  502 -0.11269470514E+03  0.18126503765E+03  0.16531613751E+04  0.16758366992E+04  0.17300000000E+03 0. -1.
<mgrwt>
<rscale>  2 0.27474736E+03</rscale>
<asrwt>0</asrwt>
<pdfrwt beam="1">  1       21 0.29675681E+00 0.27474736E+03</pdfrwt>
<pdfrwt beam="2">  1       21 0.12724164E-01 0.27474736E+03</pdfrwt>
<totfact> 0.17246955E+03</totfact>
</mgrwt>
</event>
<event>
 4    1  0.3883260E+000  0.1886456E+03  0.7546771E-02  0.1159689E+00
         21   -1    0    0  501  502  0.00000000000E+00  0.00000000000E+00  0.11937182060E+03  0.11937182060E+03  0.00000000000E+00 0.  1.
         21   -1    0    0  502  503 -0.00000000000E+00 -0.00000000000E+00 -0.29822105998E+03  0.29822105998E+03  0.00000000000E+00 0.  1.
          6    1    1    2  501    0 -0.62868788027E+02  0.41300039724E+02 -0.93260192440E+02  0.21043916290E+03  0.17300000000E+03 0.  1.
         -6    1    1    2    0  503  0.62868788027E+02 -0.41300039724E+02 -0.85589046939E+02  0.20715371767E+03  0.17300000000E+03 0.  1.
<mgrwt>
<rscale>  2 0.18864564E+03</rscale>
<asrwt>0</asrwt>
<pdfrwt beam="1">  1       21 0.18364896E-01 0.18864564E+03</pdfrwt>
<pdfrwt beam="2">  1       21 0.45880163E-01 0.18864564E+03</pdfrwt>
<totfact> 0.12335886E+05</totfact>
</mgrwt>
</event>
<event>
 4    1  0.3883260E+000  0.2542507E+03  0.7546771E-02  0.1110648E+00
         21   -1    0    0  503  502  0.00000000000E+00  0.00000000000E+00  0.22421170167E+03  0.22421170167E+03  0.00000000000E+00 0. -1.
         21   -1    0    0  501  503 -0.00000000000E+00 -0.00000000000E+00 -0.28832785379E+03  0.28832785379E+03  0.00000000000E+00 0. -1.
          6    1    1    2  501    0  0.94200450542E+02  0.16075043400E+03 -0.33818853971E+02  0.25649004230E+03  0.17300000000E+03 0. -1.
         -6    1    1    2    0  502 -0.94200450542E+02 -0.16075043400E+03 -0.30297298144E+02  0.25604951316E+03  0.17300000000E+03 0. -1.
<mgrwt>
<rscale>  2 0.25425072E+03</rscale>
<asrwt>0</asrwt>
<pdfrwt beam="1">  1       21 0.34494108E-01 0.25425072E+03</pdfrwt>
<pdfrwt beam="2">  1       21 0.44358131E-01 0.25425072E+03</pdfrwt>
<totfact> 0.38406142E+04</totfact>
</mgrwt>
</event>
<event>
 4    1  0.3883260E+000  0.2149582E+03  0.7546771E-02  0.1137699E+00
         21   -1    0    0  503  502  0.00000000000E+00  0.00000000000E+00  0.56870146859E+03  0.56870146859E+03  0.00000000000E+00 0. -1.
         21   -1    0    0  501  503 -0.00000000000E+00 -0.00000000000E+00 -0.57585237093E+03  0.57585237093E+03  0.00000000000E+00 0. -1.
          6    1    1    2  501    0  0.11334468848E+03  0.58574927671E+02 -0.53394516051E+03  0.57559054456E+03  0.17300000000E+03 0. -1.
         -6    1    1    2    0  502 -0.11334468848E+03 -0.58574927671E+02  0.52679425818E+03  0.56896329496E+03  0.17300000000E+03 0. -1.
<mgrwt>
<rscale>  2 0.21495823E+03</rscale>
<asrwt>0</asrwt>
<pdfrwt beam="1">  1       21 0.87492533E-01 0.21495823E+03</pdfrwt>
<pdfrwt beam="2">  1       21 0.88592673E-01 0.21495823E+03</pdfrwt>
<totfact> 0.11962227E+03</totfact>
</mgrwt>
</event>
<event>
 4    1  0.3883260E+000  0.1987224E+03  0.7546771E-02  0.1150821E+00
         21   -1    0    0  501  502  0.00000000000E+00  0.00000000000E+00  0.67555310870E+02  0.67555310870E+02  0.00000000000E+00 0. -1.
         21   -1    0    0  502  503 -0.00000000000E+00 -0.00000000000E+00 -0.64750734081E+03  0.64750734081E+03  0.00000000000E+00 0. -1.
          6    1    1    2  501    0 -0.69426155264E+02  0.68859293136E+02 -0.17850629363E+03  0.26712373566E+03  0.17300000000E+03 0. -1.
         -6    1    1    2    0  503  0.69426155264E+02 -0.68859293136E+02 -0.40144573630E+03  0.44793891602E+03  0.17300000000E+03 0. -1.
<mgrwt>
<rscale>  2 0.19872240E+03</rscale>
<asrwt>0</asrwt>
<pdfrwt beam="1">  1       21 0.10393125E-01 0.19872240E+03</pdfrwt>
<pdfrwt beam="2">  1       21 0.99616512E-01 0.19872240E+03</pdfrwt>
<totfact> 0.62608733E+04</totfact>
</mgrwt>
</event>
<event>
 4    1  0.3883260E+000  0.2215978E+03  0.7546771E-02  0.1132697E+00
         21   -1    0    0  501  502  0.00000000000E+00  0.00000000000E+00  0.11707297577E+03  0.11707297577E+03  0.00000000000E+00 0. -1.
         21   -1    0    0  502  503 -0.00000000000E+00 -0.00000000000E+00 -0.48083976908E+03  0.48083976908E+03  0.00000000000E+00 0. -1.
          6    1    1    2  501    0  0.18529893231E+02 -0.13723414576E+03 -0.28870928948E+03  0.36394865234E+03  0.17300000000E+03 0. -1.
         -6    1    1    2    0  503 -0.18529893231E+02  0.13723414576E+03 -0.75057503828E+02  0.23396409251E+03  0.17300000000E+03 0. -1.
<mgrwt>
<rscale>  2 0.22159776E+03</rscale>
<asrwt>0</asrwt>
<pdfrwt beam="1">  1       21 0.18011227E-01 0.22159776E+03</pdfrwt>
<pdfrwt beam="2">  1       21 0.73975350E-01 0.22159776E+03</pdfrwt>
<totfact> 0.45325639E+04</totfact>
</mgrwt>
</event>
<event>
 4    1  0.3883260E+000  0.1885864E+03  0.7546771E-02  0.1159742E+00
         21   -1    0    0  501  502  0.00000000000E+00  0.00000000000E+00  0.11444923612E+03  0.11444923612E+03  0.00000000000E+00 0.  1.
         21   -1    0    0  502  503 -0.00000000000E+00 -0.00000000000E+00 -0.31107055182E+03  0.31107055182E+03  0.00000000000E+00 0.  1.
          6    1    1    2  501    0 -0.59188008811E+02  0.46180280951E+02 -0.10516476818E+03  0.21592699508E+03  0.17300000000E+03 0.  1.
         -6    1    1    2    0  503  0.59188008811E+02 -0.46180280951E+02 -0.91456547515E+02  0.20959279286E+03  0.17300000000E+03 0.  1.
<mgrwt>
<rscale>  2 0.18858642E+03</rscale>
<asrwt>0</asrwt>
<pdfrwt beam="1">  1       21 0.17607575E-01 0.18858642E+03</pdfrwt>
<pdfrwt beam="2">  1       21 0.47857008E-01 0.18858642E+03</pdfrwt>
<totfact> 0.12222292E+05</totfact>
</mgrwt>
</event>
<event>
 4    1  0.3883260E+000  0.2807761E+03  0.7546771E-02  0.1095266E+00
         21   -1    0    0  501  502  0.00000000000E+00  0.00000000000E+00  0.10122981750E+04  0.10122981750E+04  0.00000000000E+00 0.  1.
         21   -1    0    0  502  503 -0.00000000000E+00 -0.00000000000E+00 -0.79122955594E+02  0.79122955594E+02  0.00000000000E+00 0. -1.
          6    1    1    2  501    0  0.17580571099E+03 -0.13415879705E+03  0.53505420438E+03  0.60425014064E+03  0.17300000000E+03 0. -1.
         -6    1    1    2    0  503 -0.17580571099E+03  0.13415879705E+03  0.39812101502E+03  0.48717098994E+03  0.17300000000E+03 0.  1.
<mgrwt>
<rscale>  2 0.28077612E+03</rscale>
<asrwt>0</asrwt>
<pdfrwt beam="1">  1       21 0.15573817E+00 0.28077612E+03</pdfrwt>
<pdfrwt beam="2">  1       21 0.12172763E-01 0.28077612E+03</pdfrwt>
<totfact> 0.14667569E+04</totfact>
</mgrwt>
</event>
<event>
 4    1  0.3883260E+000  0.1927032E+03  0.7546771E-02  0.1156046E+00
         21   -1    0    0  501  502  0.00000000000E+00  0.00000000000E+00  0.16703456917E+03  0.16703456917E+03  0.00000000000E+00 0. -1.
         21   -1    0    0  502  503 -0.00000000000E+00 -0.00000000000E+00 -0.22325724064E+03  0.22325724064E+03  0.00000000000E+00 0. -1.
          6    1    1    2  501    0 -0.13699082260E+02 -0.83772562981E+02 -0.40780211937E+02  0.19697089341E+03  0.17300000000E+03 0. -1.
         -6    1    1    2    0  503  0.13699082260E+02  0.83772562981E+02 -0.15442459537E+02  0.19332091641E+03  0.17300000000E+03 0. -1.
<mgrwt>
<rscale>  2 0.19270316E+03</rscale>
<asrwt>0</asrwt>
<pdfrwt beam="1">  1       21 0.25697626E-01 0.19270316E+03</pdfrwt>
<pdfrwt beam="2">  1       21 0.34347268E-01 0.19270316E+03</pdfrwt>
<totfact> 0.11739195E+05</totfact>
</mgrwt>
</event>
<event>
 4    1  0.3883260E+000  0.1895707E+03  0.7546771E-02  0.1158849E+00
         21   -1    0    0  501  502  0.00000000000E+00  0.00000000000E+00  0.12628569778E+03  0.12628569778E+03  0.00000000000E+00 0. -1.
         21   -1    0    0  502  503 -0.00000000000E+00 -0.00000000000E+00 -0.28500137821E+03  0.28500137821E+03  0.00000000000E+00 0.  1.
          6    1    1    2  501    0  0.72042599312E+02 -0.28598935759E+02 -0.87364701891E+02  0.20873338587E+03  0.17300000000E+03 0. -1.
         -6    1    1    2    0  503 -0.72042599312E+02  0.28598935759E+02 -0.71350978531E+02  0.20255369012E+03  0.17300000000E+03 0. -1.
<mgrwt>
<rscale>  2 0.18957066E+03</rscale>
<asrwt>0</asrwt>
<pdfrwt beam="1">  1       21 0.19428569E-01 0.18957066E+03</pdfrwt>
<pdfrwt beam="2">  1       21 0.43846366E-01 0.18957066E+03</pdfrwt>
<totfact> 0.12190771E+05</totfact>
</mgrwt>
</event>
<event>
 4    1  0.3883260E+000  0.1748417E+03  0.7546771E-02  0.1172891E+00
         21   -1    0    0  501  502  0.00000000000E+00  0.00000000000E+00  0.47706213857E+02  0.47706213857E+02  0.00000000000E+00 0. -1.
         21   -1    0    0  502  503 -0.00000000000E+00 -0.00000000000E+00 -0.14410049926E+04  0.14410049926E+04  0.00000000000E+00 0. -1.
          6    1    1    2  501    0  0.48781265210E+00 -0.25305681357E+02 -0.14195810556E+03  0.22521482901E+03  0.17300000000E+03 0. -1.
         -6    1    1    2    0  503 -0.48781265210E+00  0.25305681357E+02 -0.12513406731E+04  0.12634963774E+04  0.17300000000E+03 0. -1.
<mgrwt>
<rscale>  2 0.17484169E+03</rscale>
<asrwt>0</asrwt>
<pdfrwt beam="1">  1       21 0.73394178E-02 0.17484169E+03</pdfrwt>
<pdfrwt beam="2">  1       21 0.22169307E+00 0.17484169E+03</pdfrwt>
<totfact> 0.13905275E+04</totfact>
</mgrwt>
</event>
<event>
 4    1  0.3883260E+000  0.2021935E+03  0.7546771E-02  0.1147901E+00
         21   -1    0    0  503  502  0.00000000000E+00  0.00000000000E+00  0.18424872742E+03  0.18424872742E+03  0.00000000000E+00 0. -1.
         21   -1    0    0  501  503 -0.00000000000E+00 -0.00000000000E+00 -0.38589032062E+03  0.38589032062E+03  0.00000000000E+00 0. -1.
          6    1    1    2  501    0 -0.39000694657E+02  0.97119332410E+02 -0.28666390088E+03  0.35079682293E+03  0.17300000000E+03 0. -1.
         -6    1    1    2    0  502  0.39000694657E+02 -0.97119332410E+02  0.85022307688E+02  0.21934222511E+03  0.17300000000E+03 0. -1.
<mgrwt>
<rscale>  2 0.20219352E+03</rscale>
<asrwt>0</asrwt>
<pdfrwt beam="1">  1       21 0.28345959E-01 0.20219352E+03</pdfrwt>
<pdfrwt beam="2">  1       21 0.59367741E-01 0.20219352E+03</pdfrwt>
<totfact> 0.31372819E+04</totfact>
</mgrwt>
</event>
<event>
 4    1  0.3883260E+000  0.1914564E+03  0.7546771E-02  0.1157154E+00
         21   -1    0    0  501  502  0.00000000000E+00  0.00000000000E+00  0.43917761276E+02  0.43917761276E+02  0.00000000000E+00 0.  1.
         21   -1    0    0  502  503 -0.00000000000E+00 -0.00000000000E+00 -0.16808007998E+04  0.16808007998E+04  0.00000000000E+00 0.  1.
          6    1    1    2  501    0 -0.81059866282E+02  0.12483663219E+02 -0.20657536288E+03  0.28165390876E+03  0.17300000000E+03 0.  1.
         -6    1    1    2    0  503  0.81059866282E+02 -0.12483663219E+02 -0.14303076756E+04  0.14430646523E+04  0.17300000000E+03 0.  1.
<mgrwt>
<rscale>  2 0.19145638E+03</rscale>
<asrwt>0</asrwt>
<pdfrwt beam="1">  1       21 0.67565787E-02 0.19145638E+03</pdfrwt>
<pdfrwt beam="2">  1       21 0.25858474E+00 0.19145638E+03</pdfrwt>
<totfact> 0.95338288E+03</totfact>
</mgrwt>
</event>
<event>
 4    1  0.3883260E+000  0.2135474E+03  0.7546771E-02  0.1138787E+00
         21   -1    0    0  503  502  0.00000000000E+00  0.00000000000E+00  0.38680247065E+03  0.38680247065E+03  0.00000000000E+00 0. -1.
         21   -1    0    0  501  503 -0.00000000000E+00 -0.00000000000E+00 -0.12541367190E+03  0.12541367190E+03  0.00000000000E+00 0.  1.
          6    1    1    2  501    0  0.10294816037E+03 -0.71240264812E+02  0.67991171850E+02  0.22411001429E+03  0.17300000000E+03 0. -1.
         -6    1    1    2    0  502 -0.10294816037E+03  0.71240264812E+02  0.19339762689E+03  0.28810612826E+03  0.17300000000E+03 0.  1.
<mgrwt>
<rscale>  2 0.21354742E+03</rscale>
<asrwt>0</asrwt>
<pdfrwt beam="1">  1       21 0.59508072E-01 0.21354742E+03</pdfrwt>
<pdfrwt beam="2">  1       21 0.19294411E-01 0.21354742E+03</pdfrwt>
<totfact> 0.64482355E+04</totfact>
</mgrwt>
</event>
<event>
 4    1  0.3883260E+000  0.2833416E+03  0.7546771E-02  0.1093878E+00
         21   -1    0    0  501  502  0.00000000000E+00  0.00000000000E+00  0.97718163198E+03  0.97718163198E+03  0.00000000000E+00 0. -1.
         21   -1    0    0  502  503 -0.00000000000E+00 -0.00000000000E+00 -0.14336523245E+03  0.14336523245E+03  0.00000000000E+00 0. -1.
          6    1    1    2  501    0  0.14703681528E+03 -0.16951007384E+03  0.78299357305E+03  0.83268326849E+03  0.17300000000E+03 0. -1.
         -6    1    1    2    0  503 -0.14703681528E+03  0.16951007384E+03  0.50822826481E+02  0.28786359595E+03  0.17300000000E+03 0. -1.
<mgrwt>
<rscale>  2 0.28334165E+03</rscale>
<asrwt>0</asrwt>
<pdfrwt beam="1">  1       21 0.15033563E+00 0.28334165E+03</pdfrwt>
<pdfrwt beam="2">  1       21 0.22056190E-01 0.28334165E+03</pdfrwt>
<totfact> 0.53572152E+03</totfact>
</mgrwt>
</event>
<event>
 4    1  0.3883260E+000  0.1944718E+03  0.7546771E-02  0.1154489E+00
         21   -1    0    0  501  502  0.00000000000E+00  0.00000000000E+00  0.72145096084E+03  0.72145096084E+03  0.00000000000E+00 0.  1.
         21   -1    0    0  502  503 -0.00000000000E+00 -0.00000000000E+00 -0.53627761775E+02  0.53627761775E+02  0.00000000000E+00 0.  1.
          6    1    1    2  501    0  0.88499244916E+02  0.76261144372E+01  0.39204269680E+03  0.43762626759E+03  0.17300000000E+03 0.  1.
         -6    1    1    2    0  503 -0.88499244916E+02 -0.76261144372E+01  0.27578050226E+03  0.33745245502E+03  0.17300000000E+03 0.  1.
<mgrwt>
<rscale>  2 0.19447178E+03</rscale>
<asrwt>0</asrwt>
<pdfrwt beam="1">  1       21 0.11099245E+00 0.19447178E+03</pdfrwt>
<pdfrwt beam="2">  1       21 0.82504254E-02 0.19447178E+03</pdfrwt>
<totfact> 0.72617362E+04</totfact>
</mgrwt>
</event>
<event>
 4    1  0.3883260E+000  0.2315865E+03  0.7546771E-02  0.1125528E+00
         21   -1    0    0  503  502  0.00000000000E+00  0.00000000000E+00  0.98252681869E+02  0.98252681869E+02  0.00000000000E+00 0.  1.
         21   -1    0    0  501  503 -0.00000000000E+00 -0.00000000000E+00 -0.54944979613E+03  0.54944979613E+03  0.00000000000E+00 0. -1.
          6    1    1    2  501    0  0.53971592347E+02 -0.14418862959E+03 -0.25177220522E+03  0.34208410808E+03  0.17300000000E+03 0.  1.
         -6    1    1    2    0  502 -0.53971592347E+02  0.14418862959E+03 -0.19942490904E+03  0.30561836992E+03  0.17300000000E+03 0. -1.
<mgrwt>
<rscale>  2 0.23158647E+03</rscale>
<asrwt>0</asrwt>
<pdfrwt beam="1">  1       21 0.15115798E-01 0.23158647E+03</pdfrwt>
<pdfrwt beam="2">  1       21 0.84530736E-01 0.23158647E+03</pdfrwt>
<totfact> 0.46063027E+04</totfact>
</mgrwt>
</event>
<event>
 4    1  0.3883260E+000  0.2514391E+03  0.7546771E-02  0.1112399E+00
         21   -1    0    0  503  502  0.00000000000E+00  0.00000000000E+00  0.10376436804E+04  0.10376436804E+04  0.00000000000E+00 0.  1.
         21   -1    0    0  501  503 -0.00000000000E+00 -0.00000000000E+00 -0.63856679152E+02  0.63856679152E+02  0.00000000000E+00 0.  1.
          6    1    1    2  501    0  0.17771274040E+03 -0.41362103108E+02  0.36894806812E+03  0.44647991964E+03  0.17300000000E+03 0.  1.
         -6    1    1    2    0  502 -0.17771274040E+03  0.41362103108E+02  0.60483893317E+03  0.65502043996E+03  0.17300000000E+03 0.  1.
<mgrwt>
<rscale>  2 0.25143914E+03</rscale>
<asrwt>0</asrwt>
<pdfrwt beam="1">  1       21 0.15963748E+00 0.25143914E+03</pdfrwt>
<pdfrwt beam="2">  1       21 0.98241052E-02 0.25143914E+03</pdfrwt>
<totfact> 0.20444802E+04</totfact>
</mgrwt>
</event>
<event>
 4    1  0.3883260E+000  0.1939739E+03  0.7546771E-02  0.1154925E+00
         21   -1    0    0  503  502  0.00000000000E+00  0.00000000000E+00  0.57840127030E+03  0.57840127030E+03  0.00000000000E+00 0. -1.
         21   -1    0    0  501  503 -0.00000000000E+00 -0.00000000000E+00 -0.10290421655E+03  0.10290421655E+03  0.00000000000E+00 0. -1.
          6    1    1    2  501    0  0.83642385842E+02  0.26472972363E+02  0.31142082258E+02  0.19645787402E+03  0.17300000000E+03 0. -1.
         -6    1    1    2    0  502 -0.83642385842E+02 -0.26472972363E+02  0.44435497149E+03  0.48484761283E+03  0.17300000000E+03 0. -1.
<mgrwt>
<rscale>  2 0.19397388E+03</rscale>
<asrwt>0</asrwt>
<pdfrwt beam="1">  1       21 0.88984809E-01 0.19397388E+03</pdfrwt>
<pdfrwt beam="2">  1       21 0.15831418E-01 0.19397388E+03</pdfrwt>
<totfact> 0.38316176E+04</totfact>
</mgrwt>
</event>
<event>
 4    1  0.3883260E+000  0.2323539E+03  0.7546771E-02  0.1124994E+00
         21   -1    0    0  501  502  0.00000000000E+00  0.00000000000E+00  0.17586065557E+04  0.17586065557E+04  0.00000000000E+00 0. -1.
         21   -1    0    0  502  503 -0.00000000000E+00 -0.00000000000E+00 -0.56784323643E+02  0.56784323643E+02  0.00000000000E+00 0. -1.
          6    1    1    2  501    0  0.82568809446E+02  0.13130775297E+03  0.14661161970E+04  0.14844140384E+04  0.17300000000E+03 0. -1.
         -6    1    1    2    0  503 -0.82568809446E+02 -0.13130775297E+03  0.23570603507E+03  0.33097684096E+03  0.17300000000E+03 0. -1.
<mgrwt>
<rscale>  2 0.23235390E+03</rscale>
<asrwt>0</asrwt>
<pdfrwt beam="1">  1       21 0.27055481E+00 0.23235390E+03</pdfrwt>
<pdfrwt beam="2">  1       21 0.87360511E-02 0.23235390E+03</pdfrwt>
<totfact> 0.49890310E+03</totfact>
</mgrwt>
</event>
<event>
 4    1  0.3883260E+000  0.2992366E+03  0.7546771E-02  0.1085623E+00
         21   -1    0    0  501  502  0.00000000000E+00  0.00000000000E+00  0.17092574125E+03  0.17092574125E+03  0.00000000000E+00 0.  1.
         21   -1    0    0  502  503 -0.00000000000E+00 -0.00000000000E+00 -0.56289775044E+03  0.56289775044E+03  0.00000000000E+00 0. -1.
          6    1    1    2  501    0 -0.24093920437E+03  0.39520480215E+02 -0.99371269484E+02  0.31530495993E+03  0.17300000000E+03 0.  1.
         -6    1    1    2    0  503  0.24093920437E+03 -0.39520480215E+02 -0.29260073970E+03  0.41851853176E+03  0.17300000000E+03 0. -1.
<mgrwt>
<rscale>  2 0.29923664E+03</rscale>
<asrwt>0</asrwt>
<pdfrwt beam="1">  1       21 0.26296268E-01 0.29923664E+03</pdfrwt>
<pdfrwt beam="2">  1       21 0.86599654E-01 0.29923664E+03</pdfrwt>
<totfact> 0.14917238E+04</totfact>
</mgrwt>
</event>
<event>
 4    1  0.3883260E+000  0.2753819E+03  0.7546771E-02  0.1098238E+00
         21   -1    0    0  501  502  0.00000000000E+00  0.00000000000E+00  0.18615048129E+03  0.18615048129E+03  0.00000000000E+00 0. -1.
         21   -1    0    0  502  503 -0.00000000000E+00 -0.00000000000E+00 -0.44753366954E+03  0.44753366954E+03  0.00000000000E+00 0. -1.
          6    1    1    2  501    0  0.83255059376E+02 -0.19742031082E+03 -0.35793449836E+02  0.27769831668E+03  0.17300000000E+03 0. -1.
         -6    1    1    2    0  503 -0.83255059376E+02  0.19742031082E+03 -0.22558973842E+03  0.35598583415E+03  0.17300000000E+03 0. -1.
<mgrwt>
<rscale>  2 0.27538189E+03</rscale>
<asrwt>0</asrwt>
<pdfrwt beam="1">  1       21 0.28638536E-01 0.27538189E+03</pdfrwt>
<pdfrwt beam="2">  1       21 0.68851333E-01 0.27538189E+03</pdfrwt>
<totfact> 0.21480432E+04</totfact>
</mgrwt>
</event>
<event>
 4    1  0.3883260E+000  0.1896356E+03  0.7546771E-02  0.1158790E+00
         21   -1    0    0  501  502  0.00000000000E+00  0.00000000000E+00  0.29779240832E+03  0.29779240832E+03  0.00000000000E+00 0.  1.
         21   -1    0    0  502  503 -0.00000000000E+00 -0.00000000000E+00 -0.13021028236E+03  0.13021028236E+03  0.00000000000E+00 0. -1.
          6    1    1    2  501    0  0.57452448176E+00  0.77668098058E+02  0.14144072781E+03  0.23657375809E+03  0.17300000000E+03 0.  1.
         -6    1    1    2    0  503 -0.57452448176E+00 -0.77668098058E+02  0.26141398159E+02  0.19142893259E+03  0.17300000000E+03 0. -1.
<mgrwt>
<rscale>  2 0.18963561E+03</rscale>
<asrwt>0</asrwt>
<pdfrwt beam="1">  1       21 0.45814216E-01 0.18963561E+03</pdfrwt>
<pdfrwt beam="2">  1       21 0.20032351E-01 0.18963561E+03</pdfrwt>
<totfact> 0.10522490E+05</totfact>
</mgrwt>
</event>
<event>
 4    1  0.3883260E+000  0.1760160E+03  0.7546771E-02  0.1171715E+00
         21   -1    0    0  501  502  0.00000000000E+00  0.00000000000E+00  0.12548183131E+03  0.12548183131E+03  0.00000000000E+00 0. -1.
         21   -1    0    0  502  503 -0.00000000000E+00 -0.00000000000E+00 -0.30296112615E+03  0.30296112615E+03  0.00000000000E+00 0. -1.
          6    1    1    2  501    0 -0.32441289079E+02  0.42455605735E+00  0.34104365275E+01  0.17604899478E+03  0.17300000000E+03 0. -1.
         -6    1    1    2    0  503  0.32441289079E+02 -0.42455605735E+00 -0.18088973137E+03  0.25239396268E+03  0.17300000000E+03 0. -1.
<mgrwt>
<rscale>  2 0.17601596E+03</rscale>
<asrwt>0</asrwt>
<pdfrwt beam="1">  1       21 0.19304897E-01 0.17601596E+03</pdfrwt>
<pdfrwt beam="2">  1       21 0.46609404E-01 0.17601596E+03</pdfrwt>
<totfact> 0.10935604E+05</totfact>
</mgrwt>
</event>
<event>
 4    1  0.3883260E+000  0.1797673E+03  0.7546771E-02  0.1168028E+00
         21   -1    0    0  501  502  0.00000000000E+00  0.00000000000E+00  0.46004993423E+02  0.46004993423E+02  0.00000000000E+00 0. -1.
         21   -1    0    0  502  503 -0.00000000000E+00 -0.00000000000E+00 -0.96617530329E+03  0.96617530329E+03  0.00000000000E+00 0. -1.
          6    1    1    2  501    0 -0.45550856018E+02  0.17674914591E+02 -0.19567723056E+03  0.26571763519E+03  0.17300000000E+03 0. -1.
         -6    1    1    2    0  503  0.45550856018E+02 -0.17674914591E+02 -0.72449307930E+03  0.74646266152E+03  0.17300000000E+03 0. -1.
<mgrwt>
<rscale>  2 0.17976730E+03</rscale>
<asrwt>0</asrwt>
<pdfrwt beam="1">  1       21 0.70776924E-02 0.17976730E+03</pdfrwt>
<pdfrwt beam="2">  1       21 0.14864233E+00 0.17976730E+03</pdfrwt>
<totfact> 0.45768336E+04</totfact>
</mgrwt>
</event>
<event>
 4    1  0.3883260E+000  0.1925618E+03  0.7546771E-02  0.1156171E+00
         21   -1    0    0  503  502  0.00000000000E+00  0.00000000000E+00  0.79310143414E+03  0.79310143414E+03  0.00000000000E+00 0. -1.
         21   -1    0    0  501  503 -0.00000000000E+00 -0.00000000000E+00 -0.64613255320E+02  0.64613255320E+02  0.00000000000E+00 0. -1.
          6    1    1    2  501    0 -0.74545300625E+02  0.39925384660E+02  0.13877172699E+03  0.23735549372E+03  0.17300000000E+03 0. -1.
         -6    1    1    2    0  502  0.74545300625E+02 -0.39925384660E+02  0.58971645183E+03  0.62035919574E+03  0.17300000000E+03 0. -1.
<mgrwt>
<rscale>  2 0.19256178E+03</rscale>
<asrwt>0</asrwt>
<pdfrwt beam="1">  1       21 0.12201560E+00 0.19256178E+03</pdfrwt>
<pdfrwt beam="2">  1       21 0.99405014E-02 0.19256178E+03</pdfrwt>
<totfact> 0.41554756E+04</totfact>
</mgrwt>
</event>
<event>
 4    1  0.3883260E+000  0.2082713E+03  0.7546771E-02  0.1142942E+00
         21   -1    0    0  503  502  0.00000000000E+00  0.00000000000E+00  0.24095825139E+02  0.24095825139E+02  0.00000000000E+00 0.  1.
         21   -1    0    0  501  503 -0.00000000000E+00 -0.00000000000E+00 -0.18007247573E+04  0.18007247573E+04  0.00000000000E+00 0. -1.
          6    1    1    2  501    0 -0.11593038622E+03 -0.28436892572E+01 -0.87251659856E+03  0.89702962926E+03  0.17300000000E+03 0. -1.
         -6    1    1    2    0  502  0.11593038622E+03  0.28436892572E+01 -0.90411233358E+03  0.92779095315E+03  0.17300000000E+03 0. -1.
<mgrwt>
<rscale>  2 0.20827132E+03</rscale>
<asrwt>0</asrwt>
<pdfrwt beam="1">  1       21 0.37070491E-02 0.20827132E+03</pdfrwt>
<pdfrwt beam="2">  1       21 0.27703465E+00 0.20827132E+03</pdfrwt>
<totfact> 0.20308484E+04</totfact>
</mgrwt>
</event>
<event>
 4    1  0.3883260E+000  0.1979989E+03  0.7546771E-02  0.1151438E+00
         21   -1    0    0  501  502  0.00000000000E+00  0.00000000000E+00  0.20294054314E+03  0.20294054314E+03  0.00000000000E+00 0.  1.
         21   -1    0    0  502  503 -0.00000000000E+00 -0.00000000000E+00 -0.40526121899E+03  0.40526121899E+03  0.00000000000E+00 0. -1.
          6    1    1    2  501    0  0.16018057403E+02  0.94962999771E+02  0.11883010124E+03  0.23092020797E+03  0.17300000000E+03 0.  1.
         -6    1    1    2    0  503 -0.16018057403E+02 -0.94962999771E+02 -0.32115077708E+03  0.37728155416E+03  0.17300000000E+03 0. -1.
<mgrwt>
<rscale>  2 0.19799886E+03</rscale>
<asrwt>0</asrwt>
<pdfrwt beam="1">  1       21 0.31221623E-01 0.19799886E+03</pdfrwt>
<pdfrwt beam="2">  1       21 0.62347879E-01 0.19799886E+03</pdfrwt>
<totfact> 0.23441076E+04</totfact>
</mgrwt>
</event>
<event>
 4    1  0.3883260E+000  0.2053096E+03  0.7546771E-02  0.1145335E+00
         21   -1    0    0  503  502  0.00000000000E+00  0.00000000000E+00  0.13615378167E+03  0.13615378167E+03  0.00000000000E+00 0. -1.
         21   -1    0    0  501  503 -0.00000000000E+00 -0.00000000000E+00 -0.30959270458E+03  0.30959270458E+03  0.00000000000E+00 0.  1.
          6    1    1    2  501    0 -0.41320194369E+02 -0.10254590300E+03 -0.87201056615E+02  0.22306063068E+03  0.17300000000E+03 0. -1.
         -6    1    1    2    0  502  0.41320194369E+02  0.10254590300E+03 -0.86237866295E+02  0.22268585556E+03  0.17300000000E+03 0. -1.
<mgrwt>
<rscale>  2 0.20530957E+03</rscale>
<asrwt>0</asrwt>
<pdfrwt beam="1">  1       21 0.20946736E-01 0.20530957E+03</pdfrwt>
<pdfrwt beam="2">  1       21 0.47629646E-01 0.20530957E+03</pdfrwt>
<totfact> 0.88754540E+04</totfact>
</mgrwt>
</event>
<event>
 4    1  0.3883260E+000  0.1795406E+03  0.7546771E-02  0.1168248E+00
         21   -1    0    0  501  502  0.00000000000E+00  0.00000000000E+00  0.71255008910E+02  0.71255008910E+02  0.00000000000E+00 0.  1.
         21   -1    0    0  502  503 -0.00000000000E+00 -0.00000000000E+00 -0.50553903687E+03  0.50553903687E+03  0.00000000000E+00 0.  1.
          6    1    1    2  501    0 -0.32050395981E+02 -0.35757309817E+02 -0.12362838581E+03  0.21798805212E+03  0.17300000000E+03 0.  1.
         -6    1    1    2    0  503  0.32050395981E+02  0.35757309817E+02 -0.31065564215E+03  0.35880599366E+03  0.17300000000E+03 0.  1.
<mgrwt>
<rscale>  2 0.17954056E+03</rscale>
<asrwt>0</asrwt>
<pdfrwt beam="1">  1       21 0.10962309E-01 0.17954056E+03</pdfrwt>
<pdfrwt beam="2">  1       21 0.77775240E-01 0.17954056E+03</pdfrwt>
<totfact> 0.10157858E+05</totfact>
</mgrwt>
</event>
<event>
 4    1  0.3883260E+000  0.2460225E+03  0.7546771E-02  0.1115845E+00
         21   -1    0    0  501  502  0.00000000000E+00  0.00000000000E+00  0.17121146444E+03  0.17121146444E+03  0.00000000000E+00 0.  1.
         21   -1    0    0  502  503 -0.00000000000E+00 -0.00000000000E+00 -0.55178384076E+03  0.55178384076E+03  0.00000000000E+00 0.  1.
          6    1    1    2  501    0 -0.11426950504E+03  0.13244071418E+03  0.26404517143E+02  0.24743536748E+03  0.17300000000E+03 0.  1.
         -6    1    1    2    0  503  0.11426950504E+03 -0.13244071418E+03 -0.40697689346E+03  0.47555993772E+03  0.17300000000E+03 0.  1.
<mgrwt>
<rscale>  2 0.24602248E+03</rscale>
<asrwt>0</asrwt>
<pdfrwt beam="1">  1       21 0.26340225E-01 0.24602248E+03</pdfrwt>
<pdfrwt beam="2">  1       21 0.84889823E-01 0.24602248E+03</pdfrwt>
<totfact> 0.15966213E+04</totfact>
</mgrwt>
</event>
<event>
 4    1  0.3883260E+000  0.2182041E+03  0.7546771E-02  0.1135229E+00
         21   -1    0    0  501  502  0.00000000000E+00  0.00000000000E+00  0.18846958015E+03  0.18846958015E+03  0.00000000000E+00 0.  1.
         21   -1    0    0  502  503 -0.00000000000E+00 -0.00000000000E+00 -0.35502191166E+03  0.35502191166E+03  0.00000000000E+00 0. -1.
          6    1    1    2  501    0  0.73682093697E+02  0.11070227209E+03  0.62661801866E+02  0.22702322654E+03  0.17300000000E+03 0.  1.
         -6    1    1    2    0  503 -0.73682093697E+02 -0.11070227209E+03 -0.22921413338E+03  0.31646826526E+03  0.17300000000E+03 0.  1.
<mgrwt>
<rscale>  2 0.21820413E+03</rscale>
<asrwt>0</asrwt>
<pdfrwt beam="1">  1       21 0.28995320E-01 0.21820413E+03</pdfrwt>
<pdfrwt beam="2">  1       21 0.54618755E-01 0.21820413E+03</pdfrwt>
<totfact> 0.35568844E+04</totfact>
</mgrwt>
</event>
<event>
 4    1  0.3883260E+000  0.2896573E+03  0.7546771E-02  0.1090528E+00
         21   -1    0    0  503  502  0.00000000000E+00  0.00000000000E+00  0.92031712316E+02  0.92031712316E+02  0.00000000000E+00 0.  1.
         21   -1    0    0  501  503 -0.00000000000E+00 -0.00000000000E+00 -0.97104198316E+03  0.97104198316E+03  0.00000000000E+00 0. -1.
          6    1    1    2  501    0  0.14652150846E+03  0.18028802606E+03 -0.57095310519E+03  0.64022556424E+03  0.17300000000E+03 0. -1.
         -6    1    1    2    0  502 -0.14652150846E+03 -0.18028802606E+03 -0.30805716566E+03  0.42284813124E+03  0.17300000000E+03 0.  1.
<mgrwt>
<rscale>  2 0.28965725E+03</rscale>
<asrwt>0</asrwt>
<pdfrwt beam="1">  1       21 0.14158725E-01 0.28965725E+03</pdfrwt>
<pdfrwt beam="2">  1       21 0.14939107E+00 0.28965725E+03</pdfrwt>
<totfact> 0.12407065E+04</totfact>
</mgrwt>
</event>
<event>
 4    1  0.3883260E+000  0.1811289E+03  0.7546771E-02  0.1166715E+00
         21   -1    0    0  503  502  0.00000000000E+00  0.00000000000E+00  0.44988957890E+03  0.44988957890E+03  0.00000000000E+00 0.  1.
         21   -1    0    0  501  503 -0.00000000000E+00 -0.00000000000E+00 -0.31603282279E+03  0.31603282279E+03  0.00000000000E+00 0.  1.
          6    1    1    2  501    0  0.18662959159E+02  0.50302978752E+02 -0.26895548887E+03  0.32426031319E+03  0.17300000000E+03 0.  1.
         -6    1    1    2    0  502 -0.18662959159E+02 -0.50302978752E+02  0.40281224498E+03  0.44166208850E+03  0.17300000000E+03 0.  1.
<mgrwt>
<rscale>  2 0.18112895E+03</rscale>
<asrwt>0</asrwt>
<pdfrwt beam="1">  1       21 0.69213782E-01 0.18112895E+03</pdfrwt>
<pdfrwt beam="2">  1       21 0.48620434E-01 0.18112895E+03</pdfrwt>
<totfact> 0.77369208E+03</totfact>
</mgrwt>
</event>
<event>
 4    1  0.3883260E+000  0.3048805E+03  0.7546771E-02  0.1082826E+00
         21   -1    0    0  501  502  0.00000000000E+00  0.00000000000E+00  0.16524091832E+04  0.16524091832E+04  0.00000000000E+00 0.  1.
         21   -1    0    0  502  503 -0.00000000000E+00 -0.00000000000E+00 -0.10342438252E+03  0.10342438252E+03  0.00000000000E+00 0.  1.
          6    1    1    2  501    0 -0.20785079926E+02 -0.25018208399E+03  0.13673953821E+04  0.14009718861E+04  0.17300000000E+03 0.  1.
         -6    1    1    2    0  503  0.20785079926E+02  0.25018208399E+03  0.18158941855E+03  0.35486167957E+03  0.17300000000E+03 0.  1.
<mgrwt>
<rscale>  2 0.30488046E+03</rscale>
<asrwt>0</asrwt>
<pdfrwt beam="1">  1       21 0.25421678E+00 0.30488046E+03</pdfrwt>
<pdfrwt beam="2">  1       21 0.15911445E-01 0.30488046E+03</pdfrwt>
<totfact> 0.19968222E+03</totfact>
</mgrwt>
</event>
<event>
 4    1  0.3883260E+000  0.1957356E+03  0.7546771E-02  0.1153388E+00
         21   -1    0    0  503  502  0.00000000000E+00  0.00000000000E+00  0.70662797752E+02  0.70662797752E+02  0.00000000000E+00 0. -1.
         21   -1    0    0  501  503 -0.00000000000E+00 -0.00000000000E+00 -0.10940822679E+04  0.10940822679E+04  0.00000000000E+00 0.  1.
          6    1    1    2  501    0  0.91501364476E+02 -0.33082907453E+01 -0.92533233638E+03  0.94580779085E+03  0.17300000000E+03 0.  1.
         -6    1    1    2    0  502 -0.91501364476E+02  0.33082907453E+01 -0.98087133780E+02  0.21893727481E+03  0.17300000000E+03 0. -1.
<mgrwt>
<rscale>  2 0.19573565E+03</rscale>
<asrwt>0</asrwt>
<pdfrwt beam="1">  1       21 0.10871200E-01 0.19573565E+03</pdfrwt>
<pdfrwt beam="2">  1       21 0.16832034E+00 0.19573565E+03</pdfrwt>
<totfact> 0.15311353E+04</totfact>
</mgrwt>
</event>
<event>
 4    1  0.3883260E+000  0.2040582E+03  0.7546771E-02  0.1146360E+00
         21   -1    0    0  503  502  0.00000000000E+00  0.00000000000E+00  0.10893318230E+03  0.10893318230E+03  0.00000000000E+00 0.  1.
         21   -1    0    0  501  503 -0.00000000000E+00 -0.00000000000E+00 -0.57395948709E+03  0.57395948709E+03  0.00000000000E+00 0.  1.
          6    1    1    2  501    0 -0.55451073320E+02 -0.92929766185E+02 -0.42984767818E+03  0.47582432621E+03  0.17300000000E+03 0.  1.
         -6    1    1    2    0  502  0.55451073320E+02  0.92929766185E+02 -0.35178626601E+02  0.20706834317E+03  0.17300000000E+03 0.  1.
<mgrwt>
<rscale>  2 0.20405823E+03</rscale>
<asrwt>0</asrwt>
<pdfrwt beam="1">  1       21 0.16758951E-01 0.20405823E+03</pdfrwt>
<pdfrwt beam="2">  1       21 0.88301460E-01 0.20405823E+03</pdfrwt>
<totfact> 0.34942486E+04</totfact>
</mgrwt>
</event>
<event>
 4    1  0.3883260E+000  0.1906896E+03  0.7546771E-02  0.1157841E+00
         21   -1    0    0  503  502  0.00000000000E+00  0.00000000000E+00  0.96935203581E+02  0.96935203581E+02  0.00000000000E+00 0.  1.
         21   -1    0    0  501  503 -0.00000000000E+00 -0.00000000000E+00 -0.37756338778E+03  0.37756338778E+03  0.00000000000E+00 0.  1.
          6    1    1    2  501    0  0.17281847683E+02 -0.78325418700E+02 -0.15939165259E+03  0.24853215565E+03  0.17300000000E+03 0.  1.
         -6    1    1    2    0  502 -0.17281847683E+02  0.78325418700E+02 -0.12123653161E+03  0.22596643571E+03  0.17300000000E+03 0.  1.
<mgrwt>
<rscale>  2 0.19068963E+03</rscale>
<asrwt>0</asrwt>
<pdfrwt beam="1">  1       21 0.14913108E-01 0.19068963E+03</pdfrwt>
<pdfrwt beam="2">  1       21 0.58086675E-01 0.19068963E+03</pdfrwt>
<totfact> 0.11019556E+05</totfact>
</mgrwt>
</event>
<event>
 4    1  0.3883260E+000  0.2046159E+03  0.7546771E-02  0.1145902E+00
         21   -1    0    0  503  502  0.00000000000E+00  0.00000000000E+00  0.19758648262E+04  0.19758648262E+04  0.00000000000E+00 0.  1.
         21   -1    0    0  501  503 -0.00000000000E+00 -0.00000000000E+00 -0.24972433312E+02  0.24972433312E+02  0.00000000000E+00 0.  1.
          6    1    1    2  501    0  0.77667341659E+02  0.76853562080E+02  0.58607589047E+03  0.62076777893E+03  0.17300000000E+03 0.  1.
         -6    1    1    2    0  502 -0.77667341659E+02 -0.76853562080E+02  0.13648165024E+04  0.13800694805E+04  0.17300000000E+03 0.  1.
<mgrwt>
<rscale>  2 0.20461595E+03</rscale>
<asrwt>0</asrwt>
<pdfrwt beam="1">  1       21 0.30397908E+00 0.20461595E+03</pdfrwt>
<pdfrwt beam="2">  1       21 0.38419144E-02 0.20461595E+03</pdfrwt>
<totfact> 0.13409569E+04</totfact>
</mgrwt>
</event>
<event>
 4    1  0.3883260E+000  0.1811920E+03  0.7546771E-02  0.1166654E+00
         21   -1    0    0  503  502  0.00000000000E+00  0.00000000000E+00  0.10343138596E+03  0.10343138596E+03  0.00000000000E+00 0. -1.
         21   -1    0    0  501  503 -0.00000000000E+00 -0.00000000000E+00 -0.44809240334E+03  0.44809240334E+03  0.00000000000E+00 0. -1.
          6    1    1    2  501    0  0.53704435097E+01 -0.53597557767E+02 -0.32125045011E+03  0.36882569265E+03  0.17300000000E+03 0. -1.
         -6    1    1    2    0  502 -0.53704435097E+01  0.53597557767E+02 -0.23410567274E+02  0.18269809666E+03  0.17300000000E+03 0. -1.
<mgrwt>
<rscale>  2 0.18119200E+03</rscale>
<asrwt>0</asrwt>
<pdfrwt beam="1">  1       21 0.15912521E-01 0.18119200E+03</pdfrwt>
<pdfrwt beam="2">  1       21 0.68937293E-01 0.18119200E+03</pdfrwt>
<totfact> 0.67833606E+04</totfact>
</mgrwt>
</event>
<event>
 4    1  0.3883260E+000  0.1871756E+03  0.7546771E-02  0.1161034E+00
         21   -1    0    0  501  502  0.00000000000E+00  0.00000000000E+00  0.51240918357E+02  0.51240918357E+02  0.00000000000E+00 0. -1.
         21   -1    0    0  502  503 -0.00000000000E+00 -0.00000000000E+00 -0.80013938967E+03  0.80013938967E+03  0.00000000000E+00 0. -1.
          6    1    1    2  501    0 -0.62469153922E+02 -0.34688535669E+02 -0.21207602618E+03  0.28286203453E+03  0.17300000000E+03 0. -1.
         -6    1    1    2    0  503  0.62469153922E+02  0.34688535669E+02 -0.53682244514E+03  0.56851827350E+03  0.17300000000E+03 0. -1.
<mgrwt>
<rscale>  2 0.18717556E+03</rscale>
<asrwt>0</asrwt>
<pdfrwt beam="1">  1       21 0.78832186E-02 0.18717556E+03</pdfrwt>
<pdfrwt beam="2">  1       21 0.12309836E+00 0.18717556E+03</pdfrwt>
<totfact> 0.61186422E+04</totfact>
</mgrwt>
</event>
<event>
 4    1  0.3883260E+000  0.2219998E+03  0.7546771E-02  0.1132401E+00
         21   -1    0    0  503  502  0.00000000000E+00  0.00000000000E+00  0.25294905567E+03  0.25294905567E+03  0.00000000000E+00 0.  1.
         21   -1    0    0  501  503 -0.00000000000E+00 -0.00000000000E+00 -0.21409357735E+03  0.21409357735E+03  0.00000000000E+00 0.  1.
          6    1    1    2  501    0 -0.44009624066E+02  0.13197750961E+03 -0.50606581662E+02  0.22769483121E+03  0.17300000000E+03 0.  1.
         -6    1    1    2    0  502  0.44009624066E+02 -0.13197750961E+03  0.89462059988E+02  0.23934780181E+03  0.17300000000E+03 0.  1.
<mgrwt>
<rscale>  2 0.22199980E+03</rscale>
<asrwt>0</asrwt>
<pdfrwt beam="1">  1       21 0.38915239E-01 0.22199980E+03</pdfrwt>
<pdfrwt beam="2">  1       21 0.32937474E-01 0.22199980E+03</pdfrwt>
<totfact> 0.55742711E+04</totfact>
</mgrwt>
</event>
<event>
 4    1  0.3883260E+000  0.1736138E+03  0.7546771E-02  0.1174131E+00
         21   -1    0    0  503  502  0.00000000000E+00  0.00000000000E+00  0.10546666777E+04  0.10546666777E+04  0.00000000000E+00 0.  1.
         21   -1    0    0  501  503 -0.00000000000E+00 -0.00000000000E+00 -0.19115798715E+03  0.19115798715E+03  0.00000000000E+00 0.  1.
          6    1    1    2  501    0  0.48776967921E+01  0.13745884053E+02 -0.14270907118E+03  0.22473900474E+03  0.17300000000E+03 0.  1.
         -6    1    1    2    0  502 -0.48776967921E+01 -0.13745884053E+02  0.10062177617E+04  0.10210856601E+04  0.17300000000E+03 0.  1.
<mgrwt>
<rscale>  2 0.17361377E+03</rscale>
<asrwt>0</asrwt>
<pdfrwt beam="1">  1       21 0.16225641E+00 0.17361377E+03</pdfrwt>
<pdfrwt beam="2">  1       21 0.29408922E-01 0.17361377E+03</pdfrwt>
<totfact> 0.27347486E+03</totfact>
</mgrwt>
</event>
<event>
 4    1  0.3883260E+000  0.2012077E+03  0.7546771E-02  0.1148724E+00
         21   -1    0    0  503  502  0.00000000000E+00  0.00000000000E+00  0.14645976289E+03  0.14645976289E+03  0.00000000000E+00 0. -1.
         21   -1    0    0  501  503 -0.00000000000E+00 -0.00000000000E+00 -0.29723669770E+03  0.29723669770E+03  0.00000000000E+00 0. -1.
          6    1    1    2  501    0  0.10020420182E+03  0.22685709534E+02 -0.13409716190E+03  0.24179861933E+03  0.17300000000E+03 0. -1.
         -6    1    1    2    0  502 -0.10020420182E+03 -0.22685709534E+02 -0.16679772912E+02  0.20189784126E+03  0.17300000000E+03 0. -1.
<mgrwt>
<rscale>  2 0.20120766E+03</rscale>
<asrwt>0</asrwt>
<pdfrwt beam="1">  1       21 0.22532272E-01 0.20120766E+03</pdfrwt>
<pdfrwt beam="2">  1       21 0.45728722E-01 0.20120766E+03</pdfrwt>
<totfact> 0.84288311E+04</totfact>
</mgrwt>
</event>
<event>
 4    1  0.3883260E+000  0.1936751E+03  0.7546771E-02  0.1155188E+00
         21   -1    0    0  503  502  0.00000000000E+00  0.00000000000E+00  0.11336413623E+03  0.11336413623E+03  0.00000000000E+00 0. -1.
         21   -1    0    0  501  503 -0.00000000000E+00 -0.00000000000E+00 -0.38156580245E+03  0.38156580245E+03  0.00000000000E+00 0. -1.
          6    1    1    2  501    0 -0.85706204835E+02 -0.15345252574E+02 -0.22429287213E+03  0.29633987719E+03  0.17300000000E+03 0. -1.
         -6    1    1    2    0  502  0.85706204835E+02  0.15345252574E+02 -0.43908794087E+02  0.19859006149E+03  0.17300000000E+03 0. -1.
<mgrwt>
<rscale>  2 0.19367506E+03</rscale>
<asrwt>0</asrwt>
<pdfrwt beam="1">  1       21 0.17440636E-01 0.19367506E+03</pdfrwt>
<pdfrwt beam="2">  1       21 0.58702432E-01 0.19367506E+03</pdfrwt>
<totfact> 0.80785722E+04</totfact>
</mgrwt>
</event>
<event>
 4    1  0.3883260E+000  0.2196138E+03  0.7546771E-02  0.1134171E+00
         21   -1    0    0  503  502  0.00000000000E+00  0.00000000000E+00  0.84277957654E+03  0.84277957654E+03  0.00000000000E+00 0. -1.
         21   -1    0    0  501  503 -0.00000000000E+00 -0.00000000000E+00 -0.64041613287E+02  0.64041613287E+02  0.00000000000E+00 0.  1.
          6    1    1    2  501    0 -0.10647646975E+03  0.83450527667E+02  0.24147077704E+03  0.32640215278E+03  0.17300000000E+03 0.  1.
         -6    1    1    2    0  502  0.10647646975E+03 -0.83450527667E+02  0.53726718621E+03  0.58041903704E+03  0.17300000000E+03 0. -1.
<mgrwt>
<rscale>  2 0.21961382E+03</rscale>
<asrwt>0</asrwt>
<pdfrwt beam="1">  1       21 0.12965839E+00 0.21961382E+03</pdfrwt>
<pdfrwt beam="2">  1       21 0.98525565E-02 0.21961382E+03</pdfrwt>
<totfact> 0.35699951E+04</totfact>
</mgrwt>
</event>
<event>
 4    1  0.3883260E+000  0.1764409E+03  0.7546771E-02  0.1171293E+00
         21   -1    0    0  501  502  0.00000000000E+00  0.00000000000E+00  0.27594778029E+03  0.27594778029E+03  0.00000000000E+00 0. -1.
         21   -1    0    0  502  503 -0.00000000000E+00 -0.00000000000E+00 -0.11576413380E+03  0.11576413380E+03  0.00000000000E+00 0. -1.
          6    1    1    2  501    0  0.25827007520E+02 -0.23137717901E+02  0.11134588096E+03  0.20863675015E+03  0.17300000000E+03 0.  1.
         -6    1    1    2    0  503 -0.25827007520E+02  0.23137717901E+02  0.48837765525E+02  0.18307516393E+03  0.17300000000E+03 0.  1.
<mgrwt>
<rscale>  2 0.17644089E+03</rscale>
<asrwt>0</asrwt>
<pdfrwt beam="1">  1       21 0.42453504E-01 0.17644089E+03</pdfrwt>
<pdfrwt beam="2">  1       21 0.17809867E-01 0.17644089E+03</pdfrwt>
<totfact> 0.15364464E+05</totfact>
</mgrwt>
</event>
<event>
 4    1  0.3883260E+000  0.1737502E+03  0.7546771E-02  0.1173992E+00
         21   -1    0    0  501  502  0.00000000000E+00  0.00000000000E+00  0.42822649474E+02  0.42822649474E+02  0.00000000000E+00 0.  1.
         21   -1    0    0  502  503 -0.00000000000E+00 -0.00000000000E+00 -0.73001171632E+03  0.73001171632E+03  0.00000000000E+00 0.  1.
          6    1    1    2  501    0  0.51555547369E+01  0.15282090282E+02 -0.27204040743E+03  0.32279266612E+03  0.17300000000E+03 0.  1.
         -6    1    1    2    0  503 -0.51555547369E+01 -0.15282090282E+02 -0.41514865942E+03  0.45004169968E+03  0.17300000000E+03 0.  1.
<mgrwt>
<rscale>  2 0.17375017E+03</rscale>
<asrwt>0</asrwt>
<pdfrwt beam="1">  1       21 0.65880999E-02 0.17375017E+03</pdfrwt>
<pdfrwt beam="2">  1       21 0.11230949E+00 0.17375017E+03</pdfrwt>
<totfact> 0.10513139E+05</totfact>
</mgrwt>
</event>
<event>
 4    1  0.3883260E+000  0.2070210E+03  0.7546771E-02  0.1143947E+00
         21   -1    0    0  503  502  0.00000000000E+00  0.00000000000E+00  0.12992814946E+04  0.12992814946E+04  0.00000000000E+00 0.  1.
         21   -1    0    0  501  503 -0.00000000000E+00 -0.00000000000E+00 -0.64856867541E+02  0.64856867541E+02  0.00000000000E+00 0. -1.
          6    1    1    2  501    0 -0.11369984577E+03 -0.10258213449E+01  0.13907851870E+03  0.24940036408E+03  0.17300000000E+03 0. -1.
         -6    1    1    2    0  502  0.11369984577E+03  0.10258213449E+01  0.10953461084E+04  0.11147379981E+04  0.17300000000E+03 0. -1.
<mgrwt>
<rscale>  2 0.20702103E+03</rscale>
<asrwt>0</asrwt>
<pdfrwt beam="1">  1       21 0.19988944E+00 0.20702103E+03</pdfrwt>
<pdfrwt beam="2">  1       21 0.99779806E-02 0.20702103E+03</pdfrwt>
<totfact> 0.10827204E+04</totfact>
</mgrwt>
</event>
<event>
 4    1  0.3883260E+000  0.1843070E+03  0.7546771E-02  0.1163699E+00
         21   -1    0    0  503  502  0.00000000000E+00  0.00000000000E+00  0.12138173889E+03  0.12138173889E+03  0.00000000000E+00 0.  1.
         21   -1    0    0  501  503 -0.00000000000E+00 -0.00000000000E+00 -0.43053971776E+03  0.43053971776E+03  0.00000000000E+00 0.  1.
          6    1    1    2  501    0 -0.29538633943E+02  0.56280770450E+02 -0.31783832056E+03  0.36741019860E+03  0.17300000000E+03 0.  1.
         -6    1    1    2    0  502  0.29538633943E+02 -0.56280770450E+02  0.86803416949E+01  0.18451125806E+03  0.17300000000E+03 0.  1.
<mgrwt>
<rscale>  2 0.18430696E+03</rscale>
<asrwt>0</asrwt>
<pdfrwt beam="1">  1       21 0.18674114E-01 0.18430696E+03</pdfrwt>
<pdfrwt beam="2">  1       21 0.66236880E-01 0.18430696E+03</pdfrwt>
<totfact> 0.55073377E+04</totfact>
</mgrwt>
</event>
<event>
 4    1  0.3883260E+000  0.1800506E+03  0.7546771E-02  0.1167754E+00
         21   -1    0    0  501  502  0.00000000000E+00  0.00000000000E+00  0.38415504552E+02  0.38415504552E+02  0.00000000000E+00 0. -1.
         21   -1    0    0  502  503 -0.00000000000E+00 -0.00000000000E+00 -0.10062375472E+04  0.10062375472E+04  0.00000000000E+00 0. -1.
          6    1    1    2  501    0 -0.49671813655E+02 -0.46841665838E+01 -0.27410271219E+03  0.32794897060E+03  0.17300000000E+03 0. -1.
         -6    1    1    2    0  503  0.49671813655E+02  0.46841665838E+01 -0.69371933048E+03  0.71670408117E+03  0.17300000000E+03 0. -1.
<mgrwt>
<rscale>  2 0.18005063E+03</rscale>
<asrwt>0</asrwt>
<pdfrwt beam="1">  1       21 0.59100784E-02 0.18005063E+03</pdfrwt>
<pdfrwt beam="2">  1       21 0.15480576E+00 0.18005063E+03</pdfrwt>
<totfact> 0.56032636E+04</totfact>
</mgrwt>
</event>
<event>
 4    1  0.3883260E+000  0.1841666E+03  0.7546771E-02  0.1163830E+00
         21   -1    0    0  501  502  0.00000000000E+00  0.00000000000E+00  0.32952330424E+03  0.32952330424E+03  0.00000000000E+00 0. -1.
         21   -1    0    0  502  503 -0.00000000000E+00 -0.00000000000E+00 -0.12795442190E+03  0.12795442190E+03  0.00000000000E+00 0. -1.
          6    1    1    2  501    0 -0.56762977450E+02 -0.27682167412E+02  0.20194410757E+03  0.27331073997E+03  0.17300000000E+03 0. -1.
         -6    1    1    2    0  503  0.56762977450E+02  0.27682167412E+02 -0.37522523445E+00  0.18416698617E+03  0.17300000000E+03 0. -1.
<mgrwt>
<rscale>  2 0.18416660E+03</rscale>
<asrwt>0</asrwt>
<pdfrwt beam="1">  1       21 0.50695893E-01 0.18416660E+03</pdfrwt>
<pdfrwt beam="2">  1       21 0.19685296E-01 0.18416660E+03</pdfrwt>
<totfact> 0.88317110E+04</totfact>
</mgrwt>
</event>
<event>
 4    1  0.3883260E+000  0.1772900E+03  0.7546771E-02  0.1170452E+00
         21   -1    0    0  503  502  0.00000000000E+00  0.00000000000E+00  0.30591726305E+03  0.30591726305E+03  0.00000000000E+00 0. -1.
         21   -1    0    0  501  503 -0.00000000000E+00 -0.00000000000E+00 -0.14594247801E+03  0.14594247801E+03  0.00000000000E+00 0. -1.
          6    1    1    2  501    0  0.33385305383E+02  0.19701539866E+02 -0.42928409023E+02  0.18241320563E+03  0.17300000000E+03 0. -1.
         -6    1    1    2    0  502 -0.33385305383E+02 -0.19701539866E+02  0.20290319406E+03  0.26944653542E+03  0.17300000000E+03 0. -1.
<mgrwt>
<rscale>  2 0.17728996E+03</rscale>
<asrwt>0</asrwt>
<pdfrwt beam="1">  1       21 0.47064194E-01 0.17728996E+03</pdfrwt>
<pdfrwt beam="2">  1       21 0.22452689E-01 0.17728996E+03</pdfrwt>
<totfact> 0.80758884E+04</totfact>
</mgrwt>
</event>
<event>
 4    1  0.3883260E+000  0.1759425E+03  0.7546771E-02  0.1171789E+00
         21   -1    0    0  503  502  0.00000000000E+00  0.00000000000E+00  0.19036114075E+03  0.19036114075E+03  0.00000000000E+00 0. -1.
         21   -1    0    0  501  503 -0.00000000000E+00 -0.00000000000E+00 -0.19865957466E+03  0.19865957466E+03  0.00000000000E+00 0. -1.
          6    1    1    2  501    0  0.23220388196E+02 -0.22081113117E+02 -0.87001041527E+02  0.19627771960E+03  0.17300000000E+03 0. -1.
         -6    1    1    2    0  502 -0.23220388196E+02  0.22081113117E+02  0.78702607618E+02  0.19274299580E+03  0.17300000000E+03 0. -1.
<mgrwt>
<rscale>  2 0.17594250E+03</rscale>
<asrwt>0</asrwt>
<pdfrwt beam="1">  1       21 0.29286329E-01 0.17594250E+03</pdfrwt>
<pdfrwt beam="2">  1       21 0.30563012E-01 0.17594250E+03</pdfrwt>
<totfact> 0.11545260E+05</totfact>
</mgrwt>
</event>
<event>
 4    1  0.3883260E+000  0.2227164E+03  0.7546771E-02  0.1131874E+00
         21   -1    0    0  503  502  0.00000000000E+00  0.00000000000E+00  0.52151154579E+02  0.52151154579E+02  0.00000000000E+00 0.  1.
         21   -1    0    0  501  503 -0.00000000000E+00 -0.00000000000E+00 -0.10553197388E+04  0.10553197388E+04  0.00000000000E+00 0.  1.
          6    1    1    2  501    0  0.14025803295E+03  0.11245179791E+01 -0.67557284002E+03  0.71133764312E+03  0.17300000000E+03 0.  1.
         -6    1    1    2    0  502 -0.14025803295E+03 -0.11245179791E+01 -0.32759574423E+03  0.39613325029E+03  0.17300000000E+03 0.  1.
<mgrwt>
<rscale>  2 0.22271637E+03</rscale>
<asrwt>0</asrwt>
<pdfrwt beam="1">  1       21 0.80232543E-02 0.22271637E+03</pdfrwt>
<pdfrwt beam="2">  1       21 0.16235689E+00 0.22271637E+03</pdfrwt>
<totfact> 0.28345954E+04</totfact>
</mgrwt>
</event>
<event>
 4    1  0.3883260E+000  0.2389074E+03  0.7546771E-02  0.1120523E+00
         21   -1    0    0  503  502  0.00000000000E+00  0.00000000000E+00  0.91627527960E+02  0.91627527960E+02  0.00000000000E+00 0. -1.
         21   -1    0    0  501  503 -0.00000000000E+00 -0.00000000000E+00 -0.77894559843E+03  0.77894559843E+03  0.00000000000E+00 0. -1.
          6    1    1    2  501    0 -0.87588589685E+02  0.13955641025E+03 -0.53847188807E+03  0.58909144191E+03  0.17300000000E+03 0. -1.
         -6    1    1    2    0  502  0.87588589685E+02 -0.13955641025E+03 -0.14884618240E+03  0.28148168449E+03  0.17300000000E+03 0. -1.
<mgrwt>
<rscale>  2 0.23890741E+03</rscale>
<asrwt>0</asrwt>
<pdfrwt beam="1">  1       21 0.14096543E-01 0.23890741E+03</pdfrwt>
<pdfrwt beam="2">  1       21 0.11983779E+00 0.23890741E+03</pdfrwt>
<totfact> 0.22652624E+04</totfact>
</mgrwt>
</event>
<event>
 4    1  0.3883260E+000  0.1911189E+03  0.7546771E-02  0.1157456E+00
         21   -1    0    0  503  502  0.00000000000E+00  0.00000000000E+00  0.83530942081E+03  0.83530942081E+03  0.00000000000E+00 0.  1.
         21   -1    0    0  501  503 -0.00000000000E+00 -0.00000000000E+00 -0.81688783240E+02  0.81688783240E+02  0.00000000000E+00 0.  1.
          6    1    1    2  501    0  0.81134018870E+02  0.38369490734E+01  0.64256666304E+02  0.20163176922E+03  0.17300000000E+03 0.  1.
         -6    1    1    2    0  502 -0.81134018870E+02 -0.38369490734E+01  0.68936397126E+03  0.71536643482E+03  0.17300000000E+03 0.  1.
<mgrwt>
<rscale>  2 0.19111895E+03</rscale>
<asrwt>0</asrwt>
<pdfrwt beam="1">  1       21 0.12850914E+00 0.19111895E+03</pdfrwt>
<pdfrwt beam="2">  1       21 0.12567506E-01 0.19111895E+03</pdfrwt>
<totfact> 0.24061811E+04</totfact>
</mgrwt>
</event>
<event>
 4    1  0.3883260E+000  0.2138140E+03  0.7546771E-02  0.1138581E+00
         21   -1    0    0  503  502  0.00000000000E+00  0.00000000000E+00  0.20794437840E+03  0.20794437840E+03  0.00000000000E+00 0. -1.
         21   -1    0    0  501  503 -0.00000000000E+00 -0.00000000000E+00 -0.79594897819E+03  0.79594897819E+03  0.00000000000E+00 0. -1.
          6    1    1    2  501    0 -0.10791131526E+03 -0.64362799598E+02 -0.72103761657E+03  0.75207158333E+03  0.17300000000E+03 0. -1.
         -6    1    1    2    0  502  0.10791131526E+03  0.64362799598E+02  0.13303301679E+03  0.25182177326E+03  0.17300000000E+03 0. -1.
<mgrwt>
<rscale>  2 0.21381399E+03</rscale>
<asrwt>0</asrwt>
<pdfrwt beam="1">  1       21 0.31991443E-01 0.21381399E+03</pdfrwt>
<pdfrwt beam="2">  1       21 0.12245369E+00 0.21381399E+03</pdfrwt>
<totfact> 0.46399302E+03</totfact>
</mgrwt>
</event>
<event>
 4    1  0.3883260E+000  0.2059727E+03  0.7546771E-02  0.1144795E+00
         21   -1    0    0  501  502  0.00000000000E+00  0.00000000000E+00  0.57610361517E+03  0.57610361517E+03  0.00000000000E+00 0.  1.
         21   -1    0    0  502  503 -0.00000000000E+00 -0.00000000000E+00 -0.42067345655E+03  0.42067345655E+03  0.00000000000E+00 0.  1.
          6    1    1    2  501    0 -0.90294193866E+01 -0.11141912195E+03  0.53038396020E+03  0.56897442508E+03  0.17300000000E+03 0.  1.
         -6    1    1    2    0  503  0.90294193866E+01  0.11141912195E+03 -0.37495380159E+03  0.42780264664E+03  0.17300000000E+03 0.  1.
<mgrwt>
<rscale>  2 0.20597270E+03</rscale>
<asrwt>0</asrwt>
<pdfrwt beam="1">  1       21 0.88631325E-01 0.20597270E+03</pdfrwt>
<pdfrwt beam="2">  1       21 0.64718993E-01 0.20597270E+03</pdfrwt>
<totfact> 0.23670204E+03</totfact>
</mgrwt>
</event>
<event>
 4    1  0.3883260E+000  0.1828432E+03  0.7546771E-02  0.1165079E+00
         21   -1    0    0  501  502  0.00000000000E+00  0.00000000000E+00  0.58670207094E+03  0.58670207094E+03  0.00000000000E+00 0. -1.
         21   -1    0    0  502  503 -0.00000000000E+00 -0.00000000000E+00 -0.65898253295E+02  0.65898253295E+02  0.00000000000E+00 0. -1.
          6    1    1    2  501    0  0.48311430637E+02 -0.34185180212E+02  0.38042498428E+03  0.42208386553E+03  0.17300000000E+03 0. -1.
         -6    1    1    2    0  503 -0.48311430637E+02  0.34185180212E+02  0.14037883336E+03  0.23051645870E+03  0.17300000000E+03 0. -1.
<mgrwt>
<rscale>  2 0.18284316E+03</rscale>
<asrwt>0</asrwt>
<pdfrwt beam="1">  1       21 0.90261854E-01 0.18284316E+03</pdfrwt>
<pdfrwt beam="2">  1       21 0.10138193E-01 0.18284316E+03</pdfrwt>
<totfact> 0.82993557E+04</totfact>
</mgrwt>
</event>
<event>
 4    1  0.3883260E+000  0.2533273E+03  0.7546771E-02  0.1111220E+00
         21   -1    0    0  501  502  0.00000000000E+00  0.00000000000E+00  0.10018786184E+03  0.10018786184E+03  0.00000000000E+00 0.  1.
         21   -1    0    0  502  503 -0.00000000000E+00 -0.00000000000E+00 -0.64675715943E+03  0.64675715943E+03  0.00000000000E+00 0.  1.
          6    1    1    2  501    0  0.21694071494E+01  0.18504321073E+03 -0.23667821792E+03  0.34668613327E+03  0.17300000000E+03 0.  1.
         -6    1    1    2    0  503 -0.21694071494E+01 -0.18504321073E+03 -0.30989107967E+03  0.40025888800E+03  0.17300000000E+03 0.  1.
<mgrwt>
<rscale>  2 0.25332725E+03</rscale>
<asrwt>0</asrwt>
<pdfrwt beam="1">  1       21 0.15413517E-01 0.25332725E+03</pdfrwt>
<pdfrwt beam="2">  1       21 0.99501102E-01 0.25332725E+03</pdfrwt>
<totfact> 0.30055292E+04</totfact>
</mgrwt>
</event>
<event>
 4    1  0.3883260E+000  0.2030418E+03  0.7546771E-02  0.1147198E+00
         21   -1    0    0  503  502  0.00000000000E+00  0.00000000000E+00  0.20505947304E+03  0.20505947304E+03  0.00000000000E+00 0.  1.
         21   -1    0    0  501  503 -0.00000000000E+00 -0.00000000000E+00 -0.20105067630E+03  0.20105067630E+03  0.00000000000E+00 0.  1.
          6    1    1    2  501    0 -0.38572967961E+02 -0.99040830085E+02  0.82711719405E+00  0.20304345349E+03  0.17300000000E+03 0. -1.
         -6    1    1    2    0  502  0.38572967961E+02  0.99040830085E+02  0.31816795423E+01  0.20306669586E+03  0.17300000000E+03 0. -1.
<mgrwt>
<rscale>  2 0.20304177E+03</rscale>
<asrwt>0</asrwt>
<pdfrwt beam="1">  1       21 0.31547611E-01 0.20304177E+03</pdfrwt>
<pdfrwt beam="2">  1       21 0.30930873E-01 0.20304177E+03</pdfrwt>
<totfact> 0.96551633E+04</totfact>
</mgrwt>
</event>
<event>
 4    1  0.3883260E+000  0.1900574E+03  0.7546771E-02  0.1158410E+00
         21   -1    0    0  503  502  0.00000000000E+00  0.00000000000E+00  0.11377478885E+04  0.11377478885E+04  0.00000000000E+00 0. -1.
         21   -1    0    0  501  503 -0.00000000000E+00 -0.00000000000E+00 -0.35543772318E+02  0.35543772318E+02  0.00000000000E+00 0. -1.
          6    1    1    2  501    0  0.13111008389E+02 -0.77594570866E+02  0.35940549074E+03  0.40656379910E+03  0.17300000000E+03 0. -1.
         -6    1    1    2    0  502 -0.13111008389E+02  0.77594570866E+02  0.74279862545E+03  0.76672786172E+03  0.17300000000E+03 0. -1.
<mgrwt>
<rscale>  2 0.19005740E+03</rscale>
<asrwt>0</asrwt>
<pdfrwt beam="1">  1       21 0.17503811E+00 0.19005740E+03</pdfrwt>
<pdfrwt beam="2">  1       21 0.54682735E-02 0.19005740E+03</pdfrwt>
<totfact> 0.45540385E+04</totfact>
</mgrwt>
</event>
<event>
 4    1  0.3883260E+000  0.2167333E+03  0.7546771E-02  0.1136342E+00
         21   -1    0    0  501  502  0.00000000000E+00  0.00000000000E+00  0.56464695004E+02  0.56464695004E+02  0.00000000000E+00 0.  1.
         21   -1    0    0  502  503 -0.00000000000E+00 -0.00000000000E+00 -0.89201631874E+03  0.89201631874E+03  0.00000000000E+00 0.  1.
          6    1    1    2  501    0 -0.12476823786E+03 -0.38434707124E+02 -0.29466806091E+03  0.36579038535E+03  0.17300000000E+03 0.  1.
         -6    1    1    2    0  503  0.12476823786E+03  0.38434707124E+02 -0.54088356282E+03  0.58269062840E+03  0.17300000000E+03 0.  1.
<mgrwt>
<rscale>  2 0.21673334E+03</rscale>
<asrwt>0</asrwt>
<pdfrwt beam="1">  1       21 0.86868769E-02 0.21673334E+03</pdfrwt>
<pdfrwt beam="2">  1       21 0.13723327E+00 0.21673334E+03</pdfrwt>
<totfact> 0.38623163E+04</totfact>
</mgrwt>
</event>
<event>
 4    1  0.3883260E+000  0.2401734E+03  0.7546771E-02  0.1119677E+00
         21   -1    0    0  501  502  0.00000000000E+00  0.00000000000E+00  0.74089736326E+03  0.74089736326E+03  0.00000000000E+00 0. -1.
         21   -1    0    0  502  503 -0.00000000000E+00 -0.00000000000E+00 -0.20872786068E+03  0.20872786068E+03  0.00000000000E+00 0.  1.
          6    1    1    2  501    0 -0.12231329252E+03  0.11310935568E+03  0.64205653877E+03  0.68550701444E+03  0.17300000000E+03 0. -1.
         -6    1    1    2    0  503  0.12231329252E+03 -0.11310935568E+03 -0.10988703619E+03  0.26411820951E+03  0.17300000000E+03 0.  1.
<mgrwt>
<rscale>  2 0.24017341E+03</rscale>
<asrwt>0</asrwt>
<pdfrwt beam="1">  1       21 0.11398421E+00 0.24017341E+03</pdfrwt>
<pdfrwt beam="2">  1       21 0.32111979E-01 0.24017341E+03</pdfrwt>
<totfact> 0.53974046E+03</totfact>
</mgrwt>
</event>
<event>
 4    1  0.3883260E+000  0.1868981E+03  0.7546771E-02  0.1161289E+00
         21   -1    0    0  503  502  0.00000000000E+00  0.00000000000E+00  0.44370532583E+03  0.44370532583E+03  0.00000000000E+00 0.  1.
         21   -1    0    0  501  503 -0.00000000000E+00 -0.00000000000E+00 -0.85257556060E+02  0.85257556060E+02  0.00000000000E+00 0.  1.
          6    1    1    2  501    0  0.56700590317E+02 -0.42272249930E+02  0.10601640102E+03  0.21487293301E+03  0.17300000000E+03 0.  1.
         -6    1    1    2    0  502 -0.56700590317E+02  0.42272249930E+02  0.25243136875E+03  0.31408994887E+03  0.17300000000E+03 0.  1.
<mgrwt>
<rscale>  2 0.18689810E+03</rscale>
<asrwt>0</asrwt>
<pdfrwt beam="1">  1       21 0.68262356E-01 0.18689810E+03</pdfrwt>
<pdfrwt beam="2">  1       21 0.13116547E-01 0.18689810E+03</pdfrwt>
<totfact> 0.98171880E+04</totfact>
</mgrwt>
</event>
<event>
 4    1  0.3883260E+000  0.2242729E+03  0.7546771E-02  0.1130737E+00
         21   -1    0    0  503  502  0.00000000000E+00  0.00000000000E+00  0.38800210258E+02  0.38800210258E+02  0.00000000000E+00 0.  1.
         21   -1    0    0  501  503 -0.00000000000E+00 -0.00000000000E+00 -0.13214219326E+04  0.13214219326E+04  0.00000000000E+00 0. -1.
          6    1    1    2  501    0  0.66449243692E+01 -0.14256645335E+03 -0.73500681288E+03  0.76846168650E+03  0.17300000000E+03 0. -1.
         -6    1    1    2    0  502 -0.66449243692E+01  0.14256645335E+03 -0.54761490943E+03  0.59176045633E+03  0.17300000000E+03 0.  1.
<mgrwt>
<rscale>  2 0.22427293E+03</rscale>
<asrwt>0</asrwt>
<pdfrwt beam="1">  1       21 0.59692639E-02 0.22427293E+03</pdfrwt>
<pdfrwt beam="2">  1       21 0.20329566E+00 0.22427293E+03</pdfrwt>
<totfact> 0.24879357E+04</totfact>
</mgrwt>
</event>
<event>
 4    1  0.3883260E+000  0.1979849E+03  0.7546771E-02  0.1151450E+00
         21   -1    0    0  501  502  0.00000000000E+00  0.00000000000E+00  0.28404522852E+04  0.28404522852E+04  0.00000000000E+00 0. -1.
         21   -1    0    0  502  503 -0.00000000000E+00 -0.00000000000E+00 -0.14424819553E+02  0.14424819553E+02  0.00000000000E+00 0.  1.
          6    1    1    2  501    0 -0.29719311170E+02 -0.91573964945E+02  0.11159117189E+04  0.11333388694E+04  0.17300000000E+03 0.  1.
         -6    1    1    2    0  503  0.29719311170E+02  0.91573964945E+02  0.17101157467E+04  0.17215382353E+04  0.17300000000E+03 0. -1.
<mgrwt>
<rscale>  2 0.19798492E+03</rscale>
<asrwt>0</asrwt>
<pdfrwt beam="1">  1       21 0.43699221E+00 0.19798492E+03</pdfrwt>
<pdfrwt beam="2">  1       21 0.22192053E-02 0.19798492E+03</pdfrwt>
<totfact> 0.52237593E+03</totfact>
</mgrwt>
</event>
<event>
 4    1  0.3883260E+000  0.2464222E+03  0.7546771E-02  0.1115587E+00
         21   -1    0    0  503  502  0.00000000000E+00  0.00000000000E+00  0.36335405061E+03  0.36335405061E+03  0.00000000000E+00 0.  1.
         21   -1    0    0  501  503 -0.00000000000E+00 -0.00000000000E+00 -0.24637965297E+03  0.24637965297E+03  0.00000000000E+00 0. -1.
          6    1    1    2  501    0  0.72777219167E+02 -0.15968210772E+03 -0.11442776823E+03  0.27169396993E+03  0.17300000000E+03 0. -1.
         -6    1    1    2    0  502 -0.72777219167E+02  0.15968210772E+03  0.23140216586E+03  0.33803973364E+03  0.17300000000E+03 0.  1.
<mgrwt>
<rscale>  2 0.24642220E+03</rscale>
<asrwt>0</asrwt>
<pdfrwt beam="1">  1       21 0.55900624E-01 0.24642220E+03</pdfrwt>
<pdfrwt beam="2">  1       21 0.37904562E-01 0.24642220E+03</pdfrwt>
<totfact> 0.19637593E+04</totfact>
</mgrwt>
</event>
<event>
 4    1  0.3883260E+000  0.1915730E+03  0.7546771E-02  0.1157050E+00
         21   -1    0    0  501  502  0.00000000000E+00  0.00000000000E+00  0.21626738862E+03  0.21626738862E+03  0.00000000000E+00 0. -1.
         21   -1    0    0  502  503 -0.00000000000E+00 -0.00000000000E+00 -0.16970085348E+03  0.16970085348E+03  0.00000000000E+00 0. -1.
          6    1    1    2  501    0  0.74931887188E+02  0.34006374393E+02  0.24022982482E+02  0.19307336664E+03  0.17300000000E+03 0. -1.
         -6    1    1    2    0  503 -0.74931887188E+02 -0.34006374393E+02  0.22543552659E+02  0.19289487547E+03  0.17300000000E+03 0. -1.
<mgrwt>
<rscale>  2 0.19157302E+03</rscale>
<asrwt>0</asrwt>
<pdfrwt beam="1">  1       21 0.33271906E-01 0.19157302E+03</pdfrwt>
<pdfrwt beam="2">  1       21 0.26107823E-01 0.19157302E+03</pdfrwt>
<totfact> 0.12131864E+05</totfact>
</mgrwt>
</event>
<event>
 4    1  0.3883260E+000  0.2153480E+03  0.7546771E-02  0.1137400E+00
         21   -1    0    0  503  502  0.00000000000E+00  0.00000000000E+00  0.90031514919E+03  0.90031514919E+03  0.00000000000E+00 0.  1.
         21   -1    0    0  501  503 -0.00000000000E+00 -0.00000000000E+00 -0.52222827758E+02  0.52222827758E+02  0.00000000000E+00 0.  1.
          6    1    1    2  501    0 -0.64352707390E+02  0.11092566530E+03  0.36838276217E+03  0.42670907376E+03  0.17300000000E+03 0.  1.
         -6    1    1    2    0  502  0.64352707390E+02 -0.11092566530E+03  0.47970955927E+03  0.52582890318E+03  0.17300000000E+03 0.  1.
<mgrwt>
<rscale>  2 0.21534803E+03</rscale>
<asrwt>0</asrwt>
<pdfrwt beam="1">  1       21 0.13851001E+00 0.21534803E+03</pdfrwt>
<pdfrwt beam="2">  1       21 0.80342819E-02 0.21534803E+03</pdfrwt>
<totfact> 0.43264188E+04</totfact>
</mgrwt>
</event>
<event>
 4    1  0.3883260E+000  0.2888948E+03  0.7546771E-02  0.1090928E+00
         21   -1    0    0  501  502  0.00000000000E+00  0.00000000000E+00  0.24801846418E+03  0.24801846418E+03  0.00000000000E+00 0. -1.
         21   -1    0    0  502  503 -0.00000000000E+00 -0.00000000000E+00 -0.39871646885E+03  0.39871646885E+03  0.00000000000E+00 0.  1.
          6    1    1    2  501    0  0.23107999245E+03 -0.11542107771E+02  0.52379903681E+02  0.29360490029E+03  0.17300000000E+03 0. -1.
         -6    1    1    2    0  503 -0.23107999245E+03  0.11542107771E+02 -0.20307790835E+03  0.35313003274E+03  0.17300000000E+03 0.  1.
<mgrwt>
<rscale>  2 0.28889476E+03</rscale>
<asrwt>0</asrwt>
<pdfrwt beam="1">  1       21 0.38156687E-01 0.28889476E+03</pdfrwt>
<pdfrwt beam="2">  1       21 0.61340995E-01 0.28889476E+03</pdfrwt>
<totfact> 0.15552368E+04</totfact>
</mgrwt>
</event>
<event>
 4    1  0.3883260E+000  0.1957658E+03  0.7546771E-02  0.1153361E+00
         21   -1    0    0  501  502  0.00000000000E+00  0.00000000000E+00  0.25315599599E+04  0.25315599599E+04  0.00000000000E+00 0. -1.
         21   -1    0    0  502  503 -0.00000000000E+00 -0.00000000000E+00 -0.32478626717E+02  0.32478626717E+02  0.00000000000E+00 0. -1.
          6    1    1    2  501    0  0.90229370350E+02 -0.15934502009E+02  0.21862842820E+04  0.21950314825E+04  0.17300000000E+03 0. -1.
         -6    1    1    2    0  503 -0.90229370350E+02  0.15934502009E+02  0.31279705117E+03  0.36900710407E+03  0.17300000000E+03 0. -1.
<mgrwt>
<rscale>  2 0.19576580E+03</rscale>
<asrwt>0</asrwt>
<pdfrwt beam="1">  1       21 0.38947061E+00 0.19576580E+03</pdfrwt>
<pdfrwt beam="2">  1       21 0.49967138E-02 0.19576580E+03</pdfrwt>
<totfact> 0.27134883E+03</totfact>
</mgrwt>
</event>
<event>
 4    1  0.3883260E+000  0.1916655E+03  0.7546771E-02  0.1156968E+00
         21   -1    0    0  501  502  0.00000000000E+00  0.00000000000E+00  0.26632163144E+03  0.26632163144E+03  0.00000000000E+00 0. -1.
         21   -1    0    0  502  503 -0.00000000000E+00 -0.00000000000E+00 -0.29839032236E+03  0.29839032236E+03  0.00000000000E+00 0.  1.
          6    1    1    2  501    0 -0.60395500925E+02  0.56205522310E+02  0.19101726737E+03  0.27059799279E+03  0.17300000000E+03 0. -1.
         -6    1    1    2    0  503  0.60395500925E+02 -0.56205522310E+02 -0.22308595829E+03  0.29411396100E+03  0.17300000000E+03 0.  1.
<mgrwt>
<rscale>  2 0.19166553E+03</rscale>
<asrwt>0</asrwt>
<pdfrwt beam="1">  1       21 0.40972559E-01 0.19166553E+03</pdfrwt>
<pdfrwt beam="2">  1       21 0.45906203E-01 0.19166553E+03</pdfrwt>
<totfact> 0.26112055E+04</totfact>
</mgrwt>
</event>
<event>
 4    1  0.3883260E+000  0.2598970E+03  0.7546771E-02  0.1107205E+00
         21   -1    0    0  501  502  0.00000000000E+00  0.00000000000E+00  0.19088184910E+03  0.19088184910E+03  0.00000000000E+00 0. -1.
         21   -1    0    0  502  503 -0.00000000000E+00 -0.00000000000E+00 -0.65642941602E+03  0.65642941602E+03  0.00000000000E+00 0.  1.
          6    1    1    2  501    0  0.18991817757E+03  0.39351266718E+02  0.54851974879E+02  0.26562224213E+03  0.17300000000E+03 0. -1.
         -6    1    1    2    0  503 -0.18991817757E+03 -0.39351266718E+02 -0.52039954181E+03  0.58168902300E+03  0.17300000000E+03 0.  1.
<mgrwt>
<rscale>  2 0.25989697E+03</rscale>
<asrwt>0</asrwt>
<pdfrwt beam="1">  1       21 0.29366438E-01 0.25989697E+03</pdfrwt>
<pdfrwt beam="2">  1       21 0.10098914E+00 0.25989697E+03</pdfrwt>
<totfact> 0.85321266E+03</totfact>
</mgrwt>
</event>
<event>
 4    1  0.3883260E+000  0.1959611E+03  0.7546771E-02  0.1153192E+00
         21   -1    0    0  503  502  0.00000000000E+00  0.00000000000E+00  0.24280813405E+03  0.24280813405E+03  0.00000000000E+00 0.  1.
         21   -1    0    0  501  503 -0.00000000000E+00 -0.00000000000E+00 -0.16104898520E+03  0.16104898520E+03  0.00000000000E+00 0. -1.
          6    1    1    2  501    0  0.34122732699E+02 -0.85483208337E+02  0.13799723777E+02  0.19644635953E+03  0.17300000000E+03 0. -1.
         -6    1    1    2    0  502 -0.34122732699E+02  0.85483208337E+02  0.67959425076E+02  0.20741075973E+03  0.17300000000E+03 0.  1.
<mgrwt>
<rscale>  2 0.19596107E+03</rscale>
<asrwt>0</asrwt>
<pdfrwt beam="1">  1       21 0.37355098E-01 0.19596107E+03</pdfrwt>
<pdfrwt beam="2">  1       21 0.24776767E-01 0.19596107E+03</pdfrwt>
<totfact> 0.10636011E+05</totfact>
</mgrwt>
</event>
<event>
 4    1  0.3883260E+000  0.1827923E+03  0.7546771E-02  0.1165128E+00
         21   -1    0    0  501  502  0.00000000000E+00  0.00000000000E+00  0.31239943990E+03  0.31239943990E+03  0.00000000000E+00 0. -1.
         21   -1    0    0  502  503 -0.00000000000E+00 -0.00000000000E+00 -0.10997732476E+03  0.10997732476E+03  0.00000000000E+00 0. -1.
          6    1    1    2  501    0  0.27345601481E+02 -0.52308961438E+02  0.13621473969E+03  0.22796373544E+03  0.17300000000E+03 0. -1.
         -6    1    1    2    0  503 -0.27345601481E+02  0.52308961438E+02  0.66207375452E+02  0.19441302922E+03  0.17300000000E+03 0. -1.
<mgrwt>
<rscale>  2 0.18279226E+03</rscale>
<asrwt>0</asrwt>
<pdfrwt beam="1">  1       21 0.48061452E-01 0.18279226E+03</pdfrwt>
<pdfrwt beam="2">  1       21 0.16919589E-01 0.18279226E+03</pdfrwt>
<totfact> 0.13062966E+05</totfact>
</mgrwt>
</event>
<event>
 4    1  0.3883260E+000  0.1941174E+03  0.7546771E-02  0.1154799E+00
         21   -1    0    0  503  502  0.00000000000E+00  0.00000000000E+00  0.14215848808E+03  0.14215848808E+03  0.00000000000E+00 0.  1.
         21   -1    0    0  501  503 -0.00000000000E+00 -0.00000000000E+00 -0.26507885114E+03  0.26507885114E+03  0.00000000000E+00 0. -1.
          6    1    1    2  501    0 -0.75715692257E+02  0.44941238480E+02 -0.60121938985E+02  0.20321473499E+03  0.17300000000E+03 0. -1.
         -6    1    1    2    0  502  0.75715692257E+02 -0.44941238480E+02 -0.62798424078E+02  0.20402260423E+03  0.17300000000E+03 0.  1.
<mgrwt>
<rscale>  2 0.19411744E+03</rscale>
<asrwt>0</asrwt>
<pdfrwt beam="1">  1       21 0.21870537E-01 0.19411744E+03</pdfrwt>
<pdfrwt beam="2">  1       21 0.40781362E-01 0.19411744E+03</pdfrwt>
<totfact> 0.11300306E+05</totfact>
</mgrwt>
</event>
<event>
 4    1  0.3883260E+000  0.2200647E+03  0.7546771E-02  0.1133835E+00
         21   -1    0    0  501  502  0.00000000000E+00  0.00000000000E+00  0.14080283528E+03  0.14080283528E+03  0.00000000000E+00 0. -1.
         21   -1    0    0  502  503 -0.00000000000E+00 -0.00000000000E+00 -0.37306431893E+03  0.37306431893E+03  0.00000000000E+00 0. -1.
          6    1    1    2  501    0 -0.13578240078E+03 -0.79133943311E+01 -0.44348517393E+02  0.22448891547E+03  0.17300000000E+03 0. -1.
         -6    1    1    2    0  503  0.13578240078E+03  0.79133943311E+01 -0.18791296626E+03  0.28937823875E+03  0.17300000000E+03 0. -1.
<mgrwt>
<rscale>  2 0.22006472E+03</rscale>
<asrwt>0</asrwt>
<pdfrwt beam="1">  1       21 0.21661975E-01 0.22006472E+03</pdfrwt>
<pdfrwt beam="2">  1       21 0.57394509E-01 0.22006472E+03</pdfrwt>
<totfact> 0.55915215E+04</totfact>
</mgrwt>
</event>
<event>
 4    1  0.3883260E+000  0.2133748E+03  0.7546771E-02  0.1138921E+00
         21   -1    0    0  501  502  0.00000000000E+00  0.00000000000E+00  0.51214461749E+03  0.51214461749E+03  0.00000000000E+00 0. -1.
         21   -1    0    0  502  503 -0.00000000000E+00 -0.00000000000E+00 -0.18650691923E+03  0.18650691923E+03  0.00000000000E+00 0.  1.
          6    1    1    2  501    0  0.83454090723E+02  0.92925990539E+02  0.41553154662E+03  0.46711378829E+03  0.17300000000E+03 0. -1.
         -6    1    1    2    0  503 -0.83454090723E+02 -0.92925990539E+02 -0.89893848363E+02  0.23153774843E+03  0.17300000000E+03 0.  1.
<mgrwt>
<rscale>  2 0.21337485E+03</rscale>
<asrwt>0</asrwt>
<pdfrwt beam="1">  1       21 0.78791479E-01 0.21337485E+03</pdfrwt>
<pdfrwt beam="2">  1       21 0.28693372E-01 0.21337485E+03</pdfrwt>
<totfact> 0.16328150E+04</totfact>
</mgrwt>
</event>
<event>
 4    1  0.3883260E+000  0.3278867E+03  0.7546771E-02  0.1072076E+00
         21   -1    0    0  503  502  0.00000000000E+00  0.00000000000E+00  0.26015002931E+03  0.26015002931E+03  0.00000000000E+00 0.  1.
         21   -1    0    0  501  503 -0.00000000000E+00 -0.00000000000E+00 -0.69327776648E+03  0.69327776648E+03  0.00000000000E+00 0.  1.
          6    1    1    2  501    0 -0.27117327782E+03 -0.63606110327E+02 -0.51953184345E+03  0.61434763793E+03  0.17300000000E+03 0.  1.
         -6    1    1    2    0  502  0.27117327782E+03  0.63606110327E+02  0.86404106278E+02  0.33908015786E+03  0.17300000000E+03 0.  1.
<mgrwt>
<rscale>  2 0.32788669E+03</rscale>
<asrwt>0</asrwt>
<pdfrwt beam="1">  1       21 0.40023081E-01 0.32788669E+03</pdfrwt>
<pdfrwt beam="2">  1       21 0.10665812E+00 0.32788669E+03</pdfrwt>
<totfact> 0.38833219E+03</totfact>
</mgrwt>
</event>
<event>
 4    1  0.3883260E+000  0.1908611E+03  0.7546771E-02  0.1157687E+00
         21   -1    0    0  501  502  0.00000000000E+00  0.00000000000E+00  0.55575577982E+03  0.55575577982E+03  0.00000000000E+00 0.  1.
         21   -1    0    0  502  503 -0.00000000000E+00 -0.00000000000E+00 -0.17063852987E+03  0.17063852987E+03  0.00000000000E+00 0.  1.
          6    1    1    2  501    0 -0.79982214675E+02 -0.10089568861E+02  0.47758718366E+03  0.51431262094E+03  0.17300000000E+03 0.  1.
         -6    1    1    2    0  503  0.79982214675E+02  0.10089568861E+02 -0.92469933712E+02  0.21208168875E+03  0.17300000000E+03 0.  1.
<mgrwt>
<rscale>  2 0.19086109E+03</rscale>
<asrwt>0</asrwt>
<pdfrwt beam="1">  1       21 0.85500888E-01 0.19086109E+03</pdfrwt>
<pdfrwt beam="2">  1       21 0.26252082E-01 0.19086109E+03</pdfrwt>
<totfact> 0.16327137E+04</totfact>
</mgrwt>
</event>
<event>
 4    1  0.3883260E+000  0.3273656E+03  0.7546771E-02  0.1072309E+00
         21   -1    0    0  503  502  0.00000000000E+00  0.00000000000E+00  0.51853960064E+03  0.51853960064E+03  0.00000000000E+00 0. -1.
         21   -1    0    0  501  503 -0.00000000000E+00 -0.00000000000E+00 -0.12758233445E+04  0.12758233445E+04  0.00000000000E+00 0.  1.
          6    1    1    2  501    0  0.17044531210E+03 -0.21951677499E+03 -0.11999467107E+04  0.12438007587E+04  0.17300000000E+03 0.  1.
         -6    1    1    2    0  502 -0.17044531210E+03  0.21951677499E+03  0.44266296683E+03  0.55056218642E+03  0.17300000000E+03 0. -1.
<mgrwt>
<rscale>  2 0.32736557E+03</rscale>
<asrwt>0</asrwt>
<pdfrwt beam="1">  1       21 0.79775323E-01 0.32736557E+03</pdfrwt>
<pdfrwt beam="2">  1       21 0.19628051E+00 0.32736557E+03</pdfrwt>
<totfact> 0.17118512E+02</totfact>
</mgrwt>
</event>
<event>
 4    1  0.3883260E+000  0.2152746E+03  0.7546771E-02  0.1137456E+00
         21   -1    0    0  501  502  0.00000000000E+00  0.00000000000E+00  0.59219068337E+02  0.59219068337E+02  0.00000000000E+00 0.  1.
         21   -1    0    0  502  503 -0.00000000000E+00 -0.00000000000E+00 -0.83101812871E+03  0.83101812871E+03  0.00000000000E+00 0.  1.
          6    1    1    2  501    0 -0.91572600747E+02  0.89602607872E+02 -0.27842606357E+03  0.35194352021E+03  0.17300000000E+03 0.  1.
         -6    1    1    2    0  503  0.91572600747E+02 -0.89602607872E+02 -0.49337299680E+03  0.53829367683E+03  0.17300000000E+03 0.  1.
<mgrwt>
<rscale>  2 0.21527464E+03</rscale>
<asrwt>0</asrwt>
<pdfrwt beam="1">  1       21 0.91106260E-02 0.21527464E+03</pdfrwt>
<pdfrwt beam="2">  1       21 0.12784894E+00 0.21527464E+03</pdfrwt>
<totfact> 0.42571459E+04</totfact>
</mgrwt>
</event>
<event>
 4    1  0.3883260E+000  0.2069079E+03  0.7546771E-02  0.1144038E+00
         21   -1    0    0  501  502  0.00000000000E+00  0.00000000000E+00  0.42922914815E+03  0.42922914815E+03  0.00000000000E+00 0. -1.
         21   -1    0    0  502  503 -0.00000000000E+00 -0.00000000000E+00 -0.14709306303E+04  0.14709306303E+04  0.00000000000E+00 0. -1.
          6    1    1    2  501    0  0.24103285859E+02 -0.11090938600E+03  0.39645289659E+03  0.44719767386E+03  0.17300000000E+03 0. -1.
         -6    1    1    2    0  503 -0.24103285859E+02  0.11090938600E+03 -0.14381543787E+04  0.14529621045E+04  0.17300000000E+03 0. -1.
<mgrwt>
<rscale>  2 0.20690785E+03</rscale>
<asrwt>0</asrwt>
<pdfrwt beam="1">  1       21 0.66035254E-01 0.20690785E+03</pdfrwt>
<pdfrwt beam="2">  1       21 0.22629702E+00 0.20690785E+03</pdfrwt>
<totfact> 0.19018197E+02</totfact>
</mgrwt>
</event>
<event>
 4    1  0.3883260E+000  0.1746275E+03  0.7546771E-02  0.1173106E+00
         21   -1    0    0  501  502  0.00000000000E+00  0.00000000000E+00  0.45890352105E+02  0.45890352105E+02  0.00000000000E+00 0.  1.
         21   -1    0    0  502  503 -0.00000000000E+00 -0.00000000000E+00 -0.12987024933E+04  0.12987024933E+04  0.00000000000E+00 0.  1.
          6    1    1    2  501    0  0.10824460170E+02 -0.21179923630E+02 -0.15660357838E+03  0.23456222812E+03  0.17300000000E+03 0.  1.
         -6    1    1    2    0  503 -0.10824460170E+02  0.21179923630E+02 -0.10962085628E+04  0.11100306173E+04  0.17300000000E+03 0.  1.
<mgrwt>
<rscale>  2 0.17462748E+03</rscale>
<asrwt>0</asrwt>
<pdfrwt beam="1">  1       21 0.70600526E-02 0.17462748E+03</pdfrwt>
<pdfrwt beam="2">  1       21 0.19980043E+00 0.17462748E+03</pdfrwt>
<totfact> 0.20355620E+04</totfact>
</mgrwt>
</event>
<event>
 4    1  0.3883260E+000  0.2129538E+03  0.7546771E-02  0.1139248E+00
         21   -1    0    0  501  502  0.00000000000E+00  0.00000000000E+00  0.56399434307E+02  0.56399434307E+02  0.00000000000E+00 0. -1.
         21   -1    0    0  502  503 -0.00000000000E+00 -0.00000000000E+00 -0.87071918780E+03  0.87071918780E+03  0.00000000000E+00 0.  1.
          6    1    1    2  501    0 -0.44741568784E+02  0.11583825028E+03 -0.27891168279E+03  0.35091456938E+03  0.17300000000E+03 0.  1.
         -6    1    1    2    0  503  0.44741568784E+02 -0.11583825028E+03 -0.53540807070E+03  0.57620405273E+03  0.17300000000E+03 0. -1.
<mgrwt>
<rscale>  2 0.21295377E+03</rscale>
<asrwt>0</asrwt>
<pdfrwt beam="1">  1       21 0.86768368E-02 0.21295377E+03</pdfrwt>
<pdfrwt beam="2">  1       21 0.13395679E+00 0.21295377E+03</pdfrwt>
<totfact> 0.41254925E+04</totfact>
</mgrwt>
</event>
<event>
 4    1  0.3883260E+000  0.1797956E+03  0.7546771E-02  0.1168001E+00
         21   -1    0    0  501  502  0.00000000000E+00  0.00000000000E+00  0.27004974578E+03  0.27004974578E+03  0.00000000000E+00 0.  1.
         21   -1    0    0  502  503 -0.00000000000E+00 -0.00000000000E+00 -0.56582464520E+03  0.56582464520E+03  0.00000000000E+00 0.  1.
          6    1    1    2  501    0  0.22505090865E+02  0.43485489940E+02  0.22321641407E+03  0.28662176201E+03  0.17300000000E+03 0.  1.
         -6    1    1    2    0  503 -0.22505090865E+02 -0.43485489940E+02 -0.51899131348E+03  0.54925262896E+03  0.17300000000E+03 0.  1.
<mgrwt>
<rscale>  2 0.17979563E+03</rscale>
<asrwt>0</asrwt>
<pdfrwt beam="1">  1       21 0.41546115E-01 0.17979563E+03</pdfrwt>
<pdfrwt beam="2">  1       21 0.87049945E-01 0.17979563E+03</pdfrwt>
<totfact> 0.63910181E+03</totfact>
</mgrwt>
</event>
<event>
 4    1  0.3883260E+000  0.1856644E+03  0.7546771E-02  0.1162431E+00
         21   -1    0    0  503  502  0.00000000000E+00  0.00000000000E+00  0.58904463210E+02  0.58904463210E+02  0.00000000000E+00 0.  1.
         21   -1    0    0  501  503 -0.00000000000E+00 -0.00000000000E+00 -0.71708791369E+03  0.71708791369E+03  0.00000000000E+00 0. -1.
          6    1    1    2  501    0 -0.66982601748E+02  0.74555709145E+01 -0.49548417722E+03  0.52912741788E+03  0.17300000000E+03 0. -1.
         -6    1    1    2    0  502  0.66982601748E+02 -0.74555709145E+01 -0.16269927327E+03  0.24686495903E+03  0.17300000000E+03 0.  1.
<mgrwt>
<rscale>  2 0.18566436E+03</rscale>
<asrwt>0</asrwt>
<pdfrwt beam="1">  1       21 0.90622255E-02 0.18566436E+03</pdfrwt>
<pdfrwt beam="2">  1       21 0.11032121E+00 0.18566436E+03</pdfrwt>
<totfact> 0.62796028E+04</totfact>
</mgrwt>
</event>
<event>
 4    1  0.3883260E+000  0.1893999E+03  0.7546771E-02  0.1159004E+00
         21   -1    0    0  503  502  0.00000000000E+00  0.00000000000E+00  0.32284826124E+02  0.32284826124E+02  0.00000000000E+00 0.  1.
         21   -1    0    0  501  503 -0.00000000000E+00 -0.00000000000E+00 -0.13425073073E+04  0.13425073073E+04  0.00000000000E+00 0. -1.
          6    1    1    2  501    0  0.61462762768E+02  0.46536660008E+02 -0.94048761540E+03  0.95936921290E+03  0.17300000000E+03 0. -1.
         -6    1    1    2    0  502 -0.61462762768E+02 -0.46536660008E+02 -0.36973486580E+03  0.41542292055E+03  0.17300000000E+03 0.  1.
<mgrwt>
<rscale>  2 0.18939993E+03</rscale>
<asrwt>0</asrwt>
<pdfrwt beam="1">  1       21 0.49668964E-02 0.18939993E+03</pdfrwt>
<pdfrwt beam="2">  1       21 0.20653958E+00 0.18939993E+03</pdfrwt>
<totfact> 0.33265519E+04</totfact>
</mgrwt>
</event>
<event>
 4    1  0.3883260E+000  0.2169523E+03  0.7546771E-02  0.1136176E+00
         21   -1    0    0  501  502  0.00000000000E+00  0.00000000000E+00  0.17964740760E+03  0.17964740760E+03  0.00000000000E+00 0.  1.
         21   -1    0    0  502  503 -0.00000000000E+00 -0.00000000000E+00 -0.26966412413E+03  0.26966412413E+03  0.00000000000E+00 0.  1.
          6    1    1    2  501    0  0.46411897848E+02 -0.12241424163E+03 -0.71441923653E+01  0.21706992030E+03  0.17300000000E+03 0.  1.
         -6    1    1    2    0  503 -0.46411897848E+02  0.12241424163E+03 -0.82872524167E+02  0.23224161142E+03  0.17300000000E+03 0.  1.
<mgrwt>
<rscale>  2 0.21695232E+03</rscale>
<asrwt>0</asrwt>
<pdfrwt beam="1">  1       21 0.27638063E-01 0.21695232E+03</pdfrwt>
<pdfrwt beam="2">  1       21 0.41486788E-01 0.21695232E+03</pdfrwt>
<totfact> 0.69153703E+04</totfact>
</mgrwt>
</event>
<event>
 4    1  0.3883260E+000  0.2146005E+03  0.7546771E-02  0.1137974E+00
         21   -1    0    0  503  502  0.00000000000E+00  0.00000000000E+00  0.27910573747E+03  0.27910573747E+03  0.00000000000E+00 0. -1.
         21   -1    0    0  501  503 -0.00000000000E+00 -0.00000000000E+00 -0.17095833166E+03  0.17095833166E+03  0.00000000000E+00 0. -1.
          6    1    1    2  501    0 -0.12617450191E+03  0.14295181999E+02  0.96073058747E+02  0.23512420075E+03  0.17300000000E+03 0. -1.
         -6    1    1    2    0  502  0.12617450191E+03 -0.14295181999E+02  0.12074347064E+02  0.21493986838E+03  0.17300000000E+03 0. -1.
<mgrwt>
<rscale>  2 0.21460046E+03</rscale>
<asrwt>0</asrwt>
<pdfrwt beam="1">  1       21 0.42939344E-01 0.21460046E+03</pdfrwt>
<pdfrwt beam="2">  1       21 0.26301282E-01 0.21460046E+03</pdfrwt>
<totfact> 0.71005892E+04</totfact>
</mgrwt>
</event>
<event>
 4    1  0.3883260E+000  0.2130782E+03  0.7546771E-02  0.1139151E+00
         21   -1    0    0  503  502  0.00000000000E+00  0.00000000000E+00  0.34910881656E+03  0.34910881656E+03  0.00000000000E+00 0.  1.
         21   -1    0    0  501  503 -0.00000000000E+00 -0.00000000000E+00 -0.14036245212E+03  0.14036245212E+03  0.00000000000E+00 0.  1.
          6    1    1    2  501    0  0.95602540568E+02 -0.79583186511E+02  0.38043363714E+02  0.21644774626E+03  0.17300000000E+03 0.  1.
         -6    1    1    2    0  502 -0.95602540568E+02  0.79583186511E+02  0.17070300072E+03  0.27302352242E+03  0.17300000000E+03 0.  1.
<mgrwt>
<rscale>  2 0.21307822E+03</rscale>
<asrwt>0</asrwt>
<pdfrwt beam="1">  1       21 0.53709048E-01 0.21307822E+03</pdfrwt>
<pdfrwt beam="2">  1       21 0.21594223E-01 0.21307822E+03</pdfrwt>
<totfact> 0.64964169E+04</totfact>
</mgrwt>
</event>
<event>
 4    1  0.3883260E+000  0.2120260E+03  0.7546771E-02  0.1139972E+00
         21   -1    0    0  501  502  0.00000000000E+00  0.00000000000E+00  0.40005751609E+03  0.40005751609E+03  0.00000000000E+00 0. -1.
         21   -1    0    0  502  503 -0.00000000000E+00 -0.00000000000E+00 -0.29173189404E+03  0.29173189404E+03  0.00000000000E+00 0. -1.
          6    1    1    2  501    0  0.46459250758E+01  0.12249269266E+03  0.32537880048E+03  0.38836375755E+03  0.17300000000E+03 0. -1.
         -6    1    1    2    0  503 -0.46459250758E+01 -0.12249269266E+03 -0.21705317843E+03  0.30342565258E+03  0.17300000000E+03 0. -1.
<mgrwt>
<rscale>  2 0.21202605E+03</rscale>
<asrwt>0</asrwt>
<pdfrwt beam="1">  1       21 0.61547310E-01 0.21202605E+03</pdfrwt>
<pdfrwt beam="2">  1       21 0.44881830E-01 0.21202605E+03</pdfrwt>
<totfact> 0.11538540E+04</totfact>
</mgrwt>
</event>
<event>
 4    1  0.3883260E+000  0.2043266E+03  0.7546771E-02  0.1146139E+00
         21   -1    0    0  503  502  0.00000000000E+00  0.00000000000E+00  0.25865102789E+03  0.25865102789E+03  0.00000000000E+00 0.  1.
         21   -1    0    0  501  503 -0.00000000000E+00 -0.00000000000E+00 -0.16448248359E+03  0.16448248359E+03  0.00000000000E+00 0. -1.
          6    1    1    2  501    0  0.94198782140E+02 -0.54285816464E+02  0.18177722075E+02  0.20513359063E+03  0.17300000000E+03 0. -1.
         -6    1    1    2    0  502 -0.94198782140E+02  0.54285816464E+02  0.75990822227E+02  0.21799992084E+03  0.17300000000E+03 0.  1.
<mgrwt>
<rscale>  2 0.20432660E+03</rscale>
<asrwt>0</asrwt>
<pdfrwt beam="1">  1       21 0.39792466E-01 0.20432660E+03</pdfrwt>
<pdfrwt beam="2">  1       21 0.25304997E-01 0.20432660E+03</pdfrwt>
<totfact> 0.89652941E+04</totfact>
</mgrwt>
</event>
<event>
 4    1  0.3883260E+000  0.2406373E+03  0.7546771E-02  0.1119369E+00
         21   -1    0    0  503  502  0.00000000000E+00  0.00000000000E+00  0.23328358097E+03  0.23328358097E+03  0.00000000000E+00 0. -1.
         21   -1    0    0  501  503 -0.00000000000E+00 -0.00000000000E+00 -0.33604702388E+03  0.33604702388E+03  0.00000000000E+00 0. -1.
          6    1    1    2  501    0  0.78586387477E+02 -0.14765329401E+03 -0.19690803982E+03  0.31093261597E+03  0.17300000000E+03 0. -1.
         -6    1    1    2    0  502 -0.78586387477E+02  0.14765329401E+03  0.94144596918E+02  0.25839798888E+03  0.17300000000E+03 0. -1.
<mgrwt>
<rscale>  2 0.24063731E+03</rscale>
<asrwt>0</asrwt>
<pdfrwt beam="1">  1       21 0.35889782E-01 0.24063731E+03</pdfrwt>
<pdfrwt beam="2">  1       21 0.51699542E-01 0.24063731E+03</pdfrwt>
<totfact> 0.25936227E+04</totfact>
</mgrwt>
</event>
<event>
 4    1  0.3883260E+000  0.1854667E+03  0.7546771E-02  0.1162615E+00
         21   -1    0    0  501  502  0.00000000000E+00  0.00000000000E+00  0.35777937366E+02  0.35777937366E+02  0.00000000000E+00 0. -1.
         21   -1    0    0  502  503 -0.00000000000E+00 -0.00000000000E+00 -0.10984442704E+04  0.10984442704E+04  0.00000000000E+00 0.  1.
          6    1    1    2  501    0  0.29234578590E+02 -0.60118659789E+02 -0.33104048933E+03  0.37945450243E+03  0.17300000000E+03 0. -1.
         -6    1    1    2    0  503 -0.29234578590E+02  0.60118659789E+02 -0.73162584375E+03  0.75476770538E+03  0.17300000000E+03 0.  1.
<mgrwt>
<rscale>  2 0.18546675E+03</rscale>
<asrwt>0</asrwt>
<pdfrwt beam="1">  1       21 0.55042987E-02 0.18546675E+03</pdfrwt>
<pdfrwt beam="2">  1       21 0.16899141E+00 0.18546675E+03</pdfrwt>
<totfact> 0.49763727E+04</totfact>
</mgrwt>
</event>
<event>
 4    1  0.3883260E+000  0.2314014E+03  0.7546771E-02  0.1125657E+00
         21   -1    0    0  501  502  0.00000000000E+00  0.00000000000E+00  0.14215792503E+03  0.14215792503E+03  0.00000000000E+00 0.  1.
         21   -1    0    0  502  503 -0.00000000000E+00 -0.00000000000E+00 -0.37897061312E+03  0.37897061312E+03  0.00000000000E+00 0. -1.
          6    1    1    2  501    0 -0.13269934048E+03 -0.77514481542E+02 -0.98104083981E+02  0.25133845927E+03  0.17300000000E+03 0. -1.
         -6    1    1    2    0  503  0.13269934048E+03  0.77514481542E+02 -0.13870860411E+03  0.26979007889E+03  0.17300000000E+03 0. -1.
<mgrwt>
<rscale>  2 0.23140140E+03</rscale>
<asrwt>0</asrwt>
<pdfrwt beam="1">  1       21 0.21870450E-01 0.23140140E+03</pdfrwt>
<pdfrwt beam="2">  1       21 0.58303171E-01 0.23140140E+03</pdfrwt>
<totfact> 0.52835518E+04</totfact>
</mgrwt>
</event>
<event>
 4    1  0.3883260E+000  0.2118893E+03  0.7546771E-02  0.1140079E+00
         21   -1    0    0  501  502  0.00000000000E+00  0.00000000000E+00  0.86582424957E+02  0.86582424957E+02  0.00000000000E+00 0.  1.
         21   -1    0    0  502  503 -0.00000000000E+00 -0.00000000000E+00 -0.72393465285E+03  0.72393465285E+03  0.00000000000E+00 0.  1.
          6    1    1    2  501    0 -0.51778258231E+02  0.11084707517E+03 -0.10281739683E+03  0.23551747109E+03  0.17300000000E+03 0.  1.
         -6    1    1    2    0  503  0.51778258231E+02 -0.11084707517E+03 -0.53453483106E+03  0.57499960671E+03  0.17300000000E+03 0.  1.
<mgrwt>
<rscale>  2 0.21188927E+03</rscale>
<asrwt>0</asrwt>
<pdfrwt beam="1">  1       21 0.13320373E-01 0.21188927E+03</pdfrwt>
<pdfrwt beam="2">  1       21 0.11137456E+00 0.21188927E+03</pdfrwt>
<totfact> 0.30493428E+04</totfact>
</mgrwt>
</event>
<event>
 4    1  0.3883260E+000  0.2071630E+03  0.7546771E-02  0.1143832E+00
         21   -1    0    0  501  502  0.00000000000E+00  0.00000000000E+00  0.15605652243E+04  0.15605652243E+04  0.00000000000E+00 0.  1.
         21   -1    0    0  502  503 -0.00000000000E+00 -0.00000000000E+00 -0.35292001897E+02  0.35292001897E+02  0.00000000000E+00 0. -1.
          6    1    1    2  501    0 -0.68379002626E+02 -0.91169288398E+02  0.11375516431E+04  0.11562613320E+04  0.17300000000E+03 0.  1.
         -6    1    1    2    0  503  0.68379002626E+02  0.91169288398E+02  0.38772157935E+03  0.43959589425E+03  0.17300000000E+03 0. -1.
<mgrwt>
<rscale>  2 0.20716304E+03</rscale>
<asrwt>0</asrwt>
<pdfrwt beam="1">  1       21 0.24008690E+00 0.20716304E+03</pdfrwt>
<pdfrwt beam="2">  1       21 0.54295400E-02 0.20716304E+03</pdfrwt>
<totfact> 0.17577006E+04</totfact>
</mgrwt>
</event>
<event>
 4    1  0.3883260E+000  0.1780990E+03  0.7546771E-02  0.1169656E+00
         21   -1    0    0  503  502  0.00000000000E+00  0.00000000000E+00  0.43757682301E+02  0.43757682301E+02  0.00000000000E+00 0.  1.
         21   -1    0    0  501  503 -0.00000000000E+00 -0.00000000000E+00 -0.72830196169E+03  0.72830196169E+03  0.00000000000E+00 0.  1.
          6    1    1    2  501    0  0.34942730070E+02 -0.23859408042E+02 -0.36871551116E+03  0.40947575497E+03  0.17300000000E+03 0.  1.
         -6    1    1    2    0  502 -0.34942730070E+02  0.23859408042E+02 -0.31582876822E+03  0.36258388902E+03  0.17300000000E+03 0.  1.
<mgrwt>
<rscale>  2 0.17809903E+03</rscale>
<asrwt>0</asrwt>
<pdfrwt beam="1">  1       21 0.67319509E-02 0.17809903E+03</pdfrwt>
<pdfrwt beam="2">  1       21 0.11204646E+00 0.17809903E+03</pdfrwt>
<totfact> 0.10168370E+05</totfact>
</mgrwt>
</event>
<event>
 4    1  0.3883260E+000  0.2175813E+03  0.7546771E-02  0.1135699E+00
         21   -1    0    0  501  502  0.00000000000E+00  0.00000000000E+00  0.19310765349E+03  0.19310765349E+03  0.00000000000E+00 0. -1.
         21   -1    0    0  502  503 -0.00000000000E+00 -0.00000000000E+00 -0.24537859087E+03  0.24537859087E+03  0.00000000000E+00 0.  1.
          6    1    1    2  501    0 -0.73439824536E+02  0.10963224760E+03 -0.19542745307E+02  0.21845721878E+03  0.17300000000E+03 0. -1.
         -6    1    1    2    0  503  0.73439824536E+02 -0.10963224760E+03 -0.32728192071E+02  0.22002902558E+03  0.17300000000E+03 0.  1.
<mgrwt>
<rscale>  2 0.21758134E+03</rscale>
<asrwt>0</asrwt>
<pdfrwt beam="1">  1       21 0.29708870E-01 0.21758134E+03</pdfrwt>
<pdfrwt beam="2">  1       21 0.37750552E-01 0.21758134E+03</pdfrwt>
<totfact> 0.72711643E+04</totfact>
</mgrwt>
</event>
<event>
 4    1  0.3883260E+000  0.2114775E+03  0.7546771E-02  0.1140401E+00
         21   -1    0    0  501  502  0.00000000000E+00  0.00000000000E+00  0.15960289506E+03  0.15960289506E+03  0.00000000000E+00 0.  1.
         21   -1    0    0  502  503 -0.00000000000E+00 -0.00000000000E+00 -0.70842870109E+03  0.70842870109E+03  0.00000000000E+00 0. -1.
          6    1    1    2  501    0  0.99835448193E+02 -0.69473787945E+02  0.63021235640E+02  0.22066807669E+03  0.17300000000E+03 0.  1.
         -6    1    1    2    0  503 -0.99835448193E+02  0.69473787945E+02 -0.61184704167E+03  0.64736351946E+03  0.17300000000E+03 0. -1.
<mgrwt>
<rscale>  2 0.21147748E+03</rscale>
<asrwt>0</asrwt>
<pdfrwt beam="1">  1       21 0.24554292E-01 0.21147748E+03</pdfrwt>
<pdfrwt beam="2">  1       21 0.10898903E+00 0.21147748E+03</pdfrwt>
<totfact> 0.10332374E+04</totfact>
</mgrwt>
</event>
<event>
 4    1  0.3883260E+000  0.1892719E+03  0.7546771E-02  0.1159120E+00
         21   -1    0    0  503  502  0.00000000000E+00  0.00000000000E+00  0.14582328452E+04  0.14582328452E+04  0.00000000000E+00 0.  1.
         21   -1    0    0  501  503 -0.00000000000E+00 -0.00000000000E+00 -0.54638019268E+02  0.54638019268E+02  0.00000000000E+00 0. -1.
          6    1    1    2  501    0 -0.73894367879E+02 -0.20843652040E+02  0.14061856732E+03  0.23579104502E+03  0.17300000000E+03 0. -1.
         -6    1    1    2    0  502  0.73894367879E+02  0.20843652040E+02  0.12629762586E+04  0.12770798194E+04  0.17300000000E+03 0.  1.
<mgrwt>
<rscale>  2 0.18927186E+03</rscale>
<asrwt>0</asrwt>
<pdfrwt beam="1">  1       21 0.22434349E+00 0.18927186E+03</pdfrwt>
<pdfrwt beam="2">  1       21 0.84058502E-02 0.18927186E+03</pdfrwt>
<totfact> 0.10449149E+04</totfact>
</mgrwt>
</event>
<event>
 4    1  0.3883260E+000  0.2789958E+03  0.7546771E-02  0.1096239E+00
         21   -1    0    0  501  502  0.00000000000E+00  0.00000000000E+00  0.11294769106E+03  0.11294769106E+03  0.00000000000E+00 0.  1.
         21   -1    0    0  502  503 -0.00000000000E+00 -0.00000000000E+00 -0.20659066865E+04  0.20659066865E+04  0.00000000000E+00 0. -1.
          6    1    1    2  501    0  0.18783246745E+03  0.11237717972E+03 -0.87134251590E+02  0.29228589455E+03  0.17300000000E+03 0.  1.
         -6    1    1    2    0  503 -0.18783246745E+03 -0.11237717972E+03 -0.18658247439E+04  0.18865684830E+04  0.17300000000E+03 0. -1.
<mgrwt>
<rscale>  2 0.27899582E+03</rscale>
<asrwt>0</asrwt>
<pdfrwt beam="1">  1       21 0.17376569E-01 0.27899582E+03</pdfrwt>
<pdfrwt beam="2">  1       21 0.31783178E+00 0.27899582E+03</pdfrwt>
<totfact> 0.72896328E+02</totfact>
</mgrwt>
</event>
<event>
 4    1  0.3883260E+000  0.1885661E+03  0.7546771E-02  0.1159761E+00
         21   -1    0    0  501  502  0.00000000000E+00  0.00000000000E+00  0.12317968596E+04  0.12317968596E+04  0.00000000000E+00 0. -1.
         21   -1    0    0  502  503 -0.00000000000E+00 -0.00000000000E+00 -0.48625972370E+02  0.48625972370E+02  0.00000000000E+00 0. -1.
          6    1    1    2  501    0 -0.22471868714E+02  0.71576392860E+02  0.99969934621E+03  0.10173278467E+04  0.17300000000E+03 0. -1.
         -6    1    1    2    0  503  0.22471868714E+02 -0.71576392860E+02  0.18347154101E+03  0.26309498524E+03  0.17300000000E+03 0. -1.
<mgrwt>
<rscale>  2 0.18856608E+03</rscale>
<asrwt>0</asrwt>
<pdfrwt beam="1">  1       21 0.18950718E+00 0.18856608E+03</pdfrwt>
<pdfrwt beam="2">  1       21 0.74809198E-02 0.18856608E+03</pdfrwt>
<totfact> 0.21251821E+04</totfact>
</mgrwt>
</event>
<event>
 4    1  0.3883260E+000  0.1974704E+03  0.7546771E-02  0.1151891E+00
         21   -1    0    0  501  502  0.00000000000E+00  0.00000000000E+00  0.37999670139E+02  0.37999670139E+02  0.00000000000E+00 0.  1.
         21   -1    0    0  502  503 -0.00000000000E+00 -0.00000000000E+00 -0.10267943608E+04  0.10267943608E+04  0.00000000000E+00 0. -1.
          6    1    1    2  501    0 -0.85841415807E+02  0.41192260724E+02 -0.48138832412E+03  0.52031650907E+03  0.17300000000E+03 0.  1.
         -6    1    1    2    0  503  0.85841415807E+02 -0.41192260724E+02 -0.50740636650E+03  0.54447752183E+03  0.17300000000E+03 0.  1.
<mgrwt>
<rscale>  2 0.19747038E+03</rscale>
<asrwt>0</asrwt>
<pdfrwt beam="1">  1       21 0.58461030E-02 0.19747038E+03</pdfrwt>
<pdfrwt beam="2">  1       21 0.15796837E+00 0.19747038E+03</pdfrwt>
<totfact> 0.53551993E+04</totfact>
</mgrwt>
</event>
<event>
 4    1  0.3883260E+000  0.1900641E+03  0.7546771E-02  0.1158404E+00
         21   -1    0    0  503  502  0.00000000000E+00  0.00000000000E+00  0.31629851378E+03  0.31629851378E+03  0.00000000000E+00 0.  1.
         21   -1    0    0  501  503 -0.00000000000E+00 -0.00000000000E+00 -0.28216558652E+03  0.28216558652E+03  0.00000000000E+00 0.  1.
          6    1    1    2  501    0  0.78705673680E+02 -0.87997996644E+00 -0.21379620106E+03  0.28606498042E+03  0.17300000000E+03 0.  1.
         -6    1    1    2    0  502 -0.78705673680E+02  0.87997996644E+00  0.24792912832E+03  0.31239911988E+03  0.17300000000E+03 0.  1.
<mgrwt>
<rscale>  2 0.19006409E+03</rscale>
<asrwt>0</asrwt>
<pdfrwt beam="1">  1       21 0.48661310E-01 0.19006409E+03</pdfrwt>
<pdfrwt beam="2">  1       21 0.43410090E-01 0.19006409E+03</pdfrwt>
<totfact> 0.20598043E+04</totfact>
</mgrwt>
</event>
<event>
 4    1  0.3883260E+000  0.1879676E+03  0.7546771E-02  0.1160307E+00
         21   -1    0    0  503  502  0.00000000000E+00  0.00000000000E+00  0.56994147355E+03  0.56994147355E+03  0.00000000000E+00 0.  1.
         21   -1    0    0  501  503 -0.00000000000E+00 -0.00000000000E+00 -0.63477423051E+02  0.63477423051E+02  0.00000000000E+00 0.  1.
          6    1    1    2  501    0  0.71518566705E+02  0.16968186136E+02  0.20478432709E+03  0.27797202260E+03  0.17300000000E+03 0.  1.
         -6    1    1    2    0  502 -0.71518566705E+02 -0.16968186136E+02  0.30167972341E+03  0.35544687401E+03  0.17300000000E+03 0.  1.
<mgrwt>
<rscale>  2 0.18796762E+03</rscale>
<asrwt>0</asrwt>
<pdfrwt beam="1">  1       21 0.87683300E-01 0.18796762E+03</pdfrwt>
<pdfrwt beam="2">  1       21 0.97657578E-02 0.18796762E+03</pdfrwt>
<totfact> 0.94587618E+04</totfact>
</mgrwt>
</event>
<event>
 4    1  0.3883260E+000  0.1912531E+03  0.7546771E-02  0.1157336E+00
         21   -1    0    0  501  502  0.00000000000E+00  0.00000000000E+00  0.59470742270E+03  0.59470742270E+03  0.00000000000E+00 0. -1.
         21   -1    0    0  502  503 -0.00000000000E+00 -0.00000000000E+00 -0.63504573139E+02  0.63504573139E+02  0.00000000000E+00 0. -1.
          6    1    1    2  501    0 -0.30902049681E+01 -0.81481172268E+02  0.32399380082E+03  0.37623093144E+03  0.17300000000E+03 0. -1.
         -6    1    1    2    0  503  0.30902049681E+01  0.81481172268E+02  0.20720904874E+03  0.28198106440E+03  0.17300000000E+03 0. -1.
<mgrwt>
<rscale>  2 0.19125305E+03</rscale>
<asrwt>0</asrwt>
<pdfrwt beam="1">  1       21 0.91493446E-01 0.19125305E+03</pdfrwt>
<pdfrwt beam="2">  1       21 0.97699347E-02 0.19125305E+03</pdfrwt>
<totfact> 0.85553378E+04</totfact>
</mgrwt>
</event>
<event>
 4    1  0.3883260E+000  0.2310389E+03  0.7546771E-02  0.1125911E+00
         21   -1    0    0  501  502  0.00000000000E+00  0.00000000000E+00  0.64001163181E+03  0.64001163181E+03  0.00000000000E+00 0. -1.
         21   -1    0    0  502  503 -0.00000000000E+00 -0.00000000000E+00 -0.10911694947E+03  0.10911694947E+03  0.00000000000E+00 0.  1.
          6    1    1    2  501    0 -0.41995248744E+01 -0.15307627885E+03  0.44727645778E+03  0.50342349254E+03  0.17300000000E+03 0. -1.
         -6    1    1    2    0  503  0.41995248744E+01  0.15307627885E+03  0.83618224566E+02  0.24570508875E+03  0.17300000000E+03 0.  1.
<mgrwt>
<rscale>  2 0.23103892E+03</rscale>
<asrwt>0</asrwt>
<pdfrwt beam="1">  1       21 0.98463326E-01 0.23103892E+03</pdfrwt>
<pdfrwt beam="2">  1       21 0.16787223E-01 0.23103892E+03</pdfrwt>
<totfact> 0.26615115E+04</totfact>
</mgrwt>
</event>
<event>
 4    1  0.3883260E+000  0.1903907E+03  0.7546771E-02  0.1158109E+00
         21   -1    0    0  501  502  0.00000000000E+00  0.00000000000E+00  0.13173832351E+03  0.13173832351E+03  0.00000000000E+00 0. -1.
         21   -1    0    0  502  503 -0.00000000000E+00 -0.00000000000E+00 -0.29584758698E+03  0.29584758698E+03  0.00000000000E+00 0. -1.
          6    1    1    2  501    0  0.23672924583E+01 -0.79460703941E+02 -0.25514750837E+02  0.19209271213E+03  0.17300000000E+03 0. -1.
         -6    1    1    2    0  503 -0.23672924583E+01  0.79460703941E+02 -0.13859451263E+03  0.23549319837E+03  0.17300000000E+03 0. -1.
<mgrwt>
<rscale>  2 0.19039067E+03</rscale>
<asrwt>0</asrwt>
<pdfrwt beam="1">  1       21 0.20267435E-01 0.19039067E+03</pdfrwt>
<pdfrwt beam="2">  1       21 0.45515013E-01 0.19039067E+03</pdfrwt>
<totfact> 0.10432466E+05</totfact>
</mgrwt>
</event>
<event>
 4    1  0.3883260E+000  0.2340201E+03  0.7546771E-02  0.1123842E+00
         21   -1    0    0  503  502  0.00000000000E+00  0.00000000000E+00  0.53718920591E+03  0.53718920591E+03  0.00000000000E+00 0. -1.
         21   -1    0    0  501  503 -0.00000000000E+00 -0.00000000000E+00 -0.39674328697E+03  0.39674328697E+03  0.00000000000E+00 0.  1.
          6    1    1    2  501    0  0.96656163446E+02  0.12447483337E+03 -0.33230024280E+03  0.40643431135E+03  0.17300000000E+03 0.  1.
         -6    1    1    2    0  502 -0.96656163446E+02 -0.12447483337E+03  0.47274616175E+03  0.52749818153E+03  0.17300000000E+03 0. -1.
<mgrwt>
<rscale>  2 0.23402008E+03</rscale>
<asrwt>0</asrwt>
<pdfrwt beam="1">  1       21 0.82644493E-01 0.23402008E+03</pdfrwt>
<pdfrwt beam="2">  1       21 0.61037429E-01 0.23402008E+03</pdfrwt>
<totfact> 0.30880896E+03</totfact>
</mgrwt>
</event>
<event>
 4    1  0.3883260E+000  0.2090051E+03  0.7546771E-02  0.1142356E+00
         21   -1    0    0  501  502  0.00000000000E+00  0.00000000000E+00  0.56417498460E+03  0.56417498460E+03  0.00000000000E+00 0.  1.
         21   -1    0    0  502  503 -0.00000000000E+00 -0.00000000000E+00 -0.83888544356E+02  0.83888544356E+02  0.00000000000E+00 0. -1.
          6    1    1    2  501    0 -0.11093768203E+03 -0.38038933931E+02  0.33006389292E+03  0.39067288516E+03  0.17300000000E+03 0.  1.
         -6    1    1    2    0  503  0.11093768203E+03  0.38038933931E+02  0.15022254732E+03  0.25739064380E+03  0.17300000000E+03 0. -1.
<mgrwt>
<rscale>  2 0.20900510E+03</rscale>
<asrwt>0</asrwt>
<pdfrwt beam="1">  1       21 0.86796149E-01 0.20900510E+03</pdfrwt>
<pdfrwt beam="2">  1       21 0.12905930E-01 0.20900510E+03</pdfrwt>
<totfact> 0.58359898E+04</totfact>
</mgrwt>
</event>
<event>
 4    1  0.3883260E+000  0.2143952E+03  0.7546771E-02  0.1138132E+00
         21   -1    0    0  501  502  0.00000000000E+00  0.00000000000E+00  0.80183552012E+03  0.80183552012E+03  0.00000000000E+00 0. -1.
         21   -1    0    0  502  503 -0.00000000000E+00 -0.00000000000E+00 -0.60680877809E+02  0.60680877809E+02  0.00000000000E+00 0.  1.
          6    1    1    2  501    0  0.96373369184E+01  0.12626732794E+03  0.47199340267E+03  0.51840436778E+03  0.17300000000E+03 0. -1.
         -6    1    1    2    0  503 -0.96373369184E+01 -0.12626732794E+03  0.26916123963E+03  0.34411203014E+03  0.17300000000E+03 0. -1.
<mgrwt>
<rscale>  2 0.21439523E+03</rscale>
<asrwt>0</asrwt>
<pdfrwt beam="1">  1       21 0.12335930E+00 0.21439523E+03</pdfrwt>
<pdfrwt beam="2">  1       21 0.93355202E-02 0.21439523E+03</pdfrwt>
<totfact> 0.44637252E+04</totfact>
</mgrwt>
</event>
<event>
 4    1  0.3883260E+000  0.1898630E+03  0.7546771E-02  0.1158585E+00
         21   -1    0    0  501  502  0.00000000000E+00  0.00000000000E+00  0.40260421666E+03  0.40260421666E+03  0.00000000000E+00 0. -1.
         21   -1    0    0  502  503 -0.00000000000E+00 -0.00000000000E+00 -0.10015958206E+03  0.10015958206E+03  0.00000000000E+00 0. -1.
          6    1    1    2  501    0  0.71974613271E+02 -0.30636848743E+02  0.23308828934E+03  0.30062952630E+03  0.17300000000E+03 0. -1.
         -6    1    1    2    0  503 -0.71974613271E+02  0.30636848743E+02  0.69356345258E+02  0.20213427241E+03  0.17300000000E+03 0. -1.
<mgrwt>
<rscale>  2 0.18986301E+03</rscale>
<asrwt>0</asrwt>
<pdfrwt beam="1">  1       21 0.61939110E-01 0.18986301E+03</pdfrwt>
<pdfrwt beam="2">  1       21 0.15409167E-01 0.18986301E+03</pdfrwt>
<totfact> 0.90478370E+04</totfact>
</mgrwt>
</event>
<event>
 4    1  0.3883260E+000  0.2195872E+03  0.7546771E-02  0.1134191E+00
         21   -1    0    0  503  502  0.00000000000E+00  0.00000000000E+00  0.20136659070E+03  0.20136659070E+03  0.00000000000E+00 0.  1.
         21   -1    0    0  501  503 -0.00000000000E+00 -0.00000000000E+00 -0.24199822208E+03  0.24199822208E+03  0.00000000000E+00 0.  1.
          6    1    1    2  501    0 -0.12994710657E+03  0.37460261423E+02 -0.43035198251E+02  0.22376449669E+03  0.17300000000E+03 0.  1.
         -6    1    1    2    0  502  0.12994710657E+03 -0.37460261423E+02  0.24035668776E+01  0.21960031609E+03  0.17300000000E+03 0.  1.
<mgrwt>
<rscale>  2 0.21958716E+03</rscale>
<asrwt>0</asrwt>
<pdfrwt beam="1">  1       21 0.30979476E-01 0.21958716E+03</pdfrwt>
<pdfrwt beam="2">  1       21 0.37230496E-01 0.21958716E+03</pdfrwt>
<totfact> 0.68824246E+04</totfact>
</mgrwt>
</event>
<event>
 4    1  0.3883260E+000  0.2520288E+03  0.7546771E-02  0.1112029E+00
         21   -1    0    0  503  502  0.00000000000E+00  0.00000000000E+00  0.50826503914E+03  0.50826503914E+03  0.00000000000E+00 0. -1.
         21   -1    0    0  501  503 -0.00000000000E+00 -0.00000000000E+00 -0.15895946889E+03  0.15895946889E+03  0.00000000000E+00 0. -1.
          6    1    1    2  501    0  0.16691316879E+03 -0.75693500575E+02  0.20389326832E+02  0.25285220306E+03  0.17300000000E+03 0. -1.
         -6    1    1    2    0  502 -0.16691316879E+03  0.75693500575E+02  0.32891624342E+03  0.41437230497E+03  0.17300000000E+03 0. -1.
<mgrwt>
<rscale>  2 0.25202879E+03</rscale>
<asrwt>0</asrwt>
<pdfrwt beam="1">  1       21 0.78194621E-01 0.25202879E+03</pdfrwt>
<pdfrwt beam="2">  1       21 0.24455303E-01 0.25202879E+03</pdfrwt>
<totfact> 0.22153824E+04</totfact>
</mgrwt>
</event>
<event>
 4    1  0.3883260E+000  0.1759003E+03  0.7546771E-02  0.1171831E+00
         21   -1    0    0  503  502  0.00000000000E+00  0.00000000000E+00  0.63410619144E+02  0.63410619144E+02  0.00000000000E+00 0.  1.
         21   -1    0    0  501  503 -0.00000000000E+00 -0.00000000000E+00 -0.54303117926E+03  0.54303117926E+03  0.00000000000E+00 0.  1.
          6    1    1    2  501    0  0.19386865570E+02  0.25220589898E+02 -0.33638555441E+03  0.37960001308E+03  0.17300000000E+03 0. -1.
         -6    1    1    2    0  502 -0.19386865570E+02 -0.25220589898E+02 -0.14323500571E+03  0.22684178533E+03  0.17300000000E+03 0. -1.
<mgrwt>
<rscale>  2 0.17590034E+03</rscale>
<asrwt>0</asrwt>
<pdfrwt beam="1">  1       21 0.97554798E-02 0.17590034E+03</pdfrwt>
<pdfrwt beam="2">  1       21 0.83543259E-01 0.17590034E+03</pdfrwt>
<totfact> 0.10636163E+05</totfact>
</mgrwt>
</event>
<event>
 4    1  0.3883260E+000  0.1987417E+03  0.7546771E-02  0.1150805E+00
         21   -1    0    0  503  502  0.00000000000E+00  0.00000000000E+00  0.13822779327E+03  0.13822779327E+03  0.00000000000E+00 0. -1.
         21   -1    0    0  501  503 -0.00000000000E+00 -0.00000000000E+00 -0.29055061037E+03  0.29055061037E+03  0.00000000000E+00 0. -1.
          6    1    1    2  501    0 -0.97821043515E+02 -0.57125441655E+00 -0.10372535179E+03  0.22418124696E+03  0.17300000000E+03 0. -1.
         -6    1    1    2    0  502  0.97821043515E+02  0.57125441655E+00 -0.48597465309E+02  0.20459715668E+03  0.17300000000E+03 0. -1.
<mgrwt>
<rscale>  2 0.19874175E+03</rscale>
<asrwt>0</asrwt>
<pdfrwt beam="1">  1       21 0.21265815E-01 0.19874175E+03</pdfrwt>
<pdfrwt beam="2">  1       21 0.44700093E-01 0.19874175E+03</pdfrwt>
<totfact> 0.98608334E+04</totfact>
</mgrwt>
</event>
<event>
 4    1  0.3883260E+000  0.1957916E+03  0.7546771E-02  0.1153339E+00
         21   -1    0    0  503  502  0.00000000000E+00  0.00000000000E+00  0.13285107918E+03  0.13285107918E+03  0.00000000000E+00 0.  1.
         21   -1    0    0  501  503 -0.00000000000E+00 -0.00000000000E+00 -0.29577025509E+03  0.29577025509E+03  0.00000000000E+00 0.  1.
          6    1    1    2  501    0  0.15262794689E+02 -0.90401279392E+02 -0.47978051241E+02  0.20158431888E+03  0.17300000000E+03 0.  1.
         -6    1    1    2    0  502 -0.15262794689E+02  0.90401279392E+02 -0.11494112467E+03  0.22703701539E+03  0.17300000000E+03 0.  1.
<mgrwt>
<rscale>  2 0.19579158E+03</rscale>
<asrwt>0</asrwt>
<pdfrwt beam="1">  1       21 0.20438628E-01 0.19579158E+03</pdfrwt>
<pdfrwt beam="2">  1       21 0.45503116E-01 0.19579158E+03</pdfrwt>
<totfact> 0.10253634E+05</totfact>
</mgrwt>
</event>
<event>
 4    1  0.3883260E+000  0.3215039E+03  0.7546771E-02  0.1074959E+00
         21   -1    0    0  501  502  0.00000000000E+00  0.00000000000E+00  0.19138370971E+03  0.19138370971E+03  0.00000000000E+00 0. -1.
         21   -1    0    0  502  503 -0.00000000000E+00 -0.00000000000E+00 -0.81475690912E+03  0.81475690912E+03  0.00000000000E+00 0.  1.
          6    1    1    2  501    0  0.26500022342E+03 -0.56662653112E+02 -0.19596795385E+02  0.32210061946E+03  0.17300000000E+03 0. -1.
         -6    1    1    2    0  503 -0.26500022342E+03  0.56662653112E+02 -0.60377640403E+03  0.68403999937E+03  0.17300000000E+03 0.  1.
<mgrwt>
<rscale>  2 0.32150393E+03</rscale>
<asrwt>0</asrwt>
<pdfrwt beam="1">  1       21 0.29443648E-01 0.32150393E+03</pdfrwt>
<pdfrwt beam="2">  1       21 0.12534722E+00 0.32150393E+03</pdfrwt>
<totfact> 0.48228224E+03</totfact>
</mgrwt>
</event>
<event>
 4    1  0.3883260E+000  0.1939874E+03  0.7546771E-02  0.1154913E+00
         21   -1    0    0  503  502  0.00000000000E+00  0.00000000000E+00  0.24567662223E+03  0.24567662223E+03  0.00000000000E+00 0.  1.
         21   -1    0    0  501  503 -0.00000000000E+00 -0.00000000000E+00 -0.22731135159E+03  0.22731135159E+03  0.00000000000E+00 0.  1.
          6    1    1    2  501    0 -0.35340975731E+02 -0.80331418054E+02 -0.12587833284E+03  0.23124981291E+03  0.17300000000E+03 0.  1.
         -6    1    1    2    0  502  0.35340975731E+02  0.80331418054E+02  0.14424360348E+03  0.24173816091E+03  0.17300000000E+03 0.  1.
<mgrwt>
<rscale>  2 0.19398743E+03</rscale>
<asrwt>0</asrwt>
<pdfrwt beam="1">  1       21 0.37796404E-01 0.19398743E+03</pdfrwt>
<pdfrwt beam="2">  1       21 0.34970977E-01 0.19398743E+03</pdfrwt>
<totfact> 0.53182489E+04</totfact>
</mgrwt>
</event>
<event>
 4    1  0.3883260E+000  0.1737135E+03  0.7546771E-02  0.1174030E+00
         21   -1    0    0  501  502  0.00000000000E+00  0.00000000000E+00  0.40742604671E+03  0.40742604671E+03  0.00000000000E+00 0. -1.
         21   -1    0    0  502  503 -0.00000000000E+00 -0.00000000000E+00 -0.76346102748E+02  0.76346102748E+02  0.00000000000E+00 0. -1.
          6    1    1    2  501    0 -0.34781231119E+01 -0.15339232376E+02  0.20734237307E+03  0.27049445292E+03  0.17300000000E+03 0. -1.
         -6    1    1    2    0  503  0.34781231119E+01  0.15339232376E+02  0.12373757089E+03  0.21327769654E+03  0.17300000000E+03 0. -1.
<mgrwt>
<rscale>  2 0.17371353E+03</rscale>
<asrwt>0</asrwt>
<pdfrwt beam="1">  1       21 0.62680929E-01 0.17371353E+03</pdfrwt>
<pdfrwt beam="2">  1       21 0.11745555E-01 0.17371353E+03</pdfrwt>
<totfact> 0.14472080E+05</totfact>
</mgrwt>
</event>
<event>
 4    1  0.3883260E+000  0.1746863E+03  0.7546771E-02  0.1173047E+00
         21   -1    0    0  503  502  0.00000000000E+00  0.00000000000E+00  0.10280110657E+04  0.10280110657E+04  0.00000000000E+00 0.  1.
         21   -1    0    0  501  503 -0.00000000000E+00 -0.00000000000E+00 -0.29715831142E+02  0.29715831142E+02  0.00000000000E+00 0.  1.
          6    1    1    2  501    0 -0.23247169649E+02 -0.67717797624E+01  0.48178760974E+03  0.51247886669E+03  0.17300000000E+03 0.  1.
         -6    1    1    2    0  502  0.23247169649E+02  0.67717797624E+01  0.51650762482E+03  0.54524803016E+03  0.17300000000E+03 0.  1.
<mgrwt>
<rscale>  2 0.17468626E+03</rscale>
<asrwt>0</asrwt>
<pdfrwt beam="1">  1       21 0.15815552E+00 0.17468626E+03</pdfrwt>
<pdfrwt beam="2">  1       21 0.45716671E-02 0.17468626E+03</pdfrwt>
<totfact> 0.82039882E+04</totfact>
</mgrwt>
</event>
<event>
 4    1  0.3883260E+000  0.2127791E+03  0.7546771E-02  0.1139384E+00
         21   -1    0    0  503  502  0.00000000000E+00  0.00000000000E+00  0.29467026685E+03  0.29467026685E+03  0.00000000000E+00 0. -1.
         21   -1    0    0  501  503 -0.00000000000E+00 -0.00000000000E+00 -0.28227054213E+03  0.28227054213E+03  0.00000000000E+00 0.  1.
          6    1    1    2  501    0  0.24743099139E+02  0.12138262252E+03 -0.18852889627E+03  0.28428525592E+03  0.17300000000E+03 0.  1.
         -6    1    1    2    0  502 -0.24743099139E+02 -0.12138262252E+03  0.20092862099E+03  0.29265555306E+03  0.17300000000E+03 0. -1.
<mgrwt>
<rscale>  2 0.21277914E+03</rscale>
<asrwt>0</asrwt>
<pdfrwt beam="1">  1       21 0.45333887E-01 0.21277914E+03</pdfrwt>
<pdfrwt beam="2">  1       21 0.43426237E-01 0.21277914E+03</pdfrwt>
<totfact> 0.23517476E+04</totfact>
</mgrwt>
</event>
<event>
 4    1  0.3883260E+000  0.1902347E+03  0.7546771E-02  0.1158250E+00
         21   -1    0    0  503  502  0.00000000000E+00  0.00000000000E+00  0.21228621852E+03  0.21228621852E+03  0.00000000000E+00 0. -1.
         21   -1    0    0  501  503 -0.00000000000E+00 -0.00000000000E+00 -0.17053506542E+03  0.17053506542E+03  0.00000000000E+00 0. -1.
          6    1    1    2  501    0  0.37665189880E+02  0.69581330631E+02  0.17246148973E+02  0.19101481030E+03  0.17300000000E+03 0. -1.
         -6    1    1    2    0  502 -0.37665189880E+02 -0.69581330631E+02  0.24505004120E+02  0.19180647363E+03  0.17300000000E+03 0. -1.
<mgrwt>
<rscale>  2 0.19023467E+03</rscale>
<asrwt>0</asrwt>
<pdfrwt beam="1">  1       21 0.32659418E-01 0.19023467E+03</pdfrwt>
<pdfrwt beam="2">  1       21 0.26236164E-01 0.19023467E+03</pdfrwt>
<totfact> 0.12471942E+05</totfact>
</mgrwt>
</event>
<event>
 4    1  0.3883260E+000  0.1921649E+03  0.7546771E-02  0.1156523E+00
         21   -1    0    0  501  502  0.00000000000E+00  0.00000000000E+00  0.17276134281E+03  0.17276134281E+03  0.00000000000E+00 0. -1.
         21   -1    0    0  502  503 -0.00000000000E+00 -0.00000000000E+00 -0.33510850502E+03  0.33510850502E+03  0.00000000000E+00 0.  1.
          6    1    1    2  501    0  0.44899396268E+02  0.70586121905E+02  0.71642395041E+02  0.20508532165E+03  0.17300000000E+03 0. -1.
         -6    1    1    2    0  503 -0.44899396268E+02 -0.70586121905E+02 -0.23398955725E+03  0.30278452618E+03  0.17300000000E+03 0.  1.
<mgrwt>
<rscale>  2 0.19216492E+03</rscale>
<asrwt>0</asrwt>
<pdfrwt beam="1">  1       21 0.26578668E-01 0.19216492E+03</pdfrwt>
<pdfrwt beam="2">  1       21 0.51555155E-01 0.19216492E+03</pdfrwt>
<totfact> 0.48159854E+04</totfact>
</mgrwt>
</event>
<event>
 4    1  0.3883260E+000  0.1768487E+03  0.7546771E-02  0.1170888E+00
         21   -1    0    0  501  502  0.00000000000E+00  0.00000000000E+00  0.10242976780E+03  0.10242976780E+03  0.00000000000E+00 0.  1.
         21   -1    0    0  502  503 -0.00000000000E+00 -0.00000000000E+00 -0.33446513692E+03  0.33446513692E+03  0.00000000000E+00 0.  1.
          6    1    1    2  501    0  0.42081382100E+01  0.36451886860E+02 -0.51550486871E+02  0.18420885207E+03  0.17300000000E+03 0.  1.
         -6    1    1    2    0  503 -0.42081382100E+01 -0.36451886860E+02 -0.18048488225E+03  0.25268605265E+03  0.17300000000E+03 0.  1.
<mgrwt>
<rscale>  2 0.17684866E+03</rscale>
<asrwt>0</asrwt>
<pdfrwt beam="1">  1       21 0.15758426E-01 0.17684866E+03</pdfrwt>
<pdfrwt beam="2">  1       21 0.51456176E-01 0.17684866E+03</pdfrwt>
<totfact> 0.12936659E+05</totfact>
</mgrwt>
</event>
<event>
 4    1  0.3883260E+000  0.2046472E+03  0.7546771E-02  0.1145876E+00
         21   -1    0    0  503  502  0.00000000000E+00  0.00000000000E+00  0.43050257626E+03  0.43050257626E+03  0.00000000000E+00 0. -1.
         21   -1    0    0  501  503 -0.00000000000E+00 -0.00000000000E+00 -0.15305726823E+03  0.15305726823E+03  0.00000000000E+00 0.  1.
          6    1    1    2  501    0  0.29590213534E+02 -0.10524200133E+03 -0.37412674639E+02  0.20803886128E+03  0.17300000000E+03 0.  1.
         -6    1    1    2    0  502 -0.29590213534E+02  0.10524200133E+03  0.31485798267E+03  0.37552098321E+03  0.17300000000E+03 0. -1.
<mgrwt>
<rscale>  2 0.20464716E+03</rscale>
<asrwt>0</asrwt>
<pdfrwt beam="1">  1       21 0.66231165E-01 0.20464716E+03</pdfrwt>
<pdfrwt beam="2">  1       21 0.23547272E-01 0.20464716E+03</pdfrwt>
<totfact> 0.35286736E+04</totfact>
</mgrwt>
</event>
<event>
 4    1  0.3883260E+000  0.1818995E+03  0.7546771E-02  0.1165977E+00
         21   -1    0    0  501  502  0.00000000000E+00  0.00000000000E+00  0.38816706661E+03  0.38816706661E+03  0.00000000000E+00 0.  1.
         21   -1    0    0  502  503 -0.00000000000E+00 -0.00000000000E+00 -0.13067587801E+03  0.13067587801E+03  0.00000000000E+00 0.  1.
          6    1    1    2  501    0  0.50169340824E+02 -0.25327135307E+02  0.28171580288E+03  0.33533747201E+03  0.17300000000E+03 0.  1.
         -6    1    1    2    0  503 -0.50169340824E+02  0.25327135307E+02 -0.24224614270E+02  0.18350547261E+03  0.17300000000E+03 0.  1.
<mgrwt>
<rscale>  2 0.18189950E+03</rscale>
<asrwt>0</asrwt>
<pdfrwt beam="1">  1       21 0.59718009E-01 0.18189950E+03</pdfrwt>
<pdfrwt beam="2">  1       21 0.20103981E-01 0.18189950E+03</pdfrwt>
<totfact> 0.60127322E+04</totfact>
</mgrwt>
</event>
<event>
 4    1  0.3883260E+000  0.2045725E+03  0.7546771E-02  0.1145938E+00
         21   -1    0    0  503  502  0.00000000000E+00  0.00000000000E+00  0.89195999632E+02  0.89195999632E+02  0.00000000000E+00 0. -1.
         21   -1    0    0  501  503 -0.00000000000E+00 -0.00000000000E+00 -0.49166490217E+03  0.49166490217E+03  0.00000000000E+00 0.  1.
          6    1    1    2  501    0  0.19290250208E+02 -0.10746529187E+03 -0.26332893534E+03  0.33345469092E+03  0.17300000000E+03 0.  1.
         -6    1    1    2    0  502 -0.19290250208E+02  0.10746529187E+03 -0.13913996720E+03  0.24740621088E+03  0.17300000000E+03 0. -1.
<mgrwt>
<rscale>  2 0.20457249E+03</rscale>
<asrwt>0</asrwt>
<pdfrwt beam="1">  1       21 0.13722461E-01 0.20457249E+03</pdfrwt>
<pdfrwt beam="2">  1       21 0.75640755E-01 0.20457249E+03</pdfrwt>
<totfact> 0.71534008E+04</totfact>
</mgrwt>
</event>
<event>
 4    1  0.3883260E+000  0.2363695E+03  0.7546771E-02  0.1122235E+00
         21   -1    0    0  503  502  0.00000000000E+00  0.00000000000E+00  0.30054593094E+03  0.30054593094E+03  0.00000000000E+00 0.  1.
         21   -1    0    0  501  503 -0.00000000000E+00 -0.00000000000E+00 -0.23267215007E+03  0.23267215007E+03  0.00000000000E+00 0.  1.
          6    1    1    2  501    0  0.85615438086E+02 -0.13642415722E+03 -0.85602427924E+02  0.25139277949E+03  0.17300000000E+03 0.  1.
         -6    1    1    2    0  502 -0.85615438086E+02  0.13642415722E+03  0.15347620880E+03  0.28182530152E+03  0.17300000000E+03 0.  1.
<mgrwt>
<rscale>  2 0.23636953E+03</rscale>
<asrwt>0</asrwt>
<pdfrwt beam="1">  1       21 0.46237836E-01 0.23636953E+03</pdfrwt>
<pdfrwt beam="2">  1       21 0.35795715E-01 0.23636953E+03</pdfrwt>
<totfact> 0.32988515E+04</totfact>
</mgrwt>
</event>
<event>
 4    1  0.3883260E+000  0.1769859E+03  0.7546771E-02  0.1170752E+00
         21   -1    0    0  503  502  0.00000000000E+00  0.00000000000E+00  0.12139970050E+04  0.12139970050E+04  0.00000000000E+00 0. -1.
         21   -1    0    0  501  503 -0.00000000000E+00 -0.00000000000E+00 -0.34785126014E+02  0.34785126014E+02  0.00000000000E+00 0. -1.
          6    1    1    2  501    0 -0.31535036874E+02  0.20013702122E+02  0.27230997134E+03  0.32477180806E+03  0.17300000000E+03 0. -1.
         -6    1    1    2    0  502  0.31535036874E+02 -0.20013702122E+02  0.90690190767E+03  0.92401032297E+03  0.17300000000E+03 0. -1.
<mgrwt>
<rscale>  2 0.17698589E+03</rscale>
<asrwt>0</asrwt>
<pdfrwt beam="1">  1       21 0.18676874E+00 0.17698589E+03</pdfrwt>
<pdfrwt beam="2">  1       21 0.53515588E-02 0.17698589E+03</pdfrwt>
<totfact> 0.39679200E+04</totfact>
</mgrwt>
</event>
<event>
 4    1  0.3883260E+000  0.1981878E+03  0.7546771E-02  0.1151277E+00
         21   -1    0    0  503  502  0.00000000000E+00  0.00000000000E+00  0.13790334866E+04  0.13790334866E+04  0.00000000000E+00 0. -1.
         21   -1    0    0  501  503 -0.00000000000E+00 -0.00000000000E+00 -0.41360775617E+02  0.41360775617E+02  0.00000000000E+00 0.  1.
          6    1    1    2  501    0  0.19316333218E+02  0.94743281554E+02  0.27254705408E+03  0.33698710185E+03  0.17300000000E+03 0.  1.
         -6    1    1    2    0  502 -0.19316333218E+02 -0.94743281554E+02  0.10651256569E+04  0.10834071603E+04  0.17300000000E+03 0. -1.
<mgrwt>
<rscale>  2 0.19818782E+03</rscale>
<asrwt>0</asrwt>
<pdfrwt beam="1">  1       21 0.21215896E+00 0.19818782E+03</pdfrwt>
<pdfrwt beam="2">  1       21 0.63631973E-02 0.19818782E+03</pdfrwt>
<totfact> 0.19966877E+04</totfact>
</mgrwt>
</event>
<event>
 4    1  0.3883260E+000  0.1812001E+03  0.7546771E-02  0.1166647E+00
         21   -1    0    0  503  502  0.00000000000E+00  0.00000000000E+00  0.39305720381E+02  0.39305720381E+02  0.00000000000E+00 0.  1.
         21   -1    0    0  501  503 -0.00000000000E+00 -0.00000000000E+00 -0.85930164741E+03  0.85930164741E+03  0.00000000000E+00 0.  1.
          6    1    1    2  501    0  0.95731328992E+01 -0.53036255381E+02 -0.48503235290E+03  0.51777395900E+03  0.17300000000E+03 0.  1.
         -6    1    1    2    0  502 -0.95731328992E+01  0.53036255381E+02 -0.33496357413E+03  0.38083340879E+03  0.17300000000E+03 0.  1.
<mgrwt>
<rscale>  2 0.18120014E+03</rscale>
<asrwt>0</asrwt>
<pdfrwt beam="1">  1       21 0.60470339E-02 0.18120014E+03</pdfrwt>
<pdfrwt beam="2">  1       21 0.13220025E+00 0.18120014E+03</pdfrwt>
<totfact> 0.81045104E+04</totfact>
</mgrwt>
</event>
<event>
 4    1  0.3883260E+000  0.1801722E+03  0.7546771E-02  0.1167637E+00
         21   -1    0    0  503  502  0.00000000000E+00  0.00000000000E+00  0.13935698241E+03  0.13935698241E+03  0.00000000000E+00 0.  1.
         21   -1    0    0  501  503 -0.00000000000E+00 -0.00000000000E+00 -0.23329234482E+03  0.23329234482E+03  0.00000000000E+00 0.  1.
          6    1    1    2  501    0 -0.26520595098E+02 -0.42774563215E+02 -0.39740593537E+02  0.18450289970E+03  0.17300000000E+03 0. -1.
         -6    1    1    2    0  502  0.26520595098E+02  0.42774563215E+02 -0.54194768872E+02  0.18814642754E+03  0.17300000000E+03 0. -1.
<mgrwt>
<rscale>  2 0.18017215E+03</rscale>
<asrwt>0</asrwt>
<pdfrwt beam="1">  1       21 0.21439536E-01 0.18017215E+03</pdfrwt>
<pdfrwt beam="2">  1       21 0.35891130E-01 0.18017215E+03</pdfrwt>
<totfact> 0.15229666E+05</totfact>
</mgrwt>
</event>
<event>
 4    1  0.3883260E+000  0.1812290E+03  0.7546771E-02  0.1166619E+00
         21   -1    0    0  503  502  0.00000000000E+00  0.00000000000E+00  0.55907315581E+03  0.55907315581E+03  0.00000000000E+00 0. -1.
         21   -1    0    0  501  503 -0.00000000000E+00 -0.00000000000E+00 -0.59831509148E+02  0.59831509148E+02  0.00000000000E+00 0.  1.
          6    1    1    2  501    0  0.42215784586E+02  0.33656879993E+02  0.20796131843E+03  0.27584754485E+03  0.17300000000E+03 0.  1.
         -6    1    1    2    0  502 -0.42215784586E+02 -0.33656879993E+02  0.29128032824E+03  0.34305712011E+03  0.17300000000E+03 0. -1.
<mgrwt>
<rscale>  2 0.18122902E+03</rscale>
<asrwt>0</asrwt>
<pdfrwt beam="1">  1       21 0.86011251E-01 0.18122902E+03</pdfrwt>
<pdfrwt beam="2">  1       21 0.92048479E-02 0.18122902E+03</pdfrwt>
<totfact> 0.10999068E+05</totfact>
</mgrwt>
</event>
<event>
 4    1  0.3883260E+000  0.1904841E+03  0.7546771E-02  0.1158025E+00
         21   -1    0    0  501  502  0.00000000000E+00  0.00000000000E+00  0.68645552037E+03  0.68645552037E+03  0.00000000000E+00 0.  1.
         21   -1    0    0  502  503 -0.00000000000E+00 -0.00000000000E+00 -0.89651086196E+02  0.89651086196E+02  0.00000000000E+00 0.  1.
          6    1    1    2  501    0  0.31148712070E+02 -0.73382156592E+02  0.54700206922E+03  0.57921968795E+03  0.17300000000E+03 0.  1.
         -6    1    1    2    0  503 -0.31148712070E+02  0.73382156592E+02  0.49802364953E+02  0.19688691862E+03  0.17300000000E+03 0.  1.
<mgrwt>
<rscale>  2 0.19048408E+03</rscale>
<asrwt>0</asrwt>
<pdfrwt beam="1">  1       21 0.10560854E+00 0.19048408E+03</pdfrwt>
<pdfrwt beam="2">  1       21 0.13792475E-01 0.19048408E+03</pdfrwt>
<totfact> 0.32956385E+04</totfact>
</mgrwt>
</event>
<event>
 4    1  0.3883260E+000  0.2451405E+03  0.7546771E-02  0.1116415E+00
         21   -1    0    0  503  502  0.00000000000E+00  0.00000000000E+00  0.13287268475E+04  0.13287268475E+04  0.00000000000E+00 0.  1.
         21   -1    0    0  501  503 -0.00000000000E+00 -0.00000000000E+00 -0.48252853823E+02  0.48252853823E+02  0.00000000000E+00 0.  1.
          6    1    1    2  501    0 -0.14543118102E+03 -0.94945332324E+02  0.46781757552E+03  0.52815445517E+03  0.17300000000E+03 0.  1.
         -6    1    1    2    0  502  0.14543118102E+03  0.94945332324E+02  0.81265641814E+03  0.84882524615E+03  0.17300000000E+03 0.  1.
<mgrwt>
<rscale>  2 0.24514046E+03</rscale>
<asrwt>0</asrwt>
<pdfrwt beam="1">  1       21 0.20441949E+00 0.24514046E+03</pdfrwt>
<pdfrwt beam="2">  1       21 0.74235170E-02 0.24514046E+03</pdfrwt>
<totfact> 0.16555572E+04</totfact>
</mgrwt>
</event>
<event>
 4    1  0.3883260E+000  0.1985010E+03  0.7546771E-02  0.1151010E+00
         21   -1    0    0  503  502  0.00000000000E+00  0.00000000000E+00  0.20040229611E+03  0.20040229611E+03  0.00000000000E+00 0.  1.
         21   -1    0    0  501  503 -0.00000000000E+00 -0.00000000000E+00 -0.25099824941E+03  0.25099824941E+03  0.00000000000E+00 0.  1.
          6    1    1    2  501    0  0.90476060476E+02 -0.35885107875E+02 -0.13035331737E+03  0.23747556893E+03  0.17300000000E+03 0.  1.
         -6    1    1    2    0  502 -0.90476060476E+02  0.35885107875E+02  0.79757364077E+02  0.21392497659E+03  0.17300000000E+03 0.  1.
<mgrwt>
<rscale>  2 0.19850103E+03</rscale>
<asrwt>0</asrwt>
<pdfrwt beam="1">  1       21 0.30831123E-01 0.19850103E+03</pdfrwt>
<pdfrwt beam="2">  1       21 0.38615115E-01 0.19850103E+03</pdfrwt>
<totfact> 0.65158141E+04</totfact>
</mgrwt>
</event>
<event>
 4    1  0.3883260E+000  0.3881038E+03  0.7546771E-02  0.1047979E+00
         21   -1    0    0  503  502  0.00000000000E+00  0.00000000000E+00  0.76264875633E+02  0.76264875633E+02  0.00000000000E+00 0. -1.
         21   -1    0    0  501  503 -0.00000000000E+00 -0.00000000000E+00 -0.26408193189E+04  0.26408193189E+04  0.00000000000E+00 0.  1.
          6    1    1    2  501    0 -0.12312105623E+03  0.32486420267E+03 -0.19644209649E+04  0.20023921374E+04  0.17300000000E+03 0.  1.
         -6    1    1    2    0  502  0.12312105623E+03 -0.32486420267E+03 -0.60013347846E+03  0.71469205720E+03  0.17300000000E+03 0. -1.
<mgrwt>
<rscale>  2 0.38810378E+03</rscale>
<asrwt>0</asrwt>
<pdfrwt beam="1">  1       21 0.11733058E-01 0.38810378E+03</pdfrwt>
<pdfrwt beam="2">  1       21 0.40627990E+00 0.38810378E+03</pdfrwt>
<totfact> 0.39156607E+02</totfact>
</mgrwt>
</event>
<event>
 4    1  0.3883260E+000  0.2080740E+03  0.7546771E-02  0.1143100E+00
         21   -1    0    0  501  502  0.00000000000E+00  0.00000000000E+00  0.10129426761E+03  0.10129426761E+03  0.00000000000E+00 0.  1.
         21   -1    0    0  502  503 -0.00000000000E+00 -0.00000000000E+00 -0.55945876933E+03  0.55945876933E+03  0.00000000000E+00 0.  1.
          6    1    1    2  501    0  0.38329405014E+02 -0.10907176911E+03 -0.68579534830E+02  0.21908433696E+03  0.17300000000E+03 0.  1.
         -6    1    1    2    0  503 -0.38329405014E+02  0.10907176911E+03 -0.38958496689E+03  0.44166869997E+03  0.17300000000E+03 0.  1.
<mgrwt>
<rscale>  2 0.20807401E+03</rscale>
<asrwt>0</asrwt>
<pdfrwt beam="1">  1       21 0.15583734E-01 0.20807401E+03</pdfrwt>
<pdfrwt beam="2">  1       21 0.86070579E-01 0.20807401E+03</pdfrwt>
<totfact> 0.42264974E+04</totfact>
</mgrwt>
</event>
<event>
 4    1  0.3883260E+000  0.2416240E+03  0.7546771E-02  0.1118716E+00
         21   -1    0    0  503  502  0.00000000000E+00  0.00000000000E+00  0.19312498235E+03  0.19312498235E+03  0.00000000000E+00 0.  1.
         21   -1    0    0  501  503 -0.00000000000E+00 -0.00000000000E+00 -0.71961111474E+03  0.71961111474E+03  0.00000000000E+00 0.  1.
          6    1    1    2  501    0 -0.16175885705E+03  0.47825090044E+02 -0.61077520164E+03  0.65683218101E+03  0.17300000000E+03 0.  1.
         -6    1    1    2    0  502  0.16175885705E+03 -0.47825090044E+02  0.84289069255E+02  0.25590391608E+03  0.17300000000E+03 0.  1.
<mgrwt>
<rscale>  2 0.24162402E+03</rscale>
<asrwt>0</asrwt>
<pdfrwt beam="1">  1       21 0.29711535E-01 0.24162402E+03</pdfrwt>
<pdfrwt beam="2">  1       21 0.11070941E+00 0.24162402E+03</pdfrwt>
<totfact> 0.67466066E+03</totfact>
</mgrwt>
</event>
<event>
 4    1  0.3883260E+000  0.2311309E+03  0.7546771E-02  0.1125846E+00
         21   -1    0    0  503  502  0.00000000000E+00  0.00000000000E+00  0.53669784848E+03  0.53669784848E+03  0.00000000000E+00 0.  1.
         21   -1    0    0  501  503 -0.00000000000E+00 -0.00000000000E+00 -0.12987001514E+03  0.12987001514E+03  0.00000000000E+00 0. -1.
          6    1    1    2  501    0 -0.10887576057E+03 -0.10788209820E+03  0.42343694009E+02  0.23497758781E+03  0.17300000000E+03 0. -1.
         -6    1    1    2    0  502  0.10887576057E+03  0.10788209820E+03  0.36448413933E+03  0.43159027581E+03  0.17300000000E+03 0.  1.
<mgrwt>
<rscale>  2 0.23113087E+03</rscale>
<asrwt>0</asrwt>
<pdfrwt beam="1">  1       21 0.82568899E-01 0.23113087E+03</pdfrwt>
<pdfrwt beam="2">  1       21 0.19980002E-01 0.23113087E+03</pdfrwt>
<totfact> 0.29002717E+04</totfact>
</mgrwt>
</event>
<event>
 4    1  0.3883260E+000  0.2546717E+03  0.7546771E-02  0.1110388E+00
         21   -1    0    0  503  502  0.00000000000E+00  0.00000000000E+00  0.84302395255E+03  0.84302395255E+03  0.00000000000E+00 0.  1.
         21   -1    0    0  501  503 -0.00000000000E+00 -0.00000000000E+00 -0.84184774187E+02  0.84184774187E+02  0.00000000000E+00 0.  1.
          6    1    1    2  501    0  0.17309846129E+03  0.70466815987E+02  0.24336689978E+03  0.35225714665E+03  0.17300000000E+03 0.  1.
         -6    1    1    2    0  502 -0.17309846129E+03 -0.70466815987E+02  0.51547227859E+03  0.57495158009E+03  0.17300000000E+03 0.  1.
<mgrwt>
<rscale>  2 0.25467165E+03</rscale>
<asrwt>0</asrwt>
<pdfrwt beam="1">  1       21 0.12969599E+00 0.25467165E+03</pdfrwt>
<pdfrwt beam="2">  1       21 0.12951504E-01 0.25467165E+03</pdfrwt>
<totfact> 0.21471556E+04</totfact>
</mgrwt>
</event>
<event>
 4    1  0.3883260E+000  0.1988286E+03  0.7546771E-02  0.1150731E+00
         21   -1    0    0  503  502  0.00000000000E+00  0.00000000000E+00  0.22825781831E+03  0.22825781831E+03  0.00000000000E+00 0. -1.
         21   -1    0    0  501  503 -0.00000000000E+00 -0.00000000000E+00 -0.29765030436E+03  0.29765030436E+03  0.00000000000E+00 0. -1.
          6    1    1    2  501    0 -0.13095609258E+02  0.97120106741E+02 -0.20473022949E+03  0.28538969320E+03  0.17300000000E+03 0. -1.
         -6    1    1    2    0  502  0.13095609258E+02 -0.97120106741E+02  0.13533774345E+03  0.24051842947E+03  0.17300000000E+03 0. -1.
<mgrwt>
<rscale>  2 0.19882859E+03</rscale>
<asrwt>0</asrwt>
<pdfrwt beam="1">  1       21 0.35116588E-01 0.19882859E+03</pdfrwt>
<pdfrwt beam="2">  1       21 0.45792354E-01 0.19882859E+03</pdfrwt>
<totfact> 0.35622317E+04</totfact>
</mgrwt>
</event>
<event>
 4    1  0.3883260E+000  0.3949838E+03  0.7546771E-02  0.1045531E+00
         21   -1    0    0  501  502  0.00000000000E+00  0.00000000000E+00  0.37980954148E+03  0.37980954148E+03  0.00000000000E+00 0. -1.
         21   -1    0    0  502  503 -0.00000000000E+00 -0.00000000000E+00 -0.44994631468E+03  0.44994631468E+03  0.00000000000E+00 0. -1.
          6    1    1    2  501    0  0.13892905352E+02  0.35481012280E+03  0.87360201980E+02  0.40452940678E+03  0.17300000000E+03 0. -1.
         -6    1    1    2    0  503 -0.13892905352E+02 -0.35481012280E+03 -0.15749697519E+03  0.42522644938E+03  0.17300000000E+03 0. -1.
<mgrwt>
<rscale>  2 0.39498384E+03</rscale>
<asrwt>0</asrwt>
<pdfrwt beam="1">  1       21 0.58432237E-01 0.39498384E+03</pdfrwt>
<pdfrwt beam="2">  1       21 0.69222510E-01 0.39498384E+03</pdfrwt>
<totfact> 0.46655784E+03</totfact>
</mgrwt>
</event>
<event>
 4    1  0.3883260E+000  0.2003484E+03  0.7546771E-02  0.1149445E+00
         21   -1    0    0  503  502  0.00000000000E+00  0.00000000000E+00  0.17818913148E+03  0.17818913148E+03  0.00000000000E+00 0.  1.
         21   -1    0    0  501  503 -0.00000000000E+00 -0.00000000000E+00 -0.26045369643E+03  0.26045369643E+03  0.00000000000E+00 0.  1.
          6    1    1    2  501    0  0.95494657171E+02 -0.33033936212E+02 -0.12174951750E+03  0.23444064387E+03  0.17300000000E+03 0.  1.
         -6    1    1    2    0  502 -0.95494657171E+02  0.33033936212E+02  0.39484952548E+02  0.20420218404E+03  0.17300000000E+03 0.  1.
<mgrwt>
<rscale>  2 0.20034837E+03</rscale>
<asrwt>0</asrwt>
<pdfrwt beam="1">  1       21 0.27413713E-01 0.20034837E+03</pdfrwt>
<pdfrwt beam="2">  1       21 0.40069799E-01 0.20034837E+03</pdfrwt>
<totfact> 0.75925329E+04</totfact>
</mgrwt>
</event>
<event>
 4    1  0.3883260E+000  0.2141462E+03  0.7546771E-02  0.1138324E+00
         21   -1    0    0  503  502  0.00000000000E+00  0.00000000000E+00  0.15074522661E+04  0.15074522661E+04  0.00000000000E+00 0. -1.
         21   -1    0    0  501  503 -0.00000000000E+00 -0.00000000000E+00 -0.21108749004E+03  0.21108749004E+03  0.00000000000E+00 0. -1.
          6    1    1    2  501    0  0.90222544308E+02 -0.88257978136E+02 -0.14676218013E+03  0.25961070032E+03  0.17300000000E+03 0. -1.
         -6    1    1    2    0  502 -0.90222544308E+02  0.88257978136E+02  0.14431269562E+04  0.14589290558E+04  0.17300000000E+03 0. -1.
<mgrwt>
<rscale>  2 0.21414616E+03</rscale>
<asrwt>0</asrwt>
<pdfrwt beam="1">  1       21 0.23191573E+00 0.21414616E+03</pdfrwt>
<pdfrwt beam="2">  1       21 0.32474999E-01 0.21414616E+03</pdfrwt>
<totfact> 0.75756382E+02</totfact>
</mgrwt>
</event>
<event>
 4    1  0.3883260E+000  0.2475375E+03  0.7546771E-02  0.1114871E+00
         21   -1    0    0  503  502  0.00000000000E+00  0.00000000000E+00  0.11415688238E+04  0.11415688238E+04  0.00000000000E+00 0. -1.
         21   -1    0    0  501  503 -0.00000000000E+00 -0.00000000000E+00 -0.15956249891E+03  0.15956249891E+03  0.00000000000E+00 0.  1.
          6    1    1    2  501    0 -0.15395754209E+03 -0.87423702754E+02 -0.38960449491E+02  0.25058480639E+03  0.17300000000E+03 0.  1.
         -6    1    1    2    0  502  0.15395754209E+03  0.87423702754E+02  0.10209667744E+04  0.10505465164E+04  0.17300000000E+03 0. -1.
<mgrwt>
<rscale>  2 0.24753753E+03</rscale>
<asrwt>0</asrwt>
<pdfrwt beam="1">  1       21 0.17562597E+00 0.24753753E+03</pdfrwt>
<pdfrwt beam="2">  1       21 0.24548077E-01 0.24753753E+03</pdfrwt>
<totfact> 0.29178958E+03</totfact>
</mgrwt>
</event>
<event>
 4    1  0.3883260E+000  0.1982554E+03  0.7546771E-02  0.1151219E+00
         21   -1    0    0  501  502  0.00000000000E+00  0.00000000000E+00  0.10658856249E+03  0.10658856249E+03  0.00000000000E+00 0.  1.
         21   -1    0    0  502  503 -0.00000000000E+00 -0.00000000000E+00 -0.50535564248E+03  0.50535564248E+03  0.00000000000E+00 0.  1.
          6    1    1    2  501    0  0.96582118937E+02  0.69345491269E+01 -0.40306416757E+02  0.20231114873E+03  0.17300000000E+03 0.  1.
         -6    1    1    2    0  503 -0.96582118937E+02 -0.69345491269E+01 -0.35846066324E+03  0.40963305624E+03  0.17300000000E+03 0.  1.
<mgrwt>
<rscale>  2 0.19825537E+03</rscale>
<asrwt>0</asrwt>
<pdfrwt beam="1">  1       21 0.16398240E-01 0.19825537E+03</pdfrwt>
<pdfrwt beam="2">  1       21 0.77747023E-01 0.19825537E+03</pdfrwt>
<totfact> 0.48755602E+04</totfact>
</mgrwt>
</event>
<event>
 4    1  0.3883260E+000  0.2483313E+03  0.7546771E-02  0.1114364E+00
         21   -1    0    0  503  502  0.00000000000E+00  0.00000000000E+00  0.24091755779E+03  0.24091755779E+03  0.00000000000E+00 0.  1.
         21   -1    0    0  501  503 -0.00000000000E+00 -0.00000000000E+00 -0.26363986556E+03  0.26363986556E+03  0.00000000000E+00 0.  1.
          6    1    1    2  501    0  0.16873095445E+03 -0.57177863324E+02 -0.54381881742E+02  0.25421611300E+03  0.17300000000E+03 0.  1.
         -6    1    1    2    0  502 -0.16873095445E+03  0.57177863324E+02  0.31659573978E+02  0.25034131035E+03  0.17300000000E+03 0.  1.
<mgrwt>
<rscale>  2 0.24833132E+03</rscale>
<asrwt>0</asrwt>
<pdfrwt beam="1">  1       21 0.37064240E-01 0.24833132E+03</pdfrwt>
<pdfrwt beam="2">  1       21 0.40559979E-01 0.24833132E+03</pdfrwt>
<totfact> 0.40054664E+04</totfact>
</mgrwt>
</event>
<event>
 4    1  0.3883260E+000  0.1768264E+03  0.7546771E-02  0.1170910E+00
         21   -1    0    0  501  502  0.00000000000E+00  0.00000000000E+00  0.81993187507E+02  0.81993187507E+02  0.00000000000E+00 0.  1.
         21   -1    0    0  502  503 -0.00000000000E+00 -0.00000000000E+00 -0.53848172802E+03  0.53848172802E+03  0.00000000000E+00 0.  1.
          6    1    1    2  501    0 -0.36426083644E+02  0.34218810054E+01 -0.60653661904E+02  0.18693965749E+03  0.17300000000E+03 0.  1.
         -6    1    1    2    0  503  0.36426083644E+02 -0.34218810054E+01 -0.39583487860E+03  0.43353525803E+03  0.17300000000E+03 0.  1.
<mgrwt>
<rscale>  2 0.17682638E+03</rscale>
<asrwt>0</asrwt>
<pdfrwt beam="1">  1       21 0.12614337E-01 0.17682638E+03</pdfrwt>
<pdfrwt beam="2">  1       21 0.82843341E-01 0.17682638E+03</pdfrwt>
<totfact> 0.68664654E+04</totfact>
</mgrwt>
</event>
<event>
 4    1  0.3883260E+000  0.1759737E+03  0.7546771E-02  0.1171758E+00
         21   -1    0    0  503  502  0.00000000000E+00  0.00000000000E+00  0.68190096969E+03  0.68190096969E+03  0.00000000000E+00 0.  1.
         21   -1    0    0  501  503 -0.00000000000E+00 -0.00000000000E+00 -0.17728974732E+03  0.17728974732E+03  0.00000000000E+00 0.  1.
          6    1    1    2  501    0 -0.31554135988E+02 -0.64859289763E+01 -0.11820695414E+03  0.21198965725E+03  0.17300000000E+03 0.  1.
         -6    1    1    2    0  502  0.31554135988E+02  0.64859289763E+01  0.62281817651E+03  0.64720105976E+03  0.17300000000E+03 0.  1.
<mgrwt>
<rscale>  2 0.17597366E+03</rscale>
<asrwt>0</asrwt>
<pdfrwt beam="1">  1       21 0.10490784E+00 0.17597366E+03</pdfrwt>
<pdfrwt beam="2">  1       21 0.27275346E-01 0.17597366E+03</pdfrwt>
<totfact> 0.94983784E+03</totfact>
</mgrwt>
</event>
<event>
 4    1  0.3883260E+000  0.2883490E+03  0.7546771E-02  0.1091214E+00
         21   -1    0    0  503  502  0.00000000000E+00  0.00000000000E+00  0.35821526815E+03  0.35821526815E+03  0.00000000000E+00 0. -1.
         21   -1    0    0  501  503 -0.00000000000E+00 -0.00000000000E+00 -0.47736914752E+03  0.47736914752E+03  0.00000000000E+00 0.  1.
          6    1    1    2  501    0 -0.21606479104E+03 -0.80821614677E+02 -0.35904210392E+03  0.46049577600E+03  0.17300000000E+03 0.  1.
         -6    1    1    2    0  502  0.21606479104E+03  0.80821614677E+02  0.23988822456E+03  0.37508863967E+03  0.17300000000E+03 0. -1.
<mgrwt>
<rscale>  2 0.28834897E+03</rscale>
<asrwt>0</asrwt>
<pdfrwt beam="1">  1       21 0.55110041E-01 0.28834897E+03</pdfrwt>
<pdfrwt beam="2">  1       21 0.73441407E-01 0.28834897E+03</pdfrwt>
<totfact> 0.48620979E+03</totfact>
</mgrwt>
</event>
<event>
 4    1  0.3883260E+000  0.1753786E+03  0.7546771E-02  0.1172352E+00
         21   -1    0    0  503  502  0.00000000000E+00  0.00000000000E+00  0.66325684772E+02  0.66325684772E+02  0.00000000000E+00 0. -1.
         21   -1    0    0  501  503 -0.00000000000E+00 -0.00000000000E+00 -0.10934764266E+04  0.10934764266E+04  0.00000000000E+00 0. -1.
          6    1    1    2  501    0 -0.25774660670E+02  0.12819084399E+02 -0.95365340473E+03  0.96964554267E+03  0.17300000000E+03 0. -1.
         -6    1    1    2    0  502  0.25774660670E+02 -0.12819084399E+02 -0.73497337080E+02  0.19015656869E+03  0.17300000000E+03 0. -1.
<mgrwt>
<rscale>  2 0.17537862E+03</rscale>
<asrwt>0</asrwt>
<pdfrwt beam="1">  1       21 0.10203952E-01 0.17537862E+03</pdfrwt>
<pdfrwt beam="2">  1       21 0.16822713E+00 0.17537862E+03</pdfrwt>
<totfact> 0.17415067E+04</totfact>
</mgrwt>
</event>
<event>
 4    1  0.3883260E+000  0.1933575E+03  0.7546771E-02  0.1155467E+00
         21   -1    0    0  501  502  0.00000000000E+00  0.00000000000E+00  0.10927677865E+04  0.10927677865E+04  0.00000000000E+00 0. -1.
         21   -1    0    0  502  503 -0.00000000000E+00 -0.00000000000E+00 -0.35500241720E+02  0.35500241720E+02  0.00000000000E+00 0. -1.
          6    1    1    2  501    0  0.84899252725E+02  0.15819088996E+02  0.63604660564E+03  0.66478749329E+03  0.17300000000E+03 0.  1.
         -6    1    1    2    0  503 -0.84899252725E+02 -0.15819088996E+02  0.42122093916E+03  0.46348053495E+03  0.17300000000E+03 0.  1.
<mgrwt>
<rscale>  2 0.19335751E+03</rscale>
<asrwt>0</asrwt>
<pdfrwt beam="1">  1       21 0.16811810E+00 0.19335751E+03</pdfrwt>
<pdfrwt beam="2">  1       21 0.54615765E-02 0.19335751E+03</pdfrwt>
<totfact> 0.50914490E+04</totfact>
</mgrwt>
</event>
<event>
 4    1  0.3883260E+000  0.2393232E+03  0.7546771E-02  0.1120244E+00
         21   -1    0    0  501  502  0.00000000000E+00  0.00000000000E+00  0.15740724487E+04  0.15740724487E+04  0.00000000000E+00 0.  1.
         21   -1    0    0  502  503 -0.00000000000E+00 -0.00000000000E+00 -0.37536917568E+02  0.37536917568E+02  0.00000000000E+00 0.  1.
          6    1    1    2  501    0  0.15800775302E+03 -0.48786918209E+02  0.90931128190E+03  0.94027794870E+03  0.17300000000E+03 0.  1.
         -6    1    1    2    0  503 -0.15800775302E+03  0.48786918209E+02  0.62722424926E+03  0.67133141760E+03  0.17300000000E+03 0.  1.
<mgrwt>
<rscale>  2 0.23932324E+03</rscale>
<asrwt>0</asrwt>
<pdfrwt beam="1">  1       21 0.24216494E+00 0.23932324E+03</pdfrwt>
<pdfrwt beam="2">  1       21 0.57749116E-02 0.23932324E+03</pdfrwt>
<totfact> 0.14988175E+04</totfact>
</mgrwt>
</event>
<event>
 4    1  0.3883260E+000  0.1937267E+03  0.7546771E-02  0.1155142E+00
         21   -1    0    0  501  502  0.00000000000E+00  0.00000000000E+00  0.18737777421E+03  0.18737777421E+03  0.00000000000E+00 0. -1.
         21   -1    0    0  502  503 -0.00000000000E+00 -0.00000000000E+00 -0.53763993348E+03  0.53763993348E+03  0.00000000000E+00 0. -1.
          6    1    1    2  501    0  0.86358466712E+02  0.11969474797E+02  0.11202143781E+03  0.22378305483E+03  0.17300000000E+03 0. -1.
         -6    1    1    2    0  503 -0.86358466712E+02 -0.11969474797E+02 -0.46228359708E+03  0.50123465286E+03  0.17300000000E+03 0. -1.
<mgrwt>
<rscale>  2 0.19372675E+03</rscale>
<asrwt>0</asrwt>
<pdfrwt beam="1">  1       21 0.28827350E-01 0.19372675E+03</pdfrwt>
<pdfrwt beam="2">  1       21 0.82713836E-01 0.19372675E+03</pdfrwt>
<totfact> 0.14674446E+04</totfact>
</mgrwt>
</event>
<event>
 4    1  0.3883260E+000  0.2977169E+03  0.7546771E-02  0.1086388E+00
         21   -1    0    0  501  502  0.00000000000E+00  0.00000000000E+00  0.69719123046E+03  0.69719123046E+03  0.00000000000E+00 0. -1.
         21   -1    0    0  502  503 -0.00000000000E+00 -0.00000000000E+00 -0.24634197649E+03  0.24634197649E+03  0.00000000000E+00 0. -1.
          6    1    1    2  501    0  0.12015847009E+03 -0.21040026217E+03  0.55360624424E+03  0.62858189754E+03  0.17300000000E+03 0. -1.
         -6    1    1    2    0  503 -0.12015847009E+03  0.21040026217E+03 -0.10275699027E+03  0.31495130942E+03  0.17300000000E+03 0. -1.
<mgrwt>
<rscale>  2 0.29771686E+03</rscale>
<asrwt>0</asrwt>
<pdfrwt beam="1">  1       21 0.10726019E+00 0.29771686E+03</pdfrwt>
<pdfrwt beam="2">  1       21 0.37898766E-01 0.29771686E+03</pdfrwt>
<totfact> 0.43465454E+03</totfact>
</mgrwt>
</event>
<event>
 4    1  0.3883260E+000  0.1916100E+03  0.7546771E-02  0.1157017E+00
         21   -1    0    0  503  502  0.00000000000E+00  0.00000000000E+00  0.43380716885E+03  0.43380716885E+03  0.00000000000E+00 0.  1.
         21   -1    0    0  501  503 -0.00000000000E+00 -0.00000000000E+00 -0.89997960562E+02  0.89997960562E+02  0.00000000000E+00 0. -1.
          6    1    1    2  501    0  0.25569579089E+01 -0.82333897005E+02  0.10795967994E+03  0.21993112813E+03  0.17300000000E+03 0. -1.
         -6    1    1    2    0  502 -0.25569579089E+01  0.82333897005E+02  0.23584952835E+03  0.30387400128E+03  0.17300000000E+03 0.  1.
<mgrwt>
<rscale>  2 0.19161004E+03</rscale>
<asrwt>0</asrwt>
<pdfrwt beam="1">  1       21 0.66739564E-01 0.19161004E+03</pdfrwt>
<pdfrwt beam="2">  1       21 0.13845840E-01 0.19161004E+03</pdfrwt>
<totfact> 0.93378587E+04</totfact>
</mgrwt>
</event>
<event>
 4    1  0.3883260E+000  0.1786968E+03  0.7546771E-02  0.1169070E+00
         21   -1    0    0  503  502  0.00000000000E+00  0.00000000000E+00  0.99461915735E+03  0.99461915735E+03  0.00000000000E+00 0.  1.
         21   -1    0    0  501  503 -0.00000000000E+00 -0.00000000000E+00 -0.32223372649E+02  0.32223372649E+02  0.00000000000E+00 0.  1.
          6    1    1    2  501    0  0.34465299960E+02 -0.28560559034E+02  0.51227448673E+03  0.54254742852E+03  0.17300000000E+03 0.  1.
         -6    1    1    2    0  502 -0.34465299960E+02  0.28560559034E+02  0.45012129797E+03  0.48429510148E+03  0.17300000000E+03 0.  1.
<mgrwt>
<rscale>  2 0.17869685E+03</rscale>
<asrwt>0</asrwt>
<pdfrwt beam="1">  1       21 0.15301831E+00 0.17869685E+03</pdfrwt>
<pdfrwt beam="2">  1       21 0.49574427E-02 0.17869685E+03</pdfrwt>
<totfact> 0.77953073E+04</totfact>
</mgrwt>
</event>
<event>
 4    1  0.3883260E+000  0.4875314E+03  0.7546771E-02  0.1017086E+00
         21   -1    0    0  501  502  0.00000000000E+00  0.00000000000E+00  0.32361793309E+03  0.32361793309E+03  0.00000000000E+00 0.  1.
         21   -1    0    0  502  503 -0.00000000000E+00 -0.00000000000E+00 -0.96277339861E+03  0.96277339861E+03  0.00000000000E+00 0. -1.
          6    1    1    2  501    0 -0.25944655642E+03  0.37476039673E+03 -0.63648719248E+01  0.48757295063E+03  0.17300000000E+03 0.  1.
         -6    1    1    2    0  503  0.25944655642E+03 -0.37476039673E+03 -0.63279059359E+03  0.79881838107E+03  0.17300000000E+03 0. -1.
<mgrwt>
<rscale>  2 0.48753140E+03</rscale>
<asrwt>0</asrwt>
<pdfrwt beam="1">  1       21 0.49787375E-01 0.48753140E+03</pdfrwt>
<pdfrwt beam="2">  1       21 0.14811898E+00 0.48753140E+03</pdfrwt>
<totfact> 0.98830679E+02</totfact>
</mgrwt>
</event>
<event>
 4    1  0.3883260E+000  0.1971578E+03  0.7546771E-02  0.1152159E+00
         21   -1    0    0  503  502  0.00000000000E+00  0.00000000000E+00  0.46642266784E+02  0.46642266784E+02  0.00000000000E+00 0. -1.
         21   -1    0    0  501  503 -0.00000000000E+00 -0.00000000000E+00 -0.97532627703E+03  0.97532627703E+03  0.00000000000E+00 0. -1.
          6    1    1    2  501    0  0.12655658436E+02 -0.93712603632E+02 -0.65927199041E+03  0.68812119216E+03  0.17300000000E+03 0. -1.
         -6    1    1    2    0  502 -0.12655658436E+02  0.93712603632E+02 -0.26941201984E+03  0.33384735165E+03  0.17300000000E+03 0. -1.
<mgrwt>
<rscale>  2 0.19715785E+03</rscale>
<asrwt>0</asrwt>
<pdfrwt beam="1">  1       21 0.71757331E-02 0.19715785E+03</pdfrwt>
<pdfrwt beam="2">  1       21 0.15005020E+00 0.19715785E+03</pdfrwt>
<totfact> 0.43164861E+04</totfact>
</mgrwt>
</event>
<event>
 4    1  0.3883260E+000  0.2103954E+03  0.7546771E-02  0.1141253E+00
         21   -1    0    0  503  502  0.00000000000E+00  0.00000000000E+00  0.41190085045E+02  0.41190085045E+02  0.00000000000E+00 0. -1.
         21   -1    0    0  501  503 -0.00000000000E+00 -0.00000000000E+00 -0.15359270726E+04  0.15359270726E+04  0.00000000000E+00 0.  1.
          6    1    1    2  501    0 -0.64380359653E+02 -0.10095730102E+03 -0.11794990138E+04  0.11981169104E+04  0.17300000000E+03 0.  1.
         -6    1    1    2    0  502  0.64380359653E+02  0.10095730102E+03 -0.31523797372E+03  0.37900024725E+03  0.17300000000E+03 0. -1.
<mgrwt>
<rscale>  2 0.21039536E+03</rscale>
<asrwt>0</asrwt>
<pdfrwt beam="1">  1       21 0.63369369E-02 0.21039536E+03</pdfrwt>
<pdfrwt beam="2">  1       21 0.23629644E+00 0.21039536E+03</pdfrwt>
<totfact> 0.14174904E+04</totfact>
</mgrwt>
</event>
<event>
 4    1  0.3883260E+000  0.1922792E+03  0.7546771E-02  0.1156422E+00
         21   -1    0    0  503  502  0.00000000000E+00  0.00000000000E+00  0.49538085645E+02  0.49538085645E+02  0.00000000000E+00 0. -1.
         21   -1    0    0  501  503 -0.00000000000E+00 -0.00000000000E+00 -0.12330029037E+04  0.12330029037E+04  0.00000000000E+00 0. -1.
          6    1    1    2  501    0 -0.83918165684E+02  0.12359501346E+00 -0.99461839961E+03  0.10130335802E+04  0.17300000000E+03 0. -1.
         -6    1    1    2    0  502  0.83918165684E+02 -0.12359501346E+00 -0.18884641840E+03  0.26950740908E+03  0.17300000000E+03 0. -1.
<mgrwt>
<rscale>  2 0.19227916E+03</rscale>
<asrwt>0</asrwt>
<pdfrwt beam="1">  1       21 0.76212443E-02 0.19227916E+03</pdfrwt>
<pdfrwt beam="2">  1       21 0.18969274E+00 0.19227916E+03</pdfrwt>
<totfact> 0.20464482E+04</totfact>
</mgrwt>
</event>
<event>
 4    1  0.3883260E+000  0.2155792E+03  0.7546771E-02  0.1137223E+00
         21   -1    0    0  501  502  0.00000000000E+00  0.00000000000E+00  0.43179335724E+02  0.43179335724E+02  0.00000000000E+00 0. -1.
         21   -1    0    0  502  503 -0.00000000000E+00 -0.00000000000E+00 -0.11168204369E+04  0.11168204369E+04  0.00000000000E+00 0. -1.
          6    1    1    2  501    0  0.12850767780E+03  0.55812446565E+01 -0.42635753978E+03  0.47776053130E+03  0.17300000000E+03 0. -1.
         -6    1    1    2    0  503 -0.12850767780E+03 -0.55812446565E+01 -0.64728356144E+03  0.68223924136E+03  0.17300000000E+03 0. -1.
<mgrwt>
<rscale>  2 0.21557916E+03</rscale>
<asrwt>0</asrwt>
<pdfrwt beam="1">  1       21 0.66429751E-02 0.21557916E+03</pdfrwt>
<pdfrwt beam="2">  1       21 0.17181852E+00 0.21557916E+03</pdfrwt>
<totfact> 0.33811752E+04</totfact>
</mgrwt>
</event>
<event>
 4    1  0.3883260E+000  0.1993968E+03  0.7546771E-02  0.1150249E+00
         21   -1    0    0  501  502  0.00000000000E+00  0.00000000000E+00  0.75197294562E+02  0.75197294562E+02  0.00000000000E+00 0.  1.
         21   -1    0    0  502  503 -0.00000000000E+00 -0.00000000000E+00 -0.61221806149E+03  0.61221806149E+03  0.00000000000E+00 0.  1.
          6    1    1    2  501    0 -0.45114592137E+02 -0.88288034542E+02 -0.14158542142E+03  0.24455170215E+03  0.17300000000E+03 0.  1.
         -6    1    1    2    0  503  0.45114592137E+02  0.88288034542E+02 -0.39543534551E+03  0.44286365390E+03  0.17300000000E+03 0.  1.
<mgrwt>
<rscale>  2 0.19939685E+03</rscale>
<asrwt>0</asrwt>
<pdfrwt beam="1">  1       21 0.11568814E-01 0.19939685E+03</pdfrwt>
<pdfrwt beam="2">  1       21 0.94187396E-01 0.19939685E+03</pdfrwt>
<totfact> 0.59015417E+04</totfact>
</mgrwt>
</event>
<event>
 4    1  0.3883260E+000  0.2634031E+03  0.7546771E-02  0.1105116E+00
         21   -1    0    0  501  502  0.00000000000E+00  0.00000000000E+00  0.45021527219E+03  0.45021527219E+03  0.00000000000E+00 0. -1.
         21   -1    0    0  502  503 -0.00000000000E+00 -0.00000000000E+00 -0.20195378189E+03  0.20195378189E+03  0.00000000000E+00 0. -1.
          6    1    1    2  501    0  0.19862424276E+03  0.78958529451E+00  0.28285075763E+03  0.38650454635E+03  0.17300000000E+03 0. -1.
         -6    1    1    2    0  503 -0.19862424276E+03 -0.78958529451E+00 -0.34589267327E+02  0.26566450774E+03  0.17300000000E+03 0. -1.
<mgrwt>
<rscale>  2 0.26340314E+03</rscale>
<asrwt>0</asrwt>
<pdfrwt beam="1">  1       21 0.69263888E-01 0.26340314E+03</pdfrwt>
<pdfrwt beam="2">  1       21 0.31069813E-01 0.26340314E+03</pdfrwt>
<totfact> 0.18161552E+04</totfact>
</mgrwt>
</event>
<event>
 4    1  0.3883260E+000  0.1827229E+03  0.7546771E-02  0.1165193E+00
         21   -1    0    0  501  502  0.00000000000E+00  0.00000000000E+00  0.13253787814E+03  0.13253787814E+03  0.00000000000E+00 0. -1.
         21   -1    0    0  502  503 -0.00000000000E+00 -0.00000000000E+00 -0.72040895531E+03  0.72040895531E+03  0.00000000000E+00 0. -1.
          6    1    1    2  501    0  0.42678938938E+02 -0.40462089606E+02  0.49983749382E+02  0.18943613100E+03  0.17300000000E+03 0. -1.
         -6    1    1    2    0  503 -0.42678938938E+02  0.40462089606E+02 -0.63785482655E+03  0.66351070246E+03  0.17300000000E+03 0. -1.
<mgrwt>
<rscale>  2 0.18272294E+03</rscale>
<asrwt>0</asrwt>
<pdfrwt beam="1">  1       21 0.20390443E-01 0.18272294E+03</pdfrwt>
<pdfrwt beam="2">  1       21 0.11083215E+00 0.18272294E+03</pdfrwt>
<totfact> 0.14372695E+04</totfact>
</mgrwt>
</event>
<event>
 4    1  0.3883260E+000  0.2448708E+03  0.7546771E-02  0.1116590E+00
         21   -1    0    0  503  502  0.00000000000E+00  0.00000000000E+00  0.27759064158E+03  0.27759064158E+03  0.00000000000E+00 0. -1.
         21   -1    0    0  501  503 -0.00000000000E+00 -0.00000000000E+00 -0.21616976080E+03  0.21616976080E+03  0.00000000000E+00 0.  1.
          6    1    1    2  501    0  0.17235489741E+03  0.18069387404E+02  0.23950538916E+02  0.24603930933E+03  0.17300000000E+03 0. -1.
         -6    1    1    2    0  502 -0.17235489741E+03 -0.18069387404E+02  0.37470341864E+02  0.24772109305E+03  0.17300000000E+03 0. -1.
<mgrwt>
<rscale>  2 0.24487081E+03</rscale>
<asrwt>0</asrwt>
<pdfrwt beam="1">  1       21 0.42706252E-01 0.24487081E+03</pdfrwt>
<pdfrwt beam="2">  1       21 0.33256886E-01 0.24487081E+03</pdfrwt>
<totfact> 0.44826730E+04</totfact>
</mgrwt>
</event>
<event>
 4    1  0.3883260E+000  0.1968032E+03  0.7546771E-02  0.1152465E+00
         21   -1    0    0  503  502  0.00000000000E+00  0.00000000000E+00  0.43763684827E+03  0.43763684827E+03  0.00000000000E+00 0. -1.
         21   -1    0    0  501  503 -0.00000000000E+00 -0.00000000000E+00 -0.88903945517E+02  0.88903945517E+02  0.00000000000E+00 0.  1.
          6    1    1    2  501    0  0.11205705945E+01 -0.93814966443E+02  0.15665263172E+03  0.25153836811E+03  0.17300000000E+03 0.  1.
         -6    1    1    2    0  502 -0.11205705945E+01  0.93814966443E+02  0.19208027103E+03  0.27500242567E+03  0.17300000000E+03 0. -1.
<mgrwt>
<rscale>  2 0.19680321E+03</rscale>
<asrwt>0</asrwt>
<pdfrwt beam="1">  1       21 0.67328745E-01 0.19680321E+03</pdfrwt>
<pdfrwt beam="2">  1       21 0.13677530E-01 0.19680321E+03</pdfrwt>
<totfact> 0.93445266E+04</totfact>
</mgrwt>
</event>
<event>
 4    1  0.3883260E+000  0.2371382E+03  0.7546771E-02  0.1121714E+00
         21   -1    0    0  501  502  0.00000000000E+00  0.00000000000E+00  0.78041429708E+03  0.78041429708E+03  0.00000000000E+00 0.  1.
         21   -1    0    0  502  503 -0.00000000000E+00 -0.00000000000E+00 -0.76379529993E+02  0.76379529993E+02  0.00000000000E+00 0. -1.
          6    1    1    2  501    0  0.76830989060E+02  0.14283733118E+03  0.45392685556E+03  0.51213679252E+03  0.17300000000E+03 0.  1.
         -6    1    1    2    0  503 -0.76830989060E+02 -0.14283733118E+03  0.25010791153E+03  0.34465703456E+03  0.17300000000E+03 0.  1.
<mgrwt>
<rscale>  2 0.23713815E+03</rscale>
<asrwt>0</asrwt>
<pdfrwt beam="1">  1       21 0.12006373E+00 0.23713815E+03</pdfrwt>
<pdfrwt beam="2">  1       21 0.11750697E-01 0.23713815E+03</pdfrwt>
<totfact> 0.31358925E+04</totfact>
</mgrwt>
</event>
<event>
 4    1  0.3883260E+000  0.1909989E+03  0.7546771E-02  0.1157564E+00
         21   -1    0    0  503  502  0.00000000000E+00  0.00000000000E+00  0.26527413768E+03  0.26527413768E+03  0.00000000000E+00 0.  1.
         21   -1    0    0  501  503 -0.00000000000E+00 -0.00000000000E+00 -0.17909562700E+03  0.17909562700E+03  0.00000000000E+00 0.  1.
          6    1    1    2  501    0  0.80862770373E+02 -0.35745619623E+01 -0.63961595865E+02  0.20142405733E+03  0.17300000000E+03 0.  1.
         -6    1    1    2    0  502 -0.80862770373E+02  0.35745619623E+01  0.15014010655E+03  0.24294570735E+03  0.17300000000E+03 0.  1.
<mgrwt>
<rscale>  2 0.19099886E+03</rscale>
<asrwt>0</asrwt>
<pdfrwt beam="1">  1       21 0.40811406E-01 0.19099886E+03</pdfrwt>
<pdfrwt beam="2">  1       21 0.27553173E-01 0.19099886E+03</pdfrwt>
<totfact> 0.72743105E+04</totfact>
</mgrwt>
</event>
<event>
 4    1  0.3883260E+000  0.1776897E+03  0.7546771E-02  0.1170058E+00
         21   -1    0    0  501  502  0.00000000000E+00  0.00000000000E+00  0.17812887158E+02  0.17812887158E+02  0.00000000000E+00 0.  1.
         21   -1    0    0  502  503 -0.00000000000E+00 -0.00000000000E+00 -0.19530869684E+04  0.19530869684E+04  0.00000000000E+00 0.  1.
          6    1    1    2  501    0 -0.37624016194E+02  0.15134314063E+02 -0.66799783189E+03  0.69122696524E+03  0.17300000000E+03 0.  1.
         -6    1    1    2    0  503  0.37624016194E+02 -0.15134314063E+02 -0.12672762493E+04  0.12796728903E+04  0.17300000000E+03 0.  1.
<mgrwt>
<rscale>  2 0.17768966E+03</rscale>
<asrwt>0</asrwt>
<pdfrwt beam="1">  1       21 0.27404442E-02 0.17768966E+03</pdfrwt>
<pdfrwt beam="2">  1       21 0.30047491E+00 0.17768966E+03</pdfrwt>
<totfact> 0.25302649E+04</totfact>
</mgrwt>
</event>
<event>
 4    1  0.3883260E+000  0.1849677E+03  0.7546771E-02  0.1163080E+00
         21   -1    0    0  503  502  0.00000000000E+00  0.00000000000E+00  0.47922454893E+02  0.47922454893E+02  0.00000000000E+00 0. -1.
         21   -1    0    0  501  503 -0.00000000000E+00 -0.00000000000E+00 -0.11514456067E+04  0.11514456067E+04  0.00000000000E+00 0. -1.
          6    1    1    2  501    0 -0.36330603978E+02  0.54444036976E+02 -0.92141926454E+03  0.93980132316E+03  0.17300000000E+03 0. -1.
         -6    1    1    2    0  502  0.36330603978E+02 -0.54444036976E+02 -0.18210388730E+03  0.25956673846E+03  0.17300000000E+03 0. -1.
<mgrwt>
<rscale>  2 0.18496774E+03</rscale>
<asrwt>0</asrwt>
<pdfrwt beam="1">  1       21 0.73726861E-02 0.18496774E+03</pdfrwt>
<pdfrwt beam="2">  1       21 0.17714546E+00 0.18496774E+03</pdfrwt>
<totfact> 0.26457922E+04</totfact>
</mgrwt>
</event>
<event>
 4    1  0.3883260E+000  0.2092249E+03  0.7546771E-02  0.1142181E+00
         21   -1    0    0  501  502  0.00000000000E+00  0.00000000000E+00  0.43500461352E+03  0.43500461352E+03  0.00000000000E+00 0. -1.
         21   -1    0    0  502  503 -0.00000000000E+00 -0.00000000000E+00 -0.13961669745E+03  0.13961669745E+03  0.00000000000E+00 0.  1.
          6    1    1    2  501    0 -0.55195676853E+02 -0.10392066639E+03  0.29951577715E+03  0.36535567384E+03  0.17300000000E+03 0. -1.
         -6    1    1    2    0  503  0.55195676853E+02  0.10392066639E+03 -0.41278610895E+01  0.20926563713E+03  0.17300000000E+03 0.  1.
<mgrwt>
<rscale>  2 0.20922492E+03</rscale>
<asrwt>0</asrwt>
<pdfrwt beam="1">  1       21 0.66923786E-01 0.20922492E+03</pdfrwt>
<pdfrwt beam="2">  1       21 0.21479492E-01 0.20922492E+03</pdfrwt>
<totfact> 0.40947667E+04</totfact>
</mgrwt>
</event>
<event>
 4    1  0.3883260E+000  0.1835389E+03  0.7546771E-02  0.1164421E+00
         21   -1    0    0  503  502  0.00000000000E+00  0.00000000000E+00  0.45244788630E+02  0.45244788630E+02  0.00000000000E+00 0. -1.
         21   -1    0    0  501  503 -0.00000000000E+00 -0.00000000000E+00 -0.88755306362E+03  0.88755306362E+03  0.00000000000E+00 0. -1.
          6    1    1    2  501    0  0.16905419437E+02 -0.58921520585E+02 -0.60837264320E+03  0.63545559388E+03  0.17300000000E+03 0. -1.
         -6    1    1    2    0  502 -0.16905419437E+02  0.58921520585E+02 -0.23393563179E+03  0.29734225838E+03  0.17300000000E+03 0. -1.
<mgrwt>
<rscale>  2 0.18353893E+03</rscale>
<asrwt>0</asrwt>
<pdfrwt beam="1">  1       21 0.69607365E-02 0.18353893E+03</pdfrwt>
<pdfrwt beam="2">  1       21 0.13654663E+00 0.18353893E+03</pdfrwt>
<totfact> 0.58562641E+04</totfact>
</mgrwt>
</event>
<event>
 4    1  0.3883260E+000  0.1945655E+03  0.7546771E-02  0.1154407E+00
         21   -1    0    0  501  502  0.00000000000E+00  0.00000000000E+00  0.35177149056E+03  0.35177149056E+03  0.00000000000E+00 0. -1.
         21   -1    0    0  502  503 -0.00000000000E+00 -0.00000000000E+00 -0.13556629803E+03  0.13556629803E+03  0.00000000000E+00 0. -1.
          6    1    1    2  501    0 -0.85818315146E+02  0.23705378395E+02  0.21874682488E+03  0.29275570289E+03  0.17300000000E+03 0. -1.
         -6    1    1    2    0  503  0.85818315146E+02 -0.23705378395E+02 -0.25416323481E+01  0.19458208570E+03  0.17300000000E+03 0. -1.
<mgrwt>
<rscale>  2 0.19456549E+03</rscale>
<asrwt>0</asrwt>
<pdfrwt beam="1">  1       21 0.54118690E-01 0.19456549E+03</pdfrwt>
<pdfrwt beam="2">  1       21 0.20856354E-01 0.19456549E+03</pdfrwt>
<totfact> 0.68822047E+04</totfact>
</mgrwt>
</event>
<event>
 4    1  0.3883260E+000  0.2063627E+03  0.7546771E-02  0.1144479E+00
         21   -1    0    0  501  502  0.00000000000E+00  0.00000000000E+00  0.31706912111E+03  0.31706912111E+03  0.00000000000E+00 0.  1.
         21   -1    0    0  502  503 -0.00000000000E+00 -0.00000000000E+00 -0.18340038481E+03  0.18340038481E+03  0.00000000000E+00 0.  1.
          6    1    1    2  501    0  0.78091282697E+02 -0.80983464482E+02  0.19629731688E+03  0.28481258148E+03  0.17300000000E+03 0.  1.
         -6    1    1    2    0  503 -0.78091282697E+02  0.80983464482E+02 -0.62628580586E+02  0.21565692444E+03  0.17300000000E+03 0.  1.
<mgrwt>
<rscale>  2 0.20636271E+03</rscale>
<asrwt>0</asrwt>
<pdfrwt beam="1">  1       21 0.48779865E-01 0.20636271E+03</pdfrwt>
<pdfrwt beam="2">  1       21 0.28215444E-01 0.20636271E+03</pdfrwt>
<totfact> 0.47830800E+04</totfact>
</mgrwt>
</event>
<event>
 4    1  0.3883260E+000  0.2825550E+03  0.7546771E-02  0.1094302E+00
         21   -1    0    0  501  502  0.00000000000E+00  0.00000000000E+00  0.48412618466E+02  0.48412618466E+02  0.00000000000E+00 0.  1.
         21   -1    0    0  502  503 -0.00000000000E+00 -0.00000000000E+00 -0.17232563246E+04  0.17232563246E+04  0.00000000000E+00 0. -1.
          6    1    1    2  501    0  0.50723621268E+02 -0.21756708782E+03 -0.65366343745E+03  0.71211881938E+03  0.17300000000E+03 0.  1.
         -6    1    1    2    0  503 -0.50723621268E+02  0.21756708782E+03 -0.10211802687E+04  0.10595501237E+04  0.17300000000E+03 0.  1.
<mgrwt>
<rscale>  2 0.28255499E+03</rscale>
<asrwt>0</asrwt>
<pdfrwt beam="1">  1       21 0.74480957E-02 0.28255499E+03</pdfrwt>
<pdfrwt beam="2">  1       21 0.26511634E+00 0.28255499E+03</pdfrwt>
<totfact> 0.68233709E+03</totfact>
</mgrwt>
</event>
<event>
 4    1  0.3883260E+000  0.1743470E+03  0.7546771E-02  0.1173389E+00
         21   -1    0    0  501  502  0.00000000000E+00  0.00000000000E+00  0.23506302924E+03  0.23506302924E+03  0.00000000000E+00 0. -1.
         21   -1    0    0  502  503 -0.00000000000E+00 -0.00000000000E+00 -0.20077363105E+03  0.20077363105E+03  0.00000000000E+00 0. -1.
          6    1    1    2  501    0  0.68581258637E+01 -0.20514735299E+02  0.14715312099E+03  0.22814672751E+03  0.17300000000E+03 0. -1.
         -6    1    1    2    0  503 -0.68581258637E+01  0.20514735299E+02 -0.11286372280E+03  0.20768993278E+03  0.17300000000E+03 0. -1.
<mgrwt>
<rscale>  2 0.17434703E+03</rscale>
<asrwt>0</asrwt>
<pdfrwt beam="1">  1       21 0.36163543E-01 0.17434703E+03</pdfrwt>
<pdfrwt beam="2">  1       21 0.30888251E-01 0.17434703E+03</pdfrwt>
<totfact> 0.74798565E+04</totfact>
</mgrwt>
</event>
<event>
 4    1  0.3883260E+000  0.2445132E+03  0.7546771E-02  0.1116822E+00
         21   -1    0    0  501  502  0.00000000000E+00  0.00000000000E+00  0.16811620250E+03  0.16811620250E+03  0.00000000000E+00 0. -1.
         21   -1    0    0  502  503 -0.00000000000E+00 -0.00000000000E+00 -0.35654318527E+03  0.35654318527E+03  0.00000000000E+00 0.  1.
          6    1    1    2  501    0  0.16618765443E+03 -0.47321958638E+02 -0.80917470524E+02  0.25755454042E+03  0.17300000000E+03 0.  1.
         -6    1    1    2    0  503 -0.16618765443E+03  0.47321958638E+02 -0.10750951225E+03  0.26710484735E+03  0.17300000000E+03 0. -1.
<mgrwt>
<rscale>  2 0.24451320E+03</rscale>
<asrwt>0</asrwt>
<pdfrwt beam="1">  1       21 0.25864031E-01 0.24451320E+03</pdfrwt>
<pdfrwt beam="2">  1       21 0.54852798E-01 0.24451320E+03</pdfrwt>
<totfact> 0.43460469E+04</totfact>
</mgrwt>
</event>
<event>
 4    1  0.3883260E+000  0.2029340E+03  0.7546771E-02  0.1147287E+00
         21   -1    0    0  503  502  0.00000000000E+00  0.00000000000E+00  0.17512919370E+04  0.17512919370E+04  0.00000000000E+00 0. -1.
         21   -1    0    0  501  503 -0.00000000000E+00 -0.00000000000E+00 -0.27484801345E+02  0.27484801345E+02  0.00000000000E+00 0.  1.
          6    1    1    2  501    0  0.53211589819E+02  0.91770006511E+02  0.52390761982E+03  0.56183752232E+03  0.17300000000E+03 0.  1.
         -6    1    1    2    0  502 -0.53211589819E+02 -0.91770006511E+02  0.11998995159E+04  0.12169392160E+04  0.17300000000E+03 0. -1.
<mgrwt>
<rscale>  2 0.20293400E+03</rscale>
<asrwt>0</asrwt>
<pdfrwt beam="1">  1       21 0.26942944E+00 0.20293400E+03</pdfrwt>
<pdfrwt beam="2">  1       21 0.42284324E-02 0.20293400E+03</pdfrwt>
<totfact> 0.18113126E+04</totfact>
</mgrwt>
</event>
<event>
 4    1  0.3883260E+000  0.1872380E+03  0.7546771E-02  0.1160976E+00
         21   -1    0    0  503  502  0.00000000000E+00  0.00000000000E+00  0.39620759073E+03  0.39620759073E+03  0.00000000000E+00 0.  1.
         21   -1    0    0  501  503 -0.00000000000E+00 -0.00000000000E+00 -0.90827717383E+02  0.90827717383E+02  0.00000000000E+00 0. -1.
          6    1    1    2  501    0 -0.32136328271E+02 -0.64002448563E+02  0.19180716987E+03  0.26804486085E+03  0.17300000000E+03 0.  1.
         -6    1    1    2    0  502  0.32136328271E+02  0.64002448563E+02  0.11357270348E+03  0.21899044726E+03  0.17300000000E+03 0.  1.
<mgrwt>
<rscale>  2 0.18723797E+03</rscale>
<asrwt>0</asrwt>
<pdfrwt beam="1">  1       21 0.60955013E-01 0.18723797E+03</pdfrwt>
<pdfrwt beam="2">  1       21 0.13973495E-01 0.18723797E+03</pdfrwt>
<totfact> 0.11197505E+05</totfact>
</mgrwt>
</event>
<event>
 4    1  0.3883260E+000  0.1761113E+03  0.7546771E-02  0.1171620E+00
         21   -1    0    0  501  502  0.00000000000E+00  0.00000000000E+00  0.51598541018E+02  0.51598541018E+02  0.00000000000E+00 0. -1.
         21   -1    0    0  502  503 -0.00000000000E+00 -0.00000000000E+00 -0.78007545065E+03  0.78007545065E+03  0.00000000000E+00 0. -1.
          6    1    1    2  501    0 -0.30770112870E+02 -0.11806861213E+02 -0.16504843795E+03  0.24136318834E+03  0.17300000000E+03 0. -1.
         -6    1    1    2    0  503  0.30770112870E+02  0.11806861213E+02 -0.56342847169E+03  0.59031080333E+03  0.17300000000E+03 0. -1.
<mgrwt>
<rscale>  2 0.17611133E+03</rscale>
<asrwt>0</asrwt>
<pdfrwt beam="1">  1       21 0.79382373E-02 0.17611133E+03</pdfrwt>
<pdfrwt beam="2">  1       21 0.12001160E+00 0.17611133E+03</pdfrwt>
<totfact> 0.64742002E+04</totfact>
</mgrwt>
</event>
<event>
 4    1  0.3883260E+000  0.1876991E+03  0.7546771E-02  0.1160553E+00
         21   -1    0    0  503  502  0.00000000000E+00  0.00000000000E+00  0.22894355580E+03  0.22894355580E+03  0.00000000000E+00 0.  1.
         21   -1    0    0  501  503 -0.00000000000E+00 -0.00000000000E+00 -0.15518773664E+03  0.15518773664E+03  0.00000000000E+00 0.  1.
          6    1    1    2  501    0  0.83011333687E+01 -0.72339860167E+02  0.19280037596E+02  0.18868673518E+03  0.17300000000E+03 0.  1.
         -6    1    1    2    0  502 -0.83011333687E+01  0.72339860167E+02  0.54475781570E+02  0.19544455726E+03  0.17300000000E+03 0.  1.
<mgrwt>
<rscale>  2 0.18769913E+03</rscale>
<asrwt>0</asrwt>
<pdfrwt beam="1">  1       21 0.35222086E-01 0.18769913E+03</pdfrwt>
<pdfrwt beam="2">  1       21 0.23875036E-01 0.18769913E+03</pdfrwt>
<totfact> 0.12871460E+05</totfact>
</mgrwt>
</event>
<event>
 4    1  0.3883260E+000  0.3179202E+03  0.7546771E-02  0.1076610E+00
         21   -1    0    0  503  502  0.00000000000E+00  0.00000000000E+00  0.96733242098E+02  0.96733242098E+02  0.00000000000E+00 0. -1.
         21   -1    0    0  501  503 -0.00000000000E+00 -0.00000000000E+00 -0.11884982239E+04  0.11884982239E+04  0.00000000000E+00 0. -1.
          6    1    1    2  501    0  0.26627622928E+03  0.15530954208E+02 -0.76928012728E+03  0.83238522034E+03  0.17300000000E+03 0. -1.
         -6    1    1    2    0  502 -0.26627622928E+03 -0.15530954208E+02 -0.32248485455E+03  0.45284624569E+03  0.17300000000E+03 0. -1.
<mgrwt>
<rscale>  2 0.31792018E+03</rscale>
<asrwt>0</asrwt>
<pdfrwt beam="1">  1       21 0.14882038E-01 0.31792018E+03</pdfrwt>
<pdfrwt beam="2">  1       21 0.18284588E+00 0.31792018E+03</pdfrwt>
<totfact> 0.63639425E+03</totfact>
</mgrwt>
</event>
<event>
 4    1  0.3883260E+000  0.1929118E+03  0.7546771E-02  0.1155861E+00
         21   -1    0    0  501  502  0.00000000000E+00  0.00000000000E+00  0.15160111388E+03  0.15160111388E+03  0.00000000000E+00 0.  1.
         21   -1    0    0  502  503 -0.00000000000E+00 -0.00000000000E+00 -0.34937863683E+03  0.34937863683E+03  0.00000000000E+00 0.  1.
          6    1    1    2  501    0 -0.85346831004E+02  0.13681559272E+01  0.37710434121E+02  0.19656304397E+03  0.17300000000E+03 0.  1.
         -6    1    1    2    0  503  0.85346831004E+02 -0.13681559272E+01 -0.23548795708E+03  0.30441670674E+03  0.17300000000E+03 0.  1.
<mgrwt>
<rscale>  2 0.19291178E+03</rscale>
<asrwt>0</asrwt>
<pdfrwt beam="1">  1       21 0.23323248E-01 0.19291178E+03</pdfrwt>
<pdfrwt beam="2">  1       21 0.53750560E-01 0.19291178E+03</pdfrwt>
<totfact> 0.56594336E+04</totfact>
</mgrwt>
</event>
<event>
 4    1  0.3883260E+000  0.1757042E+03  0.7546771E-02  0.1172026E+00
         21   -1    0    0  503  502  0.00000000000E+00  0.00000000000E+00  0.77572882050E+02  0.77572882050E+02  0.00000000000E+00 0. -1.
         21   -1    0    0  501  503 -0.00000000000E+00 -0.00000000000E+00 -0.39959486997E+03  0.39959486997E+03  0.00000000000E+00 0. -1.
          6    1    1    2  501    0  0.30510039842E+02 -0.34804311674E+01 -0.17620701192E+03  0.24883907849E+03  0.17300000000E+03 0. -1.
         -6    1    1    2    0  502 -0.30510039842E+02  0.34804311674E+01 -0.14581497600E+03  0.22832867354E+03  0.17300000000E+03 0. -1.
<mgrwt>
<rscale>  2 0.17570423E+03</rscale>
<asrwt>0</asrwt>
<pdfrwt beam="1">  1       21 0.11934290E-01 0.17570423E+03</pdfrwt>
<pdfrwt beam="2">  1       21 0.61476133E-01 0.17570423E+03</pdfrwt>
<totfact> 0.14656740E+05</totfact>
</mgrwt>
</event>
<event>
 4    1  0.3883260E+000  0.2119643E+03  0.7546771E-02  0.1140020E+00
         21   -1    0    0  501  502  0.00000000000E+00  0.00000000000E+00  0.14889907436E+03  0.14889907436E+03  0.00000000000E+00 0. -1.
         21   -1    0    0  502  503 -0.00000000000E+00 -0.00000000000E+00 -0.31491248807E+03  0.31491248807E+03  0.00000000000E+00 0.  1.
          6    1    1    2  501    0  0.40690722796E+02 -0.11551676980E+03 -0.35577621783E+02  0.21492935165E+03  0.17300000000E+03 0.  1.
         -6    1    1    2    0  503 -0.40690722796E+02  0.11551676980E+03 -0.13043579193E+03  0.24888221078E+03  0.17300000000E+03 0. -1.
<mgrwt>
<rscale>  2 0.21196429E+03</rscale>
<asrwt>0</asrwt>
<pdfrwt beam="1">  1       21 0.22907550E-01 0.21196429E+03</pdfrwt>
<pdfrwt beam="2">  1       21 0.48448075E-01 0.21196429E+03</pdfrwt>
<totfact> 0.72152700E+04</totfact>
</mgrwt>
</event>
<event>
 4    1  0.3883260E+000  0.1862581E+03  0.7546771E-02  0.1161880E+00
         21   -1    0    0  501  502  0.00000000000E+00  0.00000000000E+00  0.80797362795E+02  0.80797362795E+02  0.00000000000E+00 0. -1.
         21   -1    0    0  502  503 -0.00000000000E+00 -0.00000000000E+00 -0.69462106966E+03  0.69462106966E+03  0.00000000000E+00 0.  1.
          6    1    1    2  501    0  0.21352729654E+02 -0.65628710741E+02 -0.67326824765E+02  0.19805294259E+03  0.17300000000E+03 0. -1.
         -6    1    1    2    0  503 -0.21352729654E+02  0.65628710741E+02 -0.54649688210E+03  0.57736548986E+03  0.17300000000E+03 0.  1.
<mgrwt>
<rscale>  2 0.18625806E+03</rscale>
<asrwt>0</asrwt>
<pdfrwt beam="1">  1       21 0.12430364E-01 0.18625806E+03</pdfrwt>
<pdfrwt beam="2">  1       21 0.10686478E+00 0.18625806E+03</pdfrwt>
<totfact> 0.38715104E+04</totfact>
</mgrwt>
</event>
<event>
 4    1  0.3883260E+000  0.1855843E+03  0.7546771E-02  0.1162505E+00
         21   -1    0    0  501  502  0.00000000000E+00  0.00000000000E+00  0.76785726399E+03  0.76785726399E+03  0.00000000000E+00 0.  1.
         21   -1    0    0  502  503 -0.00000000000E+00 -0.00000000000E+00 -0.13472080334E+03  0.13472080334E+03  0.00000000000E+00 0.  1.
          6    1    1    2  501    0  0.18951529016E+02 -0.64446618277E+02  0.68515260026E+03  0.70984196319E+03  0.17300000000E+03 0.  1.
         -6    1    1    2    0  503 -0.18951529016E+02  0.64446618277E+02 -0.52016139614E+02  0.19273610414E+03  0.17300000000E+03 0.  1.
<mgrwt>
<rscale>  2 0.18558429E+03</rscale>
<asrwt>0</asrwt>
<pdfrwt beam="1">  1       21 0.11813188E+00 0.18558429E+03</pdfrwt>
<pdfrwt beam="2">  1       21 0.20726278E-01 0.18558429E+03</pdfrwt>
<totfact> 0.11912995E+04</totfact>
</mgrwt>
</event>
<event>
 4    1  0.3883260E+000  0.2052970E+03  0.7546771E-02  0.1145345E+00
         21   -1    0    0  501  502  0.00000000000E+00  0.00000000000E+00  0.28118439938E+03  0.28118439938E+03  0.00000000000E+00 0.  1.
         21   -1    0    0  502  503 -0.00000000000E+00 -0.00000000000E+00 -0.16091087025E+03  0.16091087025E+03  0.00000000000E+00 0. -1.
          6    1    1    2  501    0 -0.91203222319E+02 -0.62448761766E+02  0.11798510383E+03  0.23678547323E+03  0.17300000000E+03 0.  1.
         -6    1    1    2    0  503  0.91203222319E+02  0.62448761766E+02  0.22884253014E+01  0.20530979640E+03  0.17300000000E+03 0. -1.
<mgrwt>
<rscale>  2 0.20529704E+03</rscale>
<asrwt>0</asrwt>
<pdfrwt beam="1">  1       21 0.43259138E-01 0.20529704E+03</pdfrwt>
<pdfrwt beam="2">  1       21 0.24755519E-01 0.20529704E+03</pdfrwt>
<totfact> 0.78856869E+04</totfact>
</mgrwt>
</event>
<event>
 4    1  0.3883260E+000  0.1792299E+03  0.7546771E-02  0.1168550E+00
         21   -1    0    0  503  502  0.00000000000E+00  0.00000000000E+00  0.12340366218E+03  0.12340366218E+03  0.00000000000E+00 0. -1.
         21   -1    0    0  501  503 -0.00000000000E+00 -0.00000000000E+00 -0.53080092506E+03  0.53080092506E+03  0.00000000000E+00 0. -1.
          6    1    1    2  501    0  0.46787292068E+02  0.22996699977E+01 -0.43720205126E+03  0.47251346310E+03  0.17300000000E+03 0. -1.
         -6    1    1    2    0  502 -0.46787292068E+02 -0.22996699977E+01  0.29804788386E+02  0.18169112414E+03  0.17300000000E+03 0. -1.
<mgrwt>
<rscale>  2 0.17922985E+03</rscale>
<asrwt>0</asrwt>
<pdfrwt beam="1">  1       21 0.18985179E-01 0.17922985E+03</pdfrwt>
<pdfrwt beam="2">  1       21 0.81661679E-01 0.17922985E+03</pdfrwt>
<totfact> 0.33633048E+04</totfact>
</mgrwt>
</event>
<event>
 4    1  0.3883260E+000  0.2985995E+03  0.7546771E-02  0.1085943E+00
         21   -1    0    0  503  502  0.00000000000E+00  0.00000000000E+00  0.26682184569E+03  0.26682184569E+03  0.00000000000E+00 0.  1.
         21   -1    0    0  501  503 -0.00000000000E+00 -0.00000000000E+00 -0.50886325900E+03  0.50886325900E+03  0.00000000000E+00 0. -1.
          6    1    1    2  501    0 -0.20502861548E+03  0.13113333494E+03 -0.34827029122E+03  0.45875252637E+03  0.17300000000E+03 0. -1.
         -6    1    1    2    0  502  0.20502861548E+03 -0.13113333494E+03  0.10622887792E+03  0.31693257832E+03  0.17300000000E+03 0.  1.
<mgrwt>
<rscale>  2 0.29859954E+03</rscale>
<asrwt>0</asrwt>
<pdfrwt beam="1">  1       21 0.41049515E-01 0.29859954E+03</pdfrwt>
<pdfrwt beam="2">  1       21 0.78286655E-01 0.29859954E+03</pdfrwt>
<totfact> 0.77524015E+03</totfact>
</mgrwt>
</event>
<event>
 4    1  0.3883260E+000  0.2139353E+03  0.7546771E-02  0.1138487E+00
         21   -1    0    0  501  502  0.00000000000E+00  0.00000000000E+00  0.74280818408E+03  0.74280818408E+03  0.00000000000E+00 0.  1.
         21   -1    0    0  502  503 -0.00000000000E+00 -0.00000000000E+00 -0.25049397346E+03  0.25049397346E+03  0.00000000000E+00 0.  1.
          6    1    1    2  501    0  0.12531574081E+03  0.11630751165E+02  0.67742215709E+03  0.71040065328E+03  0.17300000000E+03 0.  1.
         -6    1    1    2    0  503 -0.12531574081E+03 -0.11630751165E+02 -0.18510794647E+03  0.28290150426E+03  0.17300000000E+03 0.  1.
<mgrwt>
<rscale>  2 0.21393529E+03</rscale>
<asrwt>0</asrwt>
<pdfrwt beam="1">  1       21 0.11427818E+00 0.21393529E+03</pdfrwt>
<pdfrwt beam="2">  1       21 0.38537535E-01 0.21393529E+03</pdfrwt>
<totfact> 0.37988008E+03</totfact>
</mgrwt>
</event>
<event>
 4    1  0.3883260E+000  0.1926503E+03  0.7546771E-02  0.1156092E+00
         21   -1    0    0  501  502  0.00000000000E+00  0.00000000000E+00  0.41247184443E+03  0.41247184443E+03  0.00000000000E+00 0.  1.
         21   -1    0    0  502  503 -0.00000000000E+00 -0.00000000000E+00 -0.19739203349E+03  0.19739203349E+03  0.00000000000E+00 0.  1.
          6    1    1    2  501    0 -0.26316532351E+02 -0.80576535744E+02  0.33247900858E+03  0.38426088682E+03  0.17300000000E+03 0.  1.
         -6    1    1    2    0  503  0.26316532351E+02  0.80576535744E+02 -0.11739919764E+03  0.22560299110E+03  0.17300000000E+03 0.  1.
<mgrwt>
<rscale>  2 0.19265030E+03</rscale>
<asrwt>0</asrwt>
<pdfrwt beam="1">  1       21 0.63457207E-01 0.19265030E+03</pdfrwt>
<pdfrwt beam="2">  1       21 0.30368005E-01 0.19265030E+03</pdfrwt>
<totfact> 0.23895612E+04</totfact>
</mgrwt>
</event>
<event>
 4    1  0.3883260E+000  0.2049409E+03  0.7546771E-02  0.1145636E+00
         21   -1    0    0  501  502  0.00000000000E+00  0.00000000000E+00  0.36950257976E+03  0.36950257976E+03  0.00000000000E+00 0.  1.
         21   -1    0    0  502  503 -0.00000000000E+00 -0.00000000000E+00 -0.11378204652E+03  0.11378204652E+03  0.00000000000E+00 0.  1.
          6    1    1    2  501    0 -0.94191592690E+02 -0.56565887269E+02  0.12022239052E+03  0.23760088156E+03  0.17300000000E+03 0.  1.
         -6    1    1    2    0  503  0.94191592690E+02  0.56565887269E+02  0.13549814272E+03  0.24568374472E+03  0.17300000000E+03 0.  1.
<mgrwt>
<rscale>  2 0.20494086E+03</rscale>
<asrwt>0</asrwt>
<pdfrwt beam="1">  1       21 0.56846550E-01 0.20494086E+03</pdfrwt>
<pdfrwt beam="2">  1       21 0.17504930E-01 0.20494086E+03</pdfrwt>
<totfact> 0.85515933E+04</totfact>
</mgrwt>
</event>
<event>
 4    1  0.3883260E+000  0.1806832E+03  0.7546771E-02  0.1167143E+00
         21   -1    0    0  503  502  0.00000000000E+00  0.00000000000E+00  0.82429052370E+02  0.82429052370E+02  0.00000000000E+00 0.  1.
         21   -1    0    0  501  503 -0.00000000000E+00 -0.00000000000E+00 -0.55510153817E+03  0.55510153817E+03  0.00000000000E+00 0.  1.
          6    1    1    2  501    0  0.29821713103E+02  0.42756250701E+02 -0.40696296201E+03  0.44526990017E+03  0.17300000000E+03 0.  1.
         -6    1    1    2    0  502 -0.29821713103E+02 -0.42756250701E+02 -0.65709523790E+02  0.19226069037E+03  0.17300000000E+03 0.  1.
<mgrwt>
<rscale>  2 0.18068324E+03</rscale>
<asrwt>0</asrwt>
<pdfrwt beam="1">  1       21 0.12681393E-01 0.18068324E+03</pdfrwt>
<pdfrwt beam="2">  1       21 0.85400233E-01 0.18068324E+03</pdfrwt>
<totfact> 0.63351736E+04</totfact>
</mgrwt>
</event>
<event>
 4    1  0.3883260E+000  0.1781473E+03  0.7546771E-02  0.1169608E+00
         21   -1    0    0  503  502  0.00000000000E+00  0.00000000000E+00  0.47215653881E+02  0.47215653881E+02  0.00000000000E+00 0.  1.
         21   -1    0    0  501  503 -0.00000000000E+00 -0.00000000000E+00 -0.68573142658E+03  0.68573142658E+03  0.00000000000E+00 0.  1.
          6    1    1    2  501    0  0.42498247461E+02 -0.11674313006E+01 -0.26770158784E+03  0.32155964309E+03  0.17300000000E+03 0.  1.
         -6    1    1    2    0  502 -0.42498247461E+02  0.11674313006E+01 -0.37081418486E+03  0.41138743737E+03  0.17300000000E+03 0.  1.
<mgrwt>
<rscale>  2 0.17814731E+03</rscale>
<asrwt>0</asrwt>
<pdfrwt beam="1">  1       21 0.72639467E-02 0.17814731E+03</pdfrwt>
<pdfrwt beam="2">  1       21 0.10549714E+00 0.17814731E+03</pdfrwt>
<totfact> 0.10311422E+05</totfact>
</mgrwt>
</event>
<event>
 4    1  0.3883260E+000  0.3655733E+03  0.7546771E-02  0.1056399E+00
         21   -1    0    0  503  502  0.00000000000E+00  0.00000000000E+00  0.10989325494E+04  0.10989325494E+04  0.00000000000E+00 0.  1.
         21   -1    0    0  501  503 -0.00000000000E+00 -0.00000000000E+00 -0.20626165359E+03  0.20626165359E+03  0.00000000000E+00 0. -1.
          6    1    1    2  501    0 -0.16463354368E+02  0.32162677267E+03  0.28266931022E+02  0.36666448195E+03  0.17300000000E+03 0. -1.
         -6    1    1    2    0  502  0.16463354368E+02 -0.32162677267E+03  0.86440396474E+03  0.93852972099E+03  0.17300000000E+03 0.  1.
<mgrwt>
<rscale>  2 0.36557328E+03</rscale>
<asrwt>0</asrwt>
<pdfrwt beam="1">  1       21 0.16906654E+00 0.36557328E+03</pdfrwt>
<pdfrwt beam="2">  1       21 0.31732563E-01 0.36557328E+03</pdfrwt>
<totfact> 0.18288862E+03</totfact>
</mgrwt>
</event>
<event>
 4    1  0.3883260E+000  0.1960016E+03  0.7546771E-02  0.1153157E+00
         21   -1    0    0  503  502  0.00000000000E+00  0.00000000000E+00  0.59734802707E+02  0.59734802707E+02  0.00000000000E+00 0. -1.
         21   -1    0    0  501  503 -0.00000000000E+00 -0.00000000000E+00 -0.67015523724E+03  0.67015523724E+03  0.00000000000E+00 0. -1.
          6    1    1    2  501    0 -0.52593591877E+02  0.75640926761E+02 -0.37851060176E+03  0.42624747665E+03  0.17300000000E+03 0. -1.
         -6    1    1    2    0  502  0.52593591877E+02 -0.75640926761E+02 -0.23190983278E+03  0.30364256330E+03  0.17300000000E+03 0. -1.
<mgrwt>
<rscale>  2 0.19600162E+03</rscale>
<asrwt>0</asrwt>
<pdfrwt beam="1">  1       21 0.91899699E-02 0.19600162E+03</pdfrwt>
<pdfrwt beam="2">  1       21 0.10310080E+00 0.19600162E+03</pdfrwt>
<totfact> 0.71763098E+04</totfact>
</mgrwt>
</event>
<event>
 4    1  0.3883260E+000  0.2241124E+03  0.7546771E-02  0.1130854E+00
         21   -1    0    0  501  502  0.00000000000E+00  0.00000000000E+00  0.17341873907E+03  0.17341873907E+03  0.00000000000E+00 0.  1.
         21   -1    0    0  502  503 -0.00000000000E+00 -0.00000000000E+00 -0.28962998149E+03  0.28962998149E+03  0.00000000000E+00 0.  1.
          6    1    1    2  501    0 -0.84849638275E+02 -0.11444603989E+03 -0.59090572109E+02  0.23177155320E+03  0.17300000000E+03 0.  1.
         -6    1    1    2    0  503  0.84849638275E+02  0.11444603989E+03 -0.57120670310E+02  0.23127716735E+03  0.17300000000E+03 0.  1.
<mgrwt>
<rscale>  2 0.22411238E+03</rscale>
<asrwt>0</asrwt>
<pdfrwt beam="1">  1       21 0.26679806E-01 0.22411238E+03</pdfrwt>
<pdfrwt beam="2">  1       21 0.44558459E-01 0.22411238E+03</pdfrwt>
<totfact> 0.63772026E+04</totfact>
</mgrwt>
</event>
<event>
 4    1  0.3883260E+000  0.1900265E+03  0.7546771E-02  0.1158437E+00
         21   -1    0    0  503  502  0.00000000000E+00  0.00000000000E+00  0.58343254061E+02  0.58343254061E+02  0.00000000000E+00 0.  1.
         21   -1    0    0  501  503 -0.00000000000E+00 -0.00000000000E+00 -0.95786285596E+03  0.95786285596E+03  0.00000000000E+00 0.  1.
          6    1    1    2  501    0  0.56271903699E+02 -0.54904698854E+02 -0.75200588137E+03  0.77564353844E+03  0.17300000000E+03 0.  1.
         -6    1    1    2    0  502 -0.56271903699E+02  0.54904698854E+02 -0.14751372052E+03  0.24056257158E+03  0.17300000000E+03 0.  1.
<mgrwt>
<rscale>  2 0.19002645E+03</rscale>
<asrwt>0</asrwt>
<pdfrwt beam="1">  1       21 0.89758863E-02 0.19002645E+03</pdfrwt>
<pdfrwt beam="2">  1       21 0.14736350E+00 0.19002645E+03</pdfrwt>
<totfact> 0.30783378E+04</totfact>
</mgrwt>
</event>
<event>
 4    1  0.3883260E+000  0.1823781E+03  0.7546771E-02  0.1165521E+00
         21   -1    0    0  501  502  0.00000000000E+00  0.00000000000E+00  0.29853733099E+03  0.29853733099E+03  0.00000000000E+00 0.  1.
         21   -1    0    0  502  503 -0.00000000000E+00 -0.00000000000E+00 -0.11141637575E+03  0.11141637575E+03  0.00000000000E+00 0.  1.
          6    1    1    2  501    0  0.46722650008E+01 -0.57540688742E+02  0.94045876868E+02  0.20519841100E+03  0.17300000000E+03 0.  1.
         -6    1    1    2    0  503 -0.46722650008E+01  0.57540688742E+02  0.93075078367E+02  0.20475529574E+03  0.17300000000E+03 0.  1.
<mgrwt>
<rscale>  2 0.18237807E+03</rscale>
<asrwt>0</asrwt>
<pdfrwt beam="1">  1       21 0.45928820E-01 0.18237807E+03</pdfrwt>
<pdfrwt beam="2">  1       21 0.17140981E-01 0.18237807E+03</pdfrwt>
<totfact> 0.14008794E+05</totfact>
</mgrwt>
</event>
<event>
 4    1  0.3883260E+000  0.1840641E+03  0.7546771E-02  0.1163927E+00
         21   -1    0    0  503  502  0.00000000000E+00  0.00000000000E+00  0.12256920585E+03  0.12256920585E+03  0.00000000000E+00 0.  1.
         21   -1    0    0  501  503 -0.00000000000E+00 -0.00000000000E+00 -0.28281880668E+03  0.28281880668E+03  0.00000000000E+00 0.  1.
          6    1    1    2  501    0 -0.56370798302E+02 -0.27801823886E+02 -0.11063219286E+03  0.21475355739E+03  0.17300000000E+03 0.  1.
         -6    1    1    2    0  502  0.56370798302E+02  0.27801823886E+02 -0.49617407966E+02  0.19063445514E+03  0.17300000000E+03 0.  1.
<mgrwt>
<rscale>  2 0.18406414E+03</rscale>
<asrwt>0</asrwt>
<pdfrwt beam="1">  1       21 0.18856801E-01 0.18406414E+03</pdfrwt>
<pdfrwt beam="2">  1       21 0.43510586E-01 0.18406414E+03</pdfrwt>
<totfact> 0.13115377E+05</totfact>
</mgrwt>
</event>
<event>
 4    1  0.3883260E+000  0.1827572E+03  0.7546771E-02  0.1165161E+00
         21   -1    0    0  503  502  0.00000000000E+00  0.00000000000E+00  0.90523438297E+03  0.90523438297E+03  0.00000000000E+00 0.  1.
         21   -1    0    0  501  503 -0.00000000000E+00 -0.00000000000E+00 -0.51221291563E+02  0.51221291563E+02  0.00000000000E+00 0.  1.
          6    1    1    2  501    0 -0.39030741213E+02 -0.44134023321E+02  0.17410592927E+03  0.25241451103E+03  0.17300000000E+03 0.  1.
         -6    1    1    2    0  502  0.39030741213E+02  0.44134023321E+02  0.67990716214E+03  0.70404116350E+03  0.17300000000E+03 0.  1.
<mgrwt>
<rscale>  2 0.18275725E+03</rscale>
<asrwt>0</asrwt>
<pdfrwt beam="1">  1       21 0.13926682E+00 0.18275725E+03</pdfrwt>
<pdfrwt beam="2">  1       21 0.78801993E-02 0.18275725E+03</pdfrwt>
<totfact> 0.44931120E+04</totfact>
</mgrwt>
</event>
<event>
 4    1  0.3883260E+000  0.2092775E+03  0.7546771E-02  0.1142139E+00
         21   -1    0    0  503  502  0.00000000000E+00  0.00000000000E+00  0.45336694521E+03  0.45336694521E+03  0.00000000000E+00 0. -1.
         21   -1    0    0  501  503 -0.00000000000E+00 -0.00000000000E+00 -0.24382040350E+03  0.24382040350E+03  0.00000000000E+00 0. -1.
          6    1    1    2  501    0 -0.98892397011E+02  0.63940256802E+02 -0.16609776824E+03  0.26718070896E+03  0.17300000000E+03 0. -1.
         -6    1    1    2    0  502  0.98892397011E+02 -0.63940256802E+02  0.37564430995E+03  0.43000663974E+03  0.17300000000E+03 0. -1.
<mgrwt>
<rscale>  2 0.20927748E+03</rscale>
<asrwt>0</asrwt>
<pdfrwt beam="1">  1       21 0.69748761E-01 0.20927748E+03</pdfrwt>
<pdfrwt beam="2">  1       21 0.37510831E-01 0.20927748E+03</pdfrwt>
<totfact> 0.12662879E+04</totfact>
</mgrwt>
</event>
<event>
 4    1  0.3883260E+000  0.2162177E+03  0.7546771E-02  0.1136735E+00
         21   -1    0    0  501  502  0.00000000000E+00  0.00000000000E+00  0.38702807017E+03  0.38702807017E+03  0.00000000000E+00 0. -1.
         21   -1    0    0  502  503 -0.00000000000E+00 -0.00000000000E+00 -0.21471029294E+03  0.21471029294E+03  0.00000000000E+00 0. -1.
          6    1    1    2  501    0 -0.12510719318E+03 -0.34194501570E+02  0.28514616044E+03  0.35785249270E+03  0.17300000000E+03 0. -1.
         -6    1    1    2    0  503  0.12510719318E+03  0.34194501570E+02 -0.11282838321E+03  0.24388587040E+03  0.17300000000E+03 0. -1.
<mgrwt>
<rscale>  2 0.21621765E+03</rscale>
<asrwt>0</asrwt>
<pdfrwt beam="1">  1       21 0.59542780E-01 0.21621765E+03</pdfrwt>
<pdfrwt beam="2">  1       21 0.33032353E-01 0.21621765E+03</pdfrwt>
<totfact> 0.22930757E+04</totfact>
</mgrwt>
</event>
<event>
 4    1  0.3883260E+000  0.2601974E+03  0.7546771E-02  0.1107025E+00
         21   -1    0    0  503  502  0.00000000000E+00  0.00000000000E+00  0.11861999625E+03  0.11861999625E+03  0.00000000000E+00 0. -1.
         21   -1    0    0  501  503 -0.00000000000E+00 -0.00000000000E+00 -0.11602042603E+04  0.11602042603E+04  0.00000000000E+00 0. -1.
          6    1    1    2  501    0  0.95564638058E+02  0.16923682165E+03 -0.97655364103E+03  0.10106234292E+04  0.17300000000E+03 0. -1.
         -6    1    1    2    0  502 -0.95564638058E+02 -0.16923682165E+03 -0.65030622984E+02  0.26820082732E+03  0.17300000000E+03 0. -1.
<mgrwt>
<rscale>  2 0.26019743E+03</rscale>
<asrwt>0</asrwt>
<pdfrwt beam="1">  1       21 0.18249230E-01 0.26019743E+03</pdfrwt>
<pdfrwt beam="2">  1       21 0.17849297E+00 0.26019743E+03</pdfrwt>
<totfact> 0.48377450E+03</totfact>
</mgrwt>
</event>
<event>
 4    1  0.3883260E+000  0.1802866E+03  0.7546771E-02  0.1167526E+00
         21   -1    0    0  501  502  0.00000000000E+00  0.00000000000E+00  0.89224575381E+02  0.89224575381E+02  0.00000000000E+00 0. -1.
         21   -1    0    0  502  503 -0.00000000000E+00 -0.00000000000E+00 -0.47415034323E+03  0.47415034323E+03  0.00000000000E+00 0. -1.
          6    1    1    2  501    0  0.50385658034E+02  0.59628256571E+01 -0.56869742203E+02  0.18904348019E+03  0.17300000000E+03 0. -1.
         -6    1    1    2    0  503 -0.50385658034E+02 -0.59628256571E+01 -0.32805602565E+03  0.37433143842E+03  0.17300000000E+03 0. -1.
<mgrwt>
<rscale>  2 0.18028663E+03</rscale>
<asrwt>0</asrwt>
<pdfrwt beam="1">  1       21 0.13726858E-01 0.18028663E+03</pdfrwt>
<pdfrwt beam="2">  1       21 0.72946207E-01 0.18028663E+03</pdfrwt>
<totfact> 0.78340446E+04</totfact>
</mgrwt>
</event>
<event>
 4    1  0.3883260E+000  0.1976715E+03  0.7546771E-02  0.1151719E+00
         21   -1    0    0  501  502  0.00000000000E+00  0.00000000000E+00  0.30868713690E+03  0.30868713690E+03  0.00000000000E+00 0.  1.
         21   -1    0    0  502  503 -0.00000000000E+00 -0.00000000000E+00 -0.14002082980E+03  0.14002082980E+03  0.00000000000E+00 0. -1.
          6    1    1    2  501    0 -0.94176096549E+02 -0.16609990848E+02  0.15384022355E+03  0.25048122353E+03  0.17300000000E+03 0.  1.
         -6    1    1    2    0  503  0.94176096549E+02  0.16609990848E+02  0.14826083552E+02  0.19822674318E+03  0.17300000000E+03 0. -1.
<mgrwt>
<rscale>  2 0.19767152E+03</rscale>
<asrwt>0</asrwt>
<pdfrwt beam="1">  1       21 0.47490329E-01 0.19767152E+03</pdfrwt>
<pdfrwt beam="2">  1       21 0.21541666E-01 0.19767152E+03</pdfrwt>
<totfact> 0.84987996E+04</totfact>
</mgrwt>
</event>
<event>
 4    1  0.3883260E+000  0.2329498E+03  0.7546771E-02  0.1124581E+00
         21   -1    0    0  501  502  0.00000000000E+00  0.00000000000E+00  0.20130709328E+03  0.20130709328E+03  0.00000000000E+00 0. -1.
         21   -1    0    0  502  503 -0.00000000000E+00 -0.00000000000E+00 -0.30387417615E+03  0.30387417615E+03  0.00000000000E+00 0. -1.
          6    1    1    2  501    0 -0.50513434542E+02  0.14759743945E+03 -0.13615607614E+03  0.26982232723E+03  0.17300000000E+03 0. -1.
         -6    1    1    2    0  503  0.50513434542E+02 -0.14759743945E+03  0.33588993267E+02  0.23535894219E+03  0.17300000000E+03 0. -1.
<mgrwt>
<rscale>  2 0.23294980E+03</rscale>
<asrwt>0</asrwt>
<pdfrwt beam="1">  1       21 0.30970322E-01 0.23294980E+03</pdfrwt>
<pdfrwt beam="2">  1       21 0.46749874E-01 0.23294980E+03</pdfrwt>
<totfact> 0.43030636E+04</totfact>
</mgrwt>
</event>
<event>
 4    1  0.3883260E+000  0.1855186E+03  0.7546771E-02  0.1162566E+00
         21   -1    0    0  501  502  0.00000000000E+00  0.00000000000E+00  0.20942003501E+03  0.20942003501E+03  0.00000000000E+00 0. -1.
         21   -1    0    0  502  503 -0.00000000000E+00 -0.00000000000E+00 -0.21358516617E+03  0.21358516617E+03  0.00000000000E+00 0. -1.
          6    1    1    2  501    0  0.29541797577E+02 -0.60128573345E+02  0.99469636332E+02  0.21050266433E+03  0.17300000000E+03 0. -1.
         -6    1    1    2    0  503 -0.29541797577E+02  0.60128573345E+02 -0.10363476749E+03  0.21250253685E+03  0.17300000000E+03 0. -1.
<mgrwt>
<rscale>  2 0.18551863E+03</rscale>
<asrwt>0</asrwt>
<pdfrwt beam="1">  1       21 0.32218467E-01 0.18551863E+03</pdfrwt>
<pdfrwt beam="2">  1       21 0.32859256E-01 0.18551863E+03</pdfrwt>
<totfact> 0.82859228E+04</totfact>
</mgrwt>
</event>
<event>
 4    1  0.3883260E+000  0.2890404E+03  0.7546771E-02  0.1090851E+00
         21   -1    0    0  503  502  0.00000000000E+00  0.00000000000E+00  0.36069925259E+03  0.36069925259E+03  0.00000000000E+00 0.  1.
         21   -1    0    0  501  503 -0.00000000000E+00 -0.00000000000E+00 -0.53031839105E+03  0.53031839105E+03  0.00000000000E+00 0. -1.
          6    1    1    2  501    0 -0.85155025609E+02  0.21532299647E+03 -0.41916316432E+03  0.50915825587E+03  0.17300000000E+03 0. -1.
         -6    1    1    2    0  502  0.85155025609E+02 -0.21532299647E+03  0.24954402586E+03  0.38185938778E+03  0.17300000000E+03 0.  1.
<mgrwt>
<rscale>  2 0.28904043E+03</rscale>
<asrwt>0</asrwt>
<pdfrwt beam="1">  1       21 0.55492193E-01 0.28904043E+03</pdfrwt>
<pdfrwt beam="2">  1       21 0.81587445E-01 0.28904043E+03</pdfrwt>
<totfact> 0.37716335E+03</totfact>
</mgrwt>
</event>
<event>
 4    1  0.3883260E+000  0.1975911E+03  0.7546771E-02  0.1151787E+00
         21   -1    0    0  503  502  0.00000000000E+00  0.00000000000E+00  0.13635949004E+03  0.13635949004E+03  0.00000000000E+00 0.  1.
         21   -1    0    0  501  503 -0.00000000000E+00 -0.00000000000E+00 -0.28964779960E+03  0.28964779960E+03  0.00000000000E+00 0. -1.
          6    1    1    2  501    0  0.72116814875E+02  0.62549391772E+02 -0.99480171113E+02  0.22122062707E+03  0.17300000000E+03 0.  1.
         -6    1    1    2    0  502 -0.72116814875E+02 -0.62549391772E+02 -0.53808138446E+02  0.20478666256E+03  0.17300000000E+03 0.  1.
<mgrwt>
<rscale>  2 0.19759115E+03</rscale>
<asrwt>0</asrwt>
<pdfrwt beam="1">  1       21 0.20978383E-01 0.19759115E+03</pdfrwt>
<pdfrwt beam="2">  1       21 0.44561200E-01 0.19759115E+03</pdfrwt>
<totfact> 0.10185856E+05</totfact>
</mgrwt>
</event>
<event>
 4    1  0.3883260E+000  0.1825984E+03  0.7546771E-02  0.1165312E+00
         21   -1    0    0  501  502  0.00000000000E+00  0.00000000000E+00  0.22073091902E+03  0.22073091902E+03  0.00000000000E+00 0.  1.
         21   -1    0    0  502  503 -0.00000000000E+00 -0.00000000000E+00 -0.25854730255E+03  0.25854730255E+03  0.00000000000E+00 0.  1.
          6    1    1    2  501    0 -0.38202122754E+02 -0.44201572239E+02  0.13560991446E+03  0.22744720282E+03  0.17300000000E+03 0.  1.
         -6    1    1    2    0  503  0.38202122754E+02  0.44201572239E+02 -0.17342629799E+03  0.25183101875E+03  0.17300000000E+03 0.  1.
<mgrwt>
<rscale>  2 0.18259842E+03</rscale>
<asrwt>0</asrwt>
<pdfrwt beam="1">  1       21 0.33958603E-01 0.18259842E+03</pdfrwt>
<pdfrwt beam="2">  1       21 0.39776508E-01 0.18259842E+03</pdfrwt>
<totfact> 0.51135868E+04</totfact>
</mgrwt>
</event>
<event>
 4    1  0.3883260E+000  0.1756917E+03  0.7546771E-02  0.1172039E+00
         21   -1    0    0  501  502  0.00000000000E+00  0.00000000000E+00  0.35245913238E+02  0.35245913238E+02  0.00000000000E+00 0.  1.
         21   -1    0    0  502  503 -0.00000000000E+00 -0.00000000000E+00 -0.95717898566E+03  0.95717898566E+03  0.00000000000E+00 0. -1.
          6    1    1    2  501    0 -0.15077249080E+02 -0.26669185990E+02 -0.31626007781E+03  0.36178447415E+03  0.17300000000E+03 0.  1.
         -6    1    1    2    0  503  0.15077249080E+02  0.26669185990E+02 -0.60567299461E+03  0.63064042475E+03  0.17300000000E+03 0. -1.
<mgrwt>
<rscale>  2 0.17569169E+03</rscale>
<asrwt>0</asrwt>
<pdfrwt beam="1">  1       21 0.54224479E-02 0.17569169E+03</pdfrwt>
<pdfrwt beam="2">  1       21 0.14725831E+00 0.17569169E+03</pdfrwt>
<totfact> 0.74170955E+04</totfact>
</mgrwt>
</event>
<event>
 4    1  0.3883260E+000  0.2265572E+03  0.7546771E-02  0.1129087E+00
         21   -1    0    0  501  502  0.00000000000E+00  0.00000000000E+00  0.87865558395E+03  0.87865558395E+03  0.00000000000E+00 0.  1.
         21   -1    0    0  502  503 -0.00000000000E+00 -0.00000000000E+00 -0.76092439531E+02  0.76092439531E+02  0.00000000000E+00 0.  1.
          6    1    1    2  501    0  0.96413066100E+02  0.11001683416E+03  0.63136031041E+03  0.67077867040E+03  0.17300000000E+03 0. -1.
         -6    1    1    2    0  503 -0.96413066100E+02 -0.11001683416E+03  0.17120283402E+03  0.28396935308E+03  0.17300000000E+03 0. -1.
<mgrwt>
<rscale>  2 0.22655724E+03</rscale>
<asrwt>0</asrwt>
<pdfrwt beam="1">  1       21 0.13517778E+00 0.22655724E+03</pdfrwt>
<pdfrwt beam="2">  1       21 0.11706530E-01 0.22655724E+03</pdfrwt>
<totfact> 0.23524815E+04</totfact>
</mgrwt>
</event>
<event>
 4    1  0.3883260E+000  0.1755960E+03  0.7546771E-02  0.1172135E+00
         21   -1    0    0  503  502  0.00000000000E+00  0.00000000000E+00  0.76594244175E+03  0.76594244175E+03  0.00000000000E+00 0.  1.
         21   -1    0    0  501  503 -0.00000000000E+00 -0.00000000000E+00 -0.17217380746E+03  0.17217380746E+03  0.00000000000E+00 0.  1.
          6    1    1    2  501    0 -0.29685017487E+02  0.48755407334E+01 -0.11369249669E+03  0.20918880220E+03  0.17300000000E+03 0.  1.
         -6    1    1    2    0  502  0.29685017487E+02 -0.48755407334E+01  0.70746113098E+03  0.72892744701E+03  0.17300000000E+03 0.  1.
<mgrwt>
<rscale>  2 0.17559605E+03</rscale>
<asrwt>0</asrwt>
<pdfrwt beam="1">  1       21 0.11783730E+00 0.17559605E+03</pdfrwt>
<pdfrwt beam="2">  1       21 0.26488279E-01 0.17559605E+03</pdfrwt>
<totfact> 0.75888142E+03</totfact>
</mgrwt>
</event>
<event>
 4    1  0.3883260E+000  0.1733749E+03  0.7546771E-02  0.1174373E+00
         21   -1    0    0  501  502  0.00000000000E+00  0.00000000000E+00  0.22896589119E+03  0.22896589119E+03  0.00000000000E+00 0.  1.
         21   -1    0    0  502  503 -0.00000000000E+00 -0.00000000000E+00 -0.16337138236E+03  0.16337138236E+03  0.00000000000E+00 0.  1.
          6    1    1    2  501    0 -0.51386878963E+01 -0.10171795900E+02  0.11973913236E+03  0.21070436959E+03  0.17300000000E+03 0.  1.
         -6    1    1    2    0  503  0.51386878963E+01  0.10171795900E+02 -0.54144623533E+02  0.18163290396E+03  0.17300000000E+03 0.  1.
<mgrwt>
<rscale>  2 0.17337494E+03</rscale>
<asrwt>0</asrwt>
<pdfrwt beam="1">  1       21 0.35225522E-01 0.17337494E+03</pdfrwt>
<pdfrwt beam="2">  1       21 0.25134059E-01 0.17337494E+03</pdfrwt>
<totfact> 0.11729817E+05</totfact>
</mgrwt>
</event>
<event>
 4    1  0.3883260E+000  0.1810277E+03  0.7546771E-02  0.1166812E+00
         21   -1    0    0  503  502  0.00000000000E+00  0.00000000000E+00  0.44704828540E+02  0.44704828540E+02  0.00000000000E+00 0.  1.
         21   -1    0    0  501  503 -0.00000000000E+00 -0.00000000000E+00 -0.15702499173E+04  0.15702499173E+04  0.00000000000E+00 0.  1.
          6    1    1    2  501    0 -0.41315119057E+02 -0.33691290758E+02 -0.13523754131E+04  0.13644377231E+04  0.17300000000E+03 0.  1.
         -6    1    1    2    0  502  0.41315119057E+02  0.33691290758E+02 -0.17316967565E+03  0.25051702277E+03  0.17300000000E+03 0.  1.
<mgrwt>
<rscale>  2 0.18102774E+03</rscale>
<asrwt>0</asrwt>
<pdfrwt beam="1">  1       21 0.68776665E-02 0.18102774E+03</pdfrwt>
<pdfrwt beam="2">  1       21 0.24157689E+00 0.18102774E+03</pdfrwt>
<totfact> 0.11754611E+04</totfact>
</mgrwt>
</event>
<event>
 4    1  0.3883260E+000  0.1736889E+03  0.7546771E-02  0.1174055E+00
         21   -1    0    0  501  502  0.00000000000E+00  0.00000000000E+00  0.88477236377E+03  0.88477236377E+03  0.00000000000E+00 0. -1.
         21   -1    0    0  502  503 -0.00000000000E+00 -0.00000000000E+00 -0.34100358373E+02  0.34100358373E+02  0.00000000000E+00 0. -1.
          6    1    1    2  501    0 -0.13393630022E+01  0.15395952049E+02  0.43008634936E+03  0.46383412676E+03  0.17300000000E+03 0.  1.
         -6    1    1    2    0  503  0.13393630022E+01 -0.15395952049E+02  0.42058565603E+03  0.45503859538E+03  0.17300000000E+03 0.  1.
<mgrwt>
<rscale>  2 0.17368889E+03</rscale>
<asrwt>0</asrwt>
<pdfrwt beam="1">  1       21 0.13611881E+00 0.17368889E+03</pdfrwt>
<pdfrwt beam="2">  1       21 0.52462097E-02 0.17368889E+03</pdfrwt>
<totfact> 0.96208639E+04</totfact>
</mgrwt>
</event>
<event>
 4    1  0.3883260E+000  0.1975489E+03  0.7546771E-02  0.1151824E+00
         21   -1    0    0  503  502  0.00000000000E+00  0.00000000000E+00  0.94297096986E+02  0.94297096986E+02  0.00000000000E+00 0. -1.
         21   -1    0    0  501  503 -0.00000000000E+00 -0.00000000000E+00 -0.16441031347E+04  0.16441031347E+04  0.00000000000E+00 0. -1.
          6    1    1    2  501    0  0.70204754284E+02 -0.64558962365E+02 -0.15267875523E+04  0.15395147928E+04  0.17300000000E+03 0. -1.
         -6    1    1    2    0  502 -0.70204754284E+02  0.64558962365E+02 -0.23018485367E+02  0.19888543892E+03  0.17300000000E+03 0. -1.
<mgrwt>
<rscale>  2 0.19754890E+03</rscale>
<asrwt>0</asrwt>
<pdfrwt beam="1">  1       21 0.14507247E-01 0.19754890E+03</pdfrwt>
<pdfrwt beam="2">  1       21 0.25293893E+00 0.19754890E+03</pdfrwt>
<totfact> 0.26492742E+03</totfact>
</mgrwt>
</event>
<event>
 4    1  0.3883260E+000  0.1962139E+03  0.7546771E-02  0.1152973E+00
         21   -1    0    0  503  502  0.00000000000E+00  0.00000000000E+00  0.38713006580E+03  0.38713006580E+03  0.00000000000E+00 0.  1.
         21   -1    0    0  501  503 -0.00000000000E+00 -0.00000000000E+00 -0.10149228456E+03  0.10149228456E+03  0.00000000000E+00 0.  1.
          6    1    1    2  501    0 -0.79221815885E+02  0.47904224139E+02  0.10815855246E+03  0.22404951076E+03  0.17300000000E+03 0.  1.
         -6    1    1    2    0  502  0.79221815885E+02 -0.47904224139E+02  0.17747922878E+03  0.26457283959E+03  0.17300000000E+03 0.  1.
<mgrwt>
<rscale>  2 0.19621394E+03</rscale>
<asrwt>0</asrwt>
<pdfrwt beam="1">  1       21 0.59558471E-01 0.19621394E+03</pdfrwt>
<pdfrwt beam="2">  1       21 0.15614198E-01 0.19621394E+03</pdfrwt>
<totfact> 0.95845527E+04</totfact>
</mgrwt>
</event>
<event>
 4    1  0.3883260E+000  0.2215233E+03  0.7546771E-02  0.1132752E+00
         21   -1    0    0  501  502  0.00000000000E+00  0.00000000000E+00  0.62853131698E+03  0.62853131698E+03  0.00000000000E+00 0.  1.
         21   -1    0    0  502  503 -0.00000000000E+00 -0.00000000000E+00 -0.11566751593E+03  0.11566751593E+03  0.00000000000E+00 0.  1.
          6    1    1    2  501    0 -0.29601930581E+02  0.13515657552E+03  0.46856286069E+03  0.51828923259E+03  0.17300000000E+03 0.  1.
         -6    1    1    2    0  503  0.29601930581E+02 -0.13515657552E+03  0.44300940359E+02  0.22590960032E+03  0.17300000000E+03 0.  1.
<mgrwt>
<rscale>  2 0.22152330E+03</rscale>
<asrwt>0</asrwt>
<pdfrwt beam="1">  1       21 0.96697124E-01 0.22152330E+03</pdfrwt>
<pdfrwt beam="2">  1       21 0.17795003E-01 0.22152330E+03</pdfrwt>
<totfact> 0.25065846E+04</totfact>
</mgrwt>
</event>
<event>
 4    1  0.3883260E+000  0.2154971E+03  0.7546771E-02  0.1137285E+00
         21   -1    0    0  501  502  0.00000000000E+00  0.00000000000E+00  0.18093970589E+03  0.18093970589E+03  0.00000000000E+00 0.  1.
         21   -1    0    0  502  503 -0.00000000000E+00 -0.00000000000E+00 -0.32623531809E+03  0.32623531809E+03  0.00000000000E+00 0. -1.
          6    1    1    2  501    0 -0.11888294179E+03  0.48752943116E+02  0.44465679308E+02  0.22003681498E+03  0.17300000000E+03 0.  1.
         -6    1    1    2    0  503  0.11888294179E+03 -0.48752943116E+02 -0.18976129150E+03  0.28713820899E+03  0.17300000000E+03 0. -1.
<mgrwt>
<rscale>  2 0.21549711E+03</rscale>
<asrwt>0</asrwt>
<pdfrwt beam="1">  1       21 0.27836878E-01 0.21549711E+03</pdfrwt>
<pdfrwt beam="2">  1       21 0.50190049E-01 0.21549711E+03</pdfrwt>
<totfact> 0.46064735E+04</totfact>
</mgrwt>
</event>
<event>
 4    1  0.3883260E+000  0.1802796E+03  0.7546771E-02  0.1167533E+00
         21   -1    0    0  501  502  0.00000000000E+00  0.00000000000E+00  0.58235568769E+03  0.58235568769E+03  0.00000000000E+00 0.  1.
         21   -1    0    0  502  503 -0.00000000000E+00 -0.00000000000E+00 -0.76872081749E+02  0.76872081749E+02  0.00000000000E+00 0.  1.
          6    1    1    2  501    0 -0.23701693425E+02  0.44832791272E+02  0.42527833149E+03  0.46191168926E+03  0.17300000000E+03 0.  1.
         -6    1    1    2    0  503  0.23701693425E+02 -0.44832791272E+02  0.80205274448E+02  0.19731608017E+03  0.17300000000E+03 0.  1.
<mgrwt>
<rscale>  2 0.18027964E+03</rscale>
<asrwt>0</asrwt>
<pdfrwt beam="1">  1       21 0.89593180E-01 0.18027964E+03</pdfrwt>
<pdfrwt beam="2">  1       21 0.11826474E-01 0.18027964E+03</pdfrwt>
<totfact> 0.64307237E+04</totfact>
</mgrwt>
</event>
<event>
 4    1  0.3883260E+000  0.1743536E+03  0.7546771E-02  0.1173382E+00
         21   -1    0    0  503  502  0.00000000000E+00  0.00000000000E+00  0.18402784229E+04  0.18402784229E+04  0.00000000000E+00 0.  1.
         21   -1    0    0  501  503 -0.00000000000E+00 -0.00000000000E+00 -0.21191359988E+02  0.21191359988E+02  0.00000000000E+00 0.  1.
          6    1    1    2  501    0  0.19310839876E+02  0.98632667336E+01  0.47250071209E+03  0.50364284517E+03  0.17300000000E+03 0.  1.
         -6    1    1    2    0  502 -0.19310839876E+02 -0.98632667336E+01  0.13465863509E+04  0.13578269377E+04  0.17300000000E+03 0.  1.
<mgrwt>
<rscale>  2 0.17435364E+03</rscale>
<asrwt>0</asrwt>
<pdfrwt beam="1">  1       21 0.28311963E+00 0.17435364E+03</pdfrwt>
<pdfrwt beam="2">  1       21 0.32602107E-02 0.17435364E+03</pdfrwt>
<totfact> 0.23958612E+04</totfact>
</mgrwt>
</event>
<event>
 4    1  0.3883260E+000  0.2196225E+03  0.7546771E-02  0.1134165E+00
         21   -1    0    0  503  502  0.00000000000E+00  0.00000000000E+00  0.47135352653E+03  0.47135352653E+03  0.00000000000E+00 0.  1.
         21   -1    0    0  501  503 -0.00000000000E+00 -0.00000000000E+00 -0.15730153083E+04  0.15730153083E+04  0.00000000000E+00 0.  1.
          6    1    1    2  501    0  0.10495099611E+03  0.85383407331E+02 -0.15392076469E+04  0.15547971630E+04  0.17300000000E+03 0.  1.
         -6    1    1    2    0  502 -0.10495099611E+03 -0.85383407331E+02  0.43754586509E+03  0.48957167186E+03  0.17300000000E+03 0.  1.
<mgrwt>
<rscale>  2 0.21962249E+03</rscale>
<asrwt>0</asrwt>
<pdfrwt beam="1">  1       21 0.72515927E-01 0.21962249E+03</pdfrwt>
<pdfrwt beam="2">  1       21 0.24200235E+00 0.21962249E+03</pdfrwt>
<totfact> 0.12230350E+02</totfact>
</mgrwt>
</event>
<event>
 4    1  0.3883260E+000  0.2013796E+03  0.7546771E-02  0.1148580E+00
         21   -1    0    0  501  502  0.00000000000E+00  0.00000000000E+00  0.14901492589E+03  0.14901492589E+03  0.00000000000E+00 0.  1.
         21   -1    0    0  502  503 -0.00000000000E+00 -0.00000000000E+00 -0.34895015585E+03  0.34895015585E+03  0.00000000000E+00 0.  1.
          6    1    1    2  501    0  0.33524863574E+02  0.97472112403E+02  0.16842702464E+02  0.20208267071E+03  0.17300000000E+03 0.  1.
         -6    1    1    2    0  503 -0.33524863574E+02 -0.97472112403E+02 -0.21677793243E+03  0.29588241104E+03  0.17300000000E+03 0.  1.
<mgrwt>
<rscale>  2 0.20137956E+03</rscale>
<asrwt>0</asrwt>
<pdfrwt beam="1">  1       21 0.22925373E-01 0.20137956E+03</pdfrwt>
<pdfrwt beam="2">  1       21 0.53684639E-01 0.20137956E+03</pdfrwt>
<totfact> 0.58382822E+04</totfact>
</mgrwt>
</event>
<event>
 4    1  0.3883260E+000  0.2167134E+03  0.7546771E-02  0.1136357E+00
         21   -1    0    0  503  502  0.00000000000E+00  0.00000000000E+00  0.12240016138E+03  0.12240016138E+03  0.00000000000E+00 0.  1.
         21   -1    0    0  501  503 -0.00000000000E+00 -0.00000000000E+00 -0.46305040354E+03  0.46305040354E+03  0.00000000000E+00 0.  1.
          6    1    1    2  501    0 -0.51508832314E+01 -0.13041920941E+03 -0.29150375129E+03  0.36323427536E+03  0.17300000000E+03 0.  1.
         -6    1    1    2    0  502  0.51508832314E+01  0.13041920941E+03 -0.49146490876E+02  0.22221628956E+03  0.17300000000E+03 0.  1.
<mgrwt>
<rscale>  2 0.21671341E+03</rscale>
<asrwt>0</asrwt>
<pdfrwt beam="1">  1       21 0.18830794E-01 0.21671341E+03</pdfrwt>
<pdfrwt beam="2">  1       21 0.71238523E-01 0.21671341E+03</pdfrwt>
<totfact> 0.45486616E+04</totfact>
</mgrwt>
</event>
<event>
 4    1  0.3883260E+000  0.2399054E+03  0.7546771E-02  0.1119856E+00
         21   -1    0    0  503  502  0.00000000000E+00  0.00000000000E+00  0.23992446573E+03  0.23992446573E+03  0.00000000000E+00 0. -1.
         21   -1    0    0  501  503 -0.00000000000E+00 -0.00000000000E+00 -0.30384516431E+03  0.30384516431E+03  0.00000000000E+00 0.  1.
          6    1    1    2  501    0  0.16406839988E+03 -0.26592434194E+02 -0.15670131120E+03  0.28654824782E+03  0.17300000000E+03 0.  1.
         -6    1    1    2    0  502 -0.16406839988E+03  0.26592434194E+02  0.92780612618E+02  0.25722138222E+03  0.17300000000E+03 0. -1.
<mgrwt>
<rscale>  2 0.23990539E+03</rscale>
<asrwt>0</asrwt>
<pdfrwt beam="1">  1       21 0.36911456E-01 0.23990539E+03</pdfrwt>
<pdfrwt beam="2">  1       21 0.46745410E-01 0.23990539E+03</pdfrwt>
<totfact> 0.30276559E+04</totfact>
</mgrwt>
</event>
<event>
 4    1  0.3883260E+000  0.2046591E+03  0.7546771E-02  0.1145867E+00
         21   -1    0    0  501  502  0.00000000000E+00  0.00000000000E+00  0.23282401419E+04  0.23282401419E+04  0.00000000000E+00 0. -1.
         21   -1    0    0  502  503 -0.00000000000E+00 -0.00000000000E+00 -0.50428018653E+02  0.50428018653E+02  0.00000000000E+00 0.  1.
          6    1    1    2  501    0  0.32443040536E+02 -0.10442116626E+03  0.20927871425E+04  0.21027703999E+04  0.17300000000E+03 0. -1.
         -6    1    1    2    0  503 -0.32443040536E+02  0.10442116626E+03  0.18502498077E+03  0.27589776069E+03  0.17300000000E+03 0.  1.
<mgrwt>
<rscale>  2 0.20465906E+03</rscale>
<asrwt>0</asrwt>
<pdfrwt beam="1">  1       21 0.35819071E+00 0.20465906E+03</pdfrwt>
<pdfrwt beam="2">  1       21 0.77581585E-02 0.20465906E+03</pdfrwt>
<totfact> 0.19476434E+03</totfact>
</mgrwt>
</event>
<event>
 4    1  0.3883260E+000  0.2286910E+03  0.7546771E-02  0.1127565E+00
         21   -1    0    0  501  502  0.00000000000E+00  0.00000000000E+00  0.23446968600E+03  0.23446968600E+03  0.00000000000E+00 0.  1.
         21   -1    0    0  502  503 -0.00000000000E+00 -0.00000000000E+00 -0.23633109222E+03  0.23633109222E+03  0.00000000000E+00 0. -1.
          6    1    1    2  501    0 -0.12758227142E+02 -0.14902277284E+03  0.54863261276E+02  0.23517979637E+03  0.17300000000E+03 0.  1.
         -6    1    1    2    0  503  0.12758227142E+02  0.14902277284E+03 -0.56724667495E+02  0.23562098185E+03  0.17300000000E+03 0. -1.
<mgrwt>
<rscale>  2 0.22869097E+03</rscale>
<asrwt>0</asrwt>
<pdfrwt beam="1">  1       21 0.36072259E-01 0.22869097E+03</pdfrwt>
<pdfrwt beam="2">  1       21 0.36358630E-01 0.22869097E+03</pdfrwt>
<totfact> 0.53181219E+04</totfact>
</mgrwt>
</event>
<event>
 4    1  0.3883260E+000  0.1946070E+03  0.7546771E-02  0.1154371E+00
         21   -1    0    0  501  502  0.00000000000E+00  0.00000000000E+00  0.12051835249E+04  0.12051835249E+04  0.00000000000E+00 0.  1.
         21   -1    0    0  502  503 -0.00000000000E+00 -0.00000000000E+00 -0.31657557253E+02  0.31657557253E+02  0.00000000000E+00 0.  1.
          6    1    1    2  501    0 -0.18888688979E+02  0.87098270126E+02  0.63986173919E+03  0.66880111880E+03  0.17300000000E+03 0. -1.
         -6    1    1    2    0  503  0.18888688979E+02 -0.87098270126E+02  0.53366422846E+03  0.56803996335E+03  0.17300000000E+03 0. -1.
<mgrwt>
<rscale>  2 0.19460702E+03</rscale>
<asrwt>0</asrwt>
<pdfrwt beam="1">  1       21 0.18541282E+00 0.19460702E+03</pdfrwt>
<pdfrwt beam="2">  1       21 0.48703943E-02 0.19460702E+03</pdfrwt>
<totfact> 0.46989904E+04</totfact>
</mgrwt>
</event>
<event>
 4    1  0.3883260E+000  0.1823057E+03  0.7546771E-02  0.1165590E+00
         21   -1    0    0  501  502  0.00000000000E+00  0.00000000000E+00  0.38050158837E+03  0.38050158837E+03  0.00000000000E+00 0.  1.
         21   -1    0    0  502  503 -0.00000000000E+00 -0.00000000000E+00 -0.87604958938E+02  0.87604958938E+02  0.00000000000E+00 0.  1.
          6    1    1    2  501    0 -0.50924738763E+02 -0.26702989165E+02  0.13372869257E+03  0.22609454187E+03  0.17300000000E+03 0.  1.
         -6    1    1    2    0  503  0.50924738763E+02  0.26702989165E+02  0.15916793686E+03  0.24201200543E+03  0.17300000000E+03 0.  1.
<mgrwt>
<rscale>  2 0.18230573E+03</rscale>
<asrwt>0</asrwt>
<pdfrwt beam="1">  1       21 0.58538705E-01 0.18230573E+03</pdfrwt>
<pdfrwt beam="2">  1       21 0.13477686E-01 0.18230573E+03</pdfrwt>
<totfact> 0.13057894E+05</totfact>
</mgrwt>
</event>
<event>
 4    1  0.3883260E+000  0.2369320E+03  0.7546771E-02  0.1121854E+00
         21   -1    0    0  501  502  0.00000000000E+00  0.00000000000E+00  0.15817037402E+04  0.15817037402E+04  0.00000000000E+00 0. -1.
         21   -1    0    0  502  503 -0.00000000000E+00 -0.00000000000E+00 -0.57302886212E+02  0.57302886212E+02  0.00000000000E+00 0.  1.
          6    1    1    2  501    0 -0.15639216631E+03 -0.41824101963E+02  0.12677989752E+04  0.12897484276E+04  0.17300000000E+03 0. -1.
         -6    1    1    2    0  503  0.15639216631E+03  0.41824101963E+02  0.25660187882E+03  0.34925819876E+03  0.17300000000E+03 0.  1.
<mgrwt>
<rscale>  2 0.23693198E+03</rscale>
<asrwt>0</asrwt>
<pdfrwt beam="1">  1       21 0.24333900E+00 0.23693198E+03</pdfrwt>
<pdfrwt beam="2">  1       21 0.88158298E-02 0.23693198E+03</pdfrwt>
<totfact> 0.70842262E+03</totfact>
</mgrwt>
</event>
<event>
 4    1  0.3883260E+000  0.2023520E+03  0.7546771E-02  0.1147770E+00
         21   -1    0    0  503  502  0.00000000000E+00  0.00000000000E+00  0.40741446544E+02  0.40741446544E+02  0.00000000000E+00 0.  1.
         21   -1    0    0  501  503 -0.00000000000E+00 -0.00000000000E+00 -0.14603373975E+04  0.14603373975E+04  0.00000000000E+00 0. -1.
          6    1    1    2  501    0 -0.74073898778E+02 -0.74366485791E+02 -0.11288808872E+04  0.11468733034E+04  0.17300000000E+03 0. -1.
         -6    1    1    2    0  502  0.74073898778E+02  0.74366485791E+02 -0.29071506375E+03  0.35420554058E+03  0.17300000000E+03 0.  1.
<mgrwt>
<rscale>  2 0.20235196E+03</rscale>
<asrwt>0</asrwt>
<pdfrwt beam="1">  1       21 0.62679154E-02 0.20235196E+03</pdfrwt>
<pdfrwt beam="2">  1       21 0.22466727E+00 0.20235196E+03</pdfrwt>
<totfact> 0.17097815E+04</totfact>
</mgrwt>
</event>
<event>
 4    1  0.3883260E+000  0.2369726E+03  0.7546771E-02  0.1121826E+00
         21   -1    0    0  503  502  0.00000000000E+00  0.00000000000E+00  0.68350780215E+02  0.68350780215E+02  0.00000000000E+00 0.  1.
         21   -1    0    0  501  503 -0.00000000000E+00 -0.00000000000E+00 -0.83305239150E+03  0.83305239150E+03  0.00000000000E+00 0. -1.
          6    1    1    2  501    0  0.13780825137E+03 -0.85064192349E+02 -0.43522818882E+03  0.49555989275E+03  0.17300000000E+03 0. -1.
         -6    1    1    2    0  502 -0.13780825137E+03  0.85064192349E+02 -0.32947342247E+03  0.40584327897E+03  0.17300000000E+03 0.  1.
<mgrwt>
<rscale>  2 0.23697264E+03</rscale>
<asrwt>0</asrwt>
<pdfrwt beam="1">  1       21 0.10515504E-01 0.23697264E+03</pdfrwt>
<pdfrwt beam="2">  1       21 0.12816191E+00 0.23697264E+03</pdfrwt>
<totfact> 0.32457205E+04</totfact>
</mgrwt>
</event>
<event>
 4    1  0.3883260E+000  0.1928468E+03  0.7546771E-02  0.1155918E+00
         21   -1    0    0  503  502  0.00000000000E+00  0.00000000000E+00  0.87468297577E+03  0.87468297577E+03  0.00000000000E+00 0. -1.
         21   -1    0    0  501  503 -0.00000000000E+00 -0.00000000000E+00 -0.77738053470E+02  0.77738053470E+02  0.00000000000E+00 0. -1.
          6    1    1    2  501    0 -0.35138384143E+02 -0.77628529942E+02  0.77936853642E+02  0.20800011504E+03  0.17300000000E+03 0. -1.
         -6    1    1    2    0  502  0.35138384143E+02  0.77628529942E+02  0.71900806866E+03  0.74442091420E+03  0.17300000000E+03 0. -1.
<mgrwt>
<rscale>  2 0.19284682E+03</rscale>
<asrwt>0</asrwt>
<pdfrwt beam="1">  1       21 0.13456661E+00 0.19284682E+03</pdfrwt>
<pdfrwt beam="2">  1       21 0.11959701E-01 0.19284682E+03</pdfrwt>
<totfact> 0.23380399E+04</totfact>
</mgrwt>
</event>
<event>
 4    1  0.3883260E+000  0.2389474E+03  0.7546771E-02  0.1120496E+00
         21   -1    0    0  503  502  0.00000000000E+00  0.00000000000E+00  0.26980546889E+03  0.26980546889E+03  0.00000000000E+00 0. -1.
         21   -1    0    0  501  503 -0.00000000000E+00 -0.00000000000E+00 -0.29849132464E+03  0.29849132464E+03  0.00000000000E+00 0.  1.
          6    1    1    2  501    0  0.11208876431E+03  0.12084265945E+03 -0.16763553995E+03  0.29188613136E+03  0.17300000000E+03 0.  1.
         -6    1    1    2    0  502 -0.11208876431E+03 -0.12084265945E+03  0.13894968419E+03  0.27641066217E+03  0.17300000000E+03 0. -1.
<mgrwt>
<rscale>  2 0.23894736E+03</rscale>
<asrwt>0</asrwt>
<pdfrwt beam="1">  1       21 0.41508534E-01 0.23894736E+03</pdfrwt>
<pdfrwt beam="2">  1       21 0.45921742E-01 0.23894736E+03</pdfrwt>
<totfact> 0.24779492E+04</totfact>
</mgrwt>
</event>
<event>
 4    1  0.3883260E+000  0.2115799E+03  0.7546771E-02  0.1140321E+00
         21   -1    0    0  501  502  0.00000000000E+00  0.00000000000E+00  0.39827065296E+03  0.39827065296E+03  0.00000000000E+00 0. -1.
         21   -1    0    0  502  503 -0.00000000000E+00 -0.00000000000E+00 -0.11256885606E+03  0.11256885606E+03  0.00000000000E+00 0. -1.
          6    1    1    2  501    0 -0.61768414839E+02 -0.10498434623E+03  0.13299002860E+03  0.24990477733E+03  0.17300000000E+03 0. -1.
         -6    1    1    2    0  503  0.61768414839E+02  0.10498434623E+03  0.15271176830E+03  0.26093473169E+03  0.17300000000E+03 0. -1.
<mgrwt>
<rscale>  2 0.21157989E+03</rscale>
<asrwt>0</asrwt>
<pdfrwt beam="1">  1       21 0.61272408E-01 0.21157989E+03</pdfrwt>
<pdfrwt beam="2">  1       21 0.17318286E-01 0.21157989E+03</pdfrwt>
<totfact> 0.74056745E+04</totfact>
</mgrwt>
</event>
<event>
 4    1  0.3883260E+000  0.2469840E+03  0.7546771E-02  0.1115226E+00
         21   -1    0    0  503  502  0.00000000000E+00  0.00000000000E+00  0.88777896027E+02  0.88777896027E+02  0.00000000000E+00 0.  1.
         21   -1    0    0  501  503 -0.00000000000E+00 -0.00000000000E+00 -0.73904443519E+03  0.73904443519E+03  0.00000000000E+00 0. -1.
          6    1    1    2  501    0 -0.92861912600E+02 -0.14982915052E+03 -0.43484569457E+03  0.50009187880E+03  0.17300000000E+03 0. -1.
         -6    1    1    2    0  502  0.92861912600E+02  0.14982915052E+03 -0.21542084460E+03  0.32773045242E+03  0.17300000000E+03 0.  1.
<mgrwt>
<rscale>  2 0.24698403E+03</rscale>
<asrwt>0</asrwt>
<pdfrwt beam="1">  1       21 0.13658138E-01 0.24698403E+03</pdfrwt>
<pdfrwt beam="2">  1       21 0.11369914E+00 0.24698403E+03</pdfrwt>
<totfact> 0.27207791E+04</totfact>
</mgrwt>
</event>
<event>
 4    1  0.3883260E+000  0.1852189E+03  0.7546771E-02  0.1162846E+00
         21   -1    0    0  501  502  0.00000000000E+00  0.00000000000E+00  0.66955131081E+03  0.66955131081E+03  0.00000000000E+00 0.  1.
         21   -1    0    0  502  503 -0.00000000000E+00 -0.00000000000E+00 -0.59778158628E+02  0.59778158628E+02  0.00000000000E+00 0.  1.
          6    1    1    2  501    0  0.45197254650E+02  0.48313963966E+02  0.44272558567E+03  0.47990829869E+03  0.17300000000E+03 0.  1.
         -6    1    1    2    0  503 -0.45197254650E+02 -0.48313963966E+02  0.16704756652E+03  0.24942117076E+03  0.17300000000E+03 0.  1.
<mgrwt>
<rscale>  2 0.18521887E+03</rscale>
<asrwt>0</asrwt>
<pdfrwt beam="1">  1       21 0.10300789E+00 0.18521887E+03</pdfrwt>
<pdfrwt beam="2">  1       21 0.91966403E-02 0.18521887E+03</pdfrwt>
<totfact> 0.72181231E+04</totfact>
</mgrwt>
</event>
<event>
 4    1  0.3883260E+000  0.1809844E+03  0.7546771E-02  0.1166854E+00
         21   -1    0    0  501  502  0.00000000000E+00  0.00000000000E+00  0.72991751474E+02  0.72991751474E+02  0.00000000000E+00 0.  1.
         21   -1    0    0  502  503 -0.00000000000E+00 -0.00000000000E+00 -0.91011455618E+03  0.91011455618E+03  0.00000000000E+00 0.  1.
          6    1    1    2  501    0 -0.27111319813E+02  0.45731248931E+02 -0.68581994545E+02  0.19354291712E+03  0.17300000000E+03 0.  1.
         -6    1    1    2    0  503  0.27111319813E+02 -0.45731248931E+02 -0.76854081016E+03  0.78956339053E+03  0.17300000000E+03 0.  1.
<mgrwt>
<rscale>  2 0.18098445E+03</rscale>
<asrwt>0</asrwt>
<pdfrwt beam="1">  1       21 0.11229501E-01 0.18098445E+03</pdfrwt>
<pdfrwt beam="2">  1       21 0.14001761E+00 0.18098445E+03</pdfrwt>
<totfact> 0.23807851E+04</totfact>
</mgrwt>
</event>
<event>
 4    1  0.3883260E+000  0.2276356E+03  0.7546771E-02  0.1128315E+00
         21   -1    0    0  501  502  0.00000000000E+00  0.00000000000E+00  0.26236332426E+04  0.26236332426E+04  0.00000000000E+00 0.  1.
         21   -1    0    0  502  503 -0.00000000000E+00 -0.00000000000E+00 -0.67147884006E+02  0.67147884006E+02  0.00000000000E+00 0.  1.
          6    1    1    2  501    0 -0.13703224286E+03 -0.55777680324E+02  0.24085838409E+04  0.24193168672E+04  0.17300000000E+03 0.  1.
         -6    1    1    2    0  503  0.13703224286E+03  0.55777680324E+02  0.14790151769E+03  0.27146425942E+03  0.17300000000E+03 0.  1.
<mgrwt>
<rscale>  2 0.22763564E+03</rscale>
<asrwt>0</asrwt>
<pdfrwt beam="1">  1       21 0.40363580E+00 0.22763564E+03</pdfrwt>
<pdfrwt beam="2">  1       21 0.10330446E-01 0.22763564E+03</pdfrwt>
<totfact> 0.60131733E+02</totfact>
</mgrwt>
</event>
<event>
 4    1  0.3883260E+000  0.2289325E+03  0.7546771E-02  0.1127393E+00
         21   -1    0    0  503  502  0.00000000000E+00  0.00000000000E+00  0.28781995575E+03  0.28781995575E+03  0.00000000000E+00 0.  1.
         21   -1    0    0  501  503 -0.00000000000E+00 -0.00000000000E+00 -0.18557509797E+03  0.18557509797E+03  0.00000000000E+00 0. -1.
          6    1    1    2  501    0 -0.13122596949E+03 -0.72531459458E+02  0.18700449375E+02  0.22969495964E+03  0.17300000000E+03 0.  1.
         -6    1    1    2    0  502  0.13122596949E+03  0.72531459458E+02  0.83544408398E+02  0.24370009408E+03  0.17300000000E+03 0.  1.
<mgrwt>
<rscale>  2 0.22893245E+03</rscale>
<asrwt>0</asrwt>
<pdfrwt beam="1">  1       21 0.44279993E-01 0.22893245E+03</pdfrwt>
<pdfrwt beam="2">  1       21 0.28550015E-01 0.22893245E+03</pdfrwt>
<totfact> 0.56538075E+04</totfact>
</mgrwt>
</event>
<event>
 4    1  0.3883260E+000  0.2329586E+03  0.7546771E-02  0.1124575E+00
         21   -1    0    0  503  502  0.00000000000E+00  0.00000000000E+00  0.19532609155E+03  0.19532609155E+03  0.00000000000E+00 0.  1.
         21   -1    0    0  501  503 -0.00000000000E+00 -0.00000000000E+00 -0.30910976532E+03  0.30910976532E+03  0.00000000000E+00 0.  1.
          6    1    1    2  501    0  0.75516443977E+01 -0.15583220248E+03 -0.13710971818E+03  0.27031237020E+03  0.17300000000E+03 0.  1.
         -6    1    1    2    0  502 -0.75516443977E+01  0.15583220248E+03  0.23326044402E+02  0.23412348667E+03  0.17300000000E+03 0.  1.
<mgrwt>
<rscale>  2 0.23295859E+03</rscale>
<asrwt>0</asrwt>
<pdfrwt beam="1">  1       21 0.30050168E-01 0.23295859E+03</pdfrwt>
<pdfrwt beam="2">  1       21 0.47555348E-01 0.23295859E+03</pdfrwt>
<totfact> 0.44061819E+04</totfact>
</mgrwt>
</event>
<event>
 4    1  0.3883260E+000  0.2868688E+03  0.7546771E-02  0.1091995E+00
         21   -1    0    0  501  502  0.00000000000E+00  0.00000000000E+00  0.36293645878E+03  0.36293645878E+03  0.00000000000E+00 0.  1.
         21   -1    0    0  502  503 -0.00000000000E+00 -0.00000000000E+00 -0.34491483563E+03  0.34491483563E+03  0.00000000000E+00 0.  1.
          6    1    1    2  501    0 -0.22719969502E+03 -0.27294725116E+02  0.21617326856E+03  0.35919992410E+03  0.17300000000E+03 0.  1.
         -6    1    1    2    0  503  0.22719969502E+03  0.27294725116E+02 -0.19815164541E+03  0.34865137031E+03  0.17300000000E+03 0.  1.
<mgrwt>
<rscale>  2 0.28686879E+03</rscale>
<asrwt>0</asrwt>
<pdfrwt beam="1">  1       21 0.55836378E-01 0.28686879E+03</pdfrwt>
<pdfrwt beam="2">  1       21 0.53063821E-01 0.28686879E+03</pdfrwt>
<totfact> 0.96221184E+03</totfact>
</mgrwt>
</event>
<event>
 4    1  0.3883260E+000  0.1812353E+03  0.7546771E-02  0.1166613E+00
         21   -1    0    0  501  502  0.00000000000E+00  0.00000000000E+00  0.23777011313E+02  0.23777011313E+02  0.00000000000E+00 0.  1.
         21   -1    0    0  502  503 -0.00000000000E+00 -0.00000000000E+00 -0.21089865962E+04  0.21089865962E+04  0.00000000000E+00 0.  1.
          6    1    1    2  501    0  0.34792428726E+02 -0.41312686831E+02 -0.41626568653E+03  0.45400811994E+03  0.17300000000E+03 0.  1.
         -6    1    1    2    0  503 -0.34792428726E+02  0.41312686831E+02 -0.16689438983E+04  0.16787554876E+04  0.17300000000E+03 0.  1.
<mgrwt>
<rscale>  2 0.18123535E+03</rscale>
<asrwt>0</asrwt>
<pdfrwt beam="1">  1       21 0.36580011E-02 0.18123535E+03</pdfrwt>
<pdfrwt beam="2">  1       21 0.32445953E+00 0.18123535E+03</pdfrwt>
<totfact> 0.11371584E+04</totfact>
</mgrwt>
</event>
<event>
 4    1  0.3883260E+000  0.1801994E+03  0.7546771E-02  0.1167610E+00
         21   -1    0    0  501  502  0.00000000000E+00  0.00000000000E+00  0.58452249703E+03  0.58452249703E+03  0.00000000000E+00 0. -1.
         21   -1    0    0  502  503 -0.00000000000E+00 -0.00000000000E+00 -0.58278726039E+02  0.58278726039E+02  0.00000000000E+00 0. -1.
          6    1    1    2  501    0 -0.26442247531E+02 -0.42937561775E+02  0.33263286975E+03  0.37830735216E+03  0.17300000000E+03 0. -1.
         -6    1    1    2    0  503  0.26442247531E+02  0.42937561775E+02  0.19361090125E+03  0.26449387091E+03  0.17300000000E+03 0. -1.
<mgrwt>
<rscale>  2 0.18019941E+03</rscale>
<asrwt>0</asrwt>
<pdfrwt beam="1">  1       21 0.89926534E-01 0.18019941E+03</pdfrwt>
<pdfrwt beam="2">  1       21 0.89659583E-02 0.18019941E+03</pdfrwt>
<totfact> 0.10401642E+05</totfact>
</mgrwt>
</event>
<event>
 4    1  0.3883260E+000  0.1792267E+03  0.7546771E-02  0.1168554E+00
         21   -1    0    0  501  502  0.00000000000E+00  0.00000000000E+00  0.11862630400E+03  0.11862630400E+03  0.00000000000E+00 0.  1.
         21   -1    0    0  502  503 -0.00000000000E+00 -0.00000000000E+00 -0.28002525150E+03  0.28002525150E+03  0.00000000000E+00 0.  1.
          6    1    1    2  501    0 -0.33200503166E+02 -0.33029114620E+02 -0.44490827017E+02  0.18466626522E+03  0.17300000000E+03 0.  1.
         -6    1    1    2    0  503  0.33200503166E+02  0.33029114620E+02 -0.11690812048E+03  0.21398529028E+03  0.17300000000E+03 0.  1.
<mgrwt>
<rscale>  2 0.17922666E+03</rscale>
<asrwt>0</asrwt>
<pdfrwt beam="1">  1       21 0.18250201E-01 0.17922666E+03</pdfrwt>
<pdfrwt beam="2">  1       21 0.43080807E-01 0.17922666E+03</pdfrwt>
<totfact> 0.14242114E+05</totfact>
</mgrwt>
</event>
<event>
 4    1  0.3883260E+000  0.1891370E+03  0.7546771E-02  0.1159242E+00
         21   -1    0    0  501  502  0.00000000000E+00  0.00000000000E+00  0.22909289154E+03  0.22909289154E+03  0.00000000000E+00 0. -1.
         21   -1    0    0  502  503 -0.00000000000E+00 -0.00000000000E+00 -0.15615366203E+03  0.15615366203E+03  0.00000000000E+00 0.  1.
          6    1    1    2  501    0 -0.76243501891E+02 -0.55444454964E+01  0.37425792915E+02  0.19280431124E+03  0.17300000000E+03 0. -1.
         -6    1    1    2    0  503  0.76243501891E+02  0.55444454964E+01  0.35513436593E+02  0.19244224234E+03  0.17300000000E+03 0.  1.
<mgrwt>
<rscale>  2 0.18913702E+03</rscale>
<asrwt>0</asrwt>
<pdfrwt beam="1">  1       21 0.35245060E-01 0.18913702E+03</pdfrwt>
<pdfrwt beam="2">  1       21 0.24023640E-01 0.18913702E+03</pdfrwt>
<totfact> 0.12698081E+05</totfact>
</mgrwt>
</event>
<event>
 4    1  0.3883260E+000  0.1994032E+03  0.7546771E-02  0.1150244E+00
         21   -1    0    0  503  502  0.00000000000E+00  0.00000000000E+00  0.27566276891E+04  0.27566276891E+04  0.00000000000E+00 0. -1.
         21   -1    0    0  501  503 -0.00000000000E+00 -0.00000000000E+00 -0.34657746433E+02  0.34657746433E+02  0.00000000000E+00 0. -1.
          6    1    1    2  501    0  0.75840310289E+01  0.98869105042E+02  0.29460453527E+03  0.35574351668E+03  0.17300000000E+03 0. -1.
         -6    1    1    2    0  502 -0.75840310289E+01 -0.98869105042E+02  0.24273654074E+04  0.24355419188E+04  0.17300000000E+03 0. -1.
<mgrwt>
<rscale>  2 0.19940315E+03</rscale>
<asrwt>0</asrwt>
<pdfrwt beam="1">  1       21 0.42409640E+00 0.19940315E+03</pdfrwt>
<pdfrwt beam="2">  1       21 0.53319631E-02 0.19940315E+03</pdfrwt>
<totfact> 0.14652792E+03</totfact>
</mgrwt>
</event>
<event>
 4    1  0.3883260E+000  0.1925226E+03  0.7546771E-02  0.1156206E+00
         21   -1    0    0  501  502  0.00000000000E+00  0.00000000000E+00  0.41150242902E+02  0.41150242902E+02  0.00000000000E+00 0.  1.
         21   -1    0    0  502  503 -0.00000000000E+00 -0.00000000000E+00 -0.17594809517E+04  0.17594809517E+04  0.00000000000E+00 0.  1.
          6    1    1    2  501    0 -0.77083443081E+02  0.34555642149E+02 -0.23018366621E+03  0.30008243833E+03  0.17300000000E+03 0.  1.
         -6    1    1    2    0  503  0.77083443081E+02 -0.34555642149E+02 -0.14881470426E+04  0.15005487563E+04  0.17300000000E+03 0.  1.
<mgrwt>
<rscale>  2 0.19252260E+03</rscale>
<asrwt>0</asrwt>
<pdfrwt beam="1">  1       21 0.63308067E-02 0.19252260E+03</pdfrwt>
<pdfrwt beam="2">  1       21 0.27068937E+00 0.19252260E+03</pdfrwt>
<totfact> 0.90597390E+03</totfact>
</mgrwt>
</event>
<event>
 4    1  0.3883260E+000  0.2122956E+03  0.7546771E-02  0.1139761E+00
         21   -1    0    0  503  502  0.00000000000E+00  0.00000000000E+00  0.21833142514E+03  0.21833142514E+03  0.00000000000E+00 0. -1.
         21   -1    0    0  501  503 -0.00000000000E+00 -0.00000000000E+00 -0.20646247422E+03  0.20646247422E+03  0.00000000000E+00 0. -1.
          6    1    1    2  501    0 -0.11921534342E+03 -0.30465376881E+02  0.87300148828E+01  0.21247505843E+03  0.17300000000E+03 0. -1.
         -6    1    1    2    0  502  0.11921534342E+03  0.30465376881E+02  0.31389360372E+01  0.21231884093E+03  0.17300000000E+03 0. -1.
<mgrwt>
<rscale>  2 0.21229564E+03</rscale>
<asrwt>0</asrwt>
<pdfrwt beam="1">  1       21 0.33589450E-01 0.21229564E+03</pdfrwt>
<pdfrwt beam="2">  1       21 0.31763458E-01 0.21229564E+03</pdfrwt>
<totfact> 0.80686046E+04</totfact>
</mgrwt>
</event>
<event>
 4    1  0.3883260E+000  0.1737356E+03  0.7546771E-02  0.1174007E+00
         21   -1    0    0  503  502  0.00000000000E+00  0.00000000000E+00  0.68596169038E+03  0.68596169038E+03  0.00000000000E+00 0. -1.
         21   -1    0    0  501  503 -0.00000000000E+00 -0.00000000000E+00 -0.47159029133E+02  0.47159029133E+02  0.00000000000E+00 0. -1.
          6    1    1    2  501    0  0.12142532553E+02 -0.10373209138E+02  0.22456681321E+03  0.28392657178E+03  0.17300000000E+03 0.  1.
         -6    1    1    2    0  502 -0.12142532553E+02  0.10373209138E+02  0.41423584804E+03  0.44919414774E+03  0.17300000000E+03 0.  1.
<mgrwt>
<rscale>  2 0.17373556E+03</rscale>
<asrwt>0</asrwt>
<pdfrwt beam="1">  1       21 0.10553256E+00 0.17373556E+03</pdfrwt>
<pdfrwt beam="2">  1       21 0.72552357E-02 0.17373556E+03</pdfrwt>
<totfact> 0.10344069E+05</totfact>
</mgrwt>
</event>
<event>
 4    1  0.3883260E+000  0.2620094E+03  0.7546771E-02  0.1105942E+00
         21   -1    0    0  503  502  0.00000000000E+00  0.00000000000E+00  0.77426608007E+02  0.77426608007E+02  0.00000000000E+00 0.  1.
         21   -1    0    0  501  503 -0.00000000000E+00 -0.00000000000E+00 -0.91999478142E+03  0.91999478142E+03  0.00000000000E+00 0.  1.
          6    1    1    2  501    0  0.16084306119E+03 -0.11335537659E+03 -0.51625380626E+03  0.57893602774E+03  0.17300000000E+03 0.  1.
         -6    1    1    2    0  502 -0.16084306119E+03  0.11335537659E+03 -0.32631436715E+03  0.41848536168E+03  0.17300000000E+03 0.  1.
<mgrwt>
<rscale>  2 0.26200941E+03</rscale>
<asrwt>0</asrwt>
<pdfrwt beam="1">  1       21 0.11911785E-01 0.26200941E+03</pdfrwt>
<pdfrwt beam="2">  1       21 0.14153767E+00 0.26200941E+03</pdfrwt>
<totfact> 0.19859208E+04</totfact>
</mgrwt>
</event>
<event>
 4    1  0.3883260E+000  0.1807825E+03  0.7546771E-02  0.1167048E+00
         21   -1    0    0  501  502  0.00000000000E+00  0.00000000000E+00  0.22693483853E+03  0.22693483853E+03  0.00000000000E+00 0. -1.
         21   -1    0    0  502  503 -0.00000000000E+00 -0.00000000000E+00 -0.16741952187E+03  0.16741952187E+03  0.00000000000E+00 0.  1.
          6    1    1    2  501    0 -0.51800547581E+02  0.83679046263E+01  0.10347867478E+03  0.20830303573E+03  0.17300000000E+03 0. -1.
         -6    1    1    2    0  503  0.51800547581E+02 -0.83679046263E+01 -0.43963358124E+02  0.18605132468E+03  0.17300000000E+03 0. -1.
<mgrwt>
<rscale>  2 0.18078252E+03</rscale>
<asrwt>0</asrwt>
<pdfrwt beam="1">  1       21 0.34913052E-01 0.18078252E+03</pdfrwt>
<pdfrwt beam="2">  1       21 0.25756850E-01 0.18078252E+03</pdfrwt>
<totfact> 0.11362722E+05</totfact>
</mgrwt>
</event>
<event>
 4    1  0.3883260E+000  0.1967006E+03  0.7546771E-02  0.1152553E+00
         21   -1    0    0  501  502  0.00000000000E+00  0.00000000000E+00  0.56780226766E+03  0.56780226766E+03  0.00000000000E+00 0. -1.
         21   -1    0    0  502  503 -0.00000000000E+00 -0.00000000000E+00 -0.13776106097E+03  0.13776106097E+03  0.00000000000E+00 0. -1.
          6    1    1    2  501    0 -0.50324169648E+02 -0.78927775669E+02  0.46580886789E+03  0.50563723877E+03  0.17300000000E+03 0. -1.
         -6    1    1    2    0  503  0.50324169648E+02  0.78927775669E+02 -0.35767661194E+02  0.19992608987E+03  0.17300000000E+03 0. -1.
<mgrwt>
<rscale>  2 0.19670057E+03</rscale>
<asrwt>0</asrwt>
<pdfrwt beam="1">  1       21 0.87354194E-01 0.19670057E+03</pdfrwt>
<pdfrwt beam="2">  1       21 0.21194010E-01 0.19670057E+03</pdfrwt>
<totfact> 0.23249666E+04</totfact>
</mgrwt>
</event>
<event>
 4    1  0.3883260E+000  0.1993856E+03  0.7546771E-02  0.1150258E+00
         21   -1    0    0  501  502  0.00000000000E+00  0.00000000000E+00  0.37128189292E+03  0.37128189292E+03  0.00000000000E+00 0. -1.
         21   -1    0    0  502  503 -0.00000000000E+00 -0.00000000000E+00 -0.26659708168E+03  0.26659708168E+03  0.00000000000E+00 0.  1.
          6    1    1    2  501    0  0.93451318237E+02  0.33052645919E+02  0.29905561473E+03  0.35942855616E+03  0.17300000000E+03 0. -1.
         -6    1    1    2    0  503 -0.93451318237E+02 -0.33052645919E+02 -0.19437080349E+03  0.27845041844E+03  0.17300000000E+03 0.  1.
<mgrwt>
<rscale>  2 0.19938562E+03</rscale>
<asrwt>0</asrwt>
<pdfrwt beam="1">  1       21 0.57120291E-01 0.19938562E+03</pdfrwt>
<pdfrwt beam="2">  1       21 0.41014936E-01 0.19938562E+03</pdfrwt>
<totfact> 0.16412386E+04</totfact>
</mgrwt>
</event>
<event>
 4    1  0.3883260E+000  0.1898035E+03  0.7546771E-02  0.1158639E+00
         21   -1    0    0  503  502  0.00000000000E+00  0.00000000000E+00  0.10933514501E+03  0.10933514501E+03  0.00000000000E+00 0.  1.
         21   -1    0    0  501  503 -0.00000000000E+00 -0.00000000000E+00 -0.46551383785E+03  0.46551383785E+03  0.00000000000E+00 0.  1.
          6    1    1    2  501    0  0.42486221660E+02 -0.65507897833E+02 -0.33345581494E+03  0.38369016697E+03  0.17300000000E+03 0.  1.
         -6    1    1    2    0  502 -0.42486221660E+02  0.65507897833E+02 -0.22722877897E+02  0.19115881588E+03  0.17300000000E+03 0.  1.
<mgrwt>
<rscale>  2 0.18980349E+03</rscale>
<asrwt>0</asrwt>
<pdfrwt beam="1">  1       21 0.16820791E-01 0.18980349E+03</pdfrwt>
<pdfrwt beam="2">  1       21 0.71617514E-01 0.18980349E+03</pdfrwt>
<totfact> 0.56116704E+04</totfact>
</mgrwt>
</event>
<event>
 4    1  0.3883260E+000  0.3047939E+03  0.7546771E-02  0.1082868E+00
         21   -1    0    0  501  502  0.00000000000E+00  0.00000000000E+00  0.19055012286E+03  0.19055012286E+03  0.00000000000E+00 0. -1.
         21   -1    0    0  502  503 -0.00000000000E+00 -0.00000000000E+00 -0.56419708199E+03  0.56419708199E+03  0.00000000000E+00 0.  1.
          6    1    1    2  501    0 -0.63853877757E+02  0.24267885398E+03 -0.47714876406E+02  0.30850616413E+03  0.17300000000E+03 0.  1.
         -6    1    1    2    0  503  0.63853877757E+02 -0.24267885398E+03 -0.32593208272E+03  0.44624104072E+03  0.17300000000E+03 0. -1.
<mgrwt>
<rscale>  2 0.30479394E+03</rscale>
<asrwt>0</asrwt>
<pdfrwt beam="1">  1       21 0.29315404E-01 0.30479394E+03</pdfrwt>
<pdfrwt beam="2">  1       21 0.86799551E-01 0.30479394E+03</pdfrwt>
<totfact> 0.11972153E+04</totfact>
</mgrwt>
</event>
<event>
 4    1  0.3883260E+000  0.1784979E+03  0.7546771E-02  0.1169265E+00
         21   -1    0    0  503  502  0.00000000000E+00  0.00000000000E+00  0.16361139807E+03  0.16361139807E+03  0.00000000000E+00 0. -1.
         21   -1    0    0  501  503 -0.00000000000E+00 -0.00000000000E+00 -0.27334289840E+03  0.27334289840E+03  0.00000000000E+00 0. -1.
          6    1    1    2  501    0 -0.26521324745E+02  0.35059012367E+02 -0.17202437045E+03  0.24789896943E+03  0.17300000000E+03 0. -1.
         -6    1    1    2    0  502  0.26521324745E+02 -0.35059012367E+02  0.62292870122E+02  0.18905532704E+03  0.17300000000E+03 0. -1.
<mgrwt>
<rscale>  2 0.17849794E+03</rscale>
<asrwt>0</asrwt>
<pdfrwt beam="1">  1       21 0.25170985E-01 0.17849794E+03</pdfrwt>
<pdfrwt beam="2">  1       21 0.42052753E-01 0.17849794E+03</pdfrwt>
<totfact> 0.81834591E+04</totfact>
</mgrwt>
</event>
<event>
 4    1  0.3883260E+000  0.1839155E+03  0.7546771E-02  0.1164066E+00
         21   -1    0    0  501  502  0.00000000000E+00  0.00000000000E+00  0.40748176585E+03  0.40748176585E+03  0.00000000000E+00 0. -1.
         21   -1    0    0  502  503 -0.00000000000E+00 -0.00000000000E+00 -0.93827866696E+02  0.93827866696E+02  0.00000000000E+00 0. -1.
          6    1    1    2  501    0  0.37789342503E+02  0.49677821761E+02  0.24193838036E+03  0.30390640051E+03  0.17300000000E+03 0. -1.
         -6    1    1    2    0  503 -0.37789342503E+02 -0.49677821761E+02  0.71715518799E+02  0.19740323204E+03  0.17300000000E+03 0. -1.
<mgrwt>
<rscale>  2 0.18391553E+03</rscale>
<asrwt>0</asrwt>
<pdfrwt beam="1">  1       21 0.62689502E-01 0.18391553E+03</pdfrwt>
<pdfrwt beam="2">  1       21 0.14435057E-01 0.18391553E+03</pdfrwt>
<totfact> 0.99500578E+04</totfact>
</mgrwt>
</event>
<event>
 4    1  0.3883260E+000  0.2038228E+03  0.7546771E-02  0.1146553E+00
         21   -1    0    0  501  502  0.00000000000E+00  0.00000000000E+00  0.86168870005E+02  0.86168870005E+02  0.00000000000E+00 0. -1.
         21   -1    0    0  502  503 -0.00000000000E+00 -0.00000000000E+00 -0.53980965070E+03  0.53980965070E+03  0.00000000000E+00 0. -1.
          6    1    1    2  501    0  0.79501143880E+02  0.72762080041E+02 -0.12450114115E+03  0.23883945721E+03  0.17300000000E+03 0. -1.
         -6    1    1    2    0  503 -0.79501143880E+02 -0.72762080041E+02 -0.32913963954E+03  0.38713906350E+03  0.17300000000E+03 0. -1.
<mgrwt>
<rscale>  2 0.20382285E+03</rscale>
<asrwt>0</asrwt>
<pdfrwt beam="1">  1       21 0.13256749E-01 0.20382285E+03</pdfrwt>
<pdfrwt beam="2">  1       21 0.83047638E-01 0.20382285E+03</pdfrwt>
<totfact> 0.61672769E+04</totfact>
</mgrwt>
</event>
<event>
 4    1  0.3883260E+000  0.2339223E+03  0.7546771E-02  0.1123909E+00
         21   -1    0    0  501  502  0.00000000000E+00  0.00000000000E+00  0.81371564013E+03  0.81371564013E+03  0.00000000000E+00 0. -1.
         21   -1    0    0  502  503 -0.00000000000E+00 -0.00000000000E+00 -0.10684317194E+03  0.10684317194E+03  0.00000000000E+00 0.  1.
          6    1    1    2  501    0 -0.59048724173E+02  0.14595848299E+03  0.63364183653E+03  0.67544178697E+03  0.17300000000E+03 0. -1.
         -6    1    1    2    0  503  0.59048724173E+02 -0.14595848299E+03  0.73230631659E+02  0.24511702510E+03  0.17300000000E+03 0.  1.
<mgrwt>
<rscale>  2 0.23392227E+03</rscale>
<asrwt>0</asrwt>
<pdfrwt beam="1">  1       21 0.12518702E+00 0.23392227E+03</pdfrwt>
<pdfrwt beam="2">  1       21 0.16437412E-01 0.23392227E+03</pdfrwt>
<totfact> 0.15363653E+04</totfact>
</mgrwt>
</event>
<event>
 4    1  0.3883260E+000  0.1820991E+03  0.7546771E-02  0.1165787E+00
         21   -1    0    0  503  502  0.00000000000E+00  0.00000000000E+00  0.85577656238E+02  0.85577656238E+02  0.00000000000E+00 0. -1.
         21   -1    0    0  501  503 -0.00000000000E+00 -0.00000000000E+00 -0.40101701803E+03  0.40101701803E+03  0.00000000000E+00 0. -1.
          6    1    1    2  501    0  0.54945339585E+02  0.14563019161E+02 -0.20241218216E+03  0.27226965192E+03  0.17300000000E+03 0. -1.
         -6    1    1    2    0  502 -0.54945339585E+02 -0.14563019161E+02 -0.11302717964E+03  0.21432502235E+03  0.17300000000E+03 0. -1.
<mgrwt>
<rscale>  2 0.18209907E+03</rscale>
<asrwt>0</asrwt>
<pdfrwt beam="1">  1       21 0.13165793E-01 0.18209907E+03</pdfrwt>
<pdfrwt beam="2">  1       21 0.61694926E-01 0.18209907E+03</pdfrwt>
<totfact> 0.12170619E+05</totfact>
</mgrwt>
</event>
<event>
 4    1  0.3883260E+000  0.2475646E+03  0.7546771E-02  0.1114854E+00
         21   -1    0    0  501  502  0.00000000000E+00  0.00000000000E+00  0.68691337639E+03  0.68691337639E+03  0.00000000000E+00 0.  1.
         21   -1    0    0  502  503 -0.00000000000E+00 -0.00000000000E+00 -0.18377697202E+03  0.18377697202E+03  0.00000000000E+00 0. -1.
          6    1    1    2  501    0 -0.16387562279E+03 -0.67111984758E+02  0.56383719297E+03  0.61579267487E+03  0.17300000000E+03 0.  1.
         -6    1    1    2    0  503  0.16387562279E+03  0.67111984758E+02 -0.60700788600E+02  0.25489767355E+03  0.17300000000E+03 0. -1.
<mgrwt>
<rscale>  2 0.24756461E+03</rscale>
<asrwt>0</asrwt>
<pdfrwt beam="1">  1       21 0.10567898E+00 0.24756461E+03</pdfrwt>
<pdfrwt beam="2">  1       21 0.28273381E-01 0.24756461E+03</pdfrwt>
<totfact> 0.82927345E+03</totfact>
</mgrwt>
</event>
<event>
 4    1  0.3883260E+000  0.3022414E+03  0.7546771E-02  0.1084126E+00
         21   -1    0    0  503  502  0.00000000000E+00  0.00000000000E+00  0.29611783931E+03  0.29611783931E+03  0.00000000000E+00 0.  1.
         21   -1    0    0  501  503 -0.00000000000E+00 -0.00000000000E+00 -0.33739198113E+03  0.33739198113E+03  0.00000000000E+00 0. -1.
          6    1    1    2  501    0 -0.14038717504E+03 -0.20423583148E+03 -0.11334322854E+03  0.32279485936E+03  0.17300000000E+03 0. -1.
         -6    1    1    2    0  502  0.14038717504E+03  0.20423583148E+03  0.72069086725E+02  0.31071496107E+03  0.17300000000E+03 0.  1.
<mgrwt>
<rscale>  2 0.30224135E+03</rscale>
<asrwt>0</asrwt>
<pdfrwt beam="1">  1       21 0.45556591E-01 0.30224135E+03</pdfrwt>
<pdfrwt beam="2">  1       21 0.51906458E-01 0.30224135E+03</pdfrwt>
<totfact> 0.15384814E+04</totfact>
</mgrwt>
</event>
<event>
 4    1  0.3883260E+000  0.1815703E+03  0.7546771E-02  0.1166292E+00
         21   -1    0    0  503  502  0.00000000000E+00  0.00000000000E+00  0.97913140131E+02  0.97913140131E+02  0.00000000000E+00 0.  1.
         21   -1    0    0  501  503 -0.00000000000E+00 -0.00000000000E+00 -0.34302712661E+03  0.34302712661E+03  0.00000000000E+00 0. -1.
          6    1    1    2  501    0  0.28430555305E+02  0.47227970683E+02 -0.15248931003E+03  0.23710918869E+03  0.17300000000E+03 0.  1.
         -6    1    1    2    0  502 -0.28430555305E+02 -0.47227970683E+02 -0.92624676447E+02  0.20383107804E+03  0.17300000000E+03 0. -1.
<mgrwt>
<rscale>  2 0.18157031E+03</rscale>
<asrwt>0</asrwt>
<pdfrwt beam="1">  1       21 0.15063560E-01 0.18157031E+03</pdfrwt>
<pdfrwt beam="2">  1       21 0.52773404E-01 0.18157031E+03</pdfrwt>
<totfact> 0.13298081E+05</totfact>
</mgrwt>
</event>
<event>
 4    1  0.3883260E+000  0.1832827E+03  0.7546771E-02  0.1164663E+00
         21   -1    0    0  503  502  0.00000000000E+00  0.00000000000E+00  0.25715056057E+03  0.25715056057E+03  0.00000000000E+00 0. -1.
         21   -1    0    0  501  503 -0.00000000000E+00 -0.00000000000E+00 -0.13175059127E+03  0.13175059127E+03  0.00000000000E+00 0. -1.
          6    1    1    2  501    0 -0.27295931220E+02 -0.54022837327E+02  0.44796641363E+02  0.18867769845E+03  0.17300000000E+03 0. -1.
         -6    1    1    2    0  502  0.27295931220E+02  0.54022837327E+02  0.80603327936E+02  0.20022345339E+03  0.17300000000E+03 0. -1.
<mgrwt>
<rscale>  2 0.18328266E+03</rscale>
<asrwt>0</asrwt>
<pdfrwt beam="1">  1       21 0.39561625E-01 0.18328266E+03</pdfrwt>
<pdfrwt beam="2">  1       21 0.20269322E-01 0.18328266E+03</pdfrwt>
<totfact> 0.13909018E+05</totfact>
</mgrwt>
</event>
<event>
 4    1  0.3883260E+000  0.2146765E+03  0.7546771E-02  0.1137915E+00
         21   -1    0    0  503  502  0.00000000000E+00  0.00000000000E+00  0.20945340734E+03  0.20945340734E+03  0.00000000000E+00 0. -1.
         21   -1    0    0  501  503 -0.00000000000E+00 -0.00000000000E+00 -0.22263478029E+03  0.22263478029E+03  0.00000000000E+00 0. -1.
          6    1    1    2  501    0 -0.38447899654E+02  0.12115584192E+03 -0.29960379702E+02  0.21675701458E+03  0.17300000000E+03 0. -1.
         -6    1    1    2    0  502  0.38447899654E+02 -0.12115584192E+03  0.16779006747E+02  0.21533117305E+03  0.17300000000E+03 0. -1.
<mgrwt>
<rscale>  2 0.21467645E+03</rscale>
<asrwt>0</asrwt>
<pdfrwt beam="1">  1       21 0.32223601E-01 0.21467645E+03</pdfrwt>
<pdfrwt beam="2">  1       21 0.34251505E-01 0.21467645E+03</pdfrwt>
<totfact> 0.75383443E+04</totfact>
</mgrwt>
</event>
<event>
 4    1  0.3883260E+000  0.1877867E+03  0.7546771E-02  0.1160473E+00
         21   -1    0    0  503  502  0.00000000000E+00  0.00000000000E+00  0.16124364002E+03  0.16124364002E+03  0.00000000000E+00 0.  1.
         21   -1    0    0  501  503 -0.00000000000E+00 -0.00000000000E+00 -0.37820095260E+03  0.37820095260E+03  0.00000000000E+00 0.  1.
          6    1    1    2  501    0  0.72520112761E+02 -0.87001212310E+01 -0.28363998743E+03  0.34016981250E+03  0.17300000000E+03 0.  1.
         -6    1    1    2    0  502 -0.72520112761E+02  0.87001212310E+01  0.66682674853E+02  0.19927478011E+03  0.17300000000E+03 0.  1.
<mgrwt>
<rscale>  2 0.18778674E+03</rscale>
<asrwt>0</asrwt>
<pdfrwt beam="1">  1       21 0.24806714E-01 0.18778674E+03</pdfrwt>
<pdfrwt beam="2">  1       21 0.58184762E-01 0.18778674E+03</pdfrwt>
<totfact> 0.42645307E+04</totfact>
</mgrwt>
</event>
<event>
 4    1  0.3883260E+000  0.1904439E+03  0.7546771E-02  0.1158062E+00
         21   -1    0    0  501  502  0.00000000000E+00  0.00000000000E+00  0.33509627689E+03  0.33509627689E+03  0.00000000000E+00 0. -1.
         21   -1    0    0  502  503 -0.00000000000E+00 -0.00000000000E+00 -0.44152473198E+03  0.44152473198E+03  0.00000000000E+00 0. -1.
          6    1    1    2  501    0  0.41859019617E+02  0.67732667878E+02  0.28416091544E+03  0.34207647929E+03  0.17300000000E+03 0. -1.
         -6    1    1    2    0  503 -0.41859019617E+02 -0.67732667878E+02 -0.39058937053E+03  0.43454452958E+03  0.17300000000E+03 0. -1.
<mgrwt>
<rscale>  2 0.19044393E+03</rscale>
<asrwt>0</asrwt>
<pdfrwt beam="1">  1       21 0.51553274E-01 0.19044393E+03</pdfrwt>
<pdfrwt beam="2">  1       21 0.67926882E-01 0.19044393E+03</pdfrwt>
<totfact> 0.70874227E+03</totfact>
</mgrwt>
</event>
<event>
 4    1  0.3883260E+000  0.2561533E+03  0.7546771E-02  0.1109477E+00
         21   -1    0    0  501  502  0.00000000000E+00  0.00000000000E+00  0.20214176965E+03  0.20214176965E+03  0.00000000000E+00 0.  1.
         21   -1    0    0  502  503 -0.00000000000E+00 -0.00000000000E+00 -0.34791390230E+03  0.34791390230E+03  0.00000000000E+00 0.  1.
          6    1    1    2  501    0 -0.67399981696E+02 -0.17647309537E+03 -0.16859270229E+01  0.25615884383E+03  0.17300000000E+03 0.  1.
         -6    1    1    2    0  503  0.67399981696E+02  0.17647309537E+03 -0.14408620562E+03  0.29389682811E+03  0.17300000000E+03 0.  1.
<mgrwt>
<rscale>  2 0.25615330E+03</rscale>
<asrwt>0</asrwt>
<pdfrwt beam="1">  1       21 0.31098734E-01 0.25615330E+03</pdfrwt>
<pdfrwt beam="2">  1       21 0.53525215E-01 0.25615330E+03</pdfrwt>
<totfact> 0.31812158E+04</totfact>
</mgrwt>
</event>
<event>
 4    1  0.3883260E+000  0.2169612E+03  0.7546771E-02  0.1136169E+00
         21   -1    0    0  501  502  0.00000000000E+00  0.00000000000E+00  0.32868316544E+03  0.32868316544E+03  0.00000000000E+00 0. -1.
         21   -1    0    0  502  503 -0.00000000000E+00 -0.00000000000E+00 -0.93509439333E+03  0.93509439333E+03  0.00000000000E+00 0. -1.
          6    1    1    2  501    0 -0.35873718220E+02  0.12592162094E+03  0.27828483944E+03  0.35286630633E+03  0.17300000000E+03 0. -1.
         -6    1    1    2    0  503  0.35873718220E+02 -0.12592162094E+03 -0.88469606733E+03  0.91091125244E+03  0.17300000000E+03 0. -1.
<mgrwt>
<rscale>  2 0.21696124E+03</rscale>
<asrwt>0</asrwt>
<pdfrwt beam="1">  1       21 0.50566643E-01 0.21696124E+03</pdfrwt>
<pdfrwt beam="2">  1       21 0.14386067E+00 0.21696124E+03</pdfrwt>
<totfact> 0.12119401E+03</totfact>
</mgrwt>
</event>
<event>
 4    1  0.3883260E+000  0.1887547E+03  0.7546771E-02  0.1159589E+00
         21   -1    0    0  503  502  0.00000000000E+00  0.00000000000E+00  0.33043747160E+02  0.33043747160E+02  0.00000000000E+00 0.  1.
         21   -1    0    0  501  503 -0.00000000000E+00 -0.00000000000E+00 -0.16901995466E+04  0.16901995466E+04  0.00000000000E+00 0. -1.
          6    1    1    2  501    0  0.28701496652E+02 -0.69825086275E+02 -0.13470402820E+04  0.13602006616E+04  0.17300000000E+03 0. -1.
         -6    1    1    2    0  502 -0.28701496652E+02  0.69825086275E+02 -0.31011551744E+03  0.36304263213E+03  0.17300000000E+03 0.  1.
<mgrwt>
<rscale>  2 0.18875465E+03</rscale>
<asrwt>0</asrwt>
<pdfrwt beam="1">  1       21 0.50836529E-02 0.18875465E+03</pdfrwt>
<pdfrwt beam="2">  1       21 0.26003073E+00 0.18875465E+03</pdfrwt>
<totfact> 0.15246235E+04</totfact>
</mgrwt>
</event>
<event>
 4    1  0.3883260E+000  0.2582960E+03  0.7546771E-02  0.1108171E+00
         21   -1    0    0  503  502  0.00000000000E+00  0.00000000000E+00  0.98192256234E+02  0.98192256234E+02  0.00000000000E+00 0. -1.
         21   -1    0    0  501  503 -0.00000000000E+00 -0.00000000000E+00 -0.70032609437E+03  0.70032609437E+03  0.00000000000E+00 0. -1.
          6    1    1    2  501    0 -0.18558091376E+03  0.48451447381E+02 -0.36999875777E+03  0.45123818440E+03  0.17300000000E+03 0. -1.
         -6    1    1    2    0  502  0.18558091376E+03 -0.48451447381E+02 -0.23213508036E+03  0.34728016620E+03  0.17300000000E+03 0. -1.
<mgrwt>
<rscale>  2 0.25829599E+03</rscale>
<asrwt>0</asrwt>
<pdfrwt beam="1">  1       21 0.15106500E-01 0.25829599E+03</pdfrwt>
<pdfrwt beam="2">  1       21 0.10774248E+00 0.25829599E+03</pdfrwt>
<totfact> 0.25676068E+04</totfact>
</mgrwt>
</event>
<event>
 4    1  0.3883260E+000  0.1768285E+03  0.7546771E-02  0.1170908E+00
         21   -1    0    0  503  502  0.00000000000E+00  0.00000000000E+00  0.67985388671E+03  0.67985388671E+03  0.00000000000E+00 0.  1.
         21   -1    0    0  501  503 -0.00000000000E+00 -0.00000000000E+00 -0.97899891154E+02  0.97899891154E+02  0.00000000000E+00 0.  1.
          6    1    1    2  501    0 -0.21039913401E+02  0.29943674534E+02  0.78150564093E+01  0.17700106414E+03  0.17300000000E+03 0.  1.
         -6    1    1    2    0  502  0.21039913401E+02 -0.29943674534E+02  0.57413893915E+03  0.60075271372E+03  0.17300000000E+03 0.  1.
<mgrwt>
<rscale>  2 0.17682845E+03</rscale>
<asrwt>0</asrwt>
<pdfrwt beam="1">  1       21 0.10459290E+00 0.17682845E+03</pdfrwt>
<pdfrwt beam="2">  1       21 0.15061522E-01 0.17682845E+03</pdfrwt>
<totfact> 0.28978364E+04</totfact>
</mgrwt>
</event>
<event>
 4    1  0.3883260E+000  0.2616023E+03  0.7546771E-02  0.1106184E+00
         21   -1    0    0  501  502  0.00000000000E+00  0.00000000000E+00  0.83728328293E+02  0.83728328293E+02  0.00000000000E+00 0.  1.
         21   -1    0    0  502  503 -0.00000000000E+00 -0.00000000000E+00 -0.85657180346E+03  0.85657180346E+03  0.00000000000E+00 0.  1.
          6    1    1    2  501    0  0.43609511049E+02 -0.19132424817E+03 -0.28582326274E+03  0.38746702429E+03  0.17300000000E+03 0.  1.
         -6    1    1    2    0  503 -0.43609511049E+02  0.19132424817E+03 -0.48702021242E+03  0.55283310746E+03  0.17300000000E+03 0.  1.
<mgrwt>
<rscale>  2 0.26160229E+03</rscale>
<asrwt>0</asrwt>
<pdfrwt beam="1">  1       21 0.12881282E-01 0.26160229E+03</pdfrwt>
<pdfrwt beam="2">  1       21 0.13178027E+00 0.26160229E+03</pdfrwt>
<totfact> 0.20747739E+04</totfact>
</mgrwt>
</event>
<event>
 4    1  0.3883260E+000  0.2124728E+03  0.7546771E-02  0.1139623E+00
         21   -1    0    0  503  502  0.00000000000E+00  0.00000000000E+00  0.11302369960E+03  0.11302369960E+03  0.00000000000E+00 0.  1.
         21   -1    0    0  501  503 -0.00000000000E+00 -0.00000000000E+00 -0.82140677018E+03  0.82140677018E+03  0.00000000000E+00 0. -1.
          6    1    1    2  501    0  0.11781726345E+03  0.36534416587E+02 -0.68906742637E+03  0.72108154133E+03  0.17300000000E+03 0. -1.
         -6    1    1    2    0  502 -0.11781726345E+03 -0.36534416587E+02 -0.19315644212E+02  0.21334892846E+03  0.17300000000E+03 0.  1.
<mgrwt>
<rscale>  2 0.21247275E+03</rscale>
<asrwt>0</asrwt>
<pdfrwt beam="1">  1       21 0.17388261E-01 0.21247275E+03</pdfrwt>
<pdfrwt beam="2">  1       21 0.12637027E+00 0.21247275E+03</pdfrwt>
<totfact> 0.13705434E+04</totfact>
</mgrwt>
</event>
<event>
 4    1  0.3883260E+000  0.2117527E+03  0.7546771E-02  0.1140186E+00
         21   -1    0    0  503  502  0.00000000000E+00  0.00000000000E+00  0.20146807280E+03  0.20146807280E+03  0.00000000000E+00 0. -1.
         21   -1    0    0  501  503 -0.00000000000E+00 -0.00000000000E+00 -0.25261349933E+03  0.25261349933E+03  0.00000000000E+00 0. -1.
          6    1    1    2  501    0  0.64133053482E+02 -0.10390938307E+03 -0.10388071148E+03  0.23586099859E+03  0.17300000000E+03 0. -1.
         -6    1    1    2    0  502 -0.64133053482E+02  0.10390938307E+03  0.52735284943E+02  0.21822057354E+03  0.17300000000E+03 0. -1.
<mgrwt>
<rscale>  2 0.21175271E+03</rscale>
<asrwt>0</asrwt>
<pdfrwt beam="1">  1       21 0.30995088E-01 0.21175271E+03</pdfrwt>
<pdfrwt beam="2">  1       21 0.38863615E-01 0.21175271E+03</pdfrwt>
<totfact> 0.63278942E+04</totfact>
</mgrwt>
</event>
<event>
 4    1  0.3883260E+000  0.2516602E+03  0.7546771E-02  0.1112260E+00
         21   -1    0    0  503  502  0.00000000000E+00  0.00000000000E+00  0.62487706088E+03  0.62487706088E+03  0.00000000000E+00 0. -1.
         21   -1    0    0  501  503 -0.00000000000E+00 -0.00000000000E+00 -0.14543630921E+03  0.14543630921E+03  0.00000000000E+00 0.  1.
          6    1    1    2  501    0  0.52339159405E+02 -0.17511274038E+03  0.27669281239E+02  0.25317671413E+03  0.17300000000E+03 0.  1.
         -6    1    1    2    0  502 -0.52339159405E+02  0.17511274038E+03  0.45177147043E+03  0.51713665597E+03  0.17300000000E+03 0. -1.
<mgrwt>
<rscale>  2 0.25166021E+03</rscale>
<asrwt>0</asrwt>
<pdfrwt beam="1">  1       21 0.96134931E-01 0.25166021E+03</pdfrwt>
<pdfrwt beam="2">  1       21 0.22374817E-01 0.25166021E+03</pdfrwt>
<totfact> 0.16277149E+04</totfact>
</mgrwt>
</event>
<event>
 4    1  0.3883260E+000  0.2915995E+03  0.7546771E-02  0.1089517E+00
         21   -1    0    0  501  502  0.00000000000E+00  0.00000000000E+00  0.28497970469E+03  0.28497970469E+03  0.00000000000E+00 0. -1.
         21   -1    0    0  502  503 -0.00000000000E+00 -0.00000000000E+00 -0.40823774619E+03  0.40823774619E+03  0.00000000000E+00 0.  1.
          6    1    1    2  501    0 -0.12267656769E+03  0.20012932762E+03  0.11818014377E+03  0.31463762397E+03  0.17300000000E+03 0. -1.
         -6    1    1    2    0  503  0.12267656769E+03 -0.20012932762E+03 -0.24143818527E+03  0.37857982691E+03  0.17300000000E+03 0.  1.
<mgrwt>
<rscale>  2 0.29159953E+03</rscale>
<asrwt>0</asrwt>
<pdfrwt beam="1">  1       21 0.43843032E-01 0.29159953E+03</pdfrwt>
<pdfrwt beam="2">  1       21 0.62805807E-01 0.29159953E+03</pdfrwt>
<totfact> 0.11103020E+04</totfact>
</mgrwt>
</event>
<event>
 4    1  0.3883260E+000  0.2630866E+03  0.7546771E-02  0.1105303E+00
         21   -1    0    0  501  502  0.00000000000E+00  0.00000000000E+00  0.56205142552E+03  0.56205142552E+03  0.00000000000E+00 0. -1.
         21   -1    0    0  502  503 -0.00000000000E+00 -0.00000000000E+00 -0.18813116105E+03  0.18813116105E+03  0.00000000000E+00 0.  1.
          6    1    1    2  501    0 -0.36625554163E+02  0.19479254491E+03  0.40741141672E+03  0.48497281290E+03  0.17300000000E+03 0. -1.
         -6    1    1    2    0  503  0.36625554163E+02 -0.19479254491E+03 -0.33491152256E+02  0.26520977367E+03  0.17300000000E+03 0.  1.
<mgrwt>
<rscale>  2 0.26308661E+03</rscale>
<asrwt>0</asrwt>
<pdfrwt beam="1">  1       21 0.86469449E-01 0.26308661E+03</pdfrwt>
<pdfrwt beam="2">  1       21 0.28943256E-01 0.26308661E+03</pdfrwt>
<totfact> 0.12629490E+04</totfact>
</mgrwt>
</event>
<event>
 4    1  0.3883260E+000  0.2171382E+03  0.7546771E-02  0.1136035E+00
         21   -1    0    0  501  502  0.00000000000E+00  0.00000000000E+00  0.22241570133E+03  0.22241570133E+03  0.00000000000E+00 0. -1.
         21   -1    0    0  502  503 -0.00000000000E+00 -0.00000000000E+00 -0.24687536838E+03  0.24687536838E+03  0.00000000000E+00 0. -1.
          6    1    1    2  501    0 -0.60039280725E+02 -0.11668454077E+03  0.75980702127E+02  0.23004796104E+03  0.17300000000E+03 0. -1.
         -6    1    1    2    0  503  0.60039280725E+02  0.11668454077E+03 -0.10044036918E+03  0.23924310867E+03  0.17300000000E+03 0. -1.
<mgrwt>
<rscale>  2 0.21713820E+03</rscale>
<asrwt>0</asrwt>
<pdfrwt beam="1">  1       21 0.34217800E-01 0.21713820E+03</pdfrwt>
<pdfrwt beam="2">  1       21 0.37980826E-01 0.21713820E+03</pdfrwt>
<totfact> 0.54396298E+04</totfact>
</mgrwt>
</event>
<event>
 4    1  0.3883260E+000  0.1744177E+03  0.7546771E-02  0.1173318E+00
         21   -1    0    0  503  502  0.00000000000E+00  0.00000000000E+00  0.33753439772E+03  0.33753439772E+03  0.00000000000E+00 0.  1.
         21   -1    0    0  501  503 -0.00000000000E+00 -0.00000000000E+00 -0.90285540004E+02  0.90285540004E+02  0.00000000000E+00 0.  1.
          6    1    1    2  501    0  0.13721508509E+02 -0.17442997054E+02  0.11470895738E+03  0.20875747375E+03  0.17300000000E+03 0.  1.
         -6    1    1    2    0  502 -0.13721508509E+02  0.17442997054E+02  0.13253990033E+03  0.21906246397E+03  0.17300000000E+03 0.  1.
<mgrwt>
<rscale>  2 0.17441771E+03</rscale>
<asrwt>0</asrwt>
<pdfrwt beam="1">  1       21 0.51928368E-01 0.17441771E+03</pdfrwt>
<pdfrwt beam="2">  1       21 0.13890083E-01 0.17441771E+03</pdfrwt>
<totfact> 0.15972079E+05</totfact>
</mgrwt>
</event>
<event>
 4    1  0.3883260E+000  0.1772159E+03  0.7546771E-02  0.1170525E+00
         21   -1    0    0  503  502  0.00000000000E+00  0.00000000000E+00  0.49785812177E+03  0.49785812177E+03  0.00000000000E+00 0.  1.
         21   -1    0    0  501  503 -0.00000000000E+00 -0.00000000000E+00 -0.15071303696E+03  0.15071303696E+03  0.00000000000E+00 0.  1.
          6    1    1    2  501    0  0.47894361541E+00 -0.38421974343E+02 -0.73704179471E+02  0.19193171591E+03  0.17300000000E+03 0.  1.
         -6    1    1    2    0  502 -0.47894361541E+00  0.38421974343E+02  0.42084926428E+03  0.45663944283E+03  0.17300000000E+03 0.  1.
<mgrwt>
<rscale>  2 0.17721591E+03</rscale>
<asrwt>0</asrwt>
<pdfrwt beam="1">  1       21 0.76593556E-01 0.17721591E+03</pdfrwt>
<pdfrwt beam="2">  1       21 0.23186621E-01 0.17721591E+03</pdfrwt>
<totfact> 0.26746857E+04</totfact>
</mgrwt>
</event>
<event>
 4    1  0.3883260E+000  0.3058520E+03  0.7546771E-02  0.1082351E+00
         21   -1    0    0  501  502  0.00000000000E+00  0.00000000000E+00  0.76841499119E+02  0.76841499119E+02  0.00000000000E+00 0. -1.
         21   -1    0    0  502  503 -0.00000000000E+00 -0.00000000000E+00 -0.25228736032E+04  0.25228736032E+04  0.00000000000E+00 0.  1.
          6    1    1    2  501    0 -0.16820649861E+03 -0.18794423252E+03 -0.28796558745E+03  0.42008289690E+03  0.17300000000E+03 0. -1.
         -6    1    1    2    0  503  0.16820649861E+03  0.18794423252E+03 -0.21580665166E+04  0.21796322054E+04  0.17300000000E+03 0.  1.
<mgrwt>
<rscale>  2 0.30585202E+03</rscale>
<asrwt>0</asrwt>
<pdfrwt beam="1">  1       21 0.11821770E-01 0.30585202E+03</pdfrwt>
<pdfrwt beam="2">  1       21 0.38813436E+00 0.30585202E+03</pdfrwt>
<totfact> 0.54029453E+02</totfact>
</mgrwt>
</event>
<event>
 4    1  0.3883260E+000  0.1974004E+03  0.7546771E-02  0.1151951E+00
         21   -1    0    0  501  502  0.00000000000E+00  0.00000000000E+00  0.12406248098E+03  0.12406248098E+03  0.00000000000E+00 0. -1.
         21   -1    0    0  502  503 -0.00000000000E+00 -0.00000000000E+00 -0.31765056583E+03  0.31765056583E+03  0.00000000000E+00 0. -1.
          6    1    1    2  501    0 -0.45095897143E+02  0.83691574167E+02 -0.73414898078E+02  0.21061022479E+03  0.17300000000E+03 0.  1.
         -6    1    1    2    0  503  0.45095897143E+02 -0.83691574167E+02 -0.12017318678E+03  0.23110282202E+03  0.17300000000E+03 0.  1.
<mgrwt>
<rscale>  2 0.19740040E+03</rscale>
<asrwt>0</asrwt>
<pdfrwt beam="1">  1       21 0.19086535E-01 0.19740040E+03</pdfrwt>
<pdfrwt beam="2">  1       21 0.48869318E-01 0.19740040E+03</pdfrwt>
<totfact> 0.10045267E+05</totfact>
</mgrwt>
</event>
<event>
 4    1  0.3883260E+000  0.2964321E+03  0.7546771E-02  0.1087038E+00
         21   -1    0    0  503  502  0.00000000000E+00  0.00000000000E+00  0.13986893545E+03  0.13986893545E+03  0.00000000000E+00 0. -1.
         21   -1    0    0  501  503 -0.00000000000E+00 -0.00000000000E+00 -0.11493644333E+04  0.11493644333E+04  0.00000000000E+00 0.  1.
          6    1    1    2  501    0 -0.12600792029E+02  0.24038341751E+03 -0.93879926316E+03  0.98448769616E+03  0.17300000000E+03 0.  1.
         -6    1    1    2    0  502  0.12600792029E+02 -0.24038341751E+03 -0.70696234716E+02  0.30474567261E+03  0.17300000000E+03 0. -1.
<mgrwt>
<rscale>  2 0.29643206E+03</rscale>
<asrwt>0</asrwt>
<pdfrwt beam="1">  1       21 0.21518298E-01 0.29643206E+03</pdfrwt>
<pdfrwt beam="2">  1       21 0.17682529E+00 0.29643206E+03</pdfrwt>
<totfact> 0.35607014E+03</totfact>
</mgrwt>
</event>
<event>
 4    1  0.3883260E+000  0.1818079E+03  0.7546771E-02  0.1166065E+00
         21   -1    0    0  501  502  0.00000000000E+00  0.00000000000E+00  0.16898718242E+04  0.16898718242E+04  0.00000000000E+00 0.  1.
         21   -1    0    0  502  503 -0.00000000000E+00 -0.00000000000E+00 -0.73355390365E+02  0.73355390365E+02  0.00000000000E+00 0.  1.
          6    1    1    2  501    0  0.25754353117E+02 -0.49616729482E+02  0.15632362051E+04  0.15737730266E+04  0.17300000000E+03 0.  1.
         -6    1    1    2    0  503 -0.25754353117E+02  0.49616729482E+02  0.53280228785E+02  0.18945418794E+03  0.17300000000E+03 0.  1.
<mgrwt>
<rscale>  2 0.18180788E+03</rscale>
<asrwt>0</asrwt>
<pdfrwt beam="1">  1       21 0.25998025E+00 0.18180788E+03</pdfrwt>
<pdfrwt beam="2">  1       21 0.11285446E-01 0.18180788E+03</pdfrwt>
<totfact> 0.38525226E+03</totfact>
</mgrwt>
</event>
<event>
 4    1  0.3883260E+000  0.2986331E+03  0.7546771E-02  0.1085926E+00
         21   -1    0    0  503  502  0.00000000000E+00  0.00000000000E+00  0.88005226403E+02  0.88005226403E+02  0.00000000000E+00 0.  1.
         21   -1    0    0  501  503 -0.00000000000E+00 -0.00000000000E+00 -0.13915118771E+04  0.13915118771E+04  0.00000000000E+00 0.  1.
          6    1    1    2  501    0 -0.15928297149E+03  0.18406974011E+03 -0.10373867950E+04  0.10795152137E+04  0.17300000000E+03 0.  1.
         -6    1    1    2    0  502  0.15928297149E+03 -0.18406974011E+03 -0.26611985572E+03  0.40000188980E+03  0.17300000000E+03 0.  1.
<mgrwt>
<rscale>  2 0.29863311E+03</rscale>
<asrwt>0</asrwt>
<pdfrwt beam="1">  1       21 0.13539266E-01 0.29863311E+03</pdfrwt>
<pdfrwt beam="2">  1       21 0.21407874E+00 0.29863311E+03</pdfrwt>
<totfact> 0.47616395E+03</totfact>
</mgrwt>
</event>
<event>
 4    1  0.3883260E+000  0.1914967E+03  0.7546771E-02  0.1157118E+00
         21   -1    0    0  501  502  0.00000000000E+00  0.00000000000E+00  0.19989614681E+03  0.19989614681E+03  0.00000000000E+00 0.  1.
         21   -1    0    0  502  503 -0.00000000000E+00 -0.00000000000E+00 -0.19616305722E+03  0.19616305722E+03  0.00000000000E+00 0.  1.
          6    1    1    2  501    0 -0.76650133104E+02  0.29440208205E+02  0.52279800116E+02  0.19850477643E+03  0.17300000000E+03 0.  1.
         -6    1    1    2    0  503  0.76650133104E+02 -0.29440208205E+02 -0.48546710518E+02  0.19755442760E+03  0.17300000000E+03 0.  1.
<mgrwt>
<rscale>  2 0.19149665E+03</rscale>
<asrwt>0</asrwt>
<pdfrwt beam="1">  1       21 0.30753253E-01 0.19149665E+03</pdfrwt>
<pdfrwt beam="2">  1       21 0.30178932E-01 0.19149665E+03</pdfrwt>
<totfact> 0.10699251E+05</totfact>
</mgrwt>
</event>
<event>
 4    1  0.3883260E+000  0.2036871E+03  0.7546771E-02  0.1146665E+00
         21   -1    0    0  503  502  0.00000000000E+00  0.00000000000E+00  0.51402077398E+03  0.51402077398E+03  0.00000000000E+00 0.  1.
         21   -1    0    0  501  503 -0.00000000000E+00 -0.00000000000E+00 -0.87486458589E+02  0.87486458589E+02  0.00000000000E+00 0. -1.
          6    1    1    2  501    0 -0.93564012169E+02 -0.52964127464E+02  0.12958570974E+03  0.24141433126E+03  0.17300000000E+03 0. -1.
         -6    1    1    2    0  502  0.93564012169E+02  0.52964127464E+02  0.29694860565E+03  0.36009290131E+03  0.17300000000E+03 0.  1.
<mgrwt>
<rscale>  2 0.20368707E+03</rscale>
<asrwt>0</asrwt>
<pdfrwt beam="1">  1       21 0.79080117E-01 0.20368707E+03</pdfrwt>
<pdfrwt beam="2">  1       21 0.13459456E-01 0.20368707E+03</pdfrwt>
<totfact> 0.67059351E+04</totfact>
</mgrwt>
</event>
<event>
 4    1  0.3883260E+000  0.1849398E+03  0.7546771E-02  0.1163106E+00
         21   -1    0    0  503  502  0.00000000000E+00  0.00000000000E+00  0.15669588049E+03  0.15669588049E+03  0.00000000000E+00 0.  1.
         21   -1    0    0  501  503 -0.00000000000E+00 -0.00000000000E+00 -0.24097590472E+03  0.24097590472E+03  0.00000000000E+00 0.  1.
          6    1    1    2  501    0 -0.49837522903E+02  0.42307866488E+02 -0.10316857759E+03  0.21176989790E+03  0.17300000000E+03 0.  1.
         -6    1    1    2    0  502  0.49837522903E+02 -0.42307866488E+02  0.18888553355E+02  0.18590188731E+03  0.17300000000E+03 0.  1.
<mgrwt>
<rscale>  2 0.18493981E+03</rscale>
<asrwt>0</asrwt>
<pdfrwt beam="1">  1       21 0.24107058E-01 0.18493981E+03</pdfrwt>
<pdfrwt beam="2">  1       21 0.37073216E-01 0.18493981E+03</pdfrwt>
<totfact> 0.11422739E+05</totfact>
</mgrwt>
</event>
<event>
 4    1  0.3883260E+000  0.2782185E+03  0.7546771E-02  0.1096666E+00
         21   -1    0    0  503  502  0.00000000000E+00  0.00000000000E+00  0.98060635313E+02  0.98060635313E+02  0.00000000000E+00 0. -1.
         21   -1    0    0  501  503 -0.00000000000E+00 -0.00000000000E+00 -0.17558999676E+04  0.17558999676E+04  0.00000000000E+00 0. -1.
          6    1    1    2  501    0  0.17406246819E+03 -0.13106787746E+03 -0.15166681460E+04  0.15419752905E+04  0.17300000000E+03 0. -1.
         -6    1    1    2    0  502 -0.17406246819E+03  0.13106787746E+03 -0.14117118627E+03  0.31198531242E+03  0.17300000000E+03 0. -1.
<mgrwt>
<rscale>  2 0.27821850E+03</rscale>
<asrwt>0</asrwt>
<pdfrwt beam="1">  1       21 0.15086252E-01 0.27821850E+03</pdfrwt>
<pdfrwt beam="2">  1       21 0.27013845E+00 0.27821850E+03</pdfrwt>
<totfact> 0.18073463E+03</totfact>
</mgrwt>
</event>
<event>
 4    1  0.3883260E+000  0.1962028E+03  0.7546771E-02  0.1152983E+00
         21   -1    0    0  503  502  0.00000000000E+00  0.00000000000E+00  0.81602012184E+02  0.81602012184E+02  0.00000000000E+00 0. -1.
         21   -1    0    0  501  503 -0.00000000000E+00 -0.00000000000E+00 -0.87197204488E+03  0.87197204488E+03  0.00000000000E+00 0. -1.
          6    1    1    2  501    0  0.92503958855E+02  0.30908508111E+01 -0.71820178874E+03  0.74451953978E+03  0.17300000000E+03 0.  1.
         -6    1    1    2    0  502 -0.92503958855E+02 -0.30908508111E+01 -0.72168243960E+02  0.20905451729E+03  0.17300000000E+03 0.  1.
<mgrwt>
<rscale>  2 0.19620279E+03</rscale>
<asrwt>0</asrwt>
<pdfrwt beam="1">  1       21 0.12554155E-01 0.19620279E+03</pdfrwt>
<pdfrwt beam="2">  1       21 0.13414955E+00 0.19620279E+03</pdfrwt>
<totfact> 0.21556102E+04</totfact>
</mgrwt>
</event>
<event>
 4    1  0.3883260E+000  0.1949391E+03  0.7546771E-02  0.1154081E+00
         21   -1    0    0  501  502  0.00000000000E+00  0.00000000000E+00  0.86659904734E+03  0.86659904734E+03  0.00000000000E+00 0. -1.
         21   -1    0    0  502  503 -0.00000000000E+00 -0.00000000000E+00 -0.11155087897E+03  0.11155087897E+03  0.00000000000E+00 0. -1.
          6    1    1    2  501    0  0.17964360734E+02  0.88031384412E+02  0.75853099123E+03  0.78317974154E+03  0.17300000000E+03 0. -1.
         -6    1    1    2    0  503 -0.17964360734E+02 -0.88031384412E+02 -0.34828228565E+01  0.19497018478E+03  0.17300000000E+03 0. -1.
<mgrwt>
<rscale>  2 0.19493907E+03</rscale>
<asrwt>0</asrwt>
<pdfrwt beam="1">  1       21 0.13332293E+00 0.19493907E+03</pdfrwt>
<pdfrwt beam="2">  1       21 0.17161674E-01 0.19493907E+03</pdfrwt>
<totfact> 0.12412467E+04</totfact>
</mgrwt>
</event>
<event>
 4    1  0.3883260E+000  0.1734085E+03  0.7546771E-02  0.1174339E+00
         21   -1    0    0  501  502  0.00000000000E+00  0.00000000000E+00  0.41474117689E+02  0.41474117689E+02  0.00000000000E+00 0. -1.
         21   -1    0    0  502  503 -0.00000000000E+00 -0.00000000000E+00 -0.76445517269E+03  0.76445517269E+03  0.00000000000E+00 0. -1.
          6    1    1    2  501    0 -0.17680940972E+01 -0.11763212423E+02 -0.26999313945E+03  0.32088439456E+03  0.17300000000E+03 0. -1.
         -6    1    1    2    0  503  0.17680940972E+01  0.11763212423E+02 -0.45298791556E+03  0.48504489582E+03  0.17300000000E+03 0. -1.
<mgrwt>
<rscale>  2 0.17340848E+03</rscale>
<asrwt>0</asrwt>
<pdfrwt beam="1">  1       21 0.63806334E-02 0.17340848E+03</pdfrwt>
<pdfrwt beam="2">  1       21 0.11760849E+00 0.17340848E+03</pdfrwt>
<totfact> 0.99309394E+04</totfact>
</mgrwt>
</event>
<event>
 4    1  0.3883260E+000  0.2173255E+03  0.7546771E-02  0.1135893E+00
         21   -1    0    0  501  502  0.00000000000E+00  0.00000000000E+00  0.18966246211E+04  0.18966246211E+04  0.00000000000E+00 0. -1.
         21   -1    0    0  502  503 -0.00000000000E+00 -0.00000000000E+00 -0.31520142573E+02  0.31520142573E+02  0.00000000000E+00 0. -1.
          6    1    1    2  501    0 -0.73030244398E+02 -0.10939812337E+03  0.13742985121E+04  0.13913758538E+04  0.17300000000E+03 0. -1.
         -6    1    1    2    0  503  0.73030244398E+02  0.10939812337E+03  0.49080596639E+03  0.53676890990E+03  0.17300000000E+03 0. -1.
<mgrwt>
<rscale>  2 0.21732548E+03</rscale>
<asrwt>0</asrwt>
<pdfrwt beam="1">  1       21 0.29178831E+00 0.21732548E+03</pdfrwt>
<pdfrwt beam="2">  1       21 0.48492542E-02 0.21732548E+03</pdfrwt>
<totfact> 0.10519138E+04</totfact>
</mgrwt>
</event>
<event>
 4    1  0.3883260E+000  0.1985613E+03  0.7546771E-02  0.1150959E+00
         21   -1    0    0  501  502  0.00000000000E+00  0.00000000000E+00  0.82855440975E+02  0.82855440975E+02  0.00000000000E+00 0. -1.
         21   -1    0    0  502  503 -0.00000000000E+00 -0.00000000000E+00 -0.52834132791E+03  0.52834132791E+03  0.00000000000E+00 0. -1.
          6    1    1    2  501    0  0.57181895192E+02  0.78916495386E+02 -0.12641628627E+03  0.23538831707E+03  0.17300000000E+03 0. -1.
         -6    1    1    2    0  503 -0.57181895192E+02 -0.78916495386E+02 -0.31906960067E+03  0.37580845181E+03  0.17300000000E+03 0. -1.
<mgrwt>
<rscale>  2 0.19856128E+03</rscale>
<asrwt>0</asrwt>
<pdfrwt beam="1">  1       21 0.12746991E-01 0.19856128E+03</pdfrwt>
<pdfrwt beam="2">  1       21 0.81283280E-01 0.19856128E+03</pdfrwt>
<totfact> 0.69673826E+04</totfact>
</mgrwt>
</event>
<event>
 4    1  0.3883260E+000  0.1815812E+03  0.7546771E-02  0.1166281E+00
         21   -1    0    0  501  502  0.00000000000E+00  0.00000000000E+00  0.11247940945E+03  0.11247940945E+03  0.00000000000E+00 0. -1.
         21   -1    0    0  502  503 -0.00000000000E+00 -0.00000000000E+00 -0.43646669704E+03  0.43646669704E+03  0.00000000000E+00 0. -1.
          6    1    1    2  501    0 -0.47068435119E+02  0.28762679799E+02 -0.47061352938E+01  0.18164216758E+03  0.17300000000E+03 0. -1.
         -6    1    1    2    0  503  0.47068435119E+02 -0.28762679799E+02 -0.31928115230E+03  0.36730393892E+03  0.17300000000E+03 0. -1.
<mgrwt>
<rscale>  2 0.18158119E+03</rscale>
<asrwt>0</asrwt>
<pdfrwt beam="1">  1       21 0.17304524E-01 0.18158119E+03</pdfrwt>
<pdfrwt beam="2">  1       21 0.67148724E-01 0.18158119E+03</pdfrwt>
<totfact> 0.61602871E+04</totfact>
</mgrwt>
</event>
<event>
 4    1  0.3883260E+000  0.1743352E+03  0.7546771E-02  0.1173401E+00
         21   -1    0    0  503  502  0.00000000000E+00  0.00000000000E+00  0.48989897437E+03  0.48989897437E+03  0.00000000000E+00 0. -1.
         21   -1    0    0  501  503 -0.00000000000E+00 -0.00000000000E+00 -0.14732806408E+03  0.14732806408E+03  0.00000000000E+00 0. -1.
          6    1    1    2  501    0 -0.20784995867E+02  0.56341536832E+01 -0.71134609560E+02  0.18828938477E+03  0.17300000000E+03 0. -1.
         -6    1    1    2    0  502  0.20784995867E+02 -0.56341536832E+01  0.41370551985E+03  0.44893765368E+03  0.17300000000E+03 0. -1.
<mgrwt>
<rscale>  2 0.17433519E+03</rscale>
<asrwt>0</asrwt>
<pdfrwt beam="1">  1       21 0.75369072E-01 0.17433519E+03</pdfrwt>
<pdfrwt beam="2">  1       21 0.22665856E-01 0.17433519E+03</pdfrwt>
<totfact> 0.28990605E+04</totfact>
</mgrwt>
</event>
<event>
 4    1  0.3883260E+000  0.2607727E+03  0.7546771E-02  0.1106680E+00
         21   -1    0    0  501  502  0.00000000000E+00  0.00000000000E+00  0.19797236166E+03  0.19797236166E+03  0.00000000000E+00 0. -1.
         21   -1    0    0  502  503 -0.00000000000E+00 -0.00000000000E+00 -0.36470150188E+03  0.36470150188E+03  0.00000000000E+00 0. -1.
          6    1    1    2  501    0  0.14582379229E+03 -0.12964881827E+03 -0.15522546618E+02  0.26123427021E+03  0.17300000000E+03 0. -1.
         -6    1    1    2    0  503 -0.14582379229E+03  0.12964881827E+03 -0.15120659361E+03  0.30143959333E+03  0.17300000000E+03 0. -1.
<mgrwt>
<rscale>  2 0.26077269E+03</rscale>
<asrwt>0</asrwt>
<pdfrwt beam="1">  1       21 0.30457287E-01 0.26077269E+03</pdfrwt>
<pdfrwt beam="2">  1       21 0.56107922E-01 0.26077269E+03</pdfrwt>
<totfact> 0.29920318E+04</totfact>
</mgrwt>
</event>
<event>
 4    1  0.3883260E+000  0.2450016E+03  0.7546771E-02  0.1116505E+00
         21   -1    0    0  503  502  0.00000000000E+00  0.00000000000E+00  0.17796707313E+03  0.17796707313E+03  0.00000000000E+00 0. -1.
         21   -1    0    0  501  503 -0.00000000000E+00 -0.00000000000E+00 -0.34036884431E+03  0.34036884431E+03  0.00000000000E+00 0.  1.
          6    1    1    2  501    0 -0.16331547608E+03 -0.58522320547E+02 -0.56535925199E+02  0.25144008743E+03  0.17300000000E+03 0.  1.
         -6    1    1    2    0  502  0.16331547608E+03  0.58522320547E+02 -0.10586584598E+03  0.26689583001E+03  0.17300000000E+03 0.  1.
<mgrwt>
<rscale>  2 0.24500165E+03</rscale>
<asrwt>0</asrwt>
<pdfrwt beam="1">  1       21 0.27379550E-01 0.24500165E+03</pdfrwt>
<pdfrwt beam="2">  1       21 0.52364438E-01 0.24500165E+03</pdfrwt>
<totfact> 0.42948248E+04</totfact>
</mgrwt>
</event>
<event>
 4    1  0.3883260E+000  0.2529701E+03  0.7546771E-02  0.1111442E+00
         21   -1    0    0  503  502  0.00000000000E+00  0.00000000000E+00  0.11502071007E+03  0.11502071007E+03  0.00000000000E+00 0. -1.
         21   -1    0    0  501  503 -0.00000000000E+00 -0.00000000000E+00 -0.57944706574E+03  0.57944706574E+03  0.00000000000E+00 0.  1.
          6    1    1    2  501    0  0.18448277801E+03  0.55656936794E+01 -0.30151136671E+03  0.39357715455E+03  0.17300000000E+03 0.  1.
         -6    1    1    2    0  502 -0.18448277801E+03 -0.55656936794E+01 -0.16291498896E+03  0.30089062125E+03  0.17300000000E+03 0. -1.
<mgrwt>
<rscale>  2 0.25297010E+03</rscale>
<asrwt>0</asrwt>
<pdfrwt beam="1">  1       21 0.17695494E-01 0.25297010E+03</pdfrwt>
<pdfrwt beam="2">  1       21 0.89145702E-01 0.25297010E+03</pdfrwt>
<totfact> 0.30176144E+04</totfact>
</mgrwt>
</event>
<event>
 4    1  0.3883260E+000  0.2360435E+03  0.7546771E-02  0.1122457E+00
         21   -1    0    0  501  502  0.00000000000E+00  0.00000000000E+00  0.49760190738E+03  0.49760190738E+03  0.00000000000E+00 0. -1.
         21   -1    0    0  502  503 -0.00000000000E+00 -0.00000000000E+00 -0.11203617336E+03  0.11203617336E+03  0.00000000000E+00 0.  1.
          6    1    1    2  501    0 -0.12451926124E+03 -0.10140263215E+03  0.20018477721E+03  0.30950038005E+03  0.17300000000E+03 0.  1.
         -6    1    1    2    0  503  0.12451926124E+03  0.10140263215E+03  0.18538095681E+03  0.30013770069E+03  0.17300000000E+03 0. -1.
<mgrwt>
<rscale>  2 0.23604351E+03</rscale>
<asrwt>0</asrwt>
<pdfrwt beam="1">  1       21 0.76554139E-01 0.23604351E+03</pdfrwt>
<pdfrwt beam="2">  1       21 0.17236335E-01 0.23604351E+03</pdfrwt>
<totfact> 0.45238375E+04</totfact>
</mgrwt>
</event>
<event>
 4    1  0.3883260E+000  0.2267419E+03  0.7546771E-02  0.1128954E+00
         21   -1    0    0  501  502  0.00000000000E+00  0.00000000000E+00  0.35162403027E+03  0.35162403027E+03  0.00000000000E+00 0. -1.
         21   -1    0    0  502  503 -0.00000000000E+00 -0.00000000000E+00 -0.31104563011E+03  0.31104563011E+03  0.00000000000E+00 0. -1.
          6    1    1    2  501    0  0.14388073974E+03  0.27950633334E+02  0.26148903445E+03  0.34610463781E+03  0.17300000000E+03 0. -1.
         -6    1    1    2    0  503 -0.14388073974E+03 -0.27950633334E+02 -0.22091063429E+03  0.31656502257E+03  0.17300000000E+03 0. -1.
<mgrwt>
<rscale>  2 0.22674194E+03</rscale>
<asrwt>0</asrwt>
<pdfrwt beam="1">  1       21 0.54096004E-01 0.22674194E+03</pdfrwt>
<pdfrwt beam="2">  1       21 0.47853174E-01 0.22674194E+03</pdfrwt>
<totfact> 0.13200896E+04</totfact>
</mgrwt>
</event>
<event>
 4    1  0.3883260E+000  0.1930116E+03  0.7546771E-02  0.1155773E+00
         21   -1    0    0  503  502  0.00000000000E+00  0.00000000000E+00  0.18337902461E+03  0.18337902461E+03  0.00000000000E+00 0.  1.
         21   -1    0    0  501  503 -0.00000000000E+00 -0.00000000000E+00 -0.38719245905E+03  0.38719245905E+03  0.00000000000E+00 0. -1.
          6    1    1    2  501    0 -0.84834728334E+02 -0.11293270198E+02 -0.29859364876E+03  0.35554414095E+03  0.17300000000E+03 0. -1.
         -6    1    1    2    0  502  0.84834728334E+02  0.11293270198E+02  0.94780214333E+02  0.21502734271E+03  0.17300000000E+03 0.  1.
<mgrwt>
<rscale>  2 0.19301158E+03</rscale>
<asrwt>0</asrwt>
<pdfrwt beam="1">  1       21 0.28212158E-01 0.19301158E+03</pdfrwt>
<pdfrwt beam="2">  1       21 0.59568070E-01 0.19301158E+03</pdfrwt>
<totfact> 0.31594612E+04</totfact>
</mgrwt>
</event>
<event>
 4    1  0.3883260E+000  0.2122532E+03  0.7546771E-02  0.1139794E+00
         21   -1    0    0  503  502  0.00000000000E+00  0.00000000000E+00  0.11949365517E+03  0.11949365517E+03  0.00000000000E+00 0.  1.
         21   -1    0    0  501  503 -0.00000000000E+00 -0.00000000000E+00 -0.40413256298E+03  0.40413256298E+03  0.00000000000E+00 0.  1.
          6    1    1    2  501    0 -0.51889556834E+01 -0.12286374426E+03 -0.21013349770E+03  0.29867626583E+03  0.17300000000E+03 0.  1.
         -6    1    1    2    0  502  0.51889556834E+01  0.12286374426E+03 -0.74505410102E+02  0.22494995232E+03  0.17300000000E+03 0.  1.
<mgrwt>
<rscale>  2 0.21225321E+03</rscale>
<asrwt>0</asrwt>
<pdfrwt beam="1">  1       21 0.18383639E-01 0.21225321E+03</pdfrwt>
<pdfrwt beam="2">  1       21 0.62174242E-01 0.21225321E+03</pdfrwt>
<totfact> 0.64225634E+04</totfact>
</mgrwt>
</event>
<event>
 4    1  0.3883260E+000  0.1782420E+03  0.7546771E-02  0.1169515E+00
         21   -1    0    0  501  502  0.00000000000E+00  0.00000000000E+00  0.19148248384E+03  0.19148248384E+03  0.00000000000E+00 0. -1.
         21   -1    0    0  502  503 -0.00000000000E+00 -0.00000000000E+00 -0.32341010633E+03  0.32341010633E+03  0.00000000000E+00 0. -1.
          6    1    1    2  501    0  0.20676729748E+02 -0.37598868833E+02  0.11369172580E+03  0.21141431031E+03  0.17300000000E+03 0.  1.
         -6    1    1    2    0  503 -0.20676729748E+02  0.37598868833E+02 -0.24561934829E+03  0.30347827986E+03  0.17300000000E+03 0.  1.
<mgrwt>
<rscale>  2 0.17824198E+03</rscale>
<asrwt>0</asrwt>
<pdfrwt beam="1">  1       21 0.29458844E-01 0.17824198E+03</pdfrwt>
<pdfrwt beam="2">  1       21 0.49755401E-01 0.17824198E+03</pdfrwt>
<totfact> 0.42805362E+04</totfact>
</mgrwt>
</event>
<event>
 4    1  0.3883260E+000  0.2193814E+03  0.7546771E-02  0.1134345E+00
         21   -1    0    0  503  502  0.00000000000E+00  0.00000000000E+00  0.14759199099E+04  0.14759199099E+04  0.00000000000E+00 0. -1.
         21   -1    0    0  501  503 -0.00000000000E+00 -0.00000000000E+00 -0.47166417778E+02  0.47166417778E+02  0.00000000000E+00 0. -1.
          6    1    1    2  501    0  0.13329869415E+03  0.20752333954E+02  0.29129823346E+03  0.36466815331E+03  0.17300000000E+03 0. -1.
         -6    1    1    2    0  502 -0.13329869415E+03 -0.20752333954E+02  0.11374552586E+04  0.11584181743E+04  0.17300000000E+03 0. -1.
<mgrwt>
<rscale>  2 0.21938141E+03</rscale>
<asrwt>0</asrwt>
<pdfrwt beam="1">  1       21 0.22706457E+00 0.21938141E+03</pdfrwt>
<pdfrwt beam="2">  1       21 0.72563731E-02 0.21938141E+03</pdfrwt>
<totfact> 0.12663087E+04</totfact>
</mgrwt>
</event>
<event>
 4    1  0.3883260E+000  0.2098122E+03  0.7546771E-02  0.1141715E+00
         21   -1    0    0  503  502  0.00000000000E+00  0.00000000000E+00  0.82151915106E+02  0.82151915106E+02  0.00000000000E+00 0.  1.
         21   -1    0    0  501  503 -0.00000000000E+00 -0.00000000000E+00 -0.56147808692E+03  0.56147808692E+03  0.00000000000E+00 0. -1.
          6    1    1    2  501    0  0.77569767219E+02 -0.89861437856E+02 -0.30841638278E+03  0.37301717383E+03  0.17300000000E+03 0.  1.
         -6    1    1    2    0  502 -0.77569767219E+02  0.89861437856E+02 -0.17090978903E+03  0.27061282820E+03  0.17300000000E+03 0. -1.
<mgrwt>
<rscale>  2 0.20981217E+03</rscale>
<asrwt>0</asrwt>
<pdfrwt beam="1">  1       21 0.12638756E-01 0.20981217E+03</pdfrwt>
<pdfrwt beam="2">  1       21 0.86381242E-01 0.20981217E+03</pdfrwt>
<totfact> 0.61249207E+04</totfact>
</mgrwt>
</event>
<event>
 4    1  0.3883260E+000  0.2134993E+03  0.7546771E-02  0.1138825E+00
         21   -1    0    0  501  502  0.00000000000E+00  0.00000000000E+00  0.17588569296E+04  0.17588569296E+04  0.00000000000E+00 0. -1.
         21   -1    0    0  502  503 -0.00000000000E+00 -0.00000000000E+00 -0.27039272915E+02  0.27039272915E+02  0.00000000000E+00 0.  1.
          6    1    1    2  501    0 -0.10363364845E+02 -0.12468177108E+03  0.10479361186E+04  0.10694634412E+04  0.17300000000E+03 0. -1.
         -6    1    1    2    0  503  0.10363364845E+02  0.12468177108E+03  0.68388153811E+03  0.71643276135E+03  0.17300000000E+03 0. -1.
<mgrwt>
<rscale>  2 0.21349928E+03</rscale>
<asrwt>0</asrwt>
<pdfrwt beam="1">  1       21 0.27059328E+00 0.21349928E+03</pdfrwt>
<pdfrwt beam="2">  1       21 0.41598895E-02 0.21349928E+03</pdfrwt>
<totfact> 0.18159465E+04</totfact>
</mgrwt>
</event>
<event>
 4    1  0.3883260E+000  0.2292995E+03  0.7546771E-02  0.1127134E+00
         21   -1    0    0  501  502  0.00000000000E+00  0.00000000000E+00  0.10811843301E+03  0.10811843301E+03  0.00000000000E+00 0. -1.
         21   -1    0    0  502  503 -0.00000000000E+00 -0.00000000000E+00 -0.51409298958E+03  0.51409298958E+03  0.00000000000E+00 0. -1.
          6    1    1    2  501    0  0.46141569819E+02 -0.14324876160E+03 -0.13065433842E+03  0.26391060667E+03  0.17300000000E+03 0. -1.
         -6    1    1    2    0  503 -0.46141569819E+02  0.14324876160E+03 -0.27532021815E+03  0.35830081591E+03  0.17300000000E+03 0. -1.
<mgrwt>
<rscale>  2 0.22929948E+03</rscale>
<asrwt>0</asrwt>
<pdfrwt beam="1">  1       21 0.16633605E-01 0.22929948E+03</pdfrwt>
<pdfrwt beam="2">  1       21 0.79091228E-01 0.22929948E+03</pdfrwt>
<totfact> 0.45015812E+04</totfact>
</mgrwt>
</event>
<event>
 4    1  0.3883260E+000  0.2530553E+03  0.7546771E-02  0.1111389E+00
         21   -1    0    0  503  502  0.00000000000E+00  0.00000000000E+00  0.58259597039E+02  0.58259597039E+02  0.00000000000E+00 0. -1.
         21   -1    0    0  501  503 -0.00000000000E+00 -0.00000000000E+00 -0.12343487870E+04  0.12343487870E+04  0.00000000000E+00 0. -1.
          6    1    1    2  501    0 -0.31074118697E+02  0.18205055467E+03 -0.80192830145E+03  0.84090784631E+03  0.17300000000E+03 0. -1.
         -6    1    1    2    0  502  0.31074118697E+02 -0.18205055467E+03 -0.37416088855E+03  0.45170053777E+03  0.17300000000E+03 0. -1.
<mgrwt>
<rscale>  2 0.25305534E+03</rscale>
<asrwt>0</asrwt>
<pdfrwt beam="1">  1       21 0.89630151E-02 0.25305534E+03</pdfrwt>
<pdfrwt beam="2">  1       21 0.18989981E+00 0.25305534E+03</pdfrwt>
<totfact> 0.14737257E+04</totfact>
</mgrwt>
</event>
<event>
 4    1  0.3883260E+000  0.2231523E+03  0.7546771E-02  0.1131554E+00
         21   -1    0    0  503  502  0.00000000000E+00  0.00000000000E+00  0.10943453155E+04  0.10943453155E+04  0.00000000000E+00 0.  1.
         21   -1    0    0  501  503 -0.00000000000E+00 -0.00000000000E+00 -0.58232656675E+02  0.58232656675E+02  0.00000000000E+00 0.  1.
          6    1    1    2  501    0 -0.17166236801E+02  0.13990446098E+03  0.24862340605E+03  0.33408163063E+03  0.17300000000E+03 0.  1.
         -6    1    1    2    0  502  0.17166236801E+02 -0.13990446098E+03  0.78748925273E+03  0.81849634150E+03  0.17300000000E+03 0.  1.
<mgrwt>
<rscale>  2 0.22315228E+03</rscale>
<asrwt>0</asrwt>
<pdfrwt beam="1">  1       21 0.16836080E+00 0.22315228E+03</pdfrwt>
<pdfrwt beam="2">  1       21 0.89588711E-02 0.22315228E+03</pdfrwt>
<totfact> 0.21142488E+04</totfact>
</mgrwt>
</event>
<event>
 4    1  0.3883260E+000  0.2304256E+03  0.7546771E-02  0.1126341E+00
         21   -1    0    0  501  502  0.00000000000E+00  0.00000000000E+00  0.95478107222E+03  0.95478107222E+03  0.00000000000E+00 0.  1.
         21   -1    0    0  502  503 -0.00000000000E+00 -0.00000000000E+00 -0.18079217251E+03  0.18079217251E+03  0.00000000000E+00 0.  1.
          6    1    1    2  501    0  0.98686837578E+02 -0.11587857162E+03  0.85945501942E+03  0.88980833086E+03  0.17300000000E+03 0.  1.
         -6    1    1    2    0  503 -0.98686837578E+02  0.11587857162E+03 -0.85466119699E+02  0.24576491387E+03  0.17300000000E+03 0.  1.
<mgrwt>
<rscale>  2 0.23042555E+03</rscale>
<asrwt>0</asrwt>
<pdfrwt beam="1">  1       21 0.14688939E+00 0.23042555E+03</pdfrwt>
<pdfrwt beam="2">  1       21 0.27814181E-01 0.23042555E+03</pdfrwt>
<totfact> 0.37783624E+03</totfact>
</mgrwt>
</event>
<event>
 4    1  0.3883260E+000  0.1780128E+03  0.7546771E-02  0.1169740E+00
         21   -1    0    0  503  502  0.00000000000E+00  0.00000000000E+00  0.25600831675E+02  0.25600831675E+02  0.00000000000E+00 0.  1.
         21   -1    0    0  501  503 -0.00000000000E+00 -0.00000000000E+00 -0.31671789510E+04  0.31671789510E+04  0.00000000000E+00 0.  1.
          6    1    1    2  501    0  0.41929787075E+02  0.12039176297E+01 -0.28167720356E+04  0.28223914074E+04  0.17300000000E+03 0.  1.
         -6    1    1    2    0  502 -0.41929787075E+02 -0.12039176297E+01 -0.32480608377E+03  0.37038837525E+03  0.17300000000E+03 0.  1.
<mgrwt>
<rscale>  2 0.17801280E+03</rscale>
<asrwt>0</asrwt>
<pdfrwt beam="1">  1       21 0.39385886E-02 0.17801280E+03</pdfrwt>
<pdfrwt beam="2">  1       21 0.48725841E+00 0.17801280E+03</pdfrwt>
<totfact> 0.95841168E+02</totfact>
</mgrwt>
</event>
<event>
 4    1  0.3883260E+000  0.2316589E+03  0.7546771E-02  0.1125478E+00
         21   -1    0    0  503  502  0.00000000000E+00  0.00000000000E+00  0.15576889118E+03  0.15576889118E+03  0.00000000000E+00 0.  1.
         21   -1    0    0  501  503 -0.00000000000E+00 -0.00000000000E+00 -0.54414416353E+03  0.54414416353E+03  0.00000000000E+00 0. -1.
          6    1    1    2  501    0  0.13317091065E+03 -0.77474900857E+02 -0.40615119277E+03  0.46757314197E+03  0.17300000000E+03 0. -1.
         -6    1    1    2    0  502 -0.13317091065E+03  0.77474900857E+02  0.17775920414E+02  0.23233991274E+03  0.17300000000E+03 0.  1.
<mgrwt>
<rscale>  2 0.23165891E+03</rscale>
<asrwt>0</asrwt>
<pdfrwt beam="1">  1       21 0.23964445E-01 0.23165891E+03</pdfrwt>
<pdfrwt beam="2">  1       21 0.83714485E-01 0.23165891E+03</pdfrwt>
<totfact> 0.19915244E+04</totfact>
</mgrwt>
</event>
<event>
 4    1  0.3883260E+000  0.1996385E+03  0.7546771E-02  0.1150044E+00
         21   -1    0    0  503  502  0.00000000000E+00  0.00000000000E+00  0.91573924800E+02  0.91573924800E+02  0.00000000000E+00 0.  1.
         21   -1    0    0  501  503 -0.00000000000E+00 -0.00000000000E+00 -0.51764467892E+03  0.51764467892E+03  0.00000000000E+00 0. -1.
          6    1    1    2  501    0  0.17915300904E+02 -0.98007954381E+02 -0.33457989804E+03  0.38961420059E+03  0.17300000000E+03 0. -1.
         -6    1    1    2    0  502 -0.17915300904E+02  0.98007954381E+02 -0.91490856080E+02  0.21960440313E+03  0.17300000000E+03 0.  1.
<mgrwt>
<rscale>  2 0.19963847E+03</rscale>
<asrwt>0</asrwt>
<pdfrwt beam="1">  1       21 0.14088296E-01 0.19963847E+03</pdfrwt>
<pdfrwt beam="2">  1       21 0.79637641E-01 0.19963847E+03</pdfrwt>
<totfact> 0.60881765E+04</totfact>
</mgrwt>
</event>
<event>
 4    1  0.3883260E+000  0.2172957E+03  0.7546771E-02  0.1135915E+00
         21   -1    0    0  503  502  0.00000000000E+00  0.00000000000E+00  0.25494692094E+02  0.25494692094E+02  0.00000000000E+00 0.  1.
         21   -1    0    0  501  503 -0.00000000000E+00 -0.00000000000E+00 -0.19155636259E+04  0.19155636259E+04  0.00000000000E+00 0.  1.
          6    1    1    2  501    0  0.13139849646E+03  0.47794497125E+01 -0.11217597324E+04  0.11426120537E+04  0.17300000000E+03 0.  1.
         -6    1    1    2    0  502 -0.13139849646E+03 -0.47794497125E+01 -0.76830920144E+03  0.79844626434E+03  0.17300000000E+03 0.  1.
<mgrwt>
<rscale>  2 0.21729567E+03</rscale>
<asrwt>0</asrwt>
<pdfrwt beam="1">  1       21 0.39222605E-02 0.21729567E+03</pdfrwt>
<pdfrwt beam="2">  1       21 0.29470208E+00 0.21729567E+03</pdfrwt>
<totfact> 0.14476548E+04</totfact>
</mgrwt>
</event>
<event>
 4    1  0.3883260E+000  0.1895913E+03  0.7546771E-02  0.1158831E+00
         21   -1    0    0  503  502  0.00000000000E+00  0.00000000000E+00  0.45656597104E+03  0.45656597104E+03  0.00000000000E+00 0. -1.
         21   -1    0    0  501  503 -0.00000000000E+00 -0.00000000000E+00 -0.33193614040E+03  0.33193614040E+03  0.00000000000E+00 0. -1.
          6    1    1    2  501    0 -0.82306154904E+01 -0.77123960118E+02 -0.28202218752E+03  0.33982548832E+03  0.17300000000E+03 0. -1.
         -6    1    1    2    0  502  0.82306154904E+01  0.77123960118E+02  0.40665201816E+03  0.44867662312E+03  0.17300000000E+03 0. -1.
<mgrwt>
<rscale>  2 0.18959127E+03</rscale>
<asrwt>0</asrwt>
<pdfrwt beam="1">  1       21 0.70240918E-01 0.18959127E+03</pdfrwt>
<pdfrwt beam="2">  1       21 0.51067099E-01 0.18959127E+03</pdfrwt>
<totfact> 0.67201454E+03</totfact>
</mgrwt>
</event>
<event>
 4    1  0.3883260E+000  0.1905701E+03  0.7546771E-02  0.1157948E+00
         21   -1    0    0  501  502  0.00000000000E+00  0.00000000000E+00  0.14233693622E+03  0.14233693622E+03  0.00000000000E+00 0.  1.
         21   -1    0    0  502  503 -0.00000000000E+00 -0.00000000000E+00 -0.47640888630E+03  0.47640888630E+03  0.00000000000E+00 0.  1.
          6    1    1    2  501    0  0.77336935931E+02 -0.20173561204E+02  0.43800017449E+02  0.19553878326E+03  0.17300000000E+03 0.  1.
         -6    1    1    2    0  503 -0.77336935931E+02  0.20173561204E+02 -0.37787196753E+03  0.42320703925E+03  0.17300000000E+03 0.  1.
<mgrwt>
<rscale>  2 0.19057013E+03</rscale>
<asrwt>0</asrwt>
<pdfrwt beam="1">  1       21 0.21897991E-01 0.19057013E+03</pdfrwt>
<pdfrwt beam="2">  1       21 0.73293673E-01 0.19057013E+03</pdfrwt>
<totfact> 0.32626509E+04</totfact>
</mgrwt>
</event>
<event>
 4    1  0.3883260E+000  0.2019917E+03  0.7546771E-02  0.1148069E+00
         21   -1    0    0  503  502  0.00000000000E+00  0.00000000000E+00  0.43029470643E+03  0.43029470643E+03  0.00000000000E+00 0. -1.
         21   -1    0    0  501  503 -0.00000000000E+00 -0.00000000000E+00 -0.13466936817E+03  0.13466936817E+03  0.00000000000E+00 0. -1.
          6    1    1    2  501    0 -0.10168056252E+03 -0.23080398480E+02 -0.58491287945E+01  0.20207635660E+03  0.17300000000E+03 0. -1.
         -6    1    1    2    0  502  0.10168056252E+03  0.23080398480E+02  0.30147446706E+03  0.36288771800E+03  0.17300000000E+03 0. -1.
<mgrwt>
<rscale>  2 0.20199169E+03</rscale>
<asrwt>0</asrwt>
<pdfrwt beam="1">  1       21 0.66199185E-01 0.20199169E+03</pdfrwt>
<pdfrwt beam="2">  1       21 0.20718365E-01 0.20199169E+03</pdfrwt>
<totfact> 0.45041721E+04</totfact>
</mgrwt>
</event>
<event>
 4    1  0.3883260E+000  0.2315397E+03  0.7546771E-02  0.1125561E+00
         21   -1    0    0  501  502  0.00000000000E+00  0.00000000000E+00  0.10983162260E+03  0.10983162260E+03  0.00000000000E+00 0. -1.
         21   -1    0    0  502  503 -0.00000000000E+00 -0.00000000000E+00 -0.49056917035E+03  0.49056917035E+03  0.00000000000E+00 0.  1.
          6    1    1    2  501    0 -0.11832690110E+03  0.98388980324E+02 -0.16914293831E+03  0.28674026671E+03  0.17300000000E+03 0. -1.
         -6    1    1    2    0  503  0.11832690110E+03 -0.98388980324E+02 -0.21159460944E+03  0.31366052624E+03  0.17300000000E+03 0.  1.
<mgrwt>
<rscale>  2 0.23153973E+03</rscale>
<asrwt>0</asrwt>
<pdfrwt beam="1">  1       21 0.16897173E-01 0.23153973E+03</pdfrwt>
<pdfrwt beam="2">  1       21 0.75472179E-01 0.23153973E+03</pdfrwt>
<totfact> 0.48553854E+04</totfact>
</mgrwt>
</event>
<event>
 4    1  0.3883260E+000  0.2134399E+03  0.7546771E-02  0.1138871E+00
         21   -1    0    0  503  502  0.00000000000E+00  0.00000000000E+00  0.28256718828E+03  0.28256718828E+03  0.00000000000E+00 0.  1.
         21   -1    0    0  501  503 -0.00000000000E+00 -0.00000000000E+00 -0.19535217112E+03  0.19535217112E+03  0.00000000000E+00 0.  1.
          6    1    1    2  501    0  0.10029992867E+03  0.74615669225E+02 -0.56271191850E+02  0.22073291738E+03  0.17300000000E+03 0.  1.
         -6    1    1    2    0  502 -0.10029992867E+03 -0.74615669225E+02  0.14348620901E+03  0.25718644202E+03  0.17300000000E+03 0.  1.
<mgrwt>
<rscale>  2 0.21343986E+03</rscale>
<asrwt>0</asrwt>
<pdfrwt beam="1">  1       21 0.43471875E-01 0.21343986E+03</pdfrwt>
<pdfrwt beam="2">  1       21 0.30054180E-01 0.21343986E+03</pdfrwt>
<totfact> 0.53482194E+04</totfact>
</mgrwt>
</event>
<event>
 4    1  0.3883260E+000  0.2005769E+03  0.7546771E-02  0.1149253E+00
         21   -1    0    0  501  502  0.00000000000E+00  0.00000000000E+00  0.24710631788E+03  0.24710631788E+03  0.00000000000E+00 0.  1.
         21   -1    0    0  502  503 -0.00000000000E+00 -0.00000000000E+00 -0.21846505529E+03  0.21846505529E+03  0.00000000000E+00 0.  1.
          6    1    1    2  501    0  0.37007757618E+02  0.94511970880E+02  0.13181639725E+03  0.24001385241E+03  0.17300000000E+03 0.  1.
         -6    1    1    2    0  503 -0.37007757618E+02 -0.94511970880E+02 -0.10317513465E+03  0.22555752077E+03  0.17300000000E+03 0.  1.
<mgrwt>
<rscale>  2 0.20057688E+03</rscale>
<asrwt>0</asrwt>
<pdfrwt beam="1">  1       21 0.38016357E-01 0.20057688E+03</pdfrwt>
<pdfrwt beam="2">  1       21 0.33610008E-01 0.20057688E+03</pdfrwt>
<totfact> 0.56685616E+04</totfact>
</mgrwt>
</event>
<event>
 4    1  0.3883260E+000  0.2153532E+03  0.7546771E-02  0.1137396E+00
         21   -1    0    0  503  502  0.00000000000E+00  0.00000000000E+00  0.41495521941E+03  0.41495521941E+03  0.00000000000E+00 0. -1.
         21   -1    0    0  501  503 -0.00000000000E+00 -0.00000000000E+00 -0.11300798759E+03  0.11300798759E+03  0.00000000000E+00 0. -1.
          6    1    1    2  501    0  0.11372804472E+03 -0.59278470596E+02  0.12327563508E+03  0.24814086209E+03  0.17300000000E+03 0. -1.
         -6    1    1    2    0  502 -0.11372804472E+03  0.59278470596E+02  0.17867159674E+03  0.27982234491E+03  0.17300000000E+03 0. -1.
<mgrwt>
<rscale>  2 0.21535321E+03</rscale>
<asrwt>0</asrwt>
<pdfrwt beam="1">  1       21 0.63839264E-01 0.21535321E+03</pdfrwt>
<pdfrwt beam="2">  1       21 0.17385844E-01 0.21535321E+03</pdfrwt>
<totfact> 0.67158561E+04</totfact>
</mgrwt>
</event>
<event>
 4    1  0.3883260E+000  0.2354349E+03  0.7546771E-02  0.1122872E+00
         21   -1    0    0  501  502  0.00000000000E+00  0.00000000000E+00  0.16917289854E+03  0.16917289854E+03  0.00000000000E+00 0.  1.
         21   -1    0    0  502  503 -0.00000000000E+00 -0.00000000000E+00 -0.35984740569E+03  0.35984740569E+03  0.00000000000E+00 0.  1.
          6    1    1    2  501    0 -0.95412108118E+02  0.12805128899E+03 -0.16216666756E+02  0.23599276105E+03  0.17300000000E+03 0.  1.
         -6    1    1    2    0  503  0.95412108118E+02 -0.12805128899E+03 -0.17445784039E+03  0.29302754318E+03  0.17300000000E+03 0.  1.
<mgrwt>
<rscale>  2 0.23543492E+03</rscale>
<asrwt>0</asrwt>
<pdfrwt beam="1">  1       21 0.26026600E-01 0.23543492E+03</pdfrwt>
<pdfrwt beam="2">  1       21 0.55361139E-01 0.23543492E+03</pdfrwt>
<totfact> 0.42267294E+04</totfact>
</mgrwt>
</event>
<event>
 4    1  0.3883260E+000  0.2158714E+03  0.7546771E-02  0.1136999E+00
         21   -1    0    0  503  502  0.00000000000E+00  0.00000000000E+00  0.63835808570E+03  0.63835808570E+03  0.00000000000E+00 0. -1.
         21   -1    0    0  501  503 -0.00000000000E+00 -0.00000000000E+00 -0.77604990798E+02  0.77604990798E+02  0.00000000000E+00 0. -1.
          6    1    1    2  501    0 -0.10419327716E+03 -0.76257624050E+02  0.19317860157E+03  0.28968679006E+03  0.17300000000E+03 0. -1.
         -6    1    1    2    0  502  0.10419327716E+03  0.76257624050E+02  0.36757449333E+03  0.42627628643E+03  0.17300000000E+03 0. -1.
<mgrwt>
<rscale>  2 0.21587141E+03</rscale>
<asrwt>0</asrwt>
<pdfrwt beam="1">  1       21 0.98208933E-01 0.21587141E+03</pdfrwt>
<pdfrwt beam="2">  1       21 0.11939230E-01 0.21587141E+03</pdfrwt>
<totfact> 0.50150229E+04</totfact>
</mgrwt>
</event>
<event>
 4    1  0.3883260E+000  0.1810830E+03  0.7546771E-02  0.1166759E+00
         21   -1    0    0  501  502  0.00000000000E+00  0.00000000000E+00  0.22648471305E+04  0.22648471305E+04  0.00000000000E+00 0.  1.
         21   -1    0    0  502  503 -0.00000000000E+00 -0.00000000000E+00 -0.14724778366E+02  0.14724778366E+02  0.00000000000E+00 0.  1.
          6    1    1    2  501    0 -0.49810328960E+02  0.19518832419E+02  0.12725368595E+04  0.12853564146E+04  0.17300000000E+03 0. -1.
         -6    1    1    2    0  503  0.49810328960E+02 -0.19518832419E+02  0.97758549270E+03  0.99421549436E+03  0.17300000000E+03 0. -1.
<mgrwt>
<rscale>  2 0.18108300E+03</rscale>
<asrwt>0</asrwt>
<pdfrwt beam="1">  1       21 0.34843774E+00 0.18108300E+03</pdfrwt>
<pdfrwt beam="2">  1       21 0.22653523E-02 0.18108300E+03</pdfrwt>
<totfact> 0.18183774E+04</totfact>
</mgrwt>
</event>
<event>
 4    1  0.3883260E+000  0.2072576E+03  0.7546771E-02  0.1143756E+00
         21   -1    0    0  501  502  0.00000000000E+00  0.00000000000E+00  0.10292061467E+04  0.10292061467E+04  0.00000000000E+00 0.  1.
         21   -1    0    0  502  503 -0.00000000000E+00 -0.00000000000E+00 -0.45416539364E+02  0.45416539364E+02  0.00000000000E+00 0.  1.
          6    1    1    2  501    0  0.93383161348E+02 -0.65622506027E+02  0.64483793698E+03  0.67732687314E+03  0.17300000000E+03 0.  1.
         -6    1    1    2    0  503 -0.93383161348E+02  0.65622506027E+02  0.33895167034E+03  0.39729581290E+03  0.17300000000E+03 0.  1.
<mgrwt>
<rscale>  2 0.20725764E+03</rscale>
<asrwt>0</asrwt>
<pdfrwt beam="1">  1       21 0.15833939E+00 0.20725764E+03</pdfrwt>
<pdfrwt beam="2">  1       21 0.69871607E-02 0.20725764E+03</pdfrwt>
<totfact> 0.38936299E+04</totfact>
</mgrwt>
</event>
<event>
 4    1  0.3883260E+000  0.2479793E+03  0.7546771E-02  0.1114589E+00
         21   -1    0    0  501  502  0.00000000000E+00  0.00000000000E+00  0.15770125675E+03  0.15770125675E+03  0.00000000000E+00 0.  1.
         21   -1    0    0  502  503 -0.00000000000E+00 -0.00000000000E+00 -0.59224295202E+03  0.59224295202E+03  0.00000000000E+00 0. -1.
          6    1    1    2  501    0 -0.72403483863E+02 -0.16224195767E+03  0.18845819057E+01  0.24798642897E+03  0.17300000000E+03 0.  1.
         -6    1    1    2    0  503  0.72403483863E+02  0.16224195767E+03 -0.43642627717E+03  0.50195777981E+03  0.17300000000E+03 0. -1.
<mgrwt>
<rscale>  2 0.24797927E+03</rscale>
<asrwt>0</asrwt>
<pdfrwt beam="1">  1       21 0.24261732E-01 0.24797927E+03</pdfrwt>
<pdfrwt beam="2">  1       21 0.91114298E-01 0.24797927E+03</pdfrwt>
<totfact> 0.15852845E+04</totfact>
</mgrwt>
</event>
<event>
 4    1  0.3883260E+000  0.3373208E+03  0.7546771E-02  0.1067943E+00
         21   -1    0    0  501  502  0.00000000000E+00  0.00000000000E+00  0.18183135075E+03  0.18183135075E+03  0.00000000000E+00 0.  1.
         21   -1    0    0  502  503 -0.00000000000E+00 -0.00000000000E+00 -0.10041880791E+04  0.10041880791E+04  0.00000000000E+00 0.  1.
          6    1    1    2  501    0  0.98249318940E+02  0.27240305404E+03 -0.47147794916E+02  0.34059986361E+03  0.17300000000E+03 0.  1.
         -6    1    1    2    0  503 -0.98249318940E+02 -0.27240305404E+03 -0.77520893346E+03  0.84541956628E+03  0.17300000000E+03 0.  1.
<mgrwt>
<rscale>  2 0.33732085E+03</rscale>
<asrwt>0</asrwt>
<pdfrwt beam="1">  1       21 0.27974054E-01 0.33732085E+03</pdfrwt>
<pdfrwt beam="2">  1       21 0.15449047E+00 0.33732085E+03</pdfrwt>
<totfact> 0.30555883E+03</totfact>
</mgrwt>
</event>
<event>
 4    1  0.3883260E+000  0.2535939E+03  0.7546771E-02  0.1111054E+00
         21   -1    0    0  501  502  0.00000000000E+00  0.00000000000E+00  0.16548037616E+04  0.16548037616E+04  0.00000000000E+00 0. -1.
         21   -1    0    0  502  503 -0.00000000000E+00 -0.00000000000E+00 -0.42620506445E+02  0.42620506445E+02  0.00000000000E+00 0.  1.
          6    1    1    2  501    0 -0.14682834706E+03  0.11323570683E+03  0.10581070730E+04  0.10880719033E+04  0.17300000000E+03 0.  1.
         -6    1    1    2    0  503  0.14682834706E+03 -0.11323570683E+03  0.55407618216E+03  0.60935236476E+03  0.17300000000E+03 0. -1.
<mgrwt>
<rscale>  2 0.25359394E+03</rscale>
<asrwt>0</asrwt>
<pdfrwt beam="1">  1       21 0.25458514E+00 0.25359394E+03</pdfrwt>
<pdfrwt beam="2">  1       21 0.65570023E-02 0.25359394E+03</pdfrwt>
<totfact> 0.10045868E+04</totfact>
</mgrwt>
</event>
<event>
 4    1  0.3883260E+000  0.2642035E+03  0.7546771E-02  0.1104644E+00
         21   -1    0    0  503  502  0.00000000000E+00  0.00000000000E+00  0.46015944305E+03  0.46015944305E+03  0.00000000000E+00 0. -1.
         21   -1    0    0  501  503 -0.00000000000E+00 -0.00000000000E+00 -0.38586290186E+03  0.38586290186E+03  0.00000000000E+00 0. -1.
          6    1    1    2  501    0  0.11211280598E+03  0.16524289307E+03 -0.29238540065E+03  0.39407196994E+03  0.17300000000E+03 0. -1.
         -6    1    1    2    0  502 -0.11211280598E+03 -0.16524289307E+03  0.36668194184E+03  0.45195037498E+03  0.17300000000E+03 0. -1.
<mgrwt>
<rscale>  2 0.26420351E+03</rscale>
<asrwt>0</asrwt>
<pdfrwt beam="1">  1       21 0.70793760E-01 0.26420351E+03</pdfrwt>
<pdfrwt beam="2">  1       21 0.59363524E-01 0.26420351E+03</pdfrwt>
<totfact> 0.45604297E+03</totfact>
</mgrwt>
</event>
<event>
 4    1  0.3883260E+000  0.1766094E+03  0.7546771E-02  0.1171125E+00
         21   -1    0    0  501  502  0.00000000000E+00  0.00000000000E+00  0.80296611602E+02  0.80296611602E+02  0.00000000000E+00 0.  1.
         21   -1    0    0  502  503 -0.00000000000E+00 -0.00000000000E+00 -0.43989145020E+03  0.43989145020E+03  0.00000000000E+00 0.  1.
          6    1    1    2  501    0  0.35522684273E+02 -0.67793146195E-01 -0.90850115620E+02  0.19860666958E+03  0.17300000000E+03 0.  1.
         -6    1    1    2    0  503 -0.35522684273E+02  0.67793146195E-01 -0.26874472298E+03  0.32158139222E+03  0.17300000000E+03 0.  1.
<mgrwt>
<rscale>  2 0.17660936E+03</rscale>
<asrwt>0</asrwt>
<pdfrwt beam="1">  1       21 0.12353325E-01 0.17660936E+03</pdfrwt>
<pdfrwt beam="2">  1       21 0.67675606E-01 0.17660936E+03</pdfrwt>
<totfact> 0.11185035E+05</totfact>
</mgrwt>
</event>
<event>
 4    1  0.3883260E+000  0.2010252E+03  0.7546771E-02  0.1148877E+00
         21   -1    0    0  501  502  0.00000000000E+00  0.00000000000E+00  0.12700103989E+03  0.12700103989E+03  0.00000000000E+00 0.  1.
         21   -1    0    0  502  503 -0.00000000000E+00 -0.00000000000E+00 -0.32557968319E+03  0.32557968319E+03  0.00000000000E+00 0. -1.
          6    1    1    2  501    0 -0.96797744654E+02  0.33351534127E+02 -0.65209613975E+02  0.21133722330E+03  0.17300000000E+03 0.  1.
         -6    1    1    2    0  503  0.96797744654E+02 -0.33351534127E+02 -0.13336902933E+03  0.24124349977E+03  0.17300000000E+03 0. -1.
<mgrwt>
<rscale>  2 0.20102519E+03</rscale>
<asrwt>0</asrwt>
<pdfrwt beam="1">  1       21 0.19538622E-01 0.20102519E+03</pdfrwt>
<pdfrwt beam="2">  1       21 0.50089182E-01 0.20102519E+03</pdfrwt>
<totfact> 0.91211752E+04</totfact>
</mgrwt>
</event>
<event>
 4    1  0.3883260E+000  0.2163721E+03  0.7546771E-02  0.1136617E+00
         21   -1    0    0  501  502  0.00000000000E+00  0.00000000000E+00  0.15884421218E+03  0.15884421218E+03  0.00000000000E+00 0. -1.
         21   -1    0    0  502  503 -0.00000000000E+00 -0.00000000000E+00 -0.35273295464E+03  0.35273295464E+03  0.00000000000E+00 0.  1.
          6    1    1    2  501    0  0.12945794740E+03  0.11336780846E+02  0.67764714170E+01  0.21647818206E+03  0.17300000000E+03 0. -1.
         -6    1    1    2    0  503 -0.12945794740E+03 -0.11336780846E+02 -0.20066521388E+03  0.29509898476E+03  0.17300000000E+03 0.  1.
<mgrwt>
<rscale>  2 0.21637209E+03</rscale>
<asrwt>0</asrwt>
<pdfrwt beam="1">  1       21 0.24437571E-01 0.21637209E+03</pdfrwt>
<pdfrwt beam="2">  1       21 0.54266608E-01 0.21637209E+03</pdfrwt>
<totfact> 0.50187527E+04</totfact>
</mgrwt>
</event>
<event>
 4    1  0.3883260E+000  0.2067294E+03  0.7546771E-02  0.1144182E+00
         21   -1    0    0  503  502  0.00000000000E+00  0.00000000000E+00  0.10005373721E+03  0.10005373721E+03  0.00000000000E+00 0. -1.
         21   -1    0    0  501  503 -0.00000000000E+00 -0.00000000000E+00 -0.42909761331E+03  0.42909761331E+03  0.00000000000E+00 0. -1.
          6    1    1    2  501    0  0.78841973807E+01  0.11289760506E+03 -0.18238889166E+03  0.27568594015E+03  0.17300000000E+03 0.  1.
         -6    1    1    2    0  502 -0.78841973807E+01 -0.11289760506E+03 -0.14665498444E+03  0.25346541037E+03  0.17300000000E+03 0.  1.
<mgrwt>
<rscale>  2 0.20672936E+03</rscale>
<asrwt>0</asrwt>
<pdfrwt beam="1">  1       21 0.15392882E-01 0.20672936E+03</pdfrwt>
<pdfrwt beam="2">  1       21 0.66015018E-01 0.20672936E+03</pdfrwt>
<totfact> 0.78368631E+04</totfact>
</mgrwt>
</event>
<event>
 4    1  0.3883260E+000  0.1877185E+03  0.7546771E-02  0.1160535E+00
         21   -1    0    0  503  502  0.00000000000E+00  0.00000000000E+00  0.10584232961E+03  0.10584232961E+03  0.00000000000E+00 0.  1.
         21   -1    0    0  501  503 -0.00000000000E+00 -0.00000000000E+00 -0.43553189798E+03  0.43553189798E+03  0.00000000000E+00 0.  1.
          6    1    1    2  501    0 -0.54066015192E+02 -0.48847804986E+02 -0.29622567141E+03  0.35069629375E+03  0.17300000000E+03 0.  1.
         -6    1    1    2    0  502  0.54066015192E+02  0.48847804986E+02 -0.33463896964E+02  0.19067793383E+03  0.17300000000E+03 0.  1.
<mgrwt>
<rscale>  2 0.18771852E+03</rscale>
<asrwt>0</asrwt>
<pdfrwt beam="1">  1       21 0.16283435E-01 0.18771852E+03</pdfrwt>
<pdfrwt beam="2">  1       21 0.67004907E-01 0.18771852E+03</pdfrwt>
<totfact> 0.69016816E+04</totfact>
</mgrwt>
</event>
<event>
 4    1  0.3883260E+000  0.2081087E+03  0.7546771E-02  0.1143073E+00
         21   -1    0    0  501  502  0.00000000000E+00  0.00000000000E+00  0.10646751718E+03  0.10646751718E+03  0.00000000000E+00 0.  1.
         21   -1    0    0  502  503 -0.00000000000E+00 -0.00000000000E+00 -0.50020942587E+03  0.50020942587E+03  0.00000000000E+00 0.  1.
          6    1    1    2  501    0 -0.10978802194E+03 -0.36425581132E+02 -0.65776237902E+02  0.21825614812E+03  0.17300000000E+03 0.  1.
         -6    1    1    2    0  503  0.10978802194E+03  0.36425581132E+02 -0.32796567079E+03  0.38842079493E+03  0.17300000000E+03 0.  1.
<mgrwt>
<rscale>  2 0.20810870E+03</rscale>
<asrwt>0</asrwt>
<pdfrwt beam="1">  1       21 0.16379618E-01 0.20810870E+03</pdfrwt>
<pdfrwt beam="2">  1       21 0.76955297E-01 0.20810870E+03</pdfrwt>
<totfact> 0.49751297E+04</totfact>
</mgrwt>
</event>
<event>
 4    1  0.3883260E+000  0.2171604E+03  0.7546771E-02  0.1136018E+00
         21   -1    0    0  503  502  0.00000000000E+00  0.00000000000E+00  0.32749618257E+03  0.32749618257E+03  0.00000000000E+00 0. -1.
         21   -1    0    0  501  503 -0.00000000000E+00 -0.00000000000E+00 -0.19467518256E+03  0.19467518256E+03  0.00000000000E+00 0. -1.
          6    1    1    2  501    0 -0.52093199004E+02 -0.12048213751E+03 -0.66799225866E+02  0.22720207618E+03  0.17300000000E+03 0. -1.
         -6    1    1    2    0  502  0.52093199004E+02  0.12048213751E+03  0.19962022588E+03  0.29496928895E+03  0.17300000000E+03 0. -1.
<mgrwt>
<rscale>  2 0.21716042E+03</rscale>
<asrwt>0</asrwt>
<pdfrwt beam="1">  1       21 0.50384028E-01 0.21716042E+03</pdfrwt>
<pdfrwt beam="2">  1       21 0.29950028E-01 0.21716042E+03</pdfrwt>
<totfact> 0.39598807E+04</totfact>
</mgrwt>
</event>
<event>
 4    1  0.3883260E+000  0.1786316E+03  0.7546771E-02  0.1169134E+00
         21   -1    0    0  503  502  0.00000000000E+00  0.00000000000E+00  0.13260552859E+03  0.13260552859E+03  0.00000000000E+00 0.  1.
         21   -1    0    0  501  503 -0.00000000000E+00 -0.00000000000E+00 -0.26462333638E+03  0.26462333638E+03  0.00000000000E+00 0.  1.
          6    1    1    2  501    0  0.25179394477E+02 -0.36691176595E+02 -0.12581099785E+03  0.21848947692E+03  0.17300000000E+03 0.  1.
         -6    1    1    2    0  502 -0.25179394477E+02  0.36691176595E+02 -0.62068099383E+01  0.17873938804E+03  0.17300000000E+03 0.  1.
<mgrwt>
<rscale>  2 0.17863159E+03</rscale>
<asrwt>0</asrwt>
<pdfrwt beam="1">  1       21 0.20400851E-01 0.17863159E+03</pdfrwt>
<pdfrwt beam="2">  1       21 0.40711282E-01 0.17863159E+03</pdfrwt>
<totfact> 0.12990595E+05</totfact>
</mgrwt>
</event>
<event>
 4    1  0.3883260E+000  0.1876068E+03  0.7546771E-02  0.1160638E+00
         21   -1    0    0  501  502  0.00000000000E+00  0.00000000000E+00  0.13209218102E+03  0.13209218102E+03  0.00000000000E+00 0. -1.
         21   -1    0    0  502  503 -0.00000000000E+00 -0.00000000000E+00 -0.31881709249E+03  0.31881709249E+03  0.00000000000E+00 0. -1.
          6    1    1    2  501    0  0.26072140129E+02 -0.67731483807E+02 -0.19918181180E+01  0.18761737054E+03  0.17300000000E+03 0. -1.
         -6    1    1    2    0  503 -0.26072140129E+02  0.67731483807E+02 -0.18473309335E+03  0.26329190297E+03  0.17300000000E+03 0. -1.
<mgrwt>
<rscale>  2 0.18760680E+03</rscale>
<asrwt>0</asrwt>
<pdfrwt beam="1">  1       21 0.20321874E-01 0.18760680E+03</pdfrwt>
<pdfrwt beam="2">  1       21 0.49048783E-01 0.18760680E+03</pdfrwt>
<totfact> 0.89030215E+04</totfact>
</mgrwt>
</event>
<event>
 4    1  0.3883260E+000  0.1772886E+03  0.7546771E-02  0.1170453E+00
         21   -1    0    0  503  502  0.00000000000E+00  0.00000000000E+00  0.13782980189E+03  0.13782980189E+03  0.00000000000E+00 0.  1.
         21   -1    0    0  501  503 -0.00000000000E+00 -0.00000000000E+00 -0.23478212378E+03  0.23478212378E+03  0.00000000000E+00 0.  1.
          6    1    1    2  501    0  0.33456529406E+02  0.19567809095E+02 -0.80038458077E+02  0.19451836233E+03  0.17300000000E+03 0.  1.
         -6    1    1    2    0  502 -0.33456529406E+02 -0.19567809095E+02 -0.16913863821E+02  0.17809356334E+03  0.17300000000E+03 0.  1.
<mgrwt>
<rscale>  2 0.17728857E+03</rscale>
<asrwt>0</asrwt>
<pdfrwt beam="1">  1       21 0.21204585E-01 0.17728857E+03</pdfrwt>
<pdfrwt beam="2">  1       21 0.36120326E-01 0.17728857E+03</pdfrwt>
<totfact> 0.15366664E+05</totfact>
</mgrwt>
</event>
<event>
 4    1  0.3883260E+000  0.2468372E+03  0.7546771E-02  0.1115320E+00
         21   -1    0    0  503  502  0.00000000000E+00  0.00000000000E+00  0.17315467492E+03  0.17315467492E+03  0.00000000000E+00 0. -1.
         21   -1    0    0  501  503 -0.00000000000E+00 -0.00000000000E+00 -0.49084621456E+03  0.49084621456E+03  0.00000000000E+00 0. -1.
          6    1    1    2  501    0 -0.52527089101E+02  0.16804917605E+03 -0.33550242309E+03  0.41652190405E+03  0.17300000000E+03 0. -1.
         -6    1    1    2    0  502  0.52527089101E+02 -0.16804917605E+03  0.17810883450E+02  0.24747898543E+03  0.17300000000E+03 0. -1.
<mgrwt>
<rscale>  2 0.24683724E+03</rscale>
<asrwt>0</asrwt>
<pdfrwt beam="1">  1       21 0.26639181E-01 0.24683724E+03</pdfrwt>
<pdfrwt beam="2">  1       21 0.75514801E-01 0.24683724E+03</pdfrwt>
<totfact> 0.20381004E+04</totfact>
</mgrwt>
</event>
<event>
 4    1  0.3883260E+000  0.2090175E+03  0.7546771E-02  0.1142346E+00
         21   -1    0    0  501  502  0.00000000000E+00  0.00000000000E+00  0.47058441607E+02  0.47058441607E+02  0.00000000000E+00 0. -1.
         21   -1    0    0  502  503 -0.00000000000E+00 -0.00000000000E+00 -0.10680952650E+04  0.10680952650E+04  0.00000000000E+00 0.  1.
          6    1    1    2  501    0 -0.42262247477E+02 -0.10942214665E+03 -0.30886040453E+03  0.37293840407E+03  0.17300000000E+03 0.  1.
         -6    1    1    2    0  503  0.42262247477E+02  0.10942214665E+03 -0.71217641882E+03  0.74221530250E+03  0.17300000000E+03 0. -1.
<mgrwt>
<rscale>  2 0.20901747E+03</rscale>
<asrwt>0</asrwt>
<pdfrwt beam="1">  1       21 0.72397599E-02 0.20901747E+03</pdfrwt>
<pdfrwt beam="2">  1       21 0.16432236E+00 0.20901747E+03</pdfrwt>
<totfact> 0.33073945E+04</totfact>
</mgrwt>
</event>
<event>
 4    1  0.3883260E+000  0.1928648E+03  0.7546771E-02  0.1155903E+00
         21   -1    0    0  501  502  0.00000000000E+00  0.00000000000E+00  0.96381565237E+02  0.96381565237E+02  0.00000000000E+00 0.  1.
         21   -1    0    0  502  503 -0.00000000000E+00 -0.00000000000E+00 -0.45531701099E+03  0.45531701099E+03  0.00000000000E+00 0. -1.
          6    1    1    2  501    0 -0.38780903363E+02  0.75920159689E+02 -0.71785366760E+02  0.20579107851E+03  0.17300000000E+03 0.  1.
         -6    1    1    2    0  503  0.38780903363E+02 -0.75920159689E+02 -0.28715007900E+03  0.34590749772E+03  0.17300000000E+03 0. -1.
<mgrwt>
<rscale>  2 0.19286479E+03</rscale>
<asrwt>0</asrwt>
<pdfrwt beam="1">  1       21 0.14827933E-01 0.19286479E+03</pdfrwt>
<pdfrwt beam="2">  1       21 0.70048771E-01 0.19286479E+03</pdfrwt>
<totfact> 0.74113182E+04</totfact>
</mgrwt>
</event>
<event>
 4    1  0.3883260E+000  0.3145870E+03  0.7546771E-02  0.1078168E+00
         21   -1    0    0  503  502  0.00000000000E+00  0.00000000000E+00  0.14630772447E+03  0.14630772447E+03  0.00000000000E+00 0.  1.
         21   -1    0    0  501  503 -0.00000000000E+00 -0.00000000000E+00 -0.96199202861E+03  0.96199202861E+03  0.00000000000E+00 0. -1.
          6    1    1    2  501    0  0.58429795107E+02 -0.25616785118E+03 -0.70976900402E+03  0.77636141583E+03  0.17300000000E+03 0. -1.
         -6    1    1    2    0  502 -0.58429795107E+02  0.25616785118E+03 -0.10591530012E+03  0.33193833725E+03  0.17300000000E+03 0.  1.
<mgrwt>
<rscale>  2 0.31458705E+03</rscale>
<asrwt>0</asrwt>
<pdfrwt beam="1">  1       21 0.22508880E-01 0.31458705E+03</pdfrwt>
<pdfrwt beam="2">  1       21 0.14799878E+00 0.31458705E+03</pdfrwt>
<totfact> 0.52838628E+03</totfact>
</mgrwt>
</event>
<event>
 4    1  0.3883260E+000  0.1826125E+03  0.7546771E-02  0.1165298E+00
         21   -1    0    0  501  502  0.00000000000E+00  0.00000000000E+00  0.20405544436E+03  0.20405544436E+03  0.00000000000E+00 0.  1.
         21   -1    0    0  502  503 -0.00000000000E+00 -0.00000000000E+00 -0.23313460684E+03  0.23313460684E+03  0.00000000000E+00 0.  1.
          6    1    1    2  501    0  0.33639474392E+02  0.47819409470E+02  0.10499404669E+03  0.21064439228E+03  0.17300000000E+03 0.  1.
         -6    1    1    2    0  503 -0.33639474392E+02 -0.47819409470E+02 -0.13407320917E+03  0.22654565892E+03  0.17300000000E+03 0.  1.
<mgrwt>
<rscale>  2 0.18261246E+03</rscale>
<asrwt>0</asrwt>
<pdfrwt beam="1">  1       21 0.31393145E-01 0.18261246E+03</pdfrwt>
<pdfrwt beam="2">  1       21 0.35866863E-01 0.18261246E+03</pdfrwt>
<totfact> 0.73402731E+04</totfact>
</mgrwt>
</event>
<event>
 4    1  0.3883260E+000  0.1932954E+03  0.7546771E-02  0.1155522E+00
         21   -1    0    0  501  502  0.00000000000E+00  0.00000000000E+00  0.39862565581E+03  0.39862565581E+03  0.00000000000E+00 0. -1.
         21   -1    0    0  502  503 -0.00000000000E+00 -0.00000000000E+00 -0.12890484430E+03  0.12890484430E+03  0.00000000000E+00 0.  1.
          6    1    1    2  501    0 -0.40268596759E+02 -0.76240197066E+02  0.27264476018E+03  0.33421294527E+03  0.17300000000E+03 0. -1.
         -6    1    1    2    0  503  0.40268596759E+02  0.76240197066E+02 -0.29239486595E+01  0.19331755484E+03  0.17300000000E+03 0.  1.
<mgrwt>
<rscale>  2 0.19329544E+03</rscale>
<asrwt>0</asrwt>
<pdfrwt beam="1">  1       21 0.61327023E-01 0.19329544E+03</pdfrwt>
<pdfrwt beam="2">  1       21 0.19831515E-01 0.19329544E+03</pdfrwt>
<totfact> 0.57958606E+04</totfact>
</mgrwt>
</event>
<event>
 4    1  0.3883260E+000  0.2089922E+03  0.7546771E-02  0.1142367E+00
         21   -1    0    0  501  502  0.00000000000E+00  0.00000000000E+00  0.93136733011E+03  0.93136733011E+03  0.00000000000E+00 0.  1.
         21   -1    0    0  502  503 -0.00000000000E+00 -0.00000000000E+00 -0.11474276316E+03  0.11474276316E+03  0.00000000000E+00 0.  1.
          6    1    1    2  501    0  0.47589804081E+02  0.10716320800E+03  0.81051791011E+03  0.83702868841E+03  0.17300000000E+03 0.  1.
         -6    1    1    2    0  503 -0.47589804081E+02 -0.10716320800E+03  0.61066568451E+01  0.20908140486E+03  0.17300000000E+03 0.  1.
<mgrwt>
<rscale>  2 0.20899221E+03</rscale>
<asrwt>0</asrwt>
<pdfrwt beam="1">  1       21 0.14328728E+00 0.20899221E+03</pdfrwt>
<pdfrwt beam="2">  1       21 0.17652733E-01 0.20899221E+03</pdfrwt>
<totfact> 0.96880730E+03</totfact>
</mgrwt>
</event>
<event>
 4    1  0.3883260E+000  0.2818435E+03  0.7546771E-02  0.1094686E+00
         21   -1    0    0  501  502  0.00000000000E+00  0.00000000000E+00  0.12266406509E+03  0.12266406509E+03  0.00000000000E+00 0. -1.
         21   -1    0    0  502  503 -0.00000000000E+00 -0.00000000000E+00 -0.67854747935E+03  0.67854747935E+03  0.00000000000E+00 0. -1.
          6    1    1    2  501    0  0.15469010643E+03 -0.15993047017E+03 -0.19237132645E+03  0.34123673829E+03  0.17300000000E+03 0. -1.
         -6    1    1    2    0  503 -0.15469010643E+03  0.15993047017E+03 -0.36351208780E+03  0.45997480615E+03  0.17300000000E+03 0. -1.
<mgrwt>
<rscale>  2 0.28184355E+03</rscale>
<asrwt>0</asrwt>
<pdfrwt beam="1">  1       21 0.18871395E-01 0.28184355E+03</pdfrwt>
<pdfrwt beam="2">  1       21 0.10439192E+00 0.28184355E+03</pdfrwt>
<totfact> 0.18158025E+04</totfact>
</mgrwt>
</event>
<event>
 4    1  0.3883260E+000  0.1832240E+03  0.7546771E-02  0.1164719E+00
         21   -1    0    0  503  502  0.00000000000E+00  0.00000000000E+00  0.96125955164E+03  0.96125955164E+03  0.00000000000E+00 0. -1.
         21   -1    0    0  501  503 -0.00000000000E+00 -0.00000000000E+00 -0.10087232182E+03  0.10087232182E+03  0.00000000000E+00 0. -1.
          6    1    1    2  501    0  0.19732480776E+02 -0.57032069641E+02  0.79136610720E+00  0.18322569150E+03  0.17300000000E+03 0. -1.
         -6    1    1    2    0  502 -0.19732480776E+02  0.57032069641E+02  0.85959586372E+03  0.87890618196E+03  0.17300000000E+03 0. -1.
<mgrwt>
<rscale>  2 0.18322398E+03</rscale>
<asrwt>0</asrwt>
<pdfrwt beam="1">  1       21 0.14788608E+00 0.18322398E+03</pdfrwt>
<pdfrwt beam="2">  1       21 0.15518819E-01 0.18322398E+03</pdfrwt>
<totfact> 0.11519445E+04</totfact>
</mgrwt>
</event>
<event>
 4    1  0.3883260E+000  0.1748786E+03  0.7546771E-02  0.1172854E+00
         21   -1    0    0  501  502  0.00000000000E+00  0.00000000000E+00  0.51071860897E+03  0.51071860897E+03  0.00000000000E+00 0.  1.
         21   -1    0    0  502  503 -0.00000000000E+00 -0.00000000000E+00 -0.96548749935E+02  0.96548749935E+02  0.00000000000E+00 0.  1.
          6    1    1    2  501    0  0.24965239096E+02  0.55011224807E+01  0.39420337726E+03  0.43125262684E+03  0.17300000000E+03 0.  1.
         -6    1    1    2    0  503 -0.24965239096E+02 -0.55011224807E+01  0.19966481779E+02  0.17601473207E+03  0.17300000000E+03 0.  1.
<mgrwt>
<rscale>  2 0.17487860E+03</rscale>
<asrwt>0</asrwt>
<pdfrwt beam="1">  1       21 0.78572092E-01 0.17487860E+03</pdfrwt>
<pdfrwt beam="2">  1       21 0.14853654E-01 0.17487860E+03</pdfrwt>
<totfact> 0.57681418E+04</totfact>
</mgrwt>
</event>
<event>
 4    1  0.3883260E+000  0.2687270E+03  0.7546771E-02  0.1102010E+00
         21   -1    0    0  503  502  0.00000000000E+00  0.00000000000E+00  0.51598947465E+03  0.51598947465E+03  0.00000000000E+00 0. -1.
         21   -1    0    0  501  503 -0.00000000000E+00 -0.00000000000E+00 -0.14515957658E+03  0.14515957658E+03  0.00000000000E+00 0. -1.
          6    1    1    2  501    0  0.45979014254E+02 -0.20042742498E+03  0.12280736984E+03  0.29545874927E+03  0.17300000000E+03 0. -1.
         -6    1    1    2    0  502 -0.45979014254E+02  0.20042742498E+03  0.24802252823E+03  0.36569030196E+03  0.17300000000E+03 0. -1.
<mgrwt>
<rscale>  2 0.26872704E+03</rscale>
<asrwt>0</asrwt>
<pdfrwt beam="1">  1       21 0.79382995E-01 0.26872704E+03</pdfrwt>
<pdfrwt beam="2">  1       21 0.22332243E-01 0.26872704E+03</pdfrwt>
<totfact> 0.25269677E+04</totfact>
</mgrwt>
</event>
<event>
 4    1  0.3883260E+000  0.1765292E+03  0.7546771E-02  0.1171205E+00
         21   -1    0    0  501  502  0.00000000000E+00  0.00000000000E+00  0.12628182670E+03  0.12628182670E+03  0.00000000000E+00 0. -1.
         21   -1    0    0  502  503 -0.00000000000E+00 -0.00000000000E+00 -0.46733176748E+03  0.46733176748E+03  0.00000000000E+00 0. -1.
          6    1    1    2  501    0  0.64654438239E+01 -0.34521843734E+02  0.33379317934E+02  0.17965728074E+03  0.17300000000E+03 0. -1.
         -6    1    1    2    0  503 -0.64654438239E+01  0.34521843734E+02 -0.37442925871E+03  0.41395631344E+03  0.17300000000E+03 0. -1.
<mgrwt>
<rscale>  2 0.17652920E+03</rscale>
<asrwt>0</asrwt>
<pdfrwt beam="1">  1       21 0.19427973E-01 0.17652920E+03</pdfrwt>
<pdfrwt beam="2">  1       21 0.71897195E-01 0.17652920E+03</pdfrwt>
<totfact> 0.42905451E+04</totfact>
</mgrwt>
</event>
<event>
 4    1  0.3883260E+000  0.2539790E+03  0.7546771E-02  0.1110816E+00
         21   -1    0    0  503  502  0.00000000000E+00  0.00000000000E+00  0.51976909939E+03  0.51976909939E+03  0.00000000000E+00 0. -1.
         21   -1    0    0  501  503 -0.00000000000E+00 -0.00000000000E+00 -0.12478064880E+03  0.12478064880E+03  0.00000000000E+00 0.  1.
          6    1    1    2  501    0 -0.18316009021E+03  0.32073604544E+02  0.17375919598E+03  0.30772974010E+03  0.17300000000E+03 0. -1.
         -6    1    1    2    0  502  0.18316009021E+03 -0.32073604544E+02  0.22122925461E+03  0.33682000809E+03  0.17300000000E+03 0.  1.
<mgrwt>
<rscale>  2 0.25397900E+03</rscale>
<asrwt>0</asrwt>
<pdfrwt beam="1">  1       21 0.79964475E-01 0.25397900E+03</pdfrwt>
<pdfrwt beam="2">  1       21 0.19197023E-01 0.25397900E+03</pdfrwt>
<totfact> 0.33278673E+04</totfact>
</mgrwt>
</event>
<event>
 4    1  0.3883260E+000  0.1907638E+03  0.7546771E-02  0.1157774E+00
         21   -1    0    0  503  502  0.00000000000E+00  0.00000000000E+00  0.68660999611E+03  0.68660999611E+03  0.00000000000E+00 0.  1.
         21   -1    0    0  501  503 -0.00000000000E+00 -0.00000000000E+00 -0.67124169373E+02  0.67124169373E+02  0.00000000000E+00 0.  1.
          6    1    1    2  501    0 -0.76535661968E+02 -0.24578517413E+02  0.13687299565E+03  0.23478719729E+03  0.17300000000E+03 0.  1.
         -6    1    1    2    0  502  0.76535661968E+02  0.24578517413E+02  0.48261283109E+03  0.51894696820E+03  0.17300000000E+03 0.  1.
<mgrwt>
<rscale>  2 0.19076376E+03</rscale>
<asrwt>0</asrwt>
<pdfrwt beam="1">  1       21 0.10563230E+00 0.19076376E+03</pdfrwt>
<pdfrwt beam="2">  1       21 0.10326796E-01 0.19076376E+03</pdfrwt>
<totfact> 0.55258638E+04</totfact>
</mgrwt>
</event>
<event>
 4    1  0.3883260E+000  0.1878215E+03  0.7546771E-02  0.1160441E+00
         21   -1    0    0  501  502  0.00000000000E+00  0.00000000000E+00  0.44653839872E+03  0.44653839872E+03  0.00000000000E+00 0.  1.
         21   -1    0    0  502  503 -0.00000000000E+00 -0.00000000000E+00 -0.85086902118E+02  0.85086902118E+02  0.00000000000E+00 0.  1.
          6    1    1    2  501    0  0.33799624629E+02 -0.64849823738E+02  0.25181632330E+03  0.31414705942E+03  0.17300000000E+03 0.  1.
         -6    1    1    2    0  503 -0.33799624629E+02  0.64849823738E+02  0.10963517330E+03  0.21747824142E+03  0.17300000000E+03 0.  1.
<mgrwt>
<rscale>  2 0.18782150E+03</rscale>
<asrwt>0</asrwt>
<pdfrwt beam="1">  1       21 0.68698214E-01 0.18782150E+03</pdfrwt>
<pdfrwt beam="2">  1       21 0.13090293E-01 0.18782150E+03</pdfrwt>
<totfact> 0.97125672E+04</totfact>
</mgrwt>
</event>
<event>
 4    1  0.3883260E+000  0.1988795E+03  0.7546771E-02  0.1150688E+00
         21   -1    0    0  503  502  0.00000000000E+00  0.00000000000E+00  0.17986744287E+03  0.17986744287E+03  0.00000000000E+00 0. -1.
         21   -1    0    0  501  503 -0.00000000000E+00 -0.00000000000E+00 -0.32446002316E+03  0.32446002316E+03  0.00000000000E+00 0. -1.
          6    1    1    2  501    0 -0.94093278808E+02  0.27757949764E+02 -0.21544339689E+03  0.29320454661E+03  0.17300000000E+03 0. -1.
         -6    1    1    2    0  502  0.94093278808E+02 -0.27757949764E+02  0.70850816591E+02  0.21112291942E+03  0.17300000000E+03 0. -1.
<mgrwt>
<rscale>  2 0.19887948E+03</rscale>
<asrwt>0</asrwt>
<pdfrwt beam="1">  1       21 0.27671914E-01 0.19887948E+03</pdfrwt>
<pdfrwt beam="2">  1       21 0.49916926E-01 0.19887948E+03</pdfrwt>
<totfact> 0.47512430E+04</totfact>
</mgrwt>
</event>
<event>
 4    1  0.3883260E+000  0.1813957E+03  0.7546771E-02  0.1166459E+00
         21   -1    0    0  503  502  0.00000000000E+00  0.00000000000E+00  0.29599063129E+03  0.29599063129E+03  0.00000000000E+00 0. -1.
         21   -1    0    0  501  503 -0.00000000000E+00 -0.00000000000E+00 -0.11292159012E+03  0.11292159012E+03  0.00000000000E+00 0. -1.
          6    1    1    2  501    0 -0.28552325884E+02 -0.46477595181E+02  0.66048937879E+02  0.19304627518E+03  0.17300000000E+03 0. -1.
         -6    1    1    2    0  502  0.28552325884E+02  0.46477595181E+02  0.11702010329E+03  0.21586594623E+03  0.17300000000E+03 0. -1.
<mgrwt>
<rscale>  2 0.18139571E+03</rscale>
<asrwt>0</asrwt>
<pdfrwt beam="1">  1       21 0.45537020E-01 0.18139571E+03</pdfrwt>
<pdfrwt beam="2">  1       21 0.17372552E-01 0.18139571E+03</pdfrwt>
<totfact> 0.13914583E+05</totfact>
</mgrwt>
</event>
<event>
 4    1  0.3883260E+000  0.2330467E+03  0.7546771E-02  0.1124514E+00
         21   -1    0    0  503  502  0.00000000000E+00  0.00000000000E+00  0.66744316983E+02  0.66744316983E+02  0.00000000000E+00 0.  1.
         21   -1    0    0  501  503 -0.00000000000E+00 -0.00000000000E+00 -0.10381462620E+04  0.10381462620E+04  0.00000000000E+00 0. -1.
          6    1    1    2  501    0 -0.15588432965E+03  0.90455784534E+01 -0.74256494979E+03  0.77827594809E+03  0.17300000000E+03 0. -1.
         -6    1    1    2    0  502  0.15588432965E+03 -0.90455784534E+01 -0.22883699519E+03  0.32661463086E+03  0.17300000000E+03 0.  1.
<mgrwt>
<rscale>  2 0.23304666E+03</rscale>
<asrwt>0</asrwt>
<pdfrwt beam="1">  1       21 0.10268356E-01 0.23304666E+03</pdfrwt>
<pdfrwt beam="2">  1       21 0.15971481E+00 0.23304666E+03</pdfrwt>
<totfact> 0.19072221E+04</totfact>
</mgrwt>
</event>
<event>
 4    1  0.3883260E+000  0.2074520E+03  0.7546771E-02  0.1143600E+00
         21   -1    0    0  501  502  0.00000000000E+00  0.00000000000E+00  0.54819040966E+03  0.54819040966E+03  0.00000000000E+00 0. -1.
         21   -1    0    0  502  503 -0.00000000000E+00 -0.00000000000E+00 -0.79746679961E+02  0.79746679961E+02  0.00000000000E+00 0. -1.
          6    1    1    2  501    0 -0.44843530845E+02 -0.10533937912E+03  0.27338078812E+03  0.34318126751E+03  0.17300000000E+03 0. -1.
         -6    1    1    2    0  503  0.44843530845E+02  0.10533937912E+03  0.19506294157E+03  0.28475582211E+03  0.17300000000E+03 0. -1.
<mgrwt>
<rscale>  2 0.20745199E+03</rscale>
<asrwt>0</asrwt>
<pdfrwt beam="1">  1       21 0.84336984E-01 0.20745199E+03</pdfrwt>
<pdfrwt beam="2">  1       21 0.12268720E-01 0.20745199E+03</pdfrwt>
<totfact> 0.68332982E+04</totfact>
</mgrwt>
</event>
<event>
 4    1  0.3883260E+000  0.2111077E+03  0.7546771E-02  0.1140692E+00
         21   -1    0    0  503  502  0.00000000000E+00  0.00000000000E+00  0.14972493753E+04  0.14972493753E+04  0.00000000000E+00 0.  1.
         21   -1    0    0  501  503 -0.00000000000E+00 -0.00000000000E+00 -0.90097060204E+02  0.90097060204E+02  0.00000000000E+00 0. -1.
          6    1    1    2  501    0  0.48642692333E+02 -0.11077612062E+03  0.54107060778E+02  0.21793126082E+03  0.17300000000E+03 0. -1.
         -6    1    1    2    0  502 -0.48642692333E+02  0.11077612062E+03  0.13530452543E+04  0.13694151747E+04  0.17300000000E+03 0.  1.
<mgrwt>
<rscale>  2 0.21110770E+03</rscale>
<asrwt>0</asrwt>
<pdfrwt beam="1">  1       21 0.23034604E+00 0.21110770E+03</pdfrwt>
<pdfrwt beam="2">  1       21 0.13861087E-01 0.21110770E+03</pdfrwt>
<totfact> 0.38689422E+03</totfact>
</mgrwt>
</event>
<event>
 4    1  0.3883260E+000  0.2504675E+03  0.7546771E-02  0.1113010E+00
         21   -1    0    0  503  502  0.00000000000E+00  0.00000000000E+00  0.15054376740E+04  0.15054376740E+04  0.00000000000E+00 0. -1.
         21   -1    0    0  501  503 -0.00000000000E+00 -0.00000000000E+00 -0.42627307000E+02  0.42627307000E+02  0.00000000000E+00 0. -1.
          6    1    1    2  501    0  0.17022646526E+03 -0.61870195881E+02  0.61550568840E+03  0.66451578090E+03  0.17300000000E+03 0. -1.
         -6    1    1    2    0  502 -0.17022646526E+03  0.61870195881E+02  0.84730467855E+03  0.88354920005E+03  0.17300000000E+03 0. -1.
<mgrwt>
<rscale>  2 0.25046750E+03</rscale>
<asrwt>0</asrwt>
<pdfrwt beam="1">  1       21 0.23160575E+00 0.25046750E+03</pdfrwt>
<pdfrwt beam="2">  1       21 0.65580484E-02 0.25046750E+03</pdfrwt>
<totfact> 0.13837760E+04</totfact>
</mgrwt>
</event>
<event>
 4    1  0.3883260E+000  0.1919163E+03  0.7546771E-02  0.1156744E+00
         21   -1    0    0  503  502  0.00000000000E+00  0.00000000000E+00  0.26852119339E+03  0.26852119339E+03  0.00000000000E+00 0.  1.
         21   -1    0    0  501  503 -0.00000000000E+00 -0.00000000000E+00 -0.21794164449E+03  0.21794164449E+03  0.00000000000E+00 0.  1.
          6    1    1    2  501    0 -0.27711431166E+01  0.83037167712E+02 -0.12278840097E+03  0.22783511992E+03  0.17300000000E+03 0. -1.
         -6    1    1    2    0  502  0.27711431166E+01 -0.83037167712E+02  0.17336794987E+03  0.25862771796E+03  0.17300000000E+03 0. -1.
<mgrwt>
<rscale>  2 0.19191626E+03</rscale>
<asrwt>0</asrwt>
<pdfrwt beam="1">  1       21 0.41310953E-01 0.19191626E+03</pdfrwt>
<pdfrwt beam="2">  1       21 0.33529484E-01 0.19191626E+03</pdfrwt>
<totfact> 0.48362383E+04</totfact>
</mgrwt>
</event>
<event>
 4    1  0.3883260E+000  0.2504424E+03  0.7546771E-02  0.1113026E+00
         21   -1    0    0  501  502  0.00000000000E+00  0.00000000000E+00  0.14009158492E+03  0.14009158492E+03  0.00000000000E+00 0. -1.
         21   -1    0    0  502  503 -0.00000000000E+00 -0.00000000000E+00 -0.49791190104E+03  0.49791190104E+03  0.00000000000E+00 0. -1.
          6    1    1    2  501    0  0.18026544363E+03  0.17226282895E+02 -0.77624749121E+02  0.26219644671E+03  0.17300000000E+03 0. -1.
         -6    1    1    2    0  503 -0.18026544363E+03 -0.17226282895E+02 -0.28019556700E+03  0.37580703926E+03  0.17300000000E+03 0. -1.
<mgrwt>
<rscale>  2 0.25044236E+03</rscale>
<asrwt>0</asrwt>
<pdfrwt beam="1">  1       21 0.21552551E-01 0.25044236E+03</pdfrwt>
<pdfrwt beam="2">  1       21 0.76601833E-01 0.25044236E+03</pdfrwt>
<totfact> 0.29546300E+04</totfact>
</mgrwt>
</event>
<event>
 4    1  0.3883260E+000  0.3007098E+03  0.7546771E-02  0.1084886E+00
         21   -1    0    0  503  502  0.00000000000E+00  0.00000000000E+00  0.65195651719E+03  0.65195651719E+03  0.00000000000E+00 0.  1.
         21   -1    0    0  501  503 -0.00000000000E+00 -0.00000000000E+00 -0.14760627822E+03  0.14760627822E+03  0.00000000000E+00 0. -1.
          6    1    1    2  501    0 -0.13636881832E+02 -0.24558381478E+03  0.35037661078E+03  0.46172518234E+03  0.17300000000E+03 0.  1.
         -6    1    1    2    0  502  0.13636881832E+02  0.24558381478E+03  0.15397362819E+03  0.33783761307E+03  0.17300000000E+03 0. -1.
<mgrwt>
<rscale>  2 0.30070978E+03</rscale>
<asrwt>0</asrwt>
<pdfrwt beam="1">  1       21 0.10030100E+00 0.30070978E+03</pdfrwt>
<pdfrwt beam="2">  1       21 0.22708659E-01 0.30070978E+03</pdfrwt>
<totfact> 0.13975128E+04</totfact>
</mgrwt>
</event>
<event>
 4    1  0.3883260E+000  0.1737610E+03  0.7546771E-02  0.1173982E+00
         21   -1    0    0  501  502  0.00000000000E+00  0.00000000000E+00  0.39629928763E+03  0.39629928763E+03  0.00000000000E+00 0. -1.
         21   -1    0    0  502  503 -0.00000000000E+00 -0.00000000000E+00 -0.87699155144E+02  0.87699155144E+02  0.00000000000E+00 0. -1.
          6    1    1    2  501    0  0.23742037299E+01 -0.16070071823E+02  0.24197857248E+03  0.29790353068E+03  0.17300000000E+03 0.  1.
         -6    1    1    2    0  503 -0.23742037299E+01  0.16070071823E+02  0.66621560014E+02  0.18609491210E+03  0.17300000000E+03 0.  1.
<mgrwt>
<rscale>  2 0.17376100E+03</rscale>
<asrwt>0</asrwt>
<pdfrwt beam="1">  1       21 0.60969120E-01 0.17376100E+03</pdfrwt>
<pdfrwt beam="2">  1       21 0.13492178E-01 0.17376100E+03</pdfrwt>
<totfact> 0.11982669E+05</totfact>
</mgrwt>
</event>
<event>
 4    1  0.3883260E+000  0.1990057E+03  0.7546771E-02  0.1150581E+00
         21   -1    0    0  503  502  0.00000000000E+00  0.00000000000E+00  0.25946004454E+03  0.25946004454E+03  0.00000000000E+00 0.  1.
         21   -1    0    0  501  503 -0.00000000000E+00 -0.00000000000E+00 -0.16567937108E+03  0.16567937108E+03  0.00000000000E+00 0.  1.
          6    1    1    2  501    0 -0.39168198041E+01 -0.98279790325E+02 -0.12750242076E+02  0.19941370900E+03  0.17300000000E+03 0.  1.
         -6    1    1    2    0  502  0.39168198041E+01  0.98279790325E+02  0.10653091553E+03  0.22572570662E+03  0.17300000000E+03 0.  1.
<mgrwt>
<rscale>  2 0.19900567E+03</rscale>
<asrwt>0</asrwt>
<pdfrwt beam="1">  1       21 0.39916930E-01 0.19900567E+03</pdfrwt>
<pdfrwt beam="2">  1       21 0.25489134E-01 0.19900567E+03</pdfrwt>
<totfact> 0.88056526E+04</totfact>
</mgrwt>
</event>
<event>
 4    1  0.3883260E+000  0.1759307E+03  0.7546771E-02  0.1171800E+00
         21   -1    0    0  503  502  0.00000000000E+00  0.00000000000E+00  0.27963900076E+03  0.27963900076E+03  0.00000000000E+00 0. -1.
         21   -1    0    0  501  503 -0.00000000000E+00 -0.00000000000E+00 -0.11077823130E+03  0.11077823130E+03  0.00000000000E+00 0. -1.
          6    1    1    2  501    0 -0.15900859565E+02 -0.27745058042E+02  0.78743762679E+02  0.19274907455E+03  0.17300000000E+03 0. -1.
         -6    1    1    2    0  502  0.15900859565E+02  0.27745058042E+02  0.90117006776E+02  0.19766815750E+03  0.17300000000E+03 0. -1.
<mgrwt>
<rscale>  2 0.17593074E+03</rscale>
<asrwt>0</asrwt>
<pdfrwt beam="1">  1       21 0.43021385E-01 0.17593074E+03</pdfrwt>
<pdfrwt beam="2">  1       21 0.17042805E-01 0.17593074E+03</pdfrwt>
<totfact> 0.16218998E+05</totfact>
</mgrwt>
</event>
<event>
 4    1  0.3883260E+000  0.2271905E+03  0.7546771E-02  0.1128633E+00
         21   -1    0    0  503  502  0.00000000000E+00  0.00000000000E+00  0.83128891942E+03  0.83128891942E+03  0.00000000000E+00 0. -1.
         21   -1    0    0  501  503 -0.00000000000E+00 -0.00000000000E+00 -0.92361456744E+02  0.92361456744E+02  0.00000000000E+00 0. -1.
          6    1    1    2  501    0 -0.11906675029E+03  0.86658185496E+02  0.10507559793E+03  0.25031263136E+03  0.17300000000E+03 0. -1.
         -6    1    1    2    0  502  0.11906675029E+03 -0.86658185496E+02  0.63385186474E+03  0.67333774480E+03  0.17300000000E+03 0. -1.
<mgrwt>
<rscale>  2 0.22719052E+03</rscale>
<asrwt>0</asrwt>
<pdfrwt beam="1">  1       21 0.12789060E+00 0.22719052E+03</pdfrwt>
<pdfrwt beam="2">  1       21 0.14209455E-01 0.22719052E+03</pdfrwt>
<totfact> 0.19081607E+04</totfact>
</mgrwt>
</event>
<event>
 4    1  0.3883260E+000  0.1809951E+03  0.7546771E-02  0.1166843E+00
         21   -1    0    0  503  502  0.00000000000E+00  0.00000000000E+00  0.14401099921E+04  0.14401099921E+04  0.00000000000E+00 0. -1.
         21   -1    0    0  501  503 -0.00000000000E+00 -0.00000000000E+00 -0.29558206518E+02  0.29558206518E+02  0.00000000000E+00 0. -1.
          6    1    1    2  501    0 -0.12278243445E+02 -0.51763474591E+02  0.35254827123E+03  0.39629470866E+03  0.17300000000E+03 0. -1.
         -6    1    1    2    0  502  0.12278243445E+02  0.51763474591E+02  0.10580035143E+04  0.10733734900E+04  0.17300000000E+03 0. -1.
<mgrwt>
<rscale>  2 0.18099506E+03</rscale>
<asrwt>0</asrwt>
<pdfrwt beam="1">  1       21 0.22155533E+00 0.18099506E+03</pdfrwt>
<pdfrwt beam="2">  1       21 0.45474175E-02 0.18099506E+03</pdfrwt>
<totfact> 0.31359172E+04</totfact>
</mgrwt>
</event>
<event>
 4    1  0.3883260E+000  0.2517816E+03  0.7546771E-02  0.1112184E+00
         21   -1    0    0  501  502  0.00000000000E+00  0.00000000000E+00  0.16254384630E+03  0.16254384630E+03  0.00000000000E+00 0.  1.
         21   -1    0    0  502  503 -0.00000000000E+00 -0.00000000000E+00 -0.39006872938E+03  0.39006872938E+03  0.00000000000E+00 0. -1.
          6    1    1    2  501    0  0.16761945955E+03  0.73271407807E+02 -0.11710688185E+03  0.27768328037E+03  0.17300000000E+03 0.  1.
         -6    1    1    2    0  503 -0.16761945955E+03 -0.73271407807E+02 -0.11041800123E+03  0.27492929530E+03  0.17300000000E+03 0. -1.
<mgrwt>
<rscale>  2 0.25178162E+03</rscale>
<asrwt>0</asrwt>
<pdfrwt beam="1">  1       21 0.25006746E-01 0.25178162E+03</pdfrwt>
<pdfrwt beam="2">  1       21 0.60010574E-01 0.25178162E+03</pdfrwt>
<totfact> 0.38128134E+04</totfact>
</mgrwt>
</event>
<event>
 4    1  0.3883260E+000  0.2043041E+03  0.7546771E-02  0.1146158E+00
         21   -1    0    0  503  502  0.00000000000E+00  0.00000000000E+00  0.42358128305E+03  0.42358128305E+03  0.00000000000E+00 0. -1.
         21   -1    0    0  501  503 -0.00000000000E+00 -0.00000000000E+00 -0.12332315095E+03  0.12332315095E+03  0.00000000000E+00 0. -1.
          6    1    1    2  501    0  0.51767049673E+02  0.95557976619E+02  0.27546700552E+02  0.20615279537E+03  0.17300000000E+03 0. -1.
         -6    1    1    2    0  502 -0.51767049673E+02 -0.95557976619E+02  0.27271143155E+03  0.34075163862E+03  0.17300000000E+03 0. -1.
<mgrwt>
<rscale>  2 0.20430407E+03</rscale>
<asrwt>0</asrwt>
<pdfrwt beam="1">  1       21 0.65166351E-01 0.20430407E+03</pdfrwt>
<pdfrwt beam="2">  1       21 0.18972793E-01 0.20430407E+03</pdfrwt>
<totfact> 0.54886436E+04</totfact>
</mgrwt>
</event>
<event>
 4    1  0.3883260E+000  0.1896231E+03  0.7546771E-02  0.1158802E+00
         21   -1    0    0  503  502  0.00000000000E+00  0.00000000000E+00  0.72079727366E+02  0.72079727366E+02  0.00000000000E+00 0. -1.
         21   -1    0    0  501  503 -0.00000000000E+00 -0.00000000000E+00 -0.88913394995E+03  0.88913394995E+03  0.00000000000E+00 0. -1.
          6    1    1    2  501    0 -0.76880981267E+02 -0.10827334475E+02 -0.72694475491E+03  0.75126932131E+03  0.17300000000E+03 0. -1.
         -6    1    1    2    0  502  0.76880981267E+02  0.10827334475E+02 -0.90109467668E+02  0.20994435600E+03  0.17300000000E+03 0. -1.
<mgrwt>
<rscale>  2 0.18962309E+03</rscale>
<asrwt>0</asrwt>
<pdfrwt beam="1">  1       21 0.11089189E-01 0.18962309E+03</pdfrwt>
<pdfrwt beam="2">  1       21 0.13678984E+00 0.18962309E+03</pdfrwt>
<totfact> 0.25710916E+04</totfact>
</mgrwt>
</event>
<event>
 4    1  0.3883260E+000  0.2072107E+03  0.7546771E-02  0.1143794E+00
         21   -1    0    0  503  502  0.00000000000E+00  0.00000000000E+00  0.30353140721E+03  0.30353140721E+03  0.00000000000E+00 0.  1.
         21   -1    0    0  501  503 -0.00000000000E+00 -0.00000000000E+00 -0.14495133954E+03  0.14495133954E+03  0.00000000000E+00 0. -1.
          6    1    1    2  501    0 -0.11239530422E+03  0.19354283606E+02  0.11411243666E+03  0.23655430857E+03  0.17300000000E+03 0.  1.
         -6    1    1    2    0  502  0.11239530422E+03 -0.19354283606E+02  0.44467631014E+02  0.21192843819E+03  0.17300000000E+03 0. -1.
<mgrwt>
<rscale>  2 0.20721074E+03</rscale>
<asrwt>0</asrwt>
<pdfrwt beam="1">  1       21 0.46697139E-01 0.20721074E+03</pdfrwt>
<pdfrwt beam="2">  1       21 0.22300206E-01 0.20721074E+03</pdfrwt>
<totfact> 0.82106963E+04</totfact>
</mgrwt>
</event>
<event>
 4    1  0.3883260E+000  0.2183216E+03  0.7546771E-02  0.1135141E+00
         21   -1    0    0  501  502  0.00000000000E+00  0.00000000000E+00  0.72705408850E+03  0.72705408850E+03  0.00000000000E+00 0. -1.
         21   -1    0    0  502  503 -0.00000000000E+00 -0.00000000000E+00 -0.65727861156E+02  0.65727861156E+02  0.00000000000E+00 0. -1.
          6    1    1    2  501    0 -0.10843508824E+03  0.77312056386E+02  0.35080507150E+03  0.41319307910E+03  0.17300000000E+03 0. -1.
         -6    1    1    2    0  503  0.10843508824E+03 -0.77312056386E+02  0.31052115585E+03  0.37958887056E+03  0.17300000000E+03 0. -1.
<mgrwt>
<rscale>  2 0.21832160E+03</rscale>
<asrwt>0</asrwt>
<pdfrwt beam="1">  1       21 0.11185447E+00 0.21832160E+03</pdfrwt>
<pdfrwt beam="2">  1       21 0.10111979E-01 0.21832160E+03</pdfrwt>
<totfact> 0.49248681E+04</totfact>
</mgrwt>
</event>
<event>
 4    1  0.3883260E+000  0.1794452E+03  0.7546771E-02  0.1168341E+00
         21   -1    0    0  503  502  0.00000000000E+00  0.00000000000E+00  0.42226586887E+03  0.42226586887E+03  0.00000000000E+00 0. -1.
         21   -1    0    0  501  503 -0.00000000000E+00 -0.00000000000E+00 -0.80567431335E+02  0.80567431335E+02  0.00000000000E+00 0. -1.
          6    1    1    2  501    0  0.39389625960E+02 -0.26833758646E+02  0.11269372298E+03  0.21189730634E+03  0.17300000000E+03 0. -1.
         -6    1    1    2    0  502 -0.39389625960E+02  0.26833758646E+02  0.22900471456E+03  0.29093599386E+03  0.17300000000E+03 0. -1.
<mgrwt>
<rscale>  2 0.17944524E+03</rscale>
<asrwt>0</asrwt>
<pdfrwt beam="1">  1       21 0.64963979E-01 0.17944524E+03</pdfrwt>
<pdfrwt beam="2">  1       21 0.12394990E-01 0.17944524E+03</pdfrwt>
<totfact> 0.12141124E+05</totfact>
</mgrwt>
</event>
<event>
 4    1  0.3883260E+000  0.1900402E+03  0.7546771E-02  0.1158425E+00
         21   -1    0    0  503  502  0.00000000000E+00  0.00000000000E+00  0.53420966592E+03  0.53420966592E+03  0.00000000000E+00 0.  1.
         21   -1    0    0  501  503 -0.00000000000E+00 -0.00000000000E+00 -0.70572049222E+02  0.70572049222E+02  0.00000000000E+00 0. -1.
          6    1    1    2  501    0 -0.44690692114E+02 -0.64722750303E+02  0.16981646480E+03  0.25485863550E+03  0.17300000000E+03 0.  1.
         -6    1    1    2    0  502  0.44690692114E+02  0.64722750303E+02  0.29382115189E+03  0.34992307965E+03  0.17300000000E+03 0. -1.
<mgrwt>
<rscale>  2 0.19004024E+03</rscale>
<asrwt>0</asrwt>
<pdfrwt beam="1">  1       21 0.82186100E-01 0.19004024E+03</pdfrwt>
<pdfrwt beam="2">  1       21 0.10857239E-01 0.19004024E+03</pdfrwt>
<totfact> 0.90852859E+04</totfact>
</mgrwt>
</event>
<event>
 4    1  0.3883260E+000  0.3741340E+03  0.7546771E-02  0.1053123E+00
         21   -1    0    0  501  502  0.00000000000E+00  0.00000000000E+00  0.23802697359E+04  0.23802697359E+04  0.00000000000E+00 0. -1.
         21   -1    0    0  502  503 -0.00000000000E+00 -0.00000000000E+00 -0.66378332295E+02  0.66378332295E+02  0.00000000000E+00 0. -1.
          6    1    1    2  501    0 -0.28794054583E+03 -0.16473469088E+03  0.15701049304E+04  0.16140649829E+04  0.17300000000E+03 0. -1.
         -6    1    1    2    0  503  0.28794054583E+03  0.16473469088E+03  0.74378647313E+03  0.83258308530E+03  0.17300000000E+03 0. -1.
<mgrwt>
<rscale>  2 0.37413404E+03</rscale>
<asrwt>0</asrwt>
<pdfrwt beam="1">  1       21 0.36619528E+00 0.37413404E+03</pdfrwt>
<pdfrwt beam="2">  1       21 0.10212053E-01 0.37413404E+03</pdfrwt>
<totfact> 0.90877977E+02</totfact>
</mgrwt>
</event>
<event>
 4    1  0.3883260E+000  0.2113049E+03  0.7546771E-02  0.1140537E+00
         21   -1    0    0  503  502  0.00000000000E+00  0.00000000000E+00  0.29637363269E+02  0.29637363269E+02  0.00000000000E+00 0.  1.
         21   -1    0    0  501  503 -0.00000000000E+00 -0.00000000000E+00 -0.15302504465E+04  0.15302504465E+04  0.00000000000E+00 0.  1.
          6    1    1    2  501    0 -0.48026114345E+02  0.11141928230E+03 -0.65321403849E+03  0.68654085400E+03  0.17300000000E+03 0.  1.
         -6    1    1    2    0  502  0.48026114345E+02 -0.11141928230E+03 -0.84739904478E+03  0.87334695581E+03  0.17300000000E+03 0.  1.
<mgrwt>
<rscale>  2 0.21130491E+03</rscale>
<asrwt>0</asrwt>
<pdfrwt beam="1">  1       21 0.45595946E-02 0.21130491E+03</pdfrwt>
<pdfrwt beam="2">  1       21 0.23542313E+00 0.21130491E+03</pdfrwt>
<totfact> 0.25132422E+04</totfact>
</mgrwt>
</event>
<event>
 4    1  0.3883260E+000  0.1939930E+03  0.7546771E-02  0.1154908E+00
         21   -1    0    0  503  502  0.00000000000E+00  0.00000000000E+00  0.26575599634E+03  0.26575599634E+03  0.00000000000E+00 0.  1.
         21   -1    0    0  501  503 -0.00000000000E+00 -0.00000000000E+00 -0.13023781725E+04  0.13023781725E+04  0.00000000000E+00 0.  1.
          6    1    1    2  501    0  0.65342706010E+02  0.58605485252E+02 -0.12585258118E+04  0.12733893713E+04  0.17300000000E+03 0.  1.
         -6    1    1    2    0  502 -0.65342706010E+02 -0.58605485252E+02  0.22190363564E+03  0.29474479748E+03  0.17300000000E+03 0.  1.
<mgrwt>
<rscale>  2 0.19399297E+03</rscale>
<asrwt>0</asrwt>
<pdfrwt beam="1">  1       21 0.40885538E-01 0.19399297E+03</pdfrwt>
<pdfrwt beam="2">  1       21 0.20036587E+00 0.19399297E+03</pdfrwt>
<totfact> 0.76836906E+02</totfact>
</mgrwt>
</event>
<event>
 4    1  0.3883260E+000  0.1817942E+03  0.7546771E-02  0.1166078E+00
         21   -1    0    0  503  502  0.00000000000E+00  0.00000000000E+00  0.69313654529E+03  0.69313654529E+03  0.00000000000E+00 0.  1.
         21   -1    0    0  501  503 -0.00000000000E+00 -0.00000000000E+00 -0.51605521926E+02  0.51605521926E+02  0.00000000000E+00 0.  1.
          6    1    1    2  501    0  0.50087964033E+02 -0.24724898925E+02  0.21807114193E+03  0.28390869608E+03  0.17300000000E+03 0.  1.
         -6    1    1    2    0  502 -0.50087964033E+02  0.24724898925E+02  0.42345988143E+03  0.46083337113E+03  0.17300000000E+03 0.  1.
<mgrwt>
<rscale>  2 0.18179418E+03</rscale>
<asrwt>0</asrwt>
<pdfrwt beam="1">  1       21 0.10663638E+00 0.18179418E+03</pdfrwt>
<pdfrwt beam="2">  1       21 0.79393116E-02 0.18179418E+03</pdfrwt>
<totfact> 0.86008148E+04</totfact>
</mgrwt>
</event>
<event>
 4    1  0.3883260E+000  0.2214134E+03  0.7546771E-02  0.1132834E+00
         21   -1    0    0  501  502  0.00000000000E+00  0.00000000000E+00  0.84013283202E+02  0.84013283202E+02  0.00000000000E+00 0.  1.
         21   -1    0    0  502  503 -0.00000000000E+00 -0.00000000000E+00 -0.59342656656E+03  0.59342656656E+03  0.00000000000E+00 0.  1.
          6    1    1    2  501    0 -0.12156581099E+03 -0.65701256632E+02 -0.21095483016E+03  0.30581995012E+03  0.17300000000E+03 0.  1.
         -6    1    1    2    0  503  0.12156581099E+03  0.65701256632E+02 -0.29845845320E+03  0.37161989965E+03  0.17300000000E+03 0.  1.
<mgrwt>
<rscale>  2 0.22141342E+03</rscale>
<asrwt>0</asrwt>
<pdfrwt beam="1">  1       21 0.12925121E-01 0.22141342E+03</pdfrwt>
<pdfrwt beam="2">  1       21 0.91296390E-01 0.22141342E+03</pdfrwt>
<totfact> 0.51474119E+04</totfact>
</mgrwt>
</event>
<event>
 4    1  0.3883260E+000  0.2279354E+03  0.7546771E-02  0.1128101E+00
         21   -1    0    0  501  502  0.00000000000E+00  0.00000000000E+00  0.20898415039E+04  0.20898415039E+04  0.00000000000E+00 0.  1.
         21   -1    0    0  502  503 -0.00000000000E+00 -0.00000000000E+00 -0.25771195496E+02  0.25771195496E+02  0.00000000000E+00 0. -1.
          6    1    1    2  501    0  0.98355602982E+01 -0.14808371775E+03  0.12308840049E+04  0.12518106723E+04  0.17300000000E+03 0.  1.
         -6    1    1    2    0  503 -0.98355602982E+01  0.14808371775E+03  0.83318630348E+03  0.86380202710E+03  0.17300000000E+03 0. -1.
<mgrwt>
<rscale>  2 0.22793535E+03</rscale>
<asrwt>0</asrwt>
<pdfrwt beam="1">  1       21 0.32151394E+00 0.22793535E+03</pdfrwt>
<pdfrwt beam="2">  1       21 0.39648010E-02 0.22793535E+03</pdfrwt>
<totfact> 0.98283089E+03</totfact>
</mgrwt>
</event>
<event>
 4    1  0.3883260E+000  0.2042100E+03  0.7546771E-02  0.1146235E+00
         21   -1    0    0  501  502  0.00000000000E+00  0.00000000000E+00  0.24790572207E+03  0.24790572207E+03  0.00000000000E+00 0.  1.
         21   -1    0    0  502  503 -0.00000000000E+00 -0.00000000000E+00 -0.19185250240E+03  0.19185250240E+03  0.00000000000E+00 0.  1.
          6    1    1    2  501    0 -0.59231879224E+02 -0.90908293583E+02  0.10520415173E+03  0.22971644891E+03  0.17300000000E+03 0.  1.
         -6    1    1    2    0  503  0.59231879224E+02  0.90908293583E+02 -0.49150932055E+02  0.21004177556E+03  0.17300000000E+03 0.  1.
<mgrwt>
<rscale>  2 0.20421002E+03</rscale>
<asrwt>0</asrwt>
<pdfrwt beam="1">  1       21 0.38139342E-01 0.20421002E+03</pdfrwt>
<pdfrwt beam="2">  1       21 0.29515770E-01 0.20421002E+03</pdfrwt>
<totfact> 0.72551183E+04</totfact>
</mgrwt>
</event>
<event>
 4    1  0.3883260E+000  0.2222255E+03  0.7546771E-02  0.1132235E+00
         21   -1    0    0  501  502  0.00000000000E+00  0.00000000000E+00  0.20172299280E+03  0.20172299280E+03  0.00000000000E+00 0.  1.
         21   -1    0    0  502  503 -0.00000000000E+00 -0.00000000000E+00 -0.46828689303E+03  0.46828689303E+03  0.00000000000E+00 0.  1.
          6    1    1    2  501    0 -0.11520208547E+03  0.78636329922E+02  0.98142724613E+02  0.24293247472E+03  0.17300000000E+03 0.  1.
         -6    1    1    2    0  503  0.11520208547E+03 -0.78636329922E+02 -0.36470662484E+03  0.42707741111E+03  0.17300000000E+03 0.  1.
<mgrwt>
<rscale>  2 0.22222555E+03</rscale>
<asrwt>0</asrwt>
<pdfrwt beam="1">  1       21 0.31034307E-01 0.22222555E+03</pdfrwt>
<pdfrwt beam="2">  1       21 0.72044138E-01 0.22222555E+03</pdfrwt>
<totfact> 0.17034518E+04</totfact>
</mgrwt>
</event>
<event>
 4    1  0.3883260E+000  0.1747573E+03  0.7546771E-02  0.1172976E+00
         21   -1    0    0  501  502  0.00000000000E+00  0.00000000000E+00  0.19895878430E+03  0.19895878430E+03  0.00000000000E+00 0.  1.
         21   -1    0    0  502  503 -0.00000000000E+00 -0.00000000000E+00 -0.18326827392E+03  0.18326827392E+03  0.00000000000E+00 0.  1.
          6    1    1    2  501    0  0.15899223915E+02  0.18929728464E+02  0.84869344796E+02  0.19427538606E+03  0.17300000000E+03 0.  1.
         -6    1    1    2    0  503 -0.15899223915E+02 -0.18929728464E+02 -0.69178834413E+02  0.18795167217E+03  0.17300000000E+03 0.  1.
<mgrwt>
<rscale>  2 0.17475732E+03</rscale>
<asrwt>0</asrwt>
<pdfrwt beam="1">  1       21 0.30609044E-01 0.17475732E+03</pdfrwt>
<pdfrwt beam="2">  1       21 0.28195119E-01 0.17475732E+03</pdfrwt>
<totfact> 0.12394460E+05</totfact>
</mgrwt>
</event>
<event>
 4    1  0.3883260E+000  0.2330068E+03  0.7546771E-02  0.1124541E+00
         21   -1    0    0  503  502  0.00000000000E+00  0.00000000000E+00  0.19992370773E+03  0.19992370773E+03  0.00000000000E+00 0.  1.
         21   -1    0    0  501  503 -0.00000000000E+00 -0.00000000000E+00 -0.33135204061E+03  0.33135204061E+03  0.00000000000E+00 0.  1.
          6    1    1    2  501    0 -0.18708410464E+02 -0.15496186648E+03 -0.17855088868E+03  0.29355170674E+03  0.17300000000E+03 0.  1.
         -6    1    1    2    0  502  0.18708410464E+02  0.15496186648E+03  0.47122555799E+02  0.23772404159E+03  0.17300000000E+03 0.  1.
<mgrwt>
<rscale>  2 0.23300683E+03</rscale>
<asrwt>0</asrwt>
<pdfrwt beam="1">  1       21 0.30757494E-01 0.23300683E+03</pdfrwt>
<pdfrwt beam="2">  1       21 0.50977236E-01 0.23300683E+03</pdfrwt>
<totfact> 0.36404833E+04</totfact>
</mgrwt>
</event>
<event>
 4    1  0.3883260E+000  0.1964841E+03  0.7546771E-02  0.1152740E+00
         21   -1    0    0  501  502  0.00000000000E+00  0.00000000000E+00  0.53075508739E+03  0.53075508739E+03  0.00000000000E+00 0. -1.
         21   -1    0    0  502  503 -0.00000000000E+00 -0.00000000000E+00 -0.11303844712E+03  0.11303844712E+03  0.00000000000E+00 0.  1.
          6    1    1    2  501    0 -0.58622281407E+02  0.72390817255E+02  0.40106084030E+03  0.44660474687E+03  0.17300000000E+03 0. -1.
         -6    1    1    2    0  503  0.58622281407E+02 -0.72390817255E+02  0.16655799965E+02  0.19718878764E+03  0.17300000000E+03 0.  1.
<mgrwt>
<rscale>  2 0.19648410E+03</rscale>
<asrwt>0</asrwt>
<pdfrwt beam="1">  1       21 0.81654627E-01 0.19648410E+03</pdfrwt>
<pdfrwt beam="2">  1       21 0.17390531E-01 0.19648410E+03</pdfrwt>
<totfact> 0.39206278E+04</totfact>
</mgrwt>
</event>
<event>
 4    1  0.3883260E+000  0.1803490E+03  0.7546771E-02  0.1167466E+00
         21   -1    0    0  503  502  0.00000000000E+00  0.00000000000E+00  0.15124523911E+03  0.15124523911E+03  0.00000000000E+00 0. -1.
         21   -1    0    0  501  503 -0.00000000000E+00 -0.00000000000E+00 -0.21786954386E+03  0.21786954386E+03  0.00000000000E+00 0. -1.
          6    1    1    2  501    0  0.22819524902E+02 -0.45563338750E+02 -0.54296153750E+02  0.18834495180E+03  0.17300000000E+03 0. -1.
         -6    1    1    2    0  502 -0.22819524902E+02  0.45563338750E+02 -0.12328151004E+02  0.18076983117E+03  0.17300000000E+03 0. -1.
<mgrwt>
<rscale>  2 0.18034896E+03</rscale>
<asrwt>0</asrwt>
<pdfrwt beam="1">  1       21 0.23268498E-01 0.18034896E+03</pdfrwt>
<pdfrwt beam="2">  1       21 0.33518391E-01 0.18034896E+03</pdfrwt>
<totfact> 0.14943696E+05</totfact>
</mgrwt>
</event>
<event>
 4    1  0.3883260E+000  0.2080765E+03  0.7546771E-02  0.1143098E+00
         21   -1    0    0  503  502  0.00000000000E+00  0.00000000000E+00  0.98828799031E+02  0.98828799031E+02  0.00000000000E+00 0. -1.
         21   -1    0    0  501  503 -0.00000000000E+00 -0.00000000000E+00 -0.44330734346E+03  0.44330734346E+03  0.00000000000E+00 0. -1.
          6    1    1    2  501    0  0.10237676049E+03  0.53719967802E+02 -0.14283021087E+03  0.25238126944E+03  0.17300000000E+03 0. -1.
         -6    1    1    2    0  502 -0.10237676049E+03 -0.53719967802E+02 -0.20164833357E+03  0.28975487305E+03  0.17300000000E+03 0. -1.
<mgrwt>
<rscale>  2 0.20807651E+03</rscale>
<asrwt>0</asrwt>
<pdfrwt beam="1">  1       21 0.15204430E-01 0.20807651E+03</pdfrwt>
<pdfrwt beam="2">  1       21 0.68201131E-01 0.20807651E+03</pdfrwt>
<totfact> 0.74582953E+04</totfact>
</mgrwt>
</event>
<event>
 4    1  0.3883260E+000  0.2293667E+03  0.7546771E-02  0.1127086E+00
         21   -1    0    0  501  502  0.00000000000E+00  0.00000000000E+00  0.89534354915E+02  0.89534354915E+02  0.00000000000E+00 0.  1.
         21   -1    0    0  502  503 -0.00000000000E+00 -0.00000000000E+00 -0.60683353828E+03  0.60683353828E+03  0.00000000000E+00 0. -1.
          6    1    1    2  501    0 -0.11557461102E+03  0.96553576983E+02 -0.19663872625E+03  0.30211897094E+03  0.17300000000E+03 0.  1.
         -6    1    1    2    0  503  0.11557461102E+03 -0.96553576983E+02 -0.32066045712E+03  0.39424892226E+03  0.17300000000E+03 0. -1.
<mgrwt>
<rscale>  2 0.22936670E+03</rscale>
<asrwt>0</asrwt>
<pdfrwt beam="1">  1       21 0.13774517E-01 0.22936670E+03</pdfrwt>
<pdfrwt beam="2">  1       21 0.93359002E-01 0.22936670E+03</pdfrwt>
<totfact> 0.43376583E+04</totfact>
</mgrwt>
</event>
<event>
 4    1  0.3883260E+000  0.1794773E+03  0.7546771E-02  0.1168310E+00
         21   -1    0    0  503  502  0.00000000000E+00  0.00000000000E+00  0.16291417220E+03  0.16291417220E+03  0.00000000000E+00 0.  1.
         21   -1    0    0  501  503 -0.00000000000E+00 -0.00000000000E+00 -0.47648107801E+03  0.47648107801E+03  0.00000000000E+00 0.  1.
          6    1    1    2  501    0 -0.19092194337E+02 -0.43801671126E+02 -0.40131182825E+03  0.43961719913E+03  0.17300000000E+03 0.  1.
         -6    1    1    2    0  502  0.19092194337E+02  0.43801671126E+02  0.87744922438E+02  0.19977805108E+03  0.17300000000E+03 0.  1.
<mgrwt>
<rscale>  2 0.17947729E+03</rscale>
<asrwt>0</asrwt>
<pdfrwt beam="1">  1       21 0.25063719E-01 0.17947729E+03</pdfrwt>
<pdfrwt beam="2">  1       21 0.73304780E-01 0.17947729E+03</pdfrwt>
<totfact> 0.25408136E+04</totfact>
</mgrwt>
</event>
<event>
 4    1  0.3883260E+000  0.1878327E+03  0.7546771E-02  0.1160431E+00
         21   -1    0    0  503  502  0.00000000000E+00  0.00000000000E+00  0.56308931677E+02  0.56308931677E+02  0.00000000000E+00 0. -1.
         21   -1    0    0  501  503 -0.00000000000E+00 -0.00000000000E+00 -0.65429978192E+03  0.65429978192E+03  0.00000000000E+00 0. -1.
          6    1    1    2  501    0  0.73130364851E+02 -0.20183003082E+01 -0.37214906179E+03  0.41686454393E+03  0.17300000000E+03 0. -1.
         -6    1    1    2    0  502 -0.73130364851E+02  0.20183003082E+01 -0.22584178846E+03  0.29374416966E+03  0.17300000000E+03 0. -1.
<mgrwt>
<rscale>  2 0.18783270E+03</rscale>
<asrwt>0</asrwt>
<pdfrwt beam="1">  1       21 0.86629130E-02 0.18783270E+03</pdfrwt>
<pdfrwt beam="2">  1       21 0.10066150E+00 0.18783270E+03</pdfrwt>
<totfact> 0.84581441E+04</totfact>
</mgrwt>
</event>
<event>
 4    1  0.3883260E+000  0.2152859E+03  0.7546771E-02  0.1137447E+00
         21   -1    0    0  503  502  0.00000000000E+00  0.00000000000E+00  0.30560636200E+03  0.30560636200E+03  0.00000000000E+00 0. -1.
         21   -1    0    0  501  503 -0.00000000000E+00 -0.00000000000E+00 -0.16094120259E+03  0.16094120259E+03  0.00000000000E+00 0.  1.
          6    1    1    2  501    0 -0.12529378748E+03 -0.26842176459E+02  0.16311473563E+02  0.21590298698E+03  0.17300000000E+03 0.  1.
         -6    1    1    2    0  502  0.12529378748E+03  0.26842176459E+02  0.12835368585E+03  0.25064457762E+03  0.17300000000E+03 0. -1.
<mgrwt>
<rscale>  2 0.21528594E+03</rscale>
<asrwt>0</asrwt>
<pdfrwt beam="1">  1       21 0.47016363E-01 0.21528594E+03</pdfrwt>
<pdfrwt beam="2">  1       21 0.24760185E-01 0.21528594E+03</pdfrwt>
<totfact> 0.66125018E+04</totfact>
</mgrwt>
</event>
<event>
 4    1  0.3883260E+000  0.2022331E+03  0.7546771E-02  0.1147869E+00
         21   -1    0    0  503  502  0.00000000000E+00  0.00000000000E+00  0.61189628853E+02  0.61189628853E+02  0.00000000000E+00 0.  1.
         21   -1    0    0  501  503 -0.00000000000E+00 -0.00000000000E+00 -0.70046920150E+03  0.70046920150E+03  0.00000000000E+00 0.  1.
          6    1    1    2  501    0 -0.10339324467E+03  0.16704694586E+02 -0.23813486791E+03  0.31242027011E+03  0.17300000000E+03 0.  1.
         -6    1    1    2    0  502  0.10339324467E+03 -0.16704694586E+02 -0.40114470474E+03  0.44923856024E+03  0.17300000000E+03 0.  1.
<mgrwt>
<rscale>  2 0.20223306E+03</rscale>
<asrwt>0</asrwt>
<pdfrwt beam="1">  1       21 0.94137887E-02 0.20223306E+03</pdfrwt>
<pdfrwt beam="2">  1       21 0.10776450E+00 0.20223306E+03</pdfrwt>
<totfact> 0.61656520E+04</totfact>
</mgrwt>
</event>
<event>
 4    1  0.3883260E+000  0.1878612E+03  0.7546771E-02  0.1160405E+00
         21   -1    0    0  501  502  0.00000000000E+00  0.00000000000E+00  0.25858220462E+03  0.25858220462E+03  0.00000000000E+00 0.  1.
         21   -1    0    0  502  503 -0.00000000000E+00 -0.00000000000E+00 -0.18228791156E+03  0.18228791156E+03  0.00000000000E+00 0.  1.
          6    1    1    2  501    0 -0.64849029059E+02  0.34021132667E+02  0.14864712008E+03  0.23955750948E+03  0.17300000000E+03 0.  1.
         -6    1    1    2    0  503  0.64849029059E+02 -0.34021132667E+02 -0.72352827024E+02  0.20131260670E+03  0.17300000000E+03 0.  1.
<mgrwt>
<rscale>  2 0.18786121E+03</rscale>
<asrwt>0</asrwt>
<pdfrwt beam="1">  1       21 0.39781878E-01 0.18786121E+03</pdfrwt>
<pdfrwt beam="2">  1       21 0.28044294E-01 0.18786121E+03</pdfrwt>
<totfact> 0.74123861E+04</totfact>
</mgrwt>
</event>
<event>
 4    1  0.3883260E+000  0.2284353E+03  0.7546771E-02  0.1127746E+00
         21   -1    0    0  503  502  0.00000000000E+00  0.00000000000E+00  0.27724571578E+02  0.27724571578E+02  0.00000000000E+00 0. -1.
         21   -1    0    0  501  503 -0.00000000000E+00 -0.00000000000E+00 -0.19169161516E+04  0.19169161516E+04  0.00000000000E+00 0.  1.
          6    1    1    2  501    0 -0.69026467127E+02  0.13224608712E+03 -0.10754802748E+04  0.10994728293E+04  0.17300000000E+03 0.  1.
         -6    1    1    2    0  502  0.69026467127E+02 -0.13224608712E+03 -0.81371130523E+03  0.84516789396E+03  0.17300000000E+03 0. -1.
<mgrwt>
<rscale>  2 0.22843529E+03</rscale>
<asrwt>0</asrwt>
<pdfrwt beam="1">  1       21 0.42653172E-02 0.22843529E+03</pdfrwt>
<pdfrwt beam="2">  1       21 0.29491028E+00 0.22843529E+03</pdfrwt>
<totfact> 0.12407102E+04</totfact>
</mgrwt>
</event>
<event>
 4    1  0.3883260E+000  0.2204654E+03  0.7546771E-02  0.1133537E+00
         21   -1    0    0  503  502  0.00000000000E+00  0.00000000000E+00  0.10381185261E+03  0.10381185261E+03  0.00000000000E+00 0.  1.
         21   -1    0    0  501  503 -0.00000000000E+00 -0.00000000000E+00 -0.91748043749E+03  0.91748043749E+03  0.00000000000E+00 0.  1.
          6    1    1    2  501    0  0.98594095514E+02  0.94631994358E+02 -0.76417213089E+03  0.79533895645E+03  0.17300000000E+03 0.  1.
         -6    1    1    2    0  502 -0.98594095514E+02 -0.94631994358E+02 -0.49496453994E+02  0.22595333364E+03  0.17300000000E+03 0.  1.
<mgrwt>
<rscale>  2 0.22046544E+03</rscale>
<asrwt>0</asrwt>
<pdfrwt beam="1">  1       21 0.15971055E-01 0.22046544E+03</pdfrwt>
<pdfrwt beam="2">  1       21 0.14115083E+00 0.22046544E+03</pdfrwt>
<totfact> 0.12020150E+04</totfact>
</mgrwt>
</event>
<event>
 4    1  0.3883260E+000  0.1846234E+03  0.7546771E-02  0.1163402E+00
         21   -1    0    0  503  502  0.00000000000E+00  0.00000000000E+00  0.20626729216E+02  0.20626729216E+02  0.00000000000E+00 0. -1.
         21   -1    0    0  501  503 -0.00000000000E+00 -0.00000000000E+00 -0.17376405903E+04  0.17376405903E+04  0.00000000000E+00 0. -1.
          6    1    1    2  501    0  0.51381399478E+02  0.38945526397E+02 -0.10530997956E+04  0.10691608774E+04  0.17300000000E+03 0. -1.
         -6    1    1    2    0  502 -0.51381399478E+02 -0.38945526397E+02 -0.66391406546E+03  0.68910644211E+03  0.17300000000E+03 0. -1.
<mgrwt>
<rscale>  2 0.18462341E+03</rscale>
<asrwt>0</asrwt>
<pdfrwt beam="1">  1       21 0.31733425E-02 0.18462341E+03</pdfrwt>
<pdfrwt beam="2">  1       21 0.26732936E+00 0.18462341E+03</pdfrwt>
<totfact> 0.30585509E+04</totfact>
</mgrwt>
</event>
<event>
 4    1  0.3883260E+000  0.2013738E+03  0.7546771E-02  0.1148585E+00
         21   -1    0    0  503  502  0.00000000000E+00  0.00000000000E+00  0.17045180925E+03  0.17045180925E+03  0.00000000000E+00 0. -1.
         21   -1    0    0  501  503 -0.00000000000E+00 -0.00000000000E+00 -0.26803199070E+03  0.26803199070E+03  0.00000000000E+00 0. -1.
          6    1    1    2  501    0 -0.10114722239E+03 -0.19789844219E+02 -0.12229317189E+03  0.23559927509E+03  0.17300000000E+03 0.  1.
         -6    1    1    2    0  502  0.10114722239E+03  0.19789844219E+02  0.24712990444E+02  0.20288452486E+03  0.17300000000E+03 0.  1.
<mgrwt>
<rscale>  2 0.20137378E+03</rscale>
<asrwt>0</asrwt>
<pdfrwt beam="1">  1       21 0.26223355E-01 0.20137378E+03</pdfrwt>
<pdfrwt beam="2">  1       21 0.41235691E-01 0.20137378E+03</pdfrwt>
<totfact> 0.77994506E+04</totfact>
</mgrwt>
</event>
<event>
 4    1  0.3883260E+000  0.2301278E+03  0.7546771E-02  0.1126550E+00
         21   -1    0    0  503  502  0.00000000000E+00  0.00000000000E+00  0.93825698650E+03  0.93825698650E+03  0.00000000000E+00 0. -1.
         21   -1    0    0  501  503 -0.00000000000E+00 -0.00000000000E+00 -0.11913023759E+03  0.11913023759E+03  0.00000000000E+00 0. -1.
          6    1    1    2  501    0  0.15110792249E+03 -0.14007679319E+02  0.26050679258E+02  0.23159761918E+03  0.17300000000E+03 0. -1.
         -6    1    1    2    0  502 -0.15110792249E+03  0.14007679319E+02  0.79307606966E+03  0.82578960491E+03  0.17300000000E+03 0. -1.
<mgrwt>
<rscale>  2 0.23012783E+03</rscale>
<asrwt>0</asrwt>
<pdfrwt beam="1">  1       21 0.14434722E+00 0.23012783E+03</pdfrwt>
<pdfrwt beam="2">  1       21 0.18327730E-01 0.23012783E+03</pdfrwt>
<totfact> 0.87348880E+03</totfact>
</mgrwt>
</event>
<event>
 4    1  0.3883260E+000  0.2282165E+03  0.7546771E-02  0.1127901E+00
         21   -1    0    0  501  502  0.00000000000E+00  0.00000000000E+00  0.41703511836E+03  0.41703511836E+03  0.00000000000E+00 0.  1.
         21   -1    0    0  502  503 -0.00000000000E+00 -0.00000000000E+00 -0.13699277454E+03  0.13699277454E+03  0.00000000000E+00 0.  1.
          6    1    1    2  501    0 -0.14113974085E+03 -0.47258185695E+02  0.22236436135E+03  0.31863564107E+03  0.17300000000E+03 0.  1.
         -6    1    1    2    0  503  0.14113974085E+03  0.47258185695E+02  0.57677982477E+02  0.23539225184E+03  0.17300000000E+03 0.  1.
<mgrwt>
<rscale>  2 0.22821648E+03</rscale>
<asrwt>0</asrwt>
<pdfrwt beam="1">  1       21 0.64159249E-01 0.22821648E+03</pdfrwt>
<pdfrwt beam="2">  1       21 0.21075812E-01 0.22821648E+03</pdfrwt>
<totfact> 0.46124214E+04</totfact>
</mgrwt>
</event>
<event>
 4    1  0.3883260E+000  0.1819865E+03  0.7546771E-02  0.1165894E+00
         21   -1    0    0  503  502  0.00000000000E+00  0.00000000000E+00  0.86554892305E+03  0.86554892305E+03  0.00000000000E+00 0.  1.
         21   -1    0    0  501  503 -0.00000000000E+00 -0.00000000000E+00 -0.45815525070E+02  0.45815525070E+02  0.00000000000E+00 0.  1.
          6    1    1    2  501    0 -0.39268261677E+02  0.40596720376E+02  0.22486224371E+03  0.28927861782E+03  0.17300000000E+03 0.  1.
         -6    1    1    2    0  502  0.39268261677E+02 -0.40596720376E+02  0.59487115427E+03  0.62208583030E+03  0.17300000000E+03 0.  1.
<mgrwt>
<rscale>  2 0.18198651E+03</rscale>
<asrwt>0</asrwt>
<pdfrwt beam="1">  1       21 0.13316136E+00 0.18198651E+03</pdfrwt>
<pdfrwt beam="2">  1       21 0.70485430E-02 0.18198651E+03</pdfrwt>
<totfact> 0.61130670E+04</totfact>
</mgrwt>
</event>
<event>
 4    1  0.3883260E+000  0.1780222E+03  0.7546771E-02  0.1169731E+00
         21   -1    0    0  501  502  0.00000000000E+00  0.00000000000E+00  0.15393074653E+03  0.15393074653E+03  0.00000000000E+00 0. -1.
         21   -1    0    0  502  503 -0.00000000000E+00 -0.00000000000E+00 -0.26913960983E+03  0.26913960983E+03  0.00000000000E+00 0. -1.
          6    1    1    2  501    0 -0.35111852460E+02  0.23023209855E+02  0.44947203357E+02  0.18360871838E+03  0.17300000000E+03 0. -1.
         -6    1    1    2    0  503  0.35111852460E+02 -0.23023209855E+02 -0.16015606666E+03  0.23946163798E+03  0.17300000000E+03 0. -1.
<mgrwt>
<rscale>  2 0.17802222E+03</rscale>
<asrwt>0</asrwt>
<pdfrwt beam="1">  1       21 0.23681653E-01 0.17802222E+03</pdfrwt>
<pdfrwt beam="2">  1       21 0.41406094E-01 0.17802222E+03</pdfrwt>
<totfact> 0.94846295E+04</totfact>
</mgrwt>
</event>
<event>
 4    1  0.3883260E+000  0.2083635E+03  0.7546771E-02  0.1142869E+00
         21   -1    0    0  503  502  0.00000000000E+00  0.00000000000E+00  0.62223712816E+03  0.62223712816E+03  0.00000000000E+00 0.  1.
         21   -1    0    0  501  503 -0.00000000000E+00 -0.00000000000E+00 -0.71660886744E+02  0.71660886744E+02  0.00000000000E+00 0. -1.
          6    1    1    2  501    0 -0.11298723718E+03 -0.26836867035E+02  0.21897418949E+03  0.30226648650E+03  0.17300000000E+03 0. -1.
         -6    1    1    2    0  502  0.11298723718E+03  0.26836867035E+02  0.33160205193E+03  0.39163152841E+03  0.17300000000E+03 0.  1.
<mgrwt>
<rscale>  2 0.20836346E+03</rscale>
<asrwt>0</asrwt>
<pdfrwt beam="1">  1       21 0.95728785E-01 0.20836346E+03</pdfrwt>
<pdfrwt beam="2">  1       21 0.11024752E-01 0.20836346E+03</pdfrwt>
<totfact> 0.61641371E+04</totfact>
</mgrwt>
</event>
<event>
 4    1  0.3883260E+000  0.7668403E+03  0.7546771E-02  0.9609295E-01
         21   -1    0    0  503  502  0.00000000000E+00  0.00000000000E+00  0.76953838747E+03  0.76953838747E+03  0.00000000000E+00 0. -1.
         21   -1    0    0  501  503 -0.00000000000E+00 -0.00000000000E+00 -0.10098820349E+04  0.10098820349E+04  0.00000000000E+00 0.  1.
          6    1    1    2  501    0  0.31232147556E+03 -0.67865331721E+03 -0.55904868222E+03  0.94898865017E+03  0.17300000000E+03 0.  1.
         -6    1    1    2    0  502 -0.31232147556E+03  0.67865331721E+03  0.31870503480E+03  0.83043177219E+03  0.17300000000E+03 0. -1.
<mgrwt>
<rscale>  2 0.76684029E+03</rscale>
<asrwt>0</asrwt>
<pdfrwt beam="1">  1       21 0.11839052E+00 0.76684029E+03</pdfrwt>
<pdfrwt beam="2">  1       21 0.15536647E+00 0.76684029E+03</pdfrwt>
<totfact> 0.10536801E+02</totfact>
</mgrwt>
</event>
<event>
 4    1  0.3883260E+000  0.2926472E+03  0.7546771E-02  0.1088975E+00
         21   -1    0    0  501  502  0.00000000000E+00  0.00000000000E+00  0.75400837742E+03  0.75400837742E+03  0.00000000000E+00 0.  1.
         21   -1    0    0  502  503 -0.00000000000E+00 -0.00000000000E+00 -0.21646454242E+03  0.21646454242E+03  0.00000000000E+00 0. -1.
          6    1    1    2  501    0  0.23535488791E+03  0.17928687615E+02  0.60329744007E+03  0.67052976242E+03  0.17300000000E+03 0.  1.
         -6    1    1    2    0  503 -0.23535488791E+03 -0.17928687615E+02 -0.65753605065E+02  0.29994315742E+03  0.17300000000E+03 0. -1.
<mgrwt>
<rscale>  2 0.29264716E+03</rscale>
<asrwt>0</asrwt>
<pdfrwt beam="1">  1       21 0.11600129E+00 0.29264716E+03</pdfrwt>
<pdfrwt beam="2">  1       21 0.33302238E-01 0.29264716E+03</pdfrwt>
<totfact> 0.46612777E+03</totfact>
</mgrwt>
</event>
<event>
 4    1  0.3883260E+000  0.2045135E+03  0.7546771E-02  0.1145986E+00
         21   -1    0    0  501  502  0.00000000000E+00  0.00000000000E+00  0.48956606203E+03  0.48956606203E+03  0.00000000000E+00 0.  1.
         21   -1    0    0  502  503 -0.00000000000E+00 -0.00000000000E+00 -0.11927108920E+03  0.11927108920E+03  0.00000000000E+00 0.  1.
          6    1    1    2  501    0  0.88122003041E+02  0.64275184141E+02  0.34729019974E+03  0.40303383177E+03  0.17300000000E+03 0.  1.
         -6    1    1    2    0  503 -0.88122003041E+02 -0.64275184141E+02  0.23004773091E+02  0.20580331946E+03  0.17300000000E+03 0.  1.
<mgrwt>
<rscale>  2 0.20451354E+03</rscale>
<asrwt>0</asrwt>
<pdfrwt beam="1">  1       21 0.75317854E-01 0.20451354E+03</pdfrwt>
<pdfrwt beam="2">  1       21 0.18349399E-01 0.20451354E+03</pdfrwt>
<totfact> 0.42412657E+04</totfact>
</mgrwt>
</event>
<event>
 4    1  0.3883260E+000  0.1913142E+03  0.7546771E-02  0.1157281E+00
         21   -1    0    0  501  502  0.00000000000E+00  0.00000000000E+00  0.51884328512E+03  0.51884328512E+03  0.00000000000E+00 0.  1.
         21   -1    0    0  502  503 -0.00000000000E+00 -0.00000000000E+00 -0.12740728187E+03  0.12740728187E+03  0.00000000000E+00 0.  1.
          6    1    1    2  501    0  0.17485194170E+02 -0.79789550538E+02  0.41158739675E+03  0.45387805582E+03  0.17300000000E+03 0.  1.
         -6    1    1    2    0  503 -0.17485194170E+02  0.79789550538E+02 -0.20151393504E+02  0.19237251116E+03  0.17300000000E+03 0.  1.
<mgrwt>
<rscale>  2 0.19131415E+03</rscale>
<asrwt>0</asrwt>
<pdfrwt beam="1">  1       21 0.79822042E-01 0.19131415E+03</pdfrwt>
<pdfrwt beam="2">  1       21 0.19601121E-01 0.19131415E+03</pdfrwt>
<totfact> 0.33154978E+04</totfact>
</mgrwt>
</event>
<event>
 4    1  0.3883260E+000  0.2036182E+03  0.7546771E-02  0.1146722E+00
         21   -1    0    0  501  502  0.00000000000E+00  0.00000000000E+00  0.24706234123E+03  0.24706234123E+03  0.00000000000E+00 0. -1.
         21   -1    0    0  502  503 -0.00000000000E+00 -0.00000000000E+00 -0.17739845698E+03  0.17739845698E+03  0.00000000000E+00 0. -1.
          6    1    1    2  501    0 -0.12243981237E+02 -0.10668393165E+03  0.84164039049E+02  0.22032694301E+03  0.17300000000E+03 0. -1.
         -6    1    1    2    0  503  0.12243981237E+02  0.10668393165E+03 -0.14500154793E+02  0.20413385520E+03  0.17300000000E+03 0. -1.
<mgrwt>
<rscale>  2 0.20361821E+03</rscale>
<asrwt>0</asrwt>
<pdfrwt beam="1">  1       21 0.38009591E-01 0.20361821E+03</pdfrwt>
<pdfrwt beam="2">  1       21 0.27292070E-01 0.20361821E+03</pdfrwt>
<totfact> 0.85055917E+04</totfact>
</mgrwt>
</event>
<event>
 4    1  0.3883260E+000  0.2369259E+03  0.7546771E-02  0.1121858E+00
         21   -1    0    0  503  502  0.00000000000E+00  0.00000000000E+00  0.97166256318E+02  0.97166256318E+02  0.00000000000E+00 0. -1.
         21   -1    0    0  501  503 -0.00000000000E+00 -0.00000000000E+00 -0.59263095760E+03  0.59263095760E+03  0.00000000000E+00 0. -1.
          6    1    1    2  501    0 -0.15031251731E+03 -0.60091803613E+02 -0.30245960301E+03  0.38420787235E+03  0.17300000000E+03 0. -1.
         -6    1    1    2    0  502  0.15031251731E+03  0.60091803613E+02 -0.19300509828E+03  0.30558934157E+03  0.17300000000E+03 0. -1.
<mgrwt>
<rscale>  2 0.23692589E+03</rscale>
<asrwt>0</asrwt>
<pdfrwt beam="1">  1       21 0.14948655E-01 0.23692589E+03</pdfrwt>
<pdfrwt beam="2">  1       21 0.91173993E-01 0.23692589E+03</pdfrwt>
<totfact> 0.39360784E+04</totfact>
</mgrwt>
</event>
<event>
 4    1  0.3883260E+000  0.2093056E+03  0.7546771E-02  0.1142117E+00
         21   -1    0    0  503  502  0.00000000000E+00  0.00000000000E+00  0.68014984554E+03  0.68014984554E+03  0.00000000000E+00 0.  1.
         21   -1    0    0  501  503 -0.00000000000E+00 -0.00000000000E+00 -0.67693803861E+02  0.67693803861E+02  0.00000000000E+00 0. -1.
          6    1    1    2  501    0  0.11766206840E+03  0.59546358265E+01  0.22387886873E+03  0.30648094213E+03  0.17300000000E+03 0.  1.
         -6    1    1    2    0  502 -0.11766206840E+03 -0.59546358265E+01  0.38857717295E+03  0.44136270727E+03  0.17300000000E+03 0. -1.
<mgrwt>
<rscale>  2 0.20930557E+03</rscale>
<asrwt>0</asrwt>
<pdfrwt beam="1">  1       21 0.10463843E+00 0.20930557E+03</pdfrwt>
<pdfrwt beam="2">  1       21 0.10414432E-01 0.20930557E+03</pdfrwt>
<totfact> 0.55172227E+04</totfact>
</mgrwt>
</event>
<event>
 4    1  0.3883260E+000  0.2392337E+03  0.7546771E-02  0.1120304E+00
         21   -1    0    0  501  502  0.00000000000E+00  0.00000000000E+00  0.83482808436E+02  0.83482808436E+02  0.00000000000E+00 0. -1.
         21   -1    0    0  502  503 -0.00000000000E+00 -0.00000000000E+00 -0.82915544389E+03  0.82915544389E+03  0.00000000000E+00 0.  1.
          6    1    1    2  501    0  0.16432694654E+03  0.17332326675E+02 -0.18294026450E+03  0.30116423307E+03  0.17300000000E+03 0. -1.
         -6    1    1    2    0  503 -0.16432694654E+03 -0.17332326675E+02 -0.56273237095E+03  0.61147401925E+03  0.17300000000E+03 0.  1.
<mgrwt>
<rscale>  2 0.23923368E+03</rscale>
<asrwt>0</asrwt>
<pdfrwt beam="1">  1       21 0.12843509E-01 0.23923368E+03</pdfrwt>
<pdfrwt beam="2">  1       21 0.12756238E+00 0.23923368E+03</pdfrwt>
<totfact> 0.22917825E+04</totfact>
</mgrwt>
</event>
<event>
 4    1  0.3883260E+000  0.2012371E+03  0.7546771E-02  0.1148699E+00
         21   -1    0    0  503  502  0.00000000000E+00  0.00000000000E+00  0.16079256652E+03  0.16079256652E+03  0.00000000000E+00 0. -1.
         21   -1    0    0  501  503 -0.00000000000E+00 -0.00000000000E+00 -0.25193325206E+03  0.25193325206E+03  0.00000000000E+00 0. -1.
          6    1    1    2  501    0 -0.78160186123E+02  0.66770974600E+02 -0.41928472985E+02  0.20555868892E+03  0.17300000000E+03 0. -1.
         -6    1    1    2    0  502  0.78160186123E+02 -0.66770974600E+02 -0.49212212556E+02  0.20716712965E+03  0.17300000000E+03 0. -1.
<mgrwt>
<rscale>  2 0.20123712E+03</rscale>
<asrwt>0</asrwt>
<pdfrwt beam="1">  1       21 0.24737318E-01 0.20123712E+03</pdfrwt>
<pdfrwt beam="2">  1       21 0.38758962E-01 0.20123712E+03</pdfrwt>
<totfact> 0.98856232E+04</totfact>
</mgrwt>
</event>
<event>
 4    1  0.3883260E+000  0.2003315E+03  0.7546771E-02  0.1149460E+00
         21   -1    0    0  503  502  0.00000000000E+00  0.00000000000E+00  0.55272372577E+02  0.55272372577E+02  0.00000000000E+00 0.  1.
         21   -1    0    0  501  503 -0.00000000000E+00 -0.00000000000E+00 -0.10260988133E+04  0.10260988133E+04  0.00000000000E+00 0.  1.
          6    1    1    2  501    0 -0.50929030510E+02  0.87235102134E+02 -0.77777261351E+03  0.80315812112E+03  0.17300000000E+03 0.  1.
         -6    1    1    2    0  502  0.50929030510E+02 -0.87235102134E+02 -0.19305382717E+03  0.27821306472E+03  0.17300000000E+03 0.  1.
<mgrwt>
<rscale>  2 0.20033155E+03</rscale>
<asrwt>0</asrwt>
<pdfrwt beam="1">  1       21 0.85034424E-02 0.20033155E+03</pdfrwt>
<pdfrwt beam="2">  1       21 0.15786135E+00 0.20033155E+03</pdfrwt>
<totfact> 0.28016098E+04</totfact>
</mgrwt>
</event>
<event>
 4    1  0.3883260E+000  0.1866012E+03  0.7546771E-02  0.1161563E+00
         21   -1    0    0  503  502  0.00000000000E+00  0.00000000000E+00  0.10564782931E+04  0.10564782931E+04  0.00000000000E+00 0.  1.
         21   -1    0    0  501  503 -0.00000000000E+00 -0.00000000000E+00 -0.35853870574E+02  0.35853870574E+02  0.00000000000E+00 0.  1.
          6    1    1    2  501    0 -0.69604010344E+02  0.68026397649E+01  0.35510749177E+03  0.40115000296E+03  0.17300000000E+03 0.  1.
         -6    1    1    2    0  502  0.69604010344E+02 -0.68026397649E+01  0.66551693073E+03  0.69118216069E+03  0.17300000000E+03 0.  1.
<mgrwt>
<rscale>  2 0.18660116E+03</rscale>
<asrwt>0</asrwt>
<pdfrwt beam="1">  1       21 0.16253510E+00 0.18660116E+03</pdfrwt>
<pdfrwt beam="2">  1       21 0.55159809E-02 0.18660116E+03</pdfrwt>
<totfact> 0.55098999E+04</totfact>
</mgrwt>
</event>
<event>
 4    1  0.3883260E+000  0.2448209E+03  0.7546771E-02  0.1116622E+00
         21   -1    0    0  501  502  0.00000000000E+00  0.00000000000E+00  0.13734481693E+03  0.13734481693E+03  0.00000000000E+00 0.  1.
         21   -1    0    0  502  503 -0.00000000000E+00 -0.00000000000E+00 -0.61838480231E+03  0.61838480231E+03  0.00000000000E+00 0. -1.
          6    1    1    2  501    0 -0.40876571384E+02 -0.16833712495E+03 -0.35533816825E+02  0.24738620387E+03  0.17300000000E+03 0.  1.
         -6    1    1    2    0  503  0.40876571384E+02  0.16833712495E+03 -0.44550616856E+03  0.50834341537E+03  0.17300000000E+03 0. -1.
<mgrwt>
<rscale>  2 0.24482092E+03</rscale>
<asrwt>0</asrwt>
<pdfrwt beam="1">  1       21 0.21129972E-01 0.24482092E+03</pdfrwt>
<pdfrwt beam="2">  1       21 0.95136122E-01 0.24482092E+03</pdfrwt>
<totfact> 0.18659177E+04</totfact>
</mgrwt>
</event>
<event>
 4    1  0.3883260E+000  0.1941105E+03  0.7546771E-02  0.1154805E+00
         21   -1    0    0  501  502  0.00000000000E+00  0.00000000000E+00  0.52112937247E+03  0.52112937247E+03  0.00000000000E+00 0. -1.
         21   -1    0    0  502  503 -0.00000000000E+00 -0.00000000000E+00 -0.12129560739E+03  0.12129560739E+03  0.00000000000E+00 0.  1.
          6    1    1    2  501    0 -0.87704141863E+02  0.76068016800E+01  0.40406154560E+03  0.44826846037E+03  0.17300000000E+03 0. -1.
         -6    1    1    2    0  503  0.87704141863E+02 -0.76068016800E+01 -0.42277805152E+01  0.19415651949E+03  0.17300000000E+03 0.  1.
<mgrwt>
<rscale>  2 0.19411048E+03</rscale>
<asrwt>0</asrwt>
<pdfrwt beam="1">  1       21 0.80173749E-01 0.19411048E+03</pdfrwt>
<pdfrwt beam="2">  1       21 0.18660863E-01 0.19411048E+03</pdfrwt>
<totfact> 0.35916969E+04</totfact>
</mgrwt>
</event>
<event>
 4    1  0.3883260E+000  0.2738953E+03  0.7546771E-02  0.1099071E+00
         21   -1    0    0  503  502  0.00000000000E+00  0.00000000000E+00  0.27398548916E+03  0.27398548916E+03  0.00000000000E+00 0.  1.
         21   -1    0    0  501  503 -0.00000000000E+00 -0.00000000000E+00 -0.36844603014E+03  0.36844603014E+03  0.00000000000E+00 0.  1.
          6    1    1    2  501    0 -0.59143795619E+02  0.20394028587E+03 -0.21002838332E+03  0.34515293793E+03  0.17300000000E+03 0.  1.
         -6    1    1    2    0  502  0.59143795619E+02 -0.20394028587E+03  0.11556784234E+03  0.29727858138E+03  0.17300000000E+03 0.  1.
<mgrwt>
<rscale>  2 0.27389529E+03</rscale>
<asrwt>0</asrwt>
<pdfrwt beam="1">  1       21 0.42151614E-01 0.27389529E+03</pdfrwt>
<pdfrwt beam="2">  1       21 0.56684005E-01 0.27389529E+03</pdfrwt>
<totfact> 0.15157736E+04</totfact>
</mgrwt>
</event>
<event>
 4    1  0.3883260E+000  0.1803968E+03  0.7546771E-02  0.1167420E+00
         21   -1    0    0  503  502  0.00000000000E+00  0.00000000000E+00  0.13924205119E+03  0.13924205119E+03  0.00000000000E+00 0.  1.
         21   -1    0    0  501  503 -0.00000000000E+00 -0.00000000000E+00 -0.54541045203E+03  0.54541045203E+03  0.00000000000E+00 0.  1.
          6    1    1    2  501    0  0.37318216632E+02  0.34948081968E+02 -0.46187176316E+03  0.49585133188E+03  0.17300000000E+03 0.  1.
         -6    1    1    2    0  502 -0.37318216632E+02 -0.34948081968E+02  0.55703362319E+02  0.18880117134E+03  0.17300000000E+03 0.  1.
<mgrwt>
<rscale>  2 0.18039683E+03</rscale>
<asrwt>0</asrwt>
<pdfrwt beam="1">  1       21 0.21421854E-01 0.18039683E+03</pdfrwt>
<pdfrwt beam="2">  1       21 0.83909299E-01 0.18039683E+03</pdfrwt>
<totfact> 0.25224972E+04</totfact>
</mgrwt>
</event>
<event>
 4    1  0.3883260E+000  0.1985420E+03  0.7546771E-02  0.1150975E+00
         21   -1    0    0  501  502  0.00000000000E+00  0.00000000000E+00  0.20839843410E+04  0.20839843410E+04  0.00000000000E+00 0.  1.
         21   -1    0    0  502  503 -0.00000000000E+00 -0.00000000000E+00 -0.13123378154E+03  0.13123378154E+03  0.00000000000E+00 0.  1.
          6    1    1    2  501    0 -0.39172532213E+02  0.89193161143E+02  0.20010583277E+04  0.20108837207E+04  0.17300000000E+03 0.  1.
         -6    1    1    2    0  503  0.39172532213E+02 -0.89193161143E+02 -0.48307768305E+02  0.20433440179E+03  0.17300000000E+03 0.  1.
<mgrwt>
<rscale>  2 0.19854195E+03</rscale>
<asrwt>0</asrwt>
<pdfrwt beam="1">  1       21 0.32061295E+00 0.19854195E+03</pdfrwt>
<pdfrwt beam="2">  1       21 0.20189814E-01 0.19854195E+03</pdfrwt>
<totfact> 0.58376610E+02</totfact>
</mgrwt>
</event>
<event>
 4    1  0.3883260E+000  0.1847753E+03  0.7546771E-02  0.1163260E+00
         21   -1    0    0  503  502  0.00000000000E+00  0.00000000000E+00  0.11228325701E+03  0.11228325701E+03  0.00000000000E+00 0.  1.
         21   -1    0    0  501  503 -0.00000000000E+00 -0.00000000000E+00 -0.31899271029E+03  0.31899271029E+03  0.00000000000E+00 0.  1.
          6    1    1    2  501    0  0.37511706953E+02 -0.52969799612E+02 -0.14999533394E+03  0.23799270584E+03  0.17300000000E+03 0.  1.
         -6    1    1    2    0  502 -0.37511706953E+02  0.52969799612E+02 -0.56714119336E+02  0.19328326146E+03  0.17300000000E+03 0.  1.
<mgrwt>
<rscale>  2 0.18477534E+03</rscale>
<asrwt>0</asrwt>
<pdfrwt beam="1">  1       21 0.17274348E-01 0.18477534E+03</pdfrwt>
<pdfrwt beam="2">  1       21 0.49075801E-01 0.18477534E+03</pdfrwt>
<totfact> 0.12032732E+05</totfact>
</mgrwt>
</event>
<event>
 4    1  0.3883260E+000  0.1779428E+03  0.7546771E-02  0.1169809E+00
         21   -1    0    0  501  502  0.00000000000E+00  0.00000000000E+00  0.45250710274E+03  0.45250710274E+03  0.00000000000E+00 0. -1.
         21   -1    0    0  502  503 -0.00000000000E+00 -0.00000000000E+00 -0.98816487856E+02  0.98816487856E+02  0.00000000000E+00 0. -1.
          6    1    1    2  501    0  0.13644519774E+02  0.39350613989E+02  0.32577445407E+03  0.37120430852E+03  0.17300000000E+03 0. -1.
         -6    1    1    2    0  503 -0.13644519774E+02 -0.39350613989E+02  0.27916160818E+02  0.18011928208E+03  0.17300000000E+03 0. -1.
<mgrwt>
<rscale>  2 0.17794281E+03</rscale>
<asrwt>0</asrwt>
<pdfrwt beam="1">  1       21 0.69616476E-01 0.17794281E+03</pdfrwt>
<pdfrwt beam="2">  1       21 0.15202537E-01 0.17794281E+03</pdfrwt>
<totfact> 0.72253365E+04</totfact>
</mgrwt>
</event>
<event>
 4    1  0.3883260E+000  0.1780421E+03  0.7546771E-02  0.1169711E+00
         21   -1    0    0  503  502  0.00000000000E+00  0.00000000000E+00  0.56181449183E+03  0.56181449183E+03  0.00000000000E+00 0. -1.
         21   -1    0    0  501  503 -0.00000000000E+00 -0.00000000000E+00 -0.16331371893E+03  0.16331371893E+03  0.00000000000E+00 0.  1.
          6    1    1    2  501    0  0.32728627012E+02 -0.26435564718E+02 -0.94071452940E+02  0.20136643307E+03  0.17300000000E+03 0.  1.
         -6    1    1    2    0  502 -0.32728627012E+02  0.26435564718E+02  0.49257222584E+03  0.52376177770E+03  0.17300000000E+03 0. -1.
<mgrwt>
<rscale>  2 0.17804214E+03</rscale>
<asrwt>0</asrwt>
<pdfrwt beam="1">  1       21 0.86432998E-01 0.17804214E+03</pdfrwt>
<pdfrwt beam="2">  1       21 0.25125188E-01 0.17804214E+03</pdfrwt>
<totfact> 0.17461697E+04</totfact>
</mgrwt>
</event>
<event>
 4    1  0.3883260E+000  0.2150248E+03  0.7546771E-02  0.1137648E+00
         21   -1    0    0  503  502  0.00000000000E+00  0.00000000000E+00  0.67357538620E+03  0.67357538620E+03  0.00000000000E+00 0.  1.
         21   -1    0    0  501  503 -0.00000000000E+00 -0.00000000000E+00 -0.68653610350E+02  0.68653610350E+02  0.00000000000E+00 0. -1.
          6    1    1    2  501    0  0.99187712465E+02  0.80426622556E+02  0.29766020863E+03  0.36720191138E+03  0.17300000000E+03 0.  1.
         -6    1    1    2    0  502 -0.99187712465E+02 -0.80426622556E+02  0.30726156721E+03  0.37502708516E+03  0.17300000000E+03 0.  1.
<mgrwt>
<rscale>  2 0.21502475E+03</rscale>
<asrwt>0</asrwt>
<pdfrwt beam="1">  1       21 0.10362698E+00 0.21502475E+03</pdfrwt>
<pdfrwt beam="2">  1       21 0.10562094E-01 0.21502475E+03</pdfrwt>
<totfact> 0.54929529E+04</totfact>
</mgrwt>
</event>
<event>
 4    1  0.3883260E+000  0.3403490E+03  0.7546771E-02  0.1066647E+00
         21   -1    0    0  501  502  0.00000000000E+00  0.00000000000E+00  0.81415405093E+03  0.81415405093E+03  0.00000000000E+00 0.  1.
         21   -1    0    0  502  503 -0.00000000000E+00 -0.00000000000E+00 -0.16356470048E+03  0.16356470048E+03  0.00000000000E+00 0. -1.
          6    1    1    2  501    0  0.17390751506E+03 -0.23593344880E+03  0.50164579467E+03  0.60620616903E+03  0.17300000000E+03 0.  1.
         -6    1    1    2    0  503 -0.17390751506E+03  0.23593344880E+03  0.14894355579E+03  0.37151258238E+03  0.17300000000E+03 0. -1.
<mgrwt>
<rscale>  2 0.34034896E+03</rscale>
<asrwt>0</asrwt>
<pdfrwt beam="1">  1       21 0.12525447E+00 0.34034896E+03</pdfrwt>
<pdfrwt beam="2">  1       21 0.25163800E-01 0.34034896E+03</pdfrwt>
<totfact> 0.65070994E+03</totfact>
</mgrwt>
</event>
<event>
 4    1  0.3883260E+000  0.1867065E+03  0.7546771E-02  0.1161466E+00
         21   -1    0    0  501  502  0.00000000000E+00  0.00000000000E+00  0.74731728787E+02  0.74731728787E+02  0.00000000000E+00 0.  1.
         21   -1    0    0  502  503 -0.00000000000E+00 -0.00000000000E+00 -0.50320415761E+03  0.50320415761E+03  0.00000000000E+00 0. -1.
          6    1    1    2  501    0 -0.61530286486E+02  0.33828366162E+02 -0.13615008533E+03  0.23107613517E+03  0.17300000000E+03 0.  1.
         -6    1    1    2    0  503  0.61530286486E+02 -0.33828366162E+02 -0.29232234350E+03  0.34685975123E+03  0.17300000000E+03 0. -1.
<mgrwt>
<rscale>  2 0.18670655E+03</rscale>
<asrwt>0</asrwt>
<pdfrwt beam="1">  1       21 0.11497189E-01 0.18670655E+03</pdfrwt>
<pdfrwt beam="2">  1       21 0.77416026E-01 0.18670655E+03</pdfrwt>
<totfact> 0.94033555E+04</totfact>
</mgrwt>
</event>
<event>
 4    1  0.3883260E+000  0.1796044E+03  0.7546771E-02  0.1168186E+00
         21   -1    0    0  501  502  0.00000000000E+00  0.00000000000E+00  0.19173744972E+03  0.19173744972E+03  0.00000000000E+00 0.  1.
         21   -1    0    0  502  503 -0.00000000000E+00 -0.00000000000E+00 -0.18956818791E+03  0.18956818791E+03  0.00000000000E+00 0. -1.
          6    1    1    2  501    0  0.43825635880E+02 -0.20200789201E+02  0.65035354256E+02  0.19101663684E+03  0.17300000000E+03 0.  1.
         -6    1    1    2    0  503 -0.43825635880E+02  0.20200789201E+02 -0.62866092449E+02  0.19028900080E+03  0.17300000000E+03 0. -1.
<mgrwt>
<rscale>  2 0.17960445E+03</rscale>
<asrwt>0</asrwt>
<pdfrwt beam="1">  1       21 0.29498069E-01 0.17960445E+03</pdfrwt>
<pdfrwt beam="2">  1       21 0.29164337E-01 0.17960445E+03</pdfrwt>
<totfact> 0.12453911E+05</totfact>
</mgrwt>
</event>
<event>
 4    1  0.3883260E+000  0.1743514E+03  0.7546771E-02  0.1173385E+00
         21   -1    0    0  503  502  0.00000000000E+00  0.00000000000E+00  0.73830723284E+03  0.73830723284E+03  0.00000000000E+00 0.  1.
         21   -1    0    0  501  503 -0.00000000000E+00 -0.00000000000E+00 -0.23622130245E+03  0.23622130245E+03  0.00000000000E+00 0.  1.
          6    1    1    2  501    0  0.17940650820E+02  0.12146455274E+02 -0.19172480680E+03  0.25914630013E+03  0.17300000000E+03 0.  1.
         -6    1    1    2    0  502 -0.17940650820E+02 -0.12146455274E+02  0.69381073719E+03  0.71538223515E+03  0.17300000000E+03 0.  1.
<mgrwt>
<rscale>  2 0.17435138E+03</rscale>
<asrwt>0</asrwt>
<pdfrwt beam="1">  1       21 0.11358573E+00 0.17435138E+03</pdfrwt>
<pdfrwt beam="2">  1       21 0.36341739E-01 0.17435138E+03</pdfrwt>
<totfact> 0.44804118E+03</totfact>
</mgrwt>
</event>
<event>
 4    1  0.3883260E+000  0.1775334E+03  0.7546771E-02  0.1170212E+00
         21   -1    0    0  501  502  0.00000000000E+00  0.00000000000E+00  0.12125983857E+03  0.12125983857E+03  0.00000000000E+00 0. -1.
         21   -1    0    0  502  503 -0.00000000000E+00 -0.00000000000E+00 -0.29213145086E+03  0.29213145086E+03  0.00000000000E+00 0. -1.
          6    1    1    2  501    0 -0.37957729678E+02  0.12179190575E+02 -0.16802867277E+02  0.17832682993E+03  0.17300000000E+03 0. -1.
         -6    1    1    2    0  503  0.37957729678E+02 -0.12179190575E+02 -0.15406874501E+03  0.23506445949E+03  0.17300000000E+03 0. -1.
<mgrwt>
<rscale>  2 0.17753344E+03</rscale>
<asrwt>0</asrwt>
<pdfrwt beam="1">  1       21 0.18655360E-01 0.17753344E+03</pdfrwt>
<pdfrwt beam="2">  1       21 0.44943300E-01 0.17753344E+03</pdfrwt>
<totfact> 0.12549859E+05</totfact>
</mgrwt>
</event>
<event>
 4    1  0.3883260E+000  0.1853159E+03  0.7546771E-02  0.1162755E+00
         21   -1    0    0  503  502  0.00000000000E+00  0.00000000000E+00  0.32532321252E+03  0.32532321252E+03  0.00000000000E+00 0. -1.
         21   -1    0    0  501  503 -0.00000000000E+00 -0.00000000000E+00 -0.15218363792E+03  0.15218363792E+03  0.00000000000E+00 0. -1.
          6    1    1    2  501    0 -0.18458545210E+02 -0.63814304156E+02 -0.45576913445E+02  0.19083825179E+03  0.17300000000E+03 0. -1.
         -6    1    1    2    0  502  0.18458545210E+02  0.63814304156E+02  0.21871648805E+03  0.28666859865E+03  0.17300000000E+03 0. -1.
<mgrwt>
<rscale>  2 0.18531590E+03</rscale>
<asrwt>0</asrwt>
<pdfrwt beam="1">  1       21 0.50049725E-01 0.18531590E+03</pdfrwt>
<pdfrwt beam="2">  1       21 0.23412867E-01 0.18531590E+03</pdfrwt>
<totfact> 0.65459417E+04</totfact>
</mgrwt>
</event>
<event>
 4    1  0.3883260E+000  0.1761594E+03  0.7546771E-02  0.1171573E+00
         21   -1    0    0  501  502  0.00000000000E+00  0.00000000000E+00  0.90289465540E+02  0.90289465540E+02  0.00000000000E+00 0. -1.
         21   -1    0    0  502  503 -0.00000000000E+00 -0.00000000000E+00 -0.34495813248E+03  0.34495813248E+03  0.00000000000E+00 0.  1.
          6    1    1    2  501    0  0.14124159671E+02 -0.30060887716E+02 -0.14049676730E+03  0.22532529924E+03  0.17300000000E+03 0.  1.
         -6    1    1    2    0  503 -0.14124159671E+02  0.30060887716E+02 -0.11417189963E+03  0.20992229877E+03  0.17300000000E+03 0. -1.
<mgrwt>
<rscale>  2 0.17615944E+03</rscale>
<asrwt>0</asrwt>
<pdfrwt beam="1">  1       21 0.13890687E-01 0.17615944E+03</pdfrwt>
<pdfrwt beam="2">  1       21 0.53070481E-01 0.17615944E+03</pdfrwt>
<totfact> 0.15250245E+05</totfact>
</mgrwt>
</event>
<event>
 4    1  0.3883260E+000  0.1766016E+03  0.7546771E-02  0.1171133E+00
         21   -1    0    0  501  502  0.00000000000E+00  0.00000000000E+00  0.18909022975E+03  0.18909022975E+03  0.00000000000E+00 0.  1.
         21   -1    0    0  502  503 -0.00000000000E+00 -0.00000000000E+00 -0.18571429477E+03  0.18571429477E+03  0.00000000000E+00 0.  1.
          6    1    1    2  501    0 -0.38633736962E+01  0.35272969857E+02  0.64369458873E+02  0.18796684626E+03  0.17300000000E+03 0.  1.
         -6    1    1    2    0  503  0.38633736962E+01 -0.35272969857E+02 -0.60993523890E+02  0.18683767825E+03  0.17300000000E+03 0.  1.
<mgrwt>
<rscale>  2 0.17660155E+03</rscale>
<asrwt>0</asrwt>
<pdfrwt beam="1">  1       21 0.29090805E-01 0.17660155E+03</pdfrwt>
<pdfrwt beam="2">  1       21 0.28571430E-01 0.17660155E+03</pdfrwt>
<totfact> 0.13327575E+05</totfact>
</mgrwt>
</event>
<event>
 4    1  0.3883260E+000  0.2842901E+03  0.7546771E-02  0.1093369E+00
         21   -1    0    0  501  502  0.00000000000E+00  0.00000000000E+00  0.12663639221E+03  0.12663639221E+03  0.00000000000E+00 0. -1.
         21   -1    0    0  502  503 -0.00000000000E+00 -0.00000000000E+00 -0.10827036304E+04  0.10827036304E+04  0.00000000000E+00 0. -1.
          6    1    1    2  501    0  0.62213201566E+02  0.21684412536E+03 -0.90601645871E+02  0.29837814160E+03  0.17300000000E+03 0. -1.
         -6    1    1    2    0  503 -0.62213201566E+02 -0.21684412536E+03 -0.86546559237E+03  0.91096188105E+03  0.17300000000E+03 0. -1.
<mgrwt>
<rscale>  2 0.28429009E+03</rscale>
<asrwt>0</asrwt>
<pdfrwt beam="1">  1       21 0.19482521E-01 0.28429009E+03</pdfrwt>
<pdfrwt beam="2">  1       21 0.16656979E+00 0.28429009E+03</pdfrwt>
<totfact> 0.51193337E+03</totfact>
</mgrwt>
</event>
<event>
 4    1  0.3883260E+000  0.1845520E+03  0.7546771E-02  0.1163469E+00
         21   -1    0    0  501  502  0.00000000000E+00  0.00000000000E+00  0.45325574595E+03  0.45325574595E+03  0.00000000000E+00 0. -1.
         21   -1    0    0  502  503 -0.00000000000E+00 -0.00000000000E+00 -0.22703177028E+03  0.22703177028E+03  0.00000000000E+00 0. -1.
          6    1    1    2  501    0  0.22903258021E+02  0.60048936108E+02  0.39132705181E+03  0.43266187194E+03  0.17300000000E+03 0. -1.
         -6    1    1    2    0  503 -0.22903258021E+02 -0.60048936108E+02 -0.16510307614E+03  0.24762564428E+03  0.17300000000E+03 0. -1.
<mgrwt>
<rscale>  2 0.18455198E+03</rscale>
<asrwt>0</asrwt>
<pdfrwt beam="1">  1       21 0.69731653E-01 0.18455198E+03</pdfrwt>
<pdfrwt beam="2">  1       21 0.34927965E-01 0.18455198E+03</pdfrwt>
<totfact> 0.14841832E+04</totfact>
</mgrwt>
</event>
<event>
 4    1  0.3883260E+000  0.2380994E+03  0.7546771E-02  0.1121065E+00
         21   -1    0    0  503  502  0.00000000000E+00  0.00000000000E+00  0.14336624954E+04  0.14336624954E+04  0.00000000000E+00 0.  1.
         21   -1    0    0  501  503 -0.00000000000E+00 -0.00000000000E+00 -0.49978490127E+02  0.49978490127E+02  0.00000000000E+00 0.  1.
          6    1    1    2  501    0  0.11337309402E+03 -0.11793591397E+03  0.35287036289E+03  0.42568630616E+03  0.17300000000E+03 0.  1.
         -6    1    1    2    0  502 -0.11337309402E+03  0.11793591397E+03  0.10308136424E+04  0.10579546794E+04  0.17300000000E+03 0.  1.
<mgrwt>
<rscale>  2 0.23809943E+03</rscale>
<asrwt>0</asrwt>
<pdfrwt beam="1">  1       21 0.22056343E+00 0.23809943E+03</pdfrwt>
<pdfrwt beam="2">  1       21 0.76889996E-02 0.23809943E+03</pdfrwt>
<totfact> 0.12375960E+04</totfact>
</mgrwt>
</event>
<event>
 4    1  0.3883260E+000  0.1750616E+03  0.7546771E-02  0.1172670E+00
         21   -1    0    0  503  502  0.00000000000E+00  0.00000000000E+00  0.36839351963E+02  0.36839351963E+02  0.00000000000E+00 0. -1.
         21   -1    0    0  501  503 -0.00000000000E+00 -0.00000000000E+00 -0.11045817588E+04  0.11045817588E+04  0.00000000000E+00 0. -1.
          6    1    1    2  501    0 -0.25593799744E+02 -0.79081192803E+01 -0.81743230626E+03  0.83596779618E+03  0.17300000000E+03 0. -1.
         -6    1    1    2    0  502  0.25593799744E+02  0.79081192803E+01 -0.25031010056E+03  0.30545331457E+03  0.17300000000E+03 0. -1.
<mgrwt>
<rscale>  2 0.17506165E+03</rscale>
<asrwt>0</asrwt>
<pdfrwt beam="1">  1       21 0.56675921E-02 0.17506165E+03</pdfrwt>
<pdfrwt beam="2">  1       21 0.16993567E+00 0.17506165E+03</pdfrwt>
<totfact> 0.46928608E+04</totfact>
</mgrwt>
</event>
<event>
 4    1  0.3883260E+000  0.1850645E+03  0.7546771E-02  0.1162990E+00
         21   -1    0    0  503  502  0.00000000000E+00  0.00000000000E+00  0.95723874446E+02  0.95723874446E+02  0.00000000000E+00 0.  1.
         21   -1    0    0  501  503 -0.00000000000E+00 -0.00000000000E+00 -0.40308310777E+03  0.40308310777E+03  0.00000000000E+00 0. -1.
          6    1    1    2  501    0  0.59186871801E+02  0.28579241788E+02 -0.23728430152E+03  0.30091975442E+03  0.17300000000E+03 0. -1.
         -6    1    1    2    0  502 -0.59186871801E+02 -0.28579241788E+02 -0.70074931800E+02  0.19788722779E+03  0.17300000000E+03 0.  1.
<mgrwt>
<rscale>  2 0.18506447E+03</rscale>
<asrwt>0</asrwt>
<pdfrwt beam="1">  1       21 0.14726750E-01 0.18506447E+03</pdfrwt>
<pdfrwt beam="2">  1       21 0.62012785E-01 0.18506447E+03</pdfrwt>
<totfact> 0.98183925E+04</totfact>
</mgrwt>
</event>
<event>
 4    1  0.3883260E+000  0.1802367E+03  0.7546771E-02  0.1167574E+00
         21   -1    0    0  501  502  0.00000000000E+00  0.00000000000E+00  0.24197669469E+03  0.24197669469E+03  0.00000000000E+00 0. -1.
         21   -1    0    0  502  503 -0.00000000000E+00 -0.00000000000E+00 -0.28582937683E+03  0.28582937683E+03  0.00000000000E+00 0. -1.
          6    1    1    2  501    0 -0.32747687942E+02  0.38520951526E+02  0.17025516157E+03  0.24793566668E+03  0.17300000000E+03 0. -1.
         -6    1    1    2    0  503  0.32747687942E+02 -0.38520951526E+02 -0.21410784370E+03  0.27987040484E+03  0.17300000000E+03 0. -1.
<mgrwt>
<rscale>  2 0.18023672E+03</rscale>
<asrwt>0</asrwt>
<pdfrwt beam="1">  1       21 0.37227184E-01 0.18023672E+03</pdfrwt>
<pdfrwt beam="2">  1       21 0.43973750E-01 0.18023672E+03</pdfrwt>
<totfact> 0.34798007E+04</totfact>
</mgrwt>
</event>
<event>
 4    1  0.3883260E+000  0.1778555E+03  0.7546771E-02  0.1169895E+00
         21   -1    0    0  503  502  0.00000000000E+00  0.00000000000E+00  0.89924974958E+02  0.89924974958E+02  0.00000000000E+00 0.  1.
         21   -1    0    0  501  503 -0.00000000000E+00 -0.00000000000E+00 -0.10695166518E+04  0.10695166518E+04  0.00000000000E+00 0.  1.
          6    1    1    2  501    0  0.96288004921E+01 -0.40135780933E+02 -0.96470632633E+03  0.98096426580E+03  0.17300000000E+03 0.  1.
         -6    1    1    2    0  502 -0.96288004921E+01  0.40135780933E+02 -0.14885350494E+02  0.17847736094E+03  0.17300000000E+03 0.  1.
<mgrwt>
<rscale>  2 0.17785554E+03</rscale>
<asrwt>0</asrwt>
<pdfrwt beam="1">  1       21 0.13834611E-01 0.17785554E+03</pdfrwt>
<pdfrwt beam="2">  1       21 0.16454103E+00 0.17785554E+03</pdfrwt>
<totfact> 0.10723754E+04</totfact>
</mgrwt>
</event>
<event>
 4    1  0.3883260E+000  0.1924194E+03  0.7546771E-02  0.1156297E+00
         21   -1    0    0  501  502  0.00000000000E+00  0.00000000000E+00  0.25374658235E+02  0.25374658235E+02  0.00000000000E+00 0.  1.
         21   -1    0    0  502  503 -0.00000000000E+00 -0.00000000000E+00 -0.14677328469E+04  0.14677328469E+04  0.00000000000E+00 0.  1.
          6    1    1    2  501    0 -0.25854750461E+02 -0.80173294699E+02 -0.66406282777E+03  0.69137881406E+03  0.17300000000E+03 0.  1.
         -6    1    1    2    0  503  0.25854750461E+02  0.80173294699E+02 -0.77829536090E+03  0.80172869108E+03  0.17300000000E+03 0.  1.
<mgrwt>
<rscale>  2 0.19241940E+03</rscale>
<asrwt>0</asrwt>
<pdfrwt beam="1">  1       21 0.39037927E-02 0.19241940E+03</pdfrwt>
<pdfrwt beam="2">  1       21 0.22580510E+00 0.19241940E+03</pdfrwt>
<totfact> 0.37851344E+04</totfact>
</mgrwt>
</event>
<event>
 4    1  0.3883260E+000  0.1886411E+03  0.7546771E-02  0.1159693E+00
         21   -1    0    0  501  502  0.00000000000E+00  0.00000000000E+00  0.34905460376E+03  0.34905460376E+03  0.00000000000E+00 0. -1.
         21   -1    0    0  502  503 -0.00000000000E+00 -0.00000000000E+00 -0.18065996374E+03  0.18065996374E+03  0.00000000000E+00 0. -1.
          6    1    1    2  501    0  0.62892841243E+02 -0.41242475843E+02  0.25902133016E+03  0.32043330160E+03  0.17300000000E+03 0. -1.
         -6    1    1    2    0  503 -0.62892841243E+02  0.41242475843E+02 -0.90626690141E+02  0.20928126591E+03  0.17300000000E+03 0. -1.
<mgrwt>
<rscale>  2 0.18864106E+03</rscale>
<asrwt>0</asrwt>
<pdfrwt beam="1">  1       21 0.53700708E-01 0.18864106E+03</pdfrwt>
<pdfrwt beam="2">  1       21 0.27793841E-01 0.18864106E+03</pdfrwt>
<totfact> 0.40626835E+04</totfact>
</mgrwt>
</event>
<event>
 4    1  0.3883260E+000  0.1804984E+03  0.7546771E-02  0.1167322E+00
         21   -1    0    0  503  502  0.00000000000E+00  0.00000000000E+00  0.96938841650E+02  0.96938841650E+02  0.00000000000E+00 0. -1.
         21   -1    0    0  501  503 -0.00000000000E+00 -0.00000000000E+00 -0.34151366896E+03  0.34151366896E+03  0.00000000000E+00 0. -1.
          6    1    1    2  501    0  0.93418976668E+01  0.50629906980E+02 -0.14992807498E+03  0.23464459551E+03  0.17300000000E+03 0. -1.
         -6    1    1    2    0  502 -0.93418976668E+01 -0.50629906980E+02 -0.94646752331E+02  0.20380791511E+03  0.17300000000E+03 0. -1.
<mgrwt>
<rscale>  2 0.18049836E+03</rscale>
<asrwt>0</asrwt>
<pdfrwt beam="1">  1       21 0.14913668E-01 0.18049836E+03</pdfrwt>
<pdfrwt beam="2">  1       21 0.52540566E-01 0.18049836E+03</pdfrwt>
<totfact> 0.13673332E+05</totfact>
</mgrwt>
</event>
<event>
 4    1  0.3883260E+000  0.2962377E+03  0.7546771E-02  0.1087137E+00
         21   -1    0    0  503  502  0.00000000000E+00  0.00000000000E+00  0.13078688170E+03  0.13078688170E+03  0.00000000000E+00 0. -1.
         21   -1    0    0  501  503 -0.00000000000E+00 -0.00000000000E+00 -0.77492176292E+03  0.77492176292E+03  0.00000000000E+00 0.  1.
          6    1    1    2  501    0 -0.23299501187E+03  0.59507338833E+02 -0.48791229111E+03  0.57080224487E+03  0.17300000000E+03 0.  1.
         -6    1    1    2    0  502  0.23299501187E+03 -0.59507338833E+02 -0.15622259010E+03  0.33490639974E+03  0.17300000000E+03 0. -1.
<mgrwt>
<rscale>  2 0.29623774E+03</rscale>
<asrwt>0</asrwt>
<pdfrwt beam="1">  1       21 0.20121059E-01 0.29623774E+03</pdfrwt>
<pdfrwt beam="2">  1       21 0.11921873E+00 0.29623774E+03</pdfrwt>
<totfact> 0.11536878E+04</totfact>
</mgrwt>
</event>
<event>
 4    1  0.3883260E+000  0.1963492E+03  0.7546771E-02  0.1152856E+00
         21   -1    0    0  501  502  0.00000000000E+00  0.00000000000E+00  0.37071115633E+02  0.37071115633E+02  0.00000000000E+00 0.  1.
         21   -1    0    0  502  503 -0.00000000000E+00 -0.00000000000E+00 -0.10618497792E+04  0.10618497792E+04  0.00000000000E+00 0. -1.
          6    1    1    2  501    0 -0.83380631767E+02 -0.40886179236E+02 -0.43352453653E+03  0.47591651913E+03  0.17300000000E+03 0. -1.
         -6    1    1    2    0  503  0.83380631767E+02  0.40886179236E+02 -0.59125412704E+03  0.62300437570E+03  0.17300000000E+03 0. -1.
<mgrwt>
<rscale>  2 0.19634920E+03</rscale>
<asrwt>0</asrwt>
<pdfrwt beam="1">  1       21 0.57032481E-02 0.19634920E+03</pdfrwt>
<pdfrwt beam="2">  1       21 0.16336152E+00 0.19634920E+03</pdfrwt>
<totfact> 0.51051740E+04</totfact>
</mgrwt>
</event>
<event>
 4    1  0.3883260E+000  0.2032636E+03  0.7546771E-02  0.1147014E+00
         21   -1    0    0  501  502  0.00000000000E+00  0.00000000000E+00  0.40230782159E+02  0.40230782159E+02  0.00000000000E+00 0. -1.
         21   -1    0    0  502  503 -0.00000000000E+00 -0.00000000000E+00 -0.11146089081E+04  0.11146089081E+04  0.00000000000E+00 0. -1.
          6    1    1    2  501    0 -0.98699777951E+02 -0.40563997141E+02 -0.69909464697E+03  0.72804492269E+03  0.17300000000E+03 0. -1.
         -6    1    1    2    0  503  0.98699777951E+02  0.40563997141E+02 -0.37528347893E+03  0.42679476753E+03  0.17300000000E+03 0. -1.
<mgrwt>
<rscale>  2 0.20326358E+03</rscale>
<asrwt>0</asrwt>
<pdfrwt beam="1">  1       21 0.61893516E-02 0.20326358E+03</pdfrwt>
<pdfrwt beam="2">  1       21 0.17147828E+00 0.20326358E+03</pdfrwt>
<totfact> 0.38692671E+04</totfact>
</mgrwt>
</event>
<event>
 4    1  0.3883260E+000  0.2164755E+03  0.7546771E-02  0.1136538E+00
         21   -1    0    0  501  502  0.00000000000E+00  0.00000000000E+00  0.20725127562E+03  0.20725127562E+03  0.00000000000E+00 0. -1.
         21   -1    0    0  502  503 -0.00000000000E+00 -0.00000000000E+00 -0.30296215859E+03  0.30296215859E+03  0.00000000000E+00 0.  1.
          6    1    1    2  501    0  0.17410734178E+01 -0.13011386808E+03  0.80630278477E+02  0.23100409479E+03  0.17300000000E+03 0. -1.
         -6    1    1    2    0  503 -0.17410734178E+01  0.13011386808E+03 -0.17634116145E+03  0.27920933943E+03  0.17300000000E+03 0. -1.
<mgrwt>
<rscale>  2 0.21647552E+03</rscale>
<asrwt>0</asrwt>
<pdfrwt beam="1">  1       21 0.31884812E-01 0.21647552E+03</pdfrwt>
<pdfrwt beam="2">  1       21 0.46609563E-01 0.21647552E+03</pdfrwt>
<totfact> 0.41200636E+04</totfact>
</mgrwt>
</event>
<event>
 4    1  0.3883260E+000  0.2091285E+03  0.7546771E-02  0.1142258E+00
         21   -1    0    0  503  502  0.00000000000E+00  0.00000000000E+00  0.20440489008E+03  0.20440489008E+03  0.00000000000E+00 0.  1.
         21   -1    0    0  501  503 -0.00000000000E+00 -0.00000000000E+00 -0.23257531830E+03  0.23257531830E+03  0.00000000000E+00 0. -1.
          6    1    1    2  501    0 -0.11744573190E+03  0.34948224004E+01 -0.75897001171E+02  0.22247487164E+03  0.17300000000E+03 0. -1.
         -6    1    1    2    0  502  0.11744573190E+03 -0.34948224004E+01  0.47726572948E+02  0.21450533674E+03  0.17300000000E+03 0.  1.
<mgrwt>
<rscale>  2 0.20912846E+03</rscale>
<asrwt>0</asrwt>
<pdfrwt beam="1">  1       21 0.31446906E-01 0.20912846E+03</pdfrwt>
<pdfrwt beam="2">  1       21 0.35780818E-01 0.20912846E+03</pdfrwt>
<totfact> 0.72675052E+04</totfact>
</mgrwt>
</event>
<event>
 4    1  0.3883260E+000  0.2135693E+03  0.7546771E-02  0.1138770E+00
         21   -1    0    0  503  502  0.00000000000E+00  0.00000000000E+00  0.53355218075E+02  0.53355218075E+02  0.00000000000E+00 0. -1.
         21   -1    0    0  501  503 -0.00000000000E+00 -0.00000000000E+00 -0.99864653642E+03  0.99864653642E+03  0.00000000000E+00 0. -1.
          6    1    1    2  501    0 -0.12065741038E+03  0.33535398495E+02 -0.67222837368E+03  0.70533879803E+03  0.17300000000E+03 0. -1.
         -6    1    1    2    0  502  0.12065741038E+03 -0.33535398495E+02 -0.27306294466E+03  0.34666295646E+03  0.17300000000E+03 0. -1.
<mgrwt>
<rscale>  2 0.21356927E+03</rscale>
<asrwt>0</asrwt>
<pdfrwt beam="1">  1       21 0.82084951E-02 0.21356927E+03</pdfrwt>
<pdfrwt beam="2">  1       21 0.15363793E+00 0.21356927E+03</pdfrwt>
<totfact> 0.31782465E+04</totfact>
</mgrwt>
</event>
<event>
 4    1  0.3883260E+000  0.1908373E+03  0.7546771E-02  0.1157708E+00
         21   -1    0    0  503  502  0.00000000000E+00  0.00000000000E+00  0.45690839104E+02  0.45690839104E+02  0.00000000000E+00 0.  1.
         21   -1    0    0  501  503 -0.00000000000E+00 -0.00000000000E+00 -0.80986297892E+03  0.80986297892E+03  0.00000000000E+00 0. -1.
          6    1    1    2  501    0 -0.43163956907E+02  0.68020222066E+02 -0.43584708246E+03  0.47579570939E+03  0.17300000000E+03 0. -1.
         -6    1    1    2    0  502  0.43163956907E+02 -0.68020222066E+02 -0.32832505736E+03  0.37975810864E+03  0.17300000000E+03 0. -1.
<mgrwt>
<rscale>  2 0.19083731E+03</rscale>
<asrwt>0</asrwt>
<pdfrwt beam="1">  1       21 0.70293604E-02 0.19083731E+03</pdfrwt>
<pdfrwt beam="2">  1       21 0.12459429E+00 0.19083731E+03</pdfrwt>
<totfact> 0.72287195E+04</totfact>
</mgrwt>
</event>
<event>
 4    1  0.3883260E+000  0.1907976E+03  0.7546771E-02  0.1157744E+00
         21   -1    0    0  503  502  0.00000000000E+00  0.00000000000E+00  0.22560236611E+04  0.22560236611E+04  0.00000000000E+00 0.  1.
         21   -1    0    0  501  503 -0.00000000000E+00 -0.00000000000E+00 -0.64213399464E+02  0.64213399464E+02  0.00000000000E+00 0.  1.
          6    1    1    2  501    0 -0.48198111620E+02 -0.64433403575E+02  0.92077909595E+02  0.21185387156E+03  0.17300000000E+03 0.  1.
         -6    1    1    2    0  502  0.48198111620E+02  0.64433403575E+02  0.20997323521E+04  0.21083831890E+04  0.17300000000E+03 0.  1.
<mgrwt>
<rscale>  2 0.19079759E+03</rscale>
<asrwt>0</asrwt>
<pdfrwt beam="1">  1       21 0.34708050E+00 0.19079759E+03</pdfrwt>
<pdfrwt beam="2">  1       21 0.98789863E-02 0.19079759E+03</pdfrwt>
<totfact> 0.15123505E+03</totfact>
</mgrwt>
</event>
<event>
 4    1  0.3883260E+000  0.1832887E+03  0.7546771E-02  0.1164658E+00
         21   -1    0    0  501  502  0.00000000000E+00  0.00000000000E+00  0.38193773173E+03  0.38193773173E+03  0.00000000000E+00 0.  1.
         21   -1    0    0  502  503 -0.00000000000E+00 -0.00000000000E+00 -0.10552048996E+03  0.10552048996E+03  0.00000000000E+00 0.  1.
          6    1    1    2  501    0  0.41880281318E+02 -0.43723858908E+02  0.23764007727E+03  0.30011254576E+03  0.17300000000E+03 0.  1.
         -6    1    1    2    0  503 -0.41880281318E+02  0.43723858908E+02  0.38777164507E+02  0.18734567593E+03  0.17300000000E+03 0.  1.
<mgrwt>
<rscale>  2 0.18328866E+03</rscale>
<asrwt>0</asrwt>
<pdfrwt beam="1">  1       21 0.58759650E-01 0.18328866E+03</pdfrwt>
<pdfrwt beam="2">  1       21 0.16233922E-01 0.18328866E+03</pdfrwt>
<totfact> 0.92346692E+04</totfact>
</mgrwt>
</event>
<event>
 4    1  0.3883260E+000  0.1784182E+03  0.7546771E-02  0.1169343E+00
         21   -1    0    0  501  502  0.00000000000E+00  0.00000000000E+00  0.34483545954E+02  0.34483545954E+02  0.00000000000E+00 0.  1.
         21   -1    0    0  502  503 -0.00000000000E+00 -0.00000000000E+00 -0.10280210395E+04  0.10280210395E+04  0.00000000000E+00 0. -1.
          6    1    1    2  501    0 -0.43076060865E+02 -0.69655924099E+01 -0.32708011134E+03  0.37257813373E+03  0.17300000000E+03 0.  1.
         -6    1    1    2    0  503  0.43076060865E+02  0.69655924099E+01 -0.66645738222E+03  0.68992645174E+03  0.17300000000E+03 0. -1.
<mgrwt>
<rscale>  2 0.17841823E+03</rscale>
<asrwt>0</asrwt>
<pdfrwt beam="1">  1       21 0.53051617E-02 0.17841823E+03</pdfrwt>
<pdfrwt beam="2">  1       21 0.15815706E+00 0.17841823E+03</pdfrwt>
<totfact> 0.63658525E+04</totfact>
</mgrwt>
</event>
<event>
 4    1  0.3883260E+000  0.2566668E+03  0.7546771E-02  0.1109163E+00
         21   -1    0    0  501  502  0.00000000000E+00  0.00000000000E+00  0.20307508557E+03  0.20307508557E+03  0.00000000000E+00 0. -1.
         21   -1    0    0  502  503 -0.00000000000E+00 -0.00000000000E+00 -0.36044178263E+03  0.36044178263E+03  0.00000000000E+00 0.  1.
          6    1    1    2  501    0  0.18893322187E+03  0.15907961225E+02  0.10411900675E+02  0.25687785664E+03  0.17300000000E+03 0. -1.
         -6    1    1    2    0  503 -0.18893322187E+03 -0.15907961225E+02 -0.16777859774E+03  0.30663901157E+03  0.17300000000E+03 0.  1.
<mgrwt>
<rscale>  2 0.25666676E+03</rscale>
<asrwt>0</asrwt>
<pdfrwt beam="1">  1       21 0.31242321E-01 0.25666676E+03</pdfrwt>
<pdfrwt beam="2">  1       21 0.55452582E-01 0.25666676E+03</pdfrwt>
<totfact> 0.29232604E+04</totfact>
</mgrwt>
</event>
<event>
 4    1  0.3883260E+000  0.1768455E+03  0.7546771E-02  0.1170891E+00
         21   -1    0    0  501  502  0.00000000000E+00  0.00000000000E+00  0.14205102548E+04  0.14205102548E+04  0.00000000000E+00 0. -1.
         21   -1    0    0  502  503 -0.00000000000E+00 -0.00000000000E+00 -0.15473889050E+03  0.15473889050E+03  0.00000000000E+00 0. -1.
          6    1    1    2  501    0  0.32904808729E+02 -0.16204641619E+02  0.13623297809E+04  0.13737600769E+04  0.17300000000E+03 0. -1.
         -6    1    1    2    0  503 -0.32904808729E+02  0.16204641619E+02 -0.96558416669E+02  0.20148906838E+03  0.17300000000E+03 0. -1.
<mgrwt>
<rscale>  2 0.17684546E+03</rscale>
<asrwt>0</asrwt>
<pdfrwt beam="1">  1       21 0.21854003E+00 0.17684546E+03</pdfrwt>
<pdfrwt beam="2">  1       21 0.23805984E-01 0.17684546E+03</pdfrwt>
<totfact> 0.17384824E+03</totfact>
</mgrwt>
</event>
<event>
 4    1  0.3883260E+000  0.1885037E+03  0.7546771E-02  0.1159818E+00
         21   -1    0    0  501  502  0.00000000000E+00  0.00000000000E+00  0.14217059859E+04  0.14217059859E+04  0.00000000000E+00 0. -1.
         21   -1    0    0  502  503 -0.00000000000E+00 -0.00000000000E+00 -0.26307721465E+02  0.26307721465E+02  0.00000000000E+00 0. -1.
          6    1    1    2  501    0 -0.24434803023E+02 -0.70764295512E+02  0.85951005827E+03  0.87993817135E+03  0.17300000000E+03 0. -1.
         -6    1    1    2    0  503  0.24434803023E+02  0.70764295512E+02  0.53588820613E+03  0.56807553599E+03  0.17300000000E+03 0. -1.
<mgrwt>
<rscale>  2 0.18850370E+03</rscale>
<asrwt>0</asrwt>
<pdfrwt beam="1">  1       21 0.21872394E+00 0.18850370E+03</pdfrwt>
<pdfrwt beam="2">  1       21 0.40473429E-02 0.18850370E+03</pdfrwt>
<totfact> 0.39471564E+04</totfact>
</mgrwt>
</event>
<event>
 4    1  0.3883260E+000  0.2283217E+03  0.7546771E-02  0.1127827E+00
         21   -1    0    0  503  502  0.00000000000E+00  0.00000000000E+00  0.14030920219E+03  0.14030920219E+03  0.00000000000E+00 0. -1.
         21   -1    0    0  501  503 -0.00000000000E+00 -0.00000000000E+00 -0.38780732681E+03  0.38780732681E+03  0.00000000000E+00 0.  1.
          6    1    1    2  501    0 -0.10171722277E+03 -0.10888249551E+03 -0.17782702684E+03  0.28940152507E+03  0.17300000000E+03 0. -1.
         -6    1    1    2    0  502  0.10171722277E+03  0.10888249551E+03 -0.69671097777E+02  0.23871500393E+03  0.17300000000E+03 0. -1.
<mgrwt>
<rscale>  2 0.22832168E+03</rscale>
<asrwt>0</asrwt>
<pdfrwt beam="1">  1       21 0.21586031E-01 0.22832168E+03</pdfrwt>
<pdfrwt beam="2">  1       21 0.59662665E-01 0.22832168E+03</pdfrwt>
<totfact> 0.51607723E+04</totfact>
</mgrwt>
</event>
<event>
 4    1  0.3883260E+000  0.1735613E+03  0.7546771E-02  0.1174184E+00
         21   -1    0    0  503  502  0.00000000000E+00  0.00000000000E+00  0.64871910187E+03  0.64871910187E+03  0.00000000000E+00 0.  1.
         21   -1    0    0  501  503 -0.00000000000E+00 -0.00000000000E+00 -0.46462649214E+02  0.46462649214E+02  0.00000000000E+00 0.  1.
          6    1    1    2  501    0  0.12257223259E+02  0.66558153200E+01  0.30954392070E+03  0.35488163977E+03  0.17300000000E+03 0.  1.
         -6    1    1    2    0  502 -0.12257223259E+02 -0.66558153200E+01  0.29271253195E+03  0.34030011132E+03  0.17300000000E+03 0.  1.
<mgrwt>
<rscale>  2 0.17356134E+03</rscale>
<asrwt>0</asrwt>
<pdfrwt beam="1">  1       21 0.99802932E-01 0.17356134E+03</pdfrwt>
<pdfrwt beam="2">  1       21 0.71481004E-02 0.17356134E+03</pdfrwt>
<totfact> 0.12123584E+05</totfact>
</mgrwt>
</event>
<event>
 4    1  0.3883260E+000  0.3313142E+03  0.7546771E-02  0.1070557E+00
         21   -1    0    0  501  502  0.00000000000E+00  0.00000000000E+00  0.14175899960E+04  0.14175899960E+04  0.00000000000E+00 0.  1.
         21   -1    0    0  502  503 -0.00000000000E+00 -0.00000000000E+00 -0.16974969946E+03  0.16974969946E+03  0.00000000000E+00 0.  1.
          6    1    1    2  501    0 -0.26882896837E+03 -0.87012067801E+02  0.12092141435E+04  0.12537814638E+04  0.17300000000E+03 0.  1.
         -6    1    1    2    0  503  0.26882896837E+03  0.87012067801E+02  0.38626152998E+02  0.33355823160E+03  0.17300000000E+03 0.  1.
<mgrwt>
<rscale>  2 0.33131422E+03</rscale>
<asrwt>0</asrwt>
<pdfrwt beam="1">  1       21 0.21809076E+00 0.33131422E+03</pdfrwt>
<pdfrwt beam="2">  1       21 0.26115339E-01 0.33131422E+03</pdfrwt>
<totfact> 0.12794596E+03</totfact>
</mgrwt>
</event>
<event>
 4    1  0.3883260E+000  0.1867900E+03  0.7546771E-02  0.1161389E+00
         21   -1    0    0  501  502  0.00000000000E+00  0.00000000000E+00  0.56559330898E+02  0.56559330898E+02  0.00000000000E+00 0. -1.
         21   -1    0    0  502  503 -0.00000000000E+00 -0.00000000000E+00 -0.69147541586E+03  0.69147541586E+03  0.00000000000E+00 0. -1.
          6    1    1    2  501    0  0.20034922869E+02 -0.67528487505E+02 -0.19461502348E+03  0.26975081487E+03  0.17300000000E+03 0. -1.
         -6    1    1    2    0  503 -0.20034922869E+02  0.67528487505E+02 -0.44030106148E+03  0.47828393188E+03  0.17300000000E+03 0. -1.
<mgrwt>
<rscale>  2 0.18678997E+03</rscale>
<asrwt>0</asrwt>
<pdfrwt beam="1">  1       21 0.87014359E-02 0.18678997E+03</pdfrwt>
<pdfrwt beam="2">  1       21 0.10638083E+00 0.18678997E+03</pdfrwt>
<totfact> 0.73568047E+04</totfact>
</mgrwt>
</event>
<event>
 4    1  0.3883260E+000  0.1868274E+03  0.7546771E-02  0.1161354E+00
         21   -1    0    0  501  502  0.00000000000E+00  0.00000000000E+00  0.22617469398E+03  0.22617469398E+03  0.00000000000E+00 0. -1.
         21   -1    0    0  502  503 -0.00000000000E+00 -0.00000000000E+00 -0.38761618694E+03  0.38761618694E+03  0.00000000000E+00 0.  1.
          6    1    1    2  501    0  0.13981823275E+02 -0.69137337466E+02  0.15736776029E+03  0.24427254204E+03  0.17300000000E+03 0. -1.
         -6    1    1    2    0  503 -0.13981823275E+02  0.69137337466E+02 -0.31880925325E+03  0.36951833888E+03  0.17300000000E+03 0.  1.
<mgrwt>
<rscale>  2 0.18682736E+03</rscale>
<asrwt>0</asrwt>
<pdfrwt beam="1">  1       21 0.34796107E-01 0.18682736E+03</pdfrwt>
<pdfrwt beam="2">  1       21 0.59633260E-01 0.18682736E+03</pdfrwt>
<totfact> 0.20973719E+04</totfact>
</mgrwt>
</event>
<event>
 4    1  0.3883260E+000  0.2626179E+03  0.7546771E-02  0.1105580E+00
         21   -1    0    0  503  502  0.00000000000E+00  0.00000000000E+00  0.65733915208E+03  0.65733915208E+03  0.00000000000E+00 0. -1.
         21   -1    0    0  501  503 -0.00000000000E+00 -0.00000000000E+00 -0.10656420919E+03  0.10656420919E+03  0.00000000000E+00 0. -1.
          6    1    1    2  501    0  0.19638298516E+03  0.21745804160E+02  0.32282854962E+03  0.41615673647E+03  0.17300000000E+03 0. -1.
         -6    1    1    2    0  502 -0.19638298516E+03 -0.21745804160E+02  0.22794639327E+03  0.34774662481E+03  0.17300000000E+03 0. -1.
<mgrwt>
<rscale>  2 0.26261789E+03</rscale>
<asrwt>0</asrwt>
<pdfrwt beam="1">  1       21 0.10112910E+00 0.26261789E+03</pdfrwt>
<pdfrwt beam="2">  1       21 0.16394494E-01 0.26261789E+03</pdfrwt>
<totfact> 0.25694479E+04</totfact>
</mgrwt>
</event>
<event>
 4    1  0.3883260E+000  0.1838566E+03  0.7546771E-02  0.1164122E+00
         21   -1    0    0  501  502  0.00000000000E+00  0.00000000000E+00  0.29361673268E+03  0.29361673268E+03  0.00000000000E+00 0. -1.
         21   -1    0    0  502  503 -0.00000000000E+00 -0.00000000000E+00 -0.22391707074E+03  0.22391707074E+03  0.00000000000E+00 0. -1.
          6    1    1    2  501    0 -0.47569695734E+02 -0.40141748788E+02  0.21521787738E+03  0.28305824611E+03  0.17300000000E+03 0. -1.
         -6    1    1    2    0  503  0.47569695734E+02  0.40141748788E+02 -0.14551821544E+03  0.23447555731E+03  0.17300000000E+03 0. -1.
<mgrwt>
<rscale>  2 0.18385656E+03</rscale>
<asrwt>0</asrwt>
<pdfrwt beam="1">  1       21 0.45171805E-01 0.18385656E+03</pdfrwt>
<pdfrwt beam="2">  1       21 0.34448780E-01 0.18385656E+03</pdfrwt>
<totfact> 0.38352185E+04</totfact>
</mgrwt>
</event>
<event>
 4    1  0.3883260E+000  0.2443519E+03  0.7546771E-02  0.1116927E+00
         21   -1    0    0  503  502  0.00000000000E+00  0.00000000000E+00  0.14089883002E+03  0.14089883002E+03  0.00000000000E+00 0.  1.
         21   -1    0    0  501  503 -0.00000000000E+00 -0.00000000000E+00 -0.64607230462E+03  0.64607230462E+03  0.00000000000E+00 0.  1.
          6    1    1    2  501    0 -0.66778758359E+02 -0.15912083678E+03 -0.48340286340E+03  0.54165133768E+03  0.17300000000E+03 0.  1.
         -6    1    1    2    0  502  0.66778758359E+02  0.15912083678E+03 -0.21770611195E+02  0.24531979695E+03  0.17300000000E+03 0.  1.
<mgrwt>
<rscale>  2 0.24435188E+03</rscale>
<asrwt>0</asrwt>
<pdfrwt beam="1">  1       21 0.21676743E-01 0.24435188E+03</pdfrwt>
<pdfrwt beam="2">  1       21 0.99395740E-01 0.24435188E+03</pdfrwt>
<totfact> 0.16030503E+04</totfact>
</mgrwt>
</event>
<event>
 4    1  0.3883260E+000  0.2058600E+03  0.7546771E-02  0.1144887E+00
         21   -1    0    0  501  502  0.00000000000E+00  0.00000000000E+00  0.97416995490E+02  0.97416995490E+02  0.00000000000E+00 0.  1.
         21   -1    0    0  502  503 -0.00000000000E+00 -0.00000000000E+00 -0.55353920043E+03  0.55353920043E+03  0.00000000000E+00 0.  1.
          6    1    1    2  501    0 -0.34128658028E+02  0.10622882457E+03 -0.77455135929E+02  0.21994914537E+03  0.17300000000E+03 0.  1.
         -6    1    1    2    0  503  0.34128658028E+02 -0.10622882457E+03 -0.37866706902E+03  0.43100705055E+03  0.17300000000E+03 0.  1.
<mgrwt>
<rscale>  2 0.20585997E+03</rscale>
<asrwt>0</asrwt>
<pdfrwt beam="1">  1       21 0.14987230E-01 0.20585997E+03</pdfrwt>
<pdfrwt beam="2">  1       21 0.85159877E-01 0.20585997E+03</pdfrwt>
<totfact> 0.46562091E+04</totfact>
</mgrwt>
</event>
<event>
 4    1  0.3883260E+000  0.2038591E+03  0.7546771E-02  0.1146523E+00
         21   -1    0    0  501  502  0.00000000000E+00  0.00000000000E+00  0.13839576562E+04  0.13839576562E+04  0.00000000000E+00 0. -1.
         21   -1    0    0  502  503 -0.00000000000E+00 -0.00000000000E+00 -0.44218792169E+02  0.44218792169E+02  0.00000000000E+00 0. -1.
          6    1    1    2  501    0  0.65646907674E+02  0.85557153870E+02  0.10743894375E+04  0.10935589635E+04  0.17300000000E+03 0. -1.
         -6    1    1    2    0  503 -0.65646907674E+02 -0.85557153870E+02  0.26534942648E+03  0.33461748489E+03  0.17300000000E+03 0. -1.
<mgrwt>
<rscale>  2 0.20385913E+03</rscale>
<asrwt>0</asrwt>
<pdfrwt beam="1">  1       21 0.21291653E+00 0.20385913E+03</pdfrwt>
<pdfrwt beam="2">  1       21 0.68028922E-02 0.20385913E+03</pdfrwt>
<totfact> 0.17525020E+04</totfact>
</mgrwt>
</event>
<event>
 4    1  0.3883260E+000  0.2660738E+03  0.7546771E-02  0.1103548E+00
         21   -1    0    0  503  502  0.00000000000E+00  0.00000000000E+00  0.94786225226E+03  0.94786225226E+03  0.00000000000E+00 0.  1.
         21   -1    0    0  501  503 -0.00000000000E+00 -0.00000000000E+00 -0.13881672264E+03  0.13881672264E+03  0.00000000000E+00 0.  1.
          6    1    1    2  501    0 -0.19321617618E+03 -0.59445762835E+02  0.35229119448E+02  0.26839593945E+03  0.17300000000E+03 0.  1.
         -6    1    1    2    0  502  0.19321617618E+03  0.59445762835E+02  0.77381641017E+03  0.81828303545E+03  0.17300000000E+03 0.  1.
<mgrwt>
<rscale>  2 0.26607384E+03</rscale>
<asrwt>0</asrwt>
<pdfrwt beam="1">  1       21 0.14582496E+00 0.26607384E+03</pdfrwt>
<pdfrwt beam="2">  1       21 0.21356420E-01 0.26607384E+03</pdfrwt>
<totfact> 0.62391859E+03</totfact>
</mgrwt>
</event>
<event>
 4    1  0.3883260E+000  0.1846147E+03  0.7546771E-02  0.1163410E+00
         21   -1    0    0  503  502  0.00000000000E+00  0.00000000000E+00  0.27222093731E+03  0.27222093731E+03  0.00000000000E+00 0. -1.
         21   -1    0    0  501  503 -0.00000000000E+00 -0.00000000000E+00 -0.15199183645E+03  0.15199183645E+03  0.00000000000E+00 0. -1.
          6    1    1    2  501    0  0.51553469323E+02  0.38675926678E+02 -0.28934479049E+02  0.18686838037E+03  0.17300000000E+03 0. -1.
         -6    1    1    2    0  502 -0.51553469323E+02 -0.38675926678E+02  0.14916357991E+03  0.23734439340E+03  0.17300000000E+03 0. -1.
<mgrwt>
<rscale>  2 0.18461470E+03</rscale>
<asrwt>0</asrwt>
<pdfrwt beam="1">  1       21 0.41880144E-01 0.18461470E+03</pdfrwt>
<pdfrwt beam="2">  1       21 0.23383360E-01 0.18461470E+03</pdfrwt>
<totfact> 0.94691115E+04</totfact>
</mgrwt>
</event>
<event>
 4    1  0.3883260E+000  0.1821031E+03  0.7546771E-02  0.1165783E+00
         21   -1    0    0  503  502  0.00000000000E+00  0.00000000000E+00  0.15690531762E+03  0.15690531762E+03  0.00000000000E+00 0. -1.
         21   -1    0    0  501  503 -0.00000000000E+00 -0.00000000000E+00 -0.23069051511E+03  0.23069051511E+03  0.00000000000E+00 0.  1.
          6    1    1    2  501    0 -0.56836644822E+02 -0.14550453940E+01 -0.93010074433E+02  0.20448079445E+03  0.17300000000E+03 0.  1.
         -6    1    1    2    0  502  0.56836644822E+02  0.14550453940E+01  0.19224876949E+02  0.18311503828E+03  0.17300000000E+03 0. -1.
<mgrwt>
<rscale>  2 0.18210305E+03</rscale>
<asrwt>0</asrwt>
<pdfrwt beam="1">  1       21 0.24139280E-01 0.18210305E+03</pdfrwt>
<pdfrwt beam="2">  1       21 0.35490848E-01 0.18210305E+03</pdfrwt>
<totfact> 0.12440089E+05</totfact>
</mgrwt>
</event>
<event>
 4    1  0.3883260E+000  0.3702288E+03  0.7546771E-02  0.1054606E+00
         21   -1    0    0  501  502  0.00000000000E+00  0.00000000000E+00  0.17117549805E+04  0.17117549805E+04  0.00000000000E+00 0. -1.
         21   -1    0    0  502  503 -0.00000000000E+00 -0.00000000000E+00 -0.80334734191E+02  0.80334734191E+02  0.00000000000E+00 0.  1.
          6    1    1    2  501    0  0.15648585641E+03 -0.28749351550E+03  0.86662757715E+03  0.94239731652E+03  0.17300000000E+03 0. -1.
         -6    1    1    2    0  503 -0.15648585641E+03  0.28749351550E+03  0.76479266914E+03  0.84969239816E+03  0.17300000000E+03 0.  1.
<mgrwt>
<rscale>  2 0.37022877E+03</rscale>
<asrwt>0</asrwt>
<pdfrwt beam="1">  1       21 0.26334689E+00 0.37022877E+03</pdfrwt>
<pdfrwt beam="2">  1       21 0.12359191E-01 0.37022877E+03</pdfrwt>
<totfact> 0.26818107E+03</totfact>
</mgrwt>
</event>
<event>
 4    1  0.3883260E+000  0.2833806E+03  0.7546771E-02  0.1093857E+00
         21   -1    0    0  503  502  0.00000000000E+00  0.00000000000E+00  0.93679187061E+03  0.93679187061E+03  0.00000000000E+00 0. -1.
         21   -1    0    0  501  503 -0.00000000000E+00 -0.00000000000E+00 -0.97778344286E+02  0.97778344286E+02  0.00000000000E+00 0.  1.
          6    1    1    2  501    0  0.13285719855E+03  0.18089924868E+03  0.23787192983E+03  0.36998328122E+03  0.17300000000E+03 0.  1.
         -6    1    1    2    0  502 -0.13285719855E+03 -0.18089924868E+03  0.60114159650E+03  0.66458693368E+03  0.17300000000E+03 0. -1.
<mgrwt>
<rscale>  2 0.28338062E+03</rscale>
<asrwt>0</asrwt>
<pdfrwt beam="1">  1       21 0.14412182E+00 0.28338062E+03</pdfrwt>
<pdfrwt beam="2">  1       21 0.15042823E-01 0.28338062E+03</pdfrwt>
<totfact> 0.12252030E+04</totfact>
</mgrwt>
</event>
<event>
 4    1  0.3883260E+000  0.2185811E+03  0.7546771E-02  0.1134945E+00
         21   -1    0    0  501  502  0.00000000000E+00  0.00000000000E+00  0.74393303980E+03  0.74393303980E+03  0.00000000000E+00 0.  1.
         21   -1    0    0  502  503 -0.00000000000E+00 -0.00000000000E+00 -0.70838807990E+02  0.70838807990E+02  0.00000000000E+00 0.  1.
          6    1    1    2  501    0 -0.93470542889E+02  0.95456470815E+02  0.46104409587E+03  0.51023459168E+03  0.17300000000E+03 0.  1.
         -6    1    1    2    0  503  0.93470542889E+02 -0.95456470815E+02  0.21205013594E+03  0.30453725611E+03  0.17300000000E+03 0.  1.
<mgrwt>
<rscale>  2 0.21858106E+03</rscale>
<asrwt>0</asrwt>
<pdfrwt beam="1">  1       21 0.11445123E+00 0.21858106E+03</pdfrwt>
<pdfrwt beam="2">  1       21 0.10898279E-01 0.21858106E+03</pdfrwt>
<totfact> 0.40756854E+04</totfact>
</mgrwt>
</event>
<event>
 4    1  0.3883260E+000  0.2141795E+03  0.7546771E-02  0.1138298E+00
         21   -1    0    0  501  502  0.00000000000E+00  0.00000000000E+00  0.60039814102E+03  0.60039814102E+03  0.00000000000E+00 0.  1.
         21   -1    0    0  502  503 -0.00000000000E+00 -0.00000000000E+00 -0.10355680018E+03  0.10355680018E+03  0.00000000000E+00 0.  1.
          6    1    1    2  501    0 -0.12520952114E+03  0.16323445422E+02  0.42865274184E+03  0.47918269182E+03  0.17300000000E+03 0.  1.
         -6    1    1    2    0  503  0.12520952114E+03 -0.16323445422E+02  0.68188598998E+02  0.22477224937E+03  0.17300000000E+03 0.  1.
<mgrwt>
<rscale>  2 0.21417955E+03</rscale>
<asrwt>0</asrwt>
<pdfrwt beam="1">  1       21 0.92368943E-01 0.21417955E+03</pdfrwt>
<pdfrwt beam="2">  1       21 0.15931816E-01 0.21417955E+03</pdfrwt>
<totfact> 0.34356082E+04</totfact>
</mgrwt>
</event>
<event>
 4    1  0.3883260E+000  0.3980311E+03  0.7546771E-02  0.1044464E+00
         21   -1    0    0  501  502  0.00000000000E+00  0.00000000000E+00  0.46227611697E+03  0.46227611697E+03  0.00000000000E+00 0. -1.
         21   -1    0    0  502  503 -0.00000000000E+00 -0.00000000000E+00 -0.68863499217E+03  0.68863499217E+03  0.00000000000E+00 0.  1.
          6    1    1    2  501    0 -0.35514356245E+03 -0.48711803108E+02  0.29467510577E+03  0.49523954575E+03  0.17300000000E+03 0. -1.
         -6    1    1    2    0  503  0.35514356245E+03  0.48711803108E+02 -0.52103398097E+03  0.65567156339E+03  0.17300000000E+03 0.  1.
<mgrwt>
<rscale>  2 0.39803114E+03</rscale>
<asrwt>0</asrwt>
<pdfrwt beam="1">  1       21 0.71119403E-01 0.39803114E+03</pdfrwt>
<pdfrwt beam="2">  1       21 0.10594384E+00 0.39803114E+03</pdfrwt>
<totfact> 0.11141322E+03</totfact>
</mgrwt>
</event>
<event>
 4    1  0.3883260E+000  0.1758422E+03  0.7546771E-02  0.1171889E+00
         21   -1    0    0  501  502  0.00000000000E+00  0.00000000000E+00  0.75446704977E+03  0.75446704977E+03  0.00000000000E+00 0. -1.
         21   -1    0    0  502  503 -0.00000000000E+00 -0.00000000000E+00 -0.41097540779E+02  0.41097540779E+02  0.00000000000E+00 0. -1.
          6    1    1    2  501    0  0.11874747889E+02  0.29162947336E+02  0.33570477662E+03  0.37896989878E+03  0.17300000000E+03 0.  1.
         -6    1    1    2    0  503 -0.11874747889E+02 -0.29162947336E+02  0.37766473237E+03  0.41659469177E+03  0.17300000000E+03 0.  1.
<mgrwt>
<rscale>  2 0.17584222E+03</rscale>
<asrwt>0</asrwt>
<pdfrwt beam="1">  1       21 0.11607184E+00 0.17584222E+03</pdfrwt>
<pdfrwt beam="2">  1       21 0.63226992E-02 0.17584222E+03</pdfrwt>
<totfact> 0.10404670E+05</totfact>
</mgrwt>
</event>
<event>
 4    1  0.3883260E+000  0.1750096E+03  0.7546771E-02  0.1172722E+00
         21   -1    0    0  503  502  0.00000000000E+00  0.00000000000E+00  0.11780304825E+03  0.11780304825E+03  0.00000000000E+00 0.  1.
         21   -1    0    0  501  503 -0.00000000000E+00 -0.00000000000E+00 -0.33299358593E+03  0.33299358593E+03  0.00000000000E+00 0.  1.
          6    1    1    2  501    0  0.11668076803E+02  0.23732023956E+02 -0.21312775874E+03  0.27577489829E+03  0.17300000000E+03 0.  1.
         -6    1    1    2    0  502 -0.11668076803E+02 -0.23732023956E+02 -0.20627789417E+01  0.17502173589E+03  0.17300000000E+03 0.  1.
<mgrwt>
<rscale>  2 0.17500958E+03</rscale>
<asrwt>0</asrwt>
<pdfrwt beam="1">  1       21 0.18123546E-01 0.17500958E+03</pdfrwt>
<pdfrwt beam="2">  1       21 0.51229783E-01 0.17500958E+03</pdfrwt>
<totfact> 0.10108594E+05</totfact>
</mgrwt>
</event>
<event>
 4    1  0.3883260E+000  0.2093242E+03  0.7546771E-02  0.1142102E+00
         21   -1    0    0  503  502  0.00000000000E+00  0.00000000000E+00  0.27992894355E+03  0.27992894355E+03  0.00000000000E+00 0.  1.
         21   -1    0    0  501  503 -0.00000000000E+00 -0.00000000000E+00 -0.28852570560E+03  0.28852570560E+03  0.00000000000E+00 0. -1.
          6    1    1    2  501    0  0.33254179572E+02 -0.11305654637E+03 -0.19654438350E+03  0.28713466844E+03  0.17300000000E+03 0. -1.
         -6    1    1    2    0  502 -0.33254179572E+02  0.11305654637E+03  0.18794762145E+03  0.28131998071E+03  0.17300000000E+03 0.  1.
<mgrwt>
<rscale>  2 0.20932421E+03</rscale>
<asrwt>0</asrwt>
<pdfrwt beam="1">  1       21 0.43065992E-01 0.20932421E+03</pdfrwt>
<pdfrwt beam="2">  1       21 0.44388570E-01 0.20932421E+03</pdfrwt>
<totfact> 0.25029370E+04</totfact>
</mgrwt>
</event>
<event>
 4    1  0.3883260E+000  0.1985424E+03  0.7546771E-02  0.1150975E+00
         21   -1    0    0  501  502  0.00000000000E+00  0.00000000000E+00  0.20023420613E+03  0.20023420613E+03  0.00000000000E+00 0.  1.
         21   -1    0    0  502  503 -0.00000000000E+00 -0.00000000000E+00 -0.50369094802E+03  0.50369094802E+03  0.00000000000E+00 0.  1.
          6    1    1    2  501    0 -0.77879148316E+02  0.58522788231E+02  0.12297283061E+03  0.23354099330E+03  0.17300000000E+03 0.  1.
         -6    1    1    2    0  503  0.77879148316E+02 -0.58522788231E+02 -0.42642957249E+03  0.47038416085E+03  0.17300000000E+03 0.  1.
<mgrwt>
<rscale>  2 0.19854238E+03</rscale>
<asrwt>0</asrwt>
<pdfrwt beam="1">  1       21 0.30805263E-01 0.19854238E+03</pdfrwt>
<pdfrwt beam="2">  1       21 0.77490914E-01 0.19854238E+03</pdfrwt>
<totfact> 0.14896905E+04</totfact>
</mgrwt>
</event>
<event>
 4    1  0.3883260E+000  0.2967109E+03  0.7546771E-02  0.1086896E+00
         21   -1    0    0  501  502  0.00000000000E+00  0.00000000000E+00  0.62218304791E+03  0.62218304791E+03  0.00000000000E+00 0.  1.
         21   -1    0    0  502  503 -0.00000000000E+00 -0.00000000000E+00 -0.20439460539E+03  0.20439460539E+03  0.00000000000E+00 0. -1.
          6    1    1    2  501    0  0.21296006489E+03 -0.11294402990E+03  0.43815739180E+03  0.52916844494E+03  0.17300000000E+03 0. -1.
         -6    1    1    2    0  503 -0.21296006489E+03  0.11294402990E+03 -0.20368949288E+02  0.29740920836E+03  0.17300000000E+03 0.  1.
<mgrwt>
<rscale>  2 0.29671087E+03</rscale>
<asrwt>0</asrwt>
<pdfrwt beam="1">  1       21 0.95720468E-01 0.29671087E+03</pdfrwt>
<pdfrwt beam="2">  1       21 0.31445324E-01 0.29671087E+03</pdfrwt>
<totfact> 0.83147518E+03</totfact>
</mgrwt>
</event>
<event>
 4    1  0.3883260E+000  0.1804119E+03  0.7546771E-02  0.1167405E+00
         21   -1    0    0  503  502  0.00000000000E+00  0.00000000000E+00  0.23108583836E+02  0.23108583836E+02  0.00000000000E+00 0.  1.
         21   -1    0    0  501  503 -0.00000000000E+00 -0.00000000000E+00 -0.18051467086E+04  0.18051467086E+04  0.00000000000E+00 0.  1.
          6    1    1    2  501    0 -0.32519040420E+01 -0.51077197457E+02 -0.13195203904E+04  0.13317967246E+04  0.17300000000E+03 0.  1.
         -6    1    1    2    0  502  0.32519040420E+01  0.51077197457E+02 -0.46251773445E+03  0.49645856792E+03  0.17300000000E+03 0.  1.
<mgrwt>
<rscale>  2 0.18041190E+03</rscale>
<asrwt>0</asrwt>
<pdfrwt beam="1">  1       21 0.35551667E-02 0.18041190E+03</pdfrwt>
<pdfrwt beam="2">  1       21 0.27771488E+00 0.18041190E+03</pdfrwt>
<totfact> 0.22149489E+04</totfact>
</mgrwt>
</event>
<event>
 4    1  0.3883260E+000  0.1752912E+03  0.7546771E-02  0.1172440E+00
         21   -1    0    0  501  502  0.00000000000E+00  0.00000000000E+00  0.18310456141E+03  0.18310456141E+03  0.00000000000E+00 0.  1.
         21   -1    0    0  502  503 -0.00000000000E+00 -0.00000000000E+00 -0.20311334007E+03  0.20311334007E+03  0.00000000000E+00 0.  1.
          6    1    1    2  501    0  0.26346695310E+02 -0.10190482692E+02  0.70502632339E+02  0.18893812600E+03  0.17300000000E+03 0.  1.
         -6    1    1    2    0  503 -0.26346695310E+02  0.10190482692E+02 -0.90511411004E+02  0.19727977548E+03  0.17300000000E+03 0.  1.
<mgrwt>
<rscale>  2 0.17529117E+03</rscale>
<asrwt>0</asrwt>
<pdfrwt beam="1">  1       21 0.28169932E-01 0.17529117E+03</pdfrwt>
<pdfrwt beam="2">  1       21 0.31248206E-01 0.17529117E+03</pdfrwt>
<totfact> 0.11922863E+05</totfact>
</mgrwt>
</event>
<event>
 4    1  0.3883260E+000  0.2250976E+03  0.7546771E-02  0.1130139E+00
         21   -1    0    0  501  502  0.00000000000E+00  0.00000000000E+00  0.27191557473E+03  0.27191557473E+03  0.00000000000E+00 0. -1.
         21   -1    0    0  502  503 -0.00000000000E+00 -0.00000000000E+00 -0.36224397718E+03  0.36224397718E+03  0.00000000000E+00 0. -1.
          6    1    1    2  501    0  0.10498328391E+03  0.98582218727E+02  0.17579134007E+03  0.28560731607E+03  0.17300000000E+03 0. -1.
         -6    1    1    2    0  503 -0.10498328391E+03 -0.98582218727E+02 -0.26611974252E+03  0.34855223584E+03  0.17300000000E+03 0. -1.
<mgrwt>
<rscale>  2 0.22509763E+03</rscale>
<asrwt>0</asrwt>
<pdfrwt beam="1">  1       21 0.41833165E-01 0.22509763E+03</pdfrwt>
<pdfrwt beam="2">  1       21 0.55729843E-01 0.22509763E+03</pdfrwt>
<totfact> 0.16363104E+04</totfact>
</mgrwt>
</event>
<event>
 4    1  0.3883260E+000  0.2091395E+03  0.7546771E-02  0.1142249E+00
         21   -1    0    0  501  502  0.00000000000E+00  0.00000000000E+00  0.62424200487E+03  0.62424200487E+03  0.00000000000E+00 0.  1.
         21   -1    0    0  502  503 -0.00000000000E+00 -0.00000000000E+00 -0.76054801802E+02  0.76054801802E+02  0.00000000000E+00 0. -1.
          6    1    1    2  501    0  0.53277450554E+02 -0.10474663921E+03  0.37233370395E+03  0.42705003484E+03  0.17300000000E+03 0.  1.
         -6    1    1    2    0  503 -0.53277450554E+02  0.10474663921E+03  0.17585349912E+03  0.27324677183E+03  0.17300000000E+03 0. -1.
<mgrwt>
<rscale>  2 0.20913954E+03</rscale>
<asrwt>0</asrwt>
<pdfrwt beam="1">  1       21 0.96037228E-01 0.20913954E+03</pdfrwt>
<pdfrwt beam="2">  1       21 0.11700739E-01 0.20913954E+03</pdfrwt>
<totfact> 0.54990169E+04</totfact>
</mgrwt>
</event>
<event>
 4    1  0.3883260E+000  0.1731669E+03  0.7546771E-02  0.1174585E+00
         21   -1    0    0  501  502  0.00000000000E+00  0.00000000000E+00  0.20889078695E+04  0.20889078695E+04  0.00000000000E+00 0.  1.
         21   -1    0    0  502  503 -0.00000000000E+00 -0.00000000000E+00 -0.16333193843E+02  0.16333193843E+02  0.00000000000E+00 0.  1.
          6    1    1    2  501    0  0.32301682377E+01  0.68795416062E+01  0.14025941297E+04  0.14132434520E+04  0.17300000000E+03 0.  1.
         -6    1    1    2    0  503 -0.32301682377E+01 -0.68795416062E+01  0.66998054592E+03  0.69199761126E+03  0.17300000000E+03 0.  1.
<mgrwt>
<rscale>  2 0.17316686E+03</rscale>
<asrwt>0</asrwt>
<pdfrwt beam="1">  1       21 0.32137023E+00 0.17316686E+03</pdfrwt>
<pdfrwt beam="2">  1       21 0.25128007E-02 0.17316686E+03</pdfrwt>
<totfact> 0.22245677E+04</totfact>
</mgrwt>
</event>
<event>
 4    1  0.3883260E+000  0.3035562E+03  0.7546771E-02  0.1083476E+00
         21   -1    0    0  503  502  0.00000000000E+00  0.00000000000E+00  0.26810424716E+03  0.26810424716E+03  0.00000000000E+00 0.  1.
         21   -1    0    0  501  503 -0.00000000000E+00 -0.00000000000E+00 -0.67112079115E+03  0.67112079115E+03  0.00000000000E+00 0.  1.
          6    1    1    2  501    0  0.22972265313E+03  0.97184728518E+02 -0.52952430389E+03  0.61036248019E+03  0.17300000000E+03 0.  1.
         -6    1    1    2    0  502 -0.22972265313E+03 -0.97184728518E+02  0.12650775989E+03  0.32886255812E+03  0.17300000000E+03 0.  1.
<mgrwt>
<rscale>  2 0.30355620E+03</rscale>
<asrwt>0</asrwt>
<pdfrwt beam="1">  1       21 0.41246808E-01 0.30355620E+03</pdfrwt>
<pdfrwt beam="2">  1       21 0.10324935E+00 0.30355620E+03</pdfrwt>
<totfact> 0.40008350E+03</totfact>
</mgrwt>
</event>
<event>
 4    1  0.3883260E+000  0.1781415E+03  0.7546771E-02  0.1169614E+00
         21   -1    0    0  503  502  0.00000000000E+00  0.00000000000E+00  0.32520980865E+03  0.32520980865E+03  0.00000000000E+00 0.  1.
         21   -1    0    0  501  503 -0.00000000000E+00 -0.00000000000E+00 -0.10837415220E+03  0.10837415220E+03  0.00000000000E+00 0.  1.
          6    1    1    2  501    0  0.37824567809E+02 -0.19356690200E+02  0.40003117846E+02  0.18257773364E+03  0.17300000000E+03 0.  1.
         -6    1    1    2    0  502 -0.37824567809E+02  0.19356690200E+02  0.17683253860E+03  0.25100622720E+03  0.17300000000E+03 0.  1.
<mgrwt>
<rscale>  2 0.17814146E+03</rscale>
<asrwt>0</asrwt>
<pdfrwt beam="1">  1       21 0.50032278E-01 0.17814146E+03</pdfrwt>
<pdfrwt beam="2">  1       21 0.16672947E-01 0.17814146E+03</pdfrwt>
<totfact> 0.12365998E+05</totfact>
</mgrwt>
</event>
<event>
 4    1  0.3883260E+000  0.1929247E+03  0.7546771E-02  0.1155850E+00
         21   -1    0    0  501  502  0.00000000000E+00  0.00000000000E+00  0.94383951148E+02  0.94383951148E+02  0.00000000000E+00 0.  1.
         21   -1    0    0  502  503 -0.00000000000E+00 -0.00000000000E+00 -0.42914650665E+03  0.42914650665E+03  0.00000000000E+00 0.  1.
          6    1    1    2  501    0 -0.85384200970E+02  0.68817454802E+00 -0.92839141705E+02  0.21410054085E+03  0.17300000000E+03 0. -1.
         -6    1    1    2    0  503  0.85384200970E+02 -0.68817454802E+00 -0.24192341380E+03  0.30942991695E+03  0.17300000000E+03 0. -1.
<mgrwt>
<rscale>  2 0.19292469E+03</rscale>
<asrwt>0</asrwt>
<pdfrwt beam="1">  1       21 0.14520608E-01 0.19292469E+03</pdfrwt>
<pdfrwt beam="2">  1       21 0.66022538E-01 0.19292469E+03</pdfrwt>
<totfact> 0.87662844E+04</totfact>
</mgrwt>
</event>
<event>
 4    1  0.3883260E+000  0.3210508E+03  0.7546771E-02  0.1075167E+00
         21   -1    0    0  501  502  0.00000000000E+00  0.00000000000E+00  0.16554384840E+03  0.16554384840E+03  0.00000000000E+00 0. -1.
         21   -1    0    0  502  503 -0.00000000000E+00 -0.00000000000E+00 -0.66990470269E+03  0.66990470269E+03  0.00000000000E+00 0.  1.
          6    1    1    2  501    0 -0.18054963936E+03 -0.20136148031E+03 -0.14121992301E+03  0.35073734430E+03  0.17300000000E+03 0.  1.
         -6    1    1    2    0  503  0.18054963936E+03  0.20136148031E+03 -0.36314093127E+03  0.48471120679E+03  0.17300000000E+03 0. -1.
<mgrwt>
<rscale>  2 0.32105080E+03</rscale>
<asrwt>0</asrwt>
<pdfrwt beam="1">  1       21 0.25468285E-01 0.32105080E+03</pdfrwt>
<pdfrwt beam="2">  1       21 0.10306226E+00 0.32105080E+03</pdfrwt>
<totfact> 0.10404115E+04</totfact>
</mgrwt>
</event>
<event>
 4    1  0.3883260E+000  0.1995562E+03  0.7546771E-02  0.1150114E+00
         21   -1    0    0  501  502  0.00000000000E+00  0.00000000000E+00  0.95870600153E+02  0.95870600153E+02  0.00000000000E+00 0. -1.
         21   -1    0    0  502  503 -0.00000000000E+00 -0.00000000000E+00 -0.72894662908E+03  0.72894662908E+03  0.00000000000E+00 0. -1.
          6    1    1    2  501    0 -0.45540022477E+02 -0.88429469921E+02 -0.46051728085E+02  0.20480094350E+03  0.17300000000E+03 0. -1.
         -6    1    1    2    0  503  0.45540022477E+02  0.88429469921E+02 -0.58702430084E+03  0.62001628573E+03  0.17300000000E+03 0. -1.
<mgrwt>
<rscale>  2 0.19955617E+03</rscale>
<asrwt>0</asrwt>
<pdfrwt beam="1">  1       21 0.14749323E-01 0.19955617E+03</pdfrwt>
<pdfrwt beam="2">  1       21 0.11214563E+00 0.19955617E+03</pdfrwt>
<totfact> 0.25104309E+04</totfact>
</mgrwt>
</event>
<event>
 4    1  0.3883260E+000  0.1845410E+03  0.7546771E-02  0.1163479E+00
         21   -1    0    0  503  502  0.00000000000E+00  0.00000000000E+00  0.16279419112E+02  0.16279419112E+02  0.00000000000E+00 0. -1.
         21   -1    0    0  501  503 -0.00000000000E+00 -0.00000000000E+00 -0.32961511662E+04  0.32961511662E+04  0.00000000000E+00 0. -1.
          6    1    1    2  501    0 -0.33840747460E+02  0.54600237670E+02 -0.26410108689E+04  0.26474504324E+04  0.17300000000E+03 0. -1.
         -6    1    1    2    0  502  0.33840747460E+02 -0.54600237670E+02 -0.63886087815E+03  0.66498015291E+03  0.17300000000E+03 0. -1.
<mgrwt>
<rscale>  2 0.18454100E+03</rscale>
<asrwt>0</asrwt>
<pdfrwt beam="1">  1       21 0.25045275E-02 0.18454100E+03</pdfrwt>
<pdfrwt beam="2">  1       21 0.50709989E+00 0.18454100E+03</pdfrwt>
<totfact> 0.14558714E+03</totfact>
</mgrwt>
</event>
<event>
 4    1  0.3883260E+000  0.2738592E+03  0.7546771E-02  0.1099091E+00
         21   -1    0    0  501  502  0.00000000000E+00  0.00000000000E+00  0.69967793078E+03  0.69967793078E+03  0.00000000000E+00 0.  1.
         21   -1    0    0  502  503 -0.00000000000E+00 -0.00000000000E+00 -0.11880556979E+03  0.11880556979E+03  0.00000000000E+00 0. -1.
          6    1    1    2  501    0  0.18633386200E+03 -0.10173277284E+03  0.41839535517E+03  0.50005353556E+03  0.17300000000E+03 0. -1.
         -6    1    1    2    0  503 -0.18633386200E+03  0.10173277284E+03  0.16247700581E+03  0.31842996501E+03  0.17300000000E+03 0. -1.
<mgrwt>
<rscale>  2 0.27385921E+03</rscale>
<asrwt>0</asrwt>
<pdfrwt beam="1">  1       21 0.10764276E+00 0.27385921E+03</pdfrwt>
<pdfrwt beam="2">  1       21 0.18277780E-01 0.27385921E+03</pdfrwt>
<totfact> 0.17957112E+04</totfact>
</mgrwt>
</event>
<event>
 4    1  0.3883260E+000  0.1779062E+03  0.7546771E-02  0.1169845E+00
         21   -1    0    0  503  502  0.00000000000E+00  0.00000000000E+00  0.42568372379E+03  0.42568372379E+03  0.00000000000E+00 0. -1.
         21   -1    0    0  501  503 -0.00000000000E+00 -0.00000000000E+00 -0.81329212593E+02  0.81329212593E+02  0.00000000000E+00 0. -1.
          6    1    1    2  501    0  0.34140738051E+02 -0.23580010734E+02  0.97927631257E+02  0.20307739378E+03  0.17300000000E+03 0. -1.
         -6    1    1    2    0  502 -0.34140738051E+02  0.23580010734E+02  0.24642687994E+03  0.30393554261E+03  0.17300000000E+03 0. -1.
<mgrwt>
<rscale>  2 0.17790617E+03</rscale>
<asrwt>0</asrwt>
<pdfrwt beam="1">  1       21 0.65489802E-01 0.17790617E+03</pdfrwt>
<pdfrwt beam="2">  1       21 0.12512187E-01 0.17790617E+03</pdfrwt>
<totfact> 0.11737618E+05</totfact>
</mgrwt>
</event>
<event>
 4    1  0.3883260E+000  0.1778243E+03  0.7546771E-02  0.1169925E+00
         21   -1    0    0  503  502  0.00000000000E+00  0.00000000000E+00  0.53510855780E+02  0.53510855780E+02  0.00000000000E+00 0. -1.
         21   -1    0    0  501  503 -0.00000000000E+00 -0.00000000000E+00 -0.13646998589E+04  0.13646998589E+04  0.00000000000E+00 0. -1.
          6    1    1    2  501    0 -0.32901288530E+02 -0.24697724587E+02 -0.11895394862E+04  0.12027575240E+04  0.17300000000E+03 0. -1.
         -6    1    1    2    0  502  0.32901288530E+02  0.24697724587E+02 -0.12164951689E+03  0.21545319061E+03  0.17300000000E+03 0. -1.
<mgrwt>
<rscale>  2 0.17782427E+03</rscale>
<asrwt>0</asrwt>
<pdfrwt beam="1">  1       21 0.82324398E-02 0.17782427E+03</pdfrwt>
<pdfrwt beam="2">  1       21 0.20995381E+00 0.17782427E+03</pdfrwt>
<totfact> 0.13424044E+04</totfact>
</mgrwt>
</event>
<event>
 4    1  0.3883260E+000  0.1832071E+03  0.7546771E-02  0.1164735E+00
         21   -1    0    0  503  502  0.00000000000E+00  0.00000000000E+00  0.22140673976E+03  0.22140673976E+03  0.00000000000E+00 0.  1.
         21   -1    0    0  501  503 -0.00000000000E+00 -0.00000000000E+00 -0.18374690143E+03  0.18374690143E+03  0.00000000000E+00 0.  1.
          6    1    1    2  501    0  0.50616692100E+02 -0.32768860102E+02 -0.65904904351E+02  0.19470054989E+03  0.17300000000E+03 0. -1.
         -6    1    1    2    0  502 -0.50616692100E+02  0.32768860102E+02  0.10356474268E+03  0.21045309130E+03  0.17300000000E+03 0. -1.
<mgrwt>
<rscale>  2 0.18320712E+03</rscale>
<asrwt>0</asrwt>
<pdfrwt beam="1">  1       21 0.34062575E-01 0.18320712E+03</pdfrwt>
<pdfrwt beam="2">  1       21 0.28268754E-01 0.18320712E+03</pdfrwt>
<totfact> 0.99674871E+04</totfact>
</mgrwt>
</event>
<event>
 4    1  0.3883260E+000  0.1784136E+03  0.7546771E-02  0.1169347E+00
         21   -1    0    0  501  502  0.00000000000E+00  0.00000000000E+00  0.79624654793E+02  0.79624654793E+02  0.00000000000E+00 0. -1.
         21   -1    0    0  502  503 -0.00000000000E+00 -0.00000000000E+00 -0.17958392831E+04  0.17958392831E+04  0.00000000000E+00 0. -1.
          6    1    1    2  501    0 -0.41488562056E+02  0.13457285587E+02 -0.31310555745E+02  0.18114013972E+03  0.17300000000E+03 0. -1.
         -6    1    1    2    0  503  0.41488562056E+02 -0.13457285587E+02 -0.16849040725E+04  0.16943237981E+04  0.17300000000E+03 0. -1.
<mgrwt>
<rscale>  2 0.17841356E+03</rscale>
<asrwt>0</asrwt>
<pdfrwt beam="1">  1       21 0.12249948E-01 0.17841356E+03</pdfrwt>
<pdfrwt beam="2">  1       21 0.27628295E+00 0.17841356E+03</pdfrwt>
<totfact> 0.26905383E+03</totfact>
</mgrwt>
</event>
<event>
 4    1  0.3883260E+000  0.2680706E+03  0.7546771E-02  0.1102389E+00
         21   -1    0    0  503  502  0.00000000000E+00  0.00000000000E+00  0.39478365808E+03  0.39478365808E+03  0.00000000000E+00 0. -1.
         21   -1    0    0  501  503 -0.00000000000E+00 -0.00000000000E+00 -0.19633350050E+03  0.19633350050E+03  0.00000000000E+00 0.  1.
          6    1    1    2  501    0  0.16070551888E+03 -0.12691164179E+03  0.19445421148E+02  0.26877491145E+03  0.17300000000E+03 0. -1.
         -6    1    1    2    0  502 -0.16070551888E+03  0.12691164179E+03  0.17900473643E+03  0.32234224713E+03  0.17300000000E+03 0.  1.
<mgrwt>
<rscale>  2 0.26807057E+03</rscale>
<asrwt>0</asrwt>
<pdfrwt beam="1">  1       21 0.60735947E-01 0.26807057E+03</pdfrwt>
<pdfrwt beam="2">  1       21 0.30205154E-01 0.26807057E+03</pdfrwt>
<totfact> 0.25559784E+04</totfact>
</mgrwt>
</event>
<event>
 4    1  0.3883260E+000  0.2161726E+03  0.7546771E-02  0.1136769E+00
         21   -1    0    0  503  502  0.00000000000E+00  0.00000000000E+00  0.46173929035E+03  0.46173929035E+03  0.00000000000E+00 0.  1.
         21   -1    0    0  501  503 -0.00000000000E+00 -0.00000000000E+00 -0.39091281965E+03  0.39091281965E+03  0.00000000000E+00 0. -1.
          6    1    1    2  501    0  0.14103223020E+02 -0.12885148673E+03 -0.33159986848E+03  0.39583971416E+03  0.17300000000E+03 0. -1.
         -6    1    1    2    0  502 -0.14103223020E+02  0.12885148673E+03  0.40242633918E+03  0.45681239584E+03  0.17300000000E+03 0.  1.
<mgrwt>
<rscale>  2 0.21617263E+03</rscale>
<asrwt>0</asrwt>
<pdfrwt beam="1">  1       21 0.71036813E-01 0.21617263E+03</pdfrwt>
<pdfrwt beam="2">  1       21 0.60140434E-01 0.21617263E+03</pdfrwt>
<totfact> 0.45415867E+03</totfact>
</mgrwt>
</event>
<event>
 4    1  0.3883260E+000  0.2019465E+03  0.7546771E-02  0.1148107E+00
         21   -1    0    0  503  502  0.00000000000E+00  0.00000000000E+00  0.49322862617E+02  0.49322862617E+02  0.00000000000E+00 0. -1.
         21   -1    0    0  501  503 -0.00000000000E+00 -0.00000000000E+00 -0.85672061462E+03  0.85672061462E+03  0.00000000000E+00 0.  1.
          6    1    1    2  501    0  0.25744680140E+01 -0.10414780331E+03 -0.48829556524E+03  0.52840794075E+03  0.17300000000E+03 0.  1.
         -6    1    1    2    0  502 -0.25744680140E+01  0.10414780331E+03 -0.31910218677E+03  0.37763553649E+03  0.17300000000E+03 0.  1.
<mgrwt>
<rscale>  2 0.20194651E+03</rscale>
<asrwt>0</asrwt>
<pdfrwt beam="1">  1       21 0.75881327E-02 0.20194651E+03</pdfrwt>
<pdfrwt beam="2">  1       21 0.13180317E+00 0.20194651E+03</pdfrwt>
<totfact> 0.54644500E+04</totfact>
</mgrwt>
</event>
<event>
 4    1  0.3883260E+000  0.2553973E+03  0.7546771E-02  0.1109941E+00
         21   -1    0    0  503  502  0.00000000000E+00  0.00000000000E+00  0.62217265577E+03  0.62217265577E+03  0.00000000000E+00 0.  1.
         21   -1    0    0  501  503 -0.00000000000E+00 -0.00000000000E+00 -0.23719933047E+03  0.23719933047E+03  0.00000000000E+00 0. -1.
          6    1    1    2  501    0 -0.15785072539E+03 -0.10189178291E+03 -0.12849028491E+03  0.28589777937E+03  0.17300000000E+03 0. -1.
         -6    1    1    2    0  502  0.15785072539E+03  0.10189178291E+03  0.51346361022E+03  0.57347420687E+03  0.17300000000E+03 0.  1.
<mgrwt>
<rscale>  2 0.25539731E+03</rscale>
<asrwt>0</asrwt>
<pdfrwt beam="1">  1       21 0.95718869E-01 0.25539731E+03</pdfrwt>
<pdfrwt beam="2">  1       21 0.36492205E-01 0.25539731E+03</pdfrwt>
<totfact> 0.63169697E+03</totfact>
</mgrwt>
</event>
<event>
 4    1  0.3883260E+000  0.2519601E+03  0.7546771E-02  0.1112072E+00
         21   -1    0    0  501  502  0.00000000000E+00  0.00000000000E+00  0.88599689014E+03  0.88599689014E+03  0.00000000000E+00 0. -1.
         21   -1    0    0  502  503 -0.00000000000E+00 -0.00000000000E+00 -0.73182624675E+02  0.73182624675E+02  0.00000000000E+00 0.  1.
          6    1    1    2  501    0  0.13691453382E+03 -0.12169339216E+03  0.47575492927E+03  0.53835548106E+03  0.17300000000E+03 0.  1.
         -6    1    1    2    0  503 -0.13691453382E+03  0.12169339216E+03  0.33705933620E+03  0.42082403375E+03  0.17300000000E+03 0. -1.
<mgrwt>
<rscale>  2 0.25196006E+03</rscale>
<asrwt>0</asrwt>
<pdfrwt beam="1">  1       21 0.13630721E+00 0.25196006E+03</pdfrwt>
<pdfrwt beam="2">  1       21 0.11258866E-01 0.25196006E+03</pdfrwt>
<totfact> 0.24363386E+04</totfact>
</mgrwt>
</event>
<event>
 4    1  0.3883260E+000  0.1820697E+03  0.7546771E-02  0.1165815E+00
         21   -1    0    0  501  502  0.00000000000E+00  0.00000000000E+00  0.16617807456E+03  0.16617807456E+03  0.00000000000E+00 0. -1.
         21   -1    0    0  502  503 -0.00000000000E+00 -0.00000000000E+00 -0.34358711187E+03  0.34358711187E+03  0.00000000000E+00 0. -1.
          6    1    1    2  501    0 -0.54332772349E+02 -0.16380520604E+02  0.76363491757E+02  0.19743544383E+03  0.17300000000E+03 0. -1.
         -6    1    1    2    0  503  0.54332772349E+02  0.16380520604E+02 -0.25377252907E+03  0.31232974261E+03  0.17300000000E+03 0. -1.
<mgrwt>
<rscale>  2 0.18206969E+03</rscale>
<asrwt>0</asrwt>
<pdfrwt beam="1">  1       21 0.25565858E-01 0.18206969E+03</pdfrwt>
<pdfrwt beam="2">  1       21 0.52859556E-01 0.18206969E+03</pdfrwt>
<totfact> 0.49466251E+04</totfact>
</mgrwt>
</event>
<event>
 4    1  0.3883260E+000  0.1956037E+03  0.7546771E-02  0.1153502E+00
         21   -1    0    0  503  502  0.00000000000E+00  0.00000000000E+00  0.20464717199E+03  0.20464717199E+03  0.00000000000E+00 0.  1.
         21   -1    0    0  501  503 -0.00000000000E+00 -0.00000000000E+00 -0.18696237185E+03  0.18696237185E+03  0.00000000000E+00 0.  1.
          6    1    1    2  501    0  0.36956730997E+02 -0.83462601073E+02  0.95607143897E+01  0.19583721047E+03  0.17300000000E+03 0.  1.
         -6    1    1    2    0  502 -0.36956730997E+02  0.83462601073E+02  0.81240857488E+01  0.19577233337E+03  0.17300000000E+03 0.  1.
<mgrwt>
<rscale>  2 0.19560370E+03</rscale>
<asrwt>0</asrwt>
<pdfrwt beam="1">  1       21 0.31484180E-01 0.19560370E+03</pdfrwt>
<pdfrwt beam="2">  1       21 0.28763442E-01 0.19560370E+03</pdfrwt>
<totfact> 0.11201664E+05</totfact>
</mgrwt>
</event>
<event>
 4    1  0.3883260E+000  0.1773349E+03  0.7546771E-02  0.1170408E+00
         21   -1    0    0  501  502  0.00000000000E+00  0.00000000000E+00  0.16825453529E+03  0.16825453529E+03  0.00000000000E+00 0. -1.
         21   -1    0    0  502  503 -0.00000000000E+00 -0.00000000000E+00 -0.22391920847E+03  0.22391920847E+03  0.00000000000E+00 0. -1.
          6    1    1    2  501    0 -0.16908013553E+02 -0.35110930933E+02  0.51891010882E+02  0.18477103508E+03  0.17300000000E+03 0. -1.
         -6    1    1    2    0  503  0.16908013553E+02  0.35110930933E+02 -0.10755568406E+03  0.20740270868E+03  0.17300000000E+03 0. -1.
<mgrwt>
<rscale>  2 0.17733488E+03</rscale>
<asrwt>0</asrwt>
<pdfrwt beam="1">  1       21 0.25885313E-01 0.17733488E+03</pdfrwt>
<pdfrwt beam="2">  1       21 0.34449109E-01 0.17733488E+03</pdfrwt>
<totfact> 0.11571664E+05</totfact>
</mgrwt>
</event>
<event>
 4    1  0.3883260E+000  0.2001446E+03  0.7546771E-02  0.1149617E+00
         21   -1    0    0  501  502  0.00000000000E+00  0.00000000000E+00  0.76368911723E+02  0.76368911723E+02  0.00000000000E+00 0.  1.
         21   -1    0    0  502  503 -0.00000000000E+00 -0.00000000000E+00 -0.61696378868E+03  0.61696378868E+03  0.00000000000E+00 0. -1.
          6    1    1    2  501    0  0.73240432460E+01  0.10037545186E+03 -0.13611535509E+03  0.24204392749E+03  0.17300000000E+03 0.  1.
         -6    1    1    2    0  503 -0.73240432460E+01 -0.10037545186E+03 -0.40447952187E+03  0.45128877291E+03  0.17300000000E+03 0.  1.
<mgrwt>
<rscale>  2 0.20014463E+03</rscale>
<asrwt>0</asrwt>
<pdfrwt beam="1">  1       21 0.11749064E-01 0.20014463E+03</pdfrwt>
<pdfrwt beam="2">  1       21 0.94917504E-01 0.20014463E+03</pdfrwt>
<totfact> 0.56357987E+04</totfact>
</mgrwt>
</event>
<event>
 4    1  0.3883260E+000  0.1838481E+03  0.7546771E-02  0.1164130E+00
         21   -1    0    0  503  502  0.00000000000E+00  0.00000000000E+00  0.59467946825E+03  0.59467946825E+03  0.00000000000E+00 0.  1.
         21   -1    0    0  501  503 -0.00000000000E+00 -0.00000000000E+00 -0.89745120784E+02  0.89745120784E+02  0.00000000000E+00 0.  1.
          6    1    1    2  501    0 -0.58024084650E+02 -0.22457447819E+02  0.45244145708E+02  0.18933347322E+03  0.17300000000E+03 0.  1.
         -6    1    1    2    0  502  0.58024084650E+02  0.22457447819E+02  0.45969020176E+03  0.49509111581E+03  0.17300000000E+03 0.  1.
<mgrwt>
<rscale>  2 0.18384812E+03</rscale>
<asrwt>0</asrwt>
<pdfrwt beam="1">  1       21 0.91489146E-01 0.18384812E+03</pdfrwt>
<pdfrwt beam="2">  1       21 0.13806942E-01 0.18384812E+03</pdfrwt>
<totfact> 0.46317089E+04</totfact>
</mgrwt>
</event>
<event>
 4    1  0.3883260E+000  0.1828179E+03  0.7546771E-02  0.1165103E+00
         21   -1    0    0  501  502  0.00000000000E+00  0.00000000000E+00  0.24294294716E+03  0.24294294716E+03  0.00000000000E+00 0.  1.
         21   -1    0    0  502  503 -0.00000000000E+00 -0.00000000000E+00 -0.18098326679E+03  0.18098326679E+03  0.00000000000E+00 0.  1.
          6    1    1    2  501    0 -0.35138055314E+02 -0.47525806915E+02  0.13478941013E+03  0.22713557700E+03  0.17300000000E+03 0.  1.
         -6    1    1    2    0  503  0.35138055314E+02  0.47525806915E+02 -0.72829729759E+02  0.19679063695E+03  0.17300000000E+03 0.  1.
<mgrwt>
<rscale>  2 0.18281790E+03</rscale>
<asrwt>0</asrwt>
<pdfrwt beam="1">  1       21 0.37375838E-01 0.18281790E+03</pdfrwt>
<pdfrwt beam="2">  1       21 0.27843580E-01 0.18281790E+03</pdfrwt>
<totfact> 0.85361102E+04</totfact>
</mgrwt>
</event>
<event>
 4    1  0.3883260E+000  0.2050479E+03  0.7546771E-02  0.1145549E+00
         21   -1    0    0  501  502  0.00000000000E+00  0.00000000000E+00  0.17172620515E+03  0.17172620515E+03  0.00000000000E+00 0. -1.
         21   -1    0    0  502  503 -0.00000000000E+00 -0.00000000000E+00 -0.30289238916E+03  0.30289238916E+03  0.00000000000E+00 0. -1.
          6    1    1    2  501    0  0.52873932323E+02  0.96540163406E+02  0.38312659656E+02  0.20859653823E+03  0.17300000000E+03 0. -1.
         -6    1    1    2    0  503 -0.52873932323E+02 -0.96540163406E+02 -0.16947884367E+03  0.26602205608E+03  0.17300000000E+03 0. -1.
<mgrwt>
<rscale>  2 0.20504794E+03</rscale>
<asrwt>0</asrwt>
<pdfrwt beam="1">  1       21 0.26419416E-01 0.20504794E+03</pdfrwt>
<pdfrwt beam="2">  1       21 0.46598829E-01 0.20504794E+03</pdfrwt>
<totfact> 0.59749368E+04</totfact>
</mgrwt>
</event>
<event>
 4    1  0.3883260E+000  0.3182564E+03  0.7546771E-02  0.1076455E+00
         21   -1    0    0  503  502  0.00000000000E+00  0.00000000000E+00  0.36657107222E+03  0.36657107222E+03  0.00000000000E+00 0.  1.
         21   -1    0    0  501  503 -0.00000000000E+00 -0.00000000000E+00 -0.28510923397E+03  0.28510923397E+03  0.00000000000E+00 0. -1.
          6    1    1    2  501    0 -0.26566657179E+03 -0.27917637225E+02 -0.16513113443E+02  0.31868449091E+03  0.17300000000E+03 0. -1.
         -6    1    1    2    0  502  0.26566657179E+03  0.27917637225E+02  0.97974951686E+02  0.33299581528E+03  0.17300000000E+03 0.  1.
<mgrwt>
<rscale>  2 0.31825638E+03</rscale>
<asrwt>0</asrwt>
<pdfrwt beam="1">  1       21 0.56395550E-01 0.31825638E+03</pdfrwt>
<pdfrwt beam="2">  1       21 0.43862959E-01 0.31825638E+03</pdfrwt>
<totfact> 0.13851466E+04</totfact>
</mgrwt>
</event>
<event>
 4    1  0.3883260E+000  0.2385216E+03  0.7546771E-02  0.1120782E+00
         21   -1    0    0  503  502  0.00000000000E+00  0.00000000000E+00  0.13420366010E+03  0.13420366010E+03  0.00000000000E+00 0.  1.
         21   -1    0    0  501  503 -0.00000000000E+00 -0.00000000000E+00 -0.53382196350E+03  0.53382196350E+03  0.00000000000E+00 0.  1.
          6    1    1    2  501    0 -0.14878396089E+03 -0.69475698071E+02 -0.35135848396E+03  0.42467084182E+03  0.17300000000E+03 0.  1.
         -6    1    1    2    0  502  0.14878396089E+03  0.69475698071E+02 -0.48259819437E+02  0.24335478177E+03  0.17300000000E+03 0.  1.
<mgrwt>
<rscale>  2 0.23852157E+03</rscale>
<asrwt>0</asrwt>
<pdfrwt beam="1">  1       21 0.20646717E-01 0.23852157E+03</pdfrwt>
<pdfrwt beam="2">  1       21 0.82126455E-01 0.23852157E+03</pdfrwt>
<totfact> 0.27505637E+04</totfact>
</mgrwt>
</event>
<event>
 4    1  0.3883260E+000  0.1819319E+03  0.7546771E-02  0.1165946E+00
         21   -1    0    0  503  502  0.00000000000E+00  0.00000000000E+00  0.35551425563E+03  0.35551425563E+03  0.00000000000E+00 0.  1.
         21   -1    0    0  501  503 -0.00000000000E+00 -0.00000000000E+00 -0.15116587904E+03  0.15116587904E+03  0.00000000000E+00 0.  1.
          6    1    1    2  501    0 -0.21296625889E+02 -0.52121720570E+02 -0.54836288087E+02  0.19001641645E+03  0.17300000000E+03 0.  1.
         -6    1    1    2    0  502  0.21296625889E+02  0.52121720570E+02  0.25918466468E+03  0.31666371822E+03  0.17300000000E+03 0.  1.
<mgrwt>
<rscale>  2 0.18193191E+03</rscale>
<asrwt>0</asrwt>
<pdfrwt beam="1">  1       21 0.54694501E-01 0.18193191E+03</pdfrwt>
<pdfrwt beam="2">  1       21 0.23256289E-01 0.18193191E+03</pdfrwt>
<totfact> 0.55123081E+04</totfact>
</mgrwt>
</event>
<event>
 4    1  0.3883260E+000  0.2840919E+03  0.7546771E-02  0.1093475E+00
         21   -1    0    0  501  502  0.00000000000E+00  0.00000000000E+00  0.12062915615E+04  0.12062915615E+04  0.00000000000E+00 0.  1.
         21   -1    0    0  502  503 -0.00000000000E+00 -0.00000000000E+00 -0.67108141912E+02  0.67108141912E+02  0.00000000000E+00 0. -1.
          6    1    1    2  501    0 -0.25705290288E+02 -0.22387152401E+03  0.53465308102E+03  0.60544375317E+03  0.17300000000E+03 0.  1.
         -6    1    1    2    0  503  0.25705290288E+02  0.22387152401E+03  0.60453033860E+03  0.66795595027E+03  0.17300000000E+03 0. -1.
<mgrwt>
<rscale>  2 0.28409192E+03</rscale>
<asrwt>0</asrwt>
<pdfrwt beam="1">  1       21 0.18558330E+00 0.28409192E+03</pdfrwt>
<pdfrwt beam="2">  1       21 0.10324330E-01 0.28409192E+03</pdfrwt>
<totfact> 0.12040186E+04</totfact>
</mgrwt>
</event>
<event>
 4    1  0.3883260E+000  0.1927514E+03  0.7546771E-02  0.1156003E+00
         21   -1    0    0  501  502  0.00000000000E+00  0.00000000000E+00  0.82683525599E+02  0.82683525599E+02  0.00000000000E+00 0.  1.
         21   -1    0    0  502  503 -0.00000000000E+00 -0.00000000000E+00 -0.93275245628E+03  0.93275245628E+03  0.00000000000E+00 0.  1.
          6    1    1    2  501    0 -0.72084904336E+02 -0.45031723725E+02 -0.59525640019E+02  0.20173346622E+03  0.17300000000E+03 0.  1.
         -6    1    1    2    0  503  0.72084904336E+02  0.45031723725E+02 -0.79054329066E+03  0.81370251566E+03  0.17300000000E+03 0.  1.
<mgrwt>
<rscale>  2 0.19275137E+03</rscale>
<asrwt>0</asrwt>
<pdfrwt beam="1">  1       21 0.12720543E-01 0.19275137E+03</pdfrwt>
<pdfrwt beam="2">  1       21 0.14350037E+00 0.19275137E+03</pdfrwt>
<totfact> 0.17740318E+04</totfact>
</mgrwt>
</event>
<event>
 4    1  0.3883260E+000  0.2366677E+03  0.7546771E-02  0.1122033E+00
         21   -1    0    0  503  502  0.00000000000E+00  0.00000000000E+00  0.42459125325E+03  0.42459125325E+03  0.00000000000E+00 0. -1.
         21   -1    0    0  501  503 -0.00000000000E+00 -0.00000000000E+00 -0.16611457662E+03  0.16611457662E+03  0.00000000000E+00 0. -1.
          6    1    1    2  501    0  0.16149641404E+03 -0.12249136229E+01 -0.47673621594E+01  0.23671569424E+03  0.17300000000E+03 0. -1.
         -6    1    1    2    0  502 -0.16149641404E+03  0.12249136229E+01  0.26324403879E+03  0.35399013562E+03  0.17300000000E+03 0. -1.
<mgrwt>
<rscale>  2 0.23666768E+03</rscale>
<asrwt>0</asrwt>
<pdfrwt beam="1">  1       21 0.65321731E-01 0.23666768E+03</pdfrwt>
<pdfrwt beam="2">  1       21 0.25556089E-01 0.23666768E+03</pdfrwt>
<totfact> 0.30610428E+04</totfact>
</mgrwt>
</event>
<event>
 4    1  0.3883260E+000  0.2258282E+03  0.7546771E-02  0.1129611E+00
         21   -1    0    0  503  502  0.00000000000E+00  0.00000000000E+00  0.10029732159E+04  0.10029732159E+04  0.00000000000E+00 0. -1.
         21   -1    0    0  501  503 -0.00000000000E+00 -0.00000000000E+00 -0.17583028365E+03  0.17583028365E+03  0.00000000000E+00 0.  1.
          6    1    1    2  501    0 -0.14270084004E+03  0.26567511795E+02 -0.83352828813E+02  0.24071987143E+03  0.17300000000E+03 0.  1.
         -6    1    1    2    0  502  0.14270084004E+03 -0.26567511795E+02  0.91049576104E+03  0.93808362810E+03  0.17300000000E+03 0. -1.
<mgrwt>
<rscale>  2 0.22582817E+03</rscale>
<asrwt>0</asrwt>
<pdfrwt beam="1">  1       21 0.15430357E+00 0.22582817E+03</pdfrwt>
<pdfrwt beam="2">  1       21 0.27050814E-01 0.22582817E+03</pdfrwt>
<totfact> 0.35119229E+03</totfact>
</mgrwt>
</event>
<event>
 4    1  0.3883260E+000  0.2206919E+03  0.7546771E-02  0.1133368E+00
         21   -1    0    0  503  502  0.00000000000E+00  0.00000000000E+00  0.39366154211E+03  0.39366154211E+03  0.00000000000E+00 0. -1.
         21   -1    0    0  501  503 -0.00000000000E+00 -0.00000000000E+00 -0.16000257838E+03  0.16000257838E+03  0.00000000000E+00 0. -1.
          6    1    1    2  501    0 -0.92863113023E+01  0.13671027635E+03 -0.14991577219E+02  0.22120054843E+03  0.17300000000E+03 0. -1.
         -6    1    1    2    0  502  0.92863113023E+01 -0.13671027635E+03  0.24865054095E+03  0.33246357207E+03  0.17300000000E+03 0. -1.
<mgrwt>
<rscale>  2 0.22069195E+03</rscale>
<asrwt>0</asrwt>
<pdfrwt beam="1">  1       21 0.60563314E-01 0.22069195E+03</pdfrwt>
<pdfrwt beam="2">  1       21 0.24615781E-01 0.22069195E+03</pdfrwt>
<totfact> 0.39064478E+04</totfact>
</mgrwt>
</event>
<event>
 4    1  0.3883260E+000  0.1946251E+03  0.7546771E-02  0.1154355E+00
         21   -1    0    0  503  502  0.00000000000E+00  0.00000000000E+00  0.11385213817E+03  0.11385213817E+03  0.00000000000E+00 0.  1.
         21   -1    0    0  501  503 -0.00000000000E+00 -0.00000000000E+00 -0.52516922086E+03  0.52516922086E+03  0.00000000000E+00 0. -1.
          6    1    1    2  501    0 -0.20795826715E+02 -0.86703288766E+02 -0.39908381333E+03  0.44401218086E+03  0.17300000000E+03 0. -1.
         -6    1    1    2    0  502  0.20795826715E+02  0.86703288766E+02 -0.12233269368E+02  0.19500917817E+03  0.17300000000E+03 0.  1.
<mgrwt>
<rscale>  2 0.19462509E+03</rscale>
<asrwt>0</asrwt>
<pdfrwt beam="1">  1       21 0.17515714E-01 0.19462509E+03</pdfrwt>
<pdfrwt beam="2">  1       21 0.80795264E-01 0.19462509E+03</pdfrwt>
<totfact> 0.39670544E+04</totfact>
</mgrwt>
</event>
<event>
 4    1  0.3883260E+000  0.1874950E+03  0.7546771E-02  0.1160740E+00
         21   -1    0    0  503  502  0.00000000000E+00  0.00000000000E+00  0.27906111377E+03  0.27906111377E+03  0.00000000000E+00 0. -1.
         21   -1    0    0  501  503 -0.00000000000E+00 -0.00000000000E+00 -0.12837315468E+03  0.12837315468E+03  0.00000000000E+00 0.  1.
          6    1    1    2  501    0  0.59682046064E+02 -0.40784933174E+02  0.47492523487E+02  0.19341638292E+03  0.17300000000E+03 0. -1.
         -6    1    1    2    0  502 -0.59682046064E+02  0.40784933174E+02  0.10319543560E+03  0.21401788553E+03  0.17300000000E+03 0.  1.
<mgrwt>
<rscale>  2 0.18749495E+03</rscale>
<asrwt>0</asrwt>
<pdfrwt beam="1">  1       21 0.42932479E-01 0.18749495E+03</pdfrwt>
<pdfrwt beam="2">  1       21 0.19749716E-01 0.18749495E+03</pdfrwt>
<totfact> 0.12352390E+05</totfact>
</mgrwt>
</event>
<event>
 4    1  0.3883260E+000  0.2587043E+03  0.7546771E-02  0.1107924E+00
         21   -1    0    0  501  502  0.00000000000E+00  0.00000000000E+00  0.92168470682E+02  0.92168470682E+02  0.00000000000E+00 0. -1.
         21   -1    0    0  502  503 -0.00000000000E+00 -0.00000000000E+00 -0.93513726783E+03  0.93513726783E+03  0.00000000000E+00 0. -1.
          6    1    1    2  501    0  0.33305443988E+02 -0.18944566513E+03 -0.17865880637E+03  0.31439923939E+03  0.17300000000E+03 0. -1.
         -6    1    1    2    0  503 -0.33305443988E+02  0.18944566513E+03 -0.66430999078E+03  0.71290649912E+03  0.17300000000E+03 0. -1.
<mgrwt>
<rscale>  2 0.25870430E+03</rscale>
<asrwt>0</asrwt>
<pdfrwt beam="1">  1       21 0.14179765E-01 0.25870430E+03</pdfrwt>
<pdfrwt beam="2">  1       21 0.14386727E+00 0.25870430E+03</pdfrwt>
<totfact> 0.13895901E+04</totfact>
</mgrwt>
</event>
<event>
 4    1  0.3883260E+000  0.1787330E+03  0.7546771E-02  0.1169035E+00
         21   -1    0    0  501  502  0.00000000000E+00  0.00000000000E+00  0.81681674821E+02  0.81681674821E+02  0.00000000000E+00 0. -1.
         21   -1    0    0  502  503 -0.00000000000E+00 -0.00000000000E+00 -0.60999204934E+03  0.60999204934E+03  0.00000000000E+00 0. -1.
          6    1    1    2  501    0  0.33873540088E+02 -0.29480166714E+02 -0.56985270659E+02  0.18759748937E+03  0.17300000000E+03 0. -1.
         -6    1    1    2    0  503 -0.33873540088E+02  0.29480166714E+02 -0.47132510386E+03  0.50407623479E+03  0.17300000000E+03 0. -1.
<mgrwt>
<rscale>  2 0.17873303E+03</rscale>
<asrwt>0</asrwt>
<pdfrwt beam="1">  1       21 0.12566412E-01 0.17873303E+03</pdfrwt>
<pdfrwt beam="2">  1       21 0.93844928E-01 0.17873303E+03</pdfrwt>
<totfact> 0.51852706E+04</totfact>
</mgrwt>
</event>
<event>
 4    1  0.3883260E+000  0.1923876E+03  0.7546771E-02  0.1156325E+00
         21   -1    0    0  501  502  0.00000000000E+00  0.00000000000E+00  0.14386857918E+03  0.14386857918E+03  0.00000000000E+00 0.  1.
         21   -1    0    0  502  503 -0.00000000000E+00 -0.00000000000E+00 -0.26762858791E+03  0.26762858791E+03  0.00000000000E+00 0.  1.
          6    1    1    2  501    0 -0.66888736408E+02  0.51087173461E+02 -0.21400923255E+02  0.19357427997E+03  0.17300000000E+03 0.  1.
         -6    1    1    2    0  503  0.66888736408E+02 -0.51087173461E+02 -0.10235908547E+03  0.21792288712E+03  0.17300000000E+03 0.  1.
<mgrwt>
<rscale>  2 0.19238764E+03</rscale>
<asrwt>0</asrwt>
<pdfrwt beam="1">  1       21 0.22133628E-01 0.19238764E+03</pdfrwt>
<pdfrwt beam="2">  1       21 0.41173629E-01 0.19238764E+03</pdfrwt>
<totfact> 0.10843276E+05</totfact>
</mgrwt>
</event>
<event>
 4    1  0.3883260E+000  0.1917631E+03  0.7546771E-02  0.1156881E+00
         21   -1    0    0  503  502  0.00000000000E+00  0.00000000000E+00  0.11842820911E+03  0.11842820911E+03  0.00000000000E+00 0. -1.
         21   -1    0    0  501  503 -0.00000000000E+00 -0.00000000000E+00 -0.31586294576E+03  0.31586294576E+03  0.00000000000E+00 0. -1.
          6    1    1    2  501    0  0.82269274730E+02  0.87089217322E+01 -0.12698699693E+03  0.22999733971E+03  0.17300000000E+03 0. -1.
         -6    1    1    2    0  502 -0.82269274730E+02 -0.87089217322E+01 -0.70447739711E+02  0.20429381516E+03  0.17300000000E+03 0. -1.
<mgrwt>
<rscale>  2 0.19176308E+03</rscale>
<asrwt>0</asrwt>
<pdfrwt beam="1">  1       21 0.18219725E-01 0.19176308E+03</pdfrwt>
<pdfrwt beam="2">  1       21 0.48594298E-01 0.19176308E+03</pdfrwt>
<totfact> 0.11104214E+05</totfact>
</mgrwt>
</event>
<event>
 4    1  0.3883260E+000  0.2223750E+03  0.7546771E-02  0.1132125E+00
         21   -1    0    0  503  502  0.00000000000E+00  0.00000000000E+00  0.64205557884E+02  0.64205557884E+02  0.00000000000E+00 0.  1.
         21   -1    0    0  501  503 -0.00000000000E+00 -0.00000000000E+00 -0.95138877751E+03  0.95138877751E+03  0.00000000000E+00 0.  1.
          6    1    1    2  501    0 -0.11260521472E+03 -0.82714531416E+02 -0.66519995157E+03  0.70138548863E+03  0.17300000000E+03 0.  1.
         -6    1    1    2    0  502  0.11260521472E+03  0.82714531416E+02 -0.22198326806E+03  0.31420884677E+03  0.17300000000E+03 0.  1.
<mgrwt>
<rscale>  2 0.22237497E+03</rscale>
<asrwt>0</asrwt>
<pdfrwt beam="1">  1       21 0.98777784E-02 0.22237497E+03</pdfrwt>
<pdfrwt beam="2">  1       21 0.14636750E+00 0.22237497E+03</pdfrwt>
<totfact> 0.25953499E+04</totfact>
</mgrwt>
</event>
<event>
 4    1  0.3883260E+000  0.1850959E+03  0.7546771E-02  0.1162960E+00
         21   -1    0    0  503  502  0.00000000000E+00  0.00000000000E+00  0.37221209791E+03  0.37221209791E+03  0.00000000000E+00 0.  1.
         21   -1    0    0  501  503 -0.00000000000E+00 -0.00000000000E+00 -0.11891849051E+03  0.11891849051E+03  0.00000000000E+00 0.  1.
          6    1    1    2  501    0 -0.54840034345E+02  0.36387577322E+02  0.99122301569E+01  0.18536110017E+03  0.17300000000E+03 0.  1.
         -6    1    1    2    0  502  0.54840034345E+02 -0.36387577322E+02  0.24338137725E+03  0.30576948825E+03  0.17300000000E+03 0.  1.
<mgrwt>
<rscale>  2 0.18509588E+03</rscale>
<asrwt>0</asrwt>
<pdfrwt beam="1">  1       21 0.57263399E-01 0.18509588E+03</pdfrwt>
<pdfrwt beam="2">  1       21 0.18295153E-01 0.18509588E+03</pdfrwt>
<totfact> 0.78249302E+04</totfact>
</mgrwt>
</event>
<event>
 4    1  0.3883260E+000  0.2008477E+03  0.7546771E-02  0.1149026E+00
         21   -1    0    0  501  502  0.00000000000E+00  0.00000000000E+00  0.12833262122E+04  0.12833262122E+04  0.00000000000E+00 0.  1.
         21   -1    0    0  502  503 -0.00000000000E+00 -0.00000000000E+00 -0.99878617599E+02  0.99878617599E+02  0.00000000000E+00 0.  1.
          6    1    1    2  501    0 -0.23010205854E+01 -0.10200744400E+03  0.11642436359E+04  0.11814410933E+04  0.17300000000E+03 0.  1.
         -6    1    1    2    0  503  0.23010205854E+01  0.10200744400E+03  0.19203958734E+02  0.20176373648E+03  0.17300000000E+03 0.  1.
<mgrwt>
<rscale>  2 0.20084774E+03</rscale>
<asrwt>0</asrwt>
<pdfrwt beam="1">  1       21 0.19743479E+00 0.20084774E+03</pdfrwt>
<pdfrwt beam="2">  1       21 0.15365942E-01 0.20084774E+03</pdfrwt>
<totfact> 0.51972835E+03</totfact>
</mgrwt>
</event>
<event>
 4    1  0.3883260E+000  0.1901207E+03  0.7546771E-02  0.1158353E+00
         21   -1    0    0  503  502  0.00000000000E+00  0.00000000000E+00  0.66535522083E+03  0.66535522083E+03  0.00000000000E+00 0. -1.
         21   -1    0    0  501  503 -0.00000000000E+00 -0.00000000000E+00 -0.15175175833E+03  0.15175175833E+03  0.00000000000E+00 0. -1.
          6    1    1    2  501    0  0.78449719035E+02 -0.79059947959E+01 -0.70553818490E+02  0.20278980367E+03  0.17300000000E+03 0. -1.
         -6    1    1    2    0  502 -0.78449719035E+02  0.79059947959E+01  0.58415728099E+03  0.61431717549E+03  0.17300000000E+03 0. -1.
<mgrwt>
<rscale>  2 0.19012065E+03</rscale>
<asrwt>0</asrwt>
<pdfrwt beam="1">  1       21 0.10236234E+00 0.19012065E+03</pdfrwt>
<pdfrwt beam="2">  1       21 0.23346425E-01 0.19012065E+03</pdfrwt>
<totfact> 0.13420168E+04</totfact>
</mgrwt>
</event>
<event>
 4    1  0.3883260E+000  0.1809914E+03  0.7546771E-02  0.1166847E+00
         21   -1    0    0  503  502  0.00000000000E+00  0.00000000000E+00  0.43802348882E+03  0.43802348882E+03  0.00000000000E+00 0. -1.
         21   -1    0    0  501  503 -0.00000000000E+00 -0.00000000000E+00 -0.10640269233E+03  0.10640269233E+03  0.00000000000E+00 0.  1.
          6    1    1    2  501    0  0.60654810542E+01 -0.52840360578E+02  0.17424385117E+02  0.18182822378E+03  0.17300000000E+03 0.  1.
         -6    1    1    2    0  502 -0.60654810542E+01  0.52840360578E+02  0.31419641137E+03  0.36259795737E+03  0.17300000000E+03 0. -1.
<mgrwt>
<rscale>  2 0.18099142E+03</rscale>
<asrwt>0</asrwt>
<pdfrwt beam="1">  1       21 0.67388228E-01 0.18099142E+03</pdfrwt>
<pdfrwt beam="2">  1       21 0.16369645E-01 0.18099142E+03</pdfrwt>
<totfact> 0.67703224E+04</totfact>
</mgrwt>
</event>
<event>
 4    1  0.3883260E+000  0.2237161E+03  0.7546771E-02  0.1131143E+00
         21   -1    0    0  501  502  0.00000000000E+00  0.00000000000E+00  0.94449754815E+02  0.94449754815E+02  0.00000000000E+00 0.  1.
         21   -1    0    0  502  503 -0.00000000000E+00 -0.00000000000E+00 -0.12167827672E+04  0.12167827672E+04  0.00000000000E+00 0. -1.
          6    1    1    2  501    0 -0.71655953788E+02 -0.12241448046E+03 -0.68577573234E+02  0.23399094916E+03  0.17300000000E+03 0.  1.
         -6    1    1    2    0  503  0.71655953788E+02  0.12241448046E+03 -0.10537554392E+04  0.10772415729E+04  0.17300000000E+03 0. -1.
<mgrwt>
<rscale>  2 0.22371607E+03</rscale>
<asrwt>0</asrwt>
<pdfrwt beam="1">  1       21 0.14530733E-01 0.22371607E+03</pdfrwt>
<pdfrwt beam="2">  1       21 0.18719733E+00 0.22371607E+03</pdfrwt>
<totfact> 0.65935619E+03</totfact>
</mgrwt>
</event>
<event>
 4    1  0.3883260E+000  0.2007110E+03  0.7546771E-02  0.1149141E+00
         21   -1    0    0  503  502  0.00000000000E+00  0.00000000000E+00  0.11154392758E+04  0.11154392758E+04  0.00000000000E+00 0.  1.
         21   -1    0    0  501  503 -0.00000000000E+00 -0.00000000000E+00 -0.58405682043E+02  0.58405682043E+02  0.00000000000E+00 0.  1.
          6    1    1    2  501    0  0.33687422617E+02  0.96026269876E+02  0.16593340554E+03  0.26042039479E+03  0.17300000000E+03 0.  1.
         -6    1    1    2    0  502 -0.33687422617E+02 -0.96026269876E+02  0.89110018823E+03  0.91342456307E+03  0.17300000000E+03 0.  1.
<mgrwt>
<rscale>  2 0.20071095E+03</rscale>
<asrwt>0</asrwt>
<pdfrwt beam="1">  1       21 0.17160603E+00 0.20071095E+03</pdfrwt>
<pdfrwt beam="2">  1       21 0.89854904E-02 0.20071095E+03</pdfrwt>
<totfact> 0.20252194E+04</totfact>
</mgrwt>
</event>
<event>
 4    1  0.3883260E+000  0.2564332E+03  0.7546771E-02  0.1109305E+00
         21   -1    0    0  501  502  0.00000000000E+00  0.00000000000E+00  0.25701458537E+03  0.25701458537E+03  0.00000000000E+00 0.  1.
         21   -1    0    0  502  503 -0.00000000000E+00 -0.00000000000E+00 -0.35634153944E+03  0.35634153944E+03  0.00000000000E+00 0. -1.
          6    1    1    2  501    0 -0.17191744136E+03  0.79204827684E+02  0.11319383353E+03  0.28030493274E+03  0.17300000000E+03 0.  1.
         -6    1    1    2    0  503  0.17191744136E+03 -0.79204827684E+02 -0.21252078760E+03  0.33305119206E+03  0.17300000000E+03 0. -1.
<mgrwt>
<rscale>  2 0.25643325E+03</rscale>
<asrwt>0</asrwt>
<pdfrwt beam="1">  1       21 0.39540705E-01 0.25643325E+03</pdfrwt>
<pdfrwt beam="2">  1       21 0.54821775E-01 0.25643325E+03</pdfrwt>
<totfact> 0.18702620E+04</totfact>
</mgrwt>
</event>
<event>
 4    1  0.3883260E+000  0.1931869E+03  0.7546771E-02  0.1155618E+00
         21   -1    0    0  503  502  0.00000000000E+00  0.00000000000E+00  0.13885812578E+03  0.13885812578E+03  0.00000000000E+00 0.  1.
         21   -1    0    0  501  503 -0.00000000000E+00 -0.00000000000E+00 -0.28511113233E+03  0.28511113233E+03  0.00000000000E+00 0. -1.
          6    1    1    2  501    0 -0.21128606851E+02 -0.83341314361E+02 -0.12387348276E+03  0.22949037548E+03  0.17300000000E+03 0. -1.
         -6    1    1    2    0  502  0.21128606851E+02  0.83341314361E+02 -0.22379523786E+02  0.19447888264E+03  0.17300000000E+03 0.  1.
<mgrwt>
<rscale>  2 0.19318694E+03</rscale>
<asrwt>0</asrwt>
<pdfrwt beam="1">  1       21 0.21362789E-01 0.19318694E+03</pdfrwt>
<pdfrwt beam="2">  1       21 0.43863251E-01 0.19318694E+03</pdfrwt>
<totfact> 0.10186584E+05</totfact>
</mgrwt>
</event>
<event>
 4    1  0.3883260E+000  0.1968299E+03  0.7546771E-02  0.1152442E+00
         21   -1    0    0  503  502  0.00000000000E+00  0.00000000000E+00  0.48916407940E+02  0.48916407940E+02  0.00000000000E+00 0.  1.
         21   -1    0    0  501  503 -0.00000000000E+00 -0.00000000000E+00 -0.99684377054E+03  0.99684377054E+03  0.00000000000E+00 0.  1.
          6    1    1    2  501    0 -0.89639764014E+02  0.27887330789E+02 -0.71098952473E+03  0.73773172277E+03  0.17300000000E+03 0.  1.
         -6    1    1    2    0  502  0.89639764014E+02 -0.27887330789E+02 -0.23693783787E+03  0.30802845571E+03  0.17300000000E+03 0.  1.
<mgrwt>
<rscale>  2 0.19682985E+03</rscale>
<asrwt>0</asrwt>
<pdfrwt beam="1">  1       21 0.75256021E-02 0.19682985E+03</pdfrwt>
<pdfrwt beam="2">  1       21 0.15336056E+00 0.19682985E+03</pdfrwt>
<totfact> 0.37526985E+04</totfact>
</mgrwt>
</event>
<event>
 4    1  0.3883260E+000  0.2081466E+03  0.7546771E-02  0.1143042E+00
         21   -1    0    0  503  502  0.00000000000E+00  0.00000000000E+00  0.11759381224E+03  0.11759381224E+03  0.00000000000E+00 0.  1.
         21   -1    0    0  501  503 -0.00000000000E+00 -0.00000000000E+00 -0.38765984270E+03  0.38765984270E+03  0.00000000000E+00 0.  1.
          6    1    1    2  501    0  0.88258112766E+02 -0.74876624424E+02 -0.19129953815E+03  0.28270216952E+03  0.17300000000E+03 0.  1.
         -6    1    1    2    0  502 -0.88258112766E+02  0.74876624424E+02 -0.78766492318E+02  0.22255148543E+03  0.17300000000E+03 0.  1.
<mgrwt>
<rscale>  2 0.20814659E+03</rscale>
<asrwt>0</asrwt>
<pdfrwt beam="1">  1       21 0.18091355E-01 0.20814659E+03</pdfrwt>
<pdfrwt beam="2">  1       21 0.59639977E-01 0.20814659E+03</pdfrwt>
<totfact> 0.72508332E+04</totfact>
</mgrwt>
</event>
<event>
 4    1  0.3883260E+000  0.2320000E+03  0.7546771E-02  0.1125240E+00
         21   -1    0    0  501  502  0.00000000000E+00  0.00000000000E+00  0.76828078886E+03  0.76828078886E+03  0.00000000000E+00 0. -1.
         21   -1    0    0  502  503 -0.00000000000E+00 -0.00000000000E+00 -0.11859901053E+03  0.11859901053E+03  0.00000000000E+00 0.  1.
          6    1    1    2  501    0 -0.69930436915E+02  0.13785764658E+03  0.60853473516E+03  0.65125918084E+03  0.17300000000E+03 0. -1.
         -6    1    1    2    0  503  0.69930436915E+02 -0.13785764658E+03  0.41147043163E+02  0.23562061856E+03  0.17300000000E+03 0.  1.
<mgrwt>
<rscale>  2 0.23199999E+03</rscale>
<asrwt>0</asrwt>
<pdfrwt beam="1">  1       21 0.11819704E+00 0.23199999E+03</pdfrwt>
<pdfrwt beam="2">  1       21 0.18246002E-01 0.23199999E+03</pdfrwt>
<totfact> 0.14639561E+04</totfact>
</mgrwt>
</event>
<event>
 4    1  0.3883260E+000  0.2768337E+03  0.7546771E-02  0.1097431E+00
         21   -1    0    0  501  502  0.00000000000E+00  0.00000000000E+00  0.55082271865E+03  0.55082271865E+03  0.00000000000E+00 0. -1.
         21   -1    0    0  502  503 -0.00000000000E+00 -0.00000000000E+00 -0.17549554317E+03  0.17549554317E+03  0.00000000000E+00 0.  1.
          6    1    1    2  501    0 -0.12269455169E+03 -0.17791550389E+03  0.35297355717E+03  0.44858356145E+03  0.17300000000E+03 0. -1.
         -6    1    1    2    0  503  0.12269455169E+03  0.17791550389E+03  0.22353618308E+02  0.27773470037E+03  0.17300000000E+03 0.  1.
<mgrwt>
<rscale>  2 0.27683367E+03</rscale>
<asrwt>0</asrwt>
<pdfrwt beam="1">  1       21 0.84741956E-01 0.27683367E+03</pdfrwt>
<pdfrwt beam="2">  1       21 0.26999315E-01 0.27683367E+03</pdfrwt>
<totfact> 0.15052067E+04</totfact>
</mgrwt>
</event>
<event>
 4    1  0.3883260E+000  0.1837409E+03  0.7546771E-02  0.1164231E+00
         21   -1    0    0  503  502  0.00000000000E+00  0.00000000000E+00  0.83877906111E+02  0.83877906111E+02  0.00000000000E+00 0.  1.
         21   -1    0    0  501  503 -0.00000000000E+00 -0.00000000000E+00 -0.43112486534E+03  0.43112486534E+03  0.00000000000E+00 0. -1.
          6    1    1    2  501    0 -0.46138902267E+02 -0.41266592783E+02 -0.23997658713E+03  0.30224078539E+03  0.17300000000E+03 0. -1.
         -6    1    1    2    0  502  0.46138902267E+02  0.41266592783E+02 -0.10727037210E+03  0.21276198606E+03  0.17300000000E+03 0.  1.
<mgrwt>
<rscale>  2 0.18374093E+03</rscale>
<asrwt>0</asrwt>
<pdfrwt beam="1">  1       21 0.12904293E-01 0.18374093E+03</pdfrwt>
<pdfrwt beam="2">  1       21 0.66326902E-01 0.18374093E+03</pdfrwt>
<totfact> 0.10778927E+05</totfact>
</mgrwt>
</event>
<event>
 4    1  0.3883260E+000  0.1926982E+03  0.7546771E-02  0.1156050E+00
         21   -1    0    0  501  502  0.00000000000E+00  0.00000000000E+00  0.16134135833E+03  0.16134135833E+03  0.00000000000E+00 0. -1.
         21   -1    0    0  502  503 -0.00000000000E+00 -0.00000000000E+00 -0.24173530194E+03  0.24173530194E+03  0.00000000000E+00 0. -1.
          6    1    1    2  501    0 -0.41081432925E+02 -0.74269298023E+02  0.39248069258E+01  0.19273820812E+03  0.17300000000E+03 0.  1.
         -6    1    1    2    0  503  0.41081432925E+02  0.74269298023E+02 -0.84318750531E+02  0.21033845215E+03  0.17300000000E+03 0.  1.
<mgrwt>
<rscale>  2 0.19269824E+03</rscale>
<asrwt>0</asrwt>
<pdfrwt beam="1">  1       21 0.24821747E-01 0.19269824E+03</pdfrwt>
<pdfrwt beam="2">  1       21 0.37190046E-01 0.19269824E+03</pdfrwt>
<totfact> 0.10707701E+05</totfact>
</mgrwt>
</event>
<event>
 4    1  0.3883260E+000  0.2070374E+03  0.7546771E-02  0.1143934E+00
         21   -1    0    0  503  502  0.00000000000E+00  0.00000000000E+00  0.10337330110E+03  0.10337330110E+03  0.00000000000E+00 0.  1.
         21   -1    0    0  501  503 -0.00000000000E+00 -0.00000000000E+00 -0.42476492974E+03  0.42476492974E+03  0.00000000000E+00 0.  1.
          6    1    1    2  501    0 -0.19980194373E+02  0.11196549792E+03 -0.20143108959E+03  0.28885803562E+03  0.17300000000E+03 0.  1.
         -6    1    1    2    0  502  0.19980194373E+02 -0.11196549792E+03 -0.11996053905E+03  0.23928019521E+03  0.17300000000E+03 0.  1.
<mgrwt>
<rscale>  2 0.20703739E+03</rscale>
<asrwt>0</asrwt>
<pdfrwt beam="1">  1       21 0.15903585E-01 0.20703739E+03</pdfrwt>
<pdfrwt beam="2">  1       21 0.65348451E-01 0.20703739E+03</pdfrwt>
<totfact> 0.75469117E+04</totfact>
</mgrwt>
</event>
<event>
 4    1  0.3883260E+000  0.1814693E+03  0.7546771E-02  0.1166389E+00
         21   -1    0    0  503  502  0.00000000000E+00  0.00000000000E+00  0.12389212586E+02  0.12389212586E+02  0.00000000000E+00 0.  1.
         21   -1    0    0  501  503 -0.00000000000E+00 -0.00000000000E+00 -0.26883650699E+04  0.26883650699E+04  0.00000000000E+00 0.  1.
          6    1    1    2  501    0  0.37675759007E+02  0.39782299299E+02 -0.14813949827E+04  0.14924684884E+04  0.17300000000E+03 0.  1.
         -6    1    1    2    0  502 -0.37675759007E+02 -0.39782299299E+02 -0.11945808747E+04  0.12082857941E+04  0.17300000000E+03 0.  1.
<mgrwt>
<rscale>  2 0.18146927E+03</rscale>
<asrwt>0</asrwt>
<pdfrwt beam="1">  1       21 0.19060329E-02 0.18146927E+03</pdfrwt>
<pdfrwt beam="2">  1       21 0.41359458E+00 0.18146927E+03</pdfrwt>
<totfact> 0.96759015E+03</totfact>
</mgrwt>
</event>
<event>
 4    1  0.3883260E+000  0.2427466E+03  0.7546771E-02  0.1117977E+00
         21   -1    0    0  503  502  0.00000000000E+00  0.00000000000E+00  0.12226192001E+04  0.12226192001E+04  0.00000000000E+00 0. -1.
         21   -1    0    0  501  503 -0.00000000000E+00 -0.00000000000E+00 -0.89269278913E+02  0.89269278913E+02  0.00000000000E+00 0. -1.
          6    1    1    2  501    0 -0.13868536745E+03 -0.98809274474E+02  0.12174338996E+03  0.27156464583E+03  0.17300000000E+03 0. -1.
         -6    1    1    2    0  502  0.13868536745E+03  0.98809274474E+02  0.10116065312E+04  0.10403238332E+04  0.17300000000E+03 0. -1.
<mgrwt>
<rscale>  2 0.24274658E+03</rscale>
<asrwt>0</asrwt>
<pdfrwt beam="1">  1       21 0.18809525E+00 0.24274658E+03</pdfrwt>
<pdfrwt beam="2">  1       21 0.13733736E-01 0.24274658E+03</pdfrwt>
<totfact> 0.71060939E+03</totfact>
</mgrwt>
</event>
<event>
 4    1  0.3883260E+000  0.1931959E+03  0.7546771E-02  0.1155610E+00
         21   -1    0    0  503  502  0.00000000000E+00  0.00000000000E+00  0.15412294462E+03  0.15412294462E+03  0.00000000000E+00 0. -1.
         21   -1    0    0  501  503 -0.00000000000E+00 -0.00000000000E+00 -0.24398576733E+03  0.24398576733E+03  0.00000000000E+00 0.  1.
          6    1    1    2  501    0 -0.88430521921E+01 -0.85542199913E+02 -0.62081437208E+02  0.20292553409E+03  0.17300000000E+03 0.  1.
         -6    1    1    2    0  502  0.88430521921E+01  0.85542199913E+02 -0.27781385503E+02  0.19518317786E+03  0.17300000000E+03 0.  1.
<mgrwt>
<rscale>  2 0.19319593E+03</rscale>
<asrwt>0</asrwt>
<pdfrwt beam="1">  1       21 0.23711222E-01 0.19319593E+03</pdfrwt>
<pdfrwt beam="2">  1       21 0.37536272E-01 0.19319593E+03</pdfrwt>
<totfact> 0.11465677E+05</totfact>
</mgrwt>
</event>
<event>
 4    1  0.3883260E+000  0.1937169E+03  0.7546771E-02  0.1155151E+00
         21   -1    0    0  501  502  0.00000000000E+00  0.00000000000E+00  0.27596543939E+03  0.27596543939E+03  0.00000000000E+00 0.  1.
         21   -1    0    0  502  503 -0.00000000000E+00 -0.00000000000E+00 -0.32106671308E+03  0.32106671308E+03  0.00000000000E+00 0.  1.
          6    1    1    2  501    0  0.80798937483E+02  0.32692156425E+02  0.20409936575E+03  0.28139437893E+03  0.17300000000E+03 0.  1.
         -6    1    1    2    0  503 -0.80798937483E+02 -0.32692156425E+02 -0.24920063945E+03  0.31563777355E+03  0.17300000000E+03 0.  1.
<mgrwt>
<rscale>  2 0.19371692E+03</rscale>
<asrwt>0</asrwt>
<pdfrwt beam="1">  1       21 0.42456222E-01 0.19371692E+03</pdfrwt>
<pdfrwt beam="2">  1       21 0.49394879E-01 0.19371692E+03</pdfrwt>
<totfact> 0.20848939E+04</totfact>
</mgrwt>
</event>
<event>
 4    1  0.3883260E+000  0.2270020E+03  0.7546771E-02  0.1128768E+00
         21   -1    0    0  503  502  0.00000000000E+00  0.00000000000E+00  0.45146160742E+03  0.45146160742E+03  0.00000000000E+00 0.  1.
         21   -1    0    0  501  503 -0.00000000000E+00 -0.00000000000E+00 -0.16606272054E+03  0.16606272054E+03  0.00000000000E+00 0.  1.
          6    1    1    2  501    0  0.78674224832E+02  0.12414212362E+03 -0.29950344287E+02  0.22896926351E+03  0.17300000000E+03 0.  1.
         -6    1    1    2    0  502 -0.78674224832E+02 -0.12414212362E+03  0.31534923117E+03  0.38855506445E+03  0.17300000000E+03 0.  1.
<mgrwt>
<rscale>  2 0.22700198E+03</rscale>
<asrwt>0</asrwt>
<pdfrwt beam="1">  1       21 0.69455631E-01 0.22700198E+03</pdfrwt>
<pdfrwt beam="2">  1       21 0.25548111E-01 0.22700198E+03</pdfrwt>
<totfact> 0.26886197E+04</totfact>
</mgrwt>
</event>
<event>
 4    1  0.3883260E+000  0.2383556E+03  0.7546771E-02  0.1120893E+00
         21   -1    0    0  503  502  0.00000000000E+00  0.00000000000E+00  0.99938544466E+02  0.99938544466E+02  0.00000000000E+00 0.  1.
         21   -1    0    0  501  503 -0.00000000000E+00 -0.00000000000E+00 -0.56879927580E+03  0.56879927580E+03  0.00000000000E+00 0.  1.
          6    1    1    2  501    0  0.15360429081E+03 -0.57359601272E+02 -0.24231016396E+03  0.33989353859E+03  0.17300000000E+03 0.  1.
         -6    1    1    2    0  502 -0.15360429081E+03  0.57359601272E+02 -0.22655056737E+03  0.32884428168E+03  0.17300000000E+03 0.  1.
<mgrwt>
<rscale>  2 0.23835562E+03</rscale>
<asrwt>0</asrwt>
<pdfrwt beam="1">  1       21 0.15375160E-01 0.23835562E+03</pdfrwt>
<pdfrwt beam="2">  1       21 0.87507583E-01 0.23835562E+03</pdfrwt>
<totfact> 0.41100822E+04</totfact>
</mgrwt>
</event>
<event>
 4    1  0.3883260E+000  0.1958062E+03  0.7546771E-02  0.1153326E+00
         21   -1    0    0  501  502  0.00000000000E+00  0.00000000000E+00  0.11385939701E+03  0.11385939701E+03  0.00000000000E+00 0. -1.
         21   -1    0    0  502  503 -0.00000000000E+00 -0.00000000000E+00 -0.12116064944E+04  0.12116064944E+04  0.00000000000E+00 0. -1.
          6    1    1    2  501    0  0.90374406868E+02 -0.15605516155E+02  0.14285054014E+02  0.19632658587E+03  0.17300000000E+03 0. -1.
         -6    1    1    2    0  503 -0.90374406868E+02  0.15605516155E+02 -0.11120321514E+04  0.11291393055E+04  0.17300000000E+03 0. -1.
<mgrwt>
<rscale>  2 0.19580619E+03</rscale>
<asrwt>0</asrwt>
<pdfrwt beam="1">  1       21 0.17516831E-01 0.19580619E+03</pdfrwt>
<pdfrwt beam="2">  1       21 0.18640099E+00 0.19580619E+03</pdfrwt>
<totfact> 0.48506582E+03</totfact>
</mgrwt>
</event>
<event>
 4    1  0.3883260E+000  0.1823331E+03  0.7546771E-02  0.1165564E+00
         21   -1    0    0  501  502  0.00000000000E+00  0.00000000000E+00  0.48516713920E+02  0.48516713920E+02  0.00000000000E+00 0. -1.
         21   -1    0    0  502  503 -0.00000000000E+00 -0.00000000000E+00 -0.10360101195E+04  0.10360101195E+04  0.00000000000E+00 0. -1.
          6    1    1    2  501    0  0.48563403518E+02 -0.30950798452E+02 -0.17821527236E+03  0.25496281962E+03  0.17300000000E+03 0. -1.
         -6    1    1    2    0  503 -0.48563403518E+02  0.30950798452E+02 -0.80927813326E+03  0.82956401384E+03  0.17300000000E+03 0. -1.
<mgrwt>
<rscale>  2 0.18233309E+03</rscale>
<asrwt>0</asrwt>
<pdfrwt beam="1">  1       21 0.74641093E-02 0.18233309E+03</pdfrwt>
<pdfrwt beam="2">  1       21 0.15938618E+00 0.18233309E+03</pdfrwt>
<totfact> 0.34646310E+04</totfact>
</mgrwt>
</event>
<event>
 4    1  0.3883260E+000  0.1776794E+03  0.7546771E-02  0.1170068E+00
         21   -1    0    0  503  502  0.00000000000E+00  0.00000000000E+00  0.13912240675E+03  0.13912240675E+03  0.00000000000E+00 0. -1.
         21   -1    0    0  501  503 -0.00000000000E+00 -0.00000000000E+00 -0.28306612341E+03  0.28306612341E+03  0.00000000000E+00 0. -1.
          6    1    1    2  501    0 -0.32565609482E+02  0.24092241680E+02 -0.16598402806E+03  0.24314738864E+03  0.17300000000E+03 0. -1.
         -6    1    1    2    0  502  0.32565609482E+02 -0.24092241680E+02  0.22040311402E+02  0.17904114152E+03  0.17300000000E+03 0. -1.
<mgrwt>
<rscale>  2 0.17767936E+03</rscale>
<asrwt>0</asrwt>
<pdfrwt beam="1">  1       21 0.21403447E-01 0.17767936E+03</pdfrwt>
<pdfrwt beam="2">  1       21 0.43548634E-01 0.17767936E+03</pdfrwt>
<totfact> 0.10359999E+05</totfact>
</mgrwt>
</event>
<event>
 4    1  0.3883260E+000  0.2337501E+03  0.7546771E-02  0.1124028E+00
         21   -1    0    0  501  502  0.00000000000E+00  0.00000000000E+00  0.32183716440E+03  0.32183716440E+03  0.00000000000E+00 0.  1.
         21   -1    0    0  502  503 -0.00000000000E+00 -0.00000000000E+00 -0.26269553124E+03  0.26269553124E+03  0.00000000000E+00 0.  1.
          6    1    1    2  501    0  0.14459695133E+03 -0.61658874700E+02  0.20339659761E+03  0.30985362848E+03  0.17300000000E+03 0.  1.
         -6    1    1    2    0  503 -0.14459695133E+03  0.61658874700E+02 -0.14425496446E+03  0.27467906716E+03  0.17300000000E+03 0.  1.
<mgrwt>
<rscale>  2 0.23375007E+03</rscale>
<asrwt>0</asrwt>
<pdfrwt beam="1">  1       21 0.49513410E-01 0.23375007E+03</pdfrwt>
<pdfrwt beam="2">  1       21 0.40414697E-01 0.23375007E+03</pdfrwt>
<totfact> 0.22426416E+04</totfact>
</mgrwt>
</event>
<event>
 4    1  0.3883260E+000  0.1936237E+03  0.7546771E-02  0.1155233E+00
         21   -1    0    0  503  502  0.00000000000E+00  0.00000000000E+00  0.14115559333E+03  0.14115559333E+03  0.00000000000E+00 0.  1.
         21   -1    0    0  501  503 -0.00000000000E+00 -0.00000000000E+00 -0.27806947159E+03  0.27806947159E+03  0.00000000000E+00 0.  1.
          6    1    1    2  501    0 -0.31201975512E+01  0.86898879318E+02 -0.11285460835E+03  0.22411227875E+03  0.17300000000E+03 0.  1.
         -6    1    1    2    0  502  0.31201975512E+01 -0.86898879318E+02 -0.24059269907E+02  0.19511278617E+03  0.17300000000E+03 0.  1.
<mgrwt>
<rscale>  2 0.19362374E+03</rscale>
<asrwt>0</asrwt>
<pdfrwt beam="1">  1       21 0.21716245E-01 0.19362374E+03</pdfrwt>
<pdfrwt beam="2">  1       21 0.42779919E-01 0.19362374E+03</pdfrwt>
<totfact> 0.10392742E+05</totfact>
</mgrwt>
</event>
<event>
 4    1  0.3883260E+000  0.2406108E+03  0.7546771E-02  0.1119387E+00
         21   -1    0    0  501  502  0.00000000000E+00  0.00000000000E+00  0.73426900088E+02  0.73426900088E+02  0.00000000000E+00 0.  1.
         21   -1    0    0  502  503 -0.00000000000E+00 -0.00000000000E+00 -0.80530105886E+03  0.80530105886E+03  0.00000000000E+00 0. -1.
          6    1    1    2  501    0 -0.14594899933E+03  0.81629811376E+02 -0.30238322951E+03  0.38643130567E+03  0.17300000000E+03 0. -1.
         -6    1    1    2    0  503  0.14594899933E+03 -0.81629811376E+02 -0.42949092926E+03  0.49229665327E+03  0.17300000000E+03 0. -1.
<mgrwt>
<rscale>  2 0.24061076E+03</rscale>
<asrwt>0</asrwt>
<pdfrwt beam="1">  1       21 0.11296447E-01 0.24061076E+03</pdfrwt>
<pdfrwt beam="2">  1       21 0.12389246E+00 0.24061076E+03</pdfrwt>
<totfact> 0.31054988E+04</totfact>
</mgrwt>
</event>
<event>
 4    1  0.3883260E+000  0.2208972E+03  0.7546771E-02  0.1133216E+00
         21   -1    0    0  503  502  0.00000000000E+00  0.00000000000E+00  0.27881632491E+03  0.27881632491E+03  0.00000000000E+00 0.  1.
         21   -1    0    0  501  503 -0.00000000000E+00 -0.00000000000E+00 -0.19448330168E+03  0.19448330168E+03  0.00000000000E+00 0. -1.
          6    1    1    2  501    0  0.13047127176E+03  0.42939853164E+02 -0.32717181262E+02  0.22330695846E+03  0.17300000000E+03 0. -1.
         -6    1    1    2    0  502 -0.13047127176E+03 -0.42939853164E+02  0.11705020449E+03  0.24999266813E+03  0.17300000000E+03 0.  1.
<mgrwt>
<rscale>  2 0.22089722E+03</rscale>
<asrwt>0</asrwt>
<pdfrwt beam="1">  1       21 0.42894819E-01 0.22089722E+03</pdfrwt>
<pdfrwt beam="2">  1       21 0.29920508E-01 0.22089722E+03</pdfrwt>
<totfact> 0.55263598E+04</totfact>
</mgrwt>
</event>
<event>
 4    1  0.3883260E+000  0.2693023E+03  0.7546771E-02  0.1101680E+00
         21   -1    0    0  501  502  0.00000000000E+00  0.00000000000E+00  0.74211328444E+03  0.74211328444E+03  0.00000000000E+00 0.  1.
         21   -1    0    0  502  503 -0.00000000000E+00 -0.00000000000E+00 -0.17193384479E+03  0.17193384479E+03  0.00000000000E+00 0.  1.
          6    1    1    2  501    0  0.16196873327E+03 -0.12790946905E+03  0.58533974449E+03  0.64431849213E+03  0.17300000000E+03 0.  1.
         -6    1    1    2    0  503 -0.16196873327E+03  0.12790946905E+03 -0.15160304835E+02  0.26972863710E+03  0.17300000000E+03 0.  1.
<mgrwt>
<rscale>  2 0.26930225E+03</rscale>
<asrwt>0</asrwt>
<pdfrwt beam="1">  1       21 0.11417127E+00 0.26930225E+03</pdfrwt>
<pdfrwt beam="2">  1       21 0.26451361E-01 0.26930225E+03</pdfrwt>
<totfact> 0.77187540E+03</totfact>
</mgrwt>
</event>
<event>
 4    1  0.3883260E+000  0.1842336E+03  0.7546771E-02  0.1163767E+00
         21   -1    0    0  503  502  0.00000000000E+00  0.00000000000E+00  0.20140617665E+03  0.20140617665E+03  0.00000000000E+00 0. -1.
         21   -1    0    0  501  503 -0.00000000000E+00 -0.00000000000E+00 -0.28620229242E+03  0.28620229242E+03  0.00000000000E+00 0.  1.
          6    1    1    2  501    0  0.40306996335E+02 -0.48871003863E+02 -0.19873101326E+03  0.27099085705E+03  0.17300000000E+03 0.  1.
         -6    1    1    2    0  502 -0.40306996335E+02  0.48871003863E+02  0.11393489749E+03  0.21661761202E+03  0.17300000000E+03 0. -1.
<mgrwt>
<rscale>  2 0.18423363E+03</rscale>
<asrwt>0</asrwt>
<pdfrwt beam="1">  1       21 0.30985566E-01 0.18423363E+03</pdfrwt>
<pdfrwt beam="2">  1       21 0.44031122E-01 0.18423363E+03</pdfrwt>
<totfact> 0.49766865E+04</totfact>
</mgrwt>
</event>
<event>
 4    1  0.3883260E+000  0.2041572E+03  0.7546771E-02  0.1146278E+00
         21   -1    0    0  501  502  0.00000000000E+00  0.00000000000E+00  0.63075845796E+02  0.63075845796E+02  0.00000000000E+00 0.  1.
         21   -1    0    0  502  503 -0.00000000000E+00 -0.00000000000E+00 -0.68804486495E+03  0.68804486495E+03  0.00000000000E+00 0. -1.
          6    1    1    2  501    0 -0.42307956107E+02  0.99805740499E+02 -0.23774324712E+03  0.31337198429E+03  0.17300000000E+03 0.  1.
         -6    1    1    2    0  503  0.42307956107E+02 -0.99805740499E+02 -0.38722577204E+03  0.43774872646E+03  0.17300000000E+03 0. -1.
<mgrwt>
<rscale>  2 0.20415717E+03</rscale>
<asrwt>0</asrwt>
<pdfrwt beam="1">  1       21 0.97039763E-02 0.20415717E+03</pdfrwt>
<pdfrwt beam="2">  1       21 0.10585306E+00 0.20415717E+03</pdfrwt>
<totfact> 0.60962749E+04</totfact>
</mgrwt>
</event>
<event>
 4    1  0.3883260E+000  0.1780797E+03  0.7546771E-02  0.1169675E+00
         21   -1    0    0  501  502  0.00000000000E+00  0.00000000000E+00  0.86171592846E+02  0.86171592846E+02  0.00000000000E+00 0. -1.
         21   -1    0    0  502  503 -0.00000000000E+00 -0.00000000000E+00 -0.37621964791E+03  0.37621964791E+03  0.00000000000E+00 0. -1.
          6    1    1    2  501    0  0.89772481702E+01  0.41264841625E+02 -0.17916748156E+03  0.25261307288E+03  0.17300000000E+03 0. -1.
         -6    1    1    2    0  503 -0.89772481702E+01 -0.41264841625E+02 -0.11088057350E+03  0.20977816788E+03  0.17300000000E+03 0. -1.
<mgrwt>
<rscale>  2 0.17807970E+03</rscale>
<asrwt>0</asrwt>
<pdfrwt beam="1">  1       21 0.13257168E-01 0.17807970E+03</pdfrwt>
<pdfrwt beam="2">  1       21 0.57879946E-01 0.17807970E+03</pdfrwt>
<totfact> 0.13800798E+05</totfact>
</mgrwt>
</event>
<event>
 4    1  0.3883260E+000  0.1924325E+03  0.7546771E-02  0.1156285E+00
         21   -1    0    0  501  502  0.00000000000E+00  0.00000000000E+00  0.16081912943E+04  0.16081912943E+04  0.00000000000E+00 0.  1.
         21   -1    0    0  502  503 -0.00000000000E+00 -0.00000000000E+00 -0.23546063545E+02  0.23546063545E+02  0.00000000000E+00 0. -1.
          6    1    1    2  501    0  0.81327242171E+02  0.22071428654E+02  0.91357070111E+03  0.93361753101E+03  0.17300000000E+03 0.  1.
         -6    1    1    2    0  503 -0.81327242171E+02 -0.22071428654E+02  0.67107452962E+03  0.69811982682E+03  0.17300000000E+03 0. -1.
<mgrwt>
<rscale>  2 0.19243250E+03</rscale>
<asrwt>0</asrwt>
<pdfrwt beam="1">  1       21 0.24741396E+00 0.19243250E+03</pdfrwt>
<pdfrwt beam="2">  1       21 0.36224726E-02 0.19243250E+03</pdfrwt>
<totfact> 0.31858892E+04</totfact>
</mgrwt>
</event>
<event>
 4    1  0.3883260E+000  0.1877884E+03  0.7546771E-02  0.1160471E+00
         21   -1    0    0  503  502  0.00000000000E+00  0.00000000000E+00  0.85788019202E+03  0.85788019202E+03  0.00000000000E+00 0. -1.
         21   -1    0    0  501  503 -0.00000000000E+00 -0.00000000000E+00 -0.44454797081E+02  0.44454797081E+02  0.00000000000E+00 0. -1.
          6    1    1    2  501    0 -0.64929236918E+02 -0.33461702921E+02  0.28289363519E+03  0.33954867132E+03  0.17300000000E+03 0. -1.
         -6    1    1    2    0  502  0.64929236918E+02  0.33461702921E+02  0.53053175975E+03  0.56278631777E+03  0.17300000000E+03 0. -1.
<mgrwt>
<rscale>  2 0.18778842E+03</rscale>
<asrwt>0</asrwt>
<pdfrwt beam="1">  1       21 0.13198156E+00 0.18778842E+03</pdfrwt>
<pdfrwt beam="2">  1       21 0.68392002E-02 0.18778842E+03</pdfrwt>
<totfact> 0.65667061E+04</totfact>
</mgrwt>
</event>
<event>
 4    1  0.3883260E+000  0.2738243E+03  0.7546771E-02  0.1099111E+00
         21   -1    0    0  503  502  0.00000000000E+00  0.00000000000E+00  0.28236128515E+03  0.28236128515E+03  0.00000000000E+00 0. -1.
         21   -1    0    0  501  503 -0.00000000000E+00 -0.00000000000E+00 -0.33256921128E+03  0.33256921128E+03  0.00000000000E+00 0.  1.
          6    1    1    2  501    0  0.79967774694E+02 -0.19661110863E+03 -0.16313260074E+03  0.31873502859E+03  0.17300000000E+03 0.  1.
         -6    1    1    2    0  502 -0.79967774694E+02  0.19661110863E+03  0.11292467462E+03  0.29619546783E+03  0.17300000000E+03 0. -1.
<mgrwt>
<rscale>  2 0.27382435E+03</rscale>
<asrwt>0</asrwt>
<pdfrwt beam="1">  1       21 0.43440198E-01 0.27382435E+03</pdfrwt>
<pdfrwt beam="2">  1       21 0.51164494E-01 0.27382435E+03</pdfrwt>
<totfact> 0.17717201E+04</totfact>
</mgrwt>
</event>
<event>
 4    1  0.3883260E+000  0.2688874E+03  0.7546771E-02  0.1101918E+00
         21   -1    0    0  503  502  0.00000000000E+00  0.00000000000E+00  0.84432382922E+02  0.84432382922E+02  0.00000000000E+00 0. -1.
         21   -1    0    0  501  503 -0.00000000000E+00 -0.00000000000E+00 -0.97416246201E+03  0.97416246201E+03  0.00000000000E+00 0.  1.
          6    1    1    2  501    0 -0.18555654519E+03  0.89107961200E+02 -0.62896334136E+03  0.68402876035E+03  0.17300000000E+03 0.  1.
         -6    1    1    2    0  502  0.18555654519E+03 -0.89107961200E+02 -0.26076673773E+03  0.37456608458E+03  0.17300000000E+03 0.  1.
<mgrwt>
<rscale>  2 0.26888745E+03</rscale>
<asrwt>0</asrwt>
<pdfrwt beam="1">  1       21 0.12989598E-01 0.26888745E+03</pdfrwt>
<pdfrwt beam="2">  1       21 0.14987114E+00 0.26888745E+03</pdfrwt>
<totfact> 0.14546760E+04</totfact>
</mgrwt>
</event>
<event>
 4    1  0.3883260E+000  0.2294276E+03  0.7546771E-02  0.1127043E+00
         21   -1    0    0  503  502  0.00000000000E+00  0.00000000000E+00  0.13918686155E+03  0.13918686155E+03  0.00000000000E+00 0. -1.
         21   -1    0    0  501  503 -0.00000000000E+00 -0.00000000000E+00 -0.79124205881E+03  0.79124205881E+03  0.00000000000E+00 0. -1.
          6    1    1    2  501    0  0.62067348626E+02  0.13731594297E+03 -0.66215868666E+03  0.70077895964E+03  0.17300000000E+03 0. -1.
         -6    1    1    2    0  502 -0.62067348626E+02 -0.13731594297E+03  0.10103489404E+02  0.22964996072E+03  0.17300000000E+03 0. -1.
<mgrwt>
<rscale>  2 0.22942760E+03</rscale>
<asrwt>0</asrwt>
<pdfrwt beam="1">  1       21 0.21413363E-01 0.22942760E+03</pdfrwt>
<pdfrwt beam="2">  1       21 0.12172955E+00 0.22942760E+03</pdfrwt>
<totfact> 0.10093877E+04</totfact>
</mgrwt>
</event>
<event>
 4    1  0.3883260E+000  0.2309826E+03  0.7546771E-02  0.1125950E+00
         21   -1    0    0  503  502  0.00000000000E+00  0.00000000000E+00  0.87860926272E+03  0.87860926272E+03  0.00000000000E+00 0.  1.
         21   -1    0    0  501  503 -0.00000000000E+00 -0.00000000000E+00 -0.74847553085E+02  0.74847553085E+02  0.00000000000E+00 0.  1.
          6    1    1    2  501    0  0.15124125764E+03 -0.23452840844E+02  0.19479557626E+03  0.30215603632E+03  0.17300000000E+03 0.  1.
         -6    1    1    2    0  502 -0.15124125764E+03  0.23452840844E+02  0.60896613338E+03  0.65130077949E+03  0.17300000000E+03 0.  1.
<mgrwt>
<rscale>  2 0.23098258E+03</rscale>
<asrwt>0</asrwt>
<pdfrwt beam="1">  1       21 0.13517065E+00 0.23098258E+03</pdfrwt>
<pdfrwt beam="2">  1       21 0.11515009E-01 0.23098258E+03</pdfrwt>
<totfact> 0.24173491E+04</totfact>
</mgrwt>
</event>
<event>
 4    1  0.3883260E+000  0.1938939E+03  0.7546771E-02  0.1154995E+00
         21   -1    0    0  503  502  0.00000000000E+00  0.00000000000E+00  0.13788627808E+03  0.13788627808E+03  0.00000000000E+00 0. -1.
         21   -1    0    0  501  503 -0.00000000000E+00 -0.00000000000E+00 -0.12350768826E+04  0.12350768826E+04  0.00000000000E+00 0. -1.
          6    1    1    2  501    0 -0.61891890801E+02  0.61929222160E+02 -0.11545854092E+04  0.11707528782E+04  0.17300000000E+03 0. -1.
         -6    1    1    2    0  502  0.61891890801E+02 -0.61929222160E+02  0.57394804734E+02  0.20221028242E+03  0.17300000000E+03 0. -1.
<mgrwt>
<rscale>  2 0.19389387E+03</rscale>
<asrwt>0</asrwt>
<pdfrwt beam="1">  1       21 0.21213272E-01 0.19389387E+03</pdfrwt>
<pdfrwt beam="2">  1       21 0.19001184E+00 0.19389387E+03</pdfrwt>
<totfact> 0.32198971E+03</totfact>
</mgrwt>
</event>
<event>
 4    1  0.3883260E+000  0.1975736E+03  0.7546771E-02  0.1151802E+00
         21   -1    0    0  501  502  0.00000000000E+00  0.00000000000E+00  0.24138659901E+03  0.24138659901E+03  0.00000000000E+00 0. -1.
         21   -1    0    0  502  503 -0.00000000000E+00 -0.00000000000E+00 -0.39608583548E+03  0.39608583548E+03  0.00000000000E+00 0. -1.
          6    1    1    2  501    0  0.71984961134E+02  0.62645881345E+02  0.16783342642E+03  0.25923618594E+03  0.17300000000E+03 0. -1.
         -6    1    1    2    0  503 -0.71984961134E+02 -0.62645881345E+02 -0.32253266290E+03  0.37823624855E+03  0.17300000000E+03 0. -1.
<mgrwt>
<rscale>  2 0.19757363E+03</rscale>
<asrwt>0</asrwt>
<pdfrwt beam="1">  1       21 0.37136400E-01 0.19757363E+03</pdfrwt>
<pdfrwt beam="2">  1       21 0.60936282E-01 0.19757363E+03</pdfrwt>
<totfact> 0.17474287E+04</totfact>
</mgrwt>
</event>
<event>
 4    1  0.3883260E+000  0.1814629E+03  0.7546771E-02  0.1166395E+00
         21   -1    0    0  501  502  0.00000000000E+00  0.00000000000E+00  0.79953889140E+02  0.79953889140E+02  0.00000000000E+00 0.  1.
         21   -1    0    0  502  503 -0.00000000000E+00 -0.00000000000E+00 -0.15242204577E+04  0.15242204577E+04  0.00000000000E+00 0.  1.
          6    1    1    2  501    0  0.49007438555E+02  0.24455114588E+02 -0.36924444592E+02  0.18518152249E+03  0.17300000000E+03 0.  1.
         -6    1    1    2    0  503 -0.49007438555E+02 -0.24455114588E+02 -0.14073421240E+04  0.14189928244E+04  0.17300000000E+03 0.  1.
<mgrwt>
<rscale>  2 0.18146289E+03</rscale>
<asrwt>0</asrwt>
<pdfrwt beam="1">  1       21 0.12300599E-01 0.18146289E+03</pdfrwt>
<pdfrwt beam="2">  1       21 0.23449545E+00 0.18146289E+03</pdfrwt>
<totfact> 0.46669779E+03</totfact>
</mgrwt>
</event>
<event>
 4    1  0.3883260E+000  0.1741587E+03  0.7546771E-02  0.1173579E+00
         21   -1    0    0  503  502  0.00000000000E+00  0.00000000000E+00  0.24739424127E+03  0.24739424127E+03  0.00000000000E+00 0.  1.
         21   -1    0    0  501  503 -0.00000000000E+00 -0.00000000000E+00 -0.13148381403E+03  0.13148381403E+03  0.00000000000E+00 0.  1.
          6    1    1    2  501    0  0.20010129193E+02  0.13586958319E+01  0.87215502382E+01  0.17437693874E+03  0.17300000000E+03 0. -1.
         -6    1    1    2    0  502 -0.20010129193E+02 -0.13586958319E+01  0.10718887700E+03  0.20450111657E+03  0.17300000000E+03 0. -1.
<mgrwt>
<rscale>  2 0.17415870E+03</rscale>
<asrwt>0</asrwt>
<pdfrwt beam="1">  1       21 0.38060652E-01 0.17415870E+03</pdfrwt>
<pdfrwt beam="2">  1       21 0.20228279E-01 0.17415870E+03</pdfrwt>
<totfact> 0.15134976E+05</totfact>
</mgrwt>
</event>
<event>
 4    1  0.3883260E+000  0.1935672E+03  0.7546771E-02  0.1155283E+00
         21   -1    0    0  501  502  0.00000000000E+00  0.00000000000E+00  0.19960062589E+03  0.19960062589E+03  0.00000000000E+00 0. -1.
         21   -1    0    0  502  503 -0.00000000000E+00 -0.00000000000E+00 -0.28004159055E+03  0.28004159055E+03  0.00000000000E+00 0. -1.
          6    1    1    2  501    0  0.70552554812E+02  0.50612403099E+02  0.97480369899E+02  0.21672724991E+03  0.17300000000E+03 0. -1.
         -6    1    1    2    0  503 -0.70552554812E+02 -0.50612403099E+02 -0.17792133456E+03  0.26291496654E+03  0.17300000000E+03 0. -1.
<mgrwt>
<rscale>  2 0.19356725E+03</rscale>
<asrwt>0</asrwt>
<pdfrwt beam="1">  1       21 0.30707789E-01 0.19356725E+03</pdfrwt>
<pdfrwt beam="2">  1       21 0.43083321E-01 0.19356725E+03</pdfrwt>
<totfact> 0.52727257E+04</totfact>
</mgrwt>
</event>
<event>
 4    1  0.3883260E+000  0.2504891E+03  0.7546771E-02  0.1112996E+00
         21   -1    0    0  501  502  0.00000000000E+00  0.00000000000E+00  0.47417613289E+03  0.47417613289E+03  0.00000000000E+00 0.  1.
         21   -1    0    0  502  503 -0.00000000000E+00 -0.00000000000E+00 -0.27830322749E+03  0.27830322749E+03  0.00000000000E+00 0. -1.
          6    1    1    2  501    0 -0.17075483673E+03  0.60486011379E+02  0.37042694477E+03  0.44716987068E+03  0.17300000000E+03 0.  1.
         -6    1    1    2    0  503  0.17075483673E+03 -0.60486011379E+02 -0.17455403937E+03  0.30530948969E+03  0.17300000000E+03 0. -1.
<mgrwt>
<rscale>  2 0.25048907E+03</rscale>
<asrwt>0</asrwt>
<pdfrwt beam="1">  1       21 0.72950174E-01 0.25048907E+03</pdfrwt>
<pdfrwt beam="2">  1       21 0.42815881E-01 0.25048907E+03</pdfrwt>
<totfact> 0.85492521E+03</totfact>
</mgrwt>
</event>
<event>
 4    1  0.3883260E+000  0.2091572E+03  0.7546771E-02  0.1142235E+00
         21   -1    0    0  501  502  0.00000000000E+00  0.00000000000E+00  0.18280272451E+03  0.18280272451E+03  0.00000000000E+00 0. -1.
         21   -1    0    0  502  503 -0.00000000000E+00 -0.00000000000E+00 -0.86431749138E+03  0.86431749138E+03  0.00000000000E+00 0. -1.
          6    1    1    2  501    0 -0.11598966464E+03 -0.19081893012E+02  0.10446001451E+03  0.23379182102E+03  0.17300000000E+03 0. -1.
         -6    1    1    2    0  503  0.11598966464E+03  0.19081893012E+02 -0.78597478138E+03  0.81332839488E+03  0.17300000000E+03 0. -1.
<mgrwt>
<rscale>  2 0.20915717E+03</rscale>
<asrwt>0</asrwt>
<pdfrwt beam="1">  1       21 0.28123496E-01 0.20915717E+03</pdfrwt>
<pdfrwt beam="2">  1       21 0.13297192E+00 0.20915717E+03</pdfrwt>
<totfact> 0.48659258E+03</totfact>
</mgrwt>
</event>
<event>
 4    1  0.3883260E+000  0.3264002E+03  0.7546771E-02  0.1072741E+00
         21   -1    0    0  503  502  0.00000000000E+00  0.00000000000E+00  0.39685064377E+03  0.39685064377E+03  0.00000000000E+00 0. -1.
         21   -1    0    0  501  503 -0.00000000000E+00 -0.00000000000E+00 -0.27398954346E+03  0.27398954346E+03  0.00000000000E+00 0.  1.
          6    1    1    2  501    0  0.27072960427E+03 -0.57563535730E+02  0.13764450307E+02  0.32669028049E+03  0.17300000000E+03 0.  1.
         -6    1    1    2    0  502 -0.27072960427E+03  0.57563535730E+02  0.10909665001E+03  0.34414990675E+03  0.17300000000E+03 0. -1.
<mgrwt>
<rscale>  2 0.32640018E+03</rscale>
<asrwt>0</asrwt>
<pdfrwt beam="1">  1       21 0.61053945E-01 0.32640018E+03</pdfrwt>
<pdfrwt beam="2">  1       21 0.42152238E-01 0.32640018E+03</pdfrwt>
<totfact> 0.12621032E+04</totfact>
</mgrwt>
</event>
<event>
 4    1  0.3883260E+000  0.2410154E+03  0.7546771E-02  0.1119118E+00
         21   -1    0    0  503  502  0.00000000000E+00  0.00000000000E+00  0.95732480280E+03  0.95732480280E+03  0.00000000000E+00 0.  1.
         21   -1    0    0  501  503 -0.00000000000E+00 -0.00000000000E+00 -0.20319474444E+03  0.20319474444E+03  0.00000000000E+00 0. -1.
          6    1    1    2  501    0 -0.13758044814E+03  0.96078266550E+02 -0.10889371415E+03  0.26447354120E+03  0.17300000000E+03 0. -1.
         -6    1    1    2    0  502  0.13758044814E+03 -0.96078266550E+02  0.86302377251E+03  0.89604600604E+03  0.17300000000E+03 0.  1.
<mgrwt>
<rscale>  2 0.24101538E+03</rscale>
<asrwt>0</asrwt>
<pdfrwt beam="1">  1       21 0.14728074E+00 0.24101538E+03</pdfrwt>
<pdfrwt beam="2">  1       21 0.31260731E-01 0.24101538E+03</pdfrwt>
<totfact> 0.29626435E+03</totfact>
</mgrwt>
</event>
<event>
 4    1  0.3883260E+000  0.1846759E+03  0.7546771E-02  0.1163353E+00
         21   -1    0    0  503  502  0.00000000000E+00  0.00000000000E+00  0.14459414805E+03  0.14459414805E+03  0.00000000000E+00 0.  1.
         21   -1    0    0  501  503 -0.00000000000E+00 -0.00000000000E+00 -0.63521506293E+03  0.63521506293E+03  0.00000000000E+00 0.  1.
          6    1    1    2  501    0  0.59114219386E+02 -0.26109245595E+02 -0.55446314486E+03  0.58440958466E+03  0.17300000000E+03 0.  1.
         -6    1    1    2    0  502 -0.59114219386E+02  0.26109245595E+02  0.63842229976E+02  0.19539962632E+03  0.17300000000E+03 0.  1.
<mgrwt>
<rscale>  2 0.18467589E+03</rscale>
<asrwt>0</asrwt>
<pdfrwt beam="1">  1       21 0.22245253E-01 0.18467589E+03</pdfrwt>
<pdfrwt beam="2">  1       21 0.97725395E-01 0.18467589E+03</pdfrwt>
<totfact> 0.16469725E+04</totfact>
</mgrwt>
</event>
<event>
 4    1  0.3883260E+000  0.2145887E+03  0.7546771E-02  0.1137983E+00
         21   -1    0    0  503  502  0.00000000000E+00  0.00000000000E+00  0.14368524053E+03  0.14368524053E+03  0.00000000000E+00 0.  1.
         21   -1    0    0  501  503 -0.00000000000E+00 -0.00000000000E+00 -0.49393823202E+03  0.49393823202E+03  0.00000000000E+00 0.  1.
          6    1    1    2  501    0  0.90332431796E+02 -0.89215359655E+02 -0.36405379481E+03  0.42259140331E+03  0.17300000000E+03 0.  1.
         -6    1    1    2    0  502 -0.90332431796E+02  0.89215359655E+02  0.13800803317E+02  0.21503206925E+03  0.17300000000E+03 0.  1.
<mgrwt>
<rscale>  2 0.21458874E+03</rscale>
<asrwt>0</asrwt>
<pdfrwt beam="1">  1       21 0.22105422E-01 0.21458874E+03</pdfrwt>
<pdfrwt beam="2">  1       21 0.75990497E-01 0.21458874E+03</pdfrwt>
<totfact> 0.29181138E+04</totfact>
</mgrwt>
</event>
<event>
 4    1  0.3883260E+000  0.1919484E+03  0.7546771E-02  0.1156716E+00
         21   -1    0    0  501  502  0.00000000000E+00  0.00000000000E+00  0.12936410789E+04  0.12936410789E+04  0.00000000000E+00 0. -1.
         21   -1    0    0  502  503 -0.00000000000E+00 -0.00000000000E+00 -0.37647192984E+02  0.37647192984E+02  0.00000000000E+00 0. -1.
          6    1    1    2  501    0  0.43812330400E+02  0.70680007421E+02  0.95644783961E+03  0.97551865878E+03  0.17300000000E+03 0. -1.
         -6    1    1    2    0  503 -0.43812330400E+02 -0.70680007421E+02  0.29954604629E+03  0.35576961308E+03  0.17300000000E+03 0. -1.
<mgrwt>
<rscale>  2 0.19194839E+03</rscale>
<asrwt>0</asrwt>
<pdfrwt beam="1">  1       21 0.19902167E+00 0.19194839E+03</pdfrwt>
<pdfrwt beam="2">  1       21 0.57918768E-02 0.19194839E+03</pdfrwt>
<totfact> 0.28547509E+04</totfact>
</mgrwt>
</event>
<event>
 4    1  0.3883260E+000  0.2099905E+03  0.7546771E-02  0.1141574E+00
         21   -1    0    0  501  502  0.00000000000E+00  0.00000000000E+00  0.14471360223E+03  0.14471360223E+03  0.00000000000E+00 0. -1.
         21   -1    0    0  502  503 -0.00000000000E+00 -0.00000000000E+00 -0.51823817317E+03  0.51823817317E+03  0.00000000000E+00 0. -1.
          6    1    1    2  501    0  0.11479489855E+03 -0.31450520431E+02  0.26008780927E+02  0.21159503929E+03  0.17300000000E+03 0. -1.
         -6    1    1    2    0  503 -0.11479489855E+03  0.31450520431E+02 -0.39953335187E+03  0.45135673610E+03  0.17300000000E+03 0. -1.
<mgrwt>
<rscale>  2 0.20999049E+03</rscale>
<asrwt>0</asrwt>
<pdfrwt beam="1">  1       21 0.22263631E-01 0.20999049E+03</pdfrwt>
<pdfrwt beam="2">  1       21 0.79728950E-01 0.20999049E+03</pdfrwt>
<totfact> 0.25900650E+04</totfact>
</mgrwt>
</event>
<event>
 4    1  0.3883260E+000  0.2049448E+03  0.7546771E-02  0.1145633E+00
         21   -1    0    0  501  502  0.00000000000E+00  0.00000000000E+00  0.10812569003E+04  0.10812569003E+04  0.00000000000E+00 0. -1.
         21   -1    0    0  502  503 -0.00000000000E+00 -0.00000000000E+00 -0.65406458057E+02  0.65406458057E+02  0.00000000000E+00 0.  1.
          6    1    1    2  501    0  0.96906151657E+02  0.51793398527E+02  0.87327976809E+03  0.89700608232E+03  0.17300000000E+03 0. -1.
         -6    1    1    2    0  503 -0.96906151657E+02 -0.51793398527E+02  0.14257067419E+03  0.24965727608E+03  0.17300000000E+03 0.  1.
<mgrwt>
<rscale>  2 0.20494477E+03</rscale>
<asrwt>0</asrwt>
<pdfrwt beam="1">  1       21 0.16634720E+00 0.20494477E+03</pdfrwt>
<pdfrwt beam="2">  1       21 0.10062533E-01 0.20494477E+03</pdfrwt>
<totfact> 0.18018345E+04</totfact>
</mgrwt>
</event>
<event>
 4    1  0.3883260E+000  0.2112319E+03  0.7546771E-02  0.1140594E+00
         21   -1    0    0  503  502  0.00000000000E+00  0.00000000000E+00  0.64189325471E+03  0.64189325471E+03  0.00000000000E+00 0.  1.
         21   -1    0    0  501  503 -0.00000000000E+00 -0.00000000000E+00 -0.11015143530E+03  0.11015143530E+03  0.00000000000E+00 0.  1.
          6    1    1    2  501    0  0.11927634272E+03  0.21518764354E+02  0.37471185506E+02  0.21452970166E+03  0.17300000000E+03 0.  1.
         -6    1    1    2    0  502 -0.11927634272E+03 -0.21518764354E+02  0.49427063391E+03  0.53751498834E+03  0.17300000000E+03 0.  1.
<mgrwt>
<rscale>  2 0.21123187E+03</rscale>
<asrwt>0</asrwt>
<pdfrwt beam="1">  1       21 0.98752806E-01 0.21123187E+03</pdfrwt>
<pdfrwt beam="2">  1       21 0.16946375E-01 0.21123187E+03</pdfrwt>
<totfact> 0.26252419E+04</totfact>
</mgrwt>
</event>
<event>
 4    1  0.3883260E+000  0.2276994E+03  0.7546771E-02  0.1128270E+00
         21   -1    0    0  503  502  0.00000000000E+00  0.00000000000E+00  0.47183041459E+03  0.47183041459E+03  0.00000000000E+00 0. -1.
         21   -1    0    0  501  503 -0.00000000000E+00 -0.00000000000E+00 -0.36300031812E+03  0.36300031812E+03  0.00000000000E+00 0.  1.
          6    1    1    2  501    0  0.46558606831E+02  0.14053575305E+03 -0.29414234250E+03  0.37197677267E+03  0.17300000000E+03 0.  1.
         -6    1    1    2    0  502 -0.46558606831E+02 -0.14053575305E+03  0.40297243897E+03  0.46285396004E+03  0.17300000000E+03 0. -1.
<mgrwt>
<rscale>  2 0.22769937E+03</rscale>
<asrwt>0</asrwt>
<pdfrwt beam="1">  1       21 0.72589294E-01 0.22769937E+03</pdfrwt>
<pdfrwt beam="2">  1       21 0.55846203E-01 0.22769937E+03</pdfrwt>
<totfact> 0.50314961E+03</totfact>
</mgrwt>
</event>
<event>
 4    1  0.3883260E+000  0.2243591E+03  0.7546771E-02  0.1130674E+00
         21   -1    0    0  501  502  0.00000000000E+00  0.00000000000E+00  0.23385145616E+03  0.23385145616E+03  0.00000000000E+00 0.  1.
         21   -1    0    0  502  503 -0.00000000000E+00 -0.00000000000E+00 -0.34525464370E+03  0.34525464370E+03  0.00000000000E+00 0.  1.
          6    1    1    2  501    0 -0.13618154084E+03  0.43157644105E+02  0.12197673753E+03  0.25537290148E+03  0.17300000000E+03 0.  1.
         -6    1    1    2    0  503  0.13618154084E+03 -0.43157644105E+02 -0.23337992508E+03  0.32373319839E+03  0.17300000000E+03 0.  1.
<mgrwt>
<rscale>  2 0.22435907E+03</rscale>
<asrwt>0</asrwt>
<pdfrwt beam="1">  1       21 0.35977147E-01 0.22435907E+03</pdfrwt>
<pdfrwt beam="2">  1       21 0.53116099E-01 0.22435907E+03</pdfrwt>
<totfact> 0.24576769E+04</totfact>
</mgrwt>
</event>
<event>
 4    1  0.3883260E+000  0.1927294E+03  0.7546771E-02  0.1156022E+00
         21   -1    0    0  503  502  0.00000000000E+00  0.00000000000E+00  0.16603444476E+04  0.16603444476E+04  0.00000000000E+00 0. -1.
         21   -1    0    0  501  503 -0.00000000000E+00 -0.00000000000E+00 -0.30233557048E+02  0.30233557048E+02  0.00000000000E+00 0. -1.
          6    1    1    2  501    0 -0.82797069213E+02 -0.18980286641E+02  0.38400788106E+03  0.42965877003E+03  0.17300000000E+03 0. -1.
         -6    1    1    2    0  502  0.82797069213E+02  0.18980286641E+02  0.12461030095E+04  0.12609192346E+04  0.17300000000E+03 0. -1.
<mgrwt>
<rscale>  2 0.19272936E+03</rscale>
<asrwt>0</asrwt>
<pdfrwt beam="1">  1       21 0.25543754E+00 0.19272936E+03</pdfrwt>
<pdfrwt beam="2">  1       21 0.46513178E-02 0.19272936E+03</pdfrwt>
<totfact> 0.18780832E+04</totfact>
</mgrwt>
</event>
<event>
 4    1  0.3883260E+000  0.3382717E+03  0.7546771E-02  0.1067534E+00
         21   -1    0    0  501  502  0.00000000000E+00  0.00000000000E+00  0.61857937973E+03  0.61857937973E+03  0.00000000000E+00 0.  1.
         21   -1    0    0  502  503 -0.00000000000E+00 -0.00000000000E+00 -0.18605777504E+03  0.18605777504E+03  0.00000000000E+00 0. -1.
          6    1    1    2  501    0 -0.74505391752E+02  0.28097629662E+03  0.24681405151E+03  0.41874205507E+03  0.17300000000E+03 0. -1.
         -6    1    1    2    0  503  0.74505391752E+02 -0.28097629662E+03  0.18570755319E+03  0.38589509970E+03  0.17300000000E+03 0.  1.
<mgrwt>
<rscale>  2 0.33827168E+03</rscale>
<asrwt>0</asrwt>
<pdfrwt beam="1">  1       21 0.95166058E-01 0.33827168E+03</pdfrwt>
<pdfrwt beam="2">  1       21 0.28624273E-01 0.33827168E+03</pdfrwt>
<totfact> 0.99621221E+03</totfact>
</mgrwt>
</event>
<event>
 4    1  0.3883260E+000  0.2347098E+03  0.7546771E-02  0.1123368E+00
         21   -1    0    0  501  502  0.00000000000E+00  0.00000000000E+00  0.17259319675E+03  0.17259319675E+03  0.00000000000E+00 0.  1.
         21   -1    0    0  502  503 -0.00000000000E+00 -0.00000000000E+00 -0.33178115646E+03  0.33178115646E+03  0.00000000000E+00 0. -1.
          6    1    1    2  501    0 -0.12060732591E+03 -0.10302209432E+03 -0.30450698030E+02  0.23667683450E+03  0.17300000000E+03 0.  1.
         -6    1    1    2    0  503  0.12060732591E+03  0.10302209432E+03 -0.12873726168E+03  0.26769751871E+03  0.17300000000E+03 0. -1.
<mgrwt>
<rscale>  2 0.23470978E+03</rscale>
<asrwt>0</asrwt>
<pdfrwt beam="1">  1       21 0.26552799E-01 0.23470978E+03</pdfrwt>
<pdfrwt beam="2">  1       21 0.51043255E-01 0.23470978E+03</pdfrwt>
<totfact> 0.48302364E+04</totfact>
</mgrwt>
</event>
<event>
 4    1  0.3883260E+000  0.1859399E+03  0.7546771E-02  0.1162175E+00
         21   -1    0    0  503  502  0.00000000000E+00  0.00000000000E+00  0.79462084544E+02  0.79462084544E+02  0.00000000000E+00 0. -1.
         21   -1    0    0  501  503 -0.00000000000E+00 -0.00000000000E+00 -0.43813244067E+03  0.43813244067E+03  0.00000000000E+00 0. -1.
          6    1    1    2  501    0  0.25032687787E+02  0.63387882883E+02 -0.20087875225E+03  0.27372601678E+03  0.17300000000E+03 0. -1.
         -6    1    1    2    0  502 -0.25032687787E+02 -0.63387882883E+02 -0.15779160387E+03  0.24386850844E+03  0.17300000000E+03 0. -1.
<mgrwt>
<rscale>  2 0.18593993E+03</rscale>
<asrwt>0</asrwt>
<pdfrwt beam="1">  1       21 0.12224936E-01 0.18593993E+03</pdfrwt>
<pdfrwt beam="2">  1       21 0.67404992E-01 0.18593993E+03</pdfrwt>
<totfact> 0.11456277E+05</totfact>
</mgrwt>
</event>
<event>
 4    1  0.3883260E+000  0.2050904E+03  0.7546771E-02  0.1145514E+00
         21   -1    0    0  501  502  0.00000000000E+00  0.00000000000E+00  0.32240529785E+03  0.32240529785E+03  0.00000000000E+00 0.  1.
         21   -1    0    0  502  503 -0.00000000000E+00 -0.00000000000E+00 -0.17963711892E+03  0.17963711892E+03  0.00000000000E+00 0.  1.
          6    1    1    2  501    0 -0.36017947741E+02  0.10409502759E+03  0.20271871235E+03  0.28836945689E+03  0.17300000000E+03 0.  1.
         -6    1    1    2    0  503  0.36017947741E+02 -0.10409502759E+03 -0.59950533416E+02  0.21367295989E+03  0.17300000000E+03 0.  1.
<mgrwt>
<rscale>  2 0.20509039E+03</rscale>
<asrwt>0</asrwt>
<pdfrwt beam="1">  1       21 0.49600815E-01 0.20509039E+03</pdfrwt>
<pdfrwt beam="2">  1       21 0.27636480E-01 0.20509039E+03</pdfrwt>
<totfact> 0.48118127E+04</totfact>
</mgrwt>
</event>
<event>
 4    1  0.3883260E+000  0.1866689E+03  0.7546771E-02  0.1161501E+00
         21   -1    0    0  501  502  0.00000000000E+00  0.00000000000E+00  0.89325505051E+03  0.89325505051E+03  0.00000000000E+00 0.  1.
         21   -1    0    0  502  503 -0.00000000000E+00 -0.00000000000E+00 -0.41501567776E+02  0.41501567776E+02  0.00000000000E+00 0. -1.
          6    1    1    2  501    0  0.16803442188E+02  0.68072980102E+02  0.54040971242E+03  0.57174115085E+03  0.17300000000E+03 0.  1.
         -6    1    1    2    0  503 -0.16803442188E+02 -0.68072980102E+02  0.31134377032E+03  0.36301546744E+03  0.17300000000E+03 0. -1.
<mgrwt>
<rscale>  2 0.18666892E+03</rscale>
<asrwt>0</asrwt>
<pdfrwt beam="1">  1       21 0.13742384E+00 0.18666892E+03</pdfrwt>
<pdfrwt beam="2">  1       21 0.63848573E-02 0.18666892E+03</pdfrwt>
<totfact> 0.66732056E+04</totfact>
</mgrwt>
</event>
<event>
 4    1  0.3883260E+000  0.2237030E+03  0.7546771E-02  0.1131152E+00
         21   -1    0    0  503  502  0.00000000000E+00  0.00000000000E+00  0.32290926563E+03  0.32290926563E+03  0.00000000000E+00 0.  1.
         21   -1    0    0  501  503 -0.00000000000E+00 -0.00000000000E+00 -0.18157463406E+03  0.18157463406E+03  0.00000000000E+00 0. -1.
          6    1    1    2  501    0 -0.13705906393E+03  0.36453029675E+02  0.16721099430E+03  0.27928932488E+03  0.17300000000E+03 0. -1.
         -6    1    1    2    0  502  0.13705906393E+03 -0.36453029675E+02 -0.25876362739E+02  0.22519457481E+03  0.17300000000E+03 0. -1.
<mgrwt>
<rscale>  2 0.22370295E+03</rscale>
<asrwt>0</asrwt>
<pdfrwt beam="1">  1       21 0.49678348E-01 0.22370295E+03</pdfrwt>
<pdfrwt beam="2">  1       21 0.27934559E-01 0.22370295E+03</pdfrwt>
<totfact> 0.46568684E+04</totfact>
</mgrwt>
</event>
<event>
 4    1  0.3883260E+000  0.2811304E+03  0.7546771E-02  0.1095073E+00
         21   -1    0    0  501  502  0.00000000000E+00  0.00000000000E+00  0.70292711752E+02  0.70292711752E+02  0.00000000000E+00 0.  1.
         21   -1    0    0  502  503 -0.00000000000E+00 -0.00000000000E+00 -0.11860643176E+04  0.11860643176E+04  0.00000000000E+00 0. -1.
          6    1    1    2  501    0 -0.21834278853E+03  0.37838154724E+02 -0.41460518613E+03  0.50093089306E+03  0.17300000000E+03 0. -1.
         -6    1    1    2    0  503  0.21834278853E+03 -0.37838154724E+02 -0.70116641976E+03  0.75542613633E+03  0.17300000000E+03 0.  1.
<mgrwt>
<rscale>  2 0.28113040E+03</rscale>
<asrwt>0</asrwt>
<pdfrwt beam="1">  1       21 0.10814264E-01 0.28113040E+03</pdfrwt>
<pdfrwt beam="2">  1       21 0.18247143E+00 0.28113040E+03</pdfrwt>
<totfact> 0.11656536E+04</totfact>
</mgrwt>
</event>
<event>
 4    1  0.3883260E+000  0.2917386E+03  0.7546771E-02  0.1089445E+00
         21   -1    0    0  501  502  0.00000000000E+00  0.00000000000E+00  0.15910827740E+03  0.15910827740E+03  0.00000000000E+00 0.  1.
         21   -1    0    0  502  503 -0.00000000000E+00 -0.00000000000E+00 -0.60294374904E+03  0.60294374904E+03  0.00000000000E+00 0. -1.
          6    1    1    2  501    0  0.12254447227E+02  0.23458949638E+03 -0.93943553967E+02  0.30649110039E+03  0.17300000000E+03 0.  1.
         -6    1    1    2    0  503 -0.12254447227E+02 -0.23458949638E+03 -0.34989191768E+03  0.45556092605E+03  0.17300000000E+03 0. -1.
<mgrwt>
<rscale>  2 0.29173859E+03</rscale>
<asrwt>0</asrwt>
<pdfrwt beam="1">  1       21 0.24478196E-01 0.29173859E+03</pdfrwt>
<pdfrwt beam="2">  1       21 0.92760577E-01 0.29173859E+03</pdfrwt>
<totfact> 0.14633042E+04</totfact>
</mgrwt>
</event>
<event>
 4    1  0.3883260E+000  0.1987390E+03  0.7546771E-02  0.1150807E+00
         21   -1    0    0  501  502  0.00000000000E+00  0.00000000000E+00  0.64445821874E+03  0.64445821874E+03  0.00000000000E+00 0. -1.
         21   -1    0    0  502  503 -0.00000000000E+00 -0.00000000000E+00 -0.89023769314E+02  0.89023769314E+02  0.00000000000E+00 0.  1.
          6    1    1    2  501    0 -0.81487359500E+02  0.54111029698E+02  0.48242341442E+03  0.52175621134E+03  0.17300000000E+03 0. -1.
         -6    1    1    2    0  503  0.81487359500E+02 -0.54111029698E+02  0.73011035011E+02  0.21172577672E+03  0.17300000000E+03 0.  1.
<mgrwt>
<rscale>  2 0.19873901E+03</rscale>
<asrwt>0</asrwt>
<pdfrwt beam="1">  1       21 0.99147415E-01 0.19873901E+03</pdfrwt>
<pdfrwt beam="2">  1       21 0.13695965E-01 0.19873901E+03</pdfrwt>
<totfact> 0.38632463E+04</totfact>
</mgrwt>
</event>
<event>
 4    1  0.3883260E+000  0.1916624E+03  0.7546771E-02  0.1156970E+00
         21   -1    0    0  503  502  0.00000000000E+00  0.00000000000E+00  0.21952619971E+03  0.21952619971E+03  0.00000000000E+00 0. -1.
         21   -1    0    0  501  503 -0.00000000000E+00 -0.00000000000E+00 -0.28153629859E+03  0.28153629859E+03  0.00000000000E+00 0.  1.
          6    1    1    2  501    0 -0.12919731516E+02 -0.81477432438E+02 -0.19056708885E+03  0.27027820262E+03  0.17300000000E+03 0.  1.
         -6    1    1    2    0  502  0.12919731516E+02  0.81477432438E+02  0.12855698997E+03  0.23078429567E+03  0.17300000000E+03 0. -1.
<mgrwt>
<rscale>  2 0.19166244E+03</rscale>
<asrwt>0</asrwt>
<pdfrwt beam="1">  1       21 0.33773261E-01 0.19166244E+03</pdfrwt>
<pdfrwt beam="2">  1       21 0.43313277E-01 0.19166244E+03</pdfrwt>
<totfact> 0.43300864E+04</totfact>
</mgrwt>
</event>
<event>
 4    1  0.3883260E+000  0.2241705E+03  0.7546771E-02  0.1130811E+00
         21   -1    0    0  501  502  0.00000000000E+00  0.00000000000E+00  0.12638238097E+03  0.12638238097E+03  0.00000000000E+00 0. -1.
         21   -1    0    0  502  503 -0.00000000000E+00 -0.00000000000E+00 -0.80055806460E+03  0.80055806460E+03  0.00000000000E+00 0. -1.
          6    1    1    2  501    0 -0.80432912918E+02  0.11770278189E+03 -0.82789451545E+01  0.22432329187E+03  0.17300000000E+03 0. -1.
         -6    1    1    2    0  503  0.80432912918E+02 -0.11770278189E+03 -0.66589673848E+03  0.70261715369E+03  0.17300000000E+03 0. -1.
<mgrwt>
<rscale>  2 0.22417047E+03</rscale>
<asrwt>0</asrwt>
<pdfrwt beam="1">  1       21 0.19443443E-01 0.22417047E+03</pdfrwt>
<pdfrwt beam="2">  1       21 0.12316278E+00 0.22417047E+03</pdfrwt>
<totfact> 0.11789976E+04</totfact>
</mgrwt>
</event>
<event>
 4    1  0.3883260E+000  0.1785773E+03  0.7546771E-02  0.1169187E+00
         21   -1    0    0  501  502  0.00000000000E+00  0.00000000000E+00  0.18094384235E+03  0.18094384235E+03  0.00000000000E+00 0. -1.
         21   -1    0    0  502  503 -0.00000000000E+00 -0.00000000000E+00 -0.18896685731E+03  0.18896685731E+03  0.00000000000E+00 0. -1.
          6    1    1    2  501    0  0.33714471043E+02 -0.28708488047E+02  0.43984638803E+02  0.18391435859E+03  0.17300000000E+03 0. -1.
         -6    1    1    2    0  503 -0.33714471043E+02  0.28708488047E+02 -0.52007653763E+02  0.18599634108E+03  0.17300000000E+03 0. -1.
<mgrwt>
<rscale>  2 0.17857727E+03</rscale>
<asrwt>0</asrwt>
<pdfrwt beam="1">  1       21 0.27837514E-01 0.17857727E+03</pdfrwt>
<pdfrwt beam="2">  1       21 0.29071824E-01 0.17857727E+03</pdfrwt>
<totfact> 0.14022793E+05</totfact>
</mgrwt>
</event>
<event>
 4    1  0.3883260E+000  0.1778479E+03  0.7546771E-02  0.1169902E+00
         21   -1    0    0  503  502  0.00000000000E+00  0.00000000000E+00  0.92202173683E+02  0.92202173683E+02  0.00000000000E+00 0. -1.
         21   -1    0    0  501  503 -0.00000000000E+00 -0.00000000000E+00 -0.36971439758E+03  0.36971439758E+03  0.00000000000E+00 0. -1.
          6    1    1    2  501    0  0.11779596389E+02  0.39523491557E+02 -0.20078217819E+03  0.26822257241E+03  0.17300000000E+03 0. -1.
         -6    1    1    2    0  502 -0.11779596389E+02 -0.39523491557E+02 -0.76730045715E+02  0.19369399885E+03  0.17300000000E+03 0. -1.
<mgrwt>
<rscale>  2 0.17784787E+03</rscale>
<asrwt>0</asrwt>
<pdfrwt beam="1">  1       21 0.14184950E-01 0.17784787E+03</pdfrwt>
<pdfrwt beam="2">  1       21 0.56879137E-01 0.17784787E+03</pdfrwt>
<totfact> 0.12677536E+05</totfact>
</mgrwt>
</event>
<event>
 4    1  0.3883260E+000  0.1762080E+03  0.7546771E-02  0.1171524E+00
         21   -1    0    0  503  502  0.00000000000E+00  0.00000000000E+00  0.42580745598E+03  0.42580745598E+03  0.00000000000E+00 0. -1.
         21   -1    0    0  501  503 -0.00000000000E+00 -0.00000000000E+00 -0.33829137925E+03  0.33829137925E+03  0.00000000000E+00 0. -1.
          6    1    1    2  501    0  0.33199862754E+02  0.42444839684E+01 -0.29462012918E+03  0.34329326683E+03  0.17300000000E+03 0. -1.
         -6    1    1    2    0  502 -0.33199862754E+02 -0.42444839684E+01  0.38213620591E+03  0.42080556840E+03  0.17300000000E+03 0. -1.
<mgrwt>
<rscale>  2 0.17620796E+03</rscale>
<asrwt>0</asrwt>
<pdfrwt beam="1">  1       21 0.65508840E-01 0.17620796E+03</pdfrwt>
<pdfrwt beam="2">  1       21 0.52044827E-01 0.17620796E+03</pdfrwt>
<totfact> 0.76002466E+03</totfact>
</mgrwt>
</event>
<event>
 4    1  0.3883260E+000  0.3410177E+03  0.7546771E-02  0.1066363E+00
         21   -1    0    0  501  502  0.00000000000E+00  0.00000000000E+00  0.17470171749E+04  0.17470171749E+04  0.00000000000E+00 0.  1.
         21   -1    0    0  502  503 -0.00000000000E+00 -0.00000000000E+00 -0.13949997845E+03  0.13949997845E+03  0.00000000000E+00 0. -1.
          6    1    1    2  501    0  0.22218322660E+03 -0.19235033927E+03  0.14857937843E+04  0.15244265179E+04  0.17300000000E+03 0.  1.
         -6    1    1    2    0  503 -0.22218322660E+03  0.19235033927E+03  0.12172341221E+03  0.36209063545E+03  0.17300000000E+03 0. -1.
<mgrwt>
<rscale>  2 0.34101765E+03</rscale>
<asrwt>0</asrwt>
<pdfrwt beam="1">  1       21 0.26877186E+00 0.34101765E+03</pdfrwt>
<pdfrwt beam="2">  1       21 0.21461536E-01 0.34101765E+03</pdfrwt>
<totfact> 0.90800003E+02</totfact>
</mgrwt>
</event>
<event>
 4    1  0.3883260E+000  0.1742677E+03  0.7546771E-02  0.1173469E+00
         21   -1    0    0  503  502  0.00000000000E+00  0.00000000000E+00  0.24542947997E+03  0.24542947997E+03  0.00000000000E+00 0.  1.
         21   -1    0    0  501  503 -0.00000000000E+00 -0.00000000000E+00 -0.14759433190E+03  0.14759433190E+03  0.00000000000E+00 0.  1.
          6    1    1    2  501    0 -0.64236361151E+01  0.19974367261E+02 -0.30085733752E+02  0.17684566668E+03  0.17300000000E+03 0.  1.
         -6    1    1    2    0  502  0.64236361151E+01 -0.19974367261E+02  0.12792088183E+03  0.21617814518E+03  0.17300000000E+03 0.  1.
<mgrwt>
<rscale>  2 0.17426772E+03</rscale>
<asrwt>0</asrwt>
<pdfrwt beam="1">  1       21 0.37758381E-01 0.17426772E+03</pdfrwt>
<pdfrwt beam="2">  1       21 0.22706820E-01 0.17426772E+03</pdfrwt>
<totfact> 0.12380676E+05</totfact>
</mgrwt>
</event>
<event>
 4    1  0.3883260E+000  0.1816292E+03  0.7546771E-02  0.1166236E+00
         21   -1    0    0  501  502  0.00000000000E+00  0.00000000000E+00  0.44673984525E+02  0.44673984525E+02  0.00000000000E+00 0. -1.
         21   -1    0    0  502  503 -0.00000000000E+00 -0.00000000000E+00 -0.16489597318E+04  0.16489597318E+04  0.00000000000E+00 0. -1.
          6    1    1    2  501    0 -0.51993453777E+02  0.18890428883E+02 -0.17288514016E+03  0.25075573618E+03  0.17300000000E+03 0. -1.
         -6    1    1    2    0  503  0.51993453777E+02 -0.18890428883E+02 -0.14314006071E+04  0.14428779801E+04  0.17300000000E+03 0. -1.
<mgrwt>
<rscale>  2 0.18162920E+03</rscale>
<asrwt>0</asrwt>
<pdfrwt beam="1">  1       21 0.68729204E-02 0.18162920E+03</pdfrwt>
<pdfrwt beam="2">  1       21 0.25368613E+00 0.18162920E+03</pdfrwt>
<totfact> 0.99847482E+03</totfact>
</mgrwt>
</event>
<event>
 4    1  0.3883260E+000  0.1898366E+03  0.7546771E-02  0.1158609E+00
         21   -1    0    0  503  502  0.00000000000E+00  0.00000000000E+00  0.32019633221E+03  0.32019633221E+03  0.00000000000E+00 0.  1.
         21   -1    0    0  501  503 -0.00000000000E+00 -0.00000000000E+00 -0.17941324680E+03  0.17941324680E+03  0.00000000000E+00 0.  1.
          6    1    1    2  501    0  0.65009394682E+02 -0.43390077108E+02 -0.82108173007E+02  0.20683247391E+03  0.17300000000E+03 0.  1.
         -6    1    1    2    0  502 -0.65009394682E+02  0.43390077108E+02  0.22289125842E+03  0.29277710509E+03  0.17300000000E+03 0.  1.
<mgrwt>
<rscale>  2 0.18983656E+03</rscale>
<asrwt>0</asrwt>
<pdfrwt beam="1">  1       21 0.49260974E-01 0.18983656E+03</pdfrwt>
<pdfrwt beam="2">  1       21 0.27602038E-01 0.18983656E+03</pdfrwt>
<totfact> 0.49296309E+04</totfact>
</mgrwt>
</event>
<event>
 4    1  0.3883260E+000  0.1843460E+03  0.7546771E-02  0.1163662E+00
         21   -1    0    0  501  502  0.00000000000E+00  0.00000000000E+00  0.14907693192E+03  0.14907693192E+03  0.00000000000E+00 0.  1.
         21   -1    0    0  502  503 -0.00000000000E+00 -0.00000000000E+00 -0.22804167947E+03  0.22804167947E+03  0.00000000000E+00 0.  1.
          6    1    1    2  501    0 -0.30577333244E+02 -0.55852224143E+02 -0.43070427462E+02  0.18931060713E+03  0.17300000000E+03 0.  1.
         -6    1    1    2    0  503  0.30577333244E+02  0.55852224143E+02 -0.35894320087E+02  0.18780800426E+03  0.17300000000E+03 0.  1.
<mgrwt>
<rscale>  2 0.18434599E+03</rscale>
<asrwt>0</asrwt>
<pdfrwt beam="1">  1       21 0.22934913E-01 0.18434599E+03</pdfrwt>
<pdfrwt beam="2">  1       21 0.35083335E-01 0.18434599E+03</pdfrwt>
<totfact> 0.14014187E+05</totfact>
</mgrwt>
</event>
<event>
 4    1  0.3883260E+000  0.2470948E+03  0.7546771E-02  0.1115155E+00
         21   -1    0    0  503  502  0.00000000000E+00  0.00000000000E+00  0.82366015524E+02  0.82366015524E+02  0.00000000000E+00 0. -1.
         21   -1    0    0  501  503 -0.00000000000E+00 -0.00000000000E+00 -0.76447748290E+03  0.76447748290E+03  0.00000000000E+00 0. -1.
          6    1    1    2  501    0 -0.15069759113E+03  0.91744703516E+02 -0.26728916463E+03  0.36400460454E+03  0.17300000000E+03 0. -1.
         -6    1    1    2    0  502  0.15069759113E+03 -0.91744703516E+02 -0.41482230275E+03  0.48283889389E+03  0.17300000000E+03 0. -1.
<mgrwt>
<rscale>  2 0.24709483E+03</rscale>
<asrwt>0</asrwt>
<pdfrwt beam="1">  1       21 0.12671694E-01 0.24709483E+03</pdfrwt>
<pdfrwt beam="2">  1       21 0.11761192E+00 0.24709483E+03</pdfrwt>
<totfact> 0.28676903E+04</totfact>
</mgrwt>
</event>
<event>
 4    1  0.3883260E+000  0.2250593E+03  0.7546771E-02  0.1130166E+00
         21   -1    0    0  503  502  0.00000000000E+00  0.00000000000E+00  0.46803225984E+03  0.46803225984E+03  0.00000000000E+00 0. -1.
         21   -1    0    0  501  503 -0.00000000000E+00 -0.00000000000E+00 -0.29471368750E+03  0.29471368750E+03  0.00000000000E+00 0.  1.
          6    1    1    2  501    0  0.36202839215E+02  0.13932716216E+03 -0.21671496127E+03  0.31243731871E+03  0.17300000000E+03 0.  1.
         -6    1    1    2    0  502 -0.36202839215E+02 -0.13932716216E+03  0.39003353361E+03  0.45030862863E+03  0.17300000000E+03 0. -1.
<mgrwt>
<rscale>  2 0.22505933E+03</rscale>
<asrwt>0</asrwt>
<pdfrwt beam="1">  1       21 0.72004963E-01 0.22505933E+03</pdfrwt>
<pdfrwt beam="2">  1       21 0.45340567E-01 0.22505933E+03</pdfrwt>
<totfact> 0.79428156E+03</totfact>
</mgrwt>
</event>
<event>
 4    1  0.3883260E+000  0.1930042E+03  0.7546771E-02  0.1155779E+00
         21   -1    0    0  501  502  0.00000000000E+00  0.00000000000E+00  0.46614329081E+03  0.46614329081E+03  0.00000000000E+00 0.  1.
         21   -1    0    0  502  503 -0.00000000000E+00 -0.00000000000E+00 -0.16887413121E+03  0.16887413121E+03  0.00000000000E+00 0. -1.
          6    1    1    2  501    0  0.84002440917E+02 -0.16285422296E+02  0.37908405057E+03  0.42538846066E+03  0.17300000000E+03 0.  1.
         -6    1    1    2    0  503 -0.84002440917E+02  0.16285422296E+02 -0.81814890965E+02  0.20962896136E+03  0.17300000000E+03 0. -1.
<mgrwt>
<rscale>  2 0.19300421E+03</rscale>
<asrwt>0</asrwt>
<pdfrwt beam="1">  1       21 0.71714352E-01 0.19300421E+03</pdfrwt>
<pdfrwt beam="2">  1       21 0.25980636E-01 0.19300421E+03</pdfrwt>
<totfact> 0.24713480E+04</totfact>
</mgrwt>
</event>
<event>
 4    1  0.3883260E+000  0.2366935E+03  0.7546771E-02  0.1122015E+00
         21   -1    0    0  501  502  0.00000000000E+00  0.00000000000E+00  0.36740426627E+03  0.36740426627E+03  0.00000000000E+00 0.  1.
         21   -1    0    0  502  503 -0.00000000000E+00 -0.00000000000E+00 -0.21692629275E+03  0.21692629275E+03  0.00000000000E+00 0.  1.
          6    1    1    2  501    0 -0.84725362018E+02 -0.13753698404E+03  0.23447931898E+03  0.33317316815E+03  0.17300000000E+03 0.  1.
         -6    1    1    2    0  503  0.84725362018E+02  0.13753698404E+03 -0.84001345464E+02  0.25115739087E+03  0.17300000000E+03 0.  1.
<mgrwt>
<rscale>  2 0.23669349E+03</rscale>
<asrwt>0</asrwt>
<pdfrwt beam="1">  1       21 0.56523733E-01 0.23669349E+03</pdfrwt>
<pdfrwt beam="2">  1       21 0.33373276E-01 0.23669349E+03</pdfrwt>
<totfact> 0.24856634E+04</totfact>
</mgrwt>
</event>
<event>
 4    1  0.3883260E+000  0.1798288E+03  0.7546771E-02  0.1167969E+00
         21   -1    0    0  501  502  0.00000000000E+00  0.00000000000E+00  0.17244289718E+03  0.17244289718E+03  0.00000000000E+00 0.  1.
         21   -1    0    0  502  503 -0.00000000000E+00 -0.00000000000E+00 -0.33619135661E+03  0.33619135661E+03  0.00000000000E+00 0.  1.
          6    1    1    2  501    0 -0.24062019246E+02  0.42783236859E+02  0.87239919783E+02  0.19987293396E+03  0.17300000000E+03 0.  1.
         -6    1    1    2    0  503  0.24062019246E+02 -0.42783236859E+02 -0.25098837921E+03  0.30876131983E+03  0.17300000000E+03 0.  1.
<mgrwt>
<rscale>  2 0.17982877E+03</rscale>
<asrwt>0</asrwt>
<pdfrwt beam="1">  1       21 0.26529677E-01 0.17982877E+03</pdfrwt>
<pdfrwt beam="2">  1       21 0.51721746E-01 0.17982877E+03</pdfrwt>
<totfact> 0.48285670E+04</totfact>
</mgrwt>
</event>
<event>
 4    1  0.3883260E+000  0.2043100E+03  0.7546771E-02  0.1146153E+00
         21   -1    0    0  501  502  0.00000000000E+00  0.00000000000E+00  0.16094513033E+03  0.16094513033E+03  0.00000000000E+00 0.  1.
         21   -1    0    0  502  503 -0.00000000000E+00 -0.00000000000E+00 -0.34323945575E+03  0.34323945575E+03  0.00000000000E+00 0.  1.
          6    1    1    2  501    0  0.44823525343E+02  0.99017230726E+02  0.33473908531E+02  0.20703396571E+03  0.17300000000E+03 0.  1.
         -6    1    1    2    0  503 -0.44823525343E+02 -0.99017230726E+02 -0.21576823396E+03  0.29715062038E+03  0.17300000000E+03 0.  1.
<mgrwt>
<rscale>  2 0.20430996E+03</rscale>
<asrwt>0</asrwt>
<pdfrwt beam="1">  1       21 0.24760790E-01 0.20430996E+03</pdfrwt>
<pdfrwt beam="2">  1       21 0.52806069E-01 0.20430996E+03</pdfrwt>
<totfact> 0.52138921E+04</totfact>
</mgrwt>
</event>
<event>
 4    1  0.3883260E+000  0.1882499E+03  0.7546771E-02  0.1160049E+00
         21   -1    0    0  501  502  0.00000000000E+00  0.00000000000E+00  0.19363213841E+04  0.19363213841E+04  0.00000000000E+00 0. -1.
         21   -1    0    0  502  503 -0.00000000000E+00 -0.00000000000E+00 -0.43608676002E+02  0.43608676002E+02  0.00000000000E+00 0.  1.
          6    1    1    2  501    0 -0.63004634516E+02  0.39235578004E+02  0.17004987317E+04  0.17108868902E+04  0.17300000000E+03 0. -1.
         -6    1    1    2    0  503  0.63004634516E+02 -0.39235578004E+02  0.19221397643E+03  0.26904316993E+03  0.17300000000E+03 0.  1.
<mgrwt>
<rscale>  2 0.18824987E+03</rscale>
<asrwt>0</asrwt>
<pdfrwt beam="1">  1       21 0.29789553E+00 0.18824987E+03</pdfrwt>
<pdfrwt beam="2">  1       21 0.67090286E-02 0.18824987E+03</pdfrwt>
<totfact> 0.57421219E+03</totfact>
</mgrwt>
</event>
<event>
 4    1  0.3883260E+000  0.2002629E+03  0.7546771E-02  0.1149517E+00
         21   -1    0    0  503  502  0.00000000000E+00  0.00000000000E+00  0.31992793336E+03  0.31992793336E+03  0.00000000000E+00 0. -1.
         21   -1    0    0  501  503 -0.00000000000E+00 -0.00000000000E+00 -0.12972228470E+03  0.12972228470E+03  0.00000000000E+00 0. -1.
          6    1    1    2  501    0 -0.91373992976E+02  0.42743626260E+02  0.53860705513E+02  0.20737936198E+03  0.17300000000E+03 0. -1.
         -6    1    1    2    0  502  0.91373992976E+02 -0.42743626260E+02  0.13634494315E+03  0.24227085607E+03  0.17300000000E+03 0. -1.
<mgrwt>
<rscale>  2 0.20026289E+03</rscale>
<asrwt>0</asrwt>
<pdfrwt beam="1">  1       21 0.49219682E-01 0.20026289E+03</pdfrwt>
<pdfrwt beam="2">  1       21 0.19957275E-01 0.20026289E+03</pdfrwt>
<totfact> 0.90960452E+04</totfact>
</mgrwt>
</event>
<event>
 4    1  0.3883260E+000  0.2198979E+03  0.7546771E-02  0.1133959E+00
         21   -1    0    0  503  502  0.00000000000E+00  0.00000000000E+00  0.33480609382E+02  0.33480609382E+02  0.00000000000E+00 0. -1.
         21   -1    0    0  501  503 -0.00000000000E+00 -0.00000000000E+00 -0.14464618285E+04  0.14464618285E+04  0.00000000000E+00 0. -1.
          6    1    1    2  501    0 -0.13542862529E+03 -0.92281187525E+01 -0.73528930670E+03  0.76746689523E+03  0.17300000000E+03 0. -1.
         -6    1    1    2    0  502  0.13542862529E+03  0.92281187525E+01 -0.67769191239E+03  0.71247554262E+03  0.17300000000E+03 0. -1.
<mgrwt>
<rscale>  2 0.21989786E+03</rscale>
<asrwt>0</asrwt>
<pdfrwt beam="1">  1       21 0.51508631E-02 0.21989786E+03</pdfrwt>
<pdfrwt beam="2">  1       21 0.22253258E+00 0.21989786E+03</pdfrwt>
<totfact> 0.24319865E+04</totfact>
</mgrwt>
</event>
<event>
 4    1  0.3883260E+000  0.1888187E+03  0.7546771E-02  0.1159531E+00
         21   -1    0    0  503  502  0.00000000000E+00  0.00000000000E+00  0.13130017889E+03  0.13130017889E+03  0.00000000000E+00 0.  1.
         21   -1    0    0  501  503 -0.00000000000E+00 -0.00000000000E+00 -0.27225837861E+03  0.27225837861E+03  0.00000000000E+00 0.  1.
          6    1    1    2  501    0  0.65552616617E+02  0.37767265614E+02 -0.60073752853E+02  0.19814481492E+03  0.17300000000E+03 0.  1.
         -6    1    1    2    0  502 -0.65552616617E+02 -0.37767265614E+02 -0.80884446868E+02  0.20541374258E+03  0.17300000000E+03 0.  1.
<mgrwt>
<rscale>  2 0.18881873E+03</rscale>
<asrwt>0</asrwt>
<pdfrwt beam="1">  1       21 0.20200028E-01 0.18881873E+03</pdfrwt>
<pdfrwt beam="2">  1       21 0.41885904E-01 0.18881873E+03</pdfrwt>
<totfact> 0.12447919E+05</totfact>
</mgrwt>
</event>
<event>
 4    1  0.3883260E+000  0.1913865E+03  0.7546771E-02  0.1157217E+00
         21   -1    0    0  501  502  0.00000000000E+00  0.00000000000E+00  0.30147593887E+03  0.30147593887E+03  0.00000000000E+00 0.  1.
         21   -1    0    0  502  503 -0.00000000000E+00 -0.00000000000E+00 -0.28473766301E+03  0.28473766301E+03  0.00000000000E+00 0.  1.
          6    1    1    2  501    0 -0.80063583200E+02  0.17018029150E+02  0.23029912419E+03  0.29944361284E+03  0.17300000000E+03 0.  1.
         -6    1    1    2    0  503  0.80063583200E+02 -0.17018029150E+02 -0.21356084833E+03  0.28676998903E+03  0.17300000000E+03 0.  1.
<mgrwt>
<rscale>  2 0.19138650E+03</rscale>
<asrwt>0</asrwt>
<pdfrwt beam="1">  1       21 0.46380914E-01 0.19138650E+03</pdfrwt>
<pdfrwt beam="2">  1       21 0.43805794E-01 0.19138650E+03</pdfrwt>
<totfact> 0.22313770E+04</totfact>
</mgrwt>
</event>
<event>
 4    1  0.3883260E+000  0.1955227E+03  0.7546771E-02  0.1153572E+00
         21   -1    0    0  501  502  0.00000000000E+00  0.00000000000E+00  0.16822337432E+03  0.16822337432E+03  0.00000000000E+00 0.  1.
         21   -1    0    0  502  503 -0.00000000000E+00 -0.00000000000E+00 -0.22741927954E+03  0.22741927954E+03  0.00000000000E+00 0.  1.
          6    1    1    2  501    0  0.75584084362E+02  0.50864084671E+02 -0.34962074469E+02  0.19862390483E+03  0.17300000000E+03 0. -1.
         -6    1    1    2    0  503 -0.75584084362E+02 -0.50864084671E+02 -0.24233830751E+02  0.19701874903E+03  0.17300000000E+03 0. -1.
<mgrwt>
<rscale>  2 0.19552266E+03</rscale>
<asrwt>0</asrwt>
<pdfrwt beam="1">  1       21 0.25880519E-01 0.19552266E+03</pdfrwt>
<pdfrwt beam="2">  1       21 0.34987581E-01 0.19552266E+03</pdfrwt>
<totfact> 0.11151903E+05</totfact>
</mgrwt>
</event>
<event>
 4    1  0.3883260E+000  0.1792044E+03  0.7546771E-02  0.1168575E+00
         21   -1    0    0  503  502  0.00000000000E+00  0.00000000000E+00  0.42681310048E+02  0.42681310048E+02  0.00000000000E+00 0.  1.
         21   -1    0    0  501  503 -0.00000000000E+00 -0.00000000000E+00 -0.76232053213E+03  0.76232053213E+03  0.00000000000E+00 0.  1.
          6    1    1    2  501    0 -0.45483182338E+02 -0.10793286860E+02 -0.40569252347E+03  0.44350945708E+03  0.17300000000E+03 0. -1.
         -6    1    1    2    0  502  0.45483182338E+02  0.10793286860E+02 -0.31394669861E+03  0.36149238510E+03  0.17300000000E+03 0. -1.
<mgrwt>
<rscale>  2 0.17920439E+03</rscale>
<asrwt>0</asrwt>
<pdfrwt beam="1">  1       21 0.65663562E-02 0.17920439E+03</pdfrwt>
<pdfrwt beam="2">  1       21 0.11728007E+00 0.17920439E+03</pdfrwt>
<totfact> 0.94937977E+04</totfact>
</mgrwt>
</event>
<event>
 4    1  0.3883260E+000  0.2063351E+03  0.7546771E-02  0.1144502E+00
         21   -1    0    0  501  502  0.00000000000E+00  0.00000000000E+00  0.33685680833E+03  0.33685680833E+03  0.00000000000E+00 0.  1.
         21   -1    0    0  502  503 -0.00000000000E+00 -0.00000000000E+00 -0.39304715060E+03  0.39304715060E+03  0.00000000000E+00 0. -1.
          6    1    1    2  501    0 -0.66896483259E+02  0.90388177505E+02  0.27250750503E+03  0.34181062360E+03  0.17300000000E+03 0.  1.
         -6    1    1    2    0  503  0.66896483259E+02 -0.90388177505E+02 -0.32869784730E+03  0.38809333533E+03  0.17300000000E+03 0. -1.
<mgrwt>
<rscale>  2 0.20633507E+03</rscale>
<asrwt>0</asrwt>
<pdfrwt beam="1">  1       21 0.51824124E-01 0.20633507E+03</pdfrwt>
<pdfrwt beam="2">  1       21 0.60468792E-01 0.20633507E+03</pdfrwt>
<totfact> 0.89231952E+03</totfact>
</mgrwt>
</event>
<event>
 4    1  0.3883260E+000  0.2691828E+03  0.7546771E-02  0.1101748E+00
         21   -1    0    0  501  502  0.00000000000E+00  0.00000000000E+00  0.21405735539E+04  0.21405735539E+04  0.00000000000E+00 0. -1.
         21   -1    0    0  502  503 -0.00000000000E+00 -0.00000000000E+00 -0.33851946425E+02  0.33851946425E+02  0.00000000000E+00 0.  1.
          6    1    1    2  501    0  0.20348180012E+03 -0.33549233109E+02  0.10605713014E+04  0.10941987385E+04  0.17300000000E+03 0.  1.
         -6    1    1    2    0  503 -0.20348180012E+03  0.33549233109E+02  0.10461503061E+04  0.10802267619E+04  0.17300000000E+03 0. -1.
<mgrwt>
<rscale>  2 0.26918283E+03</rscale>
<asrwt>0</asrwt>
<pdfrwt beam="1">  1       21 0.32931890E+00 0.26918283E+03</pdfrwt>
<pdfrwt beam="2">  1       21 0.52079934E-02 0.26918283E+03</pdfrwt>
<totfact> 0.53616669E+03</totfact>
</mgrwt>
</event>
<event>
 4    1  0.3883260E+000  0.2311833E+03  0.7546771E-02  0.1125810E+00
         21   -1    0    0  503  502  0.00000000000E+00  0.00000000000E+00  0.15117236803E+04  0.15117236803E+04  0.00000000000E+00 0. -1.
         21   -1    0    0  501  503 -0.00000000000E+00 -0.00000000000E+00 -0.12398044715E+03  0.12398044715E+03  0.00000000000E+00 0.  1.
          6    1    1    2  501    0 -0.97784293400E+02 -0.11813113706E+03  0.23919531366E+01  0.23119570718E+03  0.17300000000E+03 0.  1.
         -6    1    1    2    0  502  0.97784293400E+02  0.11813113706E+03  0.13853512800E+04  0.14045084203E+04  0.17300000000E+03 0. -1.
<mgrwt>
<rscale>  2 0.23118333E+03</rscale>
<asrwt>0</asrwt>
<pdfrwt beam="1">  1       21 0.23257286E+00 0.23118333E+03</pdfrwt>
<pdfrwt beam="2">  1       21 0.19073916E-01 0.23118333E+03</pdfrwt>
<totfact> 0.20451898E+03</totfact>
</mgrwt>
</event>
<event>
 4    1  0.3883260E+000  0.2014246E+03  0.7546771E-02  0.1148543E+00
         21   -1    0    0  503  502  0.00000000000E+00  0.00000000000E+00  0.14550852037E+03  0.14550852037E+03  0.00000000000E+00 0.  1.
         21   -1    0    0  501  503 -0.00000000000E+00 -0.00000000000E+00 -0.40193414390E+03  0.40193414390E+03  0.00000000000E+00 0.  1.
          6    1    1    2  501    0  0.95852541238E+02 -0.38146725544E+02 -0.27969817173E+03  0.34467803760E+03  0.17300000000E+03 0.  1.
         -6    1    1    2    0  502 -0.95852541238E+02  0.38146725544E+02  0.23272548202E+02  0.20276462668E+03  0.17300000000E+03 0.  1.
<mgrwt>
<rscale>  2 0.20142463E+03</rscale>
<asrwt>0</asrwt>
<pdfrwt beam="1">  1       21 0.22385927E-01 0.20142463E+03</pdfrwt>
<pdfrwt beam="2">  1       21 0.61836021E-01 0.20142463E+03</pdfrwt>
<totfact> 0.45162719E+04</totfact>
</mgrwt>
</event>
<event>
 4    1  0.3883260E+000  0.1998905E+03  0.7546771E-02  0.1149831E+00
         21   -1    0    0  503  502  0.00000000000E+00  0.00000000000E+00  0.10859678147E+03  0.10859678147E+03  0.00000000000E+00 0.  1.
         21   -1    0    0  501  503 -0.00000000000E+00 -0.00000000000E+00 -0.43384986462E+03  0.43384986462E+03  0.00000000000E+00 0.  1.
          6    1    1    2  501    0  0.34514038478E+02 -0.94000028880E+02 -0.26834700748E+03  0.33461371864E+03  0.17300000000E+03 0.  1.
         -6    1    1    2    0  502 -0.34514038478E+02  0.94000028880E+02 -0.56906075672E+02  0.20783292744E+03  0.17300000000E+03 0.  1.
<mgrwt>
<rscale>  2 0.19989053E+03</rscale>
<asrwt>0</asrwt>
<pdfrwt beam="1">  1       21 0.16707197E-01 0.19989053E+03</pdfrwt>
<pdfrwt beam="2">  1       21 0.66746134E-01 0.19989053E+03</pdfrwt>
<totfact> 0.66035559E+04</totfact>
</mgrwt>
</event>
<event>
 4    1  0.3883260E+000  0.1892775E+03  0.7546771E-02  0.1159115E+00
         21   -1    0    0  503  502  0.00000000000E+00  0.00000000000E+00  0.75951083770E+03  0.75951083770E+03  0.00000000000E+00 0. -1.
         21   -1    0    0  501  503 -0.00000000000E+00 -0.00000000000E+00 -0.72140751938E+02  0.72140751938E+02  0.00000000000E+00 0. -1.
          6    1    1    2  501    0 -0.66533426301E+02 -0.38344192941E+02  0.99038745381E+02  0.21362267444E+03  0.17300000000E+03 0. -1.
         -6    1    1    2    0  502  0.66533426301E+02  0.38344192941E+02  0.58833134038E+03  0.61802891520E+03  0.17300000000E+03 0. -1.
<mgrwt>
<rscale>  2 0.18927751E+03</rscale>
<asrwt>0</asrwt>
<pdfrwt beam="1">  1       21 0.11684782E+00 0.18927751E+03</pdfrwt>
<pdfrwt beam="2">  1       21 0.11098578E-01 0.18927751E+03</pdfrwt>
<totfact> 0.38106964E+04</totfact>
</mgrwt>
</event>
<event>
 4    1  0.3883260E+000  0.2725514E+03  0.7546771E-02  0.1099828E+00
         21   -1    0    0  503  502  0.00000000000E+00  0.00000000000E+00  0.27207938005E+03  0.27207938005E+03  0.00000000000E+00 0.  1.
         21   -1    0    0  501  503 -0.00000000000E+00 -0.00000000000E+00 -0.29006580391E+03  0.29006580391E+03  0.00000000000E+00 0. -1.
          6    1    1    2  501    0 -0.48687048017E+02  0.20490205678E+03 -0.77120990358E+02  0.28325241159E+03  0.17300000000E+03 0.  1.
         -6    1    1    2    0  502  0.48687048017E+02 -0.20490205678E+03  0.59134566500E+02  0.27889277236E+03  0.17300000000E+03 0.  1.
<mgrwt>
<rscale>  2 0.27255143E+03</rscale>
<asrwt>0</asrwt>
<pdfrwt beam="1">  1       21 0.41858366E-01 0.27255143E+03</pdfrwt>
<pdfrwt beam="2">  1       21 0.44625508E-01 0.27255143E+03</pdfrwt>
<totfact> 0.25458117E+04</totfact>
</mgrwt>
</event>
<event>
 4    1  0.3883260E+000  0.2353553E+03  0.7546771E-02  0.1122926E+00
         21   -1    0    0  503  502  0.00000000000E+00  0.00000000000E+00  0.32381134820E+03  0.32381134820E+03  0.00000000000E+00 0.  1.
         21   -1    0    0  501  503 -0.00000000000E+00 -0.00000000000E+00 -0.18005836719E+03  0.18005836719E+03  0.00000000000E+00 0.  1.
          6    1    1    2  501    0 -0.13163401753E+03  0.90197656172E+02  0.15565687696E+02  0.23586950287E+03  0.17300000000E+03 0.  1.
         -6    1    1    2    0  502  0.13163401753E+03 -0.90197656172E+02  0.12818729331E+03  0.26800021253E+03  0.17300000000E+03 0.  1.
<mgrwt>
<rscale>  2 0.23535533E+03</rscale>
<asrwt>0</asrwt>
<pdfrwt beam="1">  1       21 0.49817131E-01 0.23535533E+03</pdfrwt>
<pdfrwt beam="2">  1       21 0.27701287E-01 0.23535533E+03</pdfrwt>
<totfact> 0.46817945E+04</totfact>
</mgrwt>
</event>
<event>
 4    1  0.3883260E+000  0.2048208E+03  0.7546771E-02  0.1145734E+00
         21   -1    0    0  503  502  0.00000000000E+00  0.00000000000E+00  0.51219621312E+03  0.51219621312E+03  0.00000000000E+00 0.  1.
         21   -1    0    0  501  503 -0.00000000000E+00 -0.00000000000E+00 -0.20911054070E+03  0.20911054070E+03  0.00000000000E+00 0. -1.
          6    1    1    2  501    0 -0.66223141077E+02 -0.87390282937E+02 -0.12974736536E+03  0.24245812996E+03  0.17300000000E+03 0. -1.
         -6    1    1    2    0  502  0.66223141077E+02  0.87390282937E+02  0.43283303779E+03  0.47884862385E+03  0.17300000000E+03 0.  1.
<mgrwt>
<rscale>  2 0.20482081E+03</rscale>
<asrwt>0</asrwt>
<pdfrwt beam="1">  1       21 0.78799417E-01 0.20482081E+03</pdfrwt>
<pdfrwt beam="2">  1       21 0.32170853E-01 0.20482081E+03</pdfrwt>
<totfact> 0.13121539E+04</totfact>
</mgrwt>
</event>
<event>
 4    1  0.3883260E+000  0.1885280E+03  0.7546771E-02  0.1159796E+00
         21   -1    0    0  501  502  0.00000000000E+00  0.00000000000E+00  0.20029469415E+04  0.20029469415E+04  0.00000000000E+00 0.  1.
         21   -1    0    0  502  503 -0.00000000000E+00 -0.00000000000E+00 -0.37960770356E+02  0.37960770356E+02  0.00000000000E+00 0.  1.
          6    1    1    2  501    0  0.52697985162E+02  0.53260967055E+02  0.17271706155E+04  0.17374294643E+04  0.17300000000E+03 0.  1.
         -6    1    1    2    0  503 -0.52697985162E+02 -0.53260967055E+02  0.23781555562E+03  0.30347824757E+03  0.17300000000E+03 0.  1.
<mgrwt>
<rscale>  2 0.18852800E+03</rscale>
<asrwt>0</asrwt>
<pdfrwt beam="1">  1       21 0.30814560E+00 0.18852800E+03</pdfrwt>
<pdfrwt beam="2">  1       21 0.58401201E-02 0.18852800E+03</pdfrwt>
<totfact> 0.63576862E+03</totfact>
</mgrwt>
</event>
<event>
 4    1  0.3883260E+000  0.1972669E+03  0.7546771E-02  0.1152066E+00
         21   -1    0    0  503  502  0.00000000000E+00  0.00000000000E+00  0.18701197225E+03  0.18701197225E+03  0.00000000000E+00 0. -1.
         21   -1    0    0  501  503 -0.00000000000E+00 -0.00000000000E+00 -0.21163539537E+03  0.21163539537E+03  0.00000000000E+00 0.  1.
          6    1    1    2  501    0  0.89417455889E+02  0.31460537342E+02 -0.38131263624E+02  0.20091849117E+03  0.17300000000E+03 0.  1.
         -6    1    1    2    0  502 -0.89417455889E+02 -0.31460537342E+02  0.13507840496E+02  0.19772887645E+03  0.17300000000E+03 0.  1.
<mgrwt>
<rscale>  2 0.19726694E+03</rscale>
<asrwt>0</asrwt>
<pdfrwt beam="1">  1       21 0.28771073E-01 0.19726694E+03</pdfrwt>
<pdfrwt beam="2">  1       21 0.32559291E-01 0.19726694E+03</pdfrwt>
<totfact> 0.10474101E+05</totfact>
</mgrwt>
</event>
<event>
 4    1  0.3883260E+000  0.1905559E+03  0.7546771E-02  0.1157961E+00
         21   -1    0    0  503  502  0.00000000000E+00  0.00000000000E+00  0.11039674568E+03  0.11039674568E+03  0.00000000000E+00 0.  1.
         21   -1    0    0  501  503 -0.00000000000E+00 -0.00000000000E+00 -0.56085725507E+03  0.56085725507E+03  0.00000000000E+00 0.  1.
          6    1    1    2  501    0 -0.44484915556E+02 -0.66360040254E+02 -0.44106289389E+03  0.48046648064E+03  0.17300000000E+03 0.  1.
         -6    1    1    2    0  502  0.44484915556E+02  0.66360040254E+02 -0.93976155028E+01  0.19078752011E+03  0.17300000000E+03 0.  1.
<mgrwt>
<rscale>  2 0.19055593E+03</rscale>
<asrwt>0</asrwt>
<pdfrwt beam="1">  1       21 0.16984115E-01 0.19055593E+03</pdfrwt>
<pdfrwt beam="2">  1       21 0.86285733E-01 0.19055593E+03</pdfrwt>
<totfact> 0.36221192E+04</totfact>
</mgrwt>
</event>
<event>
 4    1  0.3883260E+000  0.2468813E+03  0.7546771E-02  0.1115292E+00
         21   -1    0    0  503  502  0.00000000000E+00  0.00000000000E+00  0.30856091515E+03  0.30856091515E+03  0.00000000000E+00 0. -1.
         21   -1    0    0  501  503 -0.00000000000E+00 -0.00000000000E+00 -0.40843723225E+03  0.40843723225E+03  0.00000000000E+00 0. -1.
          6    1    1    2  501    0 -0.67839795041E+02  0.16253959025E+03 -0.30755250713E+03  0.39438420459E+03  0.17300000000E+03 0. -1.
         -6    1    1    2    0  502  0.67839795041E+02 -0.16253959025E+03  0.20767619003E+03  0.32261394281E+03  0.17300000000E+03 0. -1.
<mgrwt>
<rscale>  2 0.24688126E+03</rscale>
<asrwt>0</asrwt>
<pdfrwt beam="1">  1       21 0.47470910E-01 0.24688126E+03</pdfrwt>
<pdfrwt beam="2">  1       21 0.62836497E-01 0.24688126E+03</pdfrwt>
<totfact> 0.96199977E+03</totfact>
</mgrwt>
</event>
<event>
 4    1  0.3883260E+000  0.2815528E+03  0.7546771E-02  0.1094844E+00
         21   -1    0    0  501  502  0.00000000000E+00  0.00000000000E+00  0.76041438842E+02  0.76041438842E+02  0.00000000000E+00 0.  1.
         21   -1    0    0  502  503 -0.00000000000E+00 -0.00000000000E+00 -0.14342994809E+04  0.14342994809E+04  0.00000000000E+00 0. -1.
          6    1    1    2  501    0  0.21597563908E+03 -0.51937757310E+02 -0.28443032331E+03  0.40021571200E+03  0.17300000000E+03 0.  1.
         -6    1    1    2    0  503 -0.21597563908E+03  0.51937757310E+02 -0.10738277187E+04  0.11101252077E+04  0.17300000000E+03 0. -1.
<mgrwt>
<rscale>  2 0.28155285E+03</rscale>
<asrwt>0</asrwt>
<pdfrwt beam="1">  1       21 0.11698684E-01 0.28155285E+03</pdfrwt>
<pdfrwt beam="2">  1       21 0.22066144E+00 0.28155285E+03</pdfrwt>
<totfact> 0.57012108E+03</totfact>
</mgrwt>
</event>
<event>
 4    1  0.3883260E+000  0.2005831E+03  0.7546771E-02  0.1149248E+00
         21   -1    0    0  503  502  0.00000000000E+00  0.00000000000E+00  0.17032613882E+03  0.17032613882E+03  0.00000000000E+00 0. -1.
         21   -1    0    0  501  503 -0.00000000000E+00 -0.00000000000E+00 -0.11225462291E+04  0.11225462291E+04  0.00000000000E+00 0. -1.
          6    1    1    2  501    0 -0.75065825053E+02 -0.68335183625E+02 -0.10505195073E+04  0.10694974571E+04  0.17300000000E+03 0. -1.
         -6    1    1    2    0  502  0.75065825053E+02  0.68335183625E+02  0.98299417032E+02  0.22337491086E+03  0.17300000000E+03 0. -1.
<mgrwt>
<rscale>  2 0.20058309E+03</rscale>
<asrwt>0</asrwt>
<pdfrwt beam="1">  1       21 0.26204022E-01 0.20058309E+03</pdfrwt>
<pdfrwt beam="2">  1       21 0.17269942E+00 0.20058309E+03</pdfrwt>
<totfact> 0.28070542E+03</totfact>
</mgrwt>
</event>
<event>
 4    1  0.3883260E+000  0.3142922E+03  0.7546771E-02  0.1078307E+00
         21   -1    0    0  503  502  0.00000000000E+00  0.00000000000E+00  0.56964301754E+03  0.56964301754E+03  0.00000000000E+00 0.  1.
         21   -1    0    0  501  503 -0.00000000000E+00 -0.00000000000E+00 -0.22612778702E+03  0.22612778702E+03  0.00000000000E+00 0.  1.
          6    1    1    2  501    0  0.20859096556E+03  0.15918668751E+03 -0.20363702337E+02  0.31495122284E+03  0.17300000000E+03 0.  1.
         -6    1    1    2    0  502 -0.20859096556E+03 -0.15918668751E+03  0.36387893286E+03  0.48081958172E+03  0.17300000000E+03 0.  1.
<mgrwt>
<rscale>  2 0.31429221E+03</rscale>
<asrwt>0</asrwt>
<pdfrwt beam="1">  1       21 0.87637387E-01 0.31429221E+03</pdfrwt>
<pdfrwt beam="2">  1       21 0.34788890E-01 0.31429221E+03</pdfrwt>
<totfact> 0.82989404E+03</totfact>
</mgrwt>
</event>
<event>
 4    1  0.3883260E+000  0.1923143E+03  0.7546771E-02  0.1156390E+00
         21   -1    0    0  501  502  0.00000000000E+00  0.00000000000E+00  0.10349197832E+03  0.10349197832E+03  0.00000000000E+00 0.  1.
         21   -1    0    0  502  503 -0.00000000000E+00 -0.00000000000E+00 -0.37507491696E+03  0.37507491696E+03  0.00000000000E+00 0.  1.
          6    1    1    2  501    0 -0.28969400773E+02 -0.78845227684E+02 -0.83801895443E+02  0.20977977450E+03  0.17300000000E+03 0.  1.
         -6    1    1    2    0  503  0.28969400773E+02  0.78845227684E+02 -0.18778104320E+03  0.26878712078E+03  0.17300000000E+03 0.  1.
<mgrwt>
<rscale>  2 0.19231432E+03</rscale>
<asrwt>0</asrwt>
<pdfrwt beam="1">  1       21 0.15921843E-01 0.19231432E+03</pdfrwt>
<pdfrwt beam="2">  1       21 0.57703834E-01 0.19231432E+03</pdfrwt>
<totfact> 0.99123085E+04</totfact>
</mgrwt>
</event>
<event>
 4    1  0.3883260E+000  0.1761191E+03  0.7546771E-02  0.1171613E+00
         21   -1    0    0  503  502  0.00000000000E+00  0.00000000000E+00  0.41362385225E+02  0.41362385225E+02  0.00000000000E+00 0.  1.
         21   -1    0    0  501  503 -0.00000000000E+00 -0.00000000000E+00 -0.75949628628E+03  0.75949628628E+03  0.00000000000E+00 0.  1.
          6    1    1    2  501    0  0.14428105262E+02  0.29677986630E+02 -0.40406049809E+03  0.44077527066E+03  0.17300000000E+03 0.  1.
         -6    1    1    2    0  502 -0.14428105262E+02 -0.29677986630E+02 -0.31407340297E+03  0.36008340084E+03  0.17300000000E+03 0.  1.
<mgrwt>
<rscale>  2 0.17611914E+03</rscale>
<asrwt>0</asrwt>
<pdfrwt beam="1">  1       21 0.63634441E-02 0.17611914E+03</pdfrwt>
<pdfrwt beam="2">  1       21 0.11684558E+00 0.17611914E+03</pdfrwt>
<totfact> 0.10124269E+05</totfact>
</mgrwt>
</event>
<event>
 4    1  0.3883260E+000  0.1905431E+03  0.7546771E-02  0.1157972E+00
         21   -1    0    0  503  502  0.00000000000E+00  0.00000000000E+00  0.58475254992E+03  0.58475254992E+03  0.00000000000E+00 0. -1.
         21   -1    0    0  501  503 -0.00000000000E+00 -0.00000000000E+00 -0.15720535786E+03  0.15720535786E+03  0.00000000000E+00 0. -1.
          6    1    1    2  501    0  0.13861475802E+02  0.78648138019E+02 -0.74791186639E+02  0.20469585175E+03  0.17300000000E+03 0. -1.
         -6    1    1    2    0  502 -0.13861475802E+02 -0.78648138019E+02  0.50233837871E+03  0.53726205603E+03  0.17300000000E+03 0. -1.
<mgrwt>
<rscale>  2 0.19054309E+03</rscale>
<asrwt>0</asrwt>
<pdfrwt beam="1">  1       21 0.89961930E-01 0.19054309E+03</pdfrwt>
<pdfrwt beam="2">  1       21 0.24185440E-01 0.19054309E+03</pdfrwt>
<totfact> 0.16989512E+04</totfact>
</mgrwt>
</event>
<event>
 4    1  0.3883260E+000  0.1932918E+03  0.7546771E-02  0.1155525E+00
         21   -1    0    0  501  502  0.00000000000E+00  0.00000000000E+00  0.10835933831E+03  0.10835933831E+03  0.00000000000E+00 0.  1.
         21   -1    0    0  502  503 -0.00000000000E+00 -0.00000000000E+00 -0.34767948161E+03  0.34767948161E+03  0.00000000000E+00 0.  1.
          6    1    1    2  501    0 -0.16976835660E+02 -0.84525296024E+02 -0.98890397840E+02  0.21711989638E+03  0.17300000000E+03 0. -1.
         -6    1    1    2    0  503  0.16976835660E+02  0.84525296024E+02 -0.14042974546E+03  0.23891892354E+03  0.17300000000E+03 0. -1.
<mgrwt>
<rscale>  2 0.19329185E+03</rscale>
<asrwt>0</asrwt>
<pdfrwt beam="1">  1       21 0.16670667E-01 0.19329185E+03</pdfrwt>
<pdfrwt beam="2">  1       21 0.53489151E-01 0.19329185E+03</pdfrwt>
<totfact> 0.10696237E+05</totfact>
</mgrwt>
</event>
<event>
 4    1  0.3883260E+000  0.3459894E+03  0.7546771E-02  0.1064273E+00
         21   -1    0    0  501  502  0.00000000000E+00  0.00000000000E+00  0.93702801657E+02  0.93702801657E+02  0.00000000000E+00 0.  1.
         21   -1    0    0  502  503 -0.00000000000E+00 -0.00000000000E+00 -0.22120061810E+04  0.22120061810E+04  0.00000000000E+00 0. -1.
          6    1    1    2  501    0 -0.29227929608E+03 -0.65973242744E+02 -0.30983713663E+03  0.46444343779E+03  0.17300000000E+03 0.  1.
         -6    1    1    2    0  503  0.29227929608E+03  0.65973242744E+02 -0.18084662427E+04  0.18412655449E+04  0.17300000000E+03 0. -1.
<mgrwt>
<rscale>  2 0.34598939E+03</rscale>
<asrwt>0</asrwt>
<pdfrwt beam="1">  1       21 0.14415818E-01 0.34598939E+03</pdfrwt>
<pdfrwt beam="2">  1       21 0.34030860E+00 0.34598939E+03</pdfrwt>
<totfact> 0.71359907E+02</totfact>
</mgrwt>
</event>
<event>
 4    1  0.3883260E+000  0.1964182E+03  0.7546771E-02  0.1152797E+00
         21   -1    0    0  503  502  0.00000000000E+00  0.00000000000E+00  0.86378033019E+02  0.86378033019E+02  0.00000000000E+00 0. -1.
         21   -1    0    0  501  503 -0.00000000000E+00 -0.00000000000E+00 -0.45580494809E+03  0.45580494809E+03  0.00000000000E+00 0. -1.
          6    1    1    2  501    0 -0.92131303965E+02 -0.12764825913E+02 -0.22314850079E+03  0.29727995451E+03  0.17300000000E+03 0. -1.
         -6    1    1    2    0  502  0.92131303965E+02  0.12764825913E+02 -0.14627841428E+03  0.24490302659E+03  0.17300000000E+03 0. -1.
<mgrwt>
<rscale>  2 0.19641822E+03</rscale>
<asrwt>0</asrwt>
<pdfrwt beam="1">  1       21 0.13288928E-01 0.19641822E+03</pdfrwt>
<pdfrwt beam="2">  1       21 0.70123839E-01 0.19641822E+03</pdfrwt>
<totfact> 0.90032993E+04</totfact>
</mgrwt>
</event>
<event>
 4    1  0.3883260E+000  0.2963891E+03  0.7546771E-02  0.1087060E+00
         21   -1    0    0  503  502  0.00000000000E+00  0.00000000000E+00  0.96595656805E+02  0.96595656805E+02  0.00000000000E+00 0.  1.
         21   -1    0    0  501  503 -0.00000000000E+00 -0.00000000000E+00 -0.11060862948E+04  0.11060862948E+04  0.00000000000E+00 0. -1.
          6    1    1    2  501    0  0.78564410660E+02  0.22747554469E+03 -0.75830833718E+03  0.81417321517E+03  0.17300000000E+03 0. -1.
         -6    1    1    2    0  502 -0.78564410660E+02 -0.22747554469E+03 -0.25118230083E+03  0.38850873645E+03  0.17300000000E+03 0.  1.
<mgrwt>
<rscale>  2 0.29638909E+03</rscale>
<asrwt>0</asrwt>
<pdfrwt beam="1">  1       21 0.14860871E-01 0.29638909E+03</pdfrwt>
<pdfrwt beam="2">  1       21 0.17016712E+00 0.29638909E+03</pdfrwt>
<totfact> 0.79226681E+03</totfact>
</mgrwt>
</event>
<event>
 4    1  0.3883260E+000  0.1882552E+03  0.7546771E-02  0.1160045E+00
         21   -1    0    0  501  502  0.00000000000E+00  0.00000000000E+00  0.29666444381E+03  0.29666444381E+03  0.00000000000E+00 0.  1.
         21   -1    0    0  502  503 -0.00000000000E+00 -0.00000000000E+00 -0.12134687930E+03  0.12134687930E+03  0.00000000000E+00 0.  1.
          6    1    1    2  501    0 -0.41542316081E+02  0.61524370678E+02  0.11371014184E+03  0.21993182710E+03  0.17300000000E+03 0.  1.
         -6    1    1    2    0  503  0.41542316081E+02 -0.61524370678E+02  0.61607422668E+02  0.19807949601E+03  0.17300000000E+03 0.  1.
<mgrwt>
<rscale>  2 0.18825518E+03</rscale>
<asrwt>0</asrwt>
<pdfrwt beam="1">  1       21 0.45640683E-01 0.18825518E+03</pdfrwt>
<pdfrwt beam="2">  1       21 0.18668751E-01 0.18825518E+03</pdfrwt>
<totfact> 0.12097669E+05</totfact>
</mgrwt>
</event>
<event>
 4    1  0.3883260E+000  0.2176042E+03  0.7546771E-02  0.1135682E+00
         21   -1    0    0  501  502  0.00000000000E+00  0.00000000000E+00  0.37322525746E+03  0.37322525746E+03  0.00000000000E+00 0.  1.
         21   -1    0    0  502  503 -0.00000000000E+00 -0.00000000000E+00 -0.40535304531E+03  0.40535304531E+03  0.00000000000E+00 0.  1.
          6    1    1    2  501    0  0.11810898648E+03 -0.58931051045E+02  0.30660261396E+03  0.37597441981E+03  0.17300000000E+03 0.  1.
         -6    1    1    2    0  503 -0.11810898648E+03  0.58931051045E+02 -0.33873040181E+03  0.40260388296E+03  0.17300000000E+03 0.  1.
<mgrwt>
<rscale>  2 0.21760423E+03</rscale>
<asrwt>0</asrwt>
<pdfrwt beam="1">  1       21 0.57419271E-01 0.21760423E+03</pdfrwt>
<pdfrwt beam="2">  1       21 0.62362007E-01 0.21760423E+03</pdfrwt>
<totfact> 0.66670225E+03</totfact>
</mgrwt>
</event>
<event>
 4    1  0.3883260E+000  0.2355827E+03  0.7546771E-02  0.1122771E+00
         21   -1    0    0  501  502  0.00000000000E+00  0.00000000000E+00  0.11419508994E+04  0.11419508994E+04  0.00000000000E+00 0.  1.
         21   -1    0    0  502  503 -0.00000000000E+00 -0.00000000000E+00 -0.62210641971E+02  0.62210641971E+02  0.00000000000E+00 0. -1.
          6    1    1    2  501    0  0.66285220855E+02 -0.14552135156E+03  0.82148553086E+03  0.85459795909E+03  0.17300000000E+03 0.  1.
         -6    1    1    2    0  503 -0.66285220855E+02  0.14552135156E+03  0.25825472656E+03  0.34956358228E+03  0.17300000000E+03 0. -1.
<mgrwt>
<rscale>  2 0.23558267E+03</rscale>
<asrwt>0</asrwt>
<pdfrwt beam="1">  1       21 0.17568474E+00 0.23558267E+03</pdfrwt>
<pdfrwt beam="2">  1       21 0.95708688E-02 0.23558267E+03</pdfrwt>
<totfact> 0.16579688E+04</totfact>
</mgrwt>
</event>
<event>
 4    1  0.3883260E+000  0.1789649E+03  0.7546771E-02  0.1168809E+00
         21   -1    0    0  501  502  0.00000000000E+00  0.00000000000E+00  0.67346457865E+02  0.67346457865E+02  0.00000000000E+00 0.  1.
         21   -1    0    0  502  503 -0.00000000000E+00 -0.00000000000E+00 -0.53594068911E+03  0.53594068911E+03  0.00000000000E+00 0.  1.
          6    1    1    2  501    0  0.23691574217E+02 -0.39219331373E+02 -0.13306402007E+03  0.22301228683E+03  0.17300000000E+03 0.  1.
         -6    1    1    2    0  503 -0.23691574217E+02  0.39219331373E+02 -0.33553021117E+03  0.38027486014E+03  0.17300000000E+03 0.  1.
<mgrwt>
<rscale>  2 0.17896493E+03</rscale>
<asrwt>0</asrwt>
<pdfrwt beam="1">  1       21 0.10360993E-01 0.17896493E+03</pdfrwt>
<pdfrwt beam="2">  1       21 0.82452414E-01 0.17896493E+03</pdfrwt>
<totfact> 0.98419411E+04</totfact>
</mgrwt>
</event>
<event>
 4    1  0.3883260E+000  0.2036323E+03  0.7546771E-02  0.1146710E+00
         21   -1    0    0  501  502  0.00000000000E+00  0.00000000000E+00  0.45281267904E+03  0.45281267904E+03  0.00000000000E+00 0.  1.
         21   -1    0    0  502  503 -0.00000000000E+00 -0.00000000000E+00 -0.93741185634E+02  0.93741185634E+02  0.00000000000E+00 0.  1.
          6    1    1    2  501    0  0.23448330083E+02 -0.10482035589E+03  0.22108159417E+03  0.30057145984E+03  0.17300000000E+03 0.  1.
         -6    1    1    2    0  503 -0.23448330083E+02  0.10482035589E+03  0.13798989923E+03  0.24598240483E+03  0.17300000000E+03 0.  1.
<mgrwt>
<rscale>  2 0.20363234E+03</rscale>
<asrwt>0</asrwt>
<pdfrwt beam="1">  1       21 0.69663488E-01 0.20363234E+03</pdfrwt>
<pdfrwt beam="2">  1       21 0.14421721E-01 0.20363234E+03</pdfrwt>
<totfact> 0.78524193E+04</totfact>
</mgrwt>
</event>
<event>
 4    1  0.3883260E+000  0.1776120E+03  0.7546771E-02  0.1170134E+00
         21   -1    0    0  501  502  0.00000000000E+00  0.00000000000E+00  0.24950010527E+04  0.24950010527E+04  0.00000000000E+00 0.  1.
         21   -1    0    0  502  503 -0.00000000000E+00 -0.00000000000E+00 -0.33017491083E+02  0.33017491083E+02  0.00000000000E+00 0.  1.
          6    1    1    2  501    0  0.16167125944E+02 -0.36819285131E+02  0.22239116196E+04  0.22309928121E+04  0.17300000000E+03 0.  1.
         -6    1    1    2    0  503 -0.16167125944E+02  0.36819285131E+02  0.23807194198E+03  0.29702573167E+03  0.17300000000E+03 0.  1.
<mgrwt>
<rscale>  2 0.17761204E+03</rscale>
<asrwt>0</asrwt>
<pdfrwt beam="1">  1       21 0.38384617E+00 0.17761204E+03</pdfrwt>
<pdfrwt beam="2">  1       21 0.50796160E-02 0.17761204E+03</pdfrwt>
<totfact> 0.29333032E+03</totfact>
</mgrwt>
</event>
<event>
 4    1  0.3883260E+000  0.1766784E+03  0.7546771E-02  0.1171057E+00
         21   -1    0    0  503  502  0.00000000000E+00  0.00000000000E+00  0.63771726921E+03  0.63771726921E+03  0.00000000000E+00 0. -1.
         21   -1    0    0  501  503 -0.00000000000E+00 -0.00000000000E+00 -0.81675170223E+02  0.81675170223E+02  0.00000000000E+00 0. -1.
          6    1    1    2  501    0  0.35864378669E+02  0.22277613693E-01  0.50331931066E+02  0.18370780451E+03  0.17300000000E+03 0. -1.
         -6    1    1    2    0  502 -0.35864378669E+02 -0.22277613693E-01  0.50571016792E+03  0.53568463492E+03  0.17300000000E+03 0. -1.
<mgrwt>
<rscale>  2 0.17667839E+03</rscale>
<asrwt>0</asrwt>
<pdfrwt beam="1">  1       21 0.98110346E-01 0.17667839E+03</pdfrwt>
<pdfrwt beam="2">  1       21 0.12565411E-01 0.17667839E+03</pdfrwt>
<totfact> 0.46785620E+04</totfact>
</mgrwt>
</event>
<event>
 4    1  0.3883260E+000  0.1753819E+03  0.7546771E-02  0.1172349E+00
         21   -1    0    0  503  502  0.00000000000E+00  0.00000000000E+00  0.52547563695E+03  0.52547563695E+03  0.00000000000E+00 0. -1.
         21   -1    0    0  501  503 -0.00000000000E+00 -0.00000000000E+00 -0.60072582690E+02  0.60072582690E+02  0.00000000000E+00 0. -1.
          6    1    1    2  501    0  0.92591705476E+01  0.27277872656E+02  0.18586471015E+03  0.25554746145E+03  0.17300000000E+03 0. -1.
         -6    1    1    2    0  502 -0.92591705476E+01 -0.27277872656E+02  0.27953834411E+03  0.33000075819E+03  0.17300000000E+03 0. -1.
<mgrwt>
<rscale>  2 0.17538191E+03</rscale>
<asrwt>0</asrwt>
<pdfrwt beam="1">  1       21 0.80842403E-01 0.17538191E+03</pdfrwt>
<pdfrwt beam="2">  1       21 0.92419361E-02 0.17538191E+03</pdfrwt>
<totfact> 0.12602980E+05</totfact>
</mgrwt>
</event>
<event>
 4    1  0.3883260E+000  0.1894525E+03  0.7546771E-02  0.1158956E+00
         21   -1    0    0  503  502  0.00000000000E+00  0.00000000000E+00  0.87995614418E+02  0.87995614418E+02  0.00000000000E+00 0. -1.
         21   -1    0    0  501  503 -0.00000000000E+00 -0.00000000000E+00 -0.10099033080E+04  0.10099033080E+04  0.00000000000E+00 0. -1.
          6    1    1    2  501    0  0.51044126542E+02  0.57946203274E+02 -0.88478863575E+03  0.90484429339E+03  0.17300000000E+03 0. -1.
         -6    1    1    2    0  502 -0.51044126542E+02 -0.57946203274E+02 -0.37119057812E+02  0.19305462901E+03  0.17300000000E+03 0. -1.
<mgrwt>
<rscale>  2 0.18945254E+03</rscale>
<asrwt>0</asrwt>
<pdfrwt beam="1">  1       21 0.13537786E-01 0.18945254E+03</pdfrwt>
<pdfrwt beam="2">  1       21 0.15536975E+00 0.18945254E+03</pdfrwt>
<totfact> 0.12897808E+04</totfact>
</mgrwt>
</event>
<event>
 4    1  0.3883260E+000  0.2026053E+03  0.7546771E-02  0.1147559E+00
         21   -1    0    0  503  502  0.00000000000E+00  0.00000000000E+00  0.43785003160E+03  0.43785003160E+03  0.00000000000E+00 0. -1.
         21   -1    0    0  501  503 -0.00000000000E+00 -0.00000000000E+00 -0.23859497418E+03  0.23859497418E+03  0.00000000000E+00 0.  1.
          6    1    1    2  501    0  0.93518447158E+02  0.48725816257E+02 -0.16389756578E+03  0.26059799922E+03  0.17300000000E+03 0.  1.
         -6    1    1    2    0  502 -0.93518447158E+02 -0.48725816257E+02  0.36315262320E+03  0.41584700656E+03  0.17300000000E+03 0. -1.
<mgrwt>
<rscale>  2 0.20260529E+03</rscale>
<asrwt>0</asrwt>
<pdfrwt beam="1">  1       21 0.67361543E-01 0.20260529E+03</pdfrwt>
<pdfrwt beam="2">  1       21 0.36706919E-01 0.20260529E+03</pdfrwt>
<totfact> 0.14338436E+04</totfact>
</mgrwt>
</event>
<event>
 4    1  0.3883260E+000  0.1750995E+03  0.7546771E-02  0.1172632E+00
         21   -1    0    0  503  502  0.00000000000E+00  0.00000000000E+00  0.69675361696E+03  0.69675361696E+03  0.00000000000E+00 0. -1.
         21   -1    0    0  501  503 -0.00000000000E+00 -0.00000000000E+00 -0.13523874734E+03  0.13523874734E+03  0.00000000000E+00 0. -1.
          6    1    1    2  501    0  0.47468143379E+01 -0.26613667412E+02 -0.60922396902E+02  0.18539514013E+03  0.17300000000E+03 0. -1.
         -6    1    1    2    0  502 -0.47468143379E+01  0.26613667412E+02  0.62243726652E+03  0.64659722416E+03  0.17300000000E+03 0. -1.
<mgrwt>
<rscale>  2 0.17509946E+03</rscale>
<asrwt>0</asrwt>
<pdfrwt beam="1">  1       21 0.10719286E+00 0.17509946E+03</pdfrwt>
<pdfrwt beam="2">  1       21 0.20805962E-01 0.17509946E+03</pdfrwt>
<totfact> 0.15079617E+04</totfact>
</mgrwt>
</event>
<event>
 4    1  0.3883260E+000  0.1777772E+03  0.7546771E-02  0.1169972E+00
         21   -1    0    0  501  502  0.00000000000E+00  0.00000000000E+00  0.14657748491E+03  0.14657748491E+03  0.00000000000E+00 0. -1.
         21   -1    0    0  502  503 -0.00000000000E+00 -0.00000000000E+00 -0.28142473357E+03  0.28142473357E+03  0.00000000000E+00 0. -1.
          6    1    1    2  501    0  0.33160027578E+02 -0.24002790577E+02  0.36059747774E+02  0.18139742775E+03  0.17300000000E+03 0. -1.
         -6    1    1    2    0  503 -0.33160027578E+02  0.24002790577E+02 -0.17090699643E+03  0.24660479074E+03  0.17300000000E+03 0. -1.
<mgrwt>
<rscale>  2 0.17777717E+03</rscale>
<asrwt>0</asrwt>
<pdfrwt beam="1">  1       21 0.22550383E-01 0.17777717E+03</pdfrwt>
<pdfrwt beam="2">  1       21 0.43296112E-01 0.17777717E+03</pdfrwt>
<totfact> 0.95028413E+04</totfact>
</mgrwt>
</event>
<event>
 4    1  0.3883260E+000  0.2285061E+03  0.7546771E-02  0.1127696E+00
         21   -1    0    0  501  502  0.00000000000E+00  0.00000000000E+00  0.68455974869E+03  0.68455974869E+03  0.00000000000E+00 0.  1.
         21   -1    0    0  502  503 -0.00000000000E+00 -0.00000000000E+00 -0.10412412904E+03  0.10412412904E+03  0.00000000000E+00 0.  1.
          6    1    1    2  501    0  0.14922264417E+03  0.43188090183E+01  0.49415676169E+03  0.54443177237E+03  0.17300000000E+03 0.  1.
         -6    1    1    2    0  503 -0.14922264417E+03 -0.43188090183E+01  0.86278857954E+02  0.24425210536E+03  0.17300000000E+03 0.  1.
<mgrwt>
<rscale>  2 0.22850613E+03</rscale>
<asrwt>0</asrwt>
<pdfrwt beam="1">  1       21 0.10531688E+00 0.22850613E+03</pdfrwt>
<pdfrwt beam="2">  1       21 0.16019097E-01 0.22850613E+03</pdfrwt>
<totfact> 0.24723721E+04</totfact>
</mgrwt>
</event>
<event>
 4    1  0.3883260E+000  0.1771475E+03  0.7546771E-02  0.1170593E+00
         21   -1    0    0  503  502  0.00000000000E+00  0.00000000000E+00  0.12987981181E+03  0.12987981181E+03  0.00000000000E+00 0.  1.
         21   -1    0    0  501  503 -0.00000000000E+00 -0.00000000000E+00 -0.37996456787E+03  0.37996456787E+03  0.00000000000E+00 0.  1.
          6    1    1    2  501    0 -0.21980162155E+02  0.31130274340E+02 -0.27886536428E+03  0.33037420133E+03  0.17300000000E+03 0. -1.
         -6    1    1    2    0  502  0.21980162155E+02 -0.31130274340E+02  0.28780608214E+02  0.17947017835E+03  0.17300000000E+03 0. -1.
<mgrwt>
<rscale>  2 0.17714746E+03</rscale>
<asrwt>0</asrwt>
<pdfrwt beam="1">  1       21 0.19981510E-01 0.17714746E+03</pdfrwt>
<pdfrwt beam="2">  1       21 0.58456087E-01 0.17714746E+03</pdfrwt>
<totfact> 0.63795700E+04</totfact>
</mgrwt>
</event>
<event>
 4    1  0.3883260E+000  0.1864957E+03  0.7546771E-02  0.1161660E+00
         21   -1    0    0  503  502  0.00000000000E+00  0.00000000000E+00  0.26894960036E+03  0.26894960036E+03  0.00000000000E+00 0. -1.
         21   -1    0    0  501  503 -0.00000000000E+00 -0.00000000000E+00 -0.15715248373E+03  0.15715248373E+03  0.00000000000E+00 0.  1.
          6    1    1    2  501    0 -0.18629331752E+02  0.67116271134E+02 -0.33761000337E+02  0.18952691365E+03  0.17300000000E+03 0.  1.
         -6    1    1    2    0  502  0.18629331752E+02 -0.67116271134E+02  0.14555811697E+03  0.23657517044E+03  0.17300000000E+03 0. -1.
<mgrwt>
<rscale>  2 0.18649570E+03</rscale>
<asrwt>0</asrwt>
<pdfrwt beam="1">  1       21 0.41376862E-01 0.18649570E+03</pdfrwt>
<pdfrwt beam="2">  1       21 0.24177305E-01 0.18649570E+03</pdfrwt>
<totfact> 0.91019874E+04</totfact>
</mgrwt>
</event>
<event>
 4    1  0.3883260E+000  0.1730732E+03  0.7546771E-02  0.1174680E+00
         21   -1    0    0  503  502  0.00000000000E+00  0.00000000000E+00  0.20603201187E+03  0.20603201187E+03  0.00000000000E+00 0. -1.
         21   -1    0    0  501  503 -0.00000000000E+00 -0.00000000000E+00 -0.21326825608E+03  0.21326825608E+03  0.00000000000E+00 0. -1.
          6    1    1    2  501    0 -0.48955231048E+01  0.11633258669E+01 -0.12189717812E+03  0.21169138269E+03  0.17300000000E+03 0. -1.
         -6    1    1    2    0  502  0.48955231048E+01 -0.11633258669E+01  0.11466093390E+03  0.20760888525E+03  0.17300000000E+03 0. -1.
<mgrwt>
<rscale>  2 0.17307316E+03</rscale>
<asrwt>0</asrwt>
<pdfrwt beam="1">  1       21 0.31697233E-01 0.17307316E+03</pdfrwt>
<pdfrwt beam="2">  1       21 0.32810501E-01 0.17307316E+03</pdfrwt>
<totfact> 0.86237194E+04</totfact>
</mgrwt>
</event>
<event>
 4    1  0.3883260E+000  0.2124272E+03  0.7546771E-02  0.1139658E+00
         21   -1    0    0  501  502  0.00000000000E+00  0.00000000000E+00  0.28991038084E+03  0.28991038084E+03  0.00000000000E+00 0. -1.
         21   -1    0    0  502  503 -0.00000000000E+00 -0.00000000000E+00 -0.15595886889E+03  0.15595886889E+03  0.00000000000E+00 0. -1.
          6    1    1    2  501    0  0.89748794363E+02 -0.84507182972E+02  0.57096813973E+02  0.21996671619E+03  0.17300000000E+03 0. -1.
         -6    1    1    2    0  503 -0.89748794363E+02  0.84507182972E+02  0.76854697973E+02  0.22590253355E+03  0.17300000000E+03 0. -1.
<mgrwt>
<rscale>  2 0.21242719E+03</rscale>
<asrwt>0</asrwt>
<pdfrwt beam="1">  1       21 0.44601597E-01 0.21242719E+03</pdfrwt>
<pdfrwt beam="2">  1       21 0.23993672E-01 0.21242719E+03</pdfrwt>
<totfact> 0.78382961E+04</totfact>
</mgrwt>
</event>
<event>
 4    1  0.3883260E+000  0.2161160E+03  0.7546771E-02  0.1136812E+00
         21   -1    0    0  501  502  0.00000000000E+00  0.00000000000E+00  0.44331328879E+03  0.44331328879E+03  0.00000000000E+00 0.  1.
         21   -1    0    0  502  503 -0.00000000000E+00 -0.00000000000E+00 -0.11192635863E+03  0.11192635863E+03  0.00000000000E+00 0.  1.
          6    1    1    2  501    0 -0.92660596460E+02 -0.90504804605E+02  0.23295235225E+03  0.31776233920E+03  0.17300000000E+03 0.  1.
         -6    1    1    2    0  503  0.92660596460E+02  0.90504804605E+02  0.98434577901E+02  0.23747730822E+03  0.17300000000E+03 0.  1.
<mgrwt>
<rscale>  2 0.21611595E+03</rscale>
<asrwt>0</asrwt>
<pdfrwt beam="1">  1       21 0.68202044E-01 0.21611595E+03</pdfrwt>
<pdfrwt beam="2">  1       21 0.17219440E-01 0.21611595E+03</pdfrwt>
<totfact> 0.59134502E+04</totfact>
</mgrwt>
</event>
<event>
 4    1  0.3883260E+000  0.1894807E+03  0.7546771E-02  0.1158931E+00
         21   -1    0    0  501  502  0.00000000000E+00  0.00000000000E+00  0.43083577306E+02  0.43083577306E+02  0.00000000000E+00 0.  1.
         21   -1    0    0  502  503 -0.00000000000E+00 -0.00000000000E+00 -0.85156399337E+03  0.85156399337E+03  0.00000000000E+00 0. -1.
          6    1    1    2  501    0  0.46309594350E+02 -0.61881845767E+02 -0.33878781575E+03  0.38817537978E+03  0.17300000000E+03 0. -1.
         -6    1    1    2    0  503 -0.46309594350E+02  0.61881845767E+02 -0.46969260032E+03  0.50647219090E+03  0.17300000000E+03 0. -1.
<mgrwt>
<rscale>  2 0.18948072E+03</rscale>
<asrwt>0</asrwt>
<pdfrwt beam="1">  1       21 0.66282426E-02 0.18948072E+03</pdfrwt>
<pdfrwt beam="2">  1       21 0.13100985E+00 0.18948072E+03</pdfrwt>
<totfact> 0.70556830E+04</totfact>
</mgrwt>
</event>
<event>
 4    1  0.3883260E+000  0.1774957E+03  0.7546771E-02  0.1170249E+00
         21   -1    0    0  503  502  0.00000000000E+00  0.00000000000E+00  0.40327514667E+03  0.40327514667E+03  0.00000000000E+00 0.  1.
         21   -1    0    0  501  503 -0.00000000000E+00 -0.00000000000E+00 -0.10328969398E+03  0.10328969398E+03  0.00000000000E+00 0.  1.
          6    1    1    2  501    0 -0.31585866297E+02 -0.24042999771E+02  0.24967765039E+02  0.17924319256E+03  0.17300000000E+03 0.  1.
         -6    1    1    2    0  502  0.31585866297E+02  0.24042999771E+02  0.27501768765E+03  0.32732164809E+03  0.17300000000E+03 0.  1.
<mgrwt>
<rscale>  2 0.17749573E+03</rscale>
<asrwt>0</asrwt>
<pdfrwt beam="1">  1       21 0.62042329E-01 0.17749573E+03</pdfrwt>
<pdfrwt beam="2">  1       21 0.15890722E-01 0.17749573E+03</pdfrwt>
<totfact> 0.85653959E+04</totfact>
</mgrwt>
</event>
<event>
 4    1  0.3883260E+000  0.1985080E+03  0.7546771E-02  0.1151004E+00
         21   -1    0    0  503  502  0.00000000000E+00  0.00000000000E+00  0.37832278217E+03  0.37832278217E+03  0.00000000000E+00 0. -1.
         21   -1    0    0  501  503 -0.00000000000E+00 -0.00000000000E+00 -0.10781133165E+03  0.10781133165E+03  0.00000000000E+00 0. -1.
          6    1    1    2  501    0  0.74086004748E+02 -0.63148003174E+02  0.90512354724E+02  0.21816941298E+03  0.17300000000E+03 0. -1.
         -6    1    1    2    0  502 -0.74086004748E+02  0.63148003174E+02  0.17999909580E+03  0.26796470083E+03  0.17300000000E+03 0. -1.
<mgrwt>
<rscale>  2 0.19850795E+03</rscale>
<asrwt>0</asrwt>
<pdfrwt beam="1">  1       21 0.58203504E-01 0.19850795E+03</pdfrwt>
<pdfrwt beam="2">  1       21 0.16586359E-01 0.19850795E+03</pdfrwt>
<totfact> 0.90050802E+04</totfact>
</mgrwt>
</event>
<event>
 4    1  0.3883260E+000  0.2131372E+03  0.7546771E-02  0.1139105E+00
         21   -1    0    0  501  502  0.00000000000E+00  0.00000000000E+00  0.49728875727E+03  0.49728875727E+03  0.00000000000E+00 0.  1.
         21   -1    0    0  502  503 -0.00000000000E+00 -0.00000000000E+00 -0.11184582291E+03  0.11184582291E+03  0.00000000000E+00 0. -1.
          6    1    1    2  501    0  0.12211785950E+02 -0.12389242711E+03  0.32309913735E+03  0.38706654954E+03  0.17300000000E+03 0.  1.
         -6    1    1    2    0  503 -0.12211785950E+02  0.12389242711E+03  0.62343797005E+02  0.22206803065E+03  0.17300000000E+03 0. -1.
<mgrwt>
<rscale>  2 0.21313719E+03</rscale>
<asrwt>0</asrwt>
<pdfrwt beam="1">  1       21 0.76505961E-01 0.21313719E+03</pdfrwt>
<pdfrwt beam="2">  1       21 0.17207050E-01 0.21313719E+03</pdfrwt>
<totfact> 0.45925088E+04</totfact>
</mgrwt>
</event>
<event>
 4    1  0.3883260E+000  0.1883926E+03  0.7546771E-02  0.1159919E+00
         21   -1    0    0  501  502  0.00000000000E+00  0.00000000000E+00  0.30045959820E+03  0.30045959820E+03  0.00000000000E+00 0. -1.
         21   -1    0    0  502  503 -0.00000000000E+00 -0.00000000000E+00 -0.29901776310E+03  0.29901776310E+03  0.00000000000E+00 0. -1.
          6    1    1    2  501    0  0.47252395288E+02 -0.57705863375E+02  0.23385460417E+03  0.30029940296E+03  0.17300000000E+03 0. -1.
         -6    1    1    2    0  503 -0.47252395288E+02  0.57705863375E+02 -0.23241276907E+03  0.29917795833E+03  0.17300000000E+03 0. -1.
<mgrwt>
<rscale>  2 0.18839256E+03</rscale>
<asrwt>0</asrwt>
<pdfrwt beam="1">  1       21 0.46224553E-01 0.18839256E+03</pdfrwt>
<pdfrwt beam="2">  1       21 0.46002733E-01 0.18839256E+03</pdfrwt>
<totfact> 0.20357529E+04</totfact>
</mgrwt>
</event>
<event>
 4    1  0.3883260E+000  0.2093787E+03  0.7546771E-02  0.1142059E+00
         21   -1    0    0  503  502  0.00000000000E+00  0.00000000000E+00  0.40712251255E+03  0.40712251255E+03  0.00000000000E+00 0. -1.
         21   -1    0    0  501  503 -0.00000000000E+00 -0.00000000000E+00 -0.10893942856E+03  0.10893942856E+03  0.00000000000E+00 0.  1.
          6    1    1    2  501    0  0.52994953676E+02 -0.10536596551E+03  0.12136125582E+03  0.24200827717E+03  0.17300000000E+03 0.  1.
         -6    1    1    2    0  502 -0.52994953676E+02  0.10536596551E+03  0.17682182817E+03  0.27405366394E+03  0.17300000000E+03 0. -1.
<mgrwt>
<rscale>  2 0.20937873E+03</rscale>
<asrwt>0</asrwt>
<pdfrwt beam="1">  1       21 0.62634232E-01 0.20937873E+03</pdfrwt>
<pdfrwt beam="2">  1       21 0.16759912E-01 0.20937873E+03</pdfrwt>
<totfact> 0.75086534E+04</totfact>
</mgrwt>
</event>
<event>
 4    1  0.3883260E+000  0.1791516E+03  0.7546771E-02  0.1168627E+00
         21   -1    0    0  503  502  0.00000000000E+00  0.00000000000E+00  0.20039243755E+03  0.20039243755E+03  0.00000000000E+00 0.  1.
         21   -1    0    0  501  503 -0.00000000000E+00 -0.00000000000E+00 -0.16140190833E+03  0.16140190833E+03  0.00000000000E+00 0.  1.
          6    1    1    2  501    0  0.71022154936E+01  0.45998542722E+02  0.36417630330E+01  0.17918864315E+03  0.17300000000E+03 0. -1.
         -6    1    1    2    0  502 -0.71022154936E+01 -0.45998542722E+02  0.35348766179E+02  0.18260570273E+03  0.17300000000E+03 0. -1.
<mgrwt>
<rscale>  2 0.17915163E+03</rscale>
<asrwt>0</asrwt>
<pdfrwt beam="1">  1       21 0.30829606E-01 0.17915163E+03</pdfrwt>
<pdfrwt beam="2">  1       21 0.24831063E-01 0.17915163E+03</pdfrwt>
<totfact> 0.15569317E+05</totfact>
</mgrwt>
</event>
<event>
 4    1  0.3883260E+000  0.2502359E+03  0.7546771E-02  0.1113156E+00
         21   -1    0    0  501  502  0.00000000000E+00  0.00000000000E+00  0.27196097617E+03  0.27196097617E+03  0.00000000000E+00 0.  1.
         21   -1    0    0  502  503 -0.00000000000E+00 -0.00000000000E+00 -0.23055845611E+03  0.23055845611E+03  0.00000000000E+00 0. -1.
          6    1    1    2  501    0 -0.15814982731E+03 -0.87622047830E+02  0.29947446885E+02  0.25202150844E+03  0.17300000000E+03 0.  1.
         -6    1    1    2    0  503  0.15814982731E+03  0.87622047830E+02  0.11455073181E+02  0.25049792383E+03  0.17300000000E+03 0. -1.
<mgrwt>
<rscale>  2 0.25023587E+03</rscale>
<asrwt>0</asrwt>
<pdfrwt beam="1">  1       21 0.41840150E-01 0.25023587E+03</pdfrwt>
<pdfrwt beam="2">  1       21 0.35470531E-01 0.25023587E+03</pdfrwt>
<totfact> 0.41025054E+04</totfact>
</mgrwt>
</event>
<event>
 4    1  0.3883260E+000  0.3027313E+03  0.7546771E-02  0.1083883E+00
         21   -1    0    0  501  502  0.00000000000E+00  0.00000000000E+00  0.11697334313E+04  0.11697334313E+04  0.00000000000E+00 0. -1.
         21   -1    0    0  502  503 -0.00000000000E+00 -0.00000000000E+00 -0.10480688220E+03  0.10480688220E+03  0.00000000000E+00 0. -1.
          6    1    1    2  501    0 -0.10809247108E+03 -0.22368116005E+03  0.85265834801E+03  0.90480522882E+03  0.17300000000E+03 0. -1.
         -6    1    1    2    0  503  0.10809247108E+03  0.22368116005E+03  0.21226820112E+03  0.36973508471E+03  0.17300000000E+03 0. -1.
<mgrwt>
<rscale>  2 0.30273131E+03</rscale>
<asrwt>0</asrwt>
<pdfrwt beam="1">  1       21 0.17995898E+00 0.30273131E+03</pdfrwt>
<pdfrwt beam="2">  1       21 0.16124137E-01 0.30273131E+03</pdfrwt>
<totfact> 0.57945884E+03</totfact>
</mgrwt>
</event>
<event>
 4    1  0.3883260E+000  0.2058958E+03  0.7546771E-02  0.1144858E+00
         21   -1    0    0  501  502  0.00000000000E+00  0.00000000000E+00  0.23407998046E+03  0.23407998046E+03  0.00000000000E+00 0.  1.
         21   -1    0    0  502  503 -0.00000000000E+00 -0.00000000000E+00 -0.14251568808E+04  0.14251568808E+04  0.00000000000E+00 0.  1.
          6    1    1    2  501    0  0.10883902900E+03 -0.24862304692E+02  0.17957681618E+03  0.27320487063E+03  0.17300000000E+03 0.  1.
         -6    1    1    2    0  503 -0.10883902900E+03  0.24862304692E+02 -0.13706537165E+04  0.13860319906E+04  0.17300000000E+03 0.  1.
<mgrwt>
<rscale>  2 0.20589577E+03</rscale>
<asrwt>0</asrwt>
<pdfrwt beam="1">  1       21 0.36012305E-01 0.20589577E+03</pdfrwt>
<pdfrwt beam="2">  1       21 0.21925490E+00 0.20589577E+03</pdfrwt>
<totfact> 0.74424247E+02</totfact>
</mgrwt>
</event>
<event>
 4    1  0.3883260E+000  0.1812021E+03  0.7546771E-02  0.1166645E+00
         21   -1    0    0  503  502  0.00000000000E+00  0.00000000000E+00  0.75133552782E+02  0.75133552782E+02  0.00000000000E+00 0.  1.
         21   -1    0    0  501  503 -0.00000000000E+00 -0.00000000000E+00 -0.90954790888E+03  0.90954790888E+03  0.00000000000E+00 0.  1.
          6    1    1    2  501    0 -0.49496382913E+02 -0.21337704749E+02 -0.77207844816E+03  0.79305694605E+03  0.17300000000E+03 0.  1.
         -6    1    1    2    0  502  0.49496382913E+02  0.21337704749E+02 -0.62335907939E+02  0.19162451561E+03  0.17300000000E+03 0.  1.
<mgrwt>
<rscale>  2 0.18120207E+03</rscale>
<asrwt>0</asrwt>
<pdfrwt beam="1">  1       21 0.11559009E-01 0.18120207E+03</pdfrwt>
<pdfrwt beam="2">  1       21 0.13993044E+00 0.18120207E+03</pdfrwt>
<totfact> 0.22646491E+04</totfact>
</mgrwt>
</event>
<event>
 4    1  0.3883260E+000  0.1755237E+03  0.7546771E-02  0.1172207E+00
         21   -1    0    0  501  502  0.00000000000E+00  0.00000000000E+00  0.27452687244E+03  0.27452687244E+03  0.00000000000E+00 0. -1.
         21   -1    0    0  502  503 -0.00000000000E+00 -0.00000000000E+00 -0.23082135602E+03  0.23082135602E+03  0.00000000000E+00 0. -1.
          6    1    1    2  501    0  0.26539475831E+02  0.13237264256E+02  0.20297001283E+03  0.26833821019E+03  0.17300000000E+03 0. -1.
         -6    1    1    2    0  503 -0.26539475831E+02 -0.13237264256E+02 -0.15926449640E+03  0.23701001826E+03  0.17300000000E+03 0. -1.
<mgrwt>
<rscale>  2 0.17552370E+03</rscale>
<asrwt>0</asrwt>
<pdfrwt beam="1">  1       21 0.42234903E-01 0.17552370E+03</pdfrwt>
<pdfrwt beam="2">  1       21 0.35510978E-01 0.17552370E+03</pdfrwt>
<totfact> 0.41602318E+04</totfact>
</mgrwt>
</event>
<event>
 4    1  0.3883260E+000  0.1927034E+03  0.7546771E-02  0.1156045E+00
         21   -1    0    0  501  502  0.00000000000E+00  0.00000000000E+00  0.38679441787E+03  0.38679441787E+03  0.00000000000E+00 0.  1.
         21   -1    0    0  502  503 -0.00000000000E+00 -0.00000000000E+00 -0.98314029281E+02  0.98314029281E+02  0.00000000000E+00 0. -1.
          6    1    1    2  501    0  0.22022747767E+02  0.81979156986E+02  0.18140416104E+03  0.26465459233E+03  0.17300000000E+03 0. -1.
         -6    1    1    2    0  503 -0.22022747767E+02 -0.81979156986E+02  0.10707622755E+03  0.22045385482E+03  0.17300000000E+03 0. -1.
<mgrwt>
<rscale>  2 0.19270336E+03</rscale>
<asrwt>0</asrwt>
<pdfrwt beam="1">  1       21 0.59506833E-01 0.19270336E+03</pdfrwt>
<pdfrwt beam="2">  1       21 0.15125235E-01 0.19270336E+03</pdfrwt>
<totfact> 0.10191396E+05</totfact>
</mgrwt>
</event>
<event>
 4    1  0.3883260E+000  0.2021436E+03  0.7546771E-02  0.1147943E+00
         21   -1    0    0  501  502  0.00000000000E+00  0.00000000000E+00  0.47648426152E+03  0.47648426152E+03  0.00000000000E+00 0.  1.
         21   -1    0    0  502  503 -0.00000000000E+00 -0.00000000000E+00 -0.30169131308E+03  0.30169131308E+03  0.00000000000E+00 0.  1.
          6    1    1    2  501    0  0.98921301020E+02 -0.33876615116E+02  0.41657131156E+03  0.46302668008E+03  0.17300000000E+03 0.  1.
         -6    1    1    2    0  503 -0.98921301020E+02  0.33876615116E+02 -0.24177836312E+03  0.31514889453E+03  0.17300000000E+03 0.  1.
<mgrwt>
<rscale>  2 0.20214363E+03</rscale>
<asrwt>0</asrwt>
<pdfrwt beam="1">  1       21 0.73305270E-01 0.20214363E+03</pdfrwt>
<pdfrwt beam="2">  1       21 0.46414049E-01 0.20214363E+03</pdfrwt>
<totfact> 0.73872405E+03</totfact>
</mgrwt>
</event>
<event>
 4    1  0.3883260E+000  0.1806085E+03  0.7546771E-02  0.1167215E+00
         21   -1    0    0  501  502  0.00000000000E+00  0.00000000000E+00  0.20585087999E+03  0.20585087999E+03  0.00000000000E+00 0. -1.
         21   -1    0    0  502  503 -0.00000000000E+00 -0.00000000000E+00 -0.39785566423E+03  0.39785566423E+03  0.00000000000E+00 0.  1.
          6    1    1    2  501    0 -0.50307724698E+02 -0.12632253384E+02  0.13814530302E+03  0.22738418093E+03  0.17300000000E+03 0. -1.
         -6    1    1    2    0  503  0.50307724698E+02  0.12632253384E+02 -0.33015008727E+03  0.37632236329E+03  0.17300000000E+03 0.  1.
<mgrwt>
<rscale>  2 0.18060853E+03</rscale>
<asrwt>0</asrwt>
<pdfrwt beam="1">  1       21 0.31669366E-01 0.18060853E+03</pdfrwt>
<pdfrwt beam="2">  1       21 0.61208563E-01 0.18060853E+03</pdfrwt>
<totfact> 0.23960317E+04</totfact>
</mgrwt>
</event>
<event>
 4    1  0.3883260E+000  0.2373883E+03  0.7546771E-02  0.1121545E+00
         21   -1    0    0  503  502  0.00000000000E+00  0.00000000000E+00  0.28991143541E+03  0.28991143541E+03  0.00000000000E+00 0. -1.
         21   -1    0    0  501  503 -0.00000000000E+00 -0.00000000000E+00 -0.22805277717E+03  0.22805277717E+03  0.00000000000E+00 0. -1.
          6    1    1    2  501    0 -0.16177941413E+03  0.15863141933E+02 -0.68585168487E+02  0.24709743714E+03  0.17300000000E+03 0. -1.
         -6    1    1    2    0  502  0.16177941413E+03 -0.15863141933E+02  0.13044382672E+03  0.27086677544E+03  0.17300000000E+03 0. -1.
<mgrwt>
<rscale>  2 0.23738833E+03</rscale>
<asrwt>0</asrwt>
<pdfrwt beam="1">  1       21 0.44601759E-01 0.23738833E+03</pdfrwt>
<pdfrwt beam="2">  1       21 0.35085043E-01 0.23738833E+03</pdfrwt>
<totfact> 0.36974352E+04</totfact>
</mgrwt>
</event>
<event>
 4    1  0.3883260E+000  0.1797536E+03  0.7546771E-02  0.1168042E+00
         21   -1    0    0  501  502  0.00000000000E+00  0.00000000000E+00  0.95946228244E+03  0.95946228244E+03  0.00000000000E+00 0.  1.
         21   -1    0    0  502  503 -0.00000000000E+00 -0.00000000000E+00 -0.27427860256E+03  0.27427860256E+03  0.00000000000E+00 0.  1.
          6    1    1    2  501    0 -0.46980751479E+02 -0.13235197153E+02  0.92035211568E+03  0.93774163728E+03  0.17300000000E+03 0.  1.
         -6    1    1    2    0  503  0.46980751479E+02  0.13235197153E+02 -0.23516843579E+03  0.29599924771E+03  0.17300000000E+03 0.  1.
<mgrwt>
<rscale>  2 0.17975361E+03</rscale>
<asrwt>0</asrwt>
<pdfrwt beam="1">  1       21 0.14760958E+00 0.17975361E+03</pdfrwt>
<pdfrwt beam="2">  1       21 0.42196708E-01 0.17975361E+03</pdfrwt>
<totfact> 0.17070037E+03</totfact>
</mgrwt>
</event>
<event>
 4    1  0.3883260E+000  0.1994683E+03  0.7546771E-02  0.1150188E+00
         21   -1    0    0  503  502  0.00000000000E+00  0.00000000000E+00  0.70422905630E+02  0.70422905630E+02  0.00000000000E+00 0.  1.
         21   -1    0    0  501  503 -0.00000000000E+00 -0.00000000000E+00 -0.56823841136E+03  0.56823841136E+03  0.00000000000E+00 0.  1.
          6    1    1    2  501    0  0.98965625475E+02  0.80264821616E+01 -0.27308443346E+03  0.33817558640E+03  0.17300000000E+03 0.  1.
         -6    1    1    2    0  502 -0.98965625475E+02 -0.80264821616E+01 -0.22473107227E+03  0.30048573058E+03  0.17300000000E+03 0.  1.
<mgrwt>
<rscale>  2 0.19946834E+03</rscale>
<asrwt>0</asrwt>
<pdfrwt beam="1">  1       21 0.10834293E-01 0.19946834E+03</pdfrwt>
<pdfrwt beam="2">  1       21 0.87421292E-01 0.19946834E+03</pdfrwt>
<totfact> 0.78858160E+04</totfact>
</mgrwt>
</event>
<event>
 4    1  0.3883260E+000  0.2236194E+03  0.7546771E-02  0.1131213E+00
         21   -1    0    0  503  502  0.00000000000E+00  0.00000000000E+00  0.42734498770E+03  0.42734498770E+03  0.00000000000E+00 0.  1.
         21   -1    0    0  501  503 -0.00000000000E+00 -0.00000000000E+00 -0.21905516309E+03  0.21905516309E+03  0.00000000000E+00 0. -1.
          6    1    1    2  501    0 -0.31172659949E+02 -0.13822055225E+03 -0.11644257100E+03  0.25212006690E+03  0.17300000000E+03 0. -1.
         -6    1    1    2    0  502  0.31172659949E+02  0.13822055225E+03  0.32473239561E+03  0.39428008389E+03  0.17300000000E+03 0.  1.
<mgrwt>
<rscale>  2 0.22361944E+03</rscale>
<asrwt>0</asrwt>
<pdfrwt beam="1">  1       21 0.65745382E-01 0.22361944E+03</pdfrwt>
<pdfrwt beam="2">  1       21 0.33700794E-01 0.22361944E+03</pdfrwt>
<totfact> 0.17702652E+04</totfact>
</mgrwt>
</event>
<event>
 4    1  0.3883260E+000  0.2117509E+03  0.7546771E-02  0.1140187E+00
         21   -1    0    0  503  502  0.00000000000E+00  0.00000000000E+00  0.95622550017E+03  0.95622550017E+03  0.00000000000E+00 0. -1.
         21   -1    0    0  501  503 -0.00000000000E+00 -0.00000000000E+00 -0.64401641376E+02  0.64401641376E+02  0.00000000000E+00 0. -1.
          6    1    1    2  501    0 -0.92843659574E+02 -0.79306340049E+02  0.17981567668E+03  0.27779870100E+03  0.17300000000E+03 0. -1.
         -6    1    1    2    0  502  0.92843659574E+02  0.79306340049E+02  0.71200818211E+03  0.74282844055E+03  0.17300000000E+03 0. -1.
<mgrwt>
<rscale>  2 0.21175089E+03</rscale>
<asrwt>0</asrwt>
<pdfrwt beam="1">  1       21 0.14711161E+00 0.21175089E+03</pdfrwt>
<pdfrwt beam="2">  1       21 0.99079455E-02 0.21175089E+03</pdfrwt>
<totfact> 0.25633790E+04</totfact>
</mgrwt>
</event>
<event>
 4    1  0.3883260E+000  0.1797925E+03  0.7546771E-02  0.1168004E+00
         21   -1    0    0  503  502  0.00000000000E+00  0.00000000000E+00  0.53682813988E+02  0.53682813988E+02  0.00000000000E+00 0.  1.
         21   -1    0    0  501  503 -0.00000000000E+00 -0.00000000000E+00 -0.68618633927E+03  0.68618633927E+03  0.00000000000E+00 0.  1.
          6    1    1    2  501    0 -0.27074258010E+02  0.40783771290E+02 -0.44570908610E+03  0.48060578531E+03  0.17300000000E+03 0.  1.
         -6    1    1    2    0  502  0.27074258010E+02 -0.40783771290E+02 -0.18679443919E+03  0.25926336795E+03  0.17300000000E+03 0.  1.
<mgrwt>
<rscale>  2 0.17979247E+03</rscale>
<asrwt>0</asrwt>
<pdfrwt beam="1">  1       21 0.82588948E-02 0.17979247E+03</pdfrwt>
<pdfrwt beam="2">  1       21 0.10556713E+00 0.17979247E+03</pdfrwt>
<totfact> 0.82341980E+04</totfact>
</mgrwt>
</event>
<event>
 4    1  0.3883260E+000  0.2409573E+03  0.7546771E-02  0.1119157E+00
         21   -1    0    0  501  502  0.00000000000E+00  0.00000000000E+00  0.17111973398E+04  0.17111973398E+04  0.00000000000E+00 0. -1.
         21   -1    0    0  502  503 -0.00000000000E+00 -0.00000000000E+00 -0.33930209736E+02  0.33930209736E+02  0.00000000000E+00 0.  1.
          6    1    1    2  501    0 -0.14297782837E+03  0.87685563283E+02  0.83526131445E+03  0.86932265634E+03  0.17300000000E+03 0. -1.
         -6    1    1    2    0  503  0.14297782837E+03 -0.87685563283E+02  0.84200581562E+03  0.87580489320E+03  0.17300000000E+03 0. -1.
<mgrwt>
<rscale>  2 0.24095729E+03</rscale>
<asrwt>0</asrwt>
<pdfrwt beam="1">  1       21 0.26326106E+00 0.24095729E+03</pdfrwt>
<pdfrwt beam="2">  1       21 0.52200336E-02 0.24095729E+03</pdfrwt>
<totfact> 0.13336301E+04</totfact>
</mgrwt>
</event>
<event>
 4    1  0.3883260E+000  0.2187791E+03  0.7546771E-02  0.1134797E+00
         21   -1    0    0  503  502  0.00000000000E+00  0.00000000000E+00  0.63734035300E+03  0.63734035300E+03  0.00000000000E+00 0.  1.
         21   -1    0    0  501  503 -0.00000000000E+00 -0.00000000000E+00 -0.75494563989E+02  0.75494563989E+02  0.00000000000E+00 0.  1.
          6    1    1    2  501    0 -0.10888537269E+03 -0.77969810168E+02  0.25515895899E+03  0.33611071098E+03  0.17300000000E+03 0.  1.
         -6    1    1    2    0  502  0.10888537269E+03  0.77969810168E+02  0.30668683002E+03  0.37672420601E+03  0.17300000000E+03 0.  1.
<mgrwt>
<rscale>  2 0.21877915E+03</rscale>
<asrwt>0</asrwt>
<pdfrwt beam="1">  1       21 0.98052359E-01 0.21877915E+03</pdfrwt>
<pdfrwt beam="2">  1       21 0.11614549E-01 0.21877915E+03</pdfrwt>
<totfact> 0.52816144E+04</totfact>
</mgrwt>
</event>
<event>
 4    1  0.3883260E+000  0.1911651E+03  0.7546771E-02  0.1157415E+00
         21   -1    0    0  501  502  0.00000000000E+00  0.00000000000E+00  0.80582283907E+02  0.80582283907E+02  0.00000000000E+00 0.  1.
         21   -1    0    0  502  503 -0.00000000000E+00 -0.00000000000E+00 -0.62457753509E+03  0.62457753509E+03  0.00000000000E+00 0.  1.
          6    1    1    2  501    0  0.74000182044E+02  0.33750303812E+02 -0.87470516370E+02  0.21022654729E+03  0.17300000000E+03 0.  1.
         -6    1    1    2    0  503 -0.74000182044E+02 -0.33750303812E+02 -0.45652473481E+03  0.49493327171E+03  0.17300000000E+03 0.  1.
<mgrwt>
<rscale>  2 0.19116514E+03</rscale>
<asrwt>0</asrwt>
<pdfrwt beam="1">  1       21 0.12397275E-01 0.19116514E+03</pdfrwt>
<pdfrwt beam="2">  1       21 0.96088849E-01 0.19116514E+03</pdfrwt>
<totfact> 0.49966045E+04</totfact>
</mgrwt>
</event>
<event>
 4    1  0.3883260E+000  0.2690915E+03  0.7546771E-02  0.1101801E+00
         21   -1    0    0  503  502  0.00000000000E+00  0.00000000000E+00  0.66097381920E+02  0.66097381920E+02  0.00000000000E+00 0.  1.
         21   -1    0    0  501  503 -0.00000000000E+00 -0.00000000000E+00 -0.14779639702E+04  0.14779639702E+04  0.00000000000E+00 0. -1.
          6    1    1    2  501    0  0.11519845156E+03 -0.17091094613E+03 -0.10986624545E+04  0.11311363418E+04  0.17300000000E+03 0. -1.
         -6    1    1    2    0  502 -0.11519845156E+03  0.17091094613E+03 -0.31320413376E+03  0.41292501032E+03  0.17300000000E+03 0. -1.
<mgrwt>
<rscale>  2 0.26909150E+03</rscale>
<asrwt>0</asrwt>
<pdfrwt beam="1">  1       21 0.10168829E-01 0.26909150E+03</pdfrwt>
<pdfrwt beam="2">  1       21 0.22737905E+00 0.26909150E+03</pdfrwt>
<totfact> 0.67148440E+03</totfact>
</mgrwt>
</event>
<event>
 4    1  0.3883260E+000  0.1968627E+03  0.7546771E-02  0.1152413E+00
         21   -1    0    0  503  502  0.00000000000E+00  0.00000000000E+00  0.53270781704E+02  0.53270781704E+02  0.00000000000E+00 0.  1.
         21   -1    0    0  501  503 -0.00000000000E+00 -0.00000000000E+00 -0.79567922901E+03  0.79567922901E+03  0.00000000000E+00 0.  1.
          6    1    1    2  501    0 -0.52120938119E+02  0.78162177274E+02 -0.49545061276E+03  0.53312871601E+03  0.17300000000E+03 0.  1.
         -6    1    1    2    0  502  0.52120938119E+02 -0.78162177274E+02 -0.24695783454E+03  0.31582129470E+03  0.17300000000E+03 0.  1.
<mgrwt>
<rscale>  2 0.19686269E+03</rscale>
<asrwt>0</asrwt>
<pdfrwt beam="1">  1       21 0.81955057E-02 0.19686269E+03</pdfrwt>
<pdfrwt beam="2">  1       21 0.12241218E+00 0.19686269E+03</pdfrwt>
<totfact> 0.57704459E+04</totfact>
</mgrwt>
</event>
<event>
 4    1  0.3883260E+000  0.1887195E+03  0.7546771E-02  0.1159621E+00
         21   -1    0    0  503  502  0.00000000000E+00  0.00000000000E+00  0.16547144172E+03  0.16547144172E+03  0.00000000000E+00 0. -1.
         21   -1    0    0  501  503 -0.00000000000E+00 -0.00000000000E+00 -0.21552999825E+03  0.21552999825E+03  0.00000000000E+00 0. -1.
          6    1    1    2  501    0 -0.52789693897E+02 -0.53845157725E+02 -0.32090977083E+02  0.19142853393E+03  0.17300000000E+03 0. -1.
         -6    1    1    2    0  502  0.52789693897E+02  0.53845157725E+02 -0.17967579446E+02  0.18957290604E+03  0.17300000000E+03 0. -1.
<mgrwt>
<rscale>  2 0.18871951E+03</rscale>
<asrwt>0</asrwt>
<pdfrwt beam="1">  1       21 0.25457145E-01 0.18871951E+03</pdfrwt>
<pdfrwt beam="2">  1       21 0.33158462E-01 0.18871951E+03</pdfrwt>
<totfact> 0.12830725E+05</totfact>
</mgrwt>
</event>
<event>
 4    1  0.3883260E+000  0.1731877E+03  0.7546771E-02  0.1174564E+00
         21   -1    0    0  503  502  0.00000000000E+00  0.00000000000E+00  0.15197251396E+03  0.15197251396E+03  0.00000000000E+00 0.  1.
         21   -1    0    0  501  503 -0.00000000000E+00 -0.00000000000E+00 -0.10652868357E+04  0.10652868357E+04  0.00000000000E+00 0.  1.
          6    1    1    2  501    0  0.74528124898E+01 -0.30733080177E+01 -0.10060212393E+04  0.10208196332E+04  0.17300000000E+03 0.  1.
         -6    1    1    2    0  502 -0.74528124898E+01  0.30733080177E+01  0.92706917558E+02  0.19643971645E+03  0.17300000000E+03 0.  1.
<mgrwt>
<rscale>  2 0.17318773E+03</rscale>
<asrwt>0</asrwt>
<pdfrwt beam="1">  1       21 0.23380387E-01 0.17318773E+03</pdfrwt>
<pdfrwt beam="2">  1       21 0.16389028E+00 0.17318773E+03</pdfrwt>
<totfact> 0.41312361E+03</totfact>
</mgrwt>
</event>
<event>
 4    1  0.3883260E+000  0.2389749E+03  0.7546771E-02  0.1120478E+00
         21   -1    0    0  501  502  0.00000000000E+00  0.00000000000E+00  0.84303837006E+02  0.84303837006E+02  0.00000000000E+00 0. -1.
         21   -1    0    0  502  503 -0.00000000000E+00 -0.00000000000E+00 -0.80090231630E+03  0.80090231630E+03  0.00000000000E+00 0.  1.
          6    1    1    2  501    0  0.12511574219E+03 -0.10735941191E+03 -0.18450739442E+03  0.30191384676E+03  0.17300000000E+03 0. -1.
         -6    1    1    2    0  503 -0.12511574219E+03  0.10735941191E+03 -0.53209108488E+03  0.58329230655E+03  0.17300000000E+03 0. -1.
<mgrwt>
<rscale>  2 0.23897488E+03</rscale>
<asrwt>0</asrwt>
<pdfrwt beam="1">  1       21 0.12969821E-01 0.23897488E+03</pdfrwt>
<pdfrwt beam="2">  1       21 0.12321574E+00 0.23897488E+03</pdfrwt>
<totfact> 0.24576932E+04</totfact>
</mgrwt>
</event>
<event>
 4    1  0.3883260E+000  0.2445715E+03  0.7546771E-02  0.1116784E+00
         21   -1    0    0  501  502  0.00000000000E+00  0.00000000000E+00  0.10856240569E+03  0.10856240569E+03  0.00000000000E+00 0.  1.
         21   -1    0    0  502  503 -0.00000000000E+00 -0.00000000000E+00 -0.58412139890E+03  0.58412139890E+03  0.00000000000E+00 0.  1.
          6    1    1    2  501    0 -0.17156350086E+03 -0.21264497785E+02 -0.15527661675E+03  0.28969991612E+03  0.17300000000E+03 0.  1.
         -6    1    1    2    0  503  0.17156350086E+03  0.21264497785E+02 -0.32028237646E+03  0.40298388847E+03  0.17300000000E+03 0.  1.
<mgrwt>
<rscale>  2 0.24457149E+03</rscale>
<asrwt>0</asrwt>
<pdfrwt beam="1">  1       21 0.16701909E-01 0.24457149E+03</pdfrwt>
<pdfrwt beam="2">  1       21 0.89864829E-01 0.24457149E+03</pdfrwt>
<totfact> 0.33088369E+04</totfact>
</mgrwt>
</event>
<event>
 4    1  0.3883260E+000  0.2235822E+03  0.7546771E-02  0.1131240E+00
         21   -1    0    0  503  502  0.00000000000E+00  0.00000000000E+00  0.53249731841E+02  0.53249731841E+02  0.00000000000E+00 0.  1.
         21   -1    0    0  501  503 -0.00000000000E+00 -0.00000000000E+00 -0.10128630573E+04  0.10128630573E+04  0.00000000000E+00 0.  1.
          6    1    1    2  501    0  0.17837947649E+02  0.14050558873E+03 -0.62398487747E+03  0.66283190942E+03  0.17300000000E+03 0.  1.
         -6    1    1    2    0  502 -0.17837947649E+02 -0.14050558873E+03 -0.33562844796E+03  0.40328087969E+03  0.17300000000E+03 0.  1.
<mgrwt>
<rscale>  2 0.22358223E+03</rscale>
<asrwt>0</asrwt>
<pdfrwt beam="1">  1       21 0.81922671E-02 0.22358223E+03</pdfrwt>
<pdfrwt beam="2">  1       21 0.15582507E+00 0.22358223E+03</pdfrwt>
<totfact> 0.30531149E+04</totfact>
</mgrwt>
</event>
<event>
 4    1  0.3883260E+000  0.2234791E+03  0.7546771E-02  0.1131316E+00
         21   -1    0    0  503  502  0.00000000000E+00  0.00000000000E+00  0.89765574619E+03  0.89765574619E+03  0.00000000000E+00 0.  1.
         21   -1    0    0  501  503 -0.00000000000E+00 -0.00000000000E+00 -0.57966567278E+02  0.57966567278E+02  0.00000000000E+00 0.  1.
          6    1    1    2  501    0  0.43417074454E+02 -0.13464346171E+03  0.32405862764E+03  0.39364565066E+03  0.17300000000E+03 0.  1.
         -6    1    1    2    0  502 -0.43417074454E+02  0.13464346171E+03  0.51563055128E+03  0.56197666281E+03  0.17300000000E+03 0.  1.
<mgrwt>
<rscale>  2 0.22347909E+03</rscale>
<asrwt>0</asrwt>
<pdfrwt beam="1">  1       21 0.13810087E+00 0.22347909E+03</pdfrwt>
<pdfrwt beam="2">  1       21 0.89179341E-02 0.22347909E+03</pdfrwt>
<totfact> 0.36154974E+04</totfact>
</mgrwt>
</event>
<event>
 4    1  0.3883260E+000  0.2017218E+03  0.7546771E-02  0.1148294E+00
         21   -1    0    0  501  502  0.00000000000E+00  0.00000000000E+00  0.38280529970E+02  0.38280529970E+02  0.00000000000E+00 0.  1.
         21   -1    0    0  502  503 -0.00000000000E+00 -0.00000000000E+00 -0.13229856711E+04  0.13229856711E+04  0.00000000000E+00 0.  1.
          6    1    1    2  501    0 -0.27576217510E+02 -0.10001111370E+03 -0.34062025545E+03  0.39587097527E+03  0.17300000000E+03 0.  1.
         -6    1    1    2    0  503  0.27576217510E+02  0.10001111370E+03 -0.94408488571E+03  0.96539522584E+03  0.17300000000E+03 0.  1.
<mgrwt>
<rscale>  2 0.20172177E+03</rscale>
<asrwt>0</asrwt>
<pdfrwt beam="1">  1       21 0.58893116E-02 0.20172177E+03</pdfrwt>
<pdfrwt beam="2">  1       21 0.20353628E+00 0.20172177E+03</pdfrwt>
<totfact> 0.25773731E+04</totfact>
</mgrwt>
</event>
<event>
 4    1  0.3883260E+000  0.1920899E+03  0.7546771E-02  0.1156590E+00
         21   -1    0    0  503  502  0.00000000000E+00  0.00000000000E+00  0.17577774731E+03  0.17577774731E+03  0.00000000000E+00 0. -1.
         21   -1    0    0  501  503 -0.00000000000E+00 -0.00000000000E+00 -0.24299457673E+03  0.24299457673E+03  0.00000000000E+00 0.  1.
          6    1    1    2  501    0 -0.44832892575E+01  0.83363274952E+02 -0.11086296497E+03  0.22178623153E+03  0.17300000000E+03 0.  1.
         -6    1    1    2    0  502  0.44832892575E+01 -0.83363274952E+02  0.43646135550E+02  0.19698609251E+03  0.17300000000E+03 0. -1.
<mgrwt>
<rscale>  2 0.19208992E+03</rscale>
<asrwt>0</asrwt>
<pdfrwt beam="1">  1       21 0.27042730E-01 0.19208992E+03</pdfrwt>
<pdfrwt beam="2">  1       21 0.37383781E-01 0.19208992E+03</pdfrwt>
<totfact> 0.89941253E+04</totfact>
</mgrwt>
</event>
<event>
 4    1  0.3883260E+000  0.3022762E+03  0.7546771E-02  0.1084108E+00
         21   -1    0    0  501  502  0.00000000000E+00  0.00000000000E+00  0.14293699432E+03  0.14293699432E+03  0.00000000000E+00 0. -1.
         21   -1    0    0  502  503 -0.00000000000E+00 -0.00000000000E+00 -0.66611223525E+03  0.66611223525E+03  0.00000000000E+00 0.  1.
          6    1    1    2  501    0  0.19949374949E+03 -0.14711945316E+03 -0.18033602691E+03  0.35198291462E+03  0.17300000000E+03 0. -1.
         -6    1    1    2    0  503 -0.19949374949E+03  0.14711945316E+03 -0.34283921402E+03  0.45706631494E+03  0.17300000000E+03 0.  1.
<mgrwt>
<rscale>  2 0.30227618E+03</rscale>
<asrwt>0</asrwt>
<pdfrwt beam="1">  1       21 0.21990307E-01 0.30227618E+03</pdfrwt>
<pdfrwt beam="2">  1       21 0.10247880E+00 0.30227618E+03</pdfrwt>
<totfact> 0.14097488E+04</totfact>
</mgrwt>
</event>
<event>
 4    1  0.3883260E+000  0.2039308E+03  0.7546771E-02  0.1146464E+00
         21   -1    0    0  503  502  0.00000000000E+00  0.00000000000E+00  0.43200344645E+03  0.43200344645E+03  0.00000000000E+00 0.  1.
         21   -1    0    0  501  503 -0.00000000000E+00 -0.00000000000E+00 -0.20088609778E+03  0.20088609778E+03  0.00000000000E+00 0. -1.
          6    1    1    2  501    0  0.80531778774E+02 -0.71926510715E+02 -0.11280547144E+03  0.23305120623E+03  0.17300000000E+03 0. -1.
         -6    1    1    2    0  502 -0.80531778774E+02  0.71926510715E+02  0.34392282011E+03  0.39983833800E+03  0.17300000000E+03 0.  1.
<mgrwt>
<rscale>  2 0.20393085E+03</rscale>
<asrwt>0</asrwt>
<pdfrwt beam="1">  1       21 0.66462069E-01 0.20393085E+03</pdfrwt>
<pdfrwt beam="2">  1       21 0.30905554E-01 0.20393085E+03</pdfrwt>
<totfact> 0.20736840E+04</totfact>
</mgrwt>
</event>
<event>
 4    1  0.3883260E+000  0.1797826E+03  0.7546771E-02  0.1168014E+00
         21   -1    0    0  501  502  0.00000000000E+00  0.00000000000E+00  0.11064343054E+04  0.11064343054E+04  0.00000000000E+00 0. -1.
         21   -1    0    0  502  503 -0.00000000000E+00 -0.00000000000E+00 -0.26963443230E+03  0.26963443230E+03  0.00000000000E+00 0. -1.
          6    1    1    2  501    0  0.20576620595E+02  0.44377937922E+02  0.10680947927E+04  0.10831197002E+04  0.17300000000E+03 0. -1.
         -6    1    1    2    0  503 -0.20576620595E+02 -0.44377937922E+02 -0.23129491966E+03  0.29294903746E+03  0.17300000000E+03 0. -1.
<mgrwt>
<rscale>  2 0.17978264E+03</rscale>
<asrwt>0</asrwt>
<pdfrwt beam="1">  1       21 0.17022066E+00 0.17978264E+03</pdfrwt>
<pdfrwt beam="2">  1       21 0.41482221E-01 0.17978264E+03</pdfrwt>
<totfact> 0.12064527E+03</totfact>
</mgrwt>
</event>
<event>
 4    1  0.3883260E+000  0.2370240E+03  0.7546771E-02  0.1121791E+00
         21   -1    0    0  501  502  0.00000000000E+00  0.00000000000E+00  0.12288689047E+04  0.12288689047E+04  0.00000000000E+00 0.  1.
         21   -1    0    0  502  503 -0.00000000000E+00 -0.00000000000E+00 -0.57794365234E+02  0.57794365234E+02  0.00000000000E+00 0. -1.
          6    1    1    2  501    0 -0.13719036116E+03  0.86198580443E+02  0.87962402639E+03  0.91099880256E+03  0.17300000000E+03 0.  1.
         -6    1    1    2    0  503  0.13719036116E+03 -0.86198580443E+02  0.29145051304E+03  0.37566446733E+03  0.17300000000E+03 0. -1.
<mgrwt>
<rscale>  2 0.23702403E+03</rscale>
<asrwt>0</asrwt>
<pdfrwt beam="1">  1       21 0.18905673E+00 0.23702403E+03</pdfrwt>
<pdfrwt beam="2">  1       21 0.88914418E-02 0.23702403E+03</pdfrwt>
<totfact> 0.15293543E+04</totfact>
</mgrwt>
</event>
<event>
 4    1  0.3883260E+000  0.1824028E+03  0.7546771E-02  0.1165498E+00
         21   -1    0    0  501  502  0.00000000000E+00  0.00000000000E+00  0.59804359005E+03  0.59804359005E+03  0.00000000000E+00 0.  1.
         21   -1    0    0  502  503 -0.00000000000E+00 -0.00000000000E+00 -0.55986394990E+02  0.55986394990E+02  0.00000000000E+00 0.  1.
          6    1    1    2  501    0  0.30786348584E+02  0.48928396749E+02  0.24503699672E+03  0.30547326729E+03  0.17300000000E+03 0.  1.
         -6    1    1    2    0  503 -0.30786348584E+02 -0.48928396749E+02  0.29702019834E+03  0.34855671775E+03  0.17300000000E+03 0.  1.
<mgrwt>
<rscale>  2 0.18240282E+03</rscale>
<asrwt>0</asrwt>
<pdfrwt beam="1">  1       21 0.92006702E-01 0.18240282E+03</pdfrwt>
<pdfrwt beam="2">  1       21 0.86132919E-02 0.18240282E+03</pdfrwt>
<totfact> 0.10572917E+05</totfact>
</mgrwt>
</event>
<event>
 4    1  0.3883260E+000  0.2508834E+03  0.7546771E-02  0.1112748E+00
         21   -1    0    0  503  502  0.00000000000E+00  0.00000000000E+00  0.36076106363E+03  0.36076106363E+03  0.00000000000E+00 0. -1.
         21   -1    0    0  501  503 -0.00000000000E+00 -0.00000000000E+00 -0.18564037793E+03  0.18564037793E+03  0.00000000000E+00 0. -1.
          6    1    1    2  501    0  0.18122609126E+03 -0.13060100242E+02  0.20548168830E+02  0.25172343874E+03  0.17300000000E+03 0. -1.
         -6    1    1    2    0  502 -0.18122609126E+03  0.13060100242E+02  0.15457251687E+03  0.29467800281E+03  0.17300000000E+03 0. -1.
<mgrwt>
<rscale>  2 0.25088336E+03</rscale>
<asrwt>0</asrwt>
<pdfrwt beam="1">  1       21 0.55501702E-01 0.25088336E+03</pdfrwt>
<pdfrwt beam="2">  1       21 0.28560058E-01 0.25088336E+03</pdfrwt>
<totfact> 0.34879759E+04</totfact>
</mgrwt>
</event>
<event>
 4    1  0.3883260E+000  0.2020420E+03  0.7546771E-02  0.1148028E+00
         21   -1    0    0  503  502  0.00000000000E+00  0.00000000000E+00  0.18179345531E+04  0.18179345531E+04  0.00000000000E+00 0.  1.
         21   -1    0    0  501  503 -0.00000000000E+00 -0.00000000000E+00 -0.43736946916E+02  0.43736946916E+02  0.00000000000E+00 0.  1.
          6    1    1    2  501    0  0.59971503338E+02  0.85412943187E+02  0.23777875401E+03  0.31202513991E+03  0.17300000000E+03 0.  1.
         -6    1    1    2    0  502 -0.59971503338E+02 -0.85412943187E+02  0.15364188521E+04  0.15496463601E+04  0.17300000000E+03 0.  1.
<mgrwt>
<rscale>  2 0.20204196E+03</rscale>
<asrwt>0</asrwt>
<pdfrwt beam="1">  1       21 0.27968218E+00 0.20204196E+03</pdfrwt>
<pdfrwt beam="2">  1       21 0.67287625E-02 0.20204196E+03</pdfrwt>
<totfact> 0.71660726E+03</totfact>
</mgrwt>
</event>
<event>
 4    1  0.3883260E+000  0.1874582E+03  0.7546771E-02  0.1160774E+00
         21   -1    0    0  501  502  0.00000000000E+00  0.00000000000E+00  0.95585130833E+02  0.95585130833E+02  0.00000000000E+00 0.  1.
         21   -1    0    0  502  503 -0.00000000000E+00 -0.00000000000E+00 -0.50791827618E+03  0.50791827618E+03  0.00000000000E+00 0.  1.
          6    1    1    2  501    0  0.41385704827E+02  0.59150530823E+02 -0.47584613099E+02  0.19340335381E+03  0.17300000000E+03 0.  1.
         -6    1    1    2    0  503 -0.41385704827E+02 -0.59150530823E+02 -0.36474853225E+03  0.41010005320E+03  0.17300000000E+03 0.  1.
<mgrwt>
<rscale>  2 0.18745816E+03</rscale>
<asrwt>0</asrwt>
<pdfrwt beam="1">  1       21 0.14705405E-01 0.18745816E+03</pdfrwt>
<pdfrwt beam="2">  1       21 0.78141273E-01 0.18745816E+03</pdfrwt>
<totfact> 0.59121594E+04</totfact>
</mgrwt>
</event>
<event>
 4    1  0.3883260E+000  0.2153602E+03  0.7546771E-02  0.1137390E+00
         21   -1    0    0  501  502  0.00000000000E+00  0.00000000000E+00  0.22704245972E+03  0.22704245972E+03  0.00000000000E+00 0.  1.
         21   -1    0    0  502  503 -0.00000000000E+00 -0.00000000000E+00 -0.24948560449E+03  0.24948560449E+03  0.00000000000E+00 0.  1.
          6    1    1    2  501    0  0.12804514893E+03  0.74480446200E+01  0.90201349046E+02  0.23348729495E+03  0.17300000000E+03 0.  1.
         -6    1    1    2    0  503 -0.12804514893E+03 -0.74480446200E+01 -0.11264449381E+03  0.24304076925E+03  0.17300000000E+03 0.  1.
<mgrwt>
<rscale>  2 0.21536024E+03</rscale>
<asrwt>0</asrwt>
<pdfrwt beam="1">  1       21 0.34929609E-01 0.21536024E+03</pdfrwt>
<pdfrwt beam="2">  1       21 0.38382401E-01 0.21536024E+03</pdfrwt>
<totfact> 0.51162647E+04</totfact>
</mgrwt>
</event>
<event>
 4    1  0.3883260E+000  0.1840395E+03  0.7546771E-02  0.1163950E+00
         21   -1    0    0  503  502  0.00000000000E+00  0.00000000000E+00  0.49460799670E+03  0.49460799670E+03  0.00000000000E+00 0.  1.
         21   -1    0    0  501  503 -0.00000000000E+00 -0.00000000000E+00 -0.95795192165E+02  0.95795192165E+02  0.00000000000E+00 0.  1.
          6    1    1    2  501    0 -0.40704043470E+02  0.47798696693E+02  0.41771447905E+02  0.18872039747E+03  0.17300000000E+03 0.  1.
         -6    1    1    2    0  502  0.40704043470E+02 -0.47798696693E+02  0.35704135663E+03  0.40168279139E+03  0.17300000000E+03 0.  1.
<mgrwt>
<rscale>  2 0.18403949E+03</rscale>
<asrwt>0</asrwt>
<pdfrwt beam="1">  1       21 0.76093536E-01 0.18403949E+03</pdfrwt>
<pdfrwt beam="2">  1       21 0.14737722E-01 0.18403949E+03</pdfrwt>
<totfact> 0.62595525E+04</totfact>
</mgrwt>
</event>
<event>
 4    1  0.3883260E+000  0.3934924E+03  0.7546771E-02  0.1046057E+00
         21   -1    0    0  503  502  0.00000000000E+00  0.00000000000E+00  0.30401298253E+03  0.30401298253E+03  0.00000000000E+00 0. -1.
         21   -1    0    0  501  503 -0.00000000000E+00 -0.00000000000E+00 -0.55869978935E+03  0.55869978935E+03  0.00000000000E+00 0.  1.
          6    1    1    2  501    0  0.42118864705E+02  0.35090351012E+03 -0.25559829918E+03  0.46921931197E+03  0.17300000000E+03 0.  1.
         -6    1    1    2    0  502 -0.42118864705E+02 -0.35090351012E+03  0.91149235920E+00  0.39349345992E+03  0.17300000000E+03 0. -1.
<mgrwt>
<rscale>  2 0.39349240E+03</rscale>
<asrwt>0</asrwt>
<pdfrwt beam="1">  1       21 0.46771229E-01 0.39349240E+03</pdfrwt>
<pdfrwt beam="2">  1       21 0.85953813E-01 0.39349240E+03</pdfrwt>
<totfact> 0.45774102E+03</totfact>
</mgrwt>
</event>
<event>
 4    1  0.3883260E+000  0.1820215E+03  0.7546771E-02  0.1165861E+00
         21   -1    0    0  503  502  0.00000000000E+00  0.00000000000E+00  0.88408092739E+03  0.88408092739E+03  0.00000000000E+00 0. -1.
         21   -1    0    0  501  503 -0.00000000000E+00 -0.00000000000E+00 -0.37794071898E+02  0.37794071898E+02  0.00000000000E+00 0. -1.
          6    1    1    2  501    0 -0.14190233198E+02  0.54785749682E+02  0.38085961692E+03  0.42212070416E+03  0.17300000000E+03 0. -1.
         -6    1    1    2    0  502  0.14190233198E+02 -0.54785749682E+02  0.46542723857E+03  0.49975429512E+03  0.17300000000E+03 0. -1.
<mgrwt>
<rscale>  2 0.18202154E+03</rscale>
<asrwt>0</asrwt>
<pdfrwt beam="1">  1       21 0.13601243E+00 0.18202154E+03</pdfrwt>
<pdfrwt beam="2">  1       21 0.58144733E-02 0.18202154E+03</pdfrwt>
<totfact> 0.80602979E+04</totfact>
</mgrwt>
</event>
<event>
 4    1  0.3883260E+000  0.2271107E+03  0.7546771E-02  0.1128690E+00
         21   -1    0    0  501  502  0.00000000000E+00  0.00000000000E+00  0.67064049634E+02  0.67064049634E+02  0.00000000000E+00 0.  1.
         21   -1    0    0  502  503 -0.00000000000E+00 -0.00000000000E+00 -0.78702660620E+03  0.78702660620E+03  0.00000000000E+00 0.  1.
          6    1    1    2  501    0 -0.15650724155E+02 -0.14630563225E+03 -0.42442342907E+03  0.48136735488E+03  0.17300000000E+03 0.  1.
         -6    1    1    2    0  503  0.15650724155E+02  0.14630563225E+03 -0.29553912749E+03  0.37272330095E+03  0.17300000000E+03 0.  1.
<mgrwt>
<rscale>  2 0.22711073E+03</rscale>
<asrwt>0</asrwt>
<pdfrwt beam="1">  1       21 0.10317547E-01 0.22711073E+03</pdfrwt>
<pdfrwt beam="2">  1       21 0.12108101E+00 0.22711073E+03</pdfrwt>
<totfact> 0.38927440E+04</totfact>
</mgrwt>
</event>
<event>
 4    1  0.3883260E+000  0.2506933E+03  0.7546771E-02  0.1112867E+00
         21   -1    0    0  501  502  0.00000000000E+00  0.00000000000E+00  0.19829822894E+03  0.19829822894E+03  0.00000000000E+00 0.  1.
         21   -1    0    0  502  503 -0.00000000000E+00 -0.00000000000E+00 -0.45774176783E+03  0.45774176783E+03  0.00000000000E+00 0.  1.
          6    1    1    2  501    0  0.81095601295E+02  0.16230113464E+03  0.52208792106E+02  0.25607208522E+03  0.17300000000E+03 0.  1.
         -6    1    1    2    0  503 -0.81095601295E+02 -0.16230113464E+03 -0.31165233100E+03  0.39996791155E+03  0.17300000000E+03 0.  1.
<mgrwt>
<rscale>  2 0.25069335E+03</rscale>
<asrwt>0</asrwt>
<pdfrwt beam="1">  1       21 0.30507420E-01 0.25069335E+03</pdfrwt>
<pdfrwt beam="2">  1       21 0.70421809E-01 0.25069335E+03</pdfrwt>
<totfact> 0.18256763E+04</totfact>
</mgrwt>
</event>
<event>
 4    1  0.3883260E+000  0.1984004E+03  0.7546771E-02  0.1151096E+00
         21   -1    0    0  503  502  0.00000000000E+00  0.00000000000E+00  0.43495951340E+03  0.43495951340E+03  0.00000000000E+00 0.  1.
         21   -1    0    0  501  503 -0.00000000000E+00 -0.00000000000E+00 -0.11749639072E+03  0.11749639072E+03  0.00000000000E+00 0.  1.
          6    1    1    2  501    0 -0.19912444604E+02 -0.95064160659E+02  0.26318990589E+02  0.20013842549E+03  0.17300000000E+03 0.  1.
         -6    1    1    2    0  502  0.19912444604E+02  0.95064160659E+02  0.29114413209E+03  0.35231747862E+03  0.17300000000E+03 0.  1.
<mgrwt>
<rscale>  2 0.19840035E+03</rscale>
<asrwt>0</asrwt>
<pdfrwt beam="1">  1       21 0.66916847E-01 0.19840035E+03</pdfrwt>
<pdfrwt beam="2">  1       21 0.18076368E-01 0.19840035E+03</pdfrwt>
<totfact> 0.56826947E+04</totfact>
</mgrwt>
</event>
<event>
 4    1  0.3883260E+000  0.1784578E+03  0.7546771E-02  0.1169304E+00
         21   -1    0    0  503  502  0.00000000000E+00  0.00000000000E+00  0.12526161467E+04  0.12526161467E+04  0.00000000000E+00 0. -1.
         21   -1    0    0  501  503 -0.00000000000E+00 -0.00000000000E+00 -0.38221708831E+02  0.38221708831E+02  0.00000000000E+00 0.  1.
          6    1    1    2  501    0 -0.25763291921E+02  0.35418160231E+02  0.23373769110E+03  0.29407567313E+03  0.17300000000E+03 0.  1.
         -6    1    1    2    0  502  0.25763291921E+02 -0.35418160231E+02  0.98065674672E+03  0.99676218235E+03  0.17300000000E+03 0. -1.
<mgrwt>
<rscale>  2 0.17845782E+03</rscale>
<asrwt>0</asrwt>
<pdfrwt beam="1">  1       21 0.19271014E+00 0.17845782E+03</pdfrwt>
<pdfrwt beam="2">  1       21 0.58802639E-02 0.17845782E+03</pdfrwt>
<totfact> 0.30862180E+04</totfact>
</mgrwt>
</event>
<event>
 4    1  0.3883260E+000  0.2085581E+03  0.7546771E-02  0.1142713E+00
         21   -1    0    0  503  502  0.00000000000E+00  0.00000000000E+00  0.54074613047E+03  0.54074613047E+03  0.00000000000E+00 0. -1.
         21   -1    0    0  501  503 -0.00000000000E+00 -0.00000000000E+00 -0.80439803188E+02  0.80439803188E+02  0.00000000000E+00 0. -1.
          6    1    1    2  501    0 -0.65181762641E+02  0.96534050020E+02  0.22864373941E+03  0.30947446513E+03  0.17300000000E+03 0. -1.
         -6    1    1    2    0  502  0.65181762641E+02 -0.96534050020E+02  0.23166258787E+03  0.31171146853E+03  0.17300000000E+03 0. -1.
<mgrwt>
<rscale>  2 0.20855811E+03</rscale>
<asrwt>0</asrwt>
<pdfrwt beam="1">  1       21 0.83191710E-01 0.20855811E+03</pdfrwt>
<pdfrwt beam="2">  1       21 0.12375355E-01 0.20855811E+03</pdfrwt>
<totfact> 0.69380650E+04</totfact>
</mgrwt>
</event>
<event>
 4    1  0.3883260E+000  0.2486815E+03  0.7546771E-02  0.1114141E+00
         21   -1    0    0  501  502  0.00000000000E+00  0.00000000000E+00  0.23704398993E+03  0.23704398993E+03  0.00000000000E+00 0.  1.
         21   -1    0    0  502  503 -0.00000000000E+00 -0.00000000000E+00 -0.43118473617E+03  0.43118473617E+03  0.00000000000E+00 0.  1.
          6    1    1    2  501    0 -0.12831868792E+02  0.17818208468E+03  0.11290264959E+03  0.27311082081E+03  0.17300000000E+03 0.  1.
         -6    1    1    2    0  503  0.12831868792E+02 -0.17818208468E+03 -0.30704339583E+03  0.39511790529E+03  0.17300000000E+03 0.  1.
<mgrwt>
<rscale>  2 0.24868155E+03</rscale>
<asrwt>0</asrwt>
<pdfrwt beam="1">  1       21 0.36468306E-01 0.24868155E+03</pdfrwt>
<pdfrwt beam="2">  1       21 0.66336113E-01 0.24868155E+03</pdfrwt>
<totfact> 0.14632414E+04</totfact>
</mgrwt>
</event>
<event>
 4    1  0.3883260E+000  0.1819366E+03  0.7546771E-02  0.1165942E+00
         21   -1    0    0  503  502  0.00000000000E+00  0.00000000000E+00  0.12228067949E+04  0.12228067949E+04  0.00000000000E+00 0. -1.
         21   -1    0    0  501  503 -0.00000000000E+00 -0.00000000000E+00 -0.35735856875E+02  0.35735856875E+02  0.00000000000E+00 0. -1.
          6    1    1    2  501    0 -0.28127430746E+02  0.48792995032E+02  0.28364996970E+03  0.33698399670E+03  0.17300000000E+03 0. -1.
         -6    1    1    2    0  502  0.28127430746E+02 -0.48792995032E+02  0.90342096837E+03  0.92155865511E+03  0.17300000000E+03 0. -1.
<mgrwt>
<rscale>  2 0.18193655E+03</rscale>
<asrwt>0</asrwt>
<pdfrwt beam="1">  1       21 0.18812409E+00 0.18193655E+03</pdfrwt>
<pdfrwt beam="2">  1       21 0.54978251E-02 0.18193655E+03</pdfrwt>
<totfact> 0.37001899E+04</totfact>
</mgrwt>
</event>
<event>
 4    1  0.3883260E+000  0.2154003E+03  0.7546771E-02  0.1137359E+00
         21   -1    0    0  503  502  0.00000000000E+00  0.00000000000E+00  0.40231324603E+02  0.40231324603E+02  0.00000000000E+00 0.  1.
         21   -1    0    0  501  503 -0.00000000000E+00 -0.00000000000E+00 -0.12014717975E+04  0.12014717975E+04  0.00000000000E+00 0. -1.
          6    1    1    2  501    0 -0.12665256933E+01 -0.12832259802E+03 -0.70498423581E+03  0.73715674452E+03  0.17300000000E+03 0. -1.
         -6    1    1    2    0  502  0.12665256933E+01  0.12832259802E+03 -0.45625623706E+03  0.50454637755E+03  0.17300000000E+03 0. -1.
<mgrwt>
<rscale>  2 0.21540031E+03</rscale>
<asrwt>0</asrwt>
<pdfrwt beam="1">  1       21 0.61894345E-02 0.21540031E+03</pdfrwt>
<pdfrwt beam="2">  1       21 0.18484182E+00 0.21540031E+03</pdfrwt>
<totfact> 0.31079058E+04</totfact>
</mgrwt>
</event>
<event>
 4    1  0.3883260E+000  0.2269535E+03  0.7546771E-02  0.1128803E+00
         21   -1    0    0  503  502  0.00000000000E+00  0.00000000000E+00  0.38800198414E+03  0.38800198414E+03  0.00000000000E+00 0.  1.
         21   -1    0    0  501  503 -0.00000000000E+00 -0.00000000000E+00 -0.25828671422E+03  0.25828671422E+03  0.00000000000E+00 0.  1.
          6    1    1    2  501    0 -0.28246341243E+02  0.14415627242E+03 -0.16042521527E+03  0.27792829357E+03  0.17300000000E+03 0.  1.
         -6    1    1    2    0  502  0.28246341243E+02 -0.14415627242E+03  0.29014048519E+03  0.36836040479E+03  0.17300000000E+03 0.  1.
<mgrwt>
<rscale>  2 0.22695349E+03</rscale>
<asrwt>0</asrwt>
<pdfrwt beam="1">  1       21 0.59692613E-01 0.22695349E+03</pdfrwt>
<pdfrwt beam="2">  1       21 0.39736418E-01 0.22695349E+03</pdfrwt>
<totfact> 0.15665623E+04</totfact>
</mgrwt>
</event>
<event>
 4    1  0.3883260E+000  0.2787314E+03  0.7546771E-02  0.1096384E+00
         21   -1    0    0  501  502  0.00000000000E+00  0.00000000000E+00  0.12838182291E+03  0.12838182291E+03  0.00000000000E+00 0.  1.
         21   -1    0    0  502  503 -0.00000000000E+00 -0.00000000000E+00 -0.15935276286E+04  0.15935276286E+04  0.00000000000E+00 0. -1.
          6    1    1    2  501    0 -0.18780116654E+03 -0.11177175159E+03 -0.54525033028E+02  0.28401440427E+03  0.17300000000E+03 0.  1.
         -6    1    1    2    0  503  0.18780116654E+03  0.11177175159E+03 -0.14106207727E+04  0.14378950473E+04  0.17300000000E+03 0. -1.
<mgrwt>
<rscale>  2 0.27873142E+03</rscale>
<asrwt>0</asrwt>
<pdfrwt beam="1">  1       21 0.19751050E-01 0.27873142E+03</pdfrwt>
<pdfrwt beam="2">  1       21 0.24515809E+00 0.27873142E+03</pdfrwt>
<totfact> 0.15429338E+03</totfact>
</mgrwt>
</event>
<event>
 4    1  0.3883260E+000  0.2752080E+03  0.7546771E-02  0.1098335E+00
         21   -1    0    0  501  502  0.00000000000E+00  0.00000000000E+00  0.15686883860E+04  0.15686883860E+04  0.00000000000E+00 0. -1.
         21   -1    0    0  502  503 -0.00000000000E+00 -0.00000000000E+00 -0.48419478597E+02  0.48419478597E+02  0.00000000000E+00 0.  1.
          6    1    1    2  501    0  0.82718418859E+02 -0.19740335450E+03  0.80321764773E+03  0.84905713048E+03  0.17300000000E+03 0. -1.
         -6    1    1    2    0  503 -0.82718418859E+02  0.19740335450E+03  0.71705125972E+03  0.76805073416E+03  0.17300000000E+03 0.  1.
<mgrwt>
<rscale>  2 0.27520796E+03</rscale>
<asrwt>0</asrwt>
<pdfrwt beam="1">  1       21 0.24133664E+00 0.27520796E+03</pdfrwt>
<pdfrwt beam="2">  1       21 0.74491517E-02 0.27520796E+03</pdfrwt>
<totfact> 0.95151214E+03</totfact>
</mgrwt>
</event>
<event>
 4    1  0.3883260E+000  0.1763635E+03  0.7546771E-02  0.1171370E+00
         21   -1    0    0  503  502  0.00000000000E+00  0.00000000000E+00  0.40840720900E+03  0.40840720900E+03  0.00000000000E+00 0. -1.
         21   -1    0    0  501  503 -0.00000000000E+00 -0.00000000000E+00 -0.18943933519E+03  0.18943933519E+03  0.00000000000E+00 0. -1.
          6    1    1    2  501    0 -0.26782826771E+02 -0.21395696981E+02 -0.12166980025E+03  0.21426067290E+03  0.17300000000E+03 0. -1.
         -6    1    1    2    0  502  0.26782826771E+02  0.21395696981E+02  0.34063767406E+03  0.38358587128E+03  0.17300000000E+03 0. -1.
<mgrwt>
<rscale>  2 0.17636353E+03</rscale>
<asrwt>0</asrwt>
<pdfrwt beam="1">  1       21 0.62831878E-01 0.17636353E+03</pdfrwt>
<pdfrwt beam="2">  1       21 0.29144513E-01 0.17636353E+03</pdfrwt>
<totfact> 0.26691176E+04</totfact>
</mgrwt>
</event>
<event>
 4    1  0.3883260E+000  0.1741765E+03  0.7546771E-02  0.1173561E+00
         21   -1    0    0  501  502  0.00000000000E+00  0.00000000000E+00  0.10007426161E+03  0.10007426161E+03  0.00000000000E+00 0. -1.
         21   -1    0    0  502  503 -0.00000000000E+00 -0.00000000000E+00 -0.51844434398E+03  0.51844434398E+03  0.00000000000E+00 0. -1.
          6    1    1    2  501    0  0.20089854671E+02  0.21993520342E+01 -0.98935539940E+01  0.17445722060E+03  0.17300000000E+03 0. -1.
         -6    1    1    2    0  503 -0.20089854671E+02 -0.21993520342E+01 -0.40847652837E+03  0.44406138499E+03  0.17300000000E+03 0. -1.
<mgrwt>
<rscale>  2 0.17417646E+03</rscale>
<asrwt>0</asrwt>
<pdfrwt beam="1">  1       21 0.15396041E-01 0.17417646E+03</pdfrwt>
<pdfrwt beam="2">  1       21 0.79760666E-01 0.17417646E+03</pdfrwt>
<totfact> 0.52264702E+04</totfact>
</mgrwt>
</event>
<event>
 4    1  0.3883260E+000  0.1911961E+03  0.7546771E-02  0.1157387E+00
         21   -1    0    0  503  502  0.00000000000E+00  0.00000000000E+00  0.87132179192E+02  0.87132179192E+02  0.00000000000E+00 0. -1.
         21   -1    0    0  501  503 -0.00000000000E+00 -0.00000000000E+00 -0.44295865121E+03  0.44295865121E+03  0.00000000000E+00 0. -1.
          6    1    1    2  501    0 -0.52231629202E+02  0.62440508020E+02 -0.23884779793E+03  0.30594808499E+03  0.17300000000E+03 0. -1.
         -6    1    1    2    0  502  0.52231629202E+02 -0.62440508020E+02 -0.11697867409E+03  0.22414274542E+03  0.17300000000E+03 0. -1.
<mgrwt>
<rscale>  2 0.19119613E+03</rscale>
<asrwt>0</asrwt>
<pdfrwt beam="1">  1       21 0.13404951E-01 0.19119613E+03</pdfrwt>
<pdfrwt beam="2">  1       21 0.68147485E-01 0.19119613E+03</pdfrwt>
<totfact> 0.94591833E+04</totfact>
</mgrwt>
</event>
<event>
 4    1  0.3883260E+000  0.3359283E+03  0.7546771E-02  0.1068543E+00
         21   -1    0    0  503  502  0.00000000000E+00  0.00000000000E+00  0.11575037585E+03  0.11575037585E+03  0.00000000000E+00 0.  1.
         21   -1    0    0  501  503 -0.00000000000E+00 -0.00000000000E+00 -0.14782911087E+04  0.14782911087E+04  0.00000000000E+00 0. -1.
          6    1    1    2  501    0  0.11857716887E+03  0.26240865984E+03 -0.11463549518E+04  0.11945616457E+04  0.17300000000E+03 0. -1.
         -6    1    1    2    0  502 -0.11857716887E+03 -0.26240865984E+03 -0.21618578100E+03  0.39947983885E+03  0.17300000000E+03 0.  1.
<mgrwt>
<rscale>  2 0.33592834E+03</rscale>
<asrwt>0</asrwt>
<pdfrwt beam="1">  1       21 0.17807751E-01 0.33592834E+03</pdfrwt>
<pdfrwt beam="2">  1       21 0.22742939E+00 0.33592834E+03</pdfrwt>
<totfact> 0.23120978E+03</totfact>
</mgrwt>
</event>
<event>
 4    1  0.3883260E+000  0.2548243E+03  0.7546771E-02  0.1110293E+00
         21   -1    0    0  501  502  0.00000000000E+00  0.00000000000E+00  0.34818095572E+03  0.34818095572E+03  0.00000000000E+00 0.  1.
         21   -1    0    0  502  503 -0.00000000000E+00 -0.00000000000E+00 -0.16914408037E+04  0.16914408037E+04  0.00000000000E+00 0.  1.
          6    1    1    2  501    0 -0.17429556674E+01  0.18709185687E+03  0.29031695962E+03  0.38628918939E+03  0.17300000000E+03 0.  1.
         -6    1    1    2    0  503  0.17429556674E+01 -0.18709185687E+03 -0.16335768076E+04  0.16533325701E+04  0.17300000000E+03 0.  1.
<mgrwt>
<rscale>  2 0.25482425E+03</rscale>
<asrwt>0</asrwt>
<pdfrwt beam="1">  1       21 0.53566300E-01 0.25482425E+03</pdfrwt>
<pdfrwt beam="2">  1       21 0.26022167E+00 0.25482425E+03</pdfrwt>
<totfact> 0.17639886E+02</totfact>
</mgrwt>
</event>
<event>
 4    1  0.3883260E+000  0.2403845E+03  0.7546771E-02  0.1119537E+00
         21   -1    0    0  503  502  0.00000000000E+00  0.00000000000E+00  0.17514234203E+04  0.17514234203E+04  0.00000000000E+00 0.  1.
         21   -1    0    0  501  503 -0.00000000000E+00 -0.00000000000E+00 -0.66053261087E+02  0.66053261087E+02  0.00000000000E+00 0.  1.
          6    1    1    2  501    0 -0.17254829806E+02 -0.16600593942E+03  0.19978289166E+03  0.31256664069E+03  0.17300000000E+03 0.  1.
         -6    1    1    2    0  502  0.17254829806E+02  0.16600593942E+03  0.14855872676E+04  0.15049100407E+04  0.17300000000E+03 0.  1.
<mgrwt>
<rscale>  2 0.24038449E+03</rscale>
<asrwt>0</asrwt>
<pdfrwt beam="1">  1       21 0.26944972E+00 0.24038449E+03</pdfrwt>
<pdfrwt beam="2">  1       21 0.10162042E-01 0.24038449E+03</pdfrwt>
<totfact> 0.38485795E+03</totfact>
</mgrwt>
</event>
<event>
 4    1  0.3883260E+000  0.1746000E+03  0.7546771E-02  0.1173134E+00
         21   -1    0    0  501  502  0.00000000000E+00  0.00000000000E+00  0.71336976934E+02  0.71336976934E+02  0.00000000000E+00 0. -1.
         21   -1    0    0  502  503 -0.00000000000E+00 -0.00000000000E+00 -0.66300608548E+03  0.66300608548E+03  0.00000000000E+00 0. -1.
          6    1    1    2  501    0  0.17827066937E+01 -0.23515828914E+02 -0.76928174463E+02  0.19079600698E+03  0.17300000000E+03 0. -1.
         -6    1    1    2    0  503 -0.17827066937E+01  0.23515828914E+02 -0.51474093408E+03  0.54354705543E+03  0.17300000000E+03 0. -1.
<mgrwt>
<rscale>  2 0.17460004E+03</rscale>
<asrwt>0</asrwt>
<pdfrwt beam="1">  1       21 0.10974920E-01 0.17460004E+03</pdfrwt>
<pdfrwt beam="2">  1       21 0.10200093E+00 0.17460004E+03</pdfrwt>
<totfact> 0.54372252E+04</totfact>
</mgrwt>
</event>
<event>
 4    1  0.3883260E+000  0.1867218E+03  0.7546771E-02  0.1161452E+00
         21   -1    0    0  501  502  0.00000000000E+00  0.00000000000E+00  0.10108937191E+03  0.10108937191E+03  0.00000000000E+00 0. -1.
         21   -1    0    0  502  503 -0.00000000000E+00 -0.00000000000E+00 -0.36099684069E+03  0.36099684069E+03  0.00000000000E+00 0. -1.
          6    1    1    2  501    0  0.34561492191E+02  0.61168129084E+02 -0.81155582113E+02  0.20359583804E+03  0.17300000000E+03 0. -1.
         -6    1    1    2    0  503 -0.34561492191E+02 -0.61168129084E+02 -0.17875188666E+03  0.25849037457E+03  0.17300000000E+03 0. -1.
<mgrwt>
<rscale>  2 0.18672182E+03</rscale>
<asrwt>0</asrwt>
<pdfrwt beam="1">  1       21 0.15552211E-01 0.18672182E+03</pdfrwt>
<pdfrwt beam="2">  1       21 0.55537976E-01 0.18672182E+03</pdfrwt>
<totfact> 0.11245993E+05</totfact>
</mgrwt>
</event>
<event>
 4    1  0.3883260E+000  0.2696936E+03  0.7546771E-02  0.1101455E+00
         21   -1    0    0  503  502  0.00000000000E+00  0.00000000000E+00  0.33056951222E+02  0.33056951222E+02  0.00000000000E+00 0.  1.
         21   -1    0    0  501  503 -0.00000000000E+00 -0.00000000000E+00 -0.24788239620E+04  0.24788239620E+04  0.00000000000E+00 0. -1.
          6    1    1    2  501    0  0.20551710337E+03  0.23839963715E+02 -0.16438924403E+04  0.16658682358E+04  0.17300000000E+03 0. -1.
         -6    1    1    2    0  502 -0.20551710337E+03 -0.23839963715E+02 -0.80187457052E+03  0.84601267750E+03  0.17300000000E+03 0.  1.
<mgrwt>
<rscale>  2 0.26969357E+03</rscale>
<asrwt>0</asrwt>
<pdfrwt beam="1">  1       21 0.50856839E-02 0.26969357E+03</pdfrwt>
<pdfrwt beam="2">  1       21 0.38135760E+00 0.26969357E+03</pdfrwt>
<totfact> 0.27086733E+03</totfact>
</mgrwt>
</event>
<event>
 4    1  0.3883260E+000  0.2718979E+03  0.7546771E-02  0.1100198E+00
         21   -1    0    0  501  502  0.00000000000E+00  0.00000000000E+00  0.13333014209E+03  0.13333014209E+03  0.00000000000E+00 0.  1.
         21   -1    0    0  502  503 -0.00000000000E+00 -0.00000000000E+00 -0.59667843777E+03  0.59667843777E+03  0.00000000000E+00 0.  1.
          6    1    1    2  501    0 -0.20867765280E+03 -0.21286270085E+02 -0.13460246820E+03  0.30339131912E+03  0.17300000000E+03 0.  1.
         -6    1    1    2    0  503  0.20867765280E+03  0.21286270085E+02 -0.32874582749E+03  0.42661726074E+03  0.17300000000E+03 0.  1.
<mgrwt>
<rscale>  2 0.27189790E+03</rscale>
<asrwt>0</asrwt>
<pdfrwt beam="1">  1       21 0.20512329E-01 0.27189790E+03</pdfrwt>
<pdfrwt beam="2">  1       21 0.91796684E-01 0.27189790E+03</pdfrwt>
<totfact> 0.21188317E+04</totfact>
</mgrwt>
</event>
<event>
 4    1  0.3883260E+000  0.2003506E+03  0.7546771E-02  0.1149444E+00
         21   -1    0    0  501  502  0.00000000000E+00  0.00000000000E+00  0.22103346938E+03  0.22103346938E+03  0.00000000000E+00 0. -1.
         21   -1    0    0  502  503 -0.00000000000E+00 -0.00000000000E+00 -0.57907783910E+03  0.57907783910E+03  0.00000000000E+00 0.  1.
          6    1    1    2  501    0 -0.31830724308E+02  0.95907061969E+02  0.15241918557E+03  0.25173789480E+03  0.17300000000E+03 0. -1.
         -6    1    1    2    0  503  0.31830724308E+02 -0.95907061969E+02 -0.51046355530E+03  0.54837341368E+03  0.17300000000E+03 0.  1.
<mgrwt>
<rscale>  2 0.20035059E+03</rscale>
<asrwt>0</asrwt>
<pdfrwt beam="1">  1       21 0.34005150E-01 0.20035059E+03</pdfrwt>
<pdfrwt beam="2">  1       21 0.89088896E-01 0.20035059E+03</pdfrwt>
<totfact> 0.89128007E+03</totfact>
</mgrwt>
</event>
<event>
 4    1  0.3883260E+000  0.3101662E+03  0.7546771E-02  0.1080266E+00
         21   -1    0    0  503  502  0.00000000000E+00  0.00000000000E+00  0.34586368562E+03  0.34586368562E+03  0.00000000000E+00 0.  1.
         21   -1    0    0  501  503 -0.00000000000E+00 -0.00000000000E+00 -0.43598084636E+03  0.43598084636E+03  0.00000000000E+00 0. -1.
          6    1    1    2  501    0  0.19325441710E+03  0.17007878731E+03 -0.28026455591E+03  0.41803263619E+03  0.17300000000E+03 0. -1.
         -6    1    1    2    0  502 -0.19325441710E+03 -0.17007878731E+03  0.19014739518E+03  0.36381189578E+03  0.17300000000E+03 0.  1.
<mgrwt>
<rscale>  2 0.31016619E+03</rscale>
<asrwt>0</asrwt>
<pdfrwt beam="1">  1       21 0.53209798E-01 0.31016619E+03</pdfrwt>
<pdfrwt beam="2">  1       21 0.67073976E-01 0.31016619E+03</pdfrwt>
<totfact> 0.63458548E+03</totfact>
</mgrwt>
</event>
<event>
 4    1  0.3883260E+000  0.2114405E+03  0.7546771E-02  0.1140430E+00
         21   -1    0    0  501  502  0.00000000000E+00  0.00000000000E+00  0.42621982016E+03  0.42621982016E+03  0.00000000000E+00 0.  1.
         21   -1    0    0  502  503 -0.00000000000E+00 -0.00000000000E+00 -0.13128749626E+03  0.13128749626E+03  0.00000000000E+00 0.  1.
          6    1    1    2  501    0  0.70337495241E+02 -0.99149979054E+02  0.27245556291E+03  0.34487550703E+03  0.17300000000E+03 0.  1.
         -6    1    1    2    0  503 -0.70337495241E+02  0.99149979054E+02  0.22476760985E+02  0.21263180940E+03  0.17300000000E+03 0.  1.
<mgrwt>
<rscale>  2 0.21144049E+03</rscale>
<asrwt>0</asrwt>
<pdfrwt beam="1">  1       21 0.65572279E-01 0.21144049E+03</pdfrwt>
<pdfrwt beam="2">  1       21 0.20198077E-01 0.21144049E+03</pdfrwt>
<totfact> 0.48011587E+04</totfact>
</mgrwt>
</event>
<event>
 4    1  0.3883260E+000  0.1889695E+03  0.7546771E-02  0.1159394E+00
         21   -1    0    0  503  502  0.00000000000E+00  0.00000000000E+00  0.42434335374E+02  0.42434335374E+02  0.00000000000E+00 0.  1.
         21   -1    0    0  501  503 -0.00000000000E+00 -0.00000000000E+00 -0.84564560048E+03  0.84564560048E+03  0.00000000000E+00 0.  1.
          6    1    1    2  501    0 -0.73377605556E+02  0.19905009485E+02 -0.43260816098E+03  0.47207976375E+03  0.17300000000E+03 0.  1.
         -6    1    1    2    0  502  0.73377605556E+02 -0.19905009485E+02 -0.37060310413E+03  0.41600017210E+03  0.17300000000E+03 0.  1.
<mgrwt>
<rscale>  2 0.18896953E+03</rscale>
<asrwt>0</asrwt>
<pdfrwt beam="1">  1       21 0.65283594E-02 0.18896953E+03</pdfrwt>
<pdfrwt beam="2">  1       21 0.13009932E+00 0.18896953E+03</pdfrwt>
<totfact> 0.73728268E+04</totfact>
</mgrwt>
</event>
<event>
 4    1  0.3883260E+000  0.2081030E+03  0.7546771E-02  0.1143077E+00
         21   -1    0    0  501  502  0.00000000000E+00  0.00000000000E+00  0.54206345172E+02  0.54206345172E+02  0.00000000000E+00 0. -1.
         21   -1    0    0  502  503 -0.00000000000E+00 -0.00000000000E+00 -0.92049051355E+03  0.92049051355E+03  0.00000000000E+00 0. -1.
          6    1    1    2  501    0  0.11191295182E+03 -0.29212492284E+02 -0.25603633376E+03  0.32994163528E+03  0.17300000000E+03 0. -1.
         -6    1    1    2    0  503 -0.11191295182E+03  0.29212492284E+02 -0.61024783462E+03  0.64475522344E+03  0.17300000000E+03 0. -1.
<mgrwt>
<rscale>  2 0.20810305E+03</rscale>
<asrwt>0</asrwt>
<pdfrwt beam="1">  1       21 0.83394377E-02 0.20810305E+03</pdfrwt>
<pdfrwt beam="2">  1       21 0.14161393E+00 0.20810305E+03</pdfrwt>
<totfact> 0.38425271E+04</totfact>
</mgrwt>
</event>
<event>
 4    1  0.3883260E+000  0.3026503E+03  0.7546771E-02  0.1083923E+00
         21   -1    0    0  503  502  0.00000000000E+00  0.00000000000E+00  0.27459744047E+03  0.27459744047E+03  0.00000000000E+00 0.  1.
         21   -1    0    0  501  503 -0.00000000000E+00 -0.00000000000E+00 -0.38894705526E+03  0.38894705526E+03  0.00000000000E+00 0.  1.
          6    1    1    2  501    0  0.34187138120E+02 -0.24596637637E+03 -0.18236298093E+03  0.35334611294E+03  0.17300000000E+03 0.  1.
         -6    1    1    2    0  502 -0.34187138120E+02  0.24596637637E+03  0.68013366142E+02  0.31019838280E+03  0.17300000000E+03 0.  1.
<mgrwt>
<rscale>  2 0.30265032E+03</rscale>
<asrwt>0</asrwt>
<pdfrwt beam="1">  1       21 0.42245760E-01 0.30265032E+03</pdfrwt>
<pdfrwt beam="2">  1       21 0.59838009E-01 0.30265032E+03</pdfrwt>
<totfact> 0.13254752E+04</totfact>
</mgrwt>
</event>
<event>
 4    1  0.3883260E+000  0.1929682E+03  0.7546771E-02  0.1155811E+00
         21   -1    0    0  501  502  0.00000000000E+00  0.00000000000E+00  0.15523700958E+03  0.15523700958E+03  0.00000000000E+00 0. -1.
         21   -1    0    0  502  503 -0.00000000000E+00 -0.00000000000E+00 -0.50678442570E+03  0.50678442570E+03  0.00000000000E+00 0. -1.
          6    1    1    2  501    0 -0.18475371959E+02 -0.83464981462E+02  0.64450203415E+02  0.20344672821E+03  0.17300000000E+03 0. -1.
         -6    1    1    2    0  503  0.18475371959E+02  0.83464981462E+02 -0.41599761954E+03  0.45857470707E+03  0.17300000000E+03 0. -1.
<mgrwt>
<rscale>  2 0.19296824E+03</rscale>
<asrwt>0</asrwt>
<pdfrwt beam="1">  1       21 0.23882617E-01 0.19296824E+03</pdfrwt>
<pdfrwt beam="2">  1       21 0.77966836E-01 0.19296824E+03</pdfrwt>
<totfact> 0.24083233E+04</totfact>
</mgrwt>
</event>
<event>
 4    1  0.3883260E+000  0.2395072E+03  0.7546771E-02  0.1120122E+00
         21   -1    0    0  503  502  0.00000000000E+00  0.00000000000E+00  0.13749566141E+03  0.13749566141E+03  0.00000000000E+00 0. -1.
         21   -1    0    0  501  503 -0.00000000000E+00 -0.00000000000E+00 -0.42303133131E+03  0.42303133131E+03  0.00000000000E+00 0.  1.
          6    1    1    2  501    0 -0.13116368578E+03  0.10114731159E+03 -0.17566271848E+03  0.29702033899E+03  0.17300000000E+03 0. -1.
         -6    1    1    2    0  502  0.13116368578E+03 -0.10114731159E+03 -0.10987295142E+03  0.26350665373E+03  0.17300000000E+03 0.  1.
<mgrwt>
<rscale>  2 0.23950718E+03</rscale>
<asrwt>0</asrwt>
<pdfrwt beam="1">  1       21 0.21153179E-01 0.23950718E+03</pdfrwt>
<pdfrwt beam="2">  1       21 0.65081742E-01 0.23950718E+03</pdfrwt>
<totfact> 0.44181951E+04</totfact>
</mgrwt>
</event>
<event>
 4    1  0.3883260E+000  0.2220032E+03  0.7546771E-02  0.1132398E+00
         21   -1    0    0  503  502  0.00000000000E+00  0.00000000000E+00  0.14136928766E+03  0.14136928766E+03  0.00000000000E+00 0.  1.
         21   -1    0    0  501  503 -0.00000000000E+00 -0.00000000000E+00 -0.34870435690E+03  0.34870435690E+03  0.00000000000E+00 0.  1.
          6    1    1    2  501    0  0.13816288875E+03  0.16353872708E+02 -0.10726977334E+03  0.24656081857E+03  0.17300000000E+03 0.  1.
         -6    1    1    2    0  502 -0.13816288875E+03 -0.16353872708E+02 -0.10006529589E+03  0.24351282599E+03  0.17300000000E+03 0.  1.
<mgrwt>
<rscale>  2 0.22200323E+03</rscale>
<asrwt>0</asrwt>
<pdfrwt beam="1">  1       21 0.21749121E-01 0.22200323E+03</pdfrwt>
<pdfrwt beam="2">  1       21 0.53646824E-01 0.22200323E+03</pdfrwt>
<totfact> 0.64006529E+04</totfact>
</mgrwt>
</event>
<event>
 4    1  0.3883260E+000  0.1787158E+03  0.7546771E-02  0.1169052E+00
         21   -1    0    0  503  502  0.00000000000E+00  0.00000000000E+00  0.36506485311E+03  0.36506485311E+03  0.00000000000E+00 0.  1.
         21   -1    0    0  501  503 -0.00000000000E+00 -0.00000000000E+00 -0.11265069249E+03  0.11265069249E+03  0.00000000000E+00 0.  1.
          6    1    1    2  501    0 -0.42758181760E+02  0.13494105016E+02  0.13321678396E+02  0.17921166283E+03  0.17300000000E+03 0.  1.
         -6    1    1    2    0  502  0.42758181760E+02 -0.13494105016E+02  0.23909248222E+03  0.29850388277E+03  0.17300000000E+03 0.  1.
<mgrwt>
<rscale>  2 0.17871584E+03</rscale>
<asrwt>0</asrwt>
<pdfrwt beam="1">  1       21 0.56163823E-01 0.17871584E+03</pdfrwt>
<pdfrwt beam="2">  1       21 0.17330876E-01 0.17871584E+03</pdfrwt>
<totfact> 0.90336006E+04</totfact>
</mgrwt>
</event>
<event>
 4    1  0.3883260E+000  0.1934837E+03  0.7546771E-02  0.1155356E+00
         21   -1    0    0  503  502  0.00000000000E+00  0.00000000000E+00  0.26321226189E+03  0.26321226189E+03  0.00000000000E+00 0.  1.
         21   -1    0    0  501  503 -0.00000000000E+00 -0.00000000000E+00 -0.24474987879E+03  0.24474987879E+03  0.00000000000E+00 0. -1.
          6    1    1    2  501    0 -0.39585900156E+02 -0.77070854730E+02 -0.15514917373E+03  0.24800650445E+03  0.17300000000E+03 0. -1.
         -6    1    1    2    0  502  0.39585900156E+02  0.77070854730E+02  0.17361155684E+03  0.25995563623E+03  0.17300000000E+03 0.  1.
<mgrwt>
<rscale>  2 0.19348375E+03</rscale>
<asrwt>0</asrwt>
<pdfrwt beam="1">  1       21 0.40494194E-01 0.19348375E+03</pdfrwt>
<pdfrwt beam="2">  1       21 0.37653828E-01 0.19348375E+03</pdfrwt>
<totfact> 0.39954260E+04</totfact>
</mgrwt>
</event>
<event>
 4    1  0.3883260E+000  0.1756473E+03  0.7546771E-02  0.1172083E+00
         21   -1    0    0  501  502  0.00000000000E+00  0.00000000000E+00  0.83807013263E+02  0.83807013263E+02  0.00000000000E+00 0. -1.
         21   -1    0    0  502  503 -0.00000000000E+00 -0.00000000000E+00 -0.76628486378E+03  0.76628486378E+03  0.00000000000E+00 0. -1.
          6    1    1    2  501    0 -0.24259238507E+02  0.18288654409E+02 -0.34854950775E+02  0.17907220088E+03  0.17300000000E+03 0. -1.
         -6    1    1    2    0  503  0.24259238507E+02 -0.18288654409E+02 -0.64762289974E+03  0.67101967617E+03  0.17300000000E+03 0. -1.
<mgrwt>
<rscale>  2 0.17564733E+03</rscale>
<asrwt>0</asrwt>
<pdfrwt beam="1">  1       21 0.12893386E-01 0.17564733E+03</pdfrwt>
<pdfrwt beam="2">  1       21 0.11788998E+00 0.17564733E+03</pdfrwt>
<totfact> 0.28754246E+04</totfact>
</mgrwt>
</event>
<event>
 4    1  0.3883260E+000  0.1784709E+03  0.7546771E-02  0.1169291E+00
         21   -1    0    0  501  502  0.00000000000E+00  0.00000000000E+00  0.72692385829E+03  0.72692385829E+03  0.00000000000E+00 0.  1.
         21   -1    0    0  502  503 -0.00000000000E+00 -0.00000000000E+00 -0.43824837002E+02  0.43824837002E+02  0.00000000000E+00 0.  1.
          6    1    1    2  501    0  0.40780012225E+02 -0.16119958106E+02  0.33650566980E+03  0.38090409325E+03  0.17300000000E+03 0.  1.
         -6    1    1    2    0  503 -0.40780012225E+02  0.16119958106E+02  0.34659335148E+03  0.38984460204E+03  0.17300000000E+03 0.  1.
<mgrwt>
<rscale>  2 0.17847090E+03</rscale>
<asrwt>0</asrwt>
<pdfrwt beam="1">  1       21 0.11183443E+00 0.17847090E+03</pdfrwt>
<pdfrwt beam="2">  1       21 0.67422832E-02 0.17847090E+03</pdfrwt>
<totfact> 0.10186549E+05</totfact>
</mgrwt>
</event>
<event>
 4    1  0.3883260E+000  0.1915156E+03  0.7546771E-02  0.1157101E+00
         21   -1    0    0  501  502  0.00000000000E+00  0.00000000000E+00  0.12684599058E+03  0.12684599058E+03  0.00000000000E+00 0.  1.
         21   -1    0    0  502  503 -0.00000000000E+00 -0.00000000000E+00 -0.28960287138E+03  0.28960287138E+03  0.00000000000E+00 0.  1.
          6    1    1    2  501    0 -0.35924950418E+02 -0.73882436992E+02 -0.73194516817E+02  0.20502598335E+03  0.17300000000E+03 0.  1.
         -6    1    1    2    0  503  0.35924950418E+02  0.73882436992E+02 -0.89562363983E+02  0.21142287861E+03  0.17300000000E+03 0.  1.
<mgrwt>
<rscale>  2 0.19151558E+03</rscale>
<asrwt>0</asrwt>
<pdfrwt beam="1">  1       21 0.19514768E-01 0.19151558E+03</pdfrwt>
<pdfrwt beam="2">  1       21 0.44554288E-01 0.19151558E+03</pdfrwt>
<totfact> 0.11692770E+05</totfact>
</mgrwt>
</event>
<event>
 4    1  0.3883260E+000  0.2863406E+03  0.7546771E-02  0.1092275E+00
         21   -1    0    0  503  502  0.00000000000E+00  0.00000000000E+00  0.20696942842E+03  0.20696942842E+03  0.00000000000E+00 0. -1.
         21   -1    0    0  501  503 -0.00000000000E+00 -0.00000000000E+00 -0.88558974151E+03  0.88558974151E+03  0.00000000000E+00 0. -1.
          6    1    1    2  501    0 -0.12891739670E+03 -0.18826111824E+03 -0.74542446137E+03  0.79852900475E+03  0.17300000000E+03 0. -1.
         -6    1    1    2    0  502  0.12891739670E+03  0.18826111824E+03  0.66804148281E+02  0.29403016519E+03  0.17300000000E+03 0. -1.
<mgrwt>
<rscale>  2 0.28634061E+03</rscale>
<asrwt>0</asrwt>
<pdfrwt beam="1">  1       21 0.31841450E-01 0.28634061E+03</pdfrwt>
<pdfrwt beam="2">  1       21 0.13624458E+00 0.28634061E+03</pdfrwt>
<totfact> 0.34003126E+03</totfact>
</mgrwt>
</event>
<event>
 4    1  0.3883260E+000  0.1931037E+03  0.7546771E-02  0.1155691E+00
         21   -1    0    0  503  502  0.00000000000E+00  0.00000000000E+00  0.20371942605E+03  0.20371942605E+03  0.00000000000E+00 0.  1.
         21   -1    0    0  501  503 -0.00000000000E+00 -0.00000000000E+00 -0.21267632415E+03  0.21267632415E+03  0.00000000000E+00 0. -1.
          6    1    1    2  501    0 -0.42828502592E+02  0.74335385536E+02 -0.82196293006E+02  0.20986962801E+03  0.17300000000E+03 0. -1.
         -6    1    1    2    0  502  0.42828502592E+02 -0.74335385536E+02  0.73239394907E+02  0.20652612218E+03  0.17300000000E+03 0.  1.
<mgrwt>
<rscale>  2 0.19310368E+03</rscale>
<asrwt>0</asrwt>
<pdfrwt beam="1">  1       21 0.31341450E-01 0.19310368E+03</pdfrwt>
<pdfrwt beam="2">  1       21 0.32719435E-01 0.19310368E+03</pdfrwt>
<totfact> 0.87947303E+04</totfact>
</mgrwt>
</event>
<event>
 4    1  0.3883260E+000  0.3259783E+03  0.7546771E-02  0.1072930E+00
         21   -1    0    0  501  502  0.00000000000E+00  0.00000000000E+00  0.13879136710E+03  0.13879136710E+03  0.00000000000E+00 0. -1.
         21   -1    0    0  502  503 -0.00000000000E+00 -0.00000000000E+00 -0.93661582626E+03  0.93661582626E+03  0.00000000000E+00 0.  1.
          6    1    1    2  501    0 -0.12434733952E+03 -0.24671968848E+03 -0.16916455924E+03  0.36725810220E+03  0.17300000000E+03 0. -1.
         -6    1    1    2    0  503  0.12434733952E+03  0.24671968848E+03 -0.62865989992E+03  0.70814909116E+03  0.17300000000E+03 0.  1.
<mgrwt>
<rscale>  2 0.32597832E+03</rscale>
<asrwt>0</asrwt>
<pdfrwt beam="1">  1       21 0.21352517E-01 0.32597832E+03</pdfrwt>
<pdfrwt beam="2">  1       21 0.14409475E+00 0.32597832E+03</pdfrwt>
<totfact> 0.62381968E+03</totfact>
</mgrwt>
</event>
<event>
 4    1  0.3883260E+000  0.1802755E+03  0.7546771E-02  0.1167537E+00
         21   -1    0    0  501  502  0.00000000000E+00  0.00000000000E+00  0.77743941373E+03  0.77743941373E+03  0.00000000000E+00 0. -1.
         21   -1    0    0  502  503 -0.00000000000E+00 -0.00000000000E+00 -0.41837219550E+02  0.41837219550E+02  0.00000000000E+00 0. -1.
          6    1    1    2  501    0 -0.11334572113E+02  0.49414445506E+02  0.35607694509E+03  0.39911157685E+03  0.17300000000E+03 0.  1.
         -6    1    1    2    0  503  0.11334572113E+02 -0.49414445506E+02  0.37952524909E+03  0.42016505643E+03  0.17300000000E+03 0.  1.
<mgrwt>
<rscale>  2 0.18027551E+03</rscale>
<asrwt>0</asrwt>
<pdfrwt beam="1">  1       21 0.11960605E+00 0.18027551E+03</pdfrwt>
<pdfrwt beam="2">  1       21 0.64364959E-02 0.18027551E+03</pdfrwt>
<totfact> 0.93576966E+04</totfact>
</mgrwt>
</event>
<event>
 4    1  0.3883260E+000  0.2319240E+03  0.7546771E-02  0.1125293E+00
         21   -1    0    0  501  502  0.00000000000E+00  0.00000000000E+00  0.10968986297E+03  0.10968986297E+03  0.00000000000E+00 0.  1.
         21   -1    0    0  502  503 -0.00000000000E+00 -0.00000000000E+00 -0.50204783700E+03  0.50204783700E+03  0.00000000000E+00 0.  1.
          6    1    1    2  501    0  0.15195771444E+03  0.27723231365E+02 -0.14953175683E+03  0.27595012382E+03  0.17300000000E+03 0.  1.
         -6    1    1    2    0  503 -0.15195771444E+03 -0.27723231365E+02 -0.24282621720E+03  0.33578757615E+03  0.17300000000E+03 0.  1.
<mgrwt>
<rscale>  2 0.23192396E+03</rscale>
<asrwt>0</asrwt>
<pdfrwt beam="1">  1       21 0.16875364E-01 0.23192396E+03</pdfrwt>
<pdfrwt beam="2">  1       21 0.77238127E-01 0.23192396E+03</pdfrwt>
<totfact> 0.46192508E+04</totfact>
</mgrwt>
</event>
<event>
 4    1  0.3883260E+000  0.2507100E+03  0.7546771E-02  0.1112857E+00
         21   -1    0    0  503  502  0.00000000000E+00  0.00000000000E+00  0.40654156423E+03  0.40654156423E+03  0.00000000000E+00 0. -1.
         21   -1    0    0  501  503 -0.00000000000E+00 -0.00000000000E+00 -0.60864844759E+03  0.60864844759E+03  0.00000000000E+00 0. -1.
          6    1    1    2  501    0 -0.93728587082E+02  0.15537520509E+03 -0.53946325371E+03  0.59487486457E+03  0.17300000000E+03 0. -1.
         -6    1    1    2    0  502  0.93728587082E+02 -0.15537520509E+03  0.33735637035E+03  0.42031514725E+03  0.17300000000E+03 0. -1.
<mgrwt>
<rscale>  2 0.25071000E+03</rscale>
<asrwt>0</asrwt>
<pdfrwt beam="1">  1       21 0.62544856E-01 0.25071000E+03</pdfrwt>
<pdfrwt beam="2">  1       21 0.93638223E-01 0.25071000E+03</pdfrwt>
<totfact> 0.21667900E+03</totfact>
</mgrwt>
</event>
<event>
 4    1  0.3883260E+000  0.1749464E+03  0.7546771E-02  0.1172786E+00
         21   -1    0    0  501  502  0.00000000000E+00  0.00000000000E+00  0.16877690207E+04  0.16877690207E+04  0.00000000000E+00 0. -1.
         21   -1    0    0  502  503 -0.00000000000E+00 -0.00000000000E+00 -0.26203633487E+02  0.26203633487E+02  0.00000000000E+00 0. -1.
          6    1    1    2  501    0 -0.25859193889E+02 -0.29217185084E+01  0.13063547823E+04  0.13180170908E+04  0.17300000000E+03 0. -1.
         -6    1    1    2    0  503  0.25859193889E+02  0.29217185084E+01  0.35521060487E+03  0.39595556337E+03  0.17300000000E+03 0. -1.
<mgrwt>
<rscale>  2 0.17494638E+03</rscale>
<asrwt>0</asrwt>
<pdfrwt beam="1">  1       21 0.25965669E+00 0.17494638E+03</pdfrwt>
<pdfrwt beam="2">  1       21 0.40313296E-02 0.17494638E+03</pdfrwt>
<totfact> 0.22946112E+04</totfact>
</mgrwt>
</event>
<event>
 4    1  0.3883260E+000  0.1890086E+03  0.7546771E-02  0.1159359E+00
         21   -1    0    0  501  502  0.00000000000E+00  0.00000000000E+00  0.63040359375E+03  0.63040359375E+03  0.00000000000E+00 0. -1.
         21   -1    0    0  502  503 -0.00000000000E+00 -0.00000000000E+00 -0.61211152049E+02  0.61211152049E+02  0.00000000000E+00 0. -1.
          6    1    1    2  501    0 -0.74463486158E+02 -0.15825367665E+02  0.37879743408E+03  0.42333408686E+03  0.17300000000E+03 0. -1.
         -6    1    1    2    0  503  0.74463486158E+02  0.15825367665E+02  0.19039500762E+03  0.26828065893E+03  0.17300000000E+03 0. -1.
<mgrwt>
<rscale>  2 0.18900861E+03</rscale>
<asrwt>0</asrwt>
<pdfrwt beam="1">  1       21 0.96985164E-01 0.18900861E+03</pdfrwt>
<pdfrwt beam="2">  1       21 0.94171007E-02 0.18900861E+03</pdfrwt>
<totfact> 0.79733587E+04</totfact>
</mgrwt>
</event>
<event>
 4    1  0.3883260E+000  0.2900276E+03  0.7546771E-02  0.1090335E+00
         21   -1    0    0  501  502  0.00000000000E+00  0.00000000000E+00  0.57626790671E+03  0.57626790671E+03  0.00000000000E+00 0.  1.
         21   -1    0    0  502  503 -0.00000000000E+00 -0.00000000000E+00 -0.27105390885E+03  0.27105390885E+03  0.00000000000E+00 0. -1.
          6    1    1    2  501    0  0.12973498867E+02 -0.23241927415E+03  0.44041090692E+03  0.52733082368E+03  0.17300000000E+03 0.  1.
         -6    1    1    2    0  503 -0.12973498867E+02  0.23241927415E+03 -0.13519690906E+03  0.31999099188E+03  0.17300000000E+03 0. -1.
<mgrwt>
<rscale>  2 0.29002764E+03</rscale>
<asrwt>0</asrwt>
<pdfrwt beam="1">  1       21 0.88656601E-01 0.29002764E+03</pdfrwt>
<pdfrwt beam="2">  1       21 0.41700601E-01 0.29002764E+03</pdfrwt>
<totfact> 0.56589833E+03</totfact>
</mgrwt>
</event>
<event>
 4    1  0.3883260E+000  0.3292083E+03  0.7546771E-02  0.1071488E+00
         21   -1    0    0  501  502  0.00000000000E+00  0.00000000000E+00  0.33723724893E+03  0.33723724893E+03  0.00000000000E+00 0.  1.
         21   -1    0    0  502  503 -0.00000000000E+00 -0.00000000000E+00 -0.79981728229E+03  0.79981728229E+03  0.00000000000E+00 0. -1.
          6    1    1    2  501    0 -0.90136449056E+02 -0.26518771799E+03  0.20842644237E+03  0.38964045876E+03  0.17300000000E+03 0.  1.
         -6    1    1    2    0  503  0.90136449056E+02  0.26518771799E+03 -0.67100647573E+03  0.74741407245E+03  0.17300000000E+03 0. -1.
<mgrwt>
<rscale>  2 0.32920830E+03</rscale>
<asrwt>0</asrwt>
<pdfrwt beam="1">  1       21 0.51882654E-01 0.32920830E+03</pdfrwt>
<pdfrwt beam="2">  1       21 0.12304881E+00 0.32920830E+03</pdfrwt>
<totfact> 0.15838760E+03</totfact>
</mgrwt>
</event>
<event>
 4    1  0.3883260E+000  0.1911627E+03  0.7546771E-02  0.1157417E+00
         21   -1    0    0  501  502  0.00000000000E+00  0.00000000000E+00  0.62634642769E+03  0.62634642769E+03  0.00000000000E+00 0.  1.
         21   -1    0    0  502  503 -0.00000000000E+00 -0.00000000000E+00 -0.24450542356E+03  0.24450542356E+03  0.00000000000E+00 0.  1.
          6    1    1    2  501    0 -0.46113031902E+02 -0.66990706286E+02  0.57086101643E+03  0.60201782907E+03  0.17300000000E+03 0.  1.
         -6    1    1    2    0  503  0.46113031902E+02  0.66990706286E+02 -0.18902001229E+03  0.26883402219E+03  0.17300000000E+03 0.  1.
<mgrwt>
<rscale>  2 0.19116267E+03</rscale>
<asrwt>0</asrwt>
<pdfrwt beam="1">  1       21 0.96360988E-01 0.19116267E+03</pdfrwt>
<pdfrwt beam="2">  1       21 0.37616219E-01 0.19116267E+03</pdfrwt>
<totfact> 0.61139435E+03</totfact>
</mgrwt>
</event>
<event>
 4    1  0.3883260E+000  0.1950014E+03  0.7546771E-02  0.1154026E+00
         21   -1    0    0  501  502  0.00000000000E+00  0.00000000000E+00  0.14559856196E+03  0.14559856196E+03  0.00000000000E+00 0.  1.
         21   -1    0    0  502  503 -0.00000000000E+00 -0.00000000000E+00 -0.44134322467E+03  0.44134322467E+03  0.00000000000E+00 0.  1.
          6    1    1    2  501    0 -0.13110773090E+02 -0.89020459754E+02  0.39638165625E+02  0.19898924293E+03  0.17300000000E+03 0.  1.
         -6    1    1    2    0  503  0.13110773090E+02  0.89020459754E+02 -0.33538282834E+03  0.38795254371E+03  0.17300000000E+03 0.  1.
<mgrwt>
<rscale>  2 0.19500137E+03</rscale>
<asrwt>0</asrwt>
<pdfrwt beam="1">  1       21 0.22399779E-01 0.19500137E+03</pdfrwt>
<pdfrwt beam="2">  1       21 0.67898956E-01 0.19500137E+03</pdfrwt>
<totfact> 0.36923829E+04</totfact>
</mgrwt>
</event>
<event>
 4    1  0.3883260E+000  0.2067221E+03  0.7546771E-02  0.1144188E+00
         21   -1    0    0  501  502  0.00000000000E+00  0.00000000000E+00  0.76726605641E+02  0.76726605641E+02  0.00000000000E+00 0.  1.
         21   -1    0    0  502  503 -0.00000000000E+00 -0.00000000000E+00 -0.83065097097E+03  0.83065097097E+03  0.00000000000E+00 0.  1.
          6    1    1    2  501    0  0.10356352225E+03 -0.45602834722E+02 -0.11654169184E+03  0.23730989784E+03  0.17300000000E+03 0.  1.
         -6    1    1    2    0  503 -0.10356352225E+03  0.45602834722E+02 -0.63738267348E+03  0.67006767877E+03  0.17300000000E+03 0.  1.
<mgrwt>
<rscale>  2 0.20672209E+03</rscale>
<asrwt>0</asrwt>
<pdfrwt beam="1">  1       21 0.11804093E-01 0.20672209E+03</pdfrwt>
<pdfrwt beam="2">  1       21 0.12779246E+00 0.20672209E+03</pdfrwt>
<totfact> 0.27042378E+04</totfact>
</mgrwt>
</event>
<event>
 4    1  0.3883260E+000  0.1983996E+03  0.7546771E-02  0.1151096E+00
         21   -1    0    0  501  502  0.00000000000E+00  0.00000000000E+00  0.15363441896E+03  0.15363441896E+03  0.00000000000E+00 0. -1.
         21   -1    0    0  502  503 -0.00000000000E+00 -0.00000000000E+00 -0.25747476845E+03  0.25747476845E+03  0.00000000000E+00 0.  1.
          6    1    1    2  501    0 -0.86392189073E+02 -0.44382483922E+02 -0.37503838452E+02  0.20191323164E+03  0.17300000000E+03 0.  1.
         -6    1    1    2    0  503  0.86392189073E+02  0.44382483922E+02 -0.66336511036E+02  0.20919595577E+03  0.17300000000E+03 0. -1.
<mgrwt>
<rscale>  2 0.19839964E+03</rscale>
<asrwt>0</asrwt>
<pdfrwt beam="1">  1       21 0.23636065E-01 0.19839964E+03</pdfrwt>
<pdfrwt beam="2">  1       21 0.39611503E-01 0.19839964E+03</pdfrwt>
<totfact> 0.10330500E+05</totfact>
</mgrwt>
</event>
<event>
 4    1  0.3883260E+000  0.3667643E+03  0.7546771E-02  0.1055937E+00
         21   -1    0    0  501  502  0.00000000000E+00  0.00000000000E+00  0.80836062922E+03  0.80836062922E+03  0.00000000000E+00 0.  1.
         21   -1    0    0  502  503 -0.00000000000E+00 -0.00000000000E+00 -0.19340768726E+03  0.19340768726E+03  0.00000000000E+00 0. -1.
          6    1    1    2  501    0  0.27118880553E+03 -0.17619216422E+03  0.49462912924E+03  0.61577107960E+03  0.17300000000E+03 0.  1.
         -6    1    1    2    0  503 -0.27118880553E+03  0.17619216422E+03  0.12032381272E+03  0.38599723688E+03  0.17300000000E+03 0. -1.
<mgrwt>
<rscale>  2 0.36676429E+03</rscale>
<asrwt>0</asrwt>
<pdfrwt beam="1">  1       21 0.12436317E+00 0.36676429E+03</pdfrwt>
<pdfrwt beam="2">  1       21 0.29755029E-01 0.36676429E+03</pdfrwt>
<totfact> 0.47204703E+03</totfact>
</mgrwt>
</event>
<event>
 4    1  0.3883260E+000  0.2190682E+03  0.7546771E-02  0.1134580E+00
         21   -1    0    0  501  502  0.00000000000E+00  0.00000000000E+00  0.40237898303E+02  0.40237898303E+02  0.00000000000E+00 0.  1.
         21   -1    0    0  502  503 -0.00000000000E+00 -0.00000000000E+00 -0.12025456539E+04  0.12025456539E+04  0.00000000000E+00 0.  1.
          6    1    1    2  501    0  0.55010779958E+02  0.12262006113E+03 -0.52486577374E+03  0.56874857867E+03  0.17300000000E+03 0.  1.
         -6    1    1    2    0  503 -0.55010779958E+02 -0.12262006113E+03 -0.63744198186E+03  0.67403497353E+03  0.17300000000E+03 0.  1.
<mgrwt>
<rscale>  2 0.21906818E+03</rscale>
<asrwt>0</asrwt>
<pdfrwt beam="1">  1       21 0.61904453E-02 0.21906818E+03</pdfrwt>
<pdfrwt beam="2">  1       21 0.18500704E+00 0.21906818E+03</pdfrwt>
<totfact> 0.30918975E+04</totfact>
</mgrwt>
</event>
<event>
 4    1  0.3883260E+000  0.2116142E+03  0.7546771E-02  0.1140294E+00
         21   -1    0    0  501  502  0.00000000000E+00  0.00000000000E+00  0.26259934287E+03  0.26259934287E+03  0.00000000000E+00 0. -1.
         21   -1    0    0  502  503 -0.00000000000E+00 -0.00000000000E+00 -0.95474384194E+03  0.95474384194E+03  0.00000000000E+00 0. -1.
          6    1    1    2  501    0  0.86093243498E+02 -0.86252685060E+02  0.20556981164E+03  0.29502460866E+03  0.17300000000E+03 0. -1.
         -6    1    1    2    0  503 -0.86093243498E+02  0.86252685060E+02 -0.89771431071E+03  0.92231857615E+03  0.17300000000E+03 0. -1.
<mgrwt>
<rscale>  2 0.21161421E+03</rscale>
<asrwt>0</asrwt>
<pdfrwt beam="1">  1       21 0.40399899E-01 0.21161421E+03</pdfrwt>
<pdfrwt beam="2">  1       21 0.14688367E+00 0.21161421E+03</pdfrwt>
<totfact> 0.18315902E+03</totfact>
</mgrwt>
</event>
<event>
 4    1  0.3883260E+000  0.2280715E+03  0.7546771E-02  0.1128005E+00
         21   -1    0    0  503  502  0.00000000000E+00  0.00000000000E+00  0.13212063029E+03  0.13212063029E+03  0.00000000000E+00 0.  1.
         21   -1    0    0  501  503 -0.00000000000E+00 -0.00000000000E+00 -0.15463203604E+04  0.15463203604E+04  0.00000000000E+00 0.  1.
          6    1    1    2  501    0 -0.62854059826E+02 -0.13467364886E+03 -0.14316500031E+04  0.14497028509E+04  0.17300000000E+03 0.  1.
         -6    1    1    2    0  502  0.62854059826E+02  0.13467364886E+03  0.17450273056E+02  0.22873813972E+03  0.17300000000E+03 0.  1.
<mgrwt>
<rscale>  2 0.22807153E+03</rscale>
<asrwt>0</asrwt>
<pdfrwt beam="1">  1       21 0.20326250E-01 0.22807153E+03</pdfrwt>
<pdfrwt beam="2">  1       21 0.23789545E+00 0.22807153E+03</pdfrwt>
<totfact> 0.16910428E+03</totfact>
</mgrwt>
</event>
<event>
 4    1  0.3883260E+000  0.1875083E+03  0.7546771E-02  0.1160728E+00
         21   -1    0    0  503  502  0.00000000000E+00  0.00000000000E+00  0.16203147353E+03  0.16203147353E+03  0.00000000000E+00 0.  1.
         21   -1    0    0  501  503 -0.00000000000E+00 -0.00000000000E+00 -0.22982542060E+03  0.22982542060E+03  0.00000000000E+00 0.  1.
          6    1    1    2  501    0  0.59585500884E+02 -0.40986769185E+02 -0.80197841940E+02  0.20393881684E+03  0.17300000000E+03 0.  1.
         -6    1    1    2    0  502 -0.59585500884E+02  0.40986769185E+02  0.12403894877E+02  0.18791807729E+03  0.17300000000E+03 0.  1.
<mgrwt>
<rscale>  2 0.18750826E+03</rscale>
<asrwt>0</asrwt>
<pdfrwt beam="1">  1       21 0.24927919E-01 0.18750826E+03</pdfrwt>
<pdfrwt beam="2">  1       21 0.35357757E-01 0.18750826E+03</pdfrwt>
<totfact> 0.11767202E+05</totfact>
</mgrwt>
</event>
<event>
 4    1  0.3883260E+000  0.1986283E+03  0.7546771E-02  0.1150901E+00
         21   -1    0    0  503  502  0.00000000000E+00  0.00000000000E+00  0.65085970012E+03  0.65085970012E+03  0.00000000000E+00 0. -1.
         21   -1    0    0  501  503 -0.00000000000E+00 -0.00000000000E+00 -0.60793445166E+02  0.60793445166E+02  0.00000000000E+00 0.  1.
          6    1    1    2  501    0 -0.94900615784E+02 -0.22761333855E+02  0.31419923969E+03  0.37171812899E+03  0.17300000000E+03 0. -1.
         -6    1    1    2    0  502  0.94900615784E+02  0.22761333855E+02  0.27586701526E+03  0.33993501629E+03  0.17300000000E+03 0. -1.
<mgrwt>
<rscale>  2 0.19862831E+03</rscale>
<asrwt>0</asrwt>
<pdfrwt beam="1">  1       21 0.10013226E+00 0.19862831E+03</pdfrwt>
<pdfrwt beam="2">  1       21 0.93528382E-02 0.19862831E+03</pdfrwt>
<totfact> 0.74513046E+04</totfact>
</mgrwt>
</event>
<event>
 4    1  0.3883260E+000  0.2288217E+03  0.7546771E-02  0.1127472E+00
         21   -1    0    0  503  502  0.00000000000E+00  0.00000000000E+00  0.19726966762E+03  0.19726966762E+03  0.00000000000E+00 0.  1.
         21   -1    0    0  501  503 -0.00000000000E+00 -0.00000000000E+00 -0.39550481049E+03  0.39550481049E+03  0.00000000000E+00 0.  1.
          6    1    1    2  501    0 -0.14895752650E+03  0.15556967232E+02 -0.26909705205E+03  0.35323163413E+03  0.17300000000E+03 0.  1.
         -6    1    1    2    0  502  0.14895752650E+03 -0.15556967232E+02  0.70861909179E+02  0.23954284398E+03  0.17300000000E+03 0.  1.
<mgrwt>
<rscale>  2 0.22882169E+03</rscale>
<asrwt>0</asrwt>
<pdfrwt beam="1">  1       21 0.30349180E-01 0.22882169E+03</pdfrwt>
<pdfrwt beam="2">  1       21 0.60846893E-01 0.22882169E+03</pdfrwt>
<totfact> 0.25684133E+04</totfact>
</mgrwt>
</event>
<event>
 4    1  0.3883260E+000  0.2067750E+03  0.7546771E-02  0.1144146E+00
         21   -1    0    0  503  502  0.00000000000E+00  0.00000000000E+00  0.69797543596E+03  0.69797543596E+03  0.00000000000E+00 0. -1.
         21   -1    0    0  501  503 -0.00000000000E+00 -0.00000000000E+00 -0.61437083127E+02  0.61437083127E+02  0.00000000000E+00 0. -1.
          6    1    1    2  501    0 -0.84204367824E+02  0.75739917934E+02  0.33882420536E+03  0.39693545176E+03  0.17300000000E+03 0. -1.
         -6    1    1    2    0  502  0.84204367824E+02 -0.75739917934E+02  0.29771414748E+03  0.36247706733E+03  0.17300000000E+03 0. -1.
<mgrwt>
<rscale>  2 0.20677502E+03</rscale>
<asrwt>0</asrwt>
<pdfrwt beam="1">  1       21 0.10738083E+00 0.20677502E+03</pdfrwt>
<pdfrwt beam="2">  1       21 0.94518594E-02 0.20677502E+03</pdfrwt>
<totfact> 0.61612411E+04</totfact>
</mgrwt>
</event>
<event>
 4    1  0.3883260E+000  0.1863127E+03  0.7546771E-02  0.1161830E+00
         21   -1    0    0  501  502  0.00000000000E+00  0.00000000000E+00  0.81837074140E+03  0.81837074140E+03  0.00000000000E+00 0. -1.
         21   -1    0    0  502  503 -0.00000000000E+00 -0.00000000000E+00 -0.60808015711E+02  0.60808015711E+02  0.00000000000E+00 0.  1.
          6    1    1    2  501    0  0.43988492901E+02 -0.53370789148E+02  0.62053635334E+03  0.64790261186E+03  0.17300000000E+03 0. -1.
         -6    1    1    2    0  503 -0.43988492901E+02  0.53370789148E+02  0.13702637235E+03  0.23127614525E+03  0.17300000000E+03 0.  1.
<mgrwt>
<rscale>  2 0.18631272E+03</rscale>
<asrwt>0</asrwt>
<pdfrwt beam="1">  1       21 0.12590318E+00 0.18631272E+03</pdfrwt>
<pdfrwt beam="2">  1       21 0.93550799E-02 0.18631272E+03</pdfrwt>
<totfact> 0.42904218E+04</totfact>
</mgrwt>
</event>
<event>
 4    1  0.3883260E+000  0.2229455E+03  0.7546771E-02  0.1131706E+00
         21   -1    0    0  503  502  0.00000000000E+00  0.00000000000E+00  0.16010688687E+03  0.16010688687E+03  0.00000000000E+00 0. -1.
         21   -1    0    0  501  503 -0.00000000000E+00 -0.00000000000E+00 -0.42548246489E+03  0.42548246489E+03  0.00000000000E+00 0.  1.
          6    1    1    2  501    0  0.46943988113E+02 -0.13255930371E+03 -0.28493108135E+03  0.36178782199E+03  0.17300000000E+03 0. -1.
         -6    1    1    2    0  502 -0.46943988113E+02  0.13255930371E+03  0.19555503324E+02  0.22380152978E+03  0.17300000000E+03 0. -1.
<mgrwt>
<rscale>  2 0.22294552E+03</rscale>
<asrwt>0</asrwt>
<pdfrwt beam="1">  1       21 0.24631829E-01 0.22294552E+03</pdfrwt>
<pdfrwt beam="2">  1       21 0.65458841E-01 0.22294552E+03</pdfrwt>
<totfact> 0.32917159E+04</totfact>
</mgrwt>
</event>
<event>
 4    1  0.3883260E+000  0.2157725E+03  0.7546771E-02  0.1137075E+00
         21   -1    0    0  503  502  0.00000000000E+00  0.00000000000E+00  0.17480598268E+03  0.17480598268E+03  0.00000000000E+00 0.  1.
         21   -1    0    0  501  503 -0.00000000000E+00 -0.00000000000E+00 -0.80748023770E+03  0.80748023770E+03  0.00000000000E+00 0. -1.
          6    1    1    2  501    0 -0.76399808445E+02 -0.10388385643E+03 -0.71840290478E+03  0.75010700567E+03  0.17300000000E+03 0. -1.
         -6    1    1    2    0  502  0.76399808445E+02  0.10388385643E+03  0.85728649758E+02  0.23217921472E+03  0.17300000000E+03 0.  1.
<mgrwt>
<rscale>  2 0.21577253E+03</rscale>
<asrwt>0</asrwt>
<pdfrwt beam="1">  1       21 0.26893228E-01 0.21577253E+03</pdfrwt>
<pdfrwt beam="2">  1       21 0.12422773E+00 0.21577253E+03</pdfrwt>
<totfact> 0.62687218E+03</totfact>
</mgrwt>
</event>
<event>
 4    1  0.3883260E+000  0.2278176E+03  0.7546771E-02  0.1128185E+00
         21   -1    0    0  501  502  0.00000000000E+00  0.00000000000E+00  0.56188467191E+03  0.56188467191E+03  0.00000000000E+00 0.  1.
         21   -1    0    0  502  503 -0.00000000000E+00 -0.00000000000E+00 -0.10850223516E+03  0.10850223516E+03  0.00000000000E+00 0.  1.
          6    1    1    2  501    0 -0.44232635064E+02  0.14147556344E+03  0.35594214485E+03  0.42260581106E+03  0.17300000000E+03 0.  1.
         -6    1    1    2    0  503  0.44232635064E+02 -0.14147556344E+03  0.97440291894E+02  0.24778109601E+03  0.17300000000E+03 0.  1.
<mgrwt>
<rscale>  2 0.22781760E+03</rscale>
<asrwt>0</asrwt>
<pdfrwt beam="1">  1       21 0.86443794E-01 0.22781760E+03</pdfrwt>
<pdfrwt beam="2">  1       21 0.16692652E-01 0.22781760E+03</pdfrwt>
<totfact> 0.36524206E+04</totfact>
</mgrwt>
</event>
<event>
 4    1  0.3883260E+000  0.1889539E+03  0.7546771E-02  0.1159408E+00
         21   -1    0    0  503  502  0.00000000000E+00  0.00000000000E+00  0.11852757066E+04  0.11852757066E+04  0.00000000000E+00 0. -1.
         21   -1    0    0  501  503 -0.00000000000E+00 -0.00000000000E+00 -0.88043556233E+02  0.88043556233E+02  0.00000000000E+00 0. -1.
          6    1    1    2  501    0  0.53590546395E+02  0.53876119434E+02  0.32227771584E+02  0.19168258181E+03  0.17300000000E+03 0. -1.
         -6    1    1    2    0  502 -0.53590546395E+02 -0.53876119434E+02  0.10650043788E+04  0.10816366811E+04  0.17300000000E+03 0. -1.
<mgrwt>
<rscale>  2 0.18895392E+03</rscale>
<asrwt>0</asrwt>
<pdfrwt beam="1">  1       21 0.18235010E+00 0.18895392E+03</pdfrwt>
<pdfrwt beam="2">  1       21 0.13545163E-01 0.18895392E+03</pdfrwt>
<totfact> 0.83051046E+03</totfact>
</mgrwt>
</event>
<event>
 4    1  0.3883260E+000  0.2471756E+03  0.7546771E-02  0.1115103E+00
         21   -1    0    0  503  502  0.00000000000E+00  0.00000000000E+00  0.50133145027E+03  0.50133145027E+03  0.00000000000E+00 0. -1.
         21   -1    0    0  501  503 -0.00000000000E+00 -0.00000000000E+00 -0.30006640963E+03  0.30006640963E+03  0.00000000000E+00 0.  1.
          6    1    1    2  501    0 -0.15828297520E+03 -0.78187448450E+02 -0.20815701908E+03  0.32314876129E+03  0.17300000000E+03 0.  1.
         -6    1    1    2    0  502  0.15828297520E+03  0.78187448450E+02  0.40942205972E+03  0.47824909861E+03  0.17300000000E+03 0. -1.
<mgrwt>
<rscale>  2 0.24717560E+03</rscale>
<asrwt>0</asrwt>
<pdfrwt beam="1">  1       21 0.77127915E-01 0.24717560E+03</pdfrwt>
<pdfrwt beam="2">  1       21 0.46164063E-01 0.24717560E+03</pdfrwt>
<totfact> 0.64704158E+03</totfact>
</mgrwt>
</event>
<event>
 4    1  0.3883260E+000  0.1814159E+03  0.7546771E-02  0.1166440E+00
         21   -1    0    0  501  502  0.00000000000E+00  0.00000000000E+00  0.34157698947E+03  0.34157698947E+03  0.00000000000E+00 0. -1.
         21   -1    0    0  502  503 -0.00000000000E+00 -0.00000000000E+00 -0.34472756410E+03  0.34472756410E+03  0.00000000000E+00 0. -1.
          6    1    1    2  501    0 -0.25256923468E+02  0.48423400104E+02  0.28969958906E+03  0.34181513975E+03  0.17300000000E+03 0. -1.
         -6    1    1    2    0  503  0.25256923468E+02 -0.48423400104E+02 -0.29285016369E+03  0.34448941382E+03  0.17300000000E+03 0. -1.
<mgrwt>
<rscale>  2 0.18141593E+03</rscale>
<asrwt>0</asrwt>
<pdfrwt beam="1">  1       21 0.52550307E-01 0.18141593E+03</pdfrwt>
<pdfrwt beam="2">  1       21 0.53035009E-01 0.18141593E+03</pdfrwt>
<totfact> 0.11651910E+04</totfact>
</mgrwt>
</event>
<event>
 4    1  0.3883260E+000  0.1937786E+03  0.7546771E-02  0.1155097E+00
         21   -1    0    0  501  502  0.00000000000E+00  0.00000000000E+00  0.39927905238E+02  0.39927905238E+02  0.00000000000E+00 0. -1.
         21   -1    0    0  502  503 -0.00000000000E+00 -0.00000000000E+00 -0.95061268734E+03  0.95061268734E+03  0.00000000000E+00 0. -1.
          6    1    1    2  501    0 -0.87154479944E+02  0.50231235946E+01 -0.40412957556E+03  0.44818617670E+03  0.17300000000E+03 0. -1.
         -6    1    1    2    0  503  0.87154479944E+02 -0.50231235946E+01 -0.50655520654E+03  0.54235441587E+03  0.17300000000E+03 0. -1.
<mgrwt>
<rscale>  2 0.19377857E+03</rscale>
<asrwt>0</asrwt>
<pdfrwt beam="1">  1       21 0.61427553E-02 0.19377857E+03</pdfrwt>
<pdfrwt beam="2">  1       21 0.14624809E+00 0.19377857E+03</pdfrwt>
<totfact> 0.60465763E+04</totfact>
</mgrwt>
</event>
<event>
 4    1  0.3883260E+000  0.2256077E+03  0.7546771E-02  0.1129770E+00
         21   -1    0    0  503  502  0.00000000000E+00  0.00000000000E+00  0.97640631362E+02  0.97640631362E+02  0.00000000000E+00 0.  1.
         21   -1    0    0  501  503 -0.00000000000E+00 -0.00000000000E+00 -0.52690965704E+03  0.52690965704E+03  0.00000000000E+00 0.  1.
          6    1    1    2  501    0  0.12070151898E+03  0.80006030799E+02 -0.24689183632E+03  0.33444640900E+03  0.17300000000E+03 0.  1.
         -6    1    1    2    0  502 -0.12070151898E+03 -0.80006030799E+02 -0.18237718936E+03  0.29010387941E+03  0.17300000000E+03 0.  1.
<mgrwt>
<rscale>  2 0.22560767E+03</rscale>
<asrwt>0</asrwt>
<pdfrwt beam="1">  1       21 0.15021636E-01 0.22560767E+03</pdfrwt>
<pdfrwt beam="2">  1       21 0.81063021E-01 0.22560767E+03</pdfrwt>
<totfact> 0.51412698E+04</totfact>
</mgrwt>
</event>
<event>
 4    1  0.3883260E+000  0.3079512E+03  0.7546771E-02  0.1081332E+00
         21   -1    0    0  503  502  0.00000000000E+00  0.00000000000E+00  0.18427851446E+04  0.18427851446E+04  0.00000000000E+00 0.  1.
         21   -1    0    0  501  503 -0.00000000000E+00 -0.00000000000E+00 -0.67777708137E+02  0.67777708137E+02  0.00000000000E+00 0. -1.
          6    1    1    2  501    0  0.23197369571E+03 -0.10532410160E+03  0.41881244662E+03  0.51984404135E+03  0.17300000000E+03 0. -1.
         -6    1    1    2    0  502 -0.23197369571E+03  0.10532410160E+03  0.13561949899E+04  0.13907188114E+04  0.17300000000E+03 0.  1.
<mgrwt>
<rscale>  2 0.30795123E+03</rscale>
<asrwt>0</asrwt>
<pdfrwt beam="1">  1       21 0.28350537E+00 0.30795123E+03</pdfrwt>
<pdfrwt beam="2">  1       21 0.10427341E-01 0.30795123E+03</pdfrwt>
<totfact> 0.28769497E+03</totfact>
</mgrwt>
</event>
<event>
 4    1  0.3883260E+000  0.2135373E+03  0.7546771E-02  0.1138795E+00
         21   -1    0    0  503  502  0.00000000000E+00  0.00000000000E+00  0.75564026168E+03  0.75564026168E+03  0.00000000000E+00 0. -1.
         21   -1    0    0  501  503 -0.00000000000E+00 -0.00000000000E+00 -0.65507090512E+02  0.65507090512E+02  0.00000000000E+00 0. -1.
          6    1    1    2  501    0  0.59783967384E+01  0.12503381569E+03  0.22979806979E+03  0.31369626898E+03  0.17300000000E+03 0. -1.
         -6    1    1    2    0  502 -0.59783967384E+01 -0.12503381569E+03  0.46033510138E+03  0.50745108322E+03  0.17300000000E+03 0. -1.
<mgrwt>
<rscale>  2 0.21353734E+03</rscale>
<asrwt>0</asrwt>
<pdfrwt beam="1">  1       21 0.11625234E+00 0.21353734E+03</pdfrwt>
<pdfrwt beam="2">  1       21 0.10078014E-01 0.21353734E+03</pdfrwt>
<totfact> 0.45195887E+04</totfact>
</mgrwt>
</event>
<event>
 4    1  0.3883260E+000  0.1961836E+03  0.7546771E-02  0.1152999E+00
         21   -1    0    0  503  502  0.00000000000E+00  0.00000000000E+00  0.29563881087E+03  0.29563881087E+03  0.00000000000E+00 0.  1.
         21   -1    0    0  501  503 -0.00000000000E+00 -0.00000000000E+00 -0.15473987777E+03  0.15473987777E+03  0.00000000000E+00 0.  1.
          6    1    1    2  501    0 -0.67128143595E+02  0.63661598181E+02 -0.19253783221E+02  0.19712608887E+03  0.17300000000E+03 0.  1.
         -6    1    1    2    0  502  0.67128143595E+02 -0.63661598181E+02  0.16015271632E+03  0.25325259977E+03  0.17300000000E+03 0.  1.
<mgrwt>
<rscale>  2 0.19618355E+03</rscale>
<asrwt>0</asrwt>
<pdfrwt beam="1">  1       21 0.45482894E-01 0.19618355E+03</pdfrwt>
<pdfrwt beam="2">  1       21 0.23806135E-01 0.19618355E+03</pdfrwt>
<totfact> 0.76959600E+04</totfact>
</mgrwt>
</event>
<event>
 4    1  0.3883260E+000  0.1940740E+03  0.7546771E-02  0.1154837E+00
         21   -1    0    0  501  502  0.00000000000E+00  0.00000000000E+00  0.15068556152E+04  0.15068556152E+04  0.00000000000E+00 0.  1.
         21   -1    0    0  502  503 -0.00000000000E+00 -0.00000000000E+00 -0.40617902354E+02  0.40617902354E+02  0.00000000000E+00 0. -1.
          6    1    1    2  501    0  0.87757307890E+02  0.58624716707E+01  0.12129709933E+04  0.12283986910E+04  0.17300000000E+03 0.  1.
         -6    1    1    2    0  503 -0.87757307890E+02 -0.58624716707E+01  0.25326671957E+03  0.31907482650E+03  0.17300000000E+03 0. -1.
<mgrwt>
<rscale>  2 0.19407399E+03</rscale>
<asrwt>0</asrwt>
<pdfrwt beam="1">  1       21 0.23182390E+00 0.19407399E+03</pdfrwt>
<pdfrwt beam="2">  1       21 0.62489092E-02 0.19407399E+03</pdfrwt>
<totfact> 0.15662744E+04</totfact>
</mgrwt>
</event>
<event>
 4    1  0.3883260E+000  0.1821507E+03  0.7546771E-02  0.1165738E+00
         21   -1    0    0  503  502  0.00000000000E+00  0.00000000000E+00  0.74147931000E+02  0.74147931000E+02  0.00000000000E+00 0. -1.
         21   -1    0    0  501  503 -0.00000000000E+00 -0.00000000000E+00 -0.15266214968E+04  0.15266214968E+04  0.00000000000E+00 0. -1.
          6    1    1    2  501    0  0.37214471948E+02  0.43185080446E+02 -0.13991740761E+04  0.14109808515E+04  0.17300000000E+03 0. -1.
         -6    1    1    2    0  502 -0.37214471948E+02 -0.43185080446E+02 -0.53299489727E+02  0.18978857632E+03  0.17300000000E+03 0. -1.
<mgrwt>
<rscale>  2 0.18215067E+03</rscale>
<asrwt>0</asrwt>
<pdfrwt beam="1">  1       21 0.11407373E-01 0.18215067E+03</pdfrwt>
<pdfrwt beam="2">  1       21 0.23486486E+00 0.18215067E+03</pdfrwt>
<totfact> 0.53083024E+03</totfact>
</mgrwt>
</event>
<event>
 4    1  0.3883260E+000  0.1755937E+03  0.7546771E-02  0.1172137E+00
         21   -1    0    0  503  502  0.00000000000E+00  0.00000000000E+00  0.15338588489E+03  0.15338588489E+03  0.00000000000E+00 0. -1.
         21   -1    0    0  501  503 -0.00000000000E+00 -0.00000000000E+00 -0.23119646218E+03  0.23119646218E+03  0.00000000000E+00 0.  1.
          6    1    1    2  501    0 -0.24094322213E+02 -0.17989653205E+02 -0.10837968914E+03  0.20634757329E+03  0.17300000000E+03 0.  1.
         -6    1    1    2    0  502  0.24094322213E+02  0.17989653205E+02  0.30569111848E+02  0.17823477378E+03  0.17300000000E+03 0. -1.
<mgrwt>
<rscale>  2 0.17559375E+03</rscale>
<asrwt>0</asrwt>
<pdfrwt beam="1">  1       21 0.23597829E-01 0.17559375E+03</pdfrwt>
<pdfrwt beam="2">  1       21 0.35568686E-01 0.17559375E+03</pdfrwt>
<totfact> 0.12960327E+05</totfact>
</mgrwt>
</event>
<event>
 4    1  0.3883260E+000  0.2380871E+03  0.7546771E-02  0.1121074E+00
         21   -1    0    0  503  502  0.00000000000E+00  0.00000000000E+00  0.69681713619E+03  0.69681713619E+03  0.00000000000E+00 0.  1.
         21   -1    0    0  501  503 -0.00000000000E+00 -0.00000000000E+00 -0.14828777437E+03  0.14828777437E+03  0.00000000000E+00 0. -1.
          6    1    1    2  501    0  0.12763706066E+03  0.10229974864E+03 -0.96360161990E+01  0.23828199813E+03  0.17300000000E+03 0. -1.
         -6    1    1    2    0  502 -0.12763706066E+03 -0.10229974864E+03  0.55816537802E+03  0.60682291243E+03  0.17300000000E+03 0.  1.
<mgrwt>
<rscale>  2 0.23808708E+03</rscale>
<asrwt>0</asrwt>
<pdfrwt beam="1">  1       21 0.10720263E+00 0.23808708E+03</pdfrwt>
<pdfrwt beam="2">  1       21 0.22813504E-01 0.23808708E+03</pdfrwt>
<totfact> 0.12168528E+04</totfact>
</mgrwt>
</event>
<event>
 4    1  0.3883260E+000  0.1777465E+03  0.7546771E-02  0.1170002E+00
         21   -1    0    0  501  502  0.00000000000E+00  0.00000000000E+00  0.55799034301E+03  0.55799034301E+03  0.00000000000E+00 0. -1.
         21   -1    0    0  502  503 -0.00000000000E+00 -0.00000000000E+00 -0.61107734901E+02  0.61107734901E+02  0.00000000000E+00 0. -1.
          6    1    1    2  501    0  0.21577580071E+02  0.34629958099E+02  0.33232144861E+03  0.37687049654E+03  0.17300000000E+03 0. -1.
         -6    1    1    2    0  503 -0.21577580071E+02 -0.34629958099E+02  0.16456115950E+03  0.24222758137E+03  0.17300000000E+03 0. -1.
<mgrwt>
<rscale>  2 0.17774652E+03</rscale>
<asrwt>0</asrwt>
<pdfrwt beam="1">  1       21 0.85844665E-01 0.17774652E+03</pdfrwt>
<pdfrwt beam="2">  1       21 0.94011903E-02 0.17774652E+03</pdfrwt>
<totfact> 0.10660884E+05</totfact>
</mgrwt>
</event>
<event>
 4    1  0.3883260E+000  0.1901792E+03  0.7546771E-02  0.1158300E+00
         21   -1    0    0  501  502  0.00000000000E+00  0.00000000000E+00  0.19954362638E+03  0.19954362638E+03  0.00000000000E+00 0. -1.
         21   -1    0    0  502  503 -0.00000000000E+00 -0.00000000000E+00 -0.40308905634E+03  0.40308905634E+03  0.00000000000E+00 0. -1.
          6    1    1    2  501    0 -0.18171210852E+02  0.76869523393E+02  0.12175794169E+03  0.22581654699E+03  0.17300000000E+03 0. -1.
         -6    1    1    2    0  503  0.18171210852E+02 -0.76869523393E+02 -0.32530337166E+03  0.37681613572E+03  0.17300000000E+03 0. -1.
<mgrwt>
<rscale>  2 0.19017917E+03</rscale>
<asrwt>0</asrwt>
<pdfrwt beam="1">  1       21 0.30699020E-01 0.19017917E+03</pdfrwt>
<pdfrwt beam="2">  1       21 0.62013700E-01 0.19017917E+03</pdfrwt>
<totfact> 0.24622490E+04</totfact>
</mgrwt>
</event>
<event>
 4    1  0.3883260E+000  0.1937707E+03  0.7546771E-02  0.1155104E+00
         21   -1    0    0  501  502  0.00000000000E+00  0.00000000000E+00  0.13406202913E+04  0.13406202913E+04  0.00000000000E+00 0. -1.
         21   -1    0    0  502  503 -0.00000000000E+00 -0.00000000000E+00 -0.40249533652E+02  0.40249533652E+02  0.00000000000E+00 0. -1.
          6    1    1    2  501    0  0.81525217564E+02 -0.31172225268E+02  0.10309650782E+04  0.10490167116E+04  0.17300000000E+03 0. -1.
         -6    1    1    2    0  503 -0.81525217564E+02  0.31172225268E+02  0.26940567943E+03  0.33185311335E+03  0.17300000000E+03 0. -1.
<mgrwt>
<rscale>  2 0.19377066E+03</rscale>
<asrwt>0</asrwt>
<pdfrwt beam="1">  1       21 0.20624924E+00 0.19377066E+03</pdfrwt>
<pdfrwt beam="2">  1       21 0.61922370E-02 0.19377066E+03</pdfrwt>
<totfact> 0.22867905E+04</totfact>
</mgrwt>
</event>
<event>
 4    1  0.3883260E+000  0.1831204E+03  0.7546771E-02  0.1164817E+00
         21   -1    0    0  503  502  0.00000000000E+00  0.00000000000E+00  0.10359158886E+03  0.10359158886E+03  0.00000000000E+00 0. -1.
         21   -1    0    0  501  503 -0.00000000000E+00 -0.00000000000E+00 -0.33082511986E+03  0.33082511986E+03  0.00000000000E+00 0.  1.
          6    1    1    2  501    0 -0.12480330042E+02 -0.58722554796E+02 -0.14548267319E+03  0.23387668819E+03  0.17300000000E+03 0.  1.
         -6    1    1    2    0  502  0.12480330042E+02  0.58722554796E+02 -0.81750857806E+02  0.20054002052E+03  0.17300000000E+03 0. -1.
<mgrwt>
<rscale>  2 0.18312044E+03</rscale>
<asrwt>0</asrwt>
<pdfrwt beam="1">  1       21 0.15937167E-01 0.18312044E+03</pdfrwt>
<pdfrwt beam="2">  1       21 0.50896173E-01 0.18312044E+03</pdfrwt>
<totfact> 0.12937367E+05</totfact>
</mgrwt>
</event>
<event>
 4    1  0.3883260E+000  0.2181037E+03  0.7546771E-02  0.1135305E+00
         21   -1    0    0  501  502  0.00000000000E+00  0.00000000000E+00  0.10804438698E+03  0.10804438698E+03  0.00000000000E+00 0.  1.
         21   -1    0    0  502  503 -0.00000000000E+00 -0.00000000000E+00 -0.44094869946E+03  0.44094869946E+03  0.00000000000E+00 0. -1.
          6    1    1    2  501    0  0.76434882787E+02 -0.10861825706E+03 -0.15572087148E+03  0.26798919174E+03  0.17300000000E+03 0. -1.
         -6    1    1    2    0  503 -0.76434882787E+02  0.10861825706E+03 -0.17718344100E+03  0.28100389470E+03  0.17300000000E+03 0.  1.
<mgrwt>
<rscale>  2 0.21810368E+03</rscale>
<asrwt>0</asrwt>
<pdfrwt beam="1">  1       21 0.16622213E-01 0.21810368E+03</pdfrwt>
<pdfrwt beam="2">  1       21 0.67838261E-01 0.21810368E+03</pdfrwt>
<totfact> 0.63803707E+04</totfact>
</mgrwt>
</event>
<event>
 4    1  0.3883260E+000  0.2760283E+03  0.7546771E-02  0.1097878E+00
         21   -1    0    0  501  502  0.00000000000E+00  0.00000000000E+00  0.21914145561E+03  0.21914145561E+03  0.00000000000E+00 0.  1.
         21   -1    0    0  502  503 -0.00000000000E+00 -0.00000000000E+00 -0.35073676908E+03  0.35073676908E+03  0.00000000000E+00 0. -1.
          6    1    1    2  501    0 -0.14559822497E+03  0.15831551476E+03 -0.39207781314E+02  0.27879902339E+03  0.17300000000E+03 0.  1.
         -6    1    1    2    0  503  0.14559822497E+03 -0.15831551476E+03 -0.92387532161E+02  0.29107920130E+03  0.17300000000E+03 0.  1.
<mgrwt>
<rscale>  2 0.27602834E+03</rscale>
<asrwt>0</asrwt>
<pdfrwt beam="1">  1       21 0.33714070E-01 0.27602834E+03</pdfrwt>
<pdfrwt beam="2">  1       21 0.53959502E-01 0.27602834E+03</pdfrwt>
<totfact> 0.26425615E+04</totfact>
</mgrwt>
</event>
<event>
 4    1  0.3883260E+000  0.1753806E+03  0.7546771E-02  0.1172350E+00
         21   -1    0    0  501  502  0.00000000000E+00  0.00000000000E+00  0.10951258642E+03  0.10951258642E+03  0.00000000000E+00 0. -1.
         21   -1    0    0  502  503 -0.00000000000E+00 -0.00000000000E+00 -0.28088000803E+03  0.28088000803E+03  0.00000000000E+00 0. -1.
          6    1    1    2  501    0  0.24498372179E+02  0.15138540999E+02 -0.87069553096E+02  0.19580462900E+03  0.17300000000E+03 0. -1.
         -6    1    1    2    0  503 -0.24498372179E+02 -0.15138540999E+02 -0.84297868515E+02  0.19458796545E+03  0.17300000000E+03 0. -1.
<mgrwt>
<rscale>  2 0.17538057E+03</rscale>
<asrwt>0</asrwt>
<pdfrwt beam="1">  1       21 0.16848091E-01 0.17538057E+03</pdfrwt>
<pdfrwt beam="2">  1       21 0.43212308E-01 0.17538057E+03</pdfrwt>
<totfact> 0.16418868E+05</totfact>
</mgrwt>
</event>
<event>
 4    1  0.3883260E+000  0.1990029E+03  0.7546771E-02  0.1150583E+00
         21   -1    0    0  501  502  0.00000000000E+00  0.00000000000E+00  0.26210031311E+02  0.26210031311E+02  0.00000000000E+00 0. -1.
         21   -1    0    0  502  503 -0.00000000000E+00 -0.00000000000E+00 -0.17672060778E+04  0.17672060778E+04  0.00000000000E+00 0. -1.
          6    1    1    2  501    0 -0.26454151935E+02  0.94727645496E+02 -0.52903690623E+03  0.56522756225E+03  0.17300000000E+03 0. -1.
         -6    1    1    2    0  503  0.26454151935E+02 -0.94727645496E+02 -0.12119591402E+04  0.12281885468E+04  0.17300000000E+03 0. -1.
<mgrwt>
<rscale>  2 0.19900289E+03</rscale>
<asrwt>0</asrwt>
<pdfrwt beam="1">  1       21 0.40323101E-02 0.19900289E+03</pdfrwt>
<pdfrwt beam="2">  1       21 0.27187802E+00 0.19900289E+03</pdfrwt>
<totfact> 0.19054194E+04</totfact>
</mgrwt>
</event>
<event>
 4    1  0.3883260E+000  0.1747145E+03  0.7546771E-02  0.1173019E+00
         21   -1    0    0  503  502  0.00000000000E+00  0.00000000000E+00  0.42051220818E+02  0.42051220818E+02  0.00000000000E+00 0.  1.
         21   -1    0    0  501  503 -0.00000000000E+00 -0.00000000000E+00 -0.74459792425E+03  0.74459792425E+03  0.00000000000E+00 0.  1.
          6    1    1    2  501    0 -0.67169173996E+01  0.23474279684E+02 -0.41359483977E+03  0.44898312916E+03  0.17300000000E+03 0.  1.
         -6    1    1    2    0  502  0.67169173996E+01 -0.23474279684E+02 -0.28895186366E+03  0.33766601591E+03  0.17300000000E+03 0.  1.
<mgrwt>
<rscale>  2 0.17471451E+03</rscale>
<asrwt>0</asrwt>
<pdfrwt beam="1">  1       21 0.64694188E-02 0.17471451E+03</pdfrwt>
<pdfrwt beam="2">  1       21 0.11455352E+00 0.17471451E+03</pdfrwt>
<totfact> 0.10333984E+05</totfact>
</mgrwt>
</event>
<event>
 4    1  0.3883260E+000  0.2522861E+03  0.7546771E-02  0.1111869E+00
         21   -1    0    0  501  502  0.00000000000E+00  0.00000000000E+00  0.16373939027E+03  0.16373939027E+03  0.00000000000E+00 0. -1.
         21   -1    0    0  502  503 -0.00000000000E+00 -0.00000000000E+00 -0.46421251375E+03  0.46421251375E+03  0.00000000000E+00 0.  1.
          6    1    1    2  501    0  0.15508255739E+03 -0.98329515786E+02 -0.23617706281E+02  0.25338920524E+03  0.17300000000E+03 0. -1.
         -6    1    1    2    0  503 -0.15508255739E+03  0.98329515786E+02 -0.27685541720E+03  0.37456269878E+03  0.17300000000E+03 0.  1.
<mgrwt>
<rscale>  2 0.25228613E+03</rscale>
<asrwt>0</asrwt>
<pdfrwt beam="1">  1       21 0.25190676E-01 0.25228613E+03</pdfrwt>
<pdfrwt beam="2">  1       21 0.71417309E-01 0.25228613E+03</pdfrwt>
<totfact> 0.25655306E+04</totfact>
</mgrwt>
</event>
<event>
 4    1  0.3883260E+000  0.2360529E+03  0.7546771E-02  0.1122451E+00
         21   -1    0    0  501  502  0.00000000000E+00  0.00000000000E+00  0.12085460862E+03  0.12085460862E+03  0.00000000000E+00 0.  1.
         21   -1    0    0  502  503 -0.00000000000E+00 -0.00000000000E+00 -0.49844767501E+03  0.49844767501E+03  0.00000000000E+00 0.  1.
          6    1    1    2  501    0  0.16771219071E+02  0.15972063385E+03 -0.10398788124E+03  0.25794269540E+03  0.17300000000E+03 0.  1.
         -6    1    1    2    0  503 -0.16771219071E+02 -0.15972063385E+03 -0.27360518515E+03  0.36135958823E+03  0.17300000000E+03 0.  1.
<mgrwt>
<rscale>  2 0.23605286E+03</rscale>
<asrwt>0</asrwt>
<pdfrwt beam="1">  1       21 0.18593016E-01 0.23605286E+03</pdfrwt>
<pdfrwt beam="2">  1       21 0.76684259E-01 0.23605286E+03</pdfrwt>
<totfact> 0.39151038E+04</totfact>
</mgrwt>
</event>
<event>
 4    1  0.3883260E+000  0.2370754E+03  0.7546771E-02  0.1121757E+00
         21   -1    0    0  503  502  0.00000000000E+00  0.00000000000E+00  0.56958286331E+03  0.56958286331E+03  0.00000000000E+00 0. -1.
         21   -1    0    0  501  503 -0.00000000000E+00 -0.00000000000E+00 -0.13073354841E+03  0.13073354841E+03  0.00000000000E+00 0.  1.
          6    1    1    2  501    0  0.13917415794E+03  0.83104134881E+02  0.46032687068E+02  0.24150310920E+03  0.17300000000E+03 0. -1.
         -6    1    1    2    0  502 -0.13917415794E+03 -0.83104134881E+02  0.39281662783E+03  0.45881330252E+03  0.17300000000E+03 0. -1.
<mgrwt>
<rscale>  2 0.23707540E+03</rscale>
<asrwt>0</asrwt>
<pdfrwt beam="1">  1       21 0.87628131E-01 0.23707540E+03</pdfrwt>
<pdfrwt beam="2">  1       21 0.20112854E-01 0.23707540E+03</pdfrwt>
<totfact> 0.24908385E+04</totfact>
</mgrwt>
</event>
<event>
 4    1  0.3883260E+000  0.3071343E+03  0.7546771E-02  0.1081728E+00
         21   -1    0    0  501  502  0.00000000000E+00  0.00000000000E+00  0.26910618650E+03  0.26910618650E+03  0.00000000000E+00 0.  1.
         21   -1    0    0  502  503 -0.00000000000E+00 -0.00000000000E+00 -0.62870171579E+03  0.62870171579E+03  0.00000000000E+00 0. -1.
          6    1    1    2  501    0 -0.11625570117E+03 -0.22558172180E+03  0.11879730349E+03  0.32930882250E+03  0.17300000000E+03 0.  1.
         -6    1    1    2    0  503  0.11625570117E+03  0.22558172180E+03 -0.47839283277E+03  0.56849907978E+03  0.17300000000E+03 0. -1.
<mgrwt>
<rscale>  2 0.30713434E+03</rscale>
<asrwt>0</asrwt>
<pdfrwt beam="1">  1       21 0.41400952E-01 0.30713434E+03</pdfrwt>
<pdfrwt beam="2">  1       21 0.96723341E-01 0.30713434E+03</pdfrwt>
<totfact> 0.46366570E+03</totfact>
</mgrwt>
</event>
<event>
 4    1  0.3883260E+000  0.1790435E+03  0.7546771E-02  0.1168732E+00
         21   -1    0    0  501  502  0.00000000000E+00  0.00000000000E+00  0.20609849595E+03  0.20609849595E+03  0.00000000000E+00 0. -1.
         21   -1    0    0  502  503 -0.00000000000E+00 -0.00000000000E+00 -0.19225784068E+03  0.19225784068E+03  0.00000000000E+00 0. -1.
          6    1    1    2  501    0  0.35470773954E+02 -0.29485816948E+02  0.93964045823E+02  0.20220245081E+03  0.17300000000E+03 0. -1.
         -6    1    1    2    0  503 -0.35470773954E+02  0.29485816948E+02 -0.80123390554E+02  0.19615388581E+03  0.17300000000E+03 0. -1.
<mgrwt>
<rscale>  2 0.17904354E+03</rscale>
<asrwt>0</asrwt>
<pdfrwt beam="1">  1       21 0.31707461E-01 0.17904354E+03</pdfrwt>
<pdfrwt beam="2">  1       21 0.29578129E-01 0.17904354E+03</pdfrwt>
<totfact> 0.10528320E+05</totfact>
</mgrwt>
</event>
<event>
 4    1  0.3883260E+000  0.1898057E+03  0.7546771E-02  0.1158637E+00
         21   -1    0    0  503  502  0.00000000000E+00  0.00000000000E+00  0.16759295735E+03  0.16759295735E+03  0.00000000000E+00 0. -1.
         21   -1    0    0  501  503 -0.00000000000E+00 -0.00000000000E+00 -0.28872215180E+03  0.28872215180E+03  0.00000000000E+00 0. -1.
          6    1    1    2  501    0 -0.52727352085E+02 -0.57593725183E+02 -0.17588444441E+03  0.25876929614E+03  0.17300000000E+03 0. -1.
         -6    1    1    2    0  502  0.52727352085E+02  0.57593725183E+02  0.54755249968E+02  0.19754581301E+03  0.17300000000E+03 0. -1.
<mgrwt>
<rscale>  2 0.18980572E+03</rscale>
<asrwt>0</asrwt>
<pdfrwt beam="1">  1       21 0.25783532E-01 0.18980572E+03</pdfrwt>
<pdfrwt beam="2">  1       21 0.44418793E-01 0.18980572E+03</pdfrwt>
<totfact> 0.69576845E+04</totfact>
</mgrwt>
</event>
<event>
 4    1  0.3883260E+000  0.1869526E+03  0.7546771E-02  0.1161239E+00
         21   -1    0    0  501  502  0.00000000000E+00  0.00000000000E+00  0.92188633694E+02  0.92188633694E+02  0.00000000000E+00 0. -1.
         21   -1    0    0  502  503 -0.00000000000E+00 -0.00000000000E+00 -0.10252691420E+04  0.10252691420E+04  0.00000000000E+00 0. -1.
          6    1    1    2  501    0  0.20952699336E+01 -0.70836979361E+02 -0.22986795752E+02  0.18836045386E+03  0.17300000000E+03 0. -1.
         -6    1    1    2    0  503 -0.20952699336E+01  0.70836979361E+02 -0.91009371260E+03  0.92909732187E+03  0.17300000000E+03 0. -1.
<mgrwt>
<rscale>  2 0.18695258E+03</rscale>
<asrwt>0</asrwt>
<pdfrwt beam="1">  1       21 0.14182867E-01 0.18695258E+03</pdfrwt>
<pdfrwt beam="2">  1       21 0.15773371E+00 0.18695258E+03</pdfrwt>
<totfact> 0.11408095E+04</totfact>
</mgrwt>
</event>
<event>
 4    1  0.3883260E+000  0.1882043E+03  0.7546771E-02  0.1160091E+00
         21   -1    0    0  501  502  0.00000000000E+00  0.00000000000E+00  0.78814627300E+03  0.78814627300E+03  0.00000000000E+00 0. -1.
         21   -1    0    0  502  503 -0.00000000000E+00 -0.00000000000E+00 -0.81818995398E+02  0.81818995398E+02  0.00000000000E+00 0. -1.
          6    1    1    2  501    0  0.42922524917E+02  0.60411182341E+02  0.64519045221E+03  0.67208003520E+03  0.17300000000E+03 0. -1.
         -6    1    1    2    0  503 -0.42922524917E+02 -0.60411182341E+02  0.61136825392E+02  0.19788523319E+03  0.17300000000E+03 0. -1.
<mgrwt>
<rscale>  2 0.18820429E+03</rscale>
<asrwt>0</asrwt>
<pdfrwt beam="1">  1       21 0.12125327E+00 0.18820429E+03</pdfrwt>
<pdfrwt beam="2">  1       21 0.12587538E-01 0.18820429E+03</pdfrwt>
<totfact> 0.27794261E+04</totfact>
</mgrwt>
</event>
<event>
 4    1  0.3883260E+000  0.2244389E+03  0.7546771E-02  0.1130616E+00
         21   -1    0    0  503  502  0.00000000000E+00  0.00000000000E+00  0.23135152040E+03  0.23135152040E+03  0.00000000000E+00 0.  1.
         21   -1    0    0  501  503 -0.00000000000E+00 -0.00000000000E+00 -0.24003453077E+03  0.24003453077E+03  0.00000000000E+00 0. -1.
          6    1    1    2  501    0 -0.10803637927E+03 -0.93658732148E+02 -0.76183606528E+02  0.23701636918E+03  0.17300000000E+03 0.  1.
         -6    1    1    2    0  502  0.10803637927E+03  0.93658732148E+02  0.67500596166E+02  0.23436968199E+03  0.17300000000E+03 0. -1.
<mgrwt>
<rscale>  2 0.22443889E+03</rscale>
<asrwt>0</asrwt>
<pdfrwt beam="1">  1       21 0.35592542E-01 0.22443889E+03</pdfrwt>
<pdfrwt beam="2">  1       21 0.36928389E-01 0.22443889E+03</pdfrwt>
<totfact> 0.53043930E+04</totfact>
</mgrwt>
</event>
<event>
 4    1  0.3883260E+000  0.1816043E+03  0.7546771E-02  0.1166259E+00
         21   -1    0    0  501  502  0.00000000000E+00  0.00000000000E+00  0.77774549547E+02  0.77774549547E+02  0.00000000000E+00 0. -1.
         21   -1    0    0  502  503 -0.00000000000E+00 -0.00000000000E+00 -0.50304738565E+03  0.50304738565E+03  0.00000000000E+00 0. -1.
          6    1    1    2  501    0  0.40408996284E+02  0.37659232145E+02 -0.97550616768E+02  0.20614613161E+03  0.17300000000E+03 0. -1.
         -6    1    1    2    0  503 -0.40408996284E+02 -0.37659232145E+02 -0.32772221934E+03  0.37467580359E+03  0.17300000000E+03 0. -1.
<mgrwt>
<rscale>  2 0.18160425E+03</rscale>
<asrwt>0</asrwt>
<pdfrwt beam="1">  1       21 0.11965315E-01 0.18160425E+03</pdfrwt>
<pdfrwt beam="2">  1       21 0.77391909E-01 0.18160425E+03</pdfrwt>
<totfact> 0.87812712E+04</totfact>
</mgrwt>
</event>
<event>
 4    1  0.3883260E+000  0.1864973E+03  0.7546771E-02  0.1161659E+00
         21   -1    0    0  501  502  0.00000000000E+00  0.00000000000E+00  0.43351039191E+03  0.43351039191E+03  0.00000000000E+00 0.  1.
         21   -1    0    0  502  503 -0.00000000000E+00 -0.00000000000E+00 -0.80241064734E+02  0.80241064734E+02  0.00000000000E+00 0.  1.
          6    1    1    2  501    0  0.28598954652E+02  0.63516372258E+02  0.17942538749E+03  0.25879470518E+03  0.17300000000E+03 0.  1.
         -6    1    1    2    0  503 -0.28598954652E+02 -0.63516372258E+02  0.17384393968E+03  0.25495675146E+03  0.17300000000E+03 0.  1.
<mgrwt>
<rscale>  2 0.18649726E+03</rscale>
<asrwt>0</asrwt>
<pdfrwt beam="1">  1       21 0.66693905E-01 0.18649726E+03</pdfrwt>
<pdfrwt beam="2">  1       21 0.12344779E-01 0.18649726E+03</pdfrwt>
<totfact> 0.11519622E+05</totfact>
</mgrwt>
</event>
<event>
 4    1  0.3883260E+000  0.2497723E+03  0.7546771E-02  0.1113449E+00
         21   -1    0    0  503  502  0.00000000000E+00  0.00000000000E+00  0.10570924797E+03  0.10570924797E+03  0.00000000000E+00 0. -1.
         21   -1    0    0  501  503 -0.00000000000E+00 -0.00000000000E+00 -0.80910657421E+03  0.80910657421E+03  0.00000000000E+00 0. -1.
          6    1    1    2  501    0 -0.99983549704E+02  0.14986825746E+03 -0.58963570027E+03  0.64035651308E+03  0.17300000000E+03 0. -1.
         -6    1    1    2    0  502  0.99983549704E+02 -0.14986825746E+03 -0.11376162597E+03  0.27445930909E+03  0.17300000000E+03 0. -1.
<mgrwt>
<rscale>  2 0.24977231E+03</rscale>
<asrwt>0</asrwt>
<pdfrwt beam="1">  1       21 0.16262962E-01 0.24977231E+03</pdfrwt>
<pdfrwt beam="2">  1       21 0.12447793E+00 0.24977231E+03</pdfrwt>
<totfact> 0.15756213E+04</totfact>
</mgrwt>
</event>
<event>
 4    1  0.3883260E+000  0.2902135E+03  0.7546771E-02  0.1090238E+00
         21   -1    0    0  501  502  0.00000000000E+00  0.00000000000E+00  0.27956007393E+03  0.27956007393E+03  0.00000000000E+00 0. -1.
         21   -1    0    0  502  503 -0.00000000000E+00 -0.00000000000E+00 -0.56184068733E+03  0.56184068733E+03  0.00000000000E+00 0.  1.
          6    1    1    2  501    0  0.17103344139E+03 -0.15824799879E+03  0.14536105801E+03  0.32458235377E+03  0.17300000000E+03 0. -1.
         -6    1    1    2    0  503 -0.17103344139E+03  0.15824799879E+03 -0.42764167140E+03  0.51681840748E+03  0.17300000000E+03 0.  1.
<mgrwt>
<rscale>  2 0.29021349E+03</rscale>
<asrwt>0</asrwt>
<pdfrwt beam="1">  1       21 0.43009243E-01 0.29021349E+03</pdfrwt>
<pdfrwt beam="2">  1       21 0.86437028E-01 0.29021349E+03</pdfrwt>
<totfact> 0.56328570E+03</totfact>
</mgrwt>
</event>
<event>
 4    1  0.3883260E+000  0.2157308E+03  0.7546771E-02  0.1137106E+00
         21   -1    0    0  503  502  0.00000000000E+00  0.00000000000E+00  0.77736692260E+02  0.77736692260E+02  0.00000000000E+00 0. -1.
         21   -1    0    0  501  503 -0.00000000000E+00 -0.00000000000E+00 -0.71060510270E+03  0.71060510270E+03  0.00000000000E+00 0. -1.
          6    1    1    2  501    0 -0.12527360052E+03 -0.30287295038E+02 -0.47286575753E+03  0.51975169059E+03  0.17300000000E+03 0. -1.
         -6    1    1    2    0  502  0.12527360052E+03  0.30287295038E+02 -0.16000265291E+03  0.26859010437E+03  0.17300000000E+03 0. -1.
<mgrwt>
<rscale>  2 0.21573084E+03</rscale>
<asrwt>0</asrwt>
<pdfrwt beam="1">  1       21 0.11959491E-01 0.21573084E+03</pdfrwt>
<pdfrwt beam="2">  1       21 0.10932387E+00 0.21573084E+03</pdfrwt>
<totfact> 0.38652949E+04</totfact>
</mgrwt>
</event>
<event>
 4    1  0.3883260E+000  0.3466998E+03  0.7546771E-02  0.1063978E+00
         21   -1    0    0  503  502  0.00000000000E+00  0.00000000000E+00  0.89141838215E+03  0.89141838215E+03  0.00000000000E+00 0.  1.
         21   -1    0    0  501  503 -0.00000000000E+00 -0.00000000000E+00 -0.13869661197E+03  0.13869661197E+03  0.00000000000E+00 0. -1.
          6    1    1    2  501    0  0.13346170039E+03 -0.26918348963E+03  0.46222354348E+03  0.57779873720E+03  0.17300000000E+03 0.  1.
         -6    1    1    2    0  502 -0.13346170039E+03  0.26918348963E+03  0.29049822670E+03  0.45231625692E+03  0.17300000000E+03 0. -1.
<mgrwt>
<rscale>  2 0.34669984E+03</rscale>
<asrwt>0</asrwt>
<pdfrwt beam="1">  1       21 0.13714129E+00 0.34669984E+03</pdfrwt>
<pdfrwt beam="2">  1       21 0.21337941E-01 0.34669984E+03</pdfrwt>
<totfact> 0.70497886E+03</totfact>
</mgrwt>
</event>
<event>
 4    1  0.3883260E+000  0.1818038E+03  0.7546771E-02  0.1166069E+00
         21   -1    0    0  503  502  0.00000000000E+00  0.00000000000E+00  0.39083576030E+03  0.39083576030E+03  0.00000000000E+00 0.  1.
         21   -1    0    0  501  503 -0.00000000000E+00 -0.00000000000E+00 -0.90701720419E+02  0.90701720419E+02  0.00000000000E+00 0.  1.
          6    1    1    2  501    0  0.52650282470E+02 -0.18750176831E+02  0.87461010014E+02  0.20174748982E+03  0.17300000000E+03 0. -1.
         -6    1    1    2    0  502 -0.52650282470E+02  0.18750176831E+02  0.21267302987E+03  0.27978999090E+03  0.17300000000E+03 0. -1.
<mgrwt>
<rscale>  2 0.18180380E+03</rscale>
<asrwt>0</asrwt>
<pdfrwt beam="1">  1       21 0.60128578E-01 0.18180380E+03</pdfrwt>
<pdfrwt beam="2">  1       21 0.13954111E-01 0.18180380E+03</pdfrwt>
<totfact> 0.11582580E+05</totfact>
</mgrwt>
</event>
<event>
 4    1  0.3883260E+000  0.1883058E+03  0.7546771E-02  0.1159998E+00
         21   -1    0    0  501  502  0.00000000000E+00  0.00000000000E+00  0.78533704835E+03  0.78533704835E+03  0.00000000000E+00 0. -1.
         21   -1    0    0  502  503 -0.00000000000E+00 -0.00000000000E+00 -0.45556249425E+02  0.45556249425E+02  0.00000000000E+00 0. -1.
          6    1    1    2  501    0  0.43509810001E+02 -0.60307174109E+02  0.40905500637E+03  0.45031661867E+03  0.17300000000E+03 0.  1.
         -6    1    1    2    0  503 -0.43509810001E+02  0.60307174109E+02  0.33072579255E+03  0.38057667910E+03  0.17300000000E+03 0.  1.
<mgrwt>
<rscale>  2 0.18830576E+03</rscale>
<asrwt>0</asrwt>
<pdfrwt beam="1">  1       21 0.12082107E+00 0.18830576E+03</pdfrwt>
<pdfrwt beam="2">  1       21 0.70086543E-02 0.18830576E+03</pdfrwt>
<totfact> 0.78533055E+04</totfact>
</mgrwt>
</event>
<event>
 4    1  0.3883260E+000  0.1828465E+03  0.7546771E-02  0.1165076E+00
         21   -1    0    0  503  502  0.00000000000E+00  0.00000000000E+00  0.53152776827E+02  0.53152776827E+02  0.00000000000E+00 0. -1.
         21   -1    0    0  501  503 -0.00000000000E+00 -0.00000000000E+00 -0.69797621204E+03  0.69797621204E+03  0.00000000000E+00 0. -1.
          6    1    1    2  501    0  0.51962937422E+02 -0.28349495517E+02 -0.44047885699E+03  0.47692186385E+03  0.17300000000E+03 0. -1.
         -6    1    1    2    0  502 -0.51962937422E+02  0.28349495517E+02 -0.20434457822E+03  0.27420712502E+03  0.17300000000E+03 0. -1.
<mgrwt>
<rscale>  2 0.18284650E+03</rscale>
<asrwt>0</asrwt>
<pdfrwt beam="1">  1       21 0.81773501E-02 0.18284650E+03</pdfrwt>
<pdfrwt beam="2">  1       21 0.10738096E+00 0.18284650E+03</pdfrwt>
<totfact> 0.80307242E+04</totfact>
</mgrwt>
</event>
<event>
 4    1  0.3883260E+000  0.2350922E+03  0.7546771E-02  0.1123106E+00
         21   -1    0    0  501  502  0.00000000000E+00  0.00000000000E+00  0.11629933676E+04  0.11629933676E+04  0.00000000000E+00 0. -1.
         21   -1    0    0  502  503 -0.00000000000E+00 -0.00000000000E+00 -0.18802901798E+03  0.18802901798E+03  0.00000000000E+00 0. -1.
          6    1    1    2  501    0  0.12828555777E+03 -0.94245166712E+02  0.10714223665E+04  0.10969112193E+04  0.17300000000E+03 0. -1.
         -6    1    1    2    0  503 -0.12828555777E+03  0.94245166712E+02 -0.96458016854E+02  0.25411116622E+03  0.17300000000E+03 0. -1.
<mgrwt>
<rscale>  2 0.23509219E+03</rscale>
<asrwt>0</asrwt>
<pdfrwt beam="1">  1       21 0.17892205E+00 0.23509219E+03</pdfrwt>
<pdfrwt beam="2">  1       21 0.28927542E-01 0.23509219E+03</pdfrwt>
<totfact> 0.20352683E+03</totfact>
</mgrwt>
</event>
<event>
 4    1  0.3883260E+000  0.1750277E+03  0.7546771E-02  0.1172704E+00
         21   -1    0    0  501  502  0.00000000000E+00  0.00000000000E+00  0.50931170646E+03  0.50931170646E+03  0.00000000000E+00 0.  1.
         21   -1    0    0  502  503 -0.00000000000E+00 -0.00000000000E+00 -0.70179231059E+02  0.70179231059E+02  0.00000000000E+00 0.  1.
          6    1    1    2  501    0  0.13304757162E+02 -0.22993187493E+02  0.32910378156E+03  0.37275193127E+03  0.17300000000E+03 0.  1.
         -6    1    1    2    0  503 -0.13304757162E+02  0.22993187493E+02  0.11002869385E+03  0.20673900625E+03  0.17300000000E+03 0.  1.
<mgrwt>
<rscale>  2 0.17502772E+03</rscale>
<asrwt>0</asrwt>
<pdfrwt beam="1">  1       21 0.78355645E-01 0.17502772E+03</pdfrwt>
<pdfrwt beam="2">  1       21 0.10796805E-01 0.17502772E+03</pdfrwt>
<totfact> 0.10281600E+05</totfact>
</mgrwt>
</event>
<event>
 4    1  0.3883260E+000  0.2057156E+03  0.7546771E-02  0.1145004E+00
         21   -1    0    0  501  502  0.00000000000E+00  0.00000000000E+00  0.73946986510E+03  0.73946986510E+03  0.00000000000E+00 0.  1.
         21   -1    0    0  502  503 -0.00000000000E+00 -0.00000000000E+00 -0.64141279477E+02  0.64141279477E+02  0.00000000000E+00 0. -1.
          6    1    1    2  501    0 -0.63633135123E+02  0.91327622540E+02  0.46957095411E+03  0.51265562658E+03  0.17300000000E+03 0.  1.
         -6    1    1    2    0  503  0.63633135123E+02 -0.91327622540E+02  0.20575763151E+03  0.29095551799E+03  0.17300000000E+03 0. -1.
<mgrwt>
<rscale>  2 0.20571561E+03</rscale>
<asrwt>0</asrwt>
<pdfrwt beam="1">  1       21 0.11376459E+00 0.20571561E+03</pdfrwt>
<pdfrwt beam="2">  1       21 0.98678897E-02 0.20571561E+03</pdfrwt>
<totfact> 0.49659431E+04</totfact>
</mgrwt>
</event>
<event>
 4    1  0.3883260E+000  0.2752347E+03  0.7546771E-02  0.1098320E+00
         21   -1    0    0  503  502  0.00000000000E+00  0.00000000000E+00  0.16629790313E+03  0.16629790313E+03  0.00000000000E+00 0. -1.
         21   -1    0    0  501  503 -0.00000000000E+00 -0.00000000000E+00 -0.48696892278E+03  0.48696892278E+03  0.00000000000E+00 0. -1.
          6    1    1    2  501    0  0.14433367709E+02 -0.21358094999E+03 -0.77345715619E+02  0.28589596714E+03  0.17300000000E+03 0. -1.
         -6    1    1    2    0  502 -0.14433367709E+02  0.21358094999E+03 -0.24332530403E+03  0.36737085878E+03  0.17300000000E+03 0. -1.
<mgrwt>
<rscale>  2 0.27523471E+03</rscale>
<asrwt>0</asrwt>
<pdfrwt beam="1">  1       21 0.25584293E-01 0.27523471E+03</pdfrwt>
<pdfrwt beam="2">  1       21 0.74918296E-01 0.27523471E+03</pdfrwt>
<totfact> 0.22141041E+04</totfact>
</mgrwt>
</event>
<event>
 4    1  0.3883260E+000  0.1937180E+03  0.7546771E-02  0.1155150E+00
         21   -1    0    0  503  502  0.00000000000E+00  0.00000000000E+00  0.67495489677E+03  0.67495489677E+03  0.00000000000E+00 0. -1.
         21   -1    0    0  501  503 -0.00000000000E+00 -0.00000000000E+00 -0.65224485456E+02  0.65224485456E+02  0.00000000000E+00 0. -1.
          6    1    1    2  501    0 -0.84868073776E+02 -0.19875983518E+02  0.16269167508E+03  0.25297277681E+03  0.17300000000E+03 0. -1.
         -6    1    1    2    0  502  0.84868073776E+02  0.19875983518E+02  0.44703873623E+03  0.48720660541E+03  0.17300000000E+03 0. -1.
<mgrwt>
<rscale>  2 0.19371795E+03</rscale>
<asrwt>0</asrwt>
<pdfrwt beam="1">  1       21 0.10383921E+00 0.19371795E+03</pdfrwt>
<pdfrwt beam="2">  1       21 0.10034537E-01 0.19371795E+03</pdfrwt>
<totfact> 0.60489499E+04</totfact>
</mgrwt>
</event>
<event>
 4    1  0.3883260E+000  0.1936037E+03  0.7546771E-02  0.1155251E+00
         21   -1    0    0  501  502  0.00000000000E+00  0.00000000000E+00  0.25297520736E+03  0.25297520736E+03  0.00000000000E+00 0.  1.
         21   -1    0    0  502  503 -0.00000000000E+00 -0.00000000000E+00 -0.23465786435E+03  0.23465786435E+03  0.00000000000E+00 0.  1.
          6    1    1    2  501    0 -0.40668893591E+02 -0.76807693404E+02  0.15718285431E+03  0.24937688417E+03  0.17300000000E+03 0.  1.
         -6    1    1    2    0  503  0.40668893591E+02  0.76807693404E+02 -0.13886551130E+03  0.23825618754E+03  0.17300000000E+03 0.  1.
<mgrwt>
<rscale>  2 0.19360367E+03</rscale>
<asrwt>0</asrwt>
<pdfrwt beam="1">  1       21 0.38919263E-01 0.19360367E+03</pdfrwt>
<pdfrwt beam="2">  1       21 0.36101210E-01 0.19360367E+03</pdfrwt>
<totfact> 0.47081083E+04</totfact>
</mgrwt>
</event>
<event>
 4    1  0.3883260E+000  0.1749381E+03  0.7546771E-02  0.1172794E+00
         21   -1    0    0  503  502  0.00000000000E+00  0.00000000000E+00  0.26771829065E+03  0.26771829065E+03  0.00000000000E+00 0. -1.
         21   -1    0    0  501  503 -0.00000000000E+00 -0.00000000000E+00 -0.11444306440E+03  0.11444306440E+03  0.00000000000E+00 0. -1.
          6    1    1    2  501    0  0.22864246910E+02 -0.12310706780E+02  0.83111955866E+02  0.19367737218E+03  0.17300000000E+03 0. -1.
         -6    1    1    2    0  502 -0.22864246910E+02  0.12310706780E+02  0.70163270378E+02  0.18848398287E+03  0.17300000000E+03 0. -1.
<mgrwt>
<rscale>  2 0.17493807E+03</rscale>
<asrwt>0</asrwt>
<pdfrwt beam="1">  1       21 0.41187429E-01 0.17493807E+03</pdfrwt>
<pdfrwt beam="2">  1       21 0.17606625E-01 0.17493807E+03</pdfrwt>
<totfact> 0.16694714E+05</totfact>
</mgrwt>
</event>
<event>
 4    1  0.3883260E+000  0.1947976E+03  0.7546771E-02  0.1154204E+00
         21   -1    0    0  503  502  0.00000000000E+00  0.00000000000E+00  0.49662968295E+03  0.49662968295E+03  0.00000000000E+00 0.  1.
         21   -1    0    0  501  503 -0.00000000000E+00 -0.00000000000E+00 -0.77404611361E+02  0.77404611361E+02  0.00000000000E+00 0. -1.
          6    1    1    2  501    0 -0.96428672000E+01  0.89017583828E+02  0.24219228414E+03  0.31081058157E+03  0.17300000000E+03 0.  1.
         -6    1    1    2    0  502  0.96428672000E+01 -0.89017583828E+02  0.17703278745E+03  0.26322371274E+03  0.17300000000E+03 0. -1.
<mgrwt>
<rscale>  2 0.19479763E+03</rscale>
<asrwt>0</asrwt>
<pdfrwt beam="1">  1       21 0.76404565E-01 0.19479763E+03</pdfrwt>
<pdfrwt beam="2">  1       21 0.11908402E-01 0.19479763E+03</pdfrwt>
<totfact> 0.90663495E+04</totfact>
</mgrwt>
</event>
<event>
 4    1  0.3883260E+000  0.2301838E+03  0.7546771E-02  0.1126510E+00
         21   -1    0    0  503  502  0.00000000000E+00  0.00000000000E+00  0.59133900597E+03  0.59133900597E+03  0.00000000000E+00 0. -1.
         21   -1    0    0  501  503 -0.00000000000E+00 -0.00000000000E+00 -0.89858862644E+02  0.89858862644E+02  0.00000000000E+00 0.  1.
          6    1    1    2  501    0  0.95673765753E+02  0.11790713314E+03  0.23249423254E+03  0.32716682237E+03  0.17300000000E+03 0. -1.
         -6    1    1    2    0  502 -0.95673765753E+02 -0.11790713314E+03  0.26898591079E+03  0.35403104624E+03  0.17300000000E+03 0.  1.
<mgrwt>
<rscale>  2 0.23018376E+03</rscale>
<asrwt>0</asrwt>
<pdfrwt beam="1">  1       21 0.90975229E-01 0.23018376E+03</pdfrwt>
<pdfrwt beam="2">  1       21 0.13824441E-01 0.23018376E+03</pdfrwt>
<totfact> 0.45761466E+04</totfact>
</mgrwt>
</event>
<event>
 4    1  0.3883260E+000  0.2034123E+03  0.7546771E-02  0.1146892E+00
         21   -1    0    0  501  502  0.00000000000E+00  0.00000000000E+00  0.44325506939E+02  0.44325506939E+02  0.00000000000E+00 0.  1.
         21   -1    0    0  502  503 -0.00000000000E+00 -0.00000000000E+00 -0.94107621308E+03  0.94107621308E+03  0.00000000000E+00 0.  1.
          6    1    1    2  501    0  0.71125869065E+02  0.79929123414E+02 -0.49266888529E+03  0.53300955391E+03  0.17300000000E+03 0.  1.
         -6    1    1    2    0  503 -0.71125869065E+02 -0.79929123414E+02 -0.40408182085E+03  0.45239216612E+03  0.17300000000E+03 0.  1.
<mgrwt>
<rscale>  2 0.20341228E+03</rscale>
<asrwt>0</asrwt>
<pdfrwt beam="1">  1       21 0.68193086E-02 0.20341228E+03</pdfrwt>
<pdfrwt beam="2">  1       21 0.14478096E+00 0.20341228E+03</pdfrwt>
<totfact> 0.51588925E+04</totfact>
</mgrwt>
</event>
<event>
 4    1  0.3883260E+000  0.1897669E+03  0.7546771E-02  0.1158672E+00
         21   -1    0    0  501  502  0.00000000000E+00  0.00000000000E+00  0.97203935275E+03  0.97203935275E+03  0.00000000000E+00 0. -1.
         21   -1    0    0  502  503 -0.00000000000E+00 -0.00000000000E+00 -0.76225997113E+02  0.76225997113E+02  0.00000000000E+00 0. -1.
          6    1    1    2  501    0  0.58482634184E+02 -0.51596925369E+02  0.82367011056E+03  0.84524784072E+03  0.17300000000E+03 0. -1.
         -6    1    1    2    0  503 -0.58482634184E+02  0.51596925369E+02  0.72143245076E+02  0.20301750914E+03  0.17300000000E+03 0. -1.
<mgrwt>
<rscale>  2 0.18976686E+03</rscale>
<asrwt>0</asrwt>
<pdfrwt beam="1">  1       21 0.14954451E+00 0.18976686E+03</pdfrwt>
<pdfrwt beam="2">  1       21 0.11727077E-01 0.18976686E+03</pdfrwt>
<totfact> 0.18459754E+04</totfact>
</mgrwt>
</event>
<event>
 4    1  0.3883260E+000  0.2249911E+03  0.7546771E-02  0.1130216E+00
         21   -1    0    0  501  502  0.00000000000E+00  0.00000000000E+00  0.38777358678E+02  0.38777358678E+02  0.00000000000E+00 0.  1.
         21   -1    0    0  502  503 -0.00000000000E+00 -0.00000000000E+00 -0.14322748954E+04  0.14322748954E+04  0.00000000000E+00 0.  1.
          6    1    1    2  501    0 -0.37625579213E+02 -0.13883923226E+03 -0.47785857786E+03  0.52817595275E+03  0.17300000000E+03 0.  1.
         -6    1    1    2    0  503  0.37625579213E+02  0.13883923226E+03 -0.91563895884E+03  0.94287630131E+03  0.17300000000E+03 0.  1.
<mgrwt>
<rscale>  2 0.22499115E+03</rscale>
<asrwt>0</asrwt>
<pdfrwt beam="1">  1       21 0.59657475E-02 0.22499115E+03</pdfrwt>
<pdfrwt beam="2">  1       21 0.22034998E+00 0.22499115E+03</pdfrwt>
<totfact> 0.19442639E+04</totfact>
</mgrwt>
</event>
<event>
 4    1  0.3883260E+000  0.2369427E+03  0.7546771E-02  0.1121846E+00
         21   -1    0    0  503  502  0.00000000000E+00  0.00000000000E+00  0.16574574362E+03  0.16574574362E+03  0.00000000000E+00 0.  1.
         21   -1    0    0  501  503 -0.00000000000E+00 -0.00000000000E+00 -0.33872820997E+03  0.33872820997E+03  0.00000000000E+00 0.  1.
          6    1    1    2  501    0 -0.16016277773E+03 -0.23679427646E+02 -0.87516944354E+02  0.25258868980E+03  0.17300000000E+03 0.  1.
         -6    1    1    2    0  502  0.16016277773E+03  0.23679427646E+02 -0.85465522002E+02  0.25188526379E+03  0.17300000000E+03 0.  1.
<mgrwt>
<rscale>  2 0.23694267E+03</rscale>
<asrwt>0</asrwt>
<pdfrwt beam="1">  1       21 0.25499345E-01 0.23694267E+03</pdfrwt>
<pdfrwt beam="2">  1       21 0.52112032E-01 0.23694267E+03</pdfrwt>
<totfact> 0.49943922E+04</totfact>
</mgrwt>
</event>
<event>
 4    1  0.3883260E+000  0.2048966E+03  0.7546771E-02  0.1145672E+00
         21   -1    0    0  501  502  0.00000000000E+00  0.00000000000E+00  0.16753245921E+03  0.16753245921E+03  0.00000000000E+00 0. -1.
         21   -1    0    0  502  503 -0.00000000000E+00 -0.00000000000E+00 -0.59159574982E+03  0.59159574982E+03  0.00000000000E+00 0.  1.
          6    1    1    2  501    0 -0.71292429457E+01  0.10955724695E+03  0.76139812444E+02  0.21858611004E+03  0.17300000000E+03 0. -1.
         -6    1    1    2    0  503  0.71292429457E+01 -0.10955724695E+03 -0.50020310306E+03  0.54054209898E+03  0.17300000000E+03 0.  1.
<mgrwt>
<rscale>  2 0.20489660E+03</rscale>
<asrwt>0</asrwt>
<pdfrwt beam="1">  1       21 0.25774225E-01 0.20489660E+03</pdfrwt>
<pdfrwt beam="2">  1       21 0.91014729E-01 0.20489660E+03</pdfrwt>
<totfact> 0.14510121E+04</totfact>
</mgrwt>
</event>
<event>
 4    1  0.3883260E+000  0.2791898E+03  0.7546771E-02  0.1096132E+00
         21   -1    0    0  501  502  0.00000000000E+00  0.00000000000E+00  0.17318961061E+03  0.17318961061E+03  0.00000000000E+00 0. -1.
         21   -1    0    0  502  503 -0.00000000000E+00 -0.00000000000E+00 -0.47931054637E+03  0.47931054637E+03  0.00000000000E+00 0.  1.
          6    1    1    2  501    0 -0.19751777226E+03 -0.94892839382E+02 -0.72474865168E+02  0.28844328282E+03  0.17300000000E+03 0.  1.
         -6    1    1    2    0  503  0.19751777226E+03  0.94892839382E+02 -0.23364607059E+03  0.36405687416E+03  0.17300000000E+03 0. -1.
<mgrwt>
<rscale>  2 0.27918976E+03</rscale>
<asrwt>0</asrwt>
<pdfrwt beam="1">  1       21 0.26644556E-01 0.27918976E+03</pdfrwt>
<pdfrwt beam="2">  1       21 0.73740082E-01 0.27918976E+03</pdfrwt>
<totfact> 0.21175638E+04</totfact>
</mgrwt>
</event>
<event>
 4    1  0.3883260E+000  0.1916636E+03  0.7546771E-02  0.1156969E+00
         21   -1    0    0  503  502  0.00000000000E+00  0.00000000000E+00  0.81397801151E+02  0.81397801151E+02  0.00000000000E+00 0.  1.
         21   -1    0    0  501  503 -0.00000000000E+00 -0.00000000000E+00 -0.45962048575E+03  0.45962048575E+03  0.00000000000E+00 0.  1.
          6    1    1    2  501    0  0.47824525655E+02 -0.67221584675E+02 -0.22550492778E+03  0.29595168381E+03  0.17300000000E+03 0.  1.
         -6    1    1    2    0  502 -0.47824525655E+02  0.67221584675E+02 -0.15271775682E+03  0.24506660309E+03  0.17300000000E+03 0.  1.
<mgrwt>
<rscale>  2 0.19166358E+03</rscale>
<asrwt>0</asrwt>
<pdfrwt beam="1">  1       21 0.12522739E-01 0.19166358E+03</pdfrwt>
<pdfrwt beam="2">  1       21 0.70710843E-01 0.19166358E+03</pdfrwt>
<totfact> 0.98555586E+04</totfact>
</mgrwt>
</event>
<event>
 4    1  0.3883260E+000  0.1812593E+03  0.7546771E-02  0.1166590E+00
         21   -1    0    0  501  502  0.00000000000E+00  0.00000000000E+00  0.45279664180E+03  0.45279664180E+03  0.00000000000E+00 0. -1.
         21   -1    0    0  502  503 -0.00000000000E+00 -0.00000000000E+00 -0.13277650958E+03  0.13277650958E+03  0.00000000000E+00 0. -1.
          6    1    1    2  501    0 -0.37671674583E+02  0.38817123632E+02  0.35718346687E+03  0.40054332245E+03  0.17300000000E+03 0. -1.
         -6    1    1    2    0  503  0.37671674583E+02 -0.38817123632E+02 -0.37163334653E+02  0.18502982893E+03  0.17300000000E+03 0. -1.
<mgrwt>
<rscale>  2 0.18125927E+03</rscale>
<asrwt>0</asrwt>
<pdfrwt beam="1">  1       21 0.69661021E-01 0.18125927E+03</pdfrwt>
<pdfrwt beam="2">  1       21 0.20427155E-01 0.18125927E+03</pdfrwt>
<totfact> 0.41793926E+04</totfact>
</mgrwt>
</event>
<event>
 4    1  0.3883260E+000  0.2533323E+03  0.7546771E-02  0.1111217E+00
         21   -1    0    0  503  502  0.00000000000E+00  0.00000000000E+00  0.18700209680E+03  0.18700209680E+03  0.00000000000E+00 0. -1.
         21   -1    0    0  501  503 -0.00000000000E+00 -0.00000000000E+00 -0.45902485842E+03  0.45902485842E+03  0.00000000000E+00 0. -1.
          6    1    1    2  501    0 -0.70728531080E+02  0.17101389802E+03 -0.29827527257E+03  0.39133798264E+03  0.17300000000E+03 0. -1.
         -6    1    1    2    0  502  0.70728531080E+02 -0.17101389802E+03  0.26252510953E+02  0.25468897259E+03  0.17300000000E+03 0. -1.
<mgrwt>
<rscale>  2 0.25333235E+03</rscale>
<asrwt>0</asrwt>
<pdfrwt beam="1">  1       21 0.28769553E-01 0.25333235E+03</pdfrwt>
<pdfrwt beam="2">  1       21 0.70619209E-01 0.25333235E+03</pdfrwt>
<totfact> 0.20326451E+04</totfact>
</mgrwt>
</event>
<event>
 4    1  0.3883260E+000  0.2160321E+03  0.7546771E-02  0.1136876E+00
         21   -1    0    0  501  502  0.00000000000E+00  0.00000000000E+00  0.98991636936E+02  0.98991636936E+02  0.00000000000E+00 0. -1.
         21   -1    0    0  502  503 -0.00000000000E+00 -0.00000000000E+00 -0.64590525958E+03  0.64590525958E+03  0.00000000000E+00 0. -1.
          6    1    1    2  501    0 -0.39453851355E+02 -0.12322445207E+03 -0.79894649695E+02  0.23033242721E+03  0.17300000000E+03 0. -1.
         -6    1    1    2    0  503  0.39453851355E+02  0.12322445207E+03 -0.46701897295E+03  0.51456446931E+03  0.17300000000E+03 0. -1.
<mgrwt>
<rscale>  2 0.21603211E+03</rscale>
<asrwt>0</asrwt>
<pdfrwt beam="1">  1       21 0.15229483E-01 0.21603211E+03</pdfrwt>
<pdfrwt beam="2">  1       21 0.99370037E-01 0.21603211E+03</pdfrwt>
<totfact> 0.31388687E+04</totfact>
</mgrwt>
</event>
<event>
 4    1  0.3883260E+000  0.1972522E+03  0.7546771E-02  0.1152078E+00
         21   -1    0    0  503  502  0.00000000000E+00  0.00000000000E+00  0.24177184277E+03  0.24177184277E+03  0.00000000000E+00 0.  1.
         21   -1    0    0  501  503 -0.00000000000E+00 -0.00000000000E+00 -0.29440213479E+03  0.29440213479E+03  0.00000000000E+00 0.  1.
          6    1    1    2  501    0 -0.84963813476E+02 -0.41959261741E+02 -0.20682461137E+03  0.28580561421E+03  0.17300000000E+03 0.  1.
         -6    1    1    2    0  502  0.84963813476E+02  0.41959261741E+02  0.15419431935E+03  0.25036836335E+03  0.17300000000E+03 0.  1.
<mgrwt>
<rscale>  2 0.19725220E+03</rscale>
<asrwt>0</asrwt>
<pdfrwt beam="1">  1       21 0.37195668E-01 0.19725220E+03</pdfrwt>
<pdfrwt beam="2">  1       21 0.45292636E-01 0.19725220E+03</pdfrwt>
<totfact> 0.32515475E+04</totfact>
</mgrwt>
</event>
<event>
 4    1  0.3883260E+000  0.1736107E+03  0.7546771E-02  0.1174134E+00
         21   -1    0    0  501  502  0.00000000000E+00  0.00000000000E+00  0.41942116511E+03  0.41942116511E+03  0.00000000000E+00 0.  1.
         21   -1    0    0  502  503 -0.00000000000E+00 -0.00000000000E+00 -0.81280140061E+02  0.81280140061E+02  0.00000000000E+00 0.  1.
          6    1    1    2  501    0 -0.83782995233E+01 -0.11894763335E+02  0.25428746927E+03  0.30790063060E+03  0.17300000000E+03 0.  1.
         -6    1    1    2    0  503  0.83782995233E+01  0.11894763335E+02  0.83853555782E+02  0.19280067457E+03  0.17300000000E+03 0.  1.
<mgrwt>
<rscale>  2 0.17361072E+03</rscale>
<asrwt>0</asrwt>
<pdfrwt beam="1">  1       21 0.64526332E-01 0.17361072E+03</pdfrwt>
<pdfrwt beam="2">  1       21 0.12504637E-01 0.17361072E+03</pdfrwt>
<totfact> 0.12154229E+05</totfact>
</mgrwt>
</event>
<event>
 4    1  0.3883260E+000  0.2046606E+03  0.7546771E-02  0.1145865E+00
         21   -1    0    0  503  502  0.00000000000E+00  0.00000000000E+00  0.17478553328E+04  0.17478553328E+04  0.00000000000E+00 0.  1.
         21   -1    0    0  501  503 -0.00000000000E+00 -0.00000000000E+00 -0.24731882851E+02  0.24731882851E+02  0.00000000000E+00 0.  1.
          6    1    1    2  501    0  0.10322953361E+03  0.36064220894E+02  0.70541303370E+03  0.73450222106E+03  0.17300000000E+03 0.  1.
         -6    1    1    2    0  502 -0.10322953361E+03 -0.36064220894E+02  0.10177104162E+04  0.10380849946E+04  0.17300000000E+03 0.  1.
<mgrwt>
<rscale>  2 0.20466061E+03</rscale>
<asrwt>0</asrwt>
<pdfrwt beam="1">  1       21 0.26890072E+00 0.20466061E+03</pdfrwt>
<pdfrwt beam="2">  1       21 0.38049064E-02 0.20466061E+03</pdfrwt>
<totfact> 0.21744388E+04</totfact>
</mgrwt>
</event>
<event>
 4    1  0.3883260E+000  0.1870474E+03  0.7546771E-02  0.1161152E+00
         21   -1    0    0  501  502  0.00000000000E+00  0.00000000000E+00  0.85661765737E+03  0.85661765737E+03  0.00000000000E+00 0. -1.
         21   -1    0    0  502  503 -0.00000000000E+00 -0.00000000000E+00 -0.41851062837E+02  0.41851062837E+02  0.00000000000E+00 0. -1.
          6    1    1    2  501    0 -0.29528205128E+02  0.64697872457E+02  0.47710853776E+03  0.51246393668E+03  0.17300000000E+03 0.  1.
         -6    1    1    2    0  503  0.29528205128E+02 -0.64697872457E+02  0.33765805677E+03  0.38600478352E+03  0.17300000000E+03 0.  1.
<mgrwt>
<rscale>  2 0.18704740E+03</rscale>
<asrwt>0</asrwt>
<pdfrwt beam="1">  1       21 0.13178732E+00 0.18704740E+03</pdfrwt>
<pdfrwt beam="2">  1       21 0.64386257E-02 0.18704740E+03</pdfrwt>
<totfact> 0.73152341E+04</totfact>
</mgrwt>
</event>
<event>
 4    1  0.3883260E+000  0.2227213E+03  0.7546771E-02  0.1131870E+00
         21   -1    0    0  501  502  0.00000000000E+00  0.00000000000E+00  0.18855601854E+03  0.18855601854E+03  0.00000000000E+00 0. -1.
         21   -1    0    0  502  503 -0.00000000000E+00 -0.00000000000E+00 -0.26791899066E+03  0.26791899066E+03  0.00000000000E+00 0.  1.
          6    1    1    2  501    0 -0.13577771387E+03  0.35216309983E+02 -0.89989371335E+01  0.22290302138E+03  0.17300000000E+03 0.  1.
         -6    1    1    2    0  503  0.13577771387E+03 -0.35216309983E+02 -0.70364034987E+02  0.23357198782E+03  0.17300000000E+03 0.  1.
<mgrwt>
<rscale>  2 0.22272130E+03</rscale>
<asrwt>0</asrwt>
<pdfrwt beam="1">  1       21 0.29008618E-01 0.22272130E+03</pdfrwt>
<pdfrwt beam="2">  1       21 0.41218306E-01 0.22272130E+03</pdfrwt>
<totfact> 0.63633095E+04</totfact>
</mgrwt>
</event>
<event>
 4    1  0.3883260E+000  0.2253347E+03  0.7546771E-02  0.1129967E+00
         21   -1    0    0  503  502  0.00000000000E+00  0.00000000000E+00  0.10170404178E+04  0.10170404178E+04  0.00000000000E+00 0. -1.
         21   -1    0    0  501  503 -0.00000000000E+00 -0.00000000000E+00 -0.57757022260E+02  0.57757022260E+02  0.00000000000E+00 0.  1.
          6    1    1    2  501    0 -0.81358743224E+02 -0.11927910071E+03  0.28174842974E+03  0.36077406590E+03  0.17300000000E+03 0.  1.
         -6    1    1    2    0  502  0.81358743224E+02  0.11927910071E+03  0.67753496578E+03  0.71402337414E+03  0.17300000000E+03 0. -1.
<mgrwt>
<rscale>  2 0.22533475E+03</rscale>
<asrwt>0</asrwt>
<pdfrwt beam="1">  1       21 0.15646774E+00 0.22533475E+03</pdfrwt>
<pdfrwt beam="2">  1       21 0.88856965E-02 0.22533475E+03</pdfrwt>
<totfact> 0.26157921E+04</totfact>
</mgrwt>
</event>
<event>
 4    1  0.3883260E+000  0.2057525E+03  0.7546771E-02  0.1144974E+00
         21   -1    0    0  503  502  0.00000000000E+00  0.00000000000E+00  0.74310790451E+03  0.74310790451E+03  0.00000000000E+00 0.  1.
         21   -1    0    0  501  503 -0.00000000000E+00 -0.00000000000E+00 -0.64812827176E+02  0.64812827176E+02  0.00000000000E+00 0.  1.
          6    1    1    2  501    0 -0.21976125731E+02 -0.10918848226E+03  0.19861601609E+03  0.28597621686E+03  0.17300000000E+03 0.  1.
         -6    1    1    2    0  502  0.21976125731E+02  0.10918848226E+03  0.47967906124E+03  0.52194451482E+03  0.17300000000E+03 0.  1.
<mgrwt>
<rscale>  2 0.20575246E+03</rscale>
<asrwt>0</asrwt>
<pdfrwt beam="1">  1       21 0.11432429E+00 0.20575246E+03</pdfrwt>
<pdfrwt beam="2">  1       21 0.99712047E-02 0.20575246E+03</pdfrwt>
<totfact> 0.48172030E+04</totfact>
</mgrwt>
</event>
<event>
 4    1  0.3883260E+000  0.1739508E+03  0.7546771E-02  0.1173789E+00
         21   -1    0    0  501  502  0.00000000000E+00  0.00000000000E+00  0.61669091613E+03  0.61669091613E+03  0.00000000000E+00 0.  1.
         21   -1    0    0  502  503 -0.00000000000E+00 -0.00000000000E+00 -0.69524975975E+02  0.69524975975E+02  0.00000000000E+00 0. -1.
          6    1    1    2  501    0  0.18117804168E+02  0.12774772582E+01  0.45970450004E+03  0.49151512096E+03  0.17300000000E+03 0.  1.
         -6    1    1    2    0  503 -0.18117804168E+02 -0.12774772582E+01  0.87461440111E+02  0.19470077114E+03  0.17300000000E+03 0. -1.
<mgrwt>
<rscale>  2 0.17395082E+03</rscale>
<asrwt>0</asrwt>
<pdfrwt beam="1">  1       21 0.94875522E-01 0.17395082E+03</pdfrwt>
<pdfrwt beam="2">  1       21 0.10696151E-01 0.17395082E+03</pdfrwt>
<totfact> 0.67510498E+04</totfact>
</mgrwt>
</event>
<event>
 4    1  0.3883260E+000  0.2131232E+03  0.7546771E-02  0.1139116E+00
         21   -1    0    0  503  502  0.00000000000E+00  0.00000000000E+00  0.40419052967E+02  0.40419052967E+02  0.00000000000E+00 0. -1.
         21   -1    0    0  501  503 -0.00000000000E+00 -0.00000000000E+00 -0.12439086690E+04  0.12439086690E+04  0.00000000000E+00 0.  1.
          6    1    1    2  501    0  0.77381255265E+00 -0.12446648504E+03 -0.80131818787E+03  0.82917570086E+03  0.17300000000E+03 0.  1.
         -6    1    1    2    0  502 -0.77381255265E+00  0.12446648504E+03 -0.40217142812E+03  0.45515202107E+03  0.17300000000E+03 0. -1.
<mgrwt>
<rscale>  2 0.21312321E+03</rscale>
<asrwt>0</asrwt>
<pdfrwt beam="1">  1       21 0.62183170E-02 0.21312321E+03</pdfrwt>
<pdfrwt beam="2">  1       21 0.19137053E+00 0.21312321E+03</pdfrwt>
<totfact> 0.27935777E+04</totfact>
</mgrwt>
</event>
<event>
 4    1  0.3883260E+000  0.2002658E+03  0.7546771E-02  0.1149515E+00
         21   -1    0    0  503  502  0.00000000000E+00  0.00000000000E+00  0.16332186148E+03  0.16332186148E+03  0.00000000000E+00 0.  1.
         21   -1    0    0  501  503 -0.00000000000E+00 -0.00000000000E+00 -0.36430088991E+03  0.36430088991E+03  0.00000000000E+00 0.  1.
          6    1    1    2  501    0  0.36528202642E+01 -0.10081698328E+03 -0.25109865705E+03  0.32118054547E+03  0.17300000000E+03 0.  1.
         -6    1    1    2    0  502 -0.36528202642E+01  0.10081698328E+03  0.50119628630E+02  0.20644220592E+03  0.17300000000E+03 0.  1.
<mgrwt>
<rscale>  2 0.20026584E+03</rscale>
<asrwt>0</asrwt>
<pdfrwt beam="1">  1       21 0.25126441E-01 0.20026584E+03</pdfrwt>
<pdfrwt beam="2">  1       21 0.56046290E-01 0.20026584E+03</pdfrwt>
<totfact> 0.44788862E+04</totfact>
</mgrwt>
</event>
<event>
 4    1  0.3883260E+000  0.2375343E+03  0.7546771E-02  0.1121446E+00
         21   -1    0    0  501  502  0.00000000000E+00  0.00000000000E+00  0.25480369556E+03  0.25480369556E+03  0.00000000000E+00 0. -1.
         21   -1    0    0  502  503 -0.00000000000E+00 -0.00000000000E+00 -0.27928898613E+03  0.27928898613E+03  0.00000000000E+00 0. -1.
          6    1    1    2  501    0 -0.15710937076E+03  0.42546301255E+02  0.10929899870E+03  0.26147430705E+03  0.17300000000E+03 0. -1.
         -6    1    1    2    0  503  0.15710937076E+03 -0.42546301255E+02 -0.13378428927E+03  0.27261837463E+03  0.17300000000E+03 0. -1.
<mgrwt>
<rscale>  2 0.23753430E+03</rscale>
<asrwt>0</asrwt>
<pdfrwt beam="1">  1       21 0.39200569E-01 0.23753430E+03</pdfrwt>
<pdfrwt beam="2">  1       21 0.42967536E-01 0.23753430E+03</pdfrwt>
<totfact> 0.31945391E+04</totfact>
</mgrwt>
</event>
<event>
 4    1  0.3883260E+000  0.2011779E+03  0.7546771E-02  0.1148749E+00
         21   -1    0    0  503  502  0.00000000000E+00  0.00000000000E+00  0.16254802749E+03  0.16254802749E+03  0.00000000000E+00 0. -1.
         21   -1    0    0  501  503 -0.00000000000E+00 -0.00000000000E+00 -0.25785302222E+03  0.25785302222E+03  0.00000000000E+00 0.  1.
          6    1    1    2  501    0  0.10239489051E+03  0.76703352010E+01 -0.86627097077E+02  0.21903607373E+03  0.17300000000E+03 0.  1.
         -6    1    1    2    0  502 -0.10239489051E+03 -0.76703352010E+01 -0.86778976591E+01  0.20136497598E+03  0.17300000000E+03 0. -1.
<mgrwt>
<rscale>  2 0.20117790E+03</rscale>
<asrwt>0</asrwt>
<pdfrwt beam="1">  1       21 0.25007389E-01 0.20117790E+03</pdfrwt>
<pdfrwt beam="2">  1       21 0.39669696E-01 0.20117790E+03</pdfrwt>
<totfact> 0.92399545E+04</totfact>
</mgrwt>
</event>
<event>
 4    1  0.3883260E+000  0.2515657E+03  0.7546771E-02  0.1112319E+00
         21   -1    0    0  501  502  0.00000000000E+00  0.00000000000E+00  0.15761449349E+04  0.15761449349E+04  0.00000000000E+00 0. -1.
         21   -1    0    0  502  503 -0.00000000000E+00 -0.00000000000E+00 -0.40434973559E+02  0.40434973559E+02  0.00000000000E+00 0. -1.
          6    1    1    2  501    0  0.12614847280E+03 -0.13207135911E+03  0.83547970496E+03  0.87253172921E+03  0.17300000000E+03 0. -1.
         -6    1    1    2    0  503 -0.12614847280E+03  0.13207135911E+03  0.70023025640E+03  0.74404817926E+03  0.17300000000E+03 0. -1.
<mgrwt>
<rscale>  2 0.25156566E+03</rscale>
<asrwt>0</asrwt>
<pdfrwt beam="1">  1       21 0.24248379E+00 0.25156566E+03</pdfrwt>
<pdfrwt beam="2">  1       21 0.62207664E-02 0.25156566E+03</pdfrwt>
<totfact> 0.13016015E+04</totfact>
</mgrwt>
</event>
<event>
 4    1  0.3883260E+000  0.2261067E+03  0.7546771E-02  0.1129410E+00
         21   -1    0    0  503  502  0.00000000000E+00  0.00000000000E+00  0.48515253054E+03  0.48515253054E+03  0.00000000000E+00 0. -1.
         21   -1    0    0  501  503 -0.00000000000E+00 -0.00000000000E+00 -0.15272099696E+03  0.15272099696E+03  0.00000000000E+00 0. -1.
          6    1    1    2  501    0 -0.50870744081E+02  0.13640891462E+03 -0.11360438600E+02  0.22639188182E+03  0.17300000000E+03 0. -1.
         -6    1    1    2    0  502  0.50870744081E+02 -0.13640891462E+03  0.34379197218E+03  0.41148164568E+03  0.17300000000E+03 0. -1.
<mgrwt>
<rscale>  2 0.22610667E+03</rscale>
<asrwt>0</asrwt>
<pdfrwt beam="1">  1       21 0.74638850E-01 0.22610667E+03</pdfrwt>
<pdfrwt beam="2">  1       21 0.23495538E-01 0.22610667E+03</pdfrwt>
<totfact> 0.26898368E+04</totfact>
</mgrwt>
</event>
<event>
 4    1  0.3883260E+000  0.2761595E+03  0.7546771E-02  0.1097805E+00
         21   -1    0    0  501  502  0.00000000000E+00  0.00000000000E+00  0.19087244696E+03  0.19087244696E+03  0.00000000000E+00 0. -1.
         21   -1    0    0  502  503 -0.00000000000E+00 -0.00000000000E+00 -0.68511793235E+03  0.68511793235E+03  0.00000000000E+00 0.  1.
          6    1    1    2  501    0  0.57927988870E+02 -0.20731475969E+03  0.35649975386E+02  0.27845104099E+03  0.17300000000E+03 0. -1.
         -6    1    1    2    0  503 -0.57927988870E+02  0.20731475969E+03 -0.52989546078E+03  0.59753933832E+03  0.17300000000E+03 0.  1.
<mgrwt>
<rscale>  2 0.27615949E+03</rscale>
<asrwt>0</asrwt>
<pdfrwt beam="1">  1       21 0.29364992E-01 0.27615949E+03</pdfrwt>
<pdfrwt beam="2">  1       21 0.10540276E+00 0.27615949E+03</pdfrwt>
<totfact> 0.76268766E+03</totfact>
</mgrwt>
</event>
<event>
 4    1  0.3883260E+000  0.2076390E+03  0.7546771E-02  0.1143449E+00
         21   -1    0    0  501  502  0.00000000000E+00  0.00000000000E+00  0.87164142119E+03  0.87164142119E+03  0.00000000000E+00 0. -1.
         21   -1    0    0  502  503 -0.00000000000E+00 -0.00000000000E+00 -0.49551299516E+02  0.49551299516E+02  0.00000000000E+00 0. -1.
          6    1    1    2  501    0  0.40532375962E+01  0.11475417216E+03  0.43049487987E+03  0.47795375337E+03  0.17300000000E+03 0. -1.
         -6    1    1    2    0  503 -0.40532375962E+01 -0.11475417216E+03  0.39159524180E+03  0.44323896734E+03  0.17300000000E+03 0. -1.
<mgrwt>
<rscale>  2 0.20763899E+03</rscale>
<asrwt>0</asrwt>
<pdfrwt beam="1">  1       21 0.13409867E+00 0.20763899E+03</pdfrwt>
<pdfrwt beam="2">  1       21 0.76232775E-02 0.20763899E+03</pdfrwt>
<totfact> 0.51724543E+04</totfact>
</mgrwt>
</event>
<event>
 4    1  0.3883260E+000  0.2142424E+03  0.7546771E-02  0.1138250E+00
         21   -1    0    0  503  502  0.00000000000E+00  0.00000000000E+00  0.76433443485E+03  0.76433443485E+03  0.00000000000E+00 0. -1.
         21   -1    0    0  501  503 -0.00000000000E+00 -0.00000000000E+00 -0.21910657886E+03  0.21910657886E+03  0.00000000000E+00 0.  1.
          6    1    1    2  501    0 -0.88781783709E+02 -0.89936750862E+02 -0.14633750178E+03  0.25945035884E+03  0.17300000000E+03 0.  1.
         -6    1    1    2    0  502  0.88781783709E+02  0.89936750862E+02  0.69156535777E+03  0.72399065487E+03  0.17300000000E+03 0. -1.
<mgrwt>
<rscale>  2 0.21424244E+03</rscale>
<asrwt>0</asrwt>
<pdfrwt beam="1">  1       21 0.11758991E+00 0.21424244E+03</pdfrwt>
<pdfrwt beam="2">  1       21 0.33708705E-01 0.21424244E+03</pdfrwt>
<totfact> 0.46267722E+03</totfact>
</mgrwt>
</event>
<event>
 4    1  0.3883260E+000  0.2543147E+03  0.7546771E-02  0.1110608E+00
         21   -1    0    0  501  502  0.00000000000E+00  0.00000000000E+00  0.43474135702E+03  0.43474135702E+03  0.00000000000E+00 0.  1.
         21   -1    0    0  502  503 -0.00000000000E+00 -0.00000000000E+00 -0.19710497172E+03  0.19710497172E+03  0.00000000000E+00 0.  1.
          6    1    1    2  501    0 -0.55568962614E+02 -0.17792987788E+03  0.27526575324E+03  0.37476283962E+03  0.17300000000E+03 0.  1.
         -6    1    1    2    0  503  0.55568962614E+02  0.17792987788E+03 -0.37629367949E+02  0.25708348912E+03  0.17300000000E+03 0.  1.
<mgrwt>
<rscale>  2 0.25431467E+03</rscale>
<asrwt>0</asrwt>
<pdfrwt beam="1">  1       21 0.66883286E-01 0.25431467E+03</pdfrwt>
<pdfrwt beam="2">  1       21 0.30323842E-01 0.25431467E+03</pdfrwt>
<totfact> 0.20670818E+04</totfact>
</mgrwt>
</event>
<event>
 4    1  0.3883260E+000  0.1797151E+03  0.7546771E-02  0.1168079E+00
         21   -1    0    0  503  502  0.00000000000E+00  0.00000000000E+00  0.55569137333E+03  0.55569137333E+03  0.00000000000E+00 0.  1.
         21   -1    0    0  501  503 -0.00000000000E+00 -0.00000000000E+00 -0.79851433113E+02  0.79851433113E+02  0.00000000000E+00 0.  1.
          6    1    1    2  501    0 -0.23890797986E+02 -0.42399682618E+02  0.72150450755E+02  0.19365740590E+03  0.17300000000E+03 0.  1.
         -6    1    1    2    0  502  0.23890797986E+02  0.42399682618E+02  0.40368948946E+03  0.44188540055E+03  0.17300000000E+03 0.  1.
<mgrwt>
<rscale>  2 0.17971506E+03</rscale>
<asrwt>0</asrwt>
<pdfrwt beam="1">  1       21 0.85490978E-01 0.17971506E+03</pdfrwt>
<pdfrwt beam="2">  1       21 0.12284836E-01 0.17971506E+03</pdfrwt>
<totfact> 0.66929033E+04</totfact>
</mgrwt>
</event>
<event>
 4    1  0.3883260E+000  0.1830040E+03  0.7546771E-02  0.1164927E+00
         21   -1    0    0  501  502  0.00000000000E+00  0.00000000000E+00  0.10198208873E+03  0.10198208873E+03  0.00000000000E+00 0.  1.
         21   -1    0    0  502  503 -0.00000000000E+00 -0.00000000000E+00 -0.34358875532E+03  0.34358875532E+03  0.00000000000E+00 0.  1.
          6    1    1    2  501    0 -0.54368377214E+02  0.24607672075E+02 -0.73955138163E+02  0.19738242178E+03  0.17300000000E+03 0.  1.
         -6    1    1    2    0  503  0.54368377214E+02 -0.24607672075E+02 -0.16765152843E+03  0.24818842227E+03  0.17300000000E+03 0.  1.
<mgrwt>
<rscale>  2 0.18300398E+03</rscale>
<asrwt>0</asrwt>
<pdfrwt beam="1">  1       21 0.15689552E-01 0.18300398E+03</pdfrwt>
<pdfrwt beam="2">  1       21 0.52859809E-01 0.18300398E+03</pdfrwt>
<totfact> 0.12298742E+05</totfact>
</mgrwt>
</event>
<event>
 4    1  0.3883260E+000  0.2095053E+03  0.7546771E-02  0.1141958E+00
         21   -1    0    0  501  502  0.00000000000E+00  0.00000000000E+00  0.72556318059E+02  0.72556318059E+02  0.00000000000E+00 0. -1.
         21   -1    0    0  502  503 -0.00000000000E+00 -0.00000000000E+00 -0.69181981877E+03  0.69181981877E+03  0.00000000000E+00 0. -1.
          6    1    1    2  501    0 -0.42250652609E+02  0.11035565648E+03 -0.17419678725E+03  0.27246469358E+03  0.17300000000E+03 0. -1.
         -6    1    1    2    0  503  0.42250652609E+02 -0.11035565648E+03 -0.44506671346E+03  0.49191144324E+03  0.17300000000E+03 0. -1.
<mgrwt>
<rscale>  2 0.20950534E+03</rscale>
<asrwt>0</asrwt>
<pdfrwt beam="1">  1       21 0.11162511E-01 0.20950534E+03</pdfrwt>
<pdfrwt beam="2">  1       21 0.10643382E+00 0.20950534E+03</pdfrwt>
<totfact> 0.46803691E+04</totfact>
</mgrwt>
</event>
<event>
 4    1  0.3883260E+000  0.2491243E+03  0.7546771E-02  0.1113860E+00
         21   -1    0    0  501  502  0.00000000000E+00  0.00000000000E+00  0.59143574368E+02  0.59143574368E+02  0.00000000000E+00 0.  1.
         21   -1    0    0  502  503 -0.00000000000E+00 -0.00000000000E+00 -0.13301920189E+04  0.13301920189E+04  0.00000000000E+00 0.  1.
          6    1    1    2  501    0  0.11313984782E+03  0.13904413554E+03 -0.31633856631E+03  0.40265740441E+03  0.17300000000E+03 0.  1.
         -6    1    1    2    0  503 -0.11313984782E+03 -0.13904413554E+03 -0.95470987821E+03  0.98667818885E+03  0.17300000000E+03 0.  1.
<mgrwt>
<rscale>  2 0.24912426E+03</rscale>
<asrwt>0</asrwt>
<pdfrwt beam="1">  1       21 0.90990113E-02 0.24912426E+03</pdfrwt>
<pdfrwt beam="2">  1       21 0.20464493E+00 0.24912426E+03</pdfrwt>
<totfact> 0.11518322E+04</totfact>
</mgrwt>
</event>
<event>
 4    1  0.3883260E+000  0.2263318E+03  0.7546771E-02  0.1129249E+00
         21   -1    0    0  501  502  0.00000000000E+00  0.00000000000E+00  0.22758158948E+03  0.22758158948E+03  0.00000000000E+00 0.  1.
         21   -1    0    0  502  503 -0.00000000000E+00 -0.00000000000E+00 -0.48391373414E+03  0.48391373414E+03  0.00000000000E+00 0.  1.
          6    1    1    2  501    0 -0.41585563659E+02 -0.13988473331E+03  0.13200620752E+03  0.26201476398E+03  0.17300000000E+03 0.  1.
         -6    1    1    2    0  503  0.41585563659E+02  0.13988473331E+03 -0.38833835218E+03  0.44948055964E+03  0.17300000000E+03 0.  1.
<mgrwt>
<rscale>  2 0.22633183E+03</rscale>
<asrwt>0</asrwt>
<pdfrwt beam="1">  1       21 0.35012553E-01 0.22633183E+03</pdfrwt>
<pdfrwt beam="2">  1       21 0.74448266E-01 0.22633183E+03</pdfrwt>
<totfact> 0.12441460E+04</totfact>
</mgrwt>
</event>
<event>
 4    1  0.3883260E+000  0.2434687E+03  0.7546771E-02  0.1117503E+00
         21   -1    0    0  501  502  0.00000000000E+00  0.00000000000E+00  0.23728800766E+02  0.23728800766E+02  0.00000000000E+00 0.  1.
         21   -1    0    0  502  503 -0.00000000000E+00 -0.00000000000E+00 -0.29203066057E+04  0.29203066057E+04  0.00000000000E+00 0.  1.
          6    1    1    2  501    0  0.14203265474E+03 -0.95784722742E+02 -0.88858313491E+03  0.92133434527E+03  0.17300000000E+03 0.  1.
         -6    1    1    2    0  503 -0.14203265474E+03  0.95784722742E+02 -0.20079946700E+04  0.20227010612E+04  0.17300000000E+03 0.  1.
<mgrwt>
<rscale>  2 0.24346866E+03</rscale>
<asrwt>0</asrwt>
<pdfrwt beam="1">  1       21 0.36505828E-02 0.24346866E+03</pdfrwt>
<pdfrwt beam="2">  1       21 0.44927818E+00 0.24346866E+03</pdfrwt>
<totfact> 0.17930120E+03</totfact>
</mgrwt>
</event>
<event>
 4    1  0.3883260E+000  0.2006264E+03  0.7546771E-02  0.1149212E+00
         21   -1    0    0  503  502  0.00000000000E+00  0.00000000000E+00  0.23083084533E+03  0.23083084533E+03  0.00000000000E+00 0.  1.
         21   -1    0    0  501  503 -0.00000000000E+00 -0.00000000000E+00 -0.17534067509E+03  0.17534067509E+03  0.00000000000E+00 0.  1.
          6    1    1    2  501    0 -0.98604179559E+02 -0.24477851353E+02  0.12667625676E+02  0.20102591418E+03  0.17300000000E+03 0.  1.
         -6    1    1    2    0  502  0.98604179559E+02  0.24477851353E+02  0.42822544572E+02  0.20514560623E+03  0.17300000000E+03 0.  1.
<mgrwt>
<rscale>  2 0.20062639E+03</rscale>
<asrwt>0</asrwt>
<pdfrwt beam="1">  1       21 0.35512438E-01 0.20062639E+03</pdfrwt>
<pdfrwt beam="2">  1       21 0.26975489E-01 0.20062639E+03</pdfrwt>
<totfact> 0.99773747E+04</totfact>
</mgrwt>
</event>
<event>
 4    1  0.3883260E+000  0.2249159E+03  0.7546771E-02  0.1130270E+00
         21   -1    0    0  503  502  0.00000000000E+00  0.00000000000E+00  0.10266051803E+03  0.10266051803E+03  0.00000000000E+00 0.  1.
         21   -1    0    0  501  503 -0.00000000000E+00 -0.00000000000E+00 -0.66652407493E+03  0.66652407493E+03  0.00000000000E+00 0.  1.
          6    1    1    2  501    0 -0.49740515006E+02  0.13484826254E+03 -0.47829968757E+03  0.52854305772E+03  0.17300000000E+03 0. -1.
         -6    1    1    2    0  502  0.49740515006E+02 -0.13484826254E+03 -0.85563869334E+02  0.24064153523E+03  0.17300000000E+03 0. -1.
<mgrwt>
<rscale>  2 0.22491592E+03</rscale>
<asrwt>0</asrwt>
<pdfrwt beam="1">  1       21 0.15793926E-01 0.22491592E+03</pdfrwt>
<pdfrwt beam="2">  1       21 0.10254217E+00 0.22491592E+03</pdfrwt>
<totfact> 0.27111866E+04</totfact>
</mgrwt>
</event>
<event>
 4    1  0.3883260E+000  0.4022673E+03  0.7546771E-02  0.1042997E+00
         21   -1    0    0  501  502  0.00000000000E+00  0.00000000000E+00  0.86433047873E+03  0.86433047873E+03  0.00000000000E+00 0. -1.
         21   -1    0    0  502  503 -0.00000000000E+00 -0.00000000000E+00 -0.32684999266E+03  0.32684999266E+03  0.00000000000E+00 0.  1.
          6    1    1    2  501    0 -0.33671806544E+03 -0.13605472022E+03  0.65802240520E+03  0.77124083672E+03  0.17300000000E+03 0. -1.
         -6    1    1    2    0  503  0.33671806544E+03  0.13605472022E+03 -0.12054191913E+03  0.41993963466E+03  0.17300000000E+03 0.  1.
<mgrwt>
<rscale>  2 0.40226725E+03</rscale>
<asrwt>0</asrwt>
<pdfrwt beam="1">  1       21 0.13297392E+00 0.40226725E+03</pdfrwt>
<pdfrwt beam="2">  1       21 0.50284614E-01 0.40226725E+03</pdfrwt>
<totfact> 0.13365975E+03</totfact>
</mgrwt>
</event>
<event>
 4    1  0.3883260E+000  0.2041432E+03  0.7546771E-02  0.1146290E+00
         21   -1    0    0  501  502  0.00000000000E+00  0.00000000000E+00  0.32838312024E+03  0.32838312024E+03  0.00000000000E+00 0. -1.
         21   -1    0    0  502  503 -0.00000000000E+00 -0.00000000000E+00 -0.26962913362E+03  0.26962913362E+03  0.00000000000E+00 0. -1.
          6    1    1    2  501    0  0.54756390280E+02  0.93526318771E+02  0.24691786835E+03  0.32037925696E+03  0.17300000000E+03 0. -1.
         -6    1    1    2    0  503 -0.54756390280E+02 -0.93526318771E+02 -0.18816388173E+03  0.27763299690E+03  0.17300000000E+03 0. -1.
<mgrwt>
<rscale>  2 0.20414317E+03</rscale>
<asrwt>0</asrwt>
<pdfrwt beam="1">  1       21 0.50520480E-01 0.20414317E+03</pdfrwt>
<pdfrwt beam="2">  1       21 0.41481405E-01 0.20414317E+03</pdfrwt>
<totfact> 0.20723994E+04</totfact>
</mgrwt>
</event>
<event>
 4    1  0.3883260E+000  0.1816268E+03  0.7546771E-02  0.1166238E+00
         21   -1    0    0  503  502  0.00000000000E+00  0.00000000000E+00  0.12517488482E+03  0.12517488482E+03  0.00000000000E+00 0. -1.
         21   -1    0    0  501  503 -0.00000000000E+00 -0.00000000000E+00 -0.30129925099E+03  0.30129925099E+03  0.00000000000E+00 0. -1.
          6    1    1    2  501    0  0.45943363037E+02  0.30797687820E+02 -0.16355212587E+03  0.24441274120E+03  0.17300000000E+03 0.  1.
         -6    1    1    2    0  502 -0.45943363037E+02 -0.30797687820E+02 -0.12572240293E+02  0.18206139461E+03  0.17300000000E+03 0.  1.
<mgrwt>
<rscale>  2 0.18162679E+03</rscale>
<asrwt>0</asrwt>
<pdfrwt beam="1">  1       21 0.19257675E-01 0.18162679E+03</pdfrwt>
<pdfrwt beam="2">  1       21 0.46353731E-01 0.18162679E+03</pdfrwt>
<totfact> 0.11087305E+05</totfact>
</mgrwt>
</event>
<event>
 4    1  0.3883260E+000  0.1744811E+03  0.7546771E-02  0.1173254E+00
         21   -1    0    0  503  502  0.00000000000E+00  0.00000000000E+00  0.14324756646E+04  0.14324756646E+04  0.00000000000E+00 0.  1.
         21   -1    0    0  501  503 -0.00000000000E+00 -0.00000000000E+00 -0.35365555762E+03  0.35365555762E+03  0.00000000000E+00 0.  1.
          6    1    1    2  501    0 -0.35795285914E+01 -0.22402189666E+02 -0.32640600403E+03  0.37011423992E+03  0.17300000000E+03 0.  1.
         -6    1    1    2    0  502  0.35795285914E+01  0.22402189666E+02  0.14052261110E+04  0.14160169823E+04  0.17300000000E+03 0.  1.
<mgrwt>
<rscale>  2 0.17448115E+03</rscale>
<asrwt>0</asrwt>
<pdfrwt beam="1">  1       21 0.22038087E+00 0.17448115E+03</pdfrwt>
<pdfrwt beam="2">  1       21 0.54408548E-01 0.17448115E+03</pdfrwt>
<totfact> 0.32742823E+02</totfact>
</mgrwt>
</event>
<event>
 4    1  0.3883260E+000  0.1834062E+03  0.7546771E-02  0.1164547E+00
         21   -1    0    0  501  502  0.00000000000E+00  0.00000000000E+00  0.87209107634E+03  0.87209107634E+03  0.00000000000E+00 0. -1.
         21   -1    0    0  502  503 -0.00000000000E+00 -0.00000000000E+00 -0.89448106322E+02  0.89448106322E+02  0.00000000000E+00 0. -1.
          6    1    1    2  501    0  0.13850595545E+02  0.59304145062E+02  0.75390719169E+03  0.77589553053E+03  0.17300000000E+03 0. -1.
         -6    1    1    2    0  503 -0.13850595545E+02 -0.59304145062E+02  0.28735778323E+02  0.18564365213E+03  0.17300000000E+03 0. -1.
<mgrwt>
<rscale>  2 0.18340616E+03</rscale>
<asrwt>0</asrwt>
<pdfrwt beam="1">  1       21 0.13416785E+00 0.18340616E+03</pdfrwt>
<pdfrwt beam="2">  1       21 0.13761248E-01 0.18340616E+03</pdfrwt>
<totfact> 0.18417282E+04</totfact>
</mgrwt>
</event>
<event>
 4    1  0.3883260E+000  0.3258328E+03  0.7546771E-02  0.1072996E+00
         21   -1    0    0  503  502  0.00000000000E+00  0.00000000000E+00  0.10452738311E+03  0.10452738311E+03  0.00000000000E+00 0.  1.
         21   -1    0    0  501  503 -0.00000000000E+00 -0.00000000000E+00 -0.11098454382E+04  0.11098454382E+04  0.00000000000E+00 0. -1.
          6    1    1    2  501    0 -0.25752204102E+03 -0.99601368765E+02 -0.67951590701E+03  0.75359730768E+03  0.17300000000E+03 0.  1.
         -6    1    1    2    0  502  0.25752204102E+03  0.99601368765E+02 -0.32580214808E+03  0.46077551363E+03  0.17300000000E+03 0. -1.
<mgrwt>
<rscale>  2 0.32583283E+03</rscale>
<asrwt>0</asrwt>
<pdfrwt beam="1">  1       21 0.16081136E-01 0.32583283E+03</pdfrwt>
<pdfrwt beam="2">  1       21 0.17074545E+00 0.32583283E+03</pdfrwt>
<totfact> 0.66812167E+03</totfact>
</mgrwt>
</event>
<event>
 4    1  0.3883260E+000  0.2415257E+03  0.7546771E-02  0.1118781E+00
         21   -1    0    0  501  502  0.00000000000E+00  0.00000000000E+00  0.20133766886E+03  0.20133766886E+03  0.00000000000E+00 0.  1.
         21   -1    0    0  502  503 -0.00000000000E+00 -0.00000000000E+00 -0.30326070508E+03  0.30326070508E+03  0.00000000000E+00 0. -1.
          6    1    1    2  501    0 -0.72919745592E+02 -0.15194854446E+03 -0.10424362145E+03  0.26306155568E+03  0.17300000000E+03 0. -1.
         -6    1    1    2    0  503  0.72919745592E+02  0.15194854446E+03  0.23205852275E+01  0.24153681827E+03  0.17300000000E+03 0. -1.
<mgrwt>
<rscale>  2 0.24152567E+03</rscale>
<asrwt>0</asrwt>
<pdfrwt beam="1">  1       21 0.30975026E-01 0.24152567E+03</pdfrwt>
<pdfrwt beam="2">  1       21 0.46655493E-01 0.24152567E+03</pdfrwt>
<totfact> 0.43040068E+04</totfact>
</mgrwt>
</event>
<event>
 4    1  0.3883260E+000  0.1765614E+03  0.7546771E-02  0.1171173E+00
         21   -1    0    0  501  502  0.00000000000E+00  0.00000000000E+00  0.31648976256E+02  0.31648976256E+02  0.00000000000E+00 0. -1.
         21   -1    0    0  502  503 -0.00000000000E+00 -0.00000000000E+00 -0.10376558043E+04  0.10376558043E+04  0.00000000000E+00 0. -1.
          6    1    1    2  501    0 -0.90341043322E+01 -0.34107515883E+02 -0.38255319960E+03  0.42133227767E+03  0.17300000000E+03 0. -1.
         -6    1    1    2    0  503  0.90341043322E+01  0.34107515883E+02 -0.62345362848E+03  0.64797250293E+03  0.17300000000E+03 0. -1.
<mgrwt>
<rscale>  2 0.17656143E+03</rscale>
<asrwt>0</asrwt>
<pdfrwt beam="1">  1       21 0.48690738E-02 0.17656143E+03</pdfrwt>
<pdfrwt beam="2">  1       21 0.15963934E+00 0.17656143E+03</pdfrwt>
<totfact> 0.71867632E+04</totfact>
</mgrwt>
</event>
<event>
 4    1  0.3883260E+000  0.1860317E+03  0.7546771E-02  0.1162090E+00
         21   -1    0    0  503  502  0.00000000000E+00  0.00000000000E+00  0.11182629655E+03  0.11182629655E+03  0.00000000000E+00 0. -1.
         21   -1    0    0  501  503 -0.00000000000E+00 -0.00000000000E+00 -0.33445469397E+03  0.33445469397E+03  0.00000000000E+00 0. -1.
          6    1    1    2  501    0  0.38965950347E+02  0.56217886532E+02 -0.17229257622E+03  0.25355971264E+03  0.17300000000E+03 0. -1.
         -6    1    1    2    0  502 -0.38965950347E+02 -0.56217886532E+02 -0.50335821198E+02  0.19272127788E+03  0.17300000000E+03 0. -1.
<mgrwt>
<rscale>  2 0.18603171E+03</rscale>
<asrwt>0</asrwt>
<pdfrwt beam="1">  1       21 0.17204046E-01 0.18603171E+03</pdfrwt>
<pdfrwt beam="2">  1       21 0.51454568E-01 0.18603171E+03</pdfrwt>
<totfact> 0.10979341E+05</totfact>
</mgrwt>
</event>
<event>
 4    1  0.3883260E+000  0.1898695E+03  0.7546771E-02  0.1158579E+00
         21   -1    0    0  501  502  0.00000000000E+00  0.00000000000E+00  0.15784147155E+03  0.15784147155E+03  0.00000000000E+00 0.  1.
         21   -1    0    0  502  503 -0.00000000000E+00 -0.00000000000E+00 -0.23201109606E+03  0.23201109606E+03  0.00000000000E+00 0. -1.
          6    1    1    2  501    0  0.63384318875E+02 -0.45867966452E+02 -0.12754654058E+02  0.19029746038E+03  0.17300000000E+03 0.  1.
         -6    1    1    2    0  503 -0.63384318875E+02  0.45867966452E+02 -0.61414970448E+02  0.19955510723E+03  0.17300000000E+03 0.  1.
<mgrwt>
<rscale>  2 0.18986954E+03</rscale>
<asrwt>0</asrwt>
<pdfrwt beam="1">  1       21 0.24283304E-01 0.18986954E+03</pdfrwt>
<pdfrwt beam="2">  1       21 0.35694014E-01 0.18986954E+03</pdfrwt>
<totfact> 0.12129095E+05</totfact>
</mgrwt>
</event>
<event>
 4    1  0.3883260E+000  0.4831517E+03  0.7546771E-02  0.1018273E+00
         21   -1    0    0  501  502  0.00000000000E+00  0.00000000000E+00  0.14149080995E+03  0.14149080995E+03  0.00000000000E+00 0. -1.
         21   -1    0    0  502  503 -0.00000000000E+00 -0.00000000000E+00 -0.24192883854E+04  0.24192883854E+04  0.00000000000E+00 0. -1.
          6    1    1    2  501    0 -0.37482163220E+03  0.25102842193E+03 -0.41680867122E+03  0.63809481504E+03  0.17300000000E+03 0. -1.
         -6    1    1    2    0  503  0.37482163220E+03 -0.25102842193E+03 -0.18609889042E+04  0.19226843803E+04  0.17300000000E+03 0. -1.
<mgrwt>
<rscale>  2 0.48315166E+03</rscale>
<asrwt>0</asrwt>
<pdfrwt beam="1">  1       21 0.21767816E-01 0.48315166E+03</pdfrwt>
<pdfrwt beam="2">  1       21 0.37219823E+00 0.48315166E+03</pdfrwt>
<totfact> 0.19060356E+02</totfact>
</mgrwt>
</event>
<event>
 4    1  0.3883260E+000  0.1772681E+03  0.7546771E-02  0.1170474E+00
         21   -1    0    0  501  502  0.00000000000E+00  0.00000000000E+00  0.30225521441E+03  0.30225521441E+03  0.00000000000E+00 0. -1.
         21   -1    0    0  502  503 -0.00000000000E+00 -0.00000000000E+00 -0.38722387055E+03  0.38722387055E+03  0.00000000000E+00 0. -1.
          6    1    1    2  501    0 -0.29445859733E+02  0.25058050221E+02  0.25236612311E+03  0.30840334731E+03  0.17300000000E+03 0. -1.
         -6    1    1    2    0  503  0.29445859733E+02 -0.25058050221E+02 -0.33733477925E+03  0.38107573766E+03  0.17300000000E+03 0. -1.
<mgrwt>
<rscale>  2 0.17726806E+03</rscale>
<asrwt>0</asrwt>
<pdfrwt beam="1">  1       21 0.46500803E-01 0.17726806E+03</pdfrwt>
<pdfrwt beam="2">  1       21 0.59572903E-01 0.17726806E+03</pdfrwt>
<totfact> 0.11775910E+04</totfact>
</mgrwt>
</event>
<event>
 4    1  0.3883260E+000  0.2193861E+03  0.7546771E-02  0.1134342E+00
         21   -1    0    0  503  502  0.00000000000E+00  0.00000000000E+00  0.49715601523E+03  0.49715601523E+03  0.00000000000E+00 0.  1.
         21   -1    0    0  501  503 -0.00000000000E+00 -0.00000000000E+00 -0.12209382604E+03  0.12209382604E+03  0.00000000000E+00 0. -1.
          6    1    1    2  501    0  0.12527916658E+03  0.50064002584E+02  0.46634633075E+02  0.22428790189E+03  0.17300000000E+03 0.  1.
         -6    1    1    2    0  502 -0.12527916658E+03 -0.50064002584E+02  0.32842755612E+03  0.39496193937E+03  0.17300000000E+03 0. -1.
<mgrwt>
<rscale>  2 0.21938613E+03</rscale>
<asrwt>0</asrwt>
<pdfrwt beam="1">  1       21 0.76485539E-01 0.21938613E+03</pdfrwt>
<pdfrwt beam="2">  1       21 0.18783666E-01 0.21938613E+03</pdfrwt>
<totfact> 0.38941863E+04</totfact>
</mgrwt>
</event>
<event>
 4    1  0.3883260E+000  0.2412953E+03  0.7546771E-02  0.1118933E+00
         21   -1    0    0  503  502  0.00000000000E+00  0.00000000000E+00  0.54700755356E+02  0.54700755356E+02  0.00000000000E+00 0. -1.
         21   -1    0    0  501  503 -0.00000000000E+00 -0.00000000000E+00 -0.10753504889E+04  0.10753504889E+04  0.00000000000E+00 0. -1.
          6    1    1    2  501    0  0.16791103491E+03  0.10014260523E+02 -0.56734653819E+03  0.61652696247E+03  0.17300000000E+03 0. -1.
         -6    1    1    2    0  502 -0.16791103491E+03 -0.10014260523E+02 -0.45330319533E+03  0.51352428175E+03  0.17300000000E+03 0. -1.
<mgrwt>
<rscale>  2 0.24129526E+03</rscale>
<asrwt>0</asrwt>
<pdfrwt beam="1">  1       21 0.84155014E-02 0.24129526E+03</pdfrwt>
<pdfrwt beam="2">  1       21 0.16543853E+00 0.24129526E+03</pdfrwt>
<totfact> 0.24501310E+04</totfact>
</mgrwt>
</event>
<event>
 4    1  0.3883260E+000  0.1816787E+03  0.7546771E-02  0.1166188E+00
         21   -1    0    0  503  502  0.00000000000E+00  0.00000000000E+00  0.10072533482E+04  0.10072533482E+04  0.00000000000E+00 0. -1.
         21   -1    0    0  501  503 -0.00000000000E+00 -0.00000000000E+00 -0.68954501619E+02  0.68954501619E+02  0.00000000000E+00 0. -1.
          6    1    1    2  501    0 -0.54852464201E+02  0.83290707868E+01  0.79342741539E+02  0.19824842215E+03  0.17300000000E+03 0. -1.
         -6    1    1    2    0  502  0.54852464201E+02 -0.83290707868E+01  0.85895610505E+03  0.87795942768E+03  0.17300000000E+03 0. -1.
<mgrwt>
<rscale>  2 0.18167874E+03</rscale>
<asrwt>0</asrwt>
<pdfrwt beam="1">  1       21 0.15496204E+00 0.18167874E+03</pdfrwt>
<pdfrwt beam="2">  1       21 0.10608386E-01 0.18167874E+03</pdfrwt>
<totfact> 0.20196033E+04</totfact>
</mgrwt>
</event>
<event>
 4    1  0.3883260E+000  0.2687458E+03  0.7546771E-02  0.1102000E+00
         21   -1    0    0  501  502  0.00000000000E+00  0.00000000000E+00  0.63640931437E+02  0.63640931437E+02  0.00000000000E+00 0. -1.
         21   -1    0    0  502  503 -0.00000000000E+00 -0.00000000000E+00 -0.11427677441E+04  0.11427677441E+04  0.00000000000E+00 0. -1.
          6    1    1    2  501    0  0.19905787102E+03  0.51684367919E+02 -0.48942361325E+03  0.55835453174E+03  0.17300000000E+03 0. -1.
         -6    1    1    2    0  503 -0.19905787102E+03 -0.51684367919E+02 -0.58970319944E+03  0.64805414383E+03  0.17300000000E+03 0. -1.
<mgrwt>
<rscale>  2 0.26874581E+03</rscale>
<asrwt>0</asrwt>
<pdfrwt beam="1">  1       21 0.97909133E-02 0.26874581E+03</pdfrwt>
<pdfrwt beam="2">  1       21 0.17581041E+00 0.26874581E+03</pdfrwt>
<totfact> 0.15588015E+04</totfact>
</mgrwt>
</event>
<event>
 4    1  0.3883260E+000  0.2292069E+03  0.7546771E-02  0.1127199E+00
         21   -1    0    0  503  502  0.00000000000E+00  0.00000000000E+00  0.29063282225E+02  0.29063282225E+02  0.00000000000E+00 0. -1.
         21   -1    0    0  501  503 -0.00000000000E+00 -0.00000000000E+00 -0.18246408558E+04  0.18246408558E+04  0.00000000000E+00 0.  1.
          6    1    1    2  501    0 -0.24955168387E+02  0.14827019979E+03 -0.98726717565E+03  0.10135246858E+04  0.17300000000E+03 0. -1.
         -6    1    1    2    0  502  0.24955168387E+02 -0.14827019979E+03 -0.80831039791E+03  0.84017945223E+03  0.17300000000E+03 0. -1.
<mgrwt>
<rscale>  2 0.22920692E+03</rscale>
<asrwt>0</asrwt>
<pdfrwt beam="1">  1       21 0.44712727E-02 0.22920692E+03</pdfrwt>
<pdfrwt beam="2">  1       21 0.28071407E+00 0.22920692E+03</pdfrwt>
<totfact> 0.13845540E+04</totfact>
</mgrwt>
</event>
<event>
 4    1  0.3883260E+000  0.2737724E+03  0.7546771E-02  0.1099140E+00
         21   -1    0    0  501  502  0.00000000000E+00  0.00000000000E+00  0.24752937674E+03  0.24752937674E+03  0.00000000000E+00 0.  1.
         21   -1    0    0  502  503 -0.00000000000E+00 -0.00000000000E+00 -0.31359159579E+03  0.31359159579E+03  0.00000000000E+00 0. -1.
          6    1    1    2  501    0 -0.18671949596E+03 -0.10078779528E+03  0.19020176836E+02  0.27443235410E+03  0.17300000000E+03 0. -1.
         -6    1    1    2    0  503  0.18671949596E+03  0.10078779528E+03 -0.85082395880E+02  0.28668861843E+03  0.17300000000E+03 0.  1.
<mgrwt>
<rscale>  2 0.27377244E+03</rscale>
<asrwt>0</asrwt>
<pdfrwt beam="1">  1       21 0.38081443E-01 0.27377244E+03</pdfrwt>
<pdfrwt beam="2">  1       21 0.48244861E-01 0.27377244E+03</pdfrwt>
<totfact> 0.26229846E+04</totfact>
</mgrwt>
</event>
<event>
 4    1  0.3883260E+000  0.1858748E+03  0.7546771E-02  0.1162235E+00
         21   -1    0    0  503  502  0.00000000000E+00  0.00000000000E+00  0.30036567102E+02  0.30036567102E+02  0.00000000000E+00 0.  1.
         21   -1    0    0  501  503 -0.00000000000E+00 -0.00000000000E+00 -0.12257655053E+04  0.12257655053E+04  0.00000000000E+00 0.  1.
          6    1    1    2  501    0  0.11022676106E+02  0.67074177924E+02 -0.75371802971E+03  0.77629911313E+03  0.17300000000E+03 0.  1.
         -6    1    1    2    0  502 -0.11022676106E+02 -0.67074177924E+02 -0.44201090853E+03  0.47950295931E+03  0.17300000000E+03 0.  1.
<mgrwt>
<rscale>  2 0.18587481E+03</rscale>
<asrwt>0</asrwt>
<pdfrwt beam="1">  1       21 0.46210111E-02 0.18587481E+03</pdfrwt>
<pdfrwt beam="2">  1       21 0.18857928E+00 0.18587481E+03</pdfrwt>
<totfact> 0.49196883E+04</totfact>
</mgrwt>
</event>
<event>
 4    1  0.3883260E+000  0.1778310E+03  0.7546771E-02  0.1169919E+00
         21   -1    0    0  501  502  0.00000000000E+00  0.00000000000E+00  0.44833731369E+03  0.44833731369E+03  0.00000000000E+00 0. -1.
         21   -1    0    0  502  503 -0.00000000000E+00 -0.00000000000E+00 -0.70994384436E+02  0.70994384436E+02  0.00000000000E+00 0. -1.
          6    1    1    2  501    0 -0.41095771783E+02 -0.24483482754E+01  0.20953967789E+03  0.27482855288E+03  0.17300000000E+03 0.  1.
         -6    1    1    2    0  503  0.41095771783E+02  0.24483482754E+01  0.16780325137E+03  0.24450314525E+03  0.17300000000E+03 0.  1.
<mgrwt>
<rscale>  2 0.17783098E+03</rscale>
<asrwt>0</asrwt>
<pdfrwt beam="1">  1       21 0.68974970E-01 0.17783098E+03</pdfrwt>
<pdfrwt beam="2">  1       21 0.10922213E-01 0.17783098E+03</pdfrwt>
<totfact> 0.13353759E+05</totfact>
</mgrwt>
</event>
<event>
 4    1  0.3883260E+000  0.1858053E+03  0.7546771E-02  0.1162300E+00
         21   -1    0    0  503  502  0.00000000000E+00  0.00000000000E+00  0.40263818373E+03  0.40263818373E+03  0.00000000000E+00 0. -1.
         21   -1    0    0  501  503 -0.00000000000E+00 -0.00000000000E+00 -0.92921573766E+02  0.92921573766E+02  0.00000000000E+00 0. -1.
          6    1    1    2  501    0  0.56818020269E+02  0.36963687106E+02  0.85991151782E+02  0.20473905289E+03  0.17300000000E+03 0. -1.
         -6    1    1    2    0  502 -0.56818020269E+02 -0.36963687106E+02  0.22372545818E+03  0.29082070461E+03  0.17300000000E+03 0. -1.
<mgrwt>
<rscale>  2 0.18580528E+03</rscale>
<asrwt>0</asrwt>
<pdfrwt beam="1">  1       21 0.61944335E-01 0.18580528E+03</pdfrwt>
<pdfrwt beam="2">  1       21 0.14295627E-01 0.18580528E+03</pdfrwt>
<totfact> 0.10384013E+05</totfact>
</mgrwt>
</event>
<event>
 4    1  0.3883260E+000  0.2172979E+03  0.7546771E-02  0.1135914E+00
         21   -1    0    0  501  502  0.00000000000E+00  0.00000000000E+00  0.31284325484E+03  0.31284325484E+03  0.00000000000E+00 0.  1.
         21   -1    0    0  502  503 -0.00000000000E+00 -0.00000000000E+00 -0.19180423288E+03  0.19180423288E+03  0.00000000000E+00 0. -1.
          6    1    1    2  501    0 -0.82078349437E+02  0.10272536383E+03  0.17699596830E+03  0.28026046566E+03  0.17300000000E+03 0.  1.
         -6    1    1    2    0  503  0.82078349437E+02 -0.10272536383E+03 -0.55956946338E+02  0.22438702205E+03  0.17300000000E+03 0. -1.
<mgrwt>
<rscale>  2 0.21729785E+03</rscale>
<asrwt>0</asrwt>
<pdfrwt beam="1">  1       21 0.48129731E-01 0.21729785E+03</pdfrwt>
<pdfrwt beam="2">  1       21 0.29508344E-01 0.21729785E+03</pdfrwt>
<totfact> 0.44847196E+04</totfact>
</mgrwt>
</event>
<event>
 4    1  0.3883260E+000  0.2040396E+03  0.7546771E-02  0.1146375E+00
         21   -1    0    0  503  502  0.00000000000E+00  0.00000000000E+00  0.46842705317E+03  0.46842705317E+03  0.00000000000E+00 0.  1.
         21   -1    0    0  501  503 -0.00000000000E+00 -0.00000000000E+00 -0.92065495217E+02  0.92065495217E+02  0.00000000000E+00 0. -1.
          6    1    1    2  501    0  0.11317525303E+02  0.10758742377E+03  0.13602279635E+03  0.24522304390E+03  0.17300000000E+03 0. -1.
         -6    1    1    2    0  502 -0.11317525303E+02 -0.10758742377E+03  0.24033876160E+03  0.31526950449E+03  0.17300000000E+03 0. -1.
<mgrwt>
<rscale>  2 0.20403956E+03</rscale>
<asrwt>0</asrwt>
<pdfrwt beam="1">  1       21 0.72065699E-01 0.20403956E+03</pdfrwt>
<pdfrwt beam="2">  1       21 0.14163923E-01 0.20403956E+03</pdfrwt>
<totfact> 0.75261285E+04</totfact>
</mgrwt>
</event>
<event>
 4    1  0.3883260E+000  0.2762450E+03  0.7546771E-02  0.1097758E+00
         21   -1    0    0  503  502  0.00000000000E+00  0.00000000000E+00  0.34950461203E+03  0.34950461203E+03  0.00000000000E+00 0. -1.
         21   -1    0    0  501  503 -0.00000000000E+00 -0.00000000000E+00 -0.28210682169E+03  0.28210682169E+03  0.00000000000E+00 0. -1.
          6    1    1    2  501    0 -0.19392970332E+03  0.93667399322E+02 -0.11644440431E+03  0.29978427380E+03  0.17300000000E+03 0. -1.
         -6    1    1    2    0  502  0.19392970332E+03 -0.93667399322E+02  0.18384219465E+03  0.33182715992E+03  0.17300000000E+03 0. -1.
<mgrwt>
<rscale>  2 0.27624502E+03</rscale>
<asrwt>0</asrwt>
<pdfrwt beam="1">  1       21 0.53769940E-01 0.27624502E+03</pdfrwt>
<pdfrwt beam="2">  1       21 0.43401050E-01 0.27624502E+03</pdfrwt>
<totfact> 0.15959631E+04</totfact>
</mgrwt>
</event>
<event>
 4    1  0.3883260E+000  0.1747568E+03  0.7546771E-02  0.1172976E+00
         21   -1    0    0  503  502  0.00000000000E+00  0.00000000000E+00  0.82805667782E+03  0.82805667782E+03  0.00000000000E+00 0. -1.
         21   -1    0    0  501  503 -0.00000000000E+00 -0.00000000000E+00 -0.39956159608E+02  0.39956159608E+02  0.00000000000E+00 0. -1.
          6    1    1    2  501    0 -0.24368464685E+02  0.41388368785E+01  0.27365634406E+03  0.32469639155E+03  0.17300000000E+03 0. -1.
         -6    1    1    2    0  502  0.24368464685E+02 -0.41388368785E+01  0.51444417415E+03  0.54331644587E+03  0.17300000000E+03 0. -1.
<mgrwt>
<rscale>  2 0.17475684E+03</rscale>
<asrwt>0</asrwt>
<pdfrwt beam="1">  1       21 0.12739332E+00 0.17475684E+03</pdfrwt>
<pdfrwt beam="2">  1       21 0.61471021E-02 0.17475684E+03</pdfrwt>
<totfact> 0.86764598E+04</totfact>
</mgrwt>
</event>
<event>
 4    1  0.3883260E+000  0.2827668E+03  0.7546771E-02  0.1094187E+00
         21   -1    0    0  501  502  0.00000000000E+00  0.00000000000E+00  0.58673216734E+03  0.58673216734E+03  0.00000000000E+00 0. -1.
         21   -1    0    0  502  503 -0.00000000000E+00 -0.00000000000E+00 -0.43439557103E+03  0.43439557103E+03  0.00000000000E+00 0.  1.
          6    1    1    2  501    0  0.47675794242E+02  0.21852936880E+03  0.49913208119E+03  0.57366357812E+03  0.17300000000E+03 0. -1.
         -6    1    1    2    0  503 -0.47675794242E+02 -0.21852936880E+03 -0.34679548488E+03  0.44746416026E+03  0.17300000000E+03 0.  1.
<mgrwt>
<rscale>  2 0.28276681E+03</rscale>
<asrwt>0</asrwt>
<pdfrwt beam="1">  1       21 0.90266487E-01 0.28276681E+03</pdfrwt>
<pdfrwt beam="2">  1       21 0.66830088E-01 0.28276681E+03</pdfrwt>
<totfact> 0.19990862E+03</totfact>
</mgrwt>
</event>
<event>
 4    1  0.3883260E+000  0.1753152E+03  0.7546771E-02  0.1172416E+00
         21   -1    0    0  501  502  0.00000000000E+00  0.00000000000E+00  0.14462740037E+03  0.14462740037E+03  0.00000000000E+00 0. -1.
         21   -1    0    0  502  503 -0.00000000000E+00 -0.00000000000E+00 -0.27334451211E+03  0.27334451211E+03  0.00000000000E+00 0. -1.
          6    1    1    2  501    0 -0.10543748922E+02  0.26367691896E+02  0.34228687438E+02  0.17862538694E+03  0.17300000000E+03 0. -1.
         -6    1    1    2    0  503  0.10543748922E+02 -0.26367691896E+02 -0.16294579917E+03  0.23934652554E+03  0.17300000000E+03 0. -1.
<mgrwt>
<rscale>  2 0.17531522E+03</rscale>
<asrwt>0</asrwt>
<pdfrwt beam="1">  1       21 0.22250369E-01 0.17531522E+03</pdfrwt>
<pdfrwt beam="2">  1       21 0.42053002E-01 0.17531522E+03</pdfrwt>
<totfact> 0.10350592E+05</totfact>
</mgrwt>
</event>
<event>
 4    1  0.3883260E+000  0.1834776E+03  0.7546771E-02  0.1164479E+00
         21   -1    0    0  503  502  0.00000000000E+00  0.00000000000E+00  0.27421384322E+03  0.27421384322E+03  0.00000000000E+00 0.  1.
         21   -1    0    0  501  503 -0.00000000000E+00 -0.00000000000E+00 -0.41467741888E+03  0.41467741888E+03  0.00000000000E+00 0.  1.
          6    1    1    2  501    0  0.15496980063E+02 -0.59117339269E+02 -0.35922747126E+03  0.40337128344E+03  0.17300000000E+03 0.  1.
         -6    1    1    2    0  502 -0.15496980063E+02  0.59117339269E+02  0.21876389561E+03  0.28551997866E+03  0.17300000000E+03 0.  1.
<mgrwt>
<rscale>  2 0.18347756E+03</rscale>
<asrwt>0</asrwt>
<pdfrwt beam="1">  1       21 0.42186745E-01 0.18347756E+03</pdfrwt>
<pdfrwt beam="2">  1       21 0.63796526E-01 0.18347756E+03</pdfrwt>
<totfact> 0.12348019E+04</totfact>
</mgrwt>
</event>
<event>
 4    1  0.3883260E+000  0.1752025E+03  0.7546771E-02  0.1172528E+00
         21   -1    0    0  503  502  0.00000000000E+00  0.00000000000E+00  0.18425656771E+04  0.18425656771E+04  0.00000000000E+00 0. -1.
         21   -1    0    0  501  503 -0.00000000000E+00 -0.00000000000E+00 -0.17043600553E+02  0.17043600553E+02  0.00000000000E+00 0. -1.
          6    1    1    2  501    0  0.21217968849E+02 -0.17796817478E+02  0.77314873781E+03  0.79275147410E+03  0.17300000000E+03 0. -1.
         -6    1    1    2    0  502 -0.21217968849E+02  0.17796817478E+02  0.10523733388E+04  0.10668578036E+04  0.17300000000E+03 0. -1.
<mgrwt>
<rscale>  2 0.17520254E+03</rscale>
<asrwt>0</asrwt>
<pdfrwt beam="1">  1       21 0.28347149E+00 0.17520254E+03</pdfrwt>
<pdfrwt beam="2">  1       21 0.26220938E-02 0.17520254E+03</pdfrwt>
<totfact> 0.34129985E+04</totfact>
</mgrwt>
</event>
<event>
 4    1  0.3883260E+000  0.1776340E+03  0.7546771E-02  0.1170113E+00
         21   -1    0    0  501  502  0.00000000000E+00  0.00000000000E+00  0.31220821543E+03  0.31220821543E+03  0.00000000000E+00 0.  1.
         21   -1    0    0  502  503 -0.00000000000E+00 -0.00000000000E+00 -0.29296339137E+03  0.29296339137E+03  0.00000000000E+00 0. -1.
          6    1    1    2  501    0  0.40150010996E+01  0.40108792987E+02  0.25451502297E+03  0.31037353693E+03  0.17300000000E+03 0.  1.
         -6    1    1    2    0  503 -0.40150010996E+01 -0.40108792987E+02 -0.23527019891E+03  0.29479806988E+03  0.17300000000E+03 0. -1.
<mgrwt>
<rscale>  2 0.17763399E+03</rscale>
<asrwt>0</asrwt>
<pdfrwt beam="1">  1       21 0.48032033E-01 0.17763399E+03</pdfrwt>
<pdfrwt beam="2">  1       21 0.45071291E-01 0.17763399E+03</pdfrwt>
<totfact> 0.19742005E+04</totfact>
</mgrwt>
</event>
<event>
 4    1  0.3883260E+000  0.1986577E+03  0.7546771E-02  0.1150876E+00
         21   -1    0    0  501  502  0.00000000000E+00  0.00000000000E+00  0.64763451368E+03  0.64763451368E+03  0.00000000000E+00 0. -1.
         21   -1    0    0  502  503 -0.00000000000E+00 -0.00000000000E+00 -0.69450931678E+02  0.69450931678E+02  0.00000000000E+00 0. -1.
          6    1    1    2  501    0  0.62434573724E+02  0.75085346193E+02  0.41462762397E+03  0.45976184245E+03  0.17300000000E+03 0.  1.
         -6    1    1    2    0  503 -0.62434573724E+02 -0.75085346193E+02  0.16355595803E+03  0.25732360292E+03  0.17300000000E+03 0.  1.
<mgrwt>
<rscale>  2 0.19865771E+03</rscale>
<asrwt>0</asrwt>
<pdfrwt beam="1">  1       21 0.99636075E-01 0.19865771E+03</pdfrwt>
<pdfrwt beam="2">  1       21 0.10684759E-01 0.19865771E+03</pdfrwt>
<totfact> 0.59583305E+04</totfact>
</mgrwt>
</event>
<event>
 4    1  0.3883260E+000  0.2463148E+03  0.7546771E-02  0.1115656E+00
         21   -1    0    0  501  502  0.00000000000E+00  0.00000000000E+00  0.19492332145E+04  0.19492332145E+04  0.00000000000E+00 0. -1.
         21   -1    0    0  502  503 -0.00000000000E+00 -0.00000000000E+00 -0.56030403075E+02  0.56030403075E+02  0.00000000000E+00 0.  1.
          6    1    1    2  501    0  0.11010729675E+02  0.17498779916E+03  0.16150554449E+04  0.16337304110E+04  0.17300000000E+03 0. -1.
         -6    1    1    2    0  503 -0.11010729675E+02 -0.17498779916E+03  0.27814736656E+03  0.37153320652E+03  0.17300000000E+03 0.  1.
<mgrwt>
<rscale>  2 0.24631477E+03</rscale>
<asrwt>0</asrwt>
<pdfrwt beam="1">  1       21 0.29988198E+00 0.24631477E+03</pdfrwt>
<pdfrwt beam="2">  1       21 0.86200635E-02 0.24631477E+03</pdfrwt>
<totfact> 0.34006806E+03</totfact>
</mgrwt>
</event>
<event>
 4    1  0.3883260E+000  0.3052337E+03  0.7546771E-02  0.1082653E+00
         21   -1    0    0  501  502  0.00000000000E+00  0.00000000000E+00  0.12517183883E+04  0.12517183883E+04  0.00000000000E+00 0. -1.
         21   -1    0    0  502  503 -0.00000000000E+00 -0.00000000000E+00 -0.74589716303E+02  0.74589716303E+02  0.00000000000E+00 0. -1.
          6    1    1    2  501    0  0.24743395094E+03 -0.44889275138E+02  0.55804756644E+03  0.63606972378E+03  0.17300000000E+03 0. -1.
         -6    1    1    2    0  503 -0.24743395094E+03  0.44889275138E+02  0.61908110551E+03  0.69023838078E+03  0.17300000000E+03 0. -1.
<mgrwt>
<rscale>  2 0.30523369E+03</rscale>
<asrwt>0</asrwt>
<pdfrwt beam="1">  1       21 0.19257204E+00 0.30523369E+03</pdfrwt>
<pdfrwt beam="2">  1       21 0.11475342E-01 0.30523369E+03</pdfrwt>
<totfact> 0.88363193E+03</totfact>
</mgrwt>
</event>
<event>
 4    1  0.3883260E+000  0.2072809E+03  0.7546771E-02  0.1143737E+00
         21   -1    0    0  503  502  0.00000000000E+00  0.00000000000E+00  0.92863002689E+02  0.92863002689E+02  0.00000000000E+00 0.  1.
         21   -1    0    0  501  503 -0.00000000000E+00 -0.00000000000E+00 -0.51539260014E+03  0.51539260014E+03  0.00000000000E+00 0. -1.
          6    1    1    2  501    0  0.94775661470E+02  0.63670682108E+02 -0.30853172764E+03  0.37169504803E+03  0.17300000000E+03 0. -1.
         -6    1    1    2    0  502 -0.94775661470E+02 -0.63670682108E+02 -0.11399786981E+03  0.23656055480E+03  0.17300000000E+03 0.  1.
<mgrwt>
<rscale>  2 0.20728092E+03</rscale>
<asrwt>0</asrwt>
<pdfrwt beam="1">  1       21 0.14286616E-01 0.20728092E+03</pdfrwt>
<pdfrwt beam="2">  1       21 0.79291168E-01 0.20728092E+03</pdfrwt>
<totfact> 0.59727941E+04</totfact>
</mgrwt>
</event>
<event>
 4    1  0.3883260E+000  0.1774243E+03  0.7546771E-02  0.1170319E+00
         21   -1    0    0  503  502  0.00000000000E+00  0.00000000000E+00  0.77968133548E+03  0.77968133548E+03  0.00000000000E+00 0. -1.
         21   -1    0    0  501  503 -0.00000000000E+00 -0.00000000000E+00 -0.61825819348E+02  0.61825819348E+02  0.00000000000E+00 0. -1.
          6    1    1    2  501    0  0.26395370140E+02 -0.29217844601E+02  0.11108976559E+03  0.20933306960E+03  0.17300000000E+03 0. -1.
         -6    1    1    2    0  502 -0.26395370140E+02  0.29217844601E+02  0.60676575054E+03  0.63217408523E+03  0.17300000000E+03 0. -1.
<mgrwt>
<rscale>  2 0.17742434E+03</rscale>
<asrwt>0</asrwt>
<pdfrwt beam="1">  1       21 0.11995097E+00 0.17742434E+03</pdfrwt>
<pdfrwt beam="2">  1       21 0.95116650E-02 0.17742434E+03</pdfrwt>
<totfact> 0.47235667E+04</totfact>
</mgrwt>
</event>
<event>
 4    1  0.3883260E+000  0.2575208E+03  0.7546771E-02  0.1108642E+00
         21   -1    0    0  503  502  0.00000000000E+00  0.00000000000E+00  0.32969738742E+03  0.32969738742E+03  0.00000000000E+00 0.  1.
         21   -1    0    0  501  503 -0.00000000000E+00 -0.00000000000E+00 -0.28016316133E+03  0.28016316133E+03  0.00000000000E+00 0. -1.
          6    1    1    2  501    0  0.18510862958E+03  0.46073660262E+02 -0.13717449241E+03  0.29177701808E+03  0.17300000000E+03 0. -1.
         -6    1    1    2    0  502 -0.18510862958E+03 -0.46073660262E+02  0.18670871850E+03  0.31808353066E+03  0.17300000000E+03 0.  1.
<mgrwt>
<rscale>  2 0.25752085E+03</rscale>
<asrwt>0</asrwt>
<pdfrwt beam="1">  1       21 0.50722675E-01 0.25752085E+03</pdfrwt>
<pdfrwt beam="2">  1       21 0.43102025E-01 0.25752085E+03</pdfrwt>
<totfact> 0.18475170E+04</totfact>
</mgrwt>
</event>
<event>
 4    1  0.3883260E+000  0.1788584E+03  0.7546771E-02  0.1168913E+00
         21   -1    0    0  503  502  0.00000000000E+00  0.00000000000E+00  0.75579440135E+02  0.75579440135E+02  0.00000000000E+00 0. -1.
         21   -1    0    0  501  503 -0.00000000000E+00 -0.00000000000E+00 -0.66344808890E+03  0.66344808890E+03  0.00000000000E+00 0. -1.
          6    1    1    2  501    0  0.44134005916E+02  0.10654105786E+02 -0.51626331812E+03  0.54636813055E+03  0.17300000000E+03 0. -1.
         -6    1    1    2    0  502 -0.44134005916E+02 -0.10654105786E+02 -0.71605330652E+02  0.19265939849E+03  0.17300000000E+03 0. -1.
<mgrwt>
<rscale>  2 0.17885838E+03</rscale>
<asrwt>0</asrwt>
<pdfrwt beam="1">  1       21 0.11627606E-01 0.17885838E+03</pdfrwt>
<pdfrwt beam="2">  1       21 0.10206893E+00 0.17885838E+03</pdfrwt>
<totfact> 0.48880011E+04</totfact>
</mgrwt>
</event>
<event>
 4    1  0.3883260E+000  0.1917293E+03  0.7546771E-02  0.1156911E+00
         21   -1    0    0  501  502  0.00000000000E+00  0.00000000000E+00  0.17443581077E+03  0.17443581077E+03  0.00000000000E+00 0. -1.
         21   -1    0    0  502  503 -0.00000000000E+00 -0.00000000000E+00 -0.22924252382E+03  0.22924252382E+03  0.00000000000E+00 0.  1.
          6    1    1    2  501    0 -0.41827756601E+02 -0.71285084030E+02  0.29942959189E+02  0.19405335666E+03  0.17300000000E+03 0. -1.
         -6    1    1    2    0  503  0.41827756601E+02  0.71285084030E+02 -0.84749672235E+02  0.20962497793E+03  0.17300000000E+03 0. -1.
<mgrwt>
<rscale>  2 0.19172930E+03</rscale>
<asrwt>0</asrwt>
<pdfrwt beam="1">  1       21 0.26836279E-01 0.19172930E+03</pdfrwt>
<pdfrwt beam="2">  1       21 0.35268081E-01 0.19172930E+03</pdfrwt>
<totfact> 0.10253333E+05</totfact>
</mgrwt>
</event>
<event>
 4    1  0.3883260E+000  0.1791154E+03  0.7546771E-02  0.1168662E+00
         21   -1    0    0  503  502  0.00000000000E+00  0.00000000000E+00  0.12759270830E+03  0.12759270830E+03  0.00000000000E+00 0. -1.
         21   -1    0    0  501  503 -0.00000000000E+00 -0.00000000000E+00 -0.69759175362E+03  0.69759175362E+03  0.00000000000E+00 0. -1.
          6    1    1    2  501    0  0.28902157678E+01  0.46313850711E+02 -0.61495861028E+03  0.64051262163E+03  0.17300000000E+03 0. -1.
         -6    1    1    2    0  502 -0.28902157678E+01 -0.46313850711E+02  0.44959564962E+02  0.18467184029E+03  0.17300000000E+03 0. -1.
<mgrwt>
<rscale>  2 0.17911540E+03</rscale>
<asrwt>0</asrwt>
<pdfrwt beam="1">  1       21 0.19629648E-01 0.17911540E+03</pdfrwt>
<pdfrwt beam="2">  1       21 0.10732180E+00 0.17911540E+03</pdfrwt>
<totfact> 0.16714947E+04</totfact>
</mgrwt>
</event>
<event>
 4    1  0.3883260E+000  0.2642534E+03  0.7546771E-02  0.1104614E+00
         21   -1    0    0  501  502  0.00000000000E+00  0.00000000000E+00  0.54336673503E+03  0.54336673503E+03  0.00000000000E+00 0.  1.
         21   -1    0    0  502  503 -0.00000000000E+00 -0.00000000000E+00 -0.12857558397E+03  0.12857558397E+03  0.00000000000E+00 0.  1.
          6    1    1    2  501    0  0.24288508176E+02  0.19826989566E+03  0.21478673172E+03  0.34053373295E+03  0.17300000000E+03 0.  1.
         -6    1    1    2    0  503 -0.24288508176E+02 -0.19826989566E+03  0.20000441934E+03  0.33140858605E+03  0.17300000000E+03 0.  1.
<mgrwt>
<rscale>  2 0.26425344E+03</rscale>
<asrwt>0</asrwt>
<pdfrwt beam="1">  1       21 0.83594881E-01 0.26425344E+03</pdfrwt>
<pdfrwt beam="2">  1       21 0.19780859E-01 0.26425344E+03</pdfrwt>
<totfact> 0.28294245E+04</totfact>
</mgrwt>
</event>
<event>
 4    1  0.3883260E+000  0.2496517E+03  0.7546771E-02  0.1113525E+00
         21   -1    0    0  503  502  0.00000000000E+00  0.00000000000E+00  0.46250263719E+03  0.46250263719E+03  0.00000000000E+00 0. -1.
         21   -1    0    0  501  503 -0.00000000000E+00 -0.00000000000E+00 -0.25635939924E+03  0.25635939924E+03  0.00000000000E+00 0. -1.
          6    1    1    2  501    0  0.89986927974E+02 -0.15588237905E+03 -0.14447676163E+03  0.28844323177E+03  0.17300000000E+03 0. -1.
         -6    1    1    2    0  502 -0.89986927974E+02  0.15588237905E+03  0.35061999957E+03  0.43041880466E+03  0.17300000000E+03 0. -1.
<mgrwt>
<rscale>  2 0.24965168E+03</rscale>
<asrwt>0</asrwt>
<pdfrwt beam="1">  1       21 0.71154252E-01 0.24965168E+03</pdfrwt>
<pdfrwt beam="2">  1       21 0.39439908E-01 0.24965168E+03</pdfrwt>
<totfact> 0.10692733E+04</totfact>
</mgrwt>
</event>
<event>
 4    1  0.3883260E+000  0.1730113E+03  0.7546771E-02  0.1174743E+00
         21   -1    0    0  501  502  0.00000000000E+00  0.00000000000E+00  0.27522295147E+03  0.27522295147E+03  0.00000000000E+00 0. -1.
         21   -1    0    0  502  503 -0.00000000000E+00 -0.00000000000E+00 -0.10909850889E+03  0.10909850889E+03  0.00000000000E+00 0. -1.
          6    1    1    2  501    0  0.19746687275E+01  0.31192735667E-02  0.93786100267E+02  0.19679616848E+03  0.17300000000E+03 0.  1.
         -6    1    1    2    0  503 -0.19746687275E+01 -0.31192735667E-02  0.72338342305E+02  0.18752529188E+03  0.17300000000E+03 0.  1.
<mgrwt>
<rscale>  2 0.17301127E+03</rscale>
<asrwt>0</asrwt>
<pdfrwt beam="1">  1       21 0.42341992E-01 0.17301127E+03</pdfrwt>
<pdfrwt beam="2">  1       21 0.16784386E-01 0.17301127E+03</pdfrwt>
<totfact> 0.17245037E+05</totfact>
</mgrwt>
</event>
<event>
 4    1  0.3883260E+000  0.1832241E+03  0.7546771E-02  0.1164719E+00
         21   -1    0    0  503  502  0.00000000000E+00  0.00000000000E+00  0.29202603979E+03  0.29202603979E+03  0.00000000000E+00 0. -1.
         21   -1    0    0  501  503 -0.00000000000E+00 -0.00000000000E+00 -0.11535381565E+03  0.11535381565E+03  0.00000000000E+00 0. -1.
          6    1    1    2  501    0 -0.60498733952E+01  0.60045676914E+02  0.76422800838E+02  0.19852337085E+03  0.17300000000E+03 0. -1.
         -6    1    1    2    0  502  0.60498733952E+01 -0.60045676914E+02  0.10024942331E+03  0.20885648460E+03  0.17300000000E+03 0. -1.
<mgrwt>
<rscale>  2 0.18322414E+03</rscale>
<asrwt>0</asrwt>
<pdfrwt beam="1">  1       21 0.44927083E-01 0.18322414E+03</pdfrwt>
<pdfrwt beam="2">  1       21 0.17746741E-01 0.18322414E+03</pdfrwt>
<totfact> 0.13745804E+05</totfact>
</mgrwt>
</event>
<event>
 4    1  0.3883260E+000  0.2565515E+03  0.7546771E-02  0.1109233E+00
         21   -1    0    0  501  502  0.00000000000E+00  0.00000000000E+00  0.11804850554E+03  0.11804850554E+03  0.00000000000E+00 0.  1.
         21   -1    0    0  502  503 -0.00000000000E+00 -0.00000000000E+00 -0.62249434138E+03  0.62249434138E+03  0.00000000000E+00 0. -1.
          6    1    1    2  501    0 -0.75574531120E+01  0.18929495895E+03 -0.13263099730E+03  0.28880733721E+03  0.17300000000E+03 0. -1.
         -6    1    1    2    0  503  0.75574531120E+01 -0.18929495895E+03 -0.37181483854E+03  0.45173550971E+03  0.17300000000E+03 0. -1.
<mgrwt>
<rscale>  2 0.25655155E+03</rscale>
<asrwt>0</asrwt>
<pdfrwt beam="1">  1       21 0.18161309E-01 0.25655155E+03</pdfrwt>
<pdfrwt beam="2">  1       21 0.95768359E-01 0.25655155E+03</pdfrwt>
<totfact> 0.24263199E+04</totfact>
</mgrwt>
</event>
<event>
 4    1  0.3883260E+000  0.1785031E+03  0.7546771E-02  0.1169260E+00
         21   -1    0    0  501  502  0.00000000000E+00  0.00000000000E+00  0.54741741317E+03  0.54741741317E+03  0.00000000000E+00 0. -1.
         21   -1    0    0  502  503 -0.00000000000E+00 -0.00000000000E+00 -0.59509503535E+02  0.59509503535E+02  0.00000000000E+00 0. -1.
          6    1    1    2  501    0 -0.42609161903E+02  0.10900621869E+02  0.28885451527E+03  0.33955897165E+03  0.17300000000E+03 0. -1.
         -6    1    1    2    0  503  0.42609161903E+02 -0.10900621869E+02  0.19905339437E+03  0.26736794506E+03  0.17300000000E+03 0. -1.
<mgrwt>
<rscale>  2 0.17850312E+03</rscale>
<asrwt>0</asrwt>
<pdfrwt beam="1">  1       21 0.84218060E-01 0.17850312E+03</pdfrwt>
<pdfrwt beam="2">  1       21 0.91553086E-02 0.17850312E+03</pdfrwt>
<totfact> 0.11663338E+05</totfact>
</mgrwt>
</event>
<event>
 4    1  0.3883260E+000  0.1819241E+03  0.7546771E-02  0.1165954E+00
         21   -1    0    0  503  502  0.00000000000E+00  0.00000000000E+00  0.68215299091E+03  0.68215299091E+03  0.00000000000E+00 0.  1.
         21   -1    0    0  501  503 -0.00000000000E+00 -0.00000000000E+00 -0.50130828492E+02  0.50130828492E+02  0.00000000000E+00 0.  1.
          6    1    1    2  501    0 -0.48299335133E+02  0.28888520134E+02  0.25032769775E+03  0.30945165799E+03  0.17300000000E+03 0.  1.
         -6    1    1    2    0  502  0.48299335133E+02 -0.28888520134E+02  0.38169446467E+03  0.42283216141E+03  0.17300000000E+03 0.  1.
<mgrwt>
<rscale>  2 0.18192408E+03</rscale>
<asrwt>0</asrwt>
<pdfrwt beam="1">  1       21 0.10494661E+00 0.18192408E+03</pdfrwt>
<pdfrwt beam="2">  1       21 0.77124357E-02 0.18192408E+03</pdfrwt>
<totfact> 0.93977165E+04</totfact>
</mgrwt>
</event>
<event>
 4    1  0.3883260E+000  0.1947841E+03  0.7546771E-02  0.1154216E+00
         21   -1    0    0  503  502  0.00000000000E+00  0.00000000000E+00  0.25185237015E+03  0.25185237015E+03  0.00000000000E+00 0.  1.
         21   -1    0    0  501  503 -0.00000000000E+00 -0.00000000000E+00 -0.17580800730E+03  0.17580800730E+03  0.00000000000E+00 0.  1.
          6    1    1    2  501    0  0.89270367812E+02  0.65310615692E+01 -0.42871018450E+02  0.19944617709E+03  0.17300000000E+03 0.  1.
         -6    1    1    2    0  502 -0.89270367812E+02 -0.65310615692E+01  0.11891538130E+03  0.22821420036E+03  0.17300000000E+03 0.  1.
<mgrwt>
<rscale>  2 0.19478412E+03</rscale>
<asrwt>0</asrwt>
<pdfrwt beam="1">  1       21 0.38746519E-01 0.19478412E+03</pdfrwt>
<pdfrwt beam="2">  1       21 0.27047386E-01 0.19478412E+03</pdfrwt>
<totfact> 0.83586280E+04</totfact>
</mgrwt>
</event>
<event>
 4    1  0.3883260E+000  0.3852708E+03  0.7546771E-02  0.1049003E+00
         21   -1    0    0  503  502  0.00000000000E+00  0.00000000000E+00  0.26301819108E+03  0.26301819108E+03  0.00000000000E+00 0.  1.
         21   -1    0    0  501  503 -0.00000000000E+00 -0.00000000000E+00 -0.10268341877E+04  0.10268341877E+04  0.00000000000E+00 0. -1.
          6    1    1    2  501    0 -0.23768344266E+03 -0.24902046211E+03 -0.81473022936E+03  0.90123191027E+03  0.17300000000E+03 0. -1.
         -6    1    1    2    0  502  0.23768344266E+03  0.24902046211E+03  0.50914232713E+02  0.38862046853E+03  0.17300000000E+03 0.  1.
<mgrwt>
<rscale>  2 0.38527083E+03</rscale>
<asrwt>0</asrwt>
<pdfrwt beam="1">  1       21 0.40464338E-01 0.38527083E+03</pdfrwt>
<pdfrwt beam="2">  1       21 0.15797449E+00 0.38527083E+03</pdfrwt>
<totfact> 0.13382432E+03</totfact>
</mgrwt>
</event>
<event>
 4    1  0.3883260E+000  0.1935311E+03  0.7546771E-02  0.1155315E+00
         21   -1    0    0  503  502  0.00000000000E+00  0.00000000000E+00  0.29146536618E+03  0.29146536618E+03  0.00000000000E+00 0. -1.
         21   -1    0    0  501  503 -0.00000000000E+00 -0.00000000000E+00 -0.12990165245E+03  0.12990165245E+03  0.00000000000E+00 0.  1.
          6    1    1    2  501    0  0.84120524597E+02  0.21190229747E+02  0.58923521388E+02  0.20230242180E+03  0.17300000000E+03 0.  1.
         -6    1    1    2    0  502 -0.84120524597E+02 -0.21190229747E+02  0.10264019234E+03  0.21906459682E+03  0.17300000000E+03 0. -1.
<mgrwt>
<rscale>  2 0.19353110E+03</rscale>
<asrwt>0</asrwt>
<pdfrwt beam="1">  1       21 0.44840825E-01 0.19353110E+03</pdfrwt>
<pdfrwt beam="2">  1       21 0.19984870E-01 0.19353110E+03</pdfrwt>
<totfact> 0.11030738E+05</totfact>
</mgrwt>
</event>
<event>
 4    1  0.3883260E+000  0.2129118E+03  0.7546771E-02  0.1139281E+00
         21   -1    0    0  503  502  0.00000000000E+00  0.00000000000E+00  0.10369218321E+03  0.10369218321E+03  0.00000000000E+00 0.  1.
         21   -1    0    0  501  503 -0.00000000000E+00 -0.00000000000E+00 -0.98742176427E+03  0.98742176427E+03  0.00000000000E+00 0.  1.
          6    1    1    2  501    0  0.93372365261E+02 -0.81755970328E+02 -0.84912149891E+03  0.87540776623E+03  0.17300000000E+03 0.  1.
         -6    1    1    2    0  502 -0.93372365261E+02  0.81755970328E+02 -0.34608082148E+02  0.21570618125E+03  0.17300000000E+03 0.  1.
<mgrwt>
<rscale>  2 0.21291181E+03</rscale>
<asrwt>0</asrwt>
<pdfrwt beam="1">  1       21 0.15952644E-01 0.21291181E+03</pdfrwt>
<pdfrwt beam="2">  1       21 0.15191104E+00 0.21291181E+03</pdfrwt>
<totfact> 0.99831617E+03</totfact>
</mgrwt>
</event>
<event>
 4    1  0.3883260E+000  0.1980000E+03  0.7546771E-02  0.1151438E+00
         21   -1    0    0  503  502  0.00000000000E+00  0.00000000000E+00  0.12564011505E+03  0.12564011505E+03  0.00000000000E+00 0. -1.
         21   -1    0    0  501  503 -0.00000000000E+00 -0.00000000000E+00 -0.34674544673E+03  0.34674544673E+03  0.00000000000E+00 0. -1.
          6    1    1    2  501    0 -0.78181162647E+02 -0.56237767442E+02 -0.18528317497E+03  0.27117122932E+03  0.17300000000E+03 0. -1.
         -6    1    1    2    0  502  0.78181162647E+02  0.56237767442E+02 -0.35822156701E+02  0.20121433247E+03  0.17300000000E+03 0. -1.
<mgrwt>
<rscale>  2 0.19799995E+03</rscale>
<asrwt>0</asrwt>
<pdfrwt beam="1">  1       21 0.19329249E-01 0.19799995E+03</pdfrwt>
<pdfrwt beam="2">  1       21 0.53345453E-01 0.19799995E+03</pdfrwt>
<totfact> 0.81651995E+04</totfact>
</mgrwt>
</event>
<event>
 4    1  0.3883260E+000  0.2156919E+03  0.7546771E-02  0.1137136E+00
         21   -1    0    0  501  502  0.00000000000E+00  0.00000000000E+00  0.23355241515E+03  0.23355241515E+03  0.00000000000E+00 0.  1.
         21   -1    0    0  502  503 -0.00000000000E+00 -0.00000000000E+00 -0.24313536049E+03  0.24313536049E+03  0.00000000000E+00 0.  1.
          6    1    1    2  501    0  0.10732020231E+03 -0.71248599183E+02  0.96529851993E+02  0.23630700589E+03  0.17300000000E+03 0.  1.
         -6    1    1    2    0  503 -0.10732020231E+03  0.71248599183E+02 -0.10611279733E+03  0.24038076975E+03  0.17300000000E+03 0.  1.
<mgrwt>
<rscale>  2 0.21569188E+03</rscale>
<asrwt>0</asrwt>
<pdfrwt beam="1">  1       21 0.35931141E-01 0.21569188E+03</pdfrwt>
<pdfrwt beam="2">  1       21 0.37405440E-01 0.21569188E+03</pdfrwt>
<totfact> 0.50924303E+04</totfact>
</mgrwt>
</event>
<event>
 4    1  0.3883260E+000  0.2142657E+03  0.7546771E-02  0.1138232E+00
         21   -1    0    0  503  502  0.00000000000E+00  0.00000000000E+00  0.55448648955E+03  0.55448648955E+03  0.00000000000E+00 0. -1.
         21   -1    0    0  501  503 -0.00000000000E+00 -0.00000000000E+00 -0.24900969060E+03  0.24900969060E+03  0.00000000000E+00 0.  1.
          6    1    1    2  501    0  0.32589616940E+02 -0.12214207616E+03 -0.17549131834E+03  0.27696023670E+03  0.17300000000E+03 0.  1.
         -6    1    1    2    0  502 -0.32589616940E+02  0.12214207616E+03  0.48096811729E+03  0.52653594345E+03  0.17300000000E+03 0. -1.
<mgrwt>
<rscale>  2 0.21426565E+03</rscale>
<asrwt>0</asrwt>
<pdfrwt beam="1">  1       21 0.85305613E-01 0.21426565E+03</pdfrwt>
<pdfrwt beam="2">  1       21 0.38309183E-01 0.21426565E+03</pdfrwt>
<totfact> 0.76897108E+03</totfact>
</mgrwt>
</event>
<event>
 4    1  0.3883260E+000  0.2200891E+03  0.7546771E-02  0.1133817E+00
         21   -1    0    0  501  502  0.00000000000E+00  0.00000000000E+00  0.48388124551E+02  0.48388124551E+02  0.00000000000E+00 0. -1.
         21   -1    0    0  502  503 -0.00000000000E+00 -0.00000000000E+00 -0.10538947813E+04  0.10538947813E+04  0.00000000000E+00 0.  1.
          6    1    1    2  501    0  0.98122691497E+02  0.94245260989E+02 -0.37934625645E+03  0.43856905281E+03  0.17300000000E+03 0.  1.
         -6    1    1    2    0  503 -0.98122691497E+02 -0.94245260989E+02 -0.62616040028E+03  0.66371385301E+03  0.17300000000E+03 0. -1.
<mgrwt>
<rscale>  2 0.22008915E+03</rscale>
<asrwt>0</asrwt>
<pdfrwt beam="1">  1       21 0.74443274E-02 0.22008915E+03</pdfrwt>
<pdfrwt beam="2">  1       21 0.16213765E+00 0.22008915E+03</pdfrwt>
<totfact> 0.32467081E+04</totfact>
</mgrwt>
</event>
<event>
 4    1  0.3883260E+000  0.2043069E+03  0.7546771E-02  0.1146155E+00
         21   -1    0    0  503  502  0.00000000000E+00  0.00000000000E+00  0.18487274505E+03  0.18487274505E+03  0.00000000000E+00 0.  1.
         21   -1    0    0  501  503 -0.00000000000E+00 -0.00000000000E+00 -0.25953291418E+03  0.25953291418E+03  0.00000000000E+00 0.  1.
          6    1    1    2  501    0  0.10600155233E+03 -0.23999959722E+02 -0.11745776933E+03  0.23566428397E+03  0.17300000000E+03 0.  1.
         -6    1    1    2    0  502 -0.10600155233E+03  0.23999959722E+02  0.42797600207E+02  0.20874137526E+03  0.17300000000E+03 0.  1.
<mgrwt>
<rscale>  2 0.20430694E+03</rscale>
<asrwt>0</asrwt>
<pdfrwt beam="1">  1       21 0.28441961E-01 0.20430694E+03</pdfrwt>
<pdfrwt beam="2">  1       21 0.39928141E-01 0.20430694E+03</pdfrwt>
<totfact> 0.71086844E+04</totfact>
</mgrwt>
</event>
<event>
 4    1  0.3883260E+000  0.1733023E+03  0.7546771E-02  0.1174447E+00
         21   -1    0    0  501  502  0.00000000000E+00  0.00000000000E+00  0.13892115432E+03  0.13892115432E+03  0.00000000000E+00 0.  1.
         21   -1    0    0  502  503 -0.00000000000E+00 -0.00000000000E+00 -0.43508845142E+03  0.43508845142E+03  0.00000000000E+00 0.  1.
          6    1    1    2  501    0  0.55124005793E+01 -0.86192850709E+01  0.55489028076E+02  0.18196898327E+03  0.17300000000E+03 0.  1.
         -6    1    1    2    0  503 -0.55124005793E+01  0.86192850709E+01 -0.35165632517E+03  0.39204062247E+03  0.17300000000E+03 0.  1.
<mgrwt>
<rscale>  2 0.17330228E+03</rscale>
<asrwt>0</asrwt>
<pdfrwt beam="1">  1       21 0.21372486E-01 0.17330228E+03</pdfrwt>
<pdfrwt beam="2">  1       21 0.66936684E-01 0.17330228E+03</pdfrwt>
<totfact> 0.42080605E+04</totfact>
</mgrwt>
</event>
<event>
 4    1  0.3883260E+000  0.1932706E+03  0.7546771E-02  0.1155544E+00
         21   -1    0    0  501  502  0.00000000000E+00  0.00000000000E+00  0.69394833228E+02  0.69394833228E+02  0.00000000000E+00 0.  1.
         21   -1    0    0  502  503 -0.00000000000E+00 -0.00000000000E+00 -0.57159578851E+03  0.57159578851E+03  0.00000000000E+00 0.  1.
          6    1    1    2  501    0 -0.71797167192E+02  0.47641103679E+02 -0.17371946341E+03  0.25986912080E+03  0.17300000000E+03 0.  1.
         -6    1    1    2    0  503  0.71797167192E+02 -0.47641103679E+02 -0.32848149187E+03  0.38112150094E+03  0.17300000000E+03 0.  1.
<mgrwt>
<rscale>  2 0.19327056E+03</rscale>
<asrwt>0</asrwt>
<pdfrwt beam="1">  1       21 0.10676128E-01 0.19327056E+03</pdfrwt>
<pdfrwt beam="2">  1       21 0.87937811E-01 0.19327056E+03</pdfrwt>
<totfact> 0.80082884E+04</totfact>
</mgrwt>
</event>
<event>
 4    1  0.3883260E+000  0.2014541E+03  0.7546771E-02  0.1148518E+00
         21   -1    0    0  501  502  0.00000000000E+00  0.00000000000E+00  0.21143134574E+04  0.21143134574E+04  0.00000000000E+00 0.  1.
         21   -1    0    0  502  503 -0.00000000000E+00 -0.00000000000E+00 -0.24123244029E+02  0.24123244029E+02  0.00000000000E+00 0.  1.
          6    1    1    2  501    0  0.81941315239E+02  0.62772539023E+02  0.15283815031E+04  0.15416010476E+04  0.17300000000E+03 0.  1.
         -6    1    1    2    0  503 -0.81941315239E+02 -0.62772539023E+02  0.56180871024E+03  0.59683565384E+03  0.17300000000E+03 0.  1.
<mgrwt>
<rscale>  2 0.20145414E+03</rscale>
<asrwt>0</asrwt>
<pdfrwt beam="1">  1       21 0.32527885E+00 0.20145414E+03</pdfrwt>
<pdfrwt beam="2">  1       21 0.37112700E-02 0.20145414E+03</pdfrwt>
<totfact> 0.10730166E+04</totfact>
</mgrwt>
</event>
<event>
 4    1  0.3883260E+000  0.1900478E+03  0.7546771E-02  0.1158418E+00
         21   -1    0    0  503  502  0.00000000000E+00  0.00000000000E+00  0.37353567748E+03  0.37353567748E+03  0.00000000000E+00 0. -1.
         21   -1    0    0  501  503 -0.00000000000E+00 -0.00000000000E+00 -0.97784630481E+02  0.97784630481E+02  0.00000000000E+00 0.  1.
          6    1    1    2  501    0 -0.39425635665E+02 -0.68079259705E+02  0.11297250447E+03  0.22109037319E+03  0.17300000000E+03 0. -1.
         -6    1    1    2    0  502  0.39425635665E+02  0.68079259705E+02  0.16277854253E+03  0.25022993478E+03  0.17300000000E+03 0.  1.
<mgrwt>
<rscale>  2 0.19004780E+03</rscale>
<asrwt>0</asrwt>
<pdfrwt beam="1">  1       21 0.57467027E-01 0.19004780E+03</pdfrwt>
<pdfrwt beam="2">  1       21 0.15043789E-01 0.19004780E+03</pdfrwt>
<totfact> 0.11099493E+05</totfact>
</mgrwt>
</event>
<event>
 4    1  0.3883260E+000  0.1800587E+03  0.7546771E-02  0.1167746E+00
         21   -1    0    0  501  502  0.00000000000E+00  0.00000000000E+00  0.15654925839E+03  0.15654925839E+03  0.00000000000E+00 0.  1.
         21   -1    0    0  502  503 -0.00000000000E+00 -0.00000000000E+00 -0.20947632085E+03  0.20947632085E+03  0.00000000000E+00 0.  1.
          6    1    1    2  501    0 -0.13536572763E+02 -0.48051019743E+02 -0.69655212174E+01  0.18019338996E+03  0.17300000000E+03 0.  1.
         -6    1    1    2    0  503  0.13536572763E+02  0.48051019743E+02 -0.45961541242E+02  0.18583218928E+03  0.17300000000E+03 0.  1.
<mgrwt>
<rscale>  2 0.18005871E+03</rscale>
<asrwt>0</asrwt>
<pdfrwt beam="1">  1       21 0.24084501E-01 0.18005871E+03</pdfrwt>
<pdfrwt beam="2">  1       21 0.32227126E-01 0.18005871E+03</pdfrwt>
<totfact> 0.15124395E+05</totfact>
</mgrwt>
</event>
<event>
 4    1  0.3883260E+000  0.2520029E+03  0.7546771E-02  0.1112046E+00
         21   -1    0    0  501  502  0.00000000000E+00  0.00000000000E+00  0.14759557439E+03  0.14759557439E+03  0.00000000000E+00 0. -1.
         21   -1    0    0  502  503 -0.00000000000E+00 -0.00000000000E+00 -0.48410235911E+03  0.48410235911E+03  0.00000000000E+00 0. -1.
          6    1    1    2  501    0  0.35945432670E+02  0.17967852233E+03 -0.62924796667E+02  0.25974020781E+03  0.17300000000E+03 0. -1.
         -6    1    1    2    0  503 -0.35945432670E+02 -0.17967852233E+03 -0.27358198806E+03  0.37195772570E+03  0.17300000000E+03 0. -1.
<mgrwt>
<rscale>  2 0.25200287E+03</rscale>
<asrwt>0</asrwt>
<pdfrwt beam="1">  1       21 0.22707011E-01 0.25200287E+03</pdfrwt>
<pdfrwt beam="2">  1       21 0.74477286E-01 0.25200287E+03</pdfrwt>
<totfact> 0.28490240E+04</totfact>
</mgrwt>
</event>
<event>
 4    1  0.3883260E+000  0.1924104E+03  0.7546771E-02  0.1156305E+00
         21   -1    0    0  503  502  0.00000000000E+00  0.00000000000E+00  0.68691505172E+02  0.68691505172E+02  0.00000000000E+00 0. -1.
         21   -1    0    0  501  503 -0.00000000000E+00 -0.00000000000E+00 -0.77839113453E+03  0.77839113453E+03  0.00000000000E+00 0. -1.
          6    1    1    2  501    0 -0.60286821379E+02  0.58806955378E+02 -0.58975358788E+03  0.62034752619E+03  0.17300000000E+03 0. -1.
         -6    1    1    2    0  502  0.60286821379E+02 -0.58806955378E+02 -0.11994604148E+03  0.22673511351E+03  0.17300000000E+03 0. -1.
<mgrwt>
<rscale>  2 0.19241039E+03</rscale>
<asrwt>0</asrwt>
<pdfrwt beam="1">  1       21 0.10567924E-01 0.19241039E+03</pdfrwt>
<pdfrwt beam="2">  1       21 0.11975249E+00 0.19241039E+03</pdfrwt>
<totfact> 0.39067985E+04</totfact>
</mgrwt>
</event>
<event>
 4    1  0.3883260E+000  0.1737708E+03  0.7546771E-02  0.1173972E+00
         21   -1    0    0  501  502  0.00000000000E+00  0.00000000000E+00  0.15636420623E+03  0.15636420623E+03  0.00000000000E+00 0.  1.
         21   -1    0    0  502  503 -0.00000000000E+00 -0.00000000000E+00 -0.35644874369E+03  0.35644874369E+03  0.00000000000E+00 0.  1.
          6    1    1    2  501    0 -0.59455872599E+01  0.15229432737E+02  0.73525188302E+02  0.18868555574E+03  0.17300000000E+03 0.  1.
         -6    1    1    2    0  503  0.59455872599E+01 -0.15229432737E+02 -0.27360972576E+03  0.32412739418E+03  0.17300000000E+03 0.  1.
<mgrwt>
<rscale>  2 0.17377078E+03</rscale>
<asrwt>0</asrwt>
<pdfrwt beam="1">  1       21 0.24056032E-01 0.17377078E+03</pdfrwt>
<pdfrwt beam="2">  1       21 0.54838268E-01 0.17377078E+03</pdfrwt>
<totfact> 0.51618840E+04</totfact>
</mgrwt>
</event>
<event>
 4    1  0.3883260E+000  0.2020705E+03  0.7546771E-02  0.1148004E+00
         21   -1    0    0  503  502  0.00000000000E+00  0.00000000000E+00  0.22961283234E+04  0.22961283234E+04  0.00000000000E+00 0.  1.
         21   -1    0    0  501  503 -0.00000000000E+00 -0.00000000000E+00 -0.17791507690E+02  0.17791507690E+02  0.00000000000E+00 0.  1.
          6    1    1    2  501    0 -0.23998664842E+02 -0.10162457320E+03  0.11641818187E+04  0.11815886750E+04  0.17300000000E+03 0.  1.
         -6    1    1    2    0  502  0.23998664842E+02  0.10162457320E+03  0.11141549970E+04  0.11323311561E+04  0.17300000000E+03 0.  1.
<mgrwt>
<rscale>  2 0.20207051E+03</rscale>
<asrwt>0</asrwt>
<pdfrwt beam="1">  1       21 0.35325028E+00 0.20207051E+03</pdfrwt>
<pdfrwt beam="2">  1       21 0.27371568E-02 0.20207051E+03</pdfrwt>
<totfact> 0.12184206E+04</totfact>
</mgrwt>
</event>
<event>
 4    1  0.3883260E+000  0.1852102E+03  0.7546771E-02  0.1162854E+00
         21   -1    0    0  503  502  0.00000000000E+00  0.00000000000E+00  0.94533872408E+03  0.94533872408E+03  0.00000000000E+00 0. -1.
         21   -1    0    0  501  503 -0.00000000000E+00 -0.00000000000E+00 -0.51290024453E+02  0.51290024453E+02  0.00000000000E+00 0. -1.
          6    1    1    2  501    0 -0.20808632318E+02 -0.62776008090E+02  0.17750696751E+03  0.25653761885E+03  0.17300000000E+03 0. -1.
         -6    1    1    2    0  502  0.20808632318E+02  0.62776008090E+02  0.71654173211E+03  0.74009112967E+03  0.17300000000E+03 0. -1.
<mgrwt>
<rscale>  2 0.18521022E+03</rscale>
<asrwt>0</asrwt>
<pdfrwt beam="1">  1       21 0.14543671E+00 0.18521022E+03</pdfrwt>
<pdfrwt beam="2">  1       21 0.78907737E-02 0.18521022E+03</pdfrwt>
<totfact> 0.40007773E+04</totfact>
</mgrwt>
</event>
<event>
 4    1  0.3883260E+000  0.1983055E+03  0.7546771E-02  0.1151177E+00
         21   -1    0    0  503  502  0.00000000000E+00  0.00000000000E+00  0.27721687126E+03  0.27721687126E+03  0.00000000000E+00 0.  1.
         21   -1    0    0  501  503 -0.00000000000E+00 -0.00000000000E+00 -0.19038321863E+03  0.19038321863E+03  0.00000000000E+00 0.  1.
          6    1    1    2  501    0 -0.10100284756E+02  0.96405625653E+02 -0.74620670029E+02  0.21188040213E+03  0.17300000000E+03 0.  1.
         -6    1    1    2    0  502  0.10100284756E+02 -0.96405625653E+02  0.16145432266E+03  0.25571968777E+03  0.17300000000E+03 0.  1.
<mgrwt>
<rscale>  2 0.19830547E+03</rscale>
<asrwt>0</asrwt>
<pdfrwt beam="1">  1       21 0.42648750E-01 0.19830547E+03</pdfrwt>
<pdfrwt beam="2">  1       21 0.29289726E-01 0.19830547E+03</pdfrwt>
<totfact> 0.58891074E+04</totfact>
</mgrwt>
</event>
<event>
 4    1  0.3883260E+000  0.1848265E+03  0.7546771E-02  0.1163212E+00
         21   -1    0    0  501  502  0.00000000000E+00  0.00000000000E+00  0.13021982523E+03  0.13021982523E+03  0.00000000000E+00 0.  1.
         21   -1    0    0  502  503 -0.00000000000E+00 -0.00000000000E+00 -0.65065192628E+03  0.65065192628E+03  0.00000000000E+00 0.  1.
          6    1    1    2  501    0 -0.59635902609E+02  0.25988262669E+02  0.41410925416E+02  0.18940880502E+03  0.17300000000E+03 0.  1.
         -6    1    1    2    0  503  0.59635902609E+02 -0.25988262669E+02 -0.56184302647E+03  0.59146294649E+03  0.17300000000E+03 0.  1.
<mgrwt>
<rscale>  2 0.18482649E+03</rscale>
<asrwt>0</asrwt>
<pdfrwt beam="1">  1       21 0.20033819E-01 0.18482649E+03</pdfrwt>
<pdfrwt beam="2">  1       21 0.10010030E+00 0.18482649E+03</pdfrwt>
<totfact> 0.18937787E+04</totfact>
</mgrwt>
</event>
<event>
 4    1  0.3883260E+000  0.2051539E+03  0.7546771E-02  0.1145462E+00
         21   -1    0    0  503  502  0.00000000000E+00  0.00000000000E+00  0.11075025950E+03  0.11075025950E+03  0.00000000000E+00 0.  1.
         21   -1    0    0  501  503 -0.00000000000E+00 -0.00000000000E+00 -0.97006390360E+03  0.97006390360E+03  0.00000000000E+00 0.  1.
          6    1    1    2  501    0  0.22310856368E+02  0.10798771592E+03 -0.85112068134E+03  0.87549673632E+03  0.17300000000E+03 0.  1.
         -6    1    1    2    0  502 -0.22310856368E+02 -0.10798771592E+03 -0.81929627550E+01  0.20531742678E+03  0.17300000000E+03 0.  1.
<mgrwt>
<rscale>  2 0.20515390E+03</rscale>
<asrwt>0</asrwt>
<pdfrwt beam="1">  1       21 0.17038501E-01 0.20515390E+03</pdfrwt>
<pdfrwt beam="2">  1       21 0.14924061E+00 0.20515390E+03</pdfrwt>
<totfact> 0.93219326E+03</totfact>
</mgrwt>
</event>
<event>
 4    1  0.3883260E+000  0.2376566E+03  0.7546771E-02  0.1121364E+00
         21   -1    0    0  503  502  0.00000000000E+00  0.00000000000E+00  0.93270928168E+02  0.93270928168E+02  0.00000000000E+00 0.  1.
         21   -1    0    0  501  503 -0.00000000000E+00 -0.00000000000E+00 -0.75686260327E+03  0.75686260327E+03  0.00000000000E+00 0.  1.
          6    1    1    2  501    0 -0.14904209054E+03  0.65864290082E+02 -0.52185089255E+03  0.57341869826E+03  0.17300000000E+03 0.  1.
         -6    1    1    2    0  502  0.14904209054E+03 -0.65864290082E+02 -0.14174078255E+03  0.27671483318E+03  0.17300000000E+03 0.  1.
<mgrwt>
<rscale>  2 0.23765658E+03</rscale>
<asrwt>0</asrwt>
<pdfrwt beam="1">  1       21 0.14349374E-01 0.23765658E+03</pdfrwt>
<pdfrwt beam="2">  1       21 0.11644040E+00 0.23765658E+03</pdfrwt>
<totfact> 0.23564911E+04</totfact>
</mgrwt>
</event>
<event>
 4    1  0.3883260E+000  0.2461047E+03  0.7546771E-02  0.1115792E+00
         21   -1    0    0  503  502  0.00000000000E+00  0.00000000000E+00  0.32804821248E+03  0.32804821248E+03  0.00000000000E+00 0.  1.
         21   -1    0    0  501  503 -0.00000000000E+00 -0.00000000000E+00 -0.18699357357E+03  0.18699357357E+03  0.00000000000E+00 0.  1.
          6    1    1    2  501    0 -0.12384928708E+02  0.17459992800E+03  0.41574601774E+02  0.24959160409E+03  0.17300000000E+03 0.  1.
         -6    1    1    2    0  502  0.12384928708E+02 -0.17459992800E+03  0.99480037135E+02  0.26545018197E+03  0.17300000000E+03 0.  1.
<mgrwt>
<rscale>  2 0.24610470E+03</rscale>
<asrwt>0</asrwt>
<pdfrwt beam="1">  1       21 0.50468956E-01 0.24610470E+03</pdfrwt>
<pdfrwt beam="2">  1       21 0.28768242E-01 0.24610470E+03</pdfrwt>
<totfact> 0.42137481E+04</totfact>
</mgrwt>
</event>
<event>
 4    1  0.3883260E+000  0.2062547E+03  0.7546771E-02  0.1144567E+00
         21   -1    0    0  501  502  0.00000000000E+00  0.00000000000E+00  0.14519286090E+03  0.14519286090E+03  0.00000000000E+00 0.  1.
         21   -1    0    0  502  503 -0.00000000000E+00 -0.00000000000E+00 -0.29316020759E+03  0.29316020759E+03  0.00000000000E+00 0.  1.
          6    1    1    2  501    0 -0.64529174146E+02  0.91912944715E+02 -0.79162633562E+02  0.22092470725E+03  0.17300000000E+03 0.  1.
         -6    1    1    2    0  503  0.64529174146E+02 -0.91912944715E+02 -0.68804713123E+02  0.21742836124E+03  0.17300000000E+03 0.  1.
<mgrwt>
<rscale>  2 0.20625471E+03</rscale>
<asrwt>0</asrwt>
<pdfrwt beam="1">  1       21 0.22337363E-01 0.20625471E+03</pdfrwt>
<pdfrwt beam="2">  1       21 0.45101570E-01 0.20625471E+03</pdfrwt>
<totfact> 0.87969662E+04</totfact>
</mgrwt>
</event>
<event>
 4    1  0.3883260E+000  0.2107452E+03  0.7546771E-02  0.1140977E+00
         21   -1    0    0  501  502  0.00000000000E+00  0.00000000000E+00  0.58821274787E+02  0.58821274787E+02  0.00000000000E+00 0. -1.
         21   -1    0    0  502  503 -0.00000000000E+00 -0.00000000000E+00 -0.79462439997E+03  0.79462439997E+03  0.00000000000E+00 0.  1.
          6    1    1    2  501    0  0.79467422890E+02 -0.90385087640E+02 -0.27268280961E+03  0.34462943871E+03  0.17300000000E+03 0.  1.
         -6    1    1    2    0  503 -0.79467422890E+02  0.90385087640E+02 -0.46312031558E+03  0.50881623605E+03  0.17300000000E+03 0.  1.
<mgrwt>
<rscale>  2 0.21074519E+03</rscale>
<asrwt>0</asrwt>
<pdfrwt beam="1">  1       21 0.90494264E-02 0.21074519E+03</pdfrwt>
<pdfrwt beam="2">  1       21 0.12224991E+00 0.21074519E+03</pdfrwt>
<totfact> 0.48320436E+04</totfact>
</mgrwt>
</event>
<event>
 4    1  0.3883260E+000  0.1938729E+03  0.7546771E-02  0.1155014E+00
         21   -1    0    0  503  502  0.00000000000E+00  0.00000000000E+00  0.16343234429E+04  0.16343234429E+04  0.00000000000E+00 0. -1.
         21   -1    0    0  501  503 -0.00000000000E+00 -0.00000000000E+00 -0.39258909398E+02  0.39258909398E+02  0.00000000000E+00 0. -1.
          6    1    1    2  501    0  0.68207321376E+02 -0.54822101733E+02  0.25899463912E+03  0.32351958924E+03  0.17300000000E+03 0. -1.
         -6    1    1    2    0  502 -0.68207321376E+02  0.54822101733E+02  0.13360698944E+04  0.13500627631E+04  0.17300000000E+03 0. -1.
<mgrwt>
<rscale>  2 0.19387290E+03</rscale>
<asrwt>0</asrwt>
<pdfrwt beam="1">  1       21 0.25143432E+00 0.19387290E+03</pdfrwt>
<pdfrwt beam="2">  1       21 0.60398335E-02 0.19387290E+03</pdfrwt>
<totfact> 0.12699753E+04</totfact>
</mgrwt>
</event>
<event>
 4    1  0.3883260E+000  0.2127496E+03  0.7546771E-02  0.1139407E+00
         21   -1    0    0  503  502  0.00000000000E+00  0.00000000000E+00  0.48773248219E+03  0.48773248219E+03  0.00000000000E+00 0.  1.
         21   -1    0    0  501  503 -0.00000000000E+00 -0.00000000000E+00 -0.15692739671E+03  0.15692739671E+03  0.00000000000E+00 0.  1.
          6    1    1    2  501    0  0.10994175648E+03 -0.56975384163E+02 -0.40645001894E+02  0.21659732315E+03  0.17300000000E+03 0.  1.
         -6    1    1    2    0  502 -0.10994175648E+03  0.56975384163E+02  0.37145008737E+03  0.42806255574E+03  0.17300000000E+03 0.  1.
<mgrwt>
<rscale>  2 0.21274958E+03</rscale>
<asrwt>0</asrwt>
<pdfrwt beam="1">  1       21 0.75035766E-01 0.21274958E+03</pdfrwt>
<pdfrwt beam="2">  1       21 0.24142677E-01 0.21274958E+03</pdfrwt>
<totfact> 0.25418411E+04</totfact>
</mgrwt>
</event>
<event>
 4    1  0.3883260E+000  0.2222333E+03  0.7546771E-02  0.1132229E+00
         21   -1    0    0  503  502  0.00000000000E+00  0.00000000000E+00  0.12173211295E+03  0.12173211295E+03  0.00000000000E+00 0.  1.
         21   -1    0    0  501  503 -0.00000000000E+00 -0.00000000000E+00 -0.42720970018E+03  0.42720970018E+03  0.00000000000E+00 0. -1.
          6    1    1    2  501    0  0.34676574363E+02 -0.13511549477E+03 -0.21431524858E+03  0.30873724672E+03  0.17300000000E+03 0. -1.
         -6    1    1    2    0  502 -0.34676574363E+02  0.13511549477E+03 -0.91162338647E+02  0.24020456641E+03  0.17300000000E+03 0.  1.
<mgrwt>
<rscale>  2 0.22223335E+03</rscale>
<asrwt>0</asrwt>
<pdfrwt beam="1">  1       21 0.18728018E-01 0.22223335E+03</pdfrwt>
<pdfrwt beam="2">  1       21 0.65724567E-01 0.22223335E+03</pdfrwt>
<totfact> 0.54741162E+04</totfact>
</mgrwt>
</event>
<event>
 4    1  0.3883260E+000  0.2171050E+03  0.7546771E-02  0.1136060E+00
         21   -1    0    0  501  502  0.00000000000E+00  0.00000000000E+00  0.50538393577E+03  0.50538393577E+03  0.00000000000E+00 0.  1.
         21   -1    0    0  502  503 -0.00000000000E+00 -0.00000000000E+00 -0.96540142968E+02  0.96540142968E+02  0.00000000000E+00 0.  1.
          6    1    1    2  501    0  0.39417804326E+02 -0.12510728846E+03  0.25985607111E+03  0.33861449262E+03  0.17300000000E+03 0.  1.
         -6    1    1    2    0  503 -0.39417804326E+02  0.12510728846E+03  0.14898772169E+03  0.26330958611E+03  0.17300000000E+03 0.  1.
<mgrwt>
<rscale>  2 0.21710504E+03</rscale>
<asrwt>0</asrwt>
<pdfrwt beam="1">  1       21 0.77751373E-01 0.21710504E+03</pdfrwt>
<pdfrwt beam="2">  1       21 0.14852330E-01 0.21710504E+03</pdfrwt>
<totfact> 0.57909519E+04</totfact>
</mgrwt>
</event>
<event>
 4    1  0.3883260E+000  0.1883045E+03  0.7546771E-02  0.1160000E+00
         21   -1    0    0  501  502  0.00000000000E+00  0.00000000000E+00  0.21157352850E+03  0.21157352850E+03  0.00000000000E+00 0. -1.
         21   -1    0    0  502  503 -0.00000000000E+00 -0.00000000000E+00 -0.17237882102E+03  0.17237882102E+03  0.00000000000E+00 0. -1.
          6    1    1    2  501    0 -0.69904263669E+02 -0.25356961150E+02  0.51579739157E+02  0.19524100760E+03  0.17300000000E+03 0. -1.
         -6    1    1    2    0  503  0.69904263669E+02  0.25356961150E+02 -0.12385031678E+02  0.18871134192E+03  0.17300000000E+03 0. -1.
<mgrwt>
<rscale>  2 0.18830449E+03</rscale>
<asrwt>0</asrwt>
<pdfrwt beam="1">  1       21 0.32549773E-01 0.18830449E+03</pdfrwt>
<pdfrwt beam="2">  1       21 0.26519819E-01 0.18830449E+03</pdfrwt>
<totfact> 0.12306255E+05</totfact>
</mgrwt>
</event>
<event>
 4    1  0.3883260E+000  0.1926504E+03  0.7546771E-02  0.1156092E+00
         21   -1    0    0  503  502  0.00000000000E+00  0.00000000000E+00  0.25022081095E+03  0.25022081095E+03  0.00000000000E+00 0.  1.
         21   -1    0    0  501  503 -0.00000000000E+00 -0.00000000000E+00 -0.42132119396E+03  0.42132119396E+03  0.00000000000E+00 0.  1.
          6    1    1    2  501    0  0.81376080886E+02  0.23730035645E+02 -0.35583040927E+03  0.40463497290E+03  0.17300000000E+03 0.  1.
         -6    1    1    2    0  502 -0.81376080886E+02 -0.23730035645E+02  0.18473002627E+03  0.26690703201E+03  0.17300000000E+03 0.  1.
<mgrwt>
<rscale>  2 0.19265041E+03</rscale>
<asrwt>0</asrwt>
<pdfrwt beam="1">  1       21 0.38495509E-01 0.19265041E+03</pdfrwt>
<pdfrwt beam="2">  1       21 0.64818646E-01 0.19265041E+03</pdfrwt>
<totfact> 0.14269759E+04</totfact>
</mgrwt>
</event>
<event>
 4    1  0.3883260E+000  0.2522265E+03  0.7546771E-02  0.1111906E+00
         21   -1    0    0  503  502  0.00000000000E+00  0.00000000000E+00  0.55705226837E+02  0.55705226837E+02  0.00000000000E+00 0. -1.
         21   -1    0    0  501  503 -0.00000000000E+00 -0.00000000000E+00 -0.11423000676E+04  0.11423000676E+04  0.00000000000E+00 0.  1.
          6    1    1    2  501    0 -0.97689372533E+02  0.15538977260E+03 -0.53444762694E+03  0.59097585473E+03  0.17300000000E+03 0.  1.
         -6    1    1    2    0  502  0.97689372533E+02 -0.15538977260E+03 -0.55214721381E+03  0.60702943969E+03  0.17300000000E+03 0. -1.
<mgrwt>
<rscale>  2 0.25222648E+03</rscale>
<asrwt>0</asrwt>
<pdfrwt beam="1">  1       21 0.85700353E-02 0.25222648E+03</pdfrwt>
<pdfrwt beam="2">  1       21 0.17573846E+00 0.25222648E+03</pdfrwt>
<totfact> 0.19933151E+04</totfact>
</mgrwt>
</event>
<event>
 4    1  0.3883260E+000  0.1911526E+03  0.7546771E-02  0.1157426E+00
         21   -1    0    0  501  502  0.00000000000E+00  0.00000000000E+00  0.21245056958E+03  0.21245056958E+03  0.00000000000E+00 0. -1.
         21   -1    0    0  502  503 -0.00000000000E+00 -0.00000000000E+00 -0.18088698372E+03  0.18088698372E+03  0.00000000000E+00 0. -1.
          6    1    1    2  501    0  0.68765370717E+02  0.43377831298E+02  0.59399232095E+02  0.20016888178E+03  0.17300000000E+03 0.  1.
         -6    1    1    2    0  503 -0.68765370717E+02 -0.43377831298E+02 -0.27835646241E+02  0.19316867153E+03  0.17300000000E+03 0.  1.
<mgrwt>
<rscale>  2 0.19115259E+03</rscale>
<asrwt>0</asrwt>
<pdfrwt beam="1">  1       21 0.32684703E-01 0.19115259E+03</pdfrwt>
<pdfrwt beam="2">  1       21 0.27828767E-01 0.19115259E+03</pdfrwt>
<totfact> 0.11113988E+05</totfact>
</mgrwt>
</event>
<event>
 4    1  0.3883260E+000  0.1775094E+03  0.7546771E-02  0.1170235E+00
         21   -1    0    0  503  502  0.00000000000E+00  0.00000000000E+00  0.31267387479E+03  0.31267387479E+03  0.00000000000E+00 0.  1.
         21   -1    0    0  501  503 -0.00000000000E+00 -0.00000000000E+00 -0.18267626184E+03  0.18267626184E+03  0.00000000000E+00 0.  1.
          6    1    1    2  501    0 -0.26254710532E+02 -0.29854418592E+02 -0.10084050774E+03  0.20415289402E+03  0.17300000000E+03 0.  1.
         -6    1    1    2    0  502  0.26254710532E+02  0.29854418592E+02  0.23083812069E+03  0.29119724260E+03  0.17300000000E+03 0.  1.
<mgrwt>
<rscale>  2 0.17750943E+03</rscale>
<asrwt>0</asrwt>
<pdfrwt beam="1">  1       21 0.48103673E-01 0.17750943E+03</pdfrwt>
<pdfrwt beam="2">  1       21 0.28104040E-01 0.17750943E+03</pdfrwt>
<totfact> 0.50309589E+04</totfact>
</mgrwt>
</event>
<event>
 4    1  0.3883260E+000  0.2306146E+03  0.7546771E-02  0.1126208E+00
         21   -1    0    0  503  502  0.00000000000E+00  0.00000000000E+00  0.11447672154E+04  0.11447672154E+04  0.00000000000E+00 0. -1.
         21   -1    0    0  501  503 -0.00000000000E+00 -0.00000000000E+00 -0.48711702203E+02  0.48711702203E+02  0.00000000000E+00 0.  1.
          6    1    1    2  501    0  0.14824818029E+03  0.35729202590E+02  0.41965935150E+03  0.47884973653E+03  0.17300000000E+03 0.  1.
         -6    1    1    2    0  502 -0.14824818029E+03 -0.35729202590E+02  0.67639616172E+03  0.71462918109E+03  0.17300000000E+03 0. -1.
<mgrwt>
<rscale>  2 0.23061461E+03</rscale>
<asrwt>0</asrwt>
<pdfrwt beam="1">  1       21 0.17611801E+00 0.23061461E+03</pdfrwt>
<pdfrwt beam="2">  1       21 0.74941089E-02 0.23061461E+03</pdfrwt>
<totfact> 0.25368555E+04</totfact>
</mgrwt>
</event>
<event>
 4    1  0.3883260E+000  0.1889345E+03  0.7546771E-02  0.1159426E+00
         21   -1    0    0  501  502  0.00000000000E+00  0.00000000000E+00  0.15921049376E+03  0.15921049376E+03  0.00000000000E+00 0. -1.
         21   -1    0    0  502  503 -0.00000000000E+00 -0.00000000000E+00 -0.26100402673E+03  0.26100402673E+03  0.00000000000E+00 0. -1.
          6    1    1    2  501    0 -0.69097079846E+02  0.31509503647E+02  0.27992575006E+02  0.19099696207E+03  0.17300000000E+03 0. -1.
         -6    1    1    2    0  503  0.69097079846E+02 -0.31509503647E+02 -0.12978610798E+03  0.22921755842E+03  0.17300000000E+03 0. -1.
<mgrwt>
<rscale>  2 0.18893453E+03</rscale>
<asrwt>0</asrwt>
<pdfrwt beam="1">  1       21 0.24493922E-01 0.18893453E+03</pdfrwt>
<pdfrwt beam="2">  1       21 0.40154465E-01 0.18893453E+03</pdfrwt>
<totfact> 0.94265074E+04</totfact>
</mgrwt>
</event>
<event>
 4    1  0.3883260E+000  0.1788114E+03  0.7546771E-02  0.1168958E+00
         21   -1    0    0  503  502  0.00000000000E+00  0.00000000000E+00  0.62977033857E+03  0.62977033857E+03  0.00000000000E+00 0.  1.
         21   -1    0    0  501  503 -0.00000000000E+00 -0.00000000000E+00 -0.52957912715E+02  0.52957912715E+02  0.00000000000E+00 0.  1.
          6    1    1    2  501    0 -0.10023069316E+02 -0.44091366528E+02  0.35778973550E+03  0.39998375636E+03  0.17300000000E+03 0.  1.
         -6    1    1    2    0  502  0.10023069316E+02  0.44091366528E+02  0.21902269036E+03  0.28274449493E+03  0.17300000000E+03 0.  1.
<mgrwt>
<rscale>  2 0.17881138E+03</rscale>
<asrwt>0</asrwt>
<pdfrwt beam="1">  1       21 0.96887739E-01 0.17881138E+03</pdfrwt>
<pdfrwt beam="2">  1       21 0.81473717E-02 0.17881138E+03</pdfrwt>
<totfact> 0.10340484E+05</totfact>
</mgrwt>
</event>
<event>
 4    1  0.3883260E+000  0.2364106E+03  0.7546771E-02  0.1122207E+00
         21   -1    0    0  501  502  0.00000000000E+00  0.00000000000E+00  0.42747995740E+02  0.42747995740E+02  0.00000000000E+00 0.  1.
         21   -1    0    0  502  503 -0.00000000000E+00 -0.00000000000E+00 -0.20750588405E+04  0.20750588405E+04  0.00000000000E+00 0. -1.
          6    1    1    2  501    0 -0.17572547548E+02  0.16016299999E+03 -0.37210927095E+03  0.44085744921E+03  0.17300000000E+03 0.  1.
         -6    1    1    2    0  503  0.17572547548E+02 -0.16016299999E+03 -0.16602015738E+04  0.16769493870E+04  0.17300000000E+03 0. -1.
<mgrwt>
<rscale>  2 0.23641062E+03</rscale>
<asrwt>0</asrwt>
<pdfrwt beam="1">  1       21 0.65766148E-02 0.23641062E+03</pdfrwt>
<pdfrwt beam="2">  1       21 0.31923982E+00 0.23641062E+03</pdfrwt>
<totfact> 0.42412132E+03</totfact>
</mgrwt>
</event>
<event>
 4    1  0.3883260E+000  0.2548455E+03  0.7546771E-02  0.1110280E+00
         21   -1    0    0  503  502  0.00000000000E+00  0.00000000000E+00  0.10223460592E+03  0.10223460592E+03  0.00000000000E+00 0.  1.
         21   -1    0    0  501  503 -0.00000000000E+00 -0.00000000000E+00 -0.74124420975E+03  0.74124420975E+03  0.00000000000E+00 0.  1.
          6    1    1    2  501    0 -0.55233759026E+02  0.17879169995E+03 -0.47897164423E+03  0.54254960702E+03  0.17300000000E+03 0.  1.
         -6    1    1    2    0  502  0.55233759026E+02 -0.17879169995E+03 -0.16003795960E+03  0.30092920865E+03  0.17300000000E+03 0.  1.
<mgrwt>
<rscale>  2 0.25484552E+03</rscale>
<asrwt>0</asrwt>
<pdfrwt beam="1">  1       21 0.15728402E-01 0.25484552E+03</pdfrwt>
<pdfrwt beam="2">  1       21 0.11403757E+00 0.25484552E+03</pdfrwt>
<totfact> 0.20786050E+04</totfact>
</mgrwt>
</event>
<event>
 4    1  0.3883260E+000  0.1797009E+03  0.7546771E-02  0.1168093E+00
         21   -1    0    0  503  502  0.00000000000E+00  0.00000000000E+00  0.24610785294E+02  0.24610785294E+02  0.00000000000E+00 0.  1.
         21   -1    0    0  501  503 -0.00000000000E+00 -0.00000000000E+00 -0.13524289188E+04  0.13524289188E+04  0.00000000000E+00 0.  1.
          6    1    1    2  501    0 -0.30938672806E+02  0.37499335845E+02 -0.78276978516E+03  0.80313195568E+03  0.17300000000E+03 0.  1.
         -6    1    1    2    0  502  0.30938672806E+02 -0.37499335845E+02 -0.54504834838E+03  0.57390774845E+03  0.17300000000E+03 0.  1.
<mgrwt>
<rscale>  2 0.17970087E+03</rscale>
<asrwt>0</asrwt>
<pdfrwt beam="1">  1       21 0.37862752E-02 0.17970087E+03</pdfrwt>
<pdfrwt beam="2">  1       21 0.20806596E+00 0.17970087E+03</pdfrwt>
<totfact> 0.51711917E+04</totfact>
</mgrwt>
</event>
<event>
 4    1  0.3883260E+000  0.2807763E+03  0.7546771E-02  0.1095266E+00
         21   -1    0    0  501  502  0.00000000000E+00  0.00000000000E+00  0.47518463117E+03  0.47518463117E+03  0.00000000000E+00 0.  1.
         21   -1    0    0  502  503 -0.00000000000E+00 -0.00000000000E+00 -0.16616876481E+03  0.16616876481E+03  0.00000000000E+00 0.  1.
          6    1    1    2  501    0  0.16976920518E+03  0.14172075799E+03  0.16729175749E+03  0.32683617975E+03  0.17300000000E+03 0.  1.
         -6    1    1    2    0  503 -0.16976920518E+03 -0.14172075799E+03  0.14172410887E+03  0.31451721623E+03  0.17300000000E+03 0.  1.
<mgrwt>
<rscale>  2 0.28077635E+03</rscale>
<asrwt>0</asrwt>
<pdfrwt beam="1">  1       21 0.73105327E-01 0.28077635E+03</pdfrwt>
<pdfrwt beam="2">  1       21 0.25564426E-01 0.28077635E+03</pdfrwt>
<totfact> 0.23374701E+04</totfact>
</mgrwt>
</event>
<event>
 4    1  0.3883260E+000  0.1947942E+03  0.7546771E-02  0.1154207E+00
         21   -1    0    0  501  502  0.00000000000E+00  0.00000000000E+00  0.29232892554E+02  0.29232892554E+02  0.00000000000E+00 0. -1.
         21   -1    0    0  502  503 -0.00000000000E+00 -0.00000000000E+00 -0.17288334478E+04  0.17288334478E+04  0.00000000000E+00 0. -1.
          6    1    1    2  501    0  0.28832607257E+02 -0.84761202829E+02 -0.41099180103E+03  0.45481759119E+03  0.17300000000E+03 0. -1.
         -6    1    1    2    0  503 -0.28832607257E+02  0.84761202829E+02 -0.12886087542E+04  0.13032487492E+04  0.17300000000E+03 0. -1.
<mgrwt>
<rscale>  2 0.19479420E+03</rscale>
<asrwt>0</asrwt>
<pdfrwt beam="1">  1       21 0.44973675E-02 0.19479420E+03</pdfrwt>
<pdfrwt beam="2">  1       21 0.26597441E+00 0.19479420E+03</pdfrwt>
<totfact> 0.17225675E+04</totfact>
</mgrwt>
</event>
<event>
 4    1  0.3883260E+000  0.2163715E+03  0.7546771E-02  0.1136618E+00
         21   -1    0    0  501  502  0.00000000000E+00  0.00000000000E+00  0.38809405590E+02  0.38809405590E+02  0.00000000000E+00 0. -1.
         21   -1    0    0  502  503 -0.00000000000E+00 -0.00000000000E+00 -0.18298925086E+04  0.18298925086E+04  0.00000000000E+00 0. -1.
          6    1    1    2  501    0  0.12968026897E+03 -0.84057453499E+01 -0.35011016183E+03  0.41157472485E+03  0.17300000000E+03 0. -1.
         -6    1    1    2    0  503 -0.12968026897E+03  0.84057453499E+01 -0.14409729412E+04  0.14571271894E+04  0.17300000000E+03 0. -1.
<mgrwt>
<rscale>  2 0.21637151E+03</rscale>
<asrwt>0</asrwt>
<pdfrwt beam="1">  1       21 0.59706749E-02 0.21637151E+03</pdfrwt>
<pdfrwt beam="2">  1       21 0.28152206E+00 0.21637151E+03</pdfrwt>
<totfact> 0.84673596E+03</totfact>
</mgrwt>
</event>
<event>
 4    1  0.3883260E+000  0.1850629E+03  0.7546771E-02  0.1162991E+00
         21   -1    0    0  501  502  0.00000000000E+00  0.00000000000E+00  0.12098981135E+04  0.12098981135E+04  0.00000000000E+00 0.  1.
         21   -1    0    0  502  503 -0.00000000000E+00 -0.00000000000E+00 -0.30358643072E+02  0.30358643072E+02  0.00000000000E+00 0. -1.
          6    1    1    2  501    0 -0.32334085466E+02  0.57216936483E+02  0.75098972361E+03  0.77345577500E+03  0.17300000000E+03 0. -1.
         -6    1    1    2    0  503  0.32334085466E+02 -0.57216936483E+02  0.42854974681E+03  0.46680098157E+03  0.17300000000E+03 0.  1.
<mgrwt>
<rscale>  2 0.18506288E+03</rscale>
<asrwt>0</asrwt>
<pdfrwt beam="1">  1       21 0.18613813E+00 0.18506288E+03</pdfrwt>
<pdfrwt beam="2">  1       21 0.46705614E-02 0.18506288E+03</pdfrwt>
<totfact> 0.50179497E+04</totfact>
</mgrwt>
</event>
<event>
 4    1  0.3883260E+000  0.2736551E+03  0.7546771E-02  0.1099206E+00
         21   -1    0    0  501  502  0.00000000000E+00  0.00000000000E+00  0.13017317368E+04  0.13017317368E+04  0.00000000000E+00 0. -1.
         21   -1    0    0  502  503 -0.00000000000E+00 -0.00000000000E+00 -0.62333564862E+02  0.62333564862E+02  0.00000000000E+00 0. -1.
          6    1    1    2  501    0 -0.51731166804E+02 -0.20562587051E+03  0.80905488232E+03  0.85408249885E+03  0.17300000000E+03 0. -1.
         -6    1    1    2    0  503  0.51731166804E+02  0.20562587051E+03  0.43034328962E+03  0.50998280281E+03  0.17300000000E+03 0. -1.
<mgrwt>
<rscale>  2 0.27365510E+03</rscale>
<asrwt>0</asrwt>
<pdfrwt beam="1">  1       21 0.20026640E+00 0.27365510E+03</pdfrwt>
<pdfrwt beam="2">  1       21 0.95897802E-02 0.27365510E+03</pdfrwt>
<totfact> 0.11030624E+04</totfact>
</mgrwt>
</event>
<event>
 4    1  0.3883260E+000  0.3278635E+03  0.7546771E-02  0.1072086E+00
         21   -1    0    0  503  502  0.00000000000E+00  0.00000000000E+00  0.35181071469E+03  0.35181071469E+03  0.00000000000E+00 0. -1.
         21   -1    0    0  501  503 -0.00000000000E+00 -0.00000000000E+00 -0.32422898179E+03  0.32422898179E+03  0.00000000000E+00 0.  1.
          6    1    1    2  501    0 -0.26472075054E+03 -0.86535356870E+02 -0.67349413737E+02  0.33470940723E+03  0.17300000000E+03 0.  1.
         -6    1    1    2    0  502  0.26472075054E+03  0.86535356870E+02  0.94931146635E+02  0.34133028925E+03  0.17300000000E+03 0. -1.
<mgrwt>
<rscale>  2 0.32786345E+03</rscale>
<asrwt>0</asrwt>
<pdfrwt beam="1">  1       21 0.54124726E-01 0.32786345E+03</pdfrwt>
<pdfrwt beam="2">  1       21 0.49881382E-01 0.32786345E+03</pdfrwt>
<totfact> 0.11516576E+04</totfact>
</mgrwt>
</event>
<event>
 4    1  0.3883260E+000  0.2182314E+03  0.7546771E-02  0.1135209E+00
         21   -1    0    0  501  502  0.00000000000E+00  0.00000000000E+00  0.25692409089E+03  0.25692409089E+03  0.00000000000E+00 0.  1.
         21   -1    0    0  502  503 -0.00000000000E+00 -0.00000000000E+00 -0.35608728817E+03  0.35608728817E+03  0.00000000000E+00 0.  1.
          6    1    1    2  501    0  0.13034399137E+03  0.26577760362E+02  0.16264725592E+03  0.27217469260E+03  0.17300000000E+03 0.  1.
         -6    1    1    2    0  503 -0.13034399137E+03 -0.26577760362E+02 -0.26181045320E+03  0.34083668646E+03  0.17300000000E+03 0.  1.
<mgrwt>
<rscale>  2 0.21823138E+03</rscale>
<asrwt>0</asrwt>
<pdfrwt beam="1">  1       21 0.39526783E-01 0.21823138E+03</pdfrwt>
<pdfrwt beam="2">  1       21 0.54782660E-01 0.21823138E+03</pdfrwt>
<totfact> 0.19116401E+04</totfact>
</mgrwt>
</event>
<event>
 4    1  0.3883260E+000  0.1871807E+03  0.7546771E-02  0.1161029E+00
         21   -1    0    0  501  502  0.00000000000E+00  0.00000000000E+00  0.49990080924E+03  0.49990080924E+03  0.00000000000E+00 0. -1.
         21   -1    0    0  502  503 -0.00000000000E+00 -0.00000000000E+00 -0.80788038408E+02  0.80788038408E+02  0.00000000000E+00 0. -1.
          6    1    1    2  501    0  0.65734756506E+02  0.28045926903E+02  0.31522584858E+03  0.36661146715E+03  0.17300000000E+03 0. -1.
         -6    1    1    2    0  503 -0.65734756506E+02 -0.28045926903E+02  0.10388692225E+03  0.21407738050E+03  0.17300000000E+03 0. -1.
<mgrwt>
<rscale>  2 0.18718075E+03</rscale>
<asrwt>0</asrwt>
<pdfrwt beam="1">  1       21 0.76907815E-01 0.18718075E+03</pdfrwt>
<pdfrwt beam="2">  1       21 0.12428929E-01 0.18718075E+03</pdfrwt>
<totfact> 0.83009921E+04</totfact>
</mgrwt>
</event>
<event>
 4    1  0.3883260E+000  0.1763334E+03  0.7546771E-02  0.1171399E+00
         21   -1    0    0  501  502  0.00000000000E+00  0.00000000000E+00  0.39493072071E+02  0.39493072071E+02  0.00000000000E+00 0. -1.
         21   -1    0    0  502  503 -0.00000000000E+00 -0.00000000000E+00 -0.80954567066E+03  0.80954567066E+03  0.00000000000E+00 0. -1.
          6    1    1    2  501    0 -0.33751970892E+02  0.50280227273E+01 -0.31467761841E+03  0.36071523406E+03  0.17300000000E+03 0. -1.
         -6    1    1    2    0  503  0.33751970892E+02 -0.50280227273E+01 -0.45537498018E+03  0.48832350867E+03  0.17300000000E+03 0. -1.
<mgrwt>
<rscale>  2 0.17633342E+03</rscale>
<asrwt>0</asrwt>
<pdfrwt beam="1">  1       21 0.60758573E-02 0.17633342E+03</pdfrwt>
<pdfrwt beam="2">  1       21 0.12454549E+00 0.17633342E+03</pdfrwt>
<totfact> 0.93585092E+04</totfact>
</mgrwt>
</event>
<event>
 4    1  0.3883260E+000  0.1752237E+03  0.7546771E-02  0.1172507E+00
         21   -1    0    0  503  502  0.00000000000E+00  0.00000000000E+00  0.49895777946E+02  0.49895777946E+02  0.00000000000E+00 0.  1.
         21   -1    0    0  501  503 -0.00000000000E+00 -0.00000000000E+00 -0.61538383334E+03  0.61538383334E+03  0.00000000000E+00 0.  1.
          6    1    1    2  501    0 -0.92462652252E+01 -0.26246038242E+02 -0.28522433718E+03  0.33474807014E+03  0.17300000000E+03 0.  1.
         -6    1    1    2    0  502  0.92462652252E+01  0.26246038242E+02 -0.28026371822E+03  0.33053154115E+03  0.17300000000E+03 0.  1.
<mgrwt>
<rscale>  2 0.17522371E+03</rscale>
<asrwt>0</asrwt>
<pdfrwt beam="1">  1       21 0.76762733E-02 0.17522371E+03</pdfrwt>
<pdfrwt beam="2">  1       21 0.94674439E-01 0.17522371E+03</pdfrwt>
<totfact> 0.12121567E+05</totfact>
</mgrwt>
</event>
<event>
 4    1  0.3883260E+000  0.2016761E+03  0.7546771E-02  0.1148333E+00
         21   -1    0    0  501  502  0.00000000000E+00  0.00000000000E+00  0.44295191988E+03  0.44295191988E+03  0.00000000000E+00 0. -1.
         21   -1    0    0  502  503 -0.00000000000E+00 -0.00000000000E+00 -0.95952859887E+02  0.95952859887E+02  0.00000000000E+00 0.  1.
          6    1    1    2  501    0  0.91024915380E+02  0.49585271496E+02  0.22939975903E+03  0.30544636815E+03  0.17300000000E+03 0. -1.
         -6    1    1    2    0  503 -0.91024915380E+02 -0.49585271496E+02  0.11759930096E+03  0.23345841162E+03  0.17300000000E+03 0.  1.
<mgrwt>
<rscale>  2 0.20167606E+03</rscale>
<asrwt>0</asrwt>
<pdfrwt beam="1">  1       21 0.68146448E-01 0.20167606E+03</pdfrwt>
<pdfrwt beam="2">  1       21 0.14761979E-01 0.20167606E+03</pdfrwt>
<totfact> 0.79068930E+04</totfact>
</mgrwt>
</event>
<event>
 4    1  0.3883260E+000  0.2320093E+03  0.7546771E-02  0.1125234E+00
         21   -1    0    0  501  502  0.00000000000E+00  0.00000000000E+00  0.32012946336E+03  0.32012946336E+03  0.00000000000E+00 0. -1.
         21   -1    0    0  502  503 -0.00000000000E+00 -0.00000000000E+00 -0.19490005228E+03  0.19490005228E+03  0.00000000000E+00 0. -1.
          6    1    1    2  501    0 -0.55653298130E+02  0.14422899558E+03  0.15802514577E+03  0.28071380346E+03  0.17300000000E+03 0. -1.
         -6    1    1    2    0  503  0.55653298130E+02 -0.14422899558E+03 -0.32795734699E+02  0.23431571218E+03  0.17300000000E+03 0. -1.
<mgrwt>
<rscale>  2 0.23200925E+03</rscale>
<asrwt>0</asrwt>
<pdfrwt beam="1">  1       21 0.49250687E-01 0.23200925E+03</pdfrwt>
<pdfrwt beam="2">  1       21 0.29984623E-01 0.23200925E+03</pdfrwt>
<totfact> 0.41151309E+04</totfact>
</mgrwt>
</event>
<event>
 4    1  0.3883260E+000  0.2215187E+03  0.7546771E-02  0.1132756E+00
         21   -1    0    0  503  502  0.00000000000E+00  0.00000000000E+00  0.86901226860E+02  0.86901226860E+02  0.00000000000E+00 0. -1.
         21   -1    0    0  501  503 -0.00000000000E+00 -0.00000000000E+00 -0.72646945019E+03  0.72646945019E+03  0.00000000000E+00 0. -1.
          6    1    1    2  501    0  0.13578305170E+03  0.26542482747E+02 -0.51171195202E+03  0.55760170584E+03  0.17300000000E+03 0. -1.
         -6    1    1    2    0  502 -0.13578305170E+03 -0.26542482747E+02 -0.12785627131E+03  0.25576897121E+03  0.17300000000E+03 0. -1.
<mgrwt>
<rscale>  2 0.22151871E+03</rscale>
<asrwt>0</asrwt>
<pdfrwt beam="1">  1       21 0.13369419E-01 0.22151871E+03</pdfrwt>
<pdfrwt beam="2">  1       21 0.11176453E+00 0.22151871E+03</pdfrwt>
<totfact> 0.29878045E+04</totfact>
</mgrwt>
</event>
<event>
 4    1  0.3883260E+000  0.2094028E+03  0.7546771E-02  0.1142040E+00
         21   -1    0    0  503  502  0.00000000000E+00  0.00000000000E+00  0.28101243698E+03  0.28101243698E+03  0.00000000000E+00 0. -1.
         21   -1    0    0  501  503 -0.00000000000E+00 -0.00000000000E+00 -0.15656362789E+03  0.15656362789E+03  0.00000000000E+00 0.  1.
          6    1    1    2  501    0 -0.11255216385E+03  0.35391228753E+02  0.74862317496E+02  0.22238231774E+03  0.17300000000E+03 0. -1.
         -6    1    1    2    0  502  0.11255216385E+03 -0.35391228753E+02  0.49586491594E+02  0.21519374714E+03  0.17300000000E+03 0.  1.
<mgrwt>
<rscale>  2 0.20940279E+03</rscale>
<asrwt>0</asrwt>
<pdfrwt beam="1">  1       21 0.43232683E-01 0.20940279E+03</pdfrwt>
<pdfrwt beam="2">  1       21 0.24086712E-01 0.20940279E+03</pdfrwt>
<totfact> 0.83048087E+04</totfact>
</mgrwt>
</event>
<event>
 4    1  0.3883260E+000  0.2039229E+03  0.7546771E-02  0.1146471E+00
         21   -1    0    0  501  502  0.00000000000E+00  0.00000000000E+00  0.13595359406E+03  0.13595359406E+03  0.00000000000E+00 0.  1.
         21   -1    0    0  502  503 -0.00000000000E+00 -0.00000000000E+00 -0.33904100338E+03  0.33904100338E+03  0.00000000000E+00 0.  1.
          6    1    1    2  501    0 -0.10126703571E+03  0.37423865901E+02 -0.27260429677E+02  0.20573694196E+03  0.17300000000E+03 0.  1.
         -6    1    1    2    0  503  0.10126703571E+03 -0.37423865901E+02 -0.17582697965E+03  0.26925765548E+03  0.17300000000E+03 0.  1.
<mgrwt>
<rscale>  2 0.20392292E+03</rscale>
<asrwt>0</asrwt>
<pdfrwt beam="1">  1       21 0.20915938E-01 0.20392292E+03</pdfrwt>
<pdfrwt beam="2">  1       21 0.52160154E-01 0.20392292E+03</pdfrwt>
<totfact> 0.73667674E+04</totfact>
</mgrwt>
</event>
<event>
 4    1  0.3883260E+000  0.3011188E+03  0.7546771E-02  0.1084683E+00
         21   -1    0    0  503  502  0.00000000000E+00  0.00000000000E+00  0.48320161986E+03  0.48320161986E+03  0.00000000000E+00 0. -1.
         21   -1    0    0  501  503 -0.00000000000E+00 -0.00000000000E+00 -0.26237187845E+03  0.26237187845E+03  0.00000000000E+00 0. -1.
          6    1    1    2  501    0 -0.48506418745E+02 -0.24164164656E+03 -0.88527401553E+02  0.31386248396E+03  0.17300000000E+03 0. -1.
         -6    1    1    2    0  502  0.48506418745E+02  0.24164164656E+03  0.30935714297E+03  0.43171101435E+03  0.17300000000E+03 0. -1.
<mgrwt>
<rscale>  2 0.30111884E+03</rscale>
<asrwt>0</asrwt>
<pdfrwt beam="1">  1       21 0.74338711E-01 0.30111884E+03</pdfrwt>
<pdfrwt beam="2">  1       21 0.40364904E-01 0.30111884E+03</pdfrwt>
<totfact> 0.90115995E+03</totfact>
</mgrwt>
</event>
<event>
 4    1  0.3883260E+000  0.2345931E+03  0.7546771E-02  0.1123448E+00
         21   -1    0    0  503  502  0.00000000000E+00  0.00000000000E+00  0.41574785772E+03  0.41574785772E+03  0.00000000000E+00 0. -1.
         21   -1    0    0  501  503 -0.00000000000E+00 -0.00000000000E+00 -0.13306134773E+03  0.13306134773E+03  0.00000000000E+00 0.  1.
          6    1    1    2  501    0  0.12844194639E+03  0.92777211944E+02  0.12161208283E+03  0.26424125972E+03  0.17300000000E+03 0.  1.
         -6    1    1    2    0  502 -0.12844194639E+03 -0.92777211944E+02  0.16107442717E+03  0.28456794573E+03  0.17300000000E+03 0.  1.
<mgrwt>
<rscale>  2 0.23459315E+03</rscale>
<asrwt>0</asrwt>
<pdfrwt beam="1">  1       21 0.63961208E-01 0.23459315E+03</pdfrwt>
<pdfrwt beam="2">  1       21 0.20470977E-01 0.23459315E+03</pdfrwt>
<totfact> 0.48916934E+04</totfact>
</mgrwt>
</event>
<event>
 4    1  0.3883260E+000  0.2361991E+03  0.7546771E-02  0.1122351E+00
         21   -1    0    0  503  502  0.00000000000E+00  0.00000000000E+00  0.82416142393E+02  0.82416142393E+02  0.00000000000E+00 0. -1.
         21   -1    0    0  501  503 -0.00000000000E+00 -0.00000000000E+00 -0.68137154966E+03  0.68137154966E+03  0.00000000000E+00 0.  1.
          6    1    1    2  501    0  0.13843338138E+03 -0.81836559866E+02 -0.26864726159E+03  0.35771689193E+03  0.17300000000E+03 0.  1.
         -6    1    1    2    0  502 -0.13843338138E+03  0.81836559866E+02 -0.33030814568E+03  0.40607080013E+03  0.17300000000E+03 0.  1.
<mgrwt>
<rscale>  2 0.23619912E+03</rscale>
<asrwt>0</asrwt>
<pdfrwt beam="1">  1       21 0.12679407E-01 0.23619912E+03</pdfrwt>
<pdfrwt beam="2">  1       21 0.10482639E+00 0.23619912E+03</pdfrwt>
<totfact> 0.38132727E+04</totfact>
</mgrwt>
</event>
<event>
 4    1  0.3883260E+000  0.2810475E+03  0.7546771E-02  0.1095118E+00
         21   -1    0    0  501  502  0.00000000000E+00  0.00000000000E+00  0.39286779664E+03  0.39286779664E+03  0.00000000000E+00 0.  1.
         21   -1    0    0  502  503 -0.00000000000E+00 -0.00000000000E+00 -0.20194060110E+03  0.20194060110E+03  0.00000000000E+00 0.  1.
          6    1    1    2  501    0 -0.22123497503E+03 -0.10665610855E+02  0.11516886356E+03  0.30372938048E+03  0.17300000000E+03 0.  1.
         -6    1    1    2    0  503  0.22123497503E+03  0.10665610855E+02  0.75758331974E+02  0.29107901727E+03  0.17300000000E+03 0.  1.
<mgrwt>
<rscale>  2 0.28104745E+03</rscale>
<asrwt>0</asrwt>
<pdfrwt beam="1">  1       21 0.60441200E-01 0.28104745E+03</pdfrwt>
<pdfrwt beam="2">  1       21 0.31067785E-01 0.28104745E+03</pdfrwt>
<totfact> 0.24303904E+04</totfact>
</mgrwt>
</event>
<event>
 4    1  0.3883260E+000  0.1975807E+03  0.7546771E-02  0.1151796E+00
         21   -1    0    0  503  502  0.00000000000E+00  0.00000000000E+00  0.48469757079E+03  0.48469757079E+03  0.00000000000E+00 0.  1.
         21   -1    0    0  501  503 -0.00000000000E+00 -0.00000000000E+00 -0.16566977387E+03  0.16566977387E+03  0.00000000000E+00 0.  1.
          6    1    1    2  501    0  0.82146173894E+02 -0.48591542206E+02 -0.73587419517E+02  0.21083937054E+03  0.17300000000E+03 0.  1.
         -6    1    1    2    0  502 -0.82146173894E+02  0.48591542206E+02  0.39261521644E+03  0.43952797412E+03  0.17300000000E+03 0.  1.
<mgrwt>
<rscale>  2 0.19758070E+03</rscale>
<asrwt>0</asrwt>
<pdfrwt beam="1">  1       21 0.74568856E-01 0.19758070E+03</pdfrwt>
<pdfrwt beam="2">  1       21 0.25487658E-01 0.19758070E+03</pdfrwt>
<totfact> 0.23441955E+04</totfact>
</mgrwt>
</event>
<event>
 4    1  0.3883260E+000  0.2051564E+03  0.7546771E-02  0.1145460E+00
         21   -1    0    0  501  502  0.00000000000E+00  0.00000000000E+00  0.19021902521E+03  0.19021902521E+03  0.00000000000E+00 0.  1.
         21   -1    0    0  502  503 -0.00000000000E+00 -0.00000000000E+00 -0.22230022340E+03  0.22230022340E+03  0.00000000000E+00 0. -1.
          6    1    1    2  501    0 -0.56071504363E+02 -0.94953335386E+02 -0.19772259311E+01  0.20516593022E+03  0.17300000000E+03 0. -1.
         -6    1    1    2    0  503  0.56071504363E+02  0.94953335386E+02 -0.30103972255E+02  0.20735331839E+03  0.17300000000E+03 0. -1.
<mgrwt>
<rscale>  2 0.20515640E+03</rscale>
<asrwt>0</asrwt>
<pdfrwt beam="1">  1       21 0.29264465E-01 0.20515640E+03</pdfrwt>
<pdfrwt beam="2">  1       21 0.34200034E-01 0.20515640E+03</pdfrwt>
<totfact> 0.91661767E+04</totfact>
</mgrwt>
</event>
<event>
 4    1  0.3883260E+000  0.2021060E+03  0.7546771E-02  0.1147974E+00
         21   -1    0    0  501  502  0.00000000000E+00  0.00000000000E+00  0.96804483581E+02  0.96804483581E+02  0.00000000000E+00 0. -1.
         21   -1    0    0  502  503 -0.00000000000E+00 -0.00000000000E+00 -0.43216377453E+03  0.43216377453E+03  0.00000000000E+00 0. -1.
          6    1    1    2  501    0  0.26741645696E+02  0.10100860649E+03 -0.20833559647E+03  0.29025949589E+03  0.17300000000E+03 0. -1.
         -6    1    1    2    0  503 -0.26741645696E+02 -0.10100860649E+03 -0.12702369448E+03  0.23870876222E+03  0.17300000000E+03 0. -1.
<mgrwt>
<rscale>  2 0.20210605E+03</rscale>
<asrwt>0</asrwt>
<pdfrwt beam="1">  1       21 0.14892998E-01 0.20210605E+03</pdfrwt>
<pdfrwt beam="2">  1       21 0.66486734E-01 0.20210605E+03</pdfrwt>
<totfact> 0.82112861E+04</totfact>
</mgrwt>
</event>
<event>
 4    1  0.3883260E+000  0.3342051E+03  0.7546771E-02  0.1069291E+00
         21   -1    0    0  503  502  0.00000000000E+00  0.00000000000E+00  0.10388390201E+03  0.10388390201E+03  0.00000000000E+00 0. -1.
         21   -1    0    0  501  503 -0.00000000000E+00 -0.00000000000E+00 -0.11251670335E+04  0.11251670335E+04  0.00000000000E+00 0. -1.
          6    1    1    2  501    0 -0.14710196341E+03  0.24520418874E+03 -0.64017862052E+03  0.72216462665E+03  0.17300000000E+03 0. -1.
         -6    1    1    2    0  502  0.14710196341E+03 -0.24520418874E+03 -0.38110451095E+03  0.50688630884E+03  0.17300000000E+03 0. -1.
<mgrwt>
<rscale>  2 0.33420515E+03</rscale>
<asrwt>0</asrwt>
<pdfrwt beam="1">  1       21 0.15982139E-01 0.33420515E+03</pdfrwt>
<pdfrwt beam="2">  1       21 0.17310262E+00 0.33420515E+03</pdfrwt>
<totfact> 0.64741977E+03</totfact>
</mgrwt>
</event>
<event>
 4    1  0.3883260E+000  0.2413276E+03  0.7546771E-02  0.1118912E+00
         21   -1    0    0  503  502  0.00000000000E+00  0.00000000000E+00  0.15646247721E+03  0.15646247721E+03  0.00000000000E+00 0.  1.
         21   -1    0    0  501  503 -0.00000000000E+00 -0.00000000000E+00 -0.37867090215E+03  0.37867090215E+03  0.00000000000E+00 0. -1.
          6    1    1    2  501    0 -0.16707212439E+03 -0.19922468553E+02 -0.76190509850E+02  0.25306914726E+03  0.17300000000E+03 0.  1.
         -6    1    1    2    0  502  0.16707212439E+03  0.19922468553E+02 -0.14601791509E+03  0.28206423210E+03  0.17300000000E+03 0. -1.
<mgrwt>
<rscale>  2 0.24132758E+03</rscale>
<asrwt>0</asrwt>
<pdfrwt beam="1">  1       21 0.24071151E-01 0.24132758E+03</pdfrwt>
<pdfrwt beam="2">  1       21 0.58257061E-01 0.24132758E+03</pdfrwt>
<totfact> 0.43918992E+04</totfact>
</mgrwt>
</event>
<event>
 4    1  0.3883260E+000  0.1832101E+03  0.7546771E-02  0.1164732E+00
         21   -1    0    0  501  502  0.00000000000E+00  0.00000000000E+00  0.63320293074E+03  0.63320293074E+03  0.00000000000E+00 0. -1.
         21   -1    0    0  502  503 -0.00000000000E+00 -0.00000000000E+00 -0.53372039857E+02  0.53372039857E+02  0.00000000000E+00 0. -1.
          6    1    1    2  501    0  0.16167381373E+02 -0.58099532781E+02  0.31819801518E+03  0.36717287045E+03  0.17300000000E+03 0. -1.
         -6    1    1    2    0  503 -0.16167381373E+02  0.58099532781E+02  0.26163287570E+03  0.31940210015E+03  0.17300000000E+03 0. -1.
<mgrwt>
<rscale>  2 0.18321010E+03</rscale>
<asrwt>0</asrwt>
<pdfrwt beam="1">  1       21 0.97415830E-01 0.18321010E+03</pdfrwt>
<pdfrwt beam="2">  1       21 0.82110835E-02 0.18321010E+03</pdfrwt>
<totfact> 0.10053635E+05</totfact>
</mgrwt>
</event>
<event>
 4    1  0.3883260E+000  0.1967158E+03  0.7546771E-02  0.1152540E+00
         21   -1    0    0  503  502  0.00000000000E+00  0.00000000000E+00  0.40347728798E+03  0.40347728798E+03  0.00000000000E+00 0. -1.
         21   -1    0    0  501  503 -0.00000000000E+00 -0.00000000000E+00 -0.12187394631E+03  0.12187394631E+03  0.00000000000E+00 0. -1.
          6    1    1    2  501    0  0.35960801606E+02  0.86457572059E+02  0.19558219230E+02  0.19768564682E+03  0.17300000000E+03 0. -1.
         -6    1    1    2    0  502 -0.35960801606E+02 -0.86457572059E+02  0.26204512244E+03  0.32766558747E+03  0.17300000000E+03 0. -1.
<mgrwt>
<rscale>  2 0.19671576E+03</rscale>
<asrwt>0</asrwt>
<pdfrwt beam="1">  1       21 0.62073428E-01 0.19671576E+03</pdfrwt>
<pdfrwt beam="2">  1       21 0.18749838E-01 0.19671576E+03</pdfrwt>
<totfact> 0.62577563E+04</totfact>
</mgrwt>
</event>
<event>
 4    1  0.3883260E+000  0.1863247E+03  0.7546771E-02  0.1161819E+00
         21   -1    0    0  501  502  0.00000000000E+00  0.00000000000E+00  0.87763044872E+03  0.87763044872E+03  0.00000000000E+00 0.  1.
         21   -1    0    0  502  503 -0.00000000000E+00 -0.00000000000E+00 -0.11748837483E+03  0.11748837483E+03  0.00000000000E+00 0.  1.
          6    1    1    2  501    0  0.69058147682E+02  0.43428778326E+01  0.78530161008E+03  0.80710315769E+03  0.17300000000E+03 0.  1.
         -6    1    1    2    0  503 -0.69058147682E+02 -0.43428778326E+01 -0.25159536193E+02  0.18801566586E+03  0.17300000000E+03 0.  1.
<mgrwt>
<rscale>  2 0.18632469E+03</rscale>
<asrwt>0</asrwt>
<pdfrwt beam="1">  1       21 0.13502006E+00 0.18632469E+03</pdfrwt>
<pdfrwt beam="2">  1       21 0.18075135E-01 0.18632469E+03</pdfrwt>
<totfact> 0.10990852E+04</totfact>
</mgrwt>
</event>
<event>
 4    1  0.3883260E+000  0.1942522E+03  0.7546771E-02  0.1154681E+00
         21   -1    0    0  503  502  0.00000000000E+00  0.00000000000E+00  0.26632826615E+03  0.26632826615E+03  0.00000000000E+00 0. -1.
         21   -1    0    0  501  503 -0.00000000000E+00 -0.00000000000E+00 -0.15699056968E+03  0.15699056968E+03  0.00000000000E+00 0. -1.
          6    1    1    2  501    0  0.47751916003E+02 -0.74328105003E+02 -0.11426148787E+02  0.19458794811E+03  0.17300000000E+03 0. -1.
         -6    1    1    2    0  502 -0.47751916003E+02  0.74328105003E+02  0.12076384526E+03  0.22873088772E+03  0.17300000000E+03 0. -1.
<mgrwt>
<rscale>  2 0.19425219E+03</rscale>
<asrwt>0</asrwt>
<pdfrwt beam="1">  1       21 0.40973579E-01 0.19425219E+03</pdfrwt>
<pdfrwt beam="2">  1       21 0.24152395E-01 0.19425219E+03</pdfrwt>
<totfact> 0.92751432E+04</totfact>
</mgrwt>
</event>
<event>
 4    1  0.3883260E+000  0.2516923E+03  0.7546771E-02  0.1112240E+00
         21   -1    0    0  503  502  0.00000000000E+00  0.00000000000E+00  0.27604203394E+04  0.27604203394E+04  0.00000000000E+00 0. -1.
         21   -1    0    0  501  503 -0.00000000000E+00 -0.00000000000E+00 -0.31908424849E+02  0.31908424849E+02  0.00000000000E+00 0.  1.
          6    1    1    2  501    0  0.18123015431E+03 -0.23992747748E+02  0.62444159721E+03  0.67325799594E+03  0.17300000000E+03 0.  1.
         -6    1    1    2    0  502 -0.18123015431E+03  0.23992747748E+02  0.21040703173E+04  0.21190707683E+04  0.17300000000E+03 0. -1.
<mgrwt>
<rscale>  2 0.25169231E+03</rscale>
<asrwt>0</asrwt>
<pdfrwt beam="1">  1       21 0.42467986E+00 0.25169231E+03</pdfrwt>
<pdfrwt beam="2">  1       21 0.49089906E-02 0.25169231E+03</pdfrwt>
<totfact> 0.15615904E+03</totfact>
</mgrwt>
</event>
<event>
 4    1  0.3883260E+000  0.2143652E+03  0.7546771E-02  0.1138155E+00
         21   -1    0    0  503  502  0.00000000000E+00  0.00000000000E+00  0.70558867635E+03  0.70558867635E+03  0.00000000000E+00 0.  1.
         21   -1    0    0  501  503 -0.00000000000E+00 -0.00000000000E+00 -0.36040579653E+03  0.36040579653E+03  0.00000000000E+00 0. -1.
          6    1    1    2  501    0 -0.55810143502E+02  0.11361635000E+03 -0.30985116009E+03  0.37677604557E+03  0.17300000000E+03 0. -1.
         -6    1    1    2    0  502  0.55810143502E+02 -0.11361635000E+03  0.65503403991E+03  0.68921842732E+03  0.17300000000E+03 0.  1.
<mgrwt>
<rscale>  2 0.21436522E+03</rscale>
<asrwt>0</asrwt>
<pdfrwt beam="1">  1       21 0.10855210E+00 0.21436522E+03</pdfrwt>
<pdfrwt beam="2">  1       21 0.55447046E-01 0.21436522E+03</pdfrwt>
<totfact> 0.20282138E+03</totfact>
</mgrwt>
</event>
<event>
 4    1  0.3883260E+000  0.2347097E+03  0.7546771E-02  0.1123368E+00
         21   -1    0    0  503  502  0.00000000000E+00  0.00000000000E+00  0.11632890926E+03  0.11632890926E+03  0.00000000000E+00 0.  1.
         21   -1    0    0  501  503 -0.00000000000E+00 -0.00000000000E+00 -0.83661291889E+03  0.83661291889E+03  0.00000000000E+00 0.  1.
          6    1    1    2  501    0  0.16947186767E+01 -0.15860890515E+03 -0.67401893275E+03  0.71371575474E+03  0.17300000000E+03 0.  1.
         -6    1    1    2    0  502 -0.16947186767E+01  0.15860890515E+03 -0.46265076883E+02  0.23922607342E+03  0.17300000000E+03 0.  1.
<mgrwt>
<rscale>  2 0.23470973E+03</rscale>
<asrwt>0</asrwt>
<pdfrwt beam="1">  1       21 0.17896755E-01 0.23470973E+03</pdfrwt>
<pdfrwt beam="2">  1       21 0.12870968E+00 0.23470973E+03</pdfrwt>
<totfact> 0.12232194E+04</totfact>
</mgrwt>
</event>
<event>
 4    1  0.3883260E+000  0.1759903E+03  0.7546771E-02  0.1171741E+00
         21   -1    0    0  501  502  0.00000000000E+00  0.00000000000E+00  0.67915079826E+03  0.67915079826E+03  0.00000000000E+00 0.  1.
         21   -1    0    0  502  503 -0.00000000000E+00 -0.00000000000E+00 -0.47493962747E+02  0.47493962747E+02  0.00000000000E+00 0.  1.
          6    1    1    2  501    0 -0.14357563107E+02  0.28938440600E+02  0.38828893553E+03  0.42631076742E+03  0.17300000000E+03 0. -1.
         -6    1    1    2    0  503  0.14357563107E+02 -0.28938440600E+02  0.24336789998E+03  0.30033399359E+03  0.17300000000E+03 0. -1.
<mgrwt>
<rscale>  2 0.17599026E+03</rscale>
<asrwt>0</asrwt>
<pdfrwt beam="1">  1       21 0.10448473E+00 0.17599026E+03</pdfrwt>
<pdfrwt beam="2">  1       21 0.73067640E-02 0.17599026E+03</pdfrwt>
<totfact> 0.10455267E+05</totfact>
</mgrwt>
</event>
<event>
 4    1  0.3883260E+000  0.2076614E+03  0.7546771E-02  0.1143431E+00
         21   -1    0    0  501  502  0.00000000000E+00  0.00000000000E+00  0.23338101577E+03  0.23338101577E+03  0.00000000000E+00 0. -1.
         21   -1    0    0  502  503 -0.00000000000E+00 -0.00000000000E+00 -0.21771507529E+03  0.21771507529E+03  0.00000000000E+00 0. -1.
          6    1    1    2  501    0  0.75531376245E+02  0.86540652554E+02  0.95563094679E+02  0.22859479086E+03  0.17300000000E+03 0. -1.
         -6    1    1    2    0  503 -0.75531376245E+02 -0.86540652554E+02 -0.79897154197E+02  0.22250130020E+03  0.17300000000E+03 0. -1.
<mgrwt>
<rscale>  2 0.20766144E+03</rscale>
<asrwt>0</asrwt>
<pdfrwt beam="1">  1       21 0.35904772E-01 0.20766144E+03</pdfrwt>
<pdfrwt beam="2">  1       21 0.33494627E-01 0.20766144E+03</pdfrwt>
<totfact> 0.63778902E+04</totfact>
</mgrwt>
</event>
<event>
 4    1  0.3883260E+000  0.2855549E+03  0.7546771E-02  0.1092693E+00
         21   -1    0    0  501  502  0.00000000000E+00  0.00000000000E+00  0.95590355640E+02  0.95590355640E+02  0.00000000000E+00 0.  1.
         21   -1    0    0  502  503 -0.00000000000E+00 -0.00000000000E+00 -0.86126453135E+03  0.86126453135E+03  0.00000000000E+00 0. -1.
          6    1    1    2  501    0  0.12844289161E+03  0.18738996246E+03 -0.33606029387E+03  0.44099670696E+03  0.17300000000E+03 0.  1.
         -6    1    1    2    0  503 -0.12844289161E+03 -0.18738996246E+03 -0.42961388184E+03  0.51585818003E+03  0.17300000000E+03 0. -1.
<mgrwt>
<rscale>  2 0.28555485E+03</rscale>
<asrwt>0</asrwt>
<pdfrwt beam="1">  1       21 0.14706209E-01 0.28555485E+03</pdfrwt>
<pdfrwt beam="2">  1       21 0.13250223E+00 0.28555485E+03</pdfrwt>
<totfact> 0.15883177E+04</totfact>
</mgrwt>
</event>
<event>
 4    1  0.3883260E+000  0.2110944E+03  0.7546771E-02  0.1140702E+00
         21   -1    0    0  501  502  0.00000000000E+00  0.00000000000E+00  0.10086736541E+03  0.10086736541E+03  0.00000000000E+00 0.  1.
         21   -1    0    0  502  503 -0.00000000000E+00 -0.00000000000E+00 -0.64193510731E+03  0.64193510731E+03  0.00000000000E+00 0.  1.
          6    1    1    2  501    0 -0.90891523159E+02 -0.79815841069E+02 -0.63145283308E+02  0.22033647967E+03  0.17300000000E+03 0. -1.
         -6    1    1    2    0  503  0.90891523159E+02  0.79815841069E+02 -0.47792245859E+03  0.52246599305E+03  0.17300000000E+03 0. -1.
<mgrwt>
<rscale>  2 0.21109438E+03</rscale>
<asrwt>0</asrwt>
<pdfrwt beam="1">  1       21 0.15518056E-01 0.21109438E+03</pdfrwt>
<pdfrwt beam="2">  1       21 0.98759248E-01 0.21109438E+03</pdfrwt>
<totfact> 0.30857523E+04</totfact>
</mgrwt>
</event>
<event>
 4    1  0.3883260E+000  0.1807000E+03  0.7546771E-02  0.1167127E+00
         21   -1    0    0  501  502  0.00000000000E+00  0.00000000000E+00  0.16359268616E+03  0.16359268616E+03  0.00000000000E+00 0. -1.
         21   -1    0    0  502  503 -0.00000000000E+00 -0.00000000000E+00 -0.20475818000E+03  0.20475818000E+03  0.00000000000E+00 0. -1.
          6    1    1    2  501    0  0.27571041145E+02  0.44309528113E+02 -0.49825252223E+02  0.18744346441E+03  0.17300000000E+03 0. -1.
         -6    1    1    2    0  503 -0.27571041145E+02 -0.44309528113E+02  0.86597583793E+01  0.18090740175E+03  0.17300000000E+03 0. -1.
<mgrwt>
<rscale>  2 0.18070002E+03</rscale>
<asrwt>0</asrwt>
<pdfrwt beam="1">  1       21 0.25168106E-01 0.18070002E+03</pdfrwt>
<pdfrwt beam="2">  1       21 0.31501258E-01 0.18070002E+03</pdfrwt>
<totfact> 0.14541198E+05</totfact>
</mgrwt>
</event>
<event>
 4    1  0.3883260E+000  0.1831810E+03  0.7546771E-02  0.1164760E+00
         21   -1    0    0  503  502  0.00000000000E+00  0.00000000000E+00  0.23442834299E+03  0.23442834299E+03  0.00000000000E+00 0.  1.
         21   -1    0    0  501  503 -0.00000000000E+00 -0.00000000000E+00 -0.28355777061E+03  0.28355777061E+03  0.00000000000E+00 0.  1.
          6    1    1    2  501    0  0.19896788304E+02 -0.56836476865E+02 -0.20682149529E+03  0.27627956530E+03  0.17300000000E+03 0. -1.
         -6    1    1    2    0  502 -0.19896788304E+02  0.56836476865E+02  0.15769206768E+03  0.24170654831E+03  0.17300000000E+03 0. -1.
<mgrwt>
<rscale>  2 0.18318097E+03</rscale>
<asrwt>0</asrwt>
<pdfrwt beam="1">  1       21 0.36065899E-01 0.18318097E+03</pdfrwt>
<pdfrwt beam="2">  1       21 0.43624272E-01 0.18318097E+03</pdfrwt>
<totfact> 0.37618480E+04</totfact>
</mgrwt>
</event>
<event>
 4    1  0.3883260E+000  0.2121586E+03  0.7546771E-02  0.1139868E+00
         21   -1    0    0  501  502  0.00000000000E+00  0.00000000000E+00  0.97110651878E+02  0.97110651878E+02  0.00000000000E+00 0.  1.
         21   -1    0    0  502  503 -0.00000000000E+00 -0.00000000000E+00 -0.46352606568E+03  0.46352606568E+03  0.00000000000E+00 0.  1.
          6    1    1    2  501    0  0.12254092277E+03 -0.81224220595E+01 -0.18510721629E+03  0.28155982138E+03  0.17300000000E+03 0.  1.
         -6    1    1    2    0  503 -0.12254092277E+03  0.81224220595E+01 -0.18130819751E+03  0.27907689618E+03  0.17300000000E+03 0.  1.
<mgrwt>
<rscale>  2 0.21215855E+03</rscale>
<asrwt>0</asrwt>
<pdfrwt beam="1">  1       21 0.14940101E-01 0.21215855E+03</pdfrwt>
<pdfrwt beam="2">  1       21 0.71311701E-01 0.21215855E+03</pdfrwt>
<totfact> 0.69662024E+04</totfact>
</mgrwt>
</event>
<event>
 4    1  0.3883260E+000  0.1751602E+03  0.7546771E-02  0.1172571E+00
         21   -1    0    0  503  502  0.00000000000E+00  0.00000000000E+00  0.98373829437E+02  0.98373829437E+02  0.00000000000E+00 0. -1.
         21   -1    0    0  501  503 -0.00000000000E+00 -0.00000000000E+00 -0.38785942003E+03  0.38785942003E+03  0.00000000000E+00 0.  1.
          6    1    1    2  501    0 -0.23587336136E+02 -0.13990487254E+02 -0.25234414973E+03  0.30717855730E+03  0.17300000000E+03 0.  1.
         -6    1    1    2    0  502  0.23587336136E+02  0.13990487254E+02 -0.37141440865E+02  0.17905469217E+03  0.17300000000E+03 0. -1.
<mgrwt>
<rscale>  2 0.17516020E+03</rscale>
<asrwt>0</asrwt>
<pdfrwt beam="1">  1       21 0.15134435E-01 0.17516020E+03</pdfrwt>
<pdfrwt beam="2">  1       21 0.59670680E-01 0.17516020E+03</pdfrwt>
<totfact> 0.10187988E+05</totfact>
</mgrwt>
</event>
<event>
 4    1  0.3883260E+000  0.1783918E+03  0.7546771E-02  0.1169369E+00
         21   -1    0    0  503  502  0.00000000000E+00  0.00000000000E+00  0.86067670845E+02  0.86067670845E+02  0.00000000000E+00 0. -1.
         21   -1    0    0  501  503 -0.00000000000E+00 -0.00000000000E+00 -0.38474208701E+03  0.38474208701E+03  0.00000000000E+00 0. -1.
          6    1    1    2  501    0  0.26386844588E+02 -0.34617641927E+02 -0.19580377142E+03  0.26488254681E+03  0.17300000000E+03 0. -1.
         -6    1    1    2    0  502 -0.26386844588E+02  0.34617641927E+02 -0.10287064474E+03  0.20592721105E+03  0.17300000000E+03 0. -1.
<mgrwt>
<rscale>  2 0.17839183E+03</rscale>
<asrwt>0</asrwt>
<pdfrwt beam="1">  1       21 0.13241180E-01 0.17839183E+03</pdfrwt>
<pdfrwt beam="2">  1       21 0.59191089E-01 0.17839183E+03</pdfrwt>
<totfact> 0.13183745E+05</totfact>
</mgrwt>
</event>
<event>
 4    1  0.3883260E+000  0.2036080E+03  0.7546771E-02  0.1146730E+00
         21   -1    0    0  501  502  0.00000000000E+00  0.00000000000E+00  0.11264138068E+04  0.11264138068E+04  0.00000000000E+00 0. -1.
         21   -1    0    0  502  503 -0.00000000000E+00 -0.00000000000E+00 -0.36805520362E+02  0.36805520362E+02  0.00000000000E+00 0. -1.
          6    1    1    2  501    0 -0.75423712623E+02 -0.76409907311E+02  0.54072838364E+03  0.57779182690E+03  0.17300000000E+03 0. -1.
         -6    1    1    2    0  503  0.75423712623E+02  0.76409907311E+02  0.54887990276E+03  0.58542750022E+03  0.17300000000E+03 0. -1.
<mgrwt>
<rscale>  2 0.20360798E+03</rscale>
<asrwt>0</asrwt>
<pdfrwt beam="1">  1       21 0.17329441E+00 0.20360798E+03</pdfrwt>
<pdfrwt beam="2">  1       21 0.56623886E-02 0.20360798E+03</pdfrwt>
<totfact> 0.43755794E+04</totfact>
</mgrwt>
</event>
<event>
 4    1  0.3883260E+000  0.2689209E+03  0.7546771E-02  0.1101899E+00
         21   -1    0    0  501  502  0.00000000000E+00  0.00000000000E+00  0.34338488031E+03  0.34338488031E+03  0.00000000000E+00 0.  1.
         21   -1    0    0  502  503 -0.00000000000E+00 -0.00000000000E+00 -0.32401550444E+03  0.32401550444E+03  0.00000000000E+00 0. -1.
          6    1    1    2  501    0  0.18917834962E+03 -0.81246551091E+02  0.20710911492E+03  0.33942986832E+03  0.17300000000E+03 0.  1.
         -6    1    1    2    0  503 -0.18917834962E+03  0.81246551091E+02 -0.18773973905E+03  0.32797051643E+03  0.17300000000E+03 0. -1.
<mgrwt>
<rscale>  2 0.26892090E+03</rscale>
<asrwt>0</asrwt>
<pdfrwt beam="1">  1       21 0.52828443E-01 0.26892090E+03</pdfrwt>
<pdfrwt beam="2">  1       21 0.49848539E-01 0.26892090E+03</pdfrwt>
<totfact> 0.12463386E+04</totfact>
</mgrwt>
</event>
<event>
 4    1  0.3883260E+000  0.2005712E+03  0.7546771E-02  0.1149258E+00
         21   -1    0    0  503  502  0.00000000000E+00  0.00000000000E+00  0.19338121564E+03  0.19338121564E+03  0.00000000000E+00 0. -1.
         21   -1    0    0  501  503 -0.00000000000E+00 -0.00000000000E+00 -0.21846298151E+03  0.21846298151E+03  0.00000000000E+00 0.  1.
          6    1    1    2  501    0 -0.82581598301E+02  0.58992214558E+02 -0.57544739227E+02  0.20866288307E+03  0.17300000000E+03 0.  1.
         -6    1    1    2    0  502  0.82581598301E+02 -0.58992214558E+02  0.32462973356E+02  0.20318131409E+03  0.17300000000E+03 0.  1.
<mgrwt>
<rscale>  2 0.20057119E+03</rscale>
<asrwt>0</asrwt>
<pdfrwt beam="1">  1       21 0.29750956E-01 0.20057119E+03</pdfrwt>
<pdfrwt beam="2">  1       21 0.33609690E-01 0.20057119E+03</pdfrwt>
<totfact> 0.92051723E+04</totfact>
</mgrwt>
</event>
<event>
 4    1  0.3883260E+000  0.2127548E+03  0.7546771E-02  0.1139403E+00
         21   -1    0    0  503  502  0.00000000000E+00  0.00000000000E+00  0.56285088579E+03  0.56285088579E+03  0.00000000000E+00 0. -1.
         21   -1    0    0  501  503 -0.00000000000E+00 -0.00000000000E+00 -0.99034738342E+02  0.99034738342E+02  0.00000000000E+00 0. -1.
          6    1    1    2  501    0 -0.12201527652E+03  0.21163049590E+02  0.88430223285E+02  0.23040075252E+03  0.17300000000E+03 0. -1.
         -6    1    1    2    0  502  0.12201527652E+03 -0.21163049590E+02  0.37538592417E+03  0.43148487161E+03  0.17300000000E+03 0. -1.
<mgrwt>
<rscale>  2 0.21275479E+03</rscale>
<asrwt>0</asrwt>
<pdfrwt beam="1">  1       21 0.86592442E-01 0.21275479E+03</pdfrwt>
<pdfrwt beam="2">  1       21 0.15236114E-01 0.21275479E+03</pdfrwt>
<totfact> 0.43335035E+04</totfact>
</mgrwt>
</event>
<event>
 4    1  0.3883260E+000  0.1816326E+03  0.7546771E-02  0.1166232E+00
         21   -1    0    0  503  502  0.00000000000E+00  0.00000000000E+00  0.11122666359E+04  0.11122666359E+04  0.00000000000E+00 0. -1.
         21   -1    0    0  501  503 -0.00000000000E+00 -0.00000000000E+00 -0.41092451880E+02  0.41092451880E+02  0.00000000000E+00 0.  1.
          6    1    1    2  501    0  0.36719557262E+02 -0.41389326127E+02  0.23141916977E+03  0.29418571403E+03  0.17300000000E+03 0.  1.
         -6    1    1    2    0  502 -0.36719557262E+02  0.41389326127E+02  0.83975501427E+03  0.85917337377E+03  0.17300000000E+03 0. -1.
<mgrwt>
<rscale>  2 0.18163260E+03</rscale>
<asrwt>0</asrwt>
<pdfrwt beam="1">  1       21 0.17111792E+00 0.18163260E+03</pdfrwt>
<pdfrwt beam="2">  1       21 0.63219165E-02 0.18163260E+03</pdfrwt>
<totfact> 0.38043586E+04</totfact>
</mgrwt>
</event>
<event>
 4    1  0.3883260E+000  0.1769399E+03  0.7546771E-02  0.1170798E+00
         21   -1    0    0  503  502  0.00000000000E+00  0.00000000000E+00  0.57802143023E+02  0.57802143023E+02  0.00000000000E+00 0. -1.
         21   -1    0    0  501  503 -0.00000000000E+00 -0.00000000000E+00 -0.62245447326E+03  0.62245447326E+03  0.00000000000E+00 0. -1.
          6    1    1    2  501    0 -0.30704509202E+02 -0.20880068602E+02 -0.40488461307E+03  0.44185890740E+03  0.17300000000E+03 0. -1.
         -6    1    1    2    0  502  0.30704509202E+02  0.20880068602E+02 -0.15976771716E+03  0.23839770888E+03  0.17300000000E+03 0. -1.
<mgrwt>
<rscale>  2 0.17693995E+03</rscale>
<asrwt>0</asrwt>
<pdfrwt beam="1">  1       21 0.88926368E-02 0.17693995E+03</pdfrwt>
<pdfrwt beam="2">  1       21 0.95762233E-01 0.17693995E+03</pdfrwt>
<totfact> 0.91300205E+04</totfact>
</mgrwt>
</event>
<event>
 4    1  0.3883260E+000  0.2282787E+03  0.7546771E-02  0.1127857E+00
         21   -1    0    0  501  502  0.00000000000E+00  0.00000000000E+00  0.16516704406E+03  0.16516704406E+03  0.00000000000E+00 0. -1.
         21   -1    0    0  502  503 -0.00000000000E+00 -0.00000000000E+00 -0.46808964625E+03  0.46808964625E+03  0.00000000000E+00 0.  1.
          6    1    1    2  501    0  0.88913449385E+02  0.11948454926E+03  0.29314196055E+02  0.23015316875E+03  0.17300000000E+03 0. -1.
         -6    1    1    2    0  503 -0.88913449385E+02 -0.11948454926E+03 -0.33223679825E+03  0.40310352157E+03  0.17300000000E+03 0.  1.
<mgrwt>
<rscale>  2 0.22827869E+03</rscale>
<asrwt>0</asrwt>
<pdfrwt beam="1">  1       21 0.25410315E-01 0.22827869E+03</pdfrwt>
<pdfrwt beam="2">  1       21 0.72013791E-01 0.22827869E+03</pdfrwt>
<totfact> 0.25055674E+04</totfact>
</mgrwt>
</event>
<event>
 4    1  0.3883260E+000  0.1979880E+03  0.7546771E-02  0.1151448E+00
         21   -1    0    0  501  502  0.00000000000E+00  0.00000000000E+00  0.11414169658E+03  0.11414169658E+03  0.00000000000E+00 0.  1.
         21   -1    0    0  502  503 -0.00000000000E+00 -0.00000000000E+00 -0.54292060277E+03  0.54292060277E+03  0.00000000000E+00 0. -1.
          6    1    1    2  501    0 -0.17594034481E+02 -0.94660889731E+02 -0.15242395982E+02  0.19857382690E+03  0.17300000000E+03 0.  1.
         -6    1    1    2    0  503  0.17594034481E+02  0.94660889731E+02 -0.41353651020E+03  0.45848847245E+03  0.17300000000E+03 0. -1.
<mgrwt>
<rscale>  2 0.19798796E+03</rscale>
<asrwt>0</asrwt>
<pdfrwt beam="1">  1       21 0.17560261E-01 0.19798796E+03</pdfrwt>
<pdfrwt beam="2">  1       21 0.83526245E-01 0.19798796E+03</pdfrwt>
<totfact> 0.36544185E+04</totfact>
</mgrwt>
</event>
<event>
 4    1  0.3883260E+000  0.1942434E+03  0.7546771E-02  0.1154689E+00
         21   -1    0    0  501  502  0.00000000000E+00  0.00000000000E+00  0.76032362503E+02  0.76032362503E+02  0.00000000000E+00 0.  1.
         21   -1    0    0  502  503 -0.00000000000E+00 -0.00000000000E+00 -0.13475847027E+04  0.13475847027E+04  0.00000000000E+00 0. -1.
          6    1    1    2  501    0  0.82738234515E+02  0.30917213442E+02 -0.70009661402E+02  0.20647479804E+03  0.17300000000E+03 0.  1.
         -6    1    1    2    0  503 -0.82738234515E+02 -0.30917213442E+02 -0.12015426788E+04  0.12171422672E+04  0.17300000000E+03 0. -1.
<mgrwt>
<rscale>  2 0.19424338E+03</rscale>
<asrwt>0</asrwt>
<pdfrwt beam="1">  1       21 0.11697288E-01 0.19424338E+03</pdfrwt>
<pdfrwt beam="2">  1       21 0.20732069E+00 0.19424338E+03</pdfrwt>
<totfact> 0.73988033E+03</totfact>
</mgrwt>
</event>
<event>
 4    1  0.3883260E+000  0.1795947E+03  0.7546771E-02  0.1168196E+00
         21   -1    0    0  501  502  0.00000000000E+00  0.00000000000E+00  0.62713721268E+03  0.62713721268E+03  0.00000000000E+00 0. -1.
         21   -1    0    0  502  503 -0.00000000000E+00 -0.00000000000E+00 -0.52122679571E+02  0.52122679571E+02  0.00000000000E+00 0. -1.
          6    1    1    2  501    0 -0.42892525450E+02  0.22033851559E+02  0.32663299345E+03  0.37275108553E+03  0.17300000000E+03 0. -1.
         -6    1    1    2    0  503  0.42892525450E+02 -0.22033851559E+02  0.24838153966E+03  0.30650880672E+03  0.17300000000E+03 0. -1.
<mgrwt>
<rscale>  2 0.17959471E+03</rscale>
<asrwt>0</asrwt>
<pdfrwt beam="1">  1       21 0.96482643E-01 0.17959471E+03</pdfrwt>
<pdfrwt beam="2">  1       21 0.80188742E-02 0.17959471E+03</pdfrwt>
<totfact> 0.10731826E+05</totfact>
</mgrwt>
</event>
<event>
 4    1  0.3883260E+000  0.1794737E+03  0.7546771E-02  0.1168313E+00
         21   -1    0    0  503  502  0.00000000000E+00  0.00000000000E+00  0.66277849841E+03  0.66277849841E+03  0.00000000000E+00 0.  1.
         21   -1    0    0  501  503 -0.00000000000E+00 -0.00000000000E+00 -0.62614291572E+02  0.62614291572E+02  0.00000000000E+00 0.  1.
          6    1    1    2  501    0  0.43905212833E+02 -0.18818634276E+02  0.12848997212E+03  0.22072716563E+03  0.17300000000E+03 0.  1.
         -6    1    1    2    0  502 -0.43905212833E+02  0.18818634276E+02  0.47167423472E+03  0.50466562436E+03  0.17300000000E+03 0.  1.
<mgrwt>
<rscale>  2 0.17947370E+03</rscale>
<asrwt>0</asrwt>
<pdfrwt beam="1">  1       21 0.10196592E+00 0.17947370E+03</pdfrwt>
<pdfrwt beam="2">  1       21 0.96329684E-02 0.17947370E+03</pdfrwt>
<totfact> 0.68349949E+04</totfact>
</mgrwt>
</event>
<event>
 4    1  0.3883260E+000  0.1759556E+03  0.7546771E-02  0.1171776E+00
         21   -1    0    0  501  502  0.00000000000E+00  0.00000000000E+00  0.25358133153E+03  0.25358133153E+03  0.00000000000E+00 0.  1.
         21   -1    0    0  502  503 -0.00000000000E+00 -0.00000000000E+00 -0.12908169022E+03  0.12908169022E+03  0.00000000000E+00 0.  1.
          6    1    1    2  501    0  0.27540380641E+02 -0.16519181191E+02  0.17728257530E+02  0.17684639388E+03  0.17300000000E+03 0.  1.
         -6    1    1    2    0  503 -0.27540380641E+02  0.16519181191E+02  0.10677138377E+03  0.20581662787E+03  0.17300000000E+03 0.  1.
<mgrwt>
<rscale>  2 0.17595555E+03</rscale>
<asrwt>0</asrwt>
<pdfrwt beam="1">  1       21 0.39012512E-01 0.17595555E+03</pdfrwt>
<pdfrwt beam="2">  1       21 0.19858722E-01 0.17595555E+03</pdfrwt>
<totfact> 0.14898534E+05</totfact>
</mgrwt>
</event>
<event>
 4    1  0.3883260E+000  0.1767462E+03  0.7546771E-02  0.1170990E+00
         21   -1    0    0  501  502  0.00000000000E+00  0.00000000000E+00  0.28460161563E+03  0.28460161563E+03  0.00000000000E+00 0. -1.
         21   -1    0    0  502  503 -0.00000000000E+00 -0.00000000000E+00 -0.11436103159E+03  0.11436103159E+03  0.00000000000E+00 0.  1.
          6    1    1    2  501    0 -0.24801965938E+02 -0.26364631795E+02  0.12511159042E+03  0.21654593365E+03  0.17300000000E+03 0. -1.
         -6    1    1    2    0  503  0.24801965938E+02  0.26364631795E+02  0.45128993630E+02  0.18241671357E+03  0.17300000000E+03 0. -1.
<mgrwt>
<rscale>  2 0.17674623E+03</rscale>
<asrwt>0</asrwt>
<pdfrwt beam="1">  1       21 0.43784864E-01 0.17674623E+03</pdfrwt>
<pdfrwt beam="2">  1       21 0.17594005E-01 0.17674623E+03</pdfrwt>
<totfact> 0.14754176E+05</totfact>
</mgrwt>
</event>
<event>
 4    1  0.3883260E+000  0.1763072E+03  0.7546771E-02  0.1171426E+00
         21   -1    0    0  501  502  0.00000000000E+00  0.00000000000E+00  0.39358699134E+03  0.39358699134E+03  0.00000000000E+00 0.  1.
         21   -1    0    0  502  503 -0.00000000000E+00 -0.00000000000E+00 -0.81778731745E+03  0.81778731745E+03  0.00000000000E+00 0.  1.
          6    1    1    2  501    0  0.23347276409E+02 -0.24700624237E+02  0.36359785039E+03  0.40408862018E+03  0.17300000000E+03 0.  1.
         -6    1    1    2    0  503 -0.23347276409E+02  0.24700624237E+02 -0.78779817649E+03  0.80728568861E+03  0.17300000000E+03 0.  1.
<mgrwt>
<rscale>  2 0.17630716E+03</rscale>
<asrwt>0</asrwt>
<pdfrwt beam="1">  1       21 0.60551845E-01 0.17630716E+03</pdfrwt>
<pdfrwt beam="2">  1       21 0.12581343E+00 0.17630716E+03</pdfrwt>
<totfact> 0.12127916E+03</totfact>
</mgrwt>
</event>
<event>
 4    1  0.3883260E+000  0.1853595E+03  0.7546771E-02  0.1162715E+00
         21   -1    0    0  503  502  0.00000000000E+00  0.00000000000E+00  0.80020694933E+03  0.80020694933E+03  0.00000000000E+00 0.  1.
         21   -1    0    0  501  503 -0.00000000000E+00 -0.00000000000E+00 -0.74357438948E+02  0.74357438948E+02  0.00000000000E+00 0. -1.
          6    1    1    2  501    0  0.43718377513E+02 -0.50178213231E+02  0.78669430177E+02  0.20136292822E+03  0.17300000000E+03 0. -1.
         -6    1    1    2    0  502 -0.43718377513E+02  0.50178213231E+02  0.64718008020E+03  0.67320146006E+03  0.17300000000E+03 0.  1.
<mgrwt>
<rscale>  2 0.18535951E+03</rscale>
<asrwt>0</asrwt>
<pdfrwt beam="1">  1       21 0.12310876E+00 0.18535951E+03</pdfrwt>
<pdfrwt beam="2">  1       21 0.11439607E-01 0.18535951E+03</pdfrwt>
<totfact> 0.31806204E+04</totfact>
</mgrwt>
</event>
<event>
 4    1  0.3883260E+000  0.1935400E+03  0.7546771E-02  0.1155307E+00
         21   -1    0    0  503  502  0.00000000000E+00  0.00000000000E+00  0.20531877263E+03  0.20531877263E+03  0.00000000000E+00 0.  1.
         21   -1    0    0  501  503 -0.00000000000E+00 -0.00000000000E+00 -0.19941690724E+03  0.19941690724E+03  0.00000000000E+00 0.  1.
          6    1    1    2  501    0  0.32325945165E+02 -0.80521787069E+02 -0.56100326255E+02  0.20150675306E+03  0.17300000000E+03 0. -1.
         -6    1    1    2    0  502 -0.32325945165E+02  0.80521787069E+02  0.62002191642E+02  0.20322892681E+03  0.17300000000E+03 0. -1.
<mgrwt>
<rscale>  2 0.19353998E+03</rscale>
<asrwt>0</asrwt>
<pdfrwt beam="1">  1       21 0.31587504E-01 0.19353998E+03</pdfrwt>
<pdfrwt beam="2">  1       21 0.30679524E-01 0.19353998E+03</pdfrwt>
<totfact> 0.98247877E+04</totfact>
</mgrwt>
</event>
<event>
 4    1  0.3883260E+000  0.1797826E+03  0.7546771E-02  0.1168014E+00
         21   -1    0    0  503  502  0.00000000000E+00  0.00000000000E+00  0.31268347465E+02  0.31268347465E+02  0.00000000000E+00 0.  1.
         21   -1    0    0  501  503 -0.00000000000E+00 -0.00000000000E+00 -0.13001538863E+04  0.13001538863E+04  0.00000000000E+00 0.  1.
          6    1    1    2  501    0 -0.41054365515E+02 -0.26595377845E+02 -0.93581809204E+03  0.95293088754E+03  0.17300000000E+03 0.  1.
         -6    1    1    2    0  502  0.41054365515E+02  0.26595377845E+02 -0.33306744682E+03  0.37849134624E+03  0.17300000000E+03 0.  1.
<mgrwt>
<rscale>  2 0.17978258E+03</rscale>
<asrwt>0</asrwt>
<pdfrwt beam="1">  1       21 0.48105146E-02 0.17978258E+03</pdfrwt>
<pdfrwt beam="2">  1       21 0.20002369E+00 0.17978258E+03</pdfrwt>
<totfact> 0.38890042E+04</totfact>
</mgrwt>
</event>
<event>
 4    1  0.3883260E+000  0.1805846E+03  0.7546771E-02  0.1167239E+00
         21   -1    0    0  503  502  0.00000000000E+00  0.00000000000E+00  0.13247676891E+04  0.13247676891E+04  0.00000000000E+00 0. -1.
         21   -1    0    0  501  503 -0.00000000000E+00 -0.00000000000E+00 -0.54376199677E+02  0.54376199677E+02  0.00000000000E+00 0.  1.
          6    1    1    2  501    0  0.30792413681E+02  0.41636644287E+02  0.12505334841E+03  0.21965682970E+03  0.17300000000E+03 0.  1.
         -6    1    1    2    0  502 -0.30792413681E+02 -0.41636644287E+02  0.11453381410E+04  0.11594870590E+04  0.17300000000E+03 0. -1.
<mgrwt>
<rscale>  2 0.18058456E+03</rscale>
<asrwt>0</asrwt>
<pdfrwt beam="1">  1       21 0.20381039E+00 0.18058456E+03</pdfrwt>
<pdfrwt beam="2">  1       21 0.83655702E-02 0.18058456E+03</pdfrwt>
<totfact> 0.14233565E+04</totfact>
</mgrwt>
</event>
<event>
 4    1  0.3883260E+000  0.1850092E+03  0.7546771E-02  0.1163041E+00
         21   -1    0    0  503  502  0.00000000000E+00  0.00000000000E+00  0.44133772023E+03  0.44133772023E+03  0.00000000000E+00 0.  1.
         21   -1    0    0  501  503 -0.00000000000E+00 -0.00000000000E+00 -0.14362506062E+03  0.14362506062E+03  0.00000000000E+00 0.  1.
          6    1    1    2  501    0  0.46429441079E+02  0.46300198769E+02 -0.49516456801E+02  0.19152096726E+03  0.17300000000E+03 0.  1.
         -6    1    1    2    0  502 -0.46429441079E+02 -0.46300198769E+02  0.34722911641E+03  0.39344181360E+03  0.17300000000E+03 0.  1.
<mgrwt>
<rscale>  2 0.18500919E+03</rscale>
<asrwt>0</asrwt>
<pdfrwt beam="1">  1       21 0.67898110E-01 0.18500919E+03</pdfrwt>
<pdfrwt beam="2">  1       21 0.22096163E-01 0.18500919E+03</pdfrwt>
<totfact> 0.38081937E+04</totfact>
</mgrwt>
</event>
<event>
 4    1  0.3883260E+000  0.2017762E+03  0.7546771E-02  0.1148249E+00
         21   -1    0    0  501  502  0.00000000000E+00  0.00000000000E+00  0.33365206604E+02  0.33365206604E+02  0.00000000000E+00 0.  1.
         21   -1    0    0  502  503 -0.00000000000E+00 -0.00000000000E+00 -0.12236425677E+04  0.12236425677E+04  0.00000000000E+00 0. -1.
          6    1    1    2  501    0 -0.70457075740E+02 -0.76291699109E+02 -0.56200549380E+03  0.59712963244E+03  0.17300000000E+03 0.  1.
         -6    1    1    2    0  503  0.70457075740E+02  0.76291699109E+02 -0.62827186729E+03  0.65987814186E+03  0.17300000000E+03 0. -1.
<mgrwt>
<rscale>  2 0.20177617E+03</rscale>
<asrwt>0</asrwt>
<pdfrwt beam="1">  1       21 0.51331092E-02 0.20177617E+03</pdfrwt>
<pdfrwt beam="2">  1       21 0.18825269E+00 0.20177617E+03</pdfrwt>
<totfact> 0.40960432E+04</totfact>
</mgrwt>
</event>
<event>
 4    1  0.3883260E+000  0.2272663E+03  0.7546771E-02  0.1128579E+00
         21   -1    0    0  501  502  0.00000000000E+00  0.00000000000E+00  0.26872182596E+02  0.26872182596E+02  0.00000000000E+00 0. -1.
         21   -1    0    0  502  503 -0.00000000000E+00 -0.00000000000E+00 -0.21476949327E+04  0.21476949327E+04  0.00000000000E+00 0. -1.
          6    1    1    2  501    0 -0.19890511997E+02 -0.14603203542E+03 -0.70799324642E+03  0.74357543317E+03  0.17300000000E+03 0. -1.
         -6    1    1    2    0  503  0.19890511997E+02  0.14603203542E+03 -0.14128295036E+04  0.14309916821E+04  0.17300000000E+03 0. -1.
<mgrwt>
<rscale>  2 0.22726634E+03</rscale>
<asrwt>0</asrwt>
<pdfrwt beam="1">  1       21 0.41341821E-02 0.22726634E+03</pdfrwt>
<pdfrwt beam="2">  1       21 0.33041459E+00 0.22726634E+03</pdfrwt>
<totfact> 0.81293784E+03</totfact>
</mgrwt>
</event>
<event>
 4    1  0.3883260E+000  0.2266866E+03  0.7546771E-02  0.1128994E+00
         21   -1    0    0  503  502  0.00000000000E+00  0.00000000000E+00  0.15113294146E+03  0.15113294146E+03  0.00000000000E+00 0. -1.
         21   -1    0    0  501  503 -0.00000000000E+00 -0.00000000000E+00 -0.37125321174E+03  0.37125321174E+03  0.00000000000E+00 0. -1.
          6    1    1    2  501    0 -0.13424662499E+03 -0.58614375675E+02 -0.18583065231E+03  0.29312084999E+03  0.17300000000E+03 0. -1.
         -6    1    1    2    0  502  0.13424662499E+03  0.58614375675E+02 -0.34289617964E+02  0.22926530322E+03  0.17300000000E+03 0. -1.
<mgrwt>
<rscale>  2 0.22668657E+03</rscale>
<asrwt>0</asrwt>
<pdfrwt beam="1">  1       21 0.23251222E-01 0.22668657E+03</pdfrwt>
<pdfrwt beam="2">  1       21 0.57115878E-01 0.22668657E+03</pdfrwt>
<totfact> 0.49262059E+04</totfact>
</mgrwt>
</event>
<event>
 4    1  0.3883260E+000  0.2203115E+03  0.7546771E-02  0.1133651E+00
         21   -1    0    0  501  502  0.00000000000E+00  0.00000000000E+00  0.21979959532E+03  0.21979959532E+03  0.00000000000E+00 0.  1.
         21   -1    0    0  502  503 -0.00000000000E+00 -0.00000000000E+00 -0.23824324873E+03  0.23824324873E+03  0.00000000000E+00 0. -1.
          6    1    1    2  501    0 -0.13128618402E+02 -0.13577844592E+03  0.52704261117E+02  0.22652789262E+03  0.17300000000E+03 0.  1.
         -6    1    1    2    0  503  0.13128618402E+02  0.13577844592E+03 -0.71147914528E+02  0.23151495144E+03  0.17300000000E+03 0.  1.
<mgrwt>
<rscale>  2 0.22031148E+03</rscale>
<asrwt>0</asrwt>
<pdfrwt beam="1">  1       21 0.33815322E-01 0.22031148E+03</pdfrwt>
<pdfrwt beam="2">  1       21 0.36652807E-01 0.22031148E+03</pdfrwt>
<totfact> 0.59729256E+04</totfact>
</mgrwt>
</event>
<event>
 4    1  0.3883260E+000  0.2404476E+03  0.7546771E-02  0.1119495E+00
         21   -1    0    0  503  502  0.00000000000E+00  0.00000000000E+00  0.71689818254E+02  0.71689818254E+02  0.00000000000E+00 0.  1.
         21   -1    0    0  501  503 -0.00000000000E+00 -0.00000000000E+00 -0.82314399318E+03  0.82314399318E+03  0.00000000000E+00 0. -1.
          6    1    1    2  501    0 -0.10967652771E+03 -0.12592507629E+03 -0.43942237236E+03  0.50090626558E+03  0.17300000000E+03 0. -1.
         -6    1    1    2    0  502  0.10967652771E+03  0.12592507629E+03 -0.31203180257E+03  0.39392754585E+03  0.17300000000E+03 0.  1.
<mgrwt>
<rscale>  2 0.24044764E+03</rscale>
<asrwt>0</asrwt>
<pdfrwt beam="1">  1       21 0.11029203E-01 0.24044764E+03</pdfrwt>
<pdfrwt beam="2">  1       21 0.12663753E+00 0.24044764E+03</pdfrwt>
<totfact> 0.30673155E+04</totfact>
</mgrwt>
</event>
<event>
 4    1  0.3883260E+000  0.2598466E+03  0.7546771E-02  0.1107235E+00
         21   -1    0    0  503  502  0.00000000000E+00  0.00000000000E+00  0.18167695718E+03  0.18167695718E+03  0.00000000000E+00 0. -1.
         21   -1    0    0  501  503 -0.00000000000E+00 -0.00000000000E+00 -0.37362585852E+03  0.37362585852E+03  0.00000000000E+00 0. -1.
          6    1    1    2  501    0  0.17114499638E+03  0.91107969260E+02 -0.11616465714E+03  0.28463046115E+03  0.17300000000E+03 0. -1.
         -6    1    1    2    0  502 -0.17114499638E+03 -0.91107969260E+02 -0.75784244201E+02  0.27067235455E+03  0.17300000000E+03 0. -1.
<mgrwt>
<rscale>  2 0.25984663E+03</rscale>
<asrwt>0</asrwt>
<pdfrwt beam="1">  1       21 0.27950302E-01 0.25984663E+03</pdfrwt>
<pdfrwt beam="2">  1       21 0.57480900E-01 0.25984663E+03</pdfrwt>
<totfact> 0.33623146E+04</totfact>
</mgrwt>
</event>
<event>
 4    1  0.3883260E+000  0.2783635E+03  0.7546771E-02  0.1096586E+00
         21   -1    0    0  503  502  0.00000000000E+00  0.00000000000E+00  0.36017320343E+03  0.36017320343E+03  0.00000000000E+00 0. -1.
         21   -1    0    0  501  503 -0.00000000000E+00 -0.00000000000E+00 -0.22281549502E+03  0.22281549502E+03  0.00000000000E+00 0. -1.
          6    1    1    2  501    0 -0.10351093400E+03 -0.19194465419E+03  0.14563497681E+02  0.27874425410E+03  0.17300000000E+03 0. -1.
         -6    1    1    2    0  502  0.10351093400E+03  0.19194465419E+03  0.12279421072E+03  0.30424444435E+03  0.17300000000E+03 0. -1.
<mgrwt>
<rscale>  2 0.27836355E+03</rscale>
<asrwt>0</asrwt>
<pdfrwt beam="1">  1       21 0.55411262E-01 0.27836355E+03</pdfrwt>
<pdfrwt beam="2">  1       21 0.34279307E-01 0.27836355E+03</pdfrwt>
<totfact> 0.24132720E+04</totfact>
</mgrwt>
</event>
<event>
 4    1  0.3883260E+000  0.1730262E+03  0.7546771E-02  0.1174728E+00
         21   -1    0    0  503  502  0.00000000000E+00  0.00000000000E+00  0.21335996374E+03  0.21335996374E+03  0.00000000000E+00 0. -1.
         21   -1    0    0  501  503 -0.00000000000E+00 -0.00000000000E+00 -0.15063262402E+03  0.15063262402E+03  0.00000000000E+00 0. -1.
          6    1    1    2  501    0  0.26258489537E+01 -0.14699932234E+01 -0.16262780837E+02  0.17378876259E+03  0.17300000000E+03 0. -1.
         -6    1    1    2    0  502 -0.26258489537E+01  0.14699932234E+01  0.78990120556E+02  0.19020382517E+03  0.17300000000E+03 0. -1.
<mgrwt>
<rscale>  2 0.17302617E+03</rscale>
<asrwt>0</asrwt>
<pdfrwt beam="1">  1       21 0.32824610E-01 0.17302617E+03</pdfrwt>
<pdfrwt beam="2">  1       21 0.23174250E-01 0.17302617E+03</pdfrwt>
<totfact> 0.15729406E+05</totfact>
</mgrwt>
</event>
<event>
 4    1  0.3883260E+000  0.2205043E+03  0.7546771E-02  0.1133508E+00
         21   -1    0    0  501  502  0.00000000000E+00  0.00000000000E+00  0.10424666054E+04  0.10424666054E+04  0.00000000000E+00 0. -1.
         21   -1    0    0  502  503 -0.00000000000E+00 -0.00000000000E+00 -0.71139063711E+02  0.71139063711E+02  0.00000000000E+00 0.  1.
          6    1    1    2  501    0 -0.10356256912E+03 -0.89263399853E+02  0.81240896092E+03  0.84180192448E+03  0.17300000000E+03 0. -1.
         -6    1    1    2    0  503  0.10356256912E+03  0.89263399853E+02  0.15891858075E+03  0.27180374461E+03  0.17300000000E+03 0. -1.
<mgrwt>
<rscale>  2 0.22050433E+03</rscale>
<asrwt>0</asrwt>
<pdfrwt beam="1">  1       21 0.16037947E+00 0.22050433E+03</pdfrwt>
<pdfrwt beam="2">  1       21 0.10944472E-01 0.22050433E+03</pdfrwt>
<totfact> 0.16967606E+04</totfact>
</mgrwt>
</event>
<event>
 4    1  0.3883260E+000  0.2705457E+03  0.7546771E-02  0.1100968E+00
         21   -1    0    0  501  502  0.00000000000E+00  0.00000000000E+00  0.27863814410E+03  0.27863814410E+03  0.00000000000E+00 0.  1.
         21   -1    0    0  502  503 -0.00000000000E+00 -0.00000000000E+00 -0.32600047579E+03  0.32600047579E+03  0.00000000000E+00 0.  1.
          6    1    1    2  501    0  0.19551944781E+03  0.70979828660E+02  0.10954829334E+03  0.29188322857E+03  0.17300000000E+03 0.  1.
         -6    1    1    2    0  503 -0.19551944781E+03 -0.70979828660E+02 -0.15691062504E+03  0.31275539132E+03  0.17300000000E+03 0.  1.
<mgrwt>
<rscale>  2 0.27054573E+03</rscale>
<asrwt>0</asrwt>
<pdfrwt beam="1">  1       21 0.42867407E-01 0.27054573E+03</pdfrwt>
<pdfrwt beam="2">  1       21 0.50153920E-01 0.27054573E+03</pdfrwt>
<totfact> 0.19017752E+04</totfact>
</mgrwt>
</event>
<event>
 4    1  0.3883260E+000  0.2665382E+03  0.7546771E-02  0.1103277E+00
         21   -1    0    0  503  502  0.00000000000E+00  0.00000000000E+00  0.41249310231E+03  0.41249310231E+03  0.00000000000E+00 0. -1.
         21   -1    0    0  501  503 -0.00000000000E+00 -0.00000000000E+00 -0.18526229724E+03  0.18526229724E+03  0.00000000000E+00 0.  1.
          6    1    1    2  501    0 -0.14281801541E+03 -0.14393274592E+03  0.34337246668E+02  0.26874089265E+03  0.17300000000E+03 0.  1.
         -6    1    1    2    0  502  0.14281801541E+03  0.14393274592E+03  0.19289355840E+03  0.32901450689E+03  0.17300000000E+03 0. -1.
<mgrwt>
<rscale>  2 0.26653822E+03</rscale>
<asrwt>0</asrwt>
<pdfrwt beam="1">  1       21 0.63460477E-01 0.26653822E+03</pdfrwt>
<pdfrwt beam="2">  1       21 0.28501892E-01 0.26653822E+03</pdfrwt>
<totfact> 0.26045469E+04</totfact>
</mgrwt>
</event>
<event>
 4    1  0.3883260E+000  0.2355825E+03  0.7546771E-02  0.1122771E+00
         21   -1    0    0  503  502  0.00000000000E+00  0.00000000000E+00  0.18628027593E+04  0.18628027593E+04  0.00000000000E+00 0.  1.
         21   -1    0    0  501  503 -0.00000000000E+00 -0.00000000000E+00 -0.73363123125E+02  0.73363123125E+02  0.00000000000E+00 0. -1.
          6    1    1    2  501    0  0.11958776126E+03  0.10615505920E+03  0.14867258277E+03  0.27857255088E+03  0.17300000000E+03 0. -1.
         -6    1    1    2    0  502 -0.11958776126E+03 -0.10615505920E+03  0.16407670534E+04  0.16575933316E+04  0.17300000000E+03 0.  1.
<mgrwt>
<rscale>  2 0.23558253E+03</rscale>
<asrwt>0</asrwt>
<pdfrwt beam="1">  1       21 0.28658500E+00 0.23558253E+03</pdfrwt>
<pdfrwt beam="2">  1       21 0.11286636E-01 0.23558253E+03</pdfrwt>
<totfact> 0.25458588E+03</totfact>
</mgrwt>
</event>
<event>
 4    1  0.3883260E+000  0.2400953E+03  0.7546771E-02  0.1119729E+00
         21   -1    0    0  503  502  0.00000000000E+00  0.00000000000E+00  0.16293805089E+03  0.16293805089E+03  0.00000000000E+00 0. -1.
         21   -1    0    0  501  503 -0.00000000000E+00 -0.00000000000E+00 -0.46620018139E+03  0.46620018139E+03  0.00000000000E+00 0.  1.
          6    1    1    2  501    0  0.79690498013E+02  0.14617171259E+03 -0.30609744485E+03  0.38902620834E+03  0.17300000000E+03 0.  1.
         -6    1    1    2    0  502 -0.79690498013E+02 -0.14617171259E+03  0.28353143462E+01  0.24011202395E+03  0.17300000000E+03 0. -1.
<mgrwt>
<rscale>  2 0.24009528E+03</rscale>
<asrwt>0</asrwt>
<pdfrwt beam="1">  1       21 0.25067393E-01 0.24009528E+03</pdfrwt>
<pdfrwt beam="2">  1       21 0.71723104E-01 0.24009528E+03</pdfrwt>
<totfact> 0.25799435E+04</totfact>
</mgrwt>
</event>
<event>
 4    1  0.3883260E+000  0.2056021E+03  0.7546771E-02  0.1145097E+00
         21   -1    0    0  501  502  0.00000000000E+00  0.00000000000E+00  0.40011528570E+02  0.40011528570E+02  0.00000000000E+00 0. -1.
         21   -1    0    0  502  503 -0.00000000000E+00 -0.00000000000E+00 -0.10672123090E+04  0.10672123090E+04  0.00000000000E+00 0.  1.
          6    1    1    2  501    0 -0.76546975847E+02 -0.80521958616E+02 -0.45813800238E+03  0.50215799760E+03  0.17300000000E+03 0. -1.
         -6    1    1    2    0  503  0.76546975847E+02  0.80521958616E+02 -0.56906277801E+03  0.60506583993E+03  0.17300000000E+03 0.  1.
<mgrwt>
<rscale>  2 0.20560210E+03</rscale>
<asrwt>0</asrwt>
<pdfrwt beam="1">  1       21 0.61556193E-02 0.20560210E+03</pdfrwt>
<pdfrwt beam="2">  1       21 0.16418652E+00 0.20560210E+03</pdfrwt>
<totfact> 0.43945706E+04</totfact>
</mgrwt>
</event>
<event>
 4    1  0.3883260E+000  0.1875202E+03  0.7546771E-02  0.1160717E+00
         21   -1    0    0  501  502  0.00000000000E+00  0.00000000000E+00  0.54807782098E+02  0.54807782098E+02  0.00000000000E+00 0. -1.
         21   -1    0    0  502  503 -0.00000000000E+00 -0.00000000000E+00 -0.64245904343E+03  0.64245904343E+03  0.00000000000E+00 0. -1.
          6    1    1    2  501    0  0.72312265900E+02 -0.24029996953E+01 -0.28096476462E+03  0.33779437113E+03  0.17300000000E+03 0. -1.
         -6    1    1    2    0  503 -0.72312265900E+02  0.24029996953E+01 -0.30668649671E+03  0.35947245439E+03  0.17300000000E+03 0. -1.
<mgrwt>
<rscale>  2 0.18752023E+03</rscale>
<asrwt>0</asrwt>
<pdfrwt beam="1">  1       21 0.84319667E-02 0.18752023E+03</pdfrwt>
<pdfrwt beam="2">  1       21 0.98839850E-01 0.18752023E+03</pdfrwt>
<totfact> 0.92600513E+04</totfact>
</mgrwt>
</event>
<event>
 4    1  0.3883260E+000  0.1757450E+03  0.7546771E-02  0.1171986E+00
         21   -1    0    0  501  502  0.00000000000E+00  0.00000000000E+00  0.23017713185E+03  0.23017713185E+03  0.00000000000E+00 0.  1.
         21   -1    0    0  502  503 -0.00000000000E+00 -0.00000000000E+00 -0.18101637537E+03  0.18101637537E+03  0.00000000000E+00 0. -1.
          6    1    1    2  501    0 -0.38773152412E+01  0.30696671569E+02  0.12915486967E+03  0.21809928835E+03  0.17300000000E+03 0.  1.
         -6    1    1    2    0  503  0.38773152412E+01 -0.30696671569E+02 -0.79994113189E+02  0.19309421888E+03  0.17300000000E+03 0. -1.
<mgrwt>
<rscale>  2 0.17574504E+03</rscale>
<asrwt>0</asrwt>
<pdfrwt beam="1">  1       21 0.35411867E-01 0.17574504E+03</pdfrwt>
<pdfrwt beam="2">  1       21 0.27848673E-01 0.17574504E+03</pdfrwt>
<totfact> 0.95279699E+04</totfact>
</mgrwt>
</event>
<event>
 4    1  0.3883260E+000  0.2044229E+03  0.7546771E-02  0.1146060E+00
         21   -1    0    0  501  502  0.00000000000E+00  0.00000000000E+00  0.54530731307E+03  0.54530731307E+03  0.00000000000E+00 0.  1.
         21   -1    0    0  502  503 -0.00000000000E+00 -0.00000000000E+00 -0.84565261134E+02  0.84565261134E+02  0.00000000000E+00 0.  1.
          6    1    1    2  501    0  0.10190687536E+03 -0.38401917545E+02  0.32682408605E+03  0.38549020966E+03  0.17300000000E+03 0.  1.
         -6    1    1    2    0  503 -0.10190687536E+03  0.38401917545E+02  0.13391796588E+03  0.24438236455E+03  0.17300000000E+03 0.  1.
<mgrwt>
<rscale>  2 0.20442289E+03</rscale>
<asrwt>0</asrwt>
<pdfrwt beam="1">  1       21 0.83893430E-01 0.20442289E+03</pdfrwt>
<pdfrwt beam="2">  1       21 0.13010041E-01 0.20442289E+03</pdfrwt>
<totfact> 0.62322571E+04</totfact>
</mgrwt>
</event>
<event>
 4    1  0.3883260E+000  0.1882464E+03  0.7546771E-02  0.1160053E+00
         21   -1    0    0  503  502  0.00000000000E+00  0.00000000000E+00  0.11617865758E+03  0.11617865758E+03  0.00000000000E+00 0.  1.
         21   -1    0    0  501  503 -0.00000000000E+00 -0.00000000000E+00 -0.32035048011E+03  0.32035048011E+03  0.00000000000E+00 0.  1.
          6    1    1    2  501    0 -0.74071275430E+02 -0.46001243776E+01 -0.14983449758E+03  0.24059736419E+03  0.17300000000E+03 0.  1.
         -6    1    1    2    0  502  0.74071275430E+02  0.46001243776E+01 -0.54337324943E+02  0.19593177351E+03  0.17300000000E+03 0.  1.
<mgrwt>
<rscale>  2 0.18824642E+03</rscale>
<asrwt>0</asrwt>
<pdfrwt beam="1">  1       21 0.17873640E-01 0.18824642E+03</pdfrwt>
<pdfrwt beam="2">  1       21 0.49284689E-01 0.18824642E+03</pdfrwt>
<totfact> 0.11186460E+05</totfact>
</mgrwt>
</event>
<event>
 4    1  0.3883260E+000  0.2876136E+03  0.7546771E-02  0.1091602E+00
         21   -1    0    0  503  502  0.00000000000E+00  0.00000000000E+00  0.16858974452E+03  0.16858974452E+03  0.00000000000E+00 0. -1.
         21   -1    0    0  501  503 -0.00000000000E+00 -0.00000000000E+00 -0.49284395100E+03  0.49284395100E+03  0.00000000000E+00 0. -1.
          6    1    1    2  501    0 -0.22706039884E+03  0.35158931126E+02 -0.18410249269E+03  0.34148982851E+03  0.17300000000E+03 0. -1.
         -6    1    1    2    0  502  0.22706039884E+03 -0.35158931126E+02 -0.14015171380E+03  0.31994386702E+03  0.17300000000E+03 0. -1.
<mgrwt>
<rscale>  2 0.28761359E+03</rscale>
<asrwt>0</asrwt>
<pdfrwt beam="1">  1       21 0.25936884E-01 0.28761359E+03</pdfrwt>
<pdfrwt beam="2">  1       21 0.75822147E-01 0.28761359E+03</pdfrwt>
<totfact> 0.20877551E+04</totfact>
</mgrwt>
</event>
<event>
 4    1  0.3883260E+000  0.1864098E+03  0.7546771E-02  0.1161740E+00
         21   -1    0    0  503  502  0.00000000000E+00  0.00000000000E+00  0.21242683755E+03  0.21242683755E+03  0.00000000000E+00 0.  1.
         21   -1    0    0  501  503 -0.00000000000E+00 -0.00000000000E+00 -0.16381839185E+03  0.16381839185E+03  0.00000000000E+00 0. -1.
          6    1    1    2  501    0 -0.30348704392E+01 -0.69357076475E+02  0.31492466967E+02  0.18905128926E+03  0.17300000000E+03 0. -1.
         -6    1    1    2    0  502  0.30348704392E+01  0.69357076475E+02  0.17115978735E+02  0.18719394014E+03  0.17300000000E+03 0.  1.
<mgrwt>
<rscale>  2 0.18640980E+03</rscale>
<asrwt>0</asrwt>
<pdfrwt beam="1">  1       21 0.32681052E-01 0.18640980E+03</pdfrwt>
<pdfrwt beam="2">  1       21 0.25202829E-01 0.18640980E+03</pdfrwt>
<totfact> 0.13468335E+05</totfact>
</mgrwt>
</event>
<event>
 4    1  0.3883260E+000  0.1834694E+03  0.7546771E-02  0.1164487E+00
         21   -1    0    0  501  502  0.00000000000E+00  0.00000000000E+00  0.30655170206E+03  0.30655170206E+03  0.00000000000E+00 0.  1.
         21   -1    0    0  502  503 -0.00000000000E+00 -0.00000000000E+00 -0.16108726080E+03  0.16108726080E+03  0.00000000000E+00 0. -1.
          6    1    1    2  501    0  0.61001513894E+02  0.32909187651E+01  0.20465877599E+03  0.27485674347E+03  0.17300000000E+03 0.  1.
         -6    1    1    2    0  503 -0.61001513894E+02 -0.32909187651E+01 -0.59194334732E+02  0.19278221938E+03  0.17300000000E+03 0. -1.
<mgrwt>
<rscale>  2 0.18346938E+03</rscale>
<asrwt>0</asrwt>
<pdfrwt beam="1">  1       21 0.47161800E-01 0.18346938E+03</pdfrwt>
<pdfrwt beam="2">  1       21 0.24782656E-01 0.18346938E+03</pdfrwt>
<totfact> 0.66517919E+04</totfact>
</mgrwt>
</event>
<event>
 4    1  0.3883260E+000  0.2755201E+03  0.7546771E-02  0.1098161E+00
         21   -1    0    0  501  502  0.00000000000E+00  0.00000000000E+00  0.12681651686E+03  0.12681651686E+03  0.00000000000E+00 0.  1.
         21   -1    0    0  502  503 -0.00000000000E+00 -0.00000000000E+00 -0.61376784509E+03  0.61376784509E+03  0.00000000000E+00 0. -1.
          6    1    1    2  501    0  0.43869972728E+02 -0.20989932689E+03 -0.30170269145E+03  0.40857779671E+03  0.17300000000E+03 0. -1.
         -6    1    1    2    0  503 -0.43869972728E+02  0.20989932689E+03 -0.18524863678E+03  0.33200656524E+03  0.17300000000E+03 0.  1.
<mgrwt>
<rscale>  2 0.27552006E+03</rscale>
<asrwt>0</asrwt>
<pdfrwt beam="1">  1       21 0.19510234E-01 0.27552006E+03</pdfrwt>
<pdfrwt beam="2">  1       21 0.94425821E-01 0.27552006E+03</pdfrwt>
<totfact> 0.21751297E+04</totfact>
</mgrwt>
</event>
<event>
 4    1  0.3883260E+000  0.1738858E+03  0.7546771E-02  0.1173855E+00
         21   -1    0    0  501  502  0.00000000000E+00  0.00000000000E+00  0.40658695215E+03  0.40658695215E+03  0.00000000000E+00 0.  1.
         21   -1    0    0  502  503 -0.00000000000E+00 -0.00000000000E+00 -0.77039053294E+02  0.77039053294E+02  0.00000000000E+00 0.  1.
          6    1    1    2  501    0 -0.67216595497E+01 -0.16189276994E+02  0.20981643759E+03  0.27250543275E+03  0.17300000000E+03 0.  1.
         -6    1    1    2    0  503  0.67216595497E+01  0.16189276994E+02  0.11973146127E+03  0.21112057269E+03  0.17300000000E+03 0.  1.
<mgrwt>
<rscale>  2 0.17388581E+03</rscale>
<asrwt>0</asrwt>
<pdfrwt beam="1">  1       21 0.62551837E-01 0.17388581E+03</pdfrwt>
<pdfrwt beam="2">  1       21 0.11852162E-01 0.17388581E+03</pdfrwt>
<totfact> 0.14303452E+05</totfact>
</mgrwt>
</event>
<event>
 4    1  0.3883260E+000  0.2635295E+03  0.7546771E-02  0.1105041E+00
         21   -1    0    0  503  502  0.00000000000E+00  0.00000000000E+00  0.16592882380E+04  0.16592882380E+04  0.00000000000E+00 0. -1.
         21   -1    0    0  501  503 -0.00000000000E+00 -0.00000000000E+00 -0.66124657750E+02  0.66124657750E+02  0.00000000000E+00 0.  1.
          6    1    1    2  501    0 -0.51122131385E+02  0.19210764257E+03  0.27391817623E+03  0.38010391463E+03  0.17300000000E+03 0.  1.
         -6    1    1    2    0  502  0.51122131385E+02 -0.19210764257E+03  0.13192454040E+04  0.13453089811E+04  0.17300000000E+03 0. -1.
<mgrwt>
<rscale>  2 0.26352954E+03</rscale>
<asrwt>0</asrwt>
<pdfrwt beam="1">  1       21 0.25527508E+00 0.26352954E+03</pdfrwt>
<pdfrwt beam="2">  1       21 0.10173025E-01 0.26352954E+03</pdfrwt>
<totfact> 0.45687558E+03</totfact>
</mgrwt>
</event>
<event>
 4    1  0.3883260E+000  0.3207887E+03  0.7546771E-02  0.1075287E+00
         21   -1    0    0  501  502  0.00000000000E+00  0.00000000000E+00  0.10109124833E+04  0.10109124833E+04  0.00000000000E+00 0.  1.
         21   -1    0    0  502  503 -0.00000000000E+00 -0.00000000000E+00 -0.10582444517E+03  0.10582444517E+03  0.00000000000E+00 0. -1.
          6    1    1    2  501    0 -0.20907102997E+03 -0.17107212017E+03  0.56150614785E+03  0.64667961152E+03  0.17300000000E+03 0.  1.
         -6    1    1    2    0  503  0.20907102997E+03  0.17107212017E+03  0.34358189023E+03  0.47005731690E+03  0.17300000000E+03 0. -1.
<mgrwt>
<rscale>  2 0.32078866E+03</rscale>
<asrwt>0</asrwt>
<pdfrwt beam="1">  1       21 0.15552499E+00 0.32078866E+03</pdfrwt>
<pdfrwt beam="2">  1       21 0.16280685E-01 0.32078866E+03</pdfrwt>
<totfact> 0.84789743E+03</totfact>
</mgrwt>
</event>
<event>
 4    1  0.3883260E+000  0.3489646E+03  0.7546771E-02  0.1063041E+00
         21   -1    0    0  501  502  0.00000000000E+00  0.00000000000E+00  0.19960948024E+04  0.19960948024E+04  0.00000000000E+00 0. -1.
         21   -1    0    0  502  503 -0.00000000000E+00 -0.00000000000E+00 -0.92045871883E+02  0.92045871883E+02  0.00000000000E+00 0. -1.
          6    1    1    2  501    0  0.19890175060E+03  0.22865996187E+03  0.15583120983E+04  0.15969072860E+04  0.17300000000E+03 0. -1.
         -6    1    1    2    0  503 -0.19890175060E+03 -0.22865996187E+03  0.34573683221E+03  0.49123338822E+03  0.17300000000E+03 0. -1.
<mgrwt>
<rscale>  2 0.34896459E+03</rscale>
<asrwt>0</asrwt>
<pdfrwt beam="1">  1       21 0.30709147E+00 0.34896459E+03</pdfrwt>
<pdfrwt beam="2">  1       21 0.14160905E-01 0.34896459E+03</pdfrwt>
<totfact> 0.11623553E+03</totfact>
</mgrwt>
</event>
<event>
 4    1  0.3883260E+000  0.1815031E+03  0.7546771E-02  0.1166356E+00
         21   -1    0    0  501  502  0.00000000000E+00  0.00000000000E+00  0.57054425505E+02  0.57054425505E+02  0.00000000000E+00 0. -1.
         21   -1    0    0  502  503 -0.00000000000E+00 -0.00000000000E+00 -0.11560015975E+04  0.11560015975E+04  0.00000000000E+00 0. -1.
          6    1    1    2  501    0  0.50355772543E+01 -0.54671965579E+02 -0.12037168693E+03  0.21779055047E+03  0.17300000000E+03 0. -1.
         -6    1    1    2    0  503 -0.50355772543E+01  0.54671965579E+02 -0.97857548510E+03  0.99526547258E+03  0.17300000000E+03 0. -1.
<mgrwt>
<rscale>  2 0.18150312E+03</rscale>
<asrwt>0</asrwt>
<pdfrwt beam="1">  1       21 0.87776041E-02 0.18150312E+03</pdfrwt>
<pdfrwt beam="2">  1       21 0.17784640E+00 0.18150312E+03</pdfrwt>
<totfact> 0.19367583E+04</totfact>
</mgrwt>
</event>
<event>
 4    1  0.3883260E+000  0.2912264E+03  0.7546771E-02  0.1089711E+00
         21   -1    0    0  503  502  0.00000000000E+00  0.00000000000E+00  0.57092821518E+02  0.57092821518E+02  0.00000000000E+00 0. -1.
         21   -1    0    0  501  503 -0.00000000000E+00 -0.00000000000E+00 -0.22644146632E+04  0.22644146632E+04  0.00000000000E+00 0.  1.
          6    1    1    2  501    0 -0.23088680385E+03  0.39687545931E+02 -0.17844303812E+04  0.18080388831E+04  0.17300000000E+03 0.  1.
         -6    1    1    2    0  502  0.23088680385E+03 -0.39687545931E+02 -0.42289146053E+03  0.51346860165E+03  0.17300000000E+03 0. -1.
<mgrwt>
<rscale>  2 0.29122640E+03</rscale>
<asrwt>0</asrwt>
<pdfrwt beam="1">  1       21 0.87835131E-02 0.29122640E+03</pdfrwt>
<pdfrwt beam="2">  1       21 0.34837140E+00 0.29122640E+03</pdfrwt>
<totfact> 0.16316117E+03</totfact>
</mgrwt>
</event>
<event>
 4    1  0.3883260E+000  0.2095657E+03  0.7546771E-02  0.1141910E+00
         21   -1    0    0  501  502  0.00000000000E+00  0.00000000000E+00  0.33504309685E+03  0.33504309685E+03  0.00000000000E+00 0.  1.
         21   -1    0    0  502  503 -0.00000000000E+00 -0.00000000000E+00 -0.13167217175E+03  0.13167217175E+03  0.00000000000E+00 0.  1.
          6    1    1    2  501    0 -0.19466920356E+02  0.11666119027E+03  0.11732128570E+03  0.24017093576E+03  0.17300000000E+03 0.  1.
         -6    1    1    2    0  503  0.19466920356E+02 -0.11666119027E+03  0.86049639399E+02  0.22654433284E+03  0.17300000000E+03 0.  1.
<mgrwt>
<rscale>  2 0.20956573E+03</rscale>
<asrwt>0</asrwt>
<pdfrwt beam="1">  1       21 0.51545092E-01 0.20956573E+03</pdfrwt>
<pdfrwt beam="2">  1       21 0.20257257E-01 0.20956573E+03</pdfrwt>
<totfact> 0.80005365E+04</totfact>
</mgrwt>
</event>
<event>
 4    1  0.3883260E+000  0.3624297E+03  0.7546771E-02  0.1057626E+00
         21   -1    0    0  503  502  0.00000000000E+00  0.00000000000E+00  0.25278091441E+03  0.25278091441E+03  0.00000000000E+00 0. -1.
         21   -1    0    0  501  503 -0.00000000000E+00 -0.00000000000E+00 -0.53093581440E+03  0.53093581440E+03  0.00000000000E+00 0.  1.
          6    1    1    2  501    0  0.59909871909E+02  0.31278927424E+03 -0.19623162861E+03  0.41214339119E+03  0.17300000000E+03 0. -1.
         -6    1    1    2    0  502 -0.59909871909E+02 -0.31278927424E+03 -0.81923271375E+02  0.37157333762E+03  0.17300000000E+03 0.  1.
<mgrwt>
<rscale>  2 0.36242975E+03</rscale>
<asrwt>0</asrwt>
<pdfrwt beam="1">  1       21 0.38889372E-01 0.36242975E+03</pdfrwt>
<pdfrwt beam="2">  1       21 0.81682432E-01 0.36242975E+03</pdfrwt>
<totfact> 0.76431874E+03</totfact>
</mgrwt>
</event>
<event>
 4    1  0.3883260E+000  0.1950749E+03  0.7546771E-02  0.1153962E+00
         21   -1    0    0  501  502  0.00000000000E+00  0.00000000000E+00  0.57020852023E+03  0.57020852023E+03  0.00000000000E+00 0.  1.
         21   -1    0    0  502  503 -0.00000000000E+00 -0.00000000000E+00 -0.87046025725E+02  0.87046025725E+02  0.00000000000E+00 0. -1.
          6    1    1    2  501    0  0.52063566627E+02 -0.73583971546E+02  0.40031516660E+03  0.44531612193E+03  0.17300000000E+03 0.  1.
         -6    1    1    2    0  503 -0.52063566627E+02  0.73583971546E+02  0.82847327906E+02  0.21193842403E+03  0.17300000000E+03 0. -1.
<mgrwt>
<rscale>  2 0.19507490E+03</rscale>
<asrwt>0</asrwt>
<pdfrwt beam="1">  1       21 0.87724385E-01 0.19507490E+03</pdfrwt>
<pdfrwt beam="2">  1       21 0.13391697E-01 0.19507490E+03</pdfrwt>
<totfact> 0.53639869E+04</totfact>
</mgrwt>
</event>
<event>
 4    1  0.3883260E+000  0.1957171E+03  0.7546771E-02  0.1153404E+00
         21   -1    0    0  501  502  0.00000000000E+00  0.00000000000E+00  0.14501276401E+03  0.14501276401E+03  0.00000000000E+00 0.  1.
         21   -1    0    0  502  503 -0.00000000000E+00 -0.00000000000E+00 -0.97811294807E+03  0.97811294807E+03  0.00000000000E+00 0.  1.
          6    1    1    2  501    0  0.53241281436E+02  0.74441685810E+02  0.63229251242E+02  0.20567726381E+03  0.17300000000E+03 0.  1.
         -6    1    1    2    0  503 -0.53241281436E+02 -0.74441685810E+02 -0.89632943530E+03  0.91744844826E+03  0.17300000000E+03 0.  1.
<mgrwt>
<rscale>  2 0.19571714E+03</rscale>
<asrwt>0</asrwt>
<pdfrwt beam="1">  1       21 0.22309655E-01 0.19571714E+03</pdfrwt>
<pdfrwt beam="2">  1       21 0.15047892E+00 0.19571714E+03</pdfrwt>
<totfact> 0.55585658E+03</totfact>
</mgrwt>
</event>
<event>
 4    1  0.3883260E+000  0.1919402E+03  0.7546771E-02  0.1156723E+00
         21   -1    0    0  501  502  0.00000000000E+00  0.00000000000E+00  0.25765048890E+03  0.25765048890E+03  0.00000000000E+00 0. -1.
         21   -1    0    0  502  503 -0.00000000000E+00 -0.00000000000E+00 -0.19492885811E+03  0.19492885811E+03  0.00000000000E+00 0. -1.
          6    1    1    2  501    0  0.79062502321E+02  0.25713382451E+02  0.14817057500E+03  0.24247799200E+03  0.17300000000E+03 0. -1.
         -6    1    1    2    0  503 -0.79062502321E+02 -0.25713382451E+02 -0.85448944211E+02  0.21010135501E+03  0.17300000000E+03 0. -1.
<mgrwt>
<rscale>  2 0.19194024E+03</rscale>
<asrwt>0</asrwt>
<pdfrwt beam="1">  1       21 0.39638537E-01 0.19194024E+03</pdfrwt>
<pdfrwt beam="2">  1       21 0.29989055E-01 0.19194024E+03</pdfrwt>
<totfact> 0.65445509E+04</totfact>
</mgrwt>
</event>
<event>
 4    1  0.3883260E+000  0.1756399E+03  0.7546771E-02  0.1172091E+00
         21   -1    0    0  501  502  0.00000000000E+00  0.00000000000E+00  0.35570634693E+03  0.35570634693E+03  0.00000000000E+00 0.  1.
         21   -1    0    0  502  503 -0.00000000000E+00 -0.00000000000E+00 -0.16254693584E+03  0.16254693584E+03  0.00000000000E+00 0.  1.
          6    1    1    2  501    0 -0.28946126152E+02  0.90833616418E+01  0.27355557151E+03  0.32508773644E+03  0.17300000000E+03 0.  1.
         -6    1    1    2    0  503  0.28946126152E+02 -0.90833616418E+01 -0.80396160418E+02  0.19316554633E+03  0.17300000000E+03 0.  1.
<mgrwt>
<rscale>  2 0.17563993E+03</rscale>
<asrwt>0</asrwt>
<pdfrwt beam="1">  1       21 0.54724053E-01 0.17563993E+03</pdfrwt>
<pdfrwt beam="2">  1       21 0.25007221E-01 0.17563993E+03</pdfrwt>
<totfact> 0.48117422E+04</totfact>
</mgrwt>
</event>
<event>
 4    1  0.3883260E+000  0.2257303E+03  0.7546771E-02  0.1129682E+00
         21   -1    0    0  501  502  0.00000000000E+00  0.00000000000E+00  0.27455205588E+03  0.27455205588E+03  0.00000000000E+00 0.  1.
         21   -1    0    0  502  503 -0.00000000000E+00 -0.00000000000E+00 -0.26993110362E+03  0.26993110362E+03  0.00000000000E+00 0.  1.
          6    1    1    2  501    0 -0.13381331939E+03 -0.55849357128E+02  0.15448686154E+03  0.27353307940E+03  0.17300000000E+03 0.  1.
         -6    1    1    2    0  503  0.13381331939E+03  0.55849357128E+02 -0.14986590928E+03  0.27095008009E+03  0.17300000000E+03 0.  1.
<mgrwt>
<rscale>  2 0.22573027E+03</rscale>
<asrwt>0</asrwt>
<pdfrwt beam="1">  1       21 0.42238778E-01 0.22573027E+03</pdfrwt>
<pdfrwt beam="2">  1       21 0.41527862E-01 0.22573027E+03</pdfrwt>
<totfact> 0.29590936E+04</totfact>
</mgrwt>
</event>
<event>
 4    1  0.3883260E+000  0.1748456E+03  0.7546771E-02  0.1172887E+00
         21   -1    0    0  503  502  0.00000000000E+00  0.00000000000E+00  0.18840355082E+03  0.18840355082E+03  0.00000000000E+00 0.  1.
         21   -1    0    0  501  503 -0.00000000000E+00 -0.00000000000E+00 -0.18333104385E+03  0.18333104385E+03  0.00000000000E+00 0.  1.
          6    1    1    2  501    0  0.21516567029E+02  0.13379264515E+02 -0.60471614852E+02  0.18500752303E+03  0.17300000000E+03 0. -1.
         -6    1    1    2    0  502 -0.21516567029E+02 -0.13379264515E+02  0.65544121820E+02  0.18672707163E+03  0.17300000000E+03 0. -1.
<mgrwt>
<rscale>  2 0.17484555E+03</rscale>
<asrwt>0</asrwt>
<pdfrwt beam="1">  1       21 0.28985162E-01 0.17484555E+03</pdfrwt>
<pdfrwt beam="2">  1       21 0.28204776E-01 0.17484555E+03</pdfrwt>
<totfact> 0.13769465E+05</totfact>
</mgrwt>
</event>
<event>
 4    1  0.3883260E+000  0.3900632E+03  0.7546771E-02  0.1047276E+00
         21   -1    0    0  501  502  0.00000000000E+00  0.00000000000E+00  0.29578186402E+04  0.29578186402E+04  0.00000000000E+00 0. -1.
         21   -1    0    0  502  503 -0.00000000000E+00 -0.00000000000E+00 -0.86580585497E+02  0.86580585497E+02  0.00000000000E+00 0.  1.
          6    1    1    2  501    0 -0.17435237778E+03  0.30302073633E+03  0.24053866214E+04  0.24368081821E+04  0.17300000000E+03 0. -1.
         -6    1    1    2    0  503  0.17435237778E+03 -0.30302073633E+03  0.46585143337E+03  0.60759104359E+03  0.17300000000E+03 0.  1.
<mgrwt>
<rscale>  2 0.39006322E+03</rscale>
<asrwt>0</asrwt>
<pdfrwt beam="1">  1       21 0.45504894E+00 0.39006322E+03</pdfrwt>
<pdfrwt beam="2">  1       21 0.13320092E-01 0.39006322E+03</pdfrwt>
<totfact> 0.14778302E+02</totfact>
</mgrwt>
</event>
<event>
 4    1  0.3883260E+000  0.1875574E+03  0.7546771E-02  0.1160683E+00
         21   -1    0    0  503  502  0.00000000000E+00  0.00000000000E+00  0.16547307964E+03  0.16547307964E+03  0.00000000000E+00 0. -1.
         21   -1    0    0  501  503 -0.00000000000E+00 -0.00000000000E+00 -0.37041952677E+03  0.37041952677E+03  0.00000000000E+00 0. -1.
          6    1    1    2  501    0  0.41935919100E+02  0.59077505936E+02 -0.27737579685E+03  0.33483593847E+03  0.17300000000E+03 0. -1.
         -6    1    1    2    0  502 -0.41935919100E+02 -0.59077505936E+02  0.72429349716E+02  0.20105666793E+03  0.17300000000E+03 0. -1.
<mgrwt>
<rscale>  2 0.18755739E+03</rscale>
<asrwt>0</asrwt>
<pdfrwt beam="1">  1       21 0.25457397E-01 0.18755739E+03</pdfrwt>
<pdfrwt beam="2">  1       21 0.56987619E-01 0.18755739E+03</pdfrwt>
<totfact> 0.42432120E+04</totfact>
</mgrwt>
</event>
<event>
 4    1  0.3883260E+000  0.2057669E+03  0.7546771E-02  0.1144963E+00
         21   -1    0    0  503  502  0.00000000000E+00  0.00000000000E+00  0.52887622443E+02  0.52887622443E+02  0.00000000000E+00 0. -1.
         21   -1    0    0  501  503 -0.00000000000E+00 -0.00000000000E+00 -0.80320231635E+03  0.80320231635E+03  0.00000000000E+00 0.  1.
          6    1    1    2  501    0 -0.10008986223E+03  0.48918581767E+02 -0.39968259153E+03  0.44953996723E+03  0.17300000000E+03 0. -1.
         -6    1    1    2    0  502  0.10008986223E+03 -0.48918581767E+02 -0.35063210237E+03  0.40654997156E+03  0.17300000000E+03 0.  1.
<mgrwt>
<rscale>  2 0.20576688E+03</rscale>
<asrwt>0</asrwt>
<pdfrwt beam="1">  1       21 0.81365571E-02 0.20576688E+03</pdfrwt>
<pdfrwt beam="2">  1       21 0.12356959E+00 0.20576688E+03</pdfrwt>
<totfact> 0.56815510E+04</totfact>
</mgrwt>
</event>
<event>
 4    1  0.3883260E+000  0.3234175E+03  0.7546771E-02  0.1074087E+00
         21   -1    0    0  501  502  0.00000000000E+00  0.00000000000E+00  0.20097548476E+03  0.20097548476E+03  0.00000000000E+00 0. -1.
         21   -1    0    0  502  503 -0.00000000000E+00 -0.00000000000E+00 -0.59319893330E+03  0.59319893330E+03  0.00000000000E+00 0. -1.
          6    1    1    2  501    0  0.26897683562E+03  0.48179987260E+02 -0.57058254788E+02  0.32841207912E+03  0.17300000000E+03 0. -1.
         -6    1    1    2    0  503 -0.26897683562E+03 -0.48179987260E+02 -0.33516519375E+03  0.46576233894E+03  0.17300000000E+03 0. -1.
<mgrwt>
<rscale>  2 0.32341745E+03</rscale>
<asrwt>0</asrwt>
<pdfrwt beam="1">  1       21 0.30919305E-01 0.32341745E+03</pdfrwt>
<pdfrwt beam="2">  1       21 0.91261374E-01 0.32341745E+03</pdfrwt>
<totfact> 0.95079327E+03</totfact>
</mgrwt>
</event>
<event>
 4    1  0.3883260E+000  0.1780259E+03  0.7546771E-02  0.1169727E+00
         21   -1    0    0  503  502  0.00000000000E+00  0.00000000000E+00  0.20683042058E+03  0.20683042058E+03  0.00000000000E+00 0.  1.
         21   -1    0    0  501  503 -0.00000000000E+00 -0.00000000000E+00 -0.23879749690E+03  0.23879749690E+03  0.00000000000E+00 0.  1.
          6    1    1    2  501    0  0.41973338769E+02 -0.15723926793E+01 -0.14935854682E+03  0.23238160232E+03  0.17300000000E+03 0.  1.
         -6    1    1    2    0  502 -0.41973338769E+02  0.15723926793E+01  0.11739147050E+03  0.21324631517E+03  0.17300000000E+03 0.  1.
<mgrwt>
<rscale>  2 0.17802594E+03</rscale>
<asrwt>0</asrwt>
<pdfrwt beam="1">  1       21 0.31820065E-01 0.17802594E+03</pdfrwt>
<pdfrwt beam="2">  1       21 0.36738076E-01 0.17802594E+03</pdfrwt>
<totfact> 0.68287123E+04</totfact>
</mgrwt>
</event>
<event>
 4    1  0.3883260E+000  0.2620617E+03  0.7546771E-02  0.1105911E+00
         21   -1    0    0  501  502  0.00000000000E+00  0.00000000000E+00  0.19770397258E+03  0.19770397258E+03  0.00000000000E+00 0. -1.
         21   -1    0    0  502  503 -0.00000000000E+00 -0.00000000000E+00 -0.53023133943E+03  0.53023133943E+03  0.00000000000E+00 0.  1.
          6    1    1    2  501    0  0.20736500210E+02  0.19574816172E+03  0.47479142115E+02  0.26632801992E+03  0.17300000000E+03 0. -1.
         -6    1    1    2    0  503 -0.20736500210E+02 -0.19574816172E+03 -0.38000650897E+03  0.46160729209E+03  0.17300000000E+03 0.  1.
<mgrwt>
<rscale>  2 0.26206172E+03</rscale>
<asrwt>0</asrwt>
<pdfrwt beam="1">  1       21 0.30415996E-01 0.26206172E+03</pdfrwt>
<pdfrwt beam="2">  1       21 0.81574052E-01 0.26206172E+03</pdfrwt>
<totfact> 0.13109909E+04</totfact>
</mgrwt>
</event>
<event>
 4    1  0.3883260E+000  0.1799016E+03  0.7546771E-02  0.1167898E+00
         21   -1    0    0  503  502  0.00000000000E+00  0.00000000000E+00  0.29805390911E+03  0.29805390911E+03  0.00000000000E+00 0. -1.
         21   -1    0    0  501  503 -0.00000000000E+00 -0.00000000000E+00 -0.57286664009E+03  0.57286664009E+03  0.00000000000E+00 0. -1.
          6    1    1    2  501    0 -0.48703006538E+02  0.79746634340E+01 -0.52942969413E+03  0.55916042343E+03  0.17300000000E+03 0. -1.
         -6    1    1    2    0  502  0.48703006538E+02 -0.79746634340E+01  0.25461696314E+03  0.31176012577E+03  0.17300000000E+03 0. -1.
<mgrwt>
<rscale>  2 0.17990158E+03</rscale>
<asrwt>0</asrwt>
<pdfrwt beam="1">  1       21 0.45854447E-01 0.17990158E+03</pdfrwt>
<pdfrwt beam="2">  1       21 0.88133330E-01 0.17990158E+03</pdfrwt>
<totfact> 0.50783510E+03</totfact>
</mgrwt>
</event>
<event>
 4    1  0.3883260E+000  0.2047994E+03  0.7546771E-02  0.1145752E+00
         21   -1    0    0  503  502  0.00000000000E+00  0.00000000000E+00  0.47689713047E+03  0.47689713047E+03  0.00000000000E+00 0. -1.
         21   -1    0    0  501  503 -0.00000000000E+00 -0.00000000000E+00 -0.88017934661E+02  0.88017934661E+02  0.00000000000E+00 0. -1.
          6    1    1    2  501    0  0.79227312390E+02 -0.75741919835E+02  0.20232267962E+03  0.28788412971E+03  0.17300000000E+03 0. -1.
         -6    1    1    2    0  502 -0.79227312390E+02  0.75741919835E+02  0.18655651619E+03  0.27703093542E+03  0.17300000000E+03 0. -1.
<mgrwt>
<rscale>  2 0.20479943E+03</rscale>
<asrwt>0</asrwt>
<pdfrwt beam="1">  1       21 0.73368788E-01 0.20479943E+03</pdfrwt>
<pdfrwt beam="2">  1       21 0.13541221E-01 0.20479943E+03</pdfrwt>
<totfact> 0.78433375E+04</totfact>
</mgrwt>
</event>
<event>
 4    1  0.3883260E+000  0.2884773E+03  0.7546771E-02  0.1091147E+00
         21   -1    0    0  503  502  0.00000000000E+00  0.00000000000E+00  0.14802578304E+04  0.14802578304E+04  0.00000000000E+00 0.  1.
         21   -1    0    0  501  503 -0.00000000000E+00 -0.00000000000E+00 -0.74888720334E+02  0.74888720334E+02  0.00000000000E+00 0.  1.
          6    1    1    2  501    0 -0.22461142847E+03 -0.53290171739E+02  0.31444665288E+03  0.42672688421E+03  0.17300000000E+03 0.  1.
         -6    1    1    2    0  502  0.22461142847E+03  0.53290171739E+02  0.10909224572E+04  0.11284196665E+04  0.17300000000E+03 0.  1.
<mgrwt>
<rscale>  2 0.28847727E+03</rscale>
<asrwt>0</asrwt>
<pdfrwt beam="1">  1       21 0.22773195E+00 0.28847727E+03</pdfrwt>
<pdfrwt beam="2">  1       21 0.11521343E-01 0.28847727E+03</pdfrwt>
<totfact> 0.52729793E+03</totfact>
</mgrwt>
</event>
<event>
 4    1  0.3883260E+000  0.1760141E+03  0.7546771E-02  0.1171717E+00
         21   -1    0    0  501  502  0.00000000000E+00  0.00000000000E+00  0.93847741092E+02  0.93847741092E+02  0.00000000000E+00 0. -1.
         21   -1    0    0  502  503 -0.00000000000E+00 -0.00000000000E+00 -0.38129369618E+03  0.38129369618E+03  0.00000000000E+00 0. -1.
          6    1    1    2  501    0  0.27380864461E+02  0.17385719010E+02 -0.56689094434E+02  0.18491789635E+03  0.17300000000E+03 0. -1.
         -6    1    1    2    0  503 -0.27380864461E+02 -0.17385719010E+02 -0.23075686065E+03  0.29022354091E+03  0.17300000000E+03 0. -1.
<mgrwt>
<rscale>  2 0.17601413E+03</rscale>
<asrwt>0</asrwt>
<pdfrwt beam="1">  1       21 0.14438114E-01 0.17601413E+03</pdfrwt>
<pdfrwt beam="2">  1       21 0.58660568E-01 0.17601413E+03</pdfrwt>
<totfact> 0.11505619E+05</totfact>
</mgrwt>
</event>
<event>
 4    1  0.3883260E+000  0.2440456E+03  0.7546771E-02  0.1117127E+00
         21   -1    0    0  503  502  0.00000000000E+00  0.00000000000E+00  0.44845072259E+03  0.44845072259E+03  0.00000000000E+00 0.  1.
         21   -1    0    0  501  503 -0.00000000000E+00 -0.00000000000E+00 -0.13974367578E+03  0.13974367578E+03  0.00000000000E+00 0.  1.
          6    1    1    2  501    0  0.90736991659E+02  0.14627386259E+03  0.88838454314E+02  0.25971237070E+03  0.17300000000E+03 0.  1.
         -6    1    1    2    0  502 -0.90736991659E+02 -0.14627386259E+03  0.21986859250E+03  0.32848202766E+03  0.17300000000E+03 0.  1.
<mgrwt>
<rscale>  2 0.24404558E+03</rscale>
<asrwt>0</asrwt>
<pdfrwt beam="1">  1       21 0.68992418E-01 0.24404558E+03</pdfrwt>
<pdfrwt beam="2">  1       21 0.21499027E-01 0.24404558E+03</pdfrwt>
<totfact> 0.37610920E+04</totfact>
</mgrwt>
</event>
<event>
 4    1  0.3883260E+000  0.1768782E+03  0.7546771E-02  0.1170859E+00
         21   -1    0    0  501  502  0.00000000000E+00  0.00000000000E+00  0.41867731752E+03  0.41867731752E+03  0.00000000000E+00 0. -1.
         21   -1    0    0  502  503 -0.00000000000E+00 -0.00000000000E+00 -0.76436416386E+02  0.76436416386E+02  0.00000000000E+00 0. -1.
          6    1    1    2  501    0  0.34051035045E+02 -0.14050288862E+02  0.20815743854E+03  0.27315820109E+03  0.17300000000E+03 0.  1.
         -6    1    1    2    0  503 -0.34051035045E+02  0.14050288862E+02  0.13408346259E+03  0.22195553281E+03  0.17300000000E+03 0.  1.
<mgrwt>
<rscale>  2 0.17687816E+03</rscale>
<asrwt>0</asrwt>
<pdfrwt beam="1">  1       21 0.64411894E-01 0.17687816E+03</pdfrwt>
<pdfrwt beam="2">  1       21 0.11759449E-01 0.17687816E+03</pdfrwt>
<totfact> 0.13600156E+05</totfact>
</mgrwt>
</event>
<event>
 4    1  0.3883260E+000  0.2048273E+03  0.7546771E-02  0.1145729E+00
         21   -1    0    0  503  502  0.00000000000E+00  0.00000000000E+00  0.15636239160E+04  0.15636239160E+04  0.00000000000E+00 0.  1.
         21   -1    0    0  501  503 -0.00000000000E+00 -0.00000000000E+00 -0.14339194547E+03  0.14339194547E+03  0.00000000000E+00 0.  1.
          6    1    1    2  501    0 -0.10033056677E+03  0.44260390620E+02 -0.59405915633E+02  0.21326806516E+03  0.17300000000E+03 0.  1.
         -6    1    1    2    0  502  0.10033056677E+03 -0.44260390620E+02  0.14796378862E+04  0.14937477963E+04  0.17300000000E+03 0.  1.
<mgrwt>
<rscale>  2 0.20482726E+03</rscale>
<asrwt>0</asrwt>
<pdfrwt beam="1">  1       21 0.24055751E+00 0.20482726E+03</pdfrwt>
<pdfrwt beam="2">  1       21 0.22060300E-01 0.20482726E+03</pdfrwt>
<totfact> 0.14318953E+03</totfact>
</mgrwt>
</event>
<event>
 4    1  0.3883260E+000  0.1789077E+03  0.7546771E-02  0.1168864E+00
         21   -1    0    0  503  502  0.00000000000E+00  0.00000000000E+00  0.10515019558E+03  0.10515019558E+03  0.00000000000E+00 0.  1.
         21   -1    0    0  501  503 -0.00000000000E+00 -0.00000000000E+00 -0.62949404277E+03  0.62949404277E+03  0.00000000000E+00 0.  1.
          6    1    1    2  501    0 -0.45193195796E+02  0.60449716243E+01 -0.52614170025E+03  0.55572750100E+03  0.17300000000E+03 0.  1.
         -6    1    1    2    0  502  0.45193195796E+02 -0.60449716243E+01  0.17978530604E+01  0.17891673735E+03  0.17300000000E+03 0.  1.
<mgrwt>
<rscale>  2 0.17890770E+03</rscale>
<asrwt>0</asrwt>
<pdfrwt beam="1">  1       21 0.16176953E-01 0.17890770E+03</pdfrwt>
<pdfrwt beam="2">  1       21 0.96845236E-01 0.17890770E+03</pdfrwt>
<totfact> 0.30493827E+04</totfact>
</mgrwt>
</event>
<event>
 4    1  0.3883260E+000  0.2720268E+03  0.7546771E-02  0.1100125E+00
         21   -1    0    0  503  502  0.00000000000E+00  0.00000000000E+00  0.19397767285E+04  0.19397767285E+04  0.00000000000E+00 0. -1.
         21   -1    0    0  501  503 -0.00000000000E+00 -0.00000000000E+00 -0.49526976084E+02  0.49526976084E+02  0.00000000000E+00 0.  1.
          6    1    1    2  501    0 -0.26779892183E+01  0.20991051579E+03  0.46836264401E+03  0.54162917441E+03  0.17300000000E+03 0.  1.
         -6    1    1    2    0  502  0.26779892183E+01 -0.20991051579E+03  0.14218871085E+04  0.14476745302E+04  0.17300000000E+03 0. -1.
<mgrwt>
<rscale>  2 0.27202683E+03</rscale>
<asrwt>0</asrwt>
<pdfrwt beam="1">  1       21 0.29842713E+00 0.27202683E+03</pdfrwt>
<pdfrwt beam="2">  1       21 0.76195363E-02 0.27202683E+03</pdfrwt>
<totfact> 0.42086790E+03</totfact>
</mgrwt>
</event>
<event>
 4    1  0.3883260E+000  0.1854244E+03  0.7546771E-02  0.1162654E+00
         21   -1    0    0  503  502  0.00000000000E+00  0.00000000000E+00  0.50725667651E+03  0.50725667651E+03  0.00000000000E+00 0.  1.
         21   -1    0    0  501  503 -0.00000000000E+00 -0.00000000000E+00 -0.55491001511E+03  0.55491001511E+03  0.00000000000E+00 0.  1.
          6    1    1    2  501    0 -0.27735043341E+02 -0.60695780445E+02 -0.52141883725E+03  0.55340745769E+03  0.17300000000E+03 0.  1.
         -6    1    1    2    0  502  0.27735043341E+02  0.60695780445E+02  0.47376549865E+03  0.50875923393E+03  0.17300000000E+03 0.  1.
<mgrwt>
<rscale>  2 0.18542441E+03</rscale>
<asrwt>0</asrwt>
<pdfrwt beam="1">  1       21 0.78039489E-01 0.18542441E+03</pdfrwt>
<pdfrwt beam="2">  1       21 0.85370771E-01 0.18542441E+03</pdfrwt>
<totfact> 0.17373487E+03</totfact>
</mgrwt>
</event>
<event>
 4    1  0.3883260E+000  0.2124704E+03  0.7546771E-02  0.1139624E+00
         21   -1    0    0  503  502  0.00000000000E+00  0.00000000000E+00  0.50304391946E+03  0.50304391946E+03  0.00000000000E+00 0.  1.
         21   -1    0    0  501  503 -0.00000000000E+00 -0.00000000000E+00 -0.11056480273E+03  0.11056480273E+03  0.00000000000E+00 0. -1.
          6    1    1    2  501    0  0.11521478621E+03 -0.44048011109E+02  0.63092095049E+02  0.22163999346E+03  0.17300000000E+03 0. -1.
         -6    1    1    2    0  502 -0.11521478621E+03  0.44048011109E+02  0.32938702168E+03  0.39196872872E+03  0.17300000000E+03 0.  1.
<mgrwt>
<rscale>  2 0.21247041E+03</rscale>
<asrwt>0</asrwt>
<pdfrwt beam="1">  1       21 0.77391371E-01 0.21247041E+03</pdfrwt>
<pdfrwt beam="2">  1       21 0.17009970E-01 0.21247041E+03</pdfrwt>
<totfact> 0.45727702E+04</totfact>
</mgrwt>
</event>
<event>
 4    1  0.3883260E+000  0.1908368E+03  0.7546771E-02  0.1157709E+00
         21   -1    0    0  501  502  0.00000000000E+00  0.00000000000E+00  0.42022053984E+02  0.42022053984E+02  0.00000000000E+00 0. -1.
         21   -1    0    0  502  503 -0.00000000000E+00 -0.00000000000E+00 -0.12289418924E+04  0.12289418924E+04  0.00000000000E+00 0. -1.
          6    1    1    2  501    0 -0.42876986634E+02  0.68200044720E+02 -0.24842501448E+03  0.31326294052E+03  0.17300000000E+03 0. -1.
         -6    1    1    2    0  503  0.42876986634E+02 -0.68200044720E+02 -0.93849482394E+03  0.95770100587E+03  0.17300000000E+03 0. -1.
<mgrwt>
<rscale>  2 0.19083679E+03</rscale>
<asrwt>0</asrwt>
<pdfrwt beam="1">  1       21 0.64649315E-02 0.19083679E+03</pdfrwt>
<pdfrwt beam="2">  1       21 0.18906798E+00 0.19083679E+03</pdfrwt>
<totfact> 0.27478910E+04</totfact>
</mgrwt>
</event>
<event>
 4    1  0.3883260E+000  0.1902358E+03  0.7546771E-02  0.1158249E+00
         21   -1    0    0  503  502  0.00000000000E+00  0.00000000000E+00  0.13752251940E+03  0.13752251940E+03  0.00000000000E+00 0.  1.
         21   -1    0    0  501  503 -0.00000000000E+00 -0.00000000000E+00 -0.79927445821E+03  0.79927445821E+03  0.00000000000E+00 0. -1.
          6    1    1    2  501    0 -0.55098512585E+02 -0.56787407204E+02 -0.71449358974E+03  0.73938538360E+03  0.17300000000E+03 0. -1.
         -6    1    1    2    0  502  0.55098512585E+02  0.56787407204E+02  0.52741650934E+02  0.19741159401E+03  0.17300000000E+03 0.  1.
<mgrwt>
<rscale>  2 0.19023579E+03</rscale>
<asrwt>0</asrwt>
<pdfrwt beam="1">  1       21 0.21157310E-01 0.19023579E+03</pdfrwt>
<pdfrwt beam="2">  1       21 0.12296530E+00 0.19023579E+03</pdfrwt>
<totfact> 0.10343122E+04</totfact>
</mgrwt>
</event>
<event>
 4    1  0.3883260E+000  0.2103521E+03  0.7546771E-02  0.1141287E+00
         21   -1    0    0  501  502  0.00000000000E+00  0.00000000000E+00  0.47153353893E+03  0.47153353893E+03  0.00000000000E+00 0.  1.
         21   -1    0    0  502  503 -0.00000000000E+00 -0.00000000000E+00 -0.10589198549E+03  0.10589198549E+03  0.00000000000E+00 0. -1.
          6    1    1    2  501    0  0.71980395839E+02  0.95592024226E+02  0.28022780269E+03  0.35039354144E+03  0.17300000000E+03 0. -1.
         -6    1    1    2    0  503 -0.71980395839E+02 -0.95592024226E+02  0.85413750756E+02  0.22703198299E+03  0.17300000000E+03 0. -1.
<mgrwt>
<rscale>  2 0.21035212E+03</rscale>
<asrwt>0</asrwt>
<pdfrwt beam="1">  1       21 0.72543620E-01 0.21035212E+03</pdfrwt>
<pdfrwt beam="2">  1       21 0.16291075E-01 0.21035212E+03</pdfrwt>
<totfact> 0.57279747E+04</totfact>
</mgrwt>
</event>
<event>
 4    1  0.3883260E+000  0.1744115E+03  0.7546771E-02  0.1173324E+00
         21   -1    0    0  503  502  0.00000000000E+00  0.00000000000E+00  0.29176153568E+03  0.29176153568E+03  0.00000000000E+00 0. -1.
         21   -1    0    0  501  503 -0.00000000000E+00 -0.00000000000E+00 -0.18930211140E+03  0.18930211140E+03  0.00000000000E+00 0. -1.
          6    1    1    2  501    0  0.21820712366E+02 -0.37718855193E+01 -0.10998664127E+03  0.20619513056E+03  0.17300000000E+03 0. -1.
         -6    1    1    2    0  502 -0.21820712366E+02  0.37718855193E+01  0.21244606555E+03  0.27486851652E+03  0.17300000000E+03 0. -1.
<mgrwt>
<rscale>  2 0.17441150E+03</rscale>
<asrwt>0</asrwt>
<pdfrwt beam="1">  1       21 0.44886390E-01 0.17441150E+03</pdfrwt>
<pdfrwt beam="2">  1       21 0.29123402E-01 0.17441150E+03</pdfrwt>
<totfact> 0.54231680E+04</totfact>
</mgrwt>
</event>
<event>
 4    1  0.3883260E+000  0.2444637E+03  0.7546771E-02  0.1116854E+00
         21   -1    0    0  501  502  0.00000000000E+00  0.00000000000E+00  0.31035097358E+03  0.31035097358E+03  0.00000000000E+00 0.  1.
         21   -1    0    0  502  503 -0.00000000000E+00 -0.00000000000E+00 -0.19583606311E+03  0.19583606311E+03  0.00000000000E+00 0. -1.
          6    1    1    2  501    0  0.15408255097E+03  0.78051625558E+02  0.89971320567E+02  0.26049439013E+03  0.17300000000E+03 0. -1.
         -6    1    1    2    0  503 -0.15408255097E+03 -0.78051625558E+02  0.24543589898E+02  0.24569264655E+03  0.17300000000E+03 0.  1.
<mgrwt>
<rscale>  2 0.24446368E+03</rscale>
<asrwt>0</asrwt>
<pdfrwt beam="1">  1       21 0.47746304E-01 0.24446368E+03</pdfrwt>
<pdfrwt beam="2">  1       21 0.30128625E-01 0.24446368E+03</pdfrwt>
<totfact> 0.43261142E+04</totfact>
</mgrwt>
</event>
<event>
 4    1  0.3883260E+000  0.1844393E+03  0.7546771E-02  0.1163575E+00
         21   -1    0    0  501  502  0.00000000000E+00  0.00000000000E+00  0.58621590913E+03  0.58621590913E+03  0.00000000000E+00 0. -1.
         21   -1    0    0  502  503 -0.00000000000E+00 -0.00000000000E+00 -0.71408009175E+02  0.71408009175E+02  0.00000000000E+00 0. -1.
          6    1    1    2  501    0  0.45594540544E+02 -0.44832908082E+02  0.39972758088E+03  0.44022720349E+03  0.17300000000E+03 0. -1.
         -6    1    1    2    0  503 -0.45594540544E+02  0.44832908082E+02  0.11508031907E+03  0.21739671481E+03  0.17300000000E+03 0. -1.
<mgrwt>
<rscale>  2 0.18443929E+03</rscale>
<asrwt>0</asrwt>
<pdfrwt beam="1">  1       21 0.90187060E-01 0.18443929E+03</pdfrwt>
<pdfrwt beam="2">  1       21 0.10985848E-01 0.18443929E+03</pdfrwt>
<totfact> 0.72079858E+04</totfact>
</mgrwt>
</event>
<event>
 4    1  0.3883260E+000  0.1755076E+03  0.7546771E-02  0.1172223E+00
         21   -1    0    0  501  502  0.00000000000E+00  0.00000000000E+00  0.13792131106E+03  0.13792131106E+03  0.00000000000E+00 0.  1.
         21   -1    0    0  502  503 -0.00000000000E+00 -0.00000000000E+00 -0.28699159948E+03  0.28699159948E+03  0.00000000000E+00 0.  1.
          6    1    1    2  501    0  0.26128007600E+02 -0.13828516767E+02  0.25522668589E+02  0.17735362209E+03  0.17300000000E+03 0.  1.
         -6    1    1    2    0  503 -0.26128007600E+02  0.13828516767E+02 -0.17459295702E+03  0.24755928845E+03  0.17300000000E+03 0.  1.
<mgrwt>
<rscale>  2 0.17550755E+03</rscale>
<asrwt>0</asrwt>
<pdfrwt beam="1">  1       21 0.21218663E-01 0.17550755E+03</pdfrwt>
<pdfrwt beam="2">  1       21 0.44152554E-01 0.17550755E+03</pdfrwt>
<totfact> 0.10246482E+05</totfact>
</mgrwt>
</event>
<event>
 4    1  0.3883260E+000  0.1733118E+03  0.7546771E-02  0.1174438E+00
         21   -1    0    0  501  502  0.00000000000E+00  0.00000000000E+00  0.57294462843E+02  0.57294462843E+02  0.00000000000E+00 0. -1.
         21   -1    0    0  502  503 -0.00000000000E+00 -0.00000000000E+00 -0.77417498757E+03  0.77417498757E+03  0.00000000000E+00 0. -1.
          6    1    1    2  501    0 -0.10256180218E+02  0.16724036617E+01 -0.12223147349E+03  0.21207904017E+03  0.17300000000E+03 0. -1.
         -6    1    1    2    0  503  0.10256180218E+02 -0.16724036617E+01 -0.59464905124E+03  0.61939041025E+03  0.17300000000E+03 0. -1.
<mgrwt>
<rscale>  2 0.17331182E+03</rscale>
<asrwt>0</asrwt>
<pdfrwt beam="1">  1       21 0.88145326E-02 0.17331182E+03</pdfrwt>
<pdfrwt beam="2">  1       21 0.11910385E+00 0.17331182E+03</pdfrwt>
<totfact> 0.55051264E+04</totfact>
</mgrwt>
</event>
<event>
 4    1  0.3883260E+000  0.1799267E+03  0.7546771E-02  0.1167874E+00
         21   -1    0    0  503  502  0.00000000000E+00  0.00000000000E+00  0.32115520171E+03  0.32115520171E+03  0.00000000000E+00 0.  1.
         21   -1    0    0  501  503 -0.00000000000E+00 -0.00000000000E+00 -0.11287907934E+03  0.11287907934E+03  0.00000000000E+00 0. -1.
          6    1    1    2  501    0 -0.47212911541E+02  0.14682374787E+02  0.33157769354E+02  0.18295646699E+03  0.17300000000E+03 0. -1.
         -6    1    1    2    0  502  0.47212911541E+02 -0.14682374787E+02  0.17511835302E+03  0.25107781406E+03  0.17300000000E+03 0.  1.
<mgrwt>
<rscale>  2 0.17992674E+03</rscale>
<asrwt>0</asrwt>
<pdfrwt beam="1">  1       21 0.49408492E-01 0.17992674E+03</pdfrwt>
<pdfrwt beam="2">  1       21 0.17366012E-01 0.17992674E+03</pdfrwt>
<totfact> 0.11770426E+05</totfact>
</mgrwt>
</event>
<event>
 4    1  0.3883260E+000  0.2332766E+03  0.7546771E-02  0.1124355E+00
         21   -1    0    0  503  502  0.00000000000E+00  0.00000000000E+00  0.37668313413E+03  0.37668313413E+03  0.00000000000E+00 0.  1.
         21   -1    0    0  501  503 -0.00000000000E+00 -0.00000000000E+00 -0.17681549325E+03  0.17681549325E+03  0.00000000000E+00 0. -1.
          6    1    1    2  501    0 -0.90300972136E+02  0.12780725092E+03 -0.18440959657E+02  0.23400433319E+03  0.17300000000E+03 0. -1.
         -6    1    1    2    0  502  0.90300972136E+02 -0.12780725092E+03  0.21830860053E+03  0.31949429419E+03  0.17300000000E+03 0.  1.
<mgrwt>
<rscale>  2 0.23327657E+03</rscale>
<asrwt>0</asrwt>
<pdfrwt beam="1">  1       21 0.57951251E-01 0.23327657E+03</pdfrwt>
<pdfrwt beam="2">  1       21 0.27202384E-01 0.23327657E+03</pdfrwt>
<totfact> 0.35232667E+04</totfact>
</mgrwt>
</event>
<event>
 4    1  0.3883260E+000  0.1937724E+03  0.7546771E-02  0.1155102E+00
         21   -1    0    0  501  502  0.00000000000E+00  0.00000000000E+00  0.14999678440E+03  0.14999678440E+03  0.00000000000E+00 0. -1.
         21   -1    0    0  502  503 -0.00000000000E+00 -0.00000000000E+00 -0.54773339845E+03  0.54773339845E+03  0.00000000000E+00 0. -1.
          6    1    1    2  501    0 -0.10033119588E+01 -0.87279634758E+02  0.58201167127E+02  0.20232428706E+03  0.17300000000E+03 0. -1.
         -6    1    1    2    0  503  0.10033119588E+01  0.87279634758E+02 -0.45593778118E+03  0.49540589579E+03  0.17300000000E+03 0. -1.
<mgrwt>
<rscale>  2 0.19377240E+03</rscale>
<asrwt>0</asrwt>
<pdfrwt beam="1">  1       21 0.23076428E-01 0.19377240E+03</pdfrwt>
<pdfrwt beam="2">  1       21 0.84266678E-01 0.19377240E+03</pdfrwt>
<totfact> 0.21543468E+04</totfact>
</mgrwt>
</event>
<event>
 4    1  0.3883260E+000  0.1765548E+03  0.7546771E-02  0.1171180E+00
         21   -1    0    0  501  502  0.00000000000E+00  0.00000000000E+00  0.10362834995E+03  0.10362834995E+03  0.00000000000E+00 0. -1.
         21   -1    0    0  502  503 -0.00000000000E+00 -0.00000000000E+00 -0.31371581920E+03  0.31371581920E+03  0.00000000000E+00 0. -1.
          6    1    1    2  501    0  0.31893986679E+02 -0.15012169411E+02 -0.62706033011E+02  0.18735964932E+03  0.17300000000E+03 0.  1.
         -6    1    1    2    0  503 -0.31893986679E+02  0.15012169411E+02 -0.14738143623E+03  0.22998451983E+03  0.17300000000E+03 0.  1.
<mgrwt>
<rscale>  2 0.17655478E+03</rscale>
<asrwt>0</asrwt>
<pdfrwt beam="1">  1       21 0.15942823E-01 0.17655478E+03</pdfrwt>
<pdfrwt beam="2">  1       21 0.48263972E-01 0.17655478E+03</pdfrwt>
<totfact> 0.14470515E+05</totfact>
</mgrwt>
</event>
<event>
 4    1  0.3883260E+000  0.2479969E+03  0.7546771E-02  0.1114577E+00
         21   -1    0    0  503  502  0.00000000000E+00  0.00000000000E+00  0.18669171789E+03  0.18669171789E+03  0.00000000000E+00 0.  1.
         21   -1    0    0  501  503 -0.00000000000E+00 -0.00000000000E+00 -0.88729377683E+03  0.88729377683E+03  0.00000000000E+00 0.  1.
          6    1    1    2  501    0 -0.32614274275E+02 -0.17467050725E+03 -0.77609301430E+03  0.81475324107E+03  0.17300000000E+03 0.  1.
         -6    1    1    2    0  502  0.32614274275E+02  0.17467050725E+03  0.75490955361E+02  0.25923225365E+03  0.17300000000E+03 0.  1.
<mgrwt>
<rscale>  2 0.24799693E+03</rscale>
<asrwt>0</asrwt>
<pdfrwt beam="1">  1       21 0.28721803E-01 0.24799693E+03</pdfrwt>
<pdfrwt beam="2">  1       21 0.13650674E+00 0.24799693E+03</pdfrwt>
<totfact> 0.42457604E+03</totfact>
</mgrwt>
</event>
<event>
 4    1  0.3883260E+000  0.1775833E+03  0.7546771E-02  0.1170163E+00
         21   -1    0    0  501  502  0.00000000000E+00  0.00000000000E+00  0.14709162733E+04  0.14709162733E+04  0.00000000000E+00 0.  1.
         21   -1    0    0  502  503 -0.00000000000E+00 -0.00000000000E+00 -0.32793639127E+02  0.32793639127E+02  0.00000000000E+00 0.  1.
          6    1    1    2  501    0 -0.35236185830E+02  0.19111078872E+02  0.11614610956E+04  0.11749585945E+04  0.17300000000E+03 0.  1.
         -6    1    1    2    0  503  0.35236185830E+02 -0.19111078872E+02  0.27666153852E+03  0.32875131791E+03  0.17300000000E+03 0.  1.
<mgrwt>
<rscale>  2 0.17758328E+03</rscale>
<asrwt>0</asrwt>
<pdfrwt beam="1">  1       21 0.22629476E+00 0.17758328E+03</pdfrwt>
<pdfrwt beam="2">  1       21 0.50451764E-02 0.17758328E+03</pdfrwt>
<totfact> 0.24695604E+04</totfact>
</mgrwt>
</event>
<event>
 4    1  0.3883260E+000  0.1843880E+03  0.7546771E-02  0.1163623E+00
         21   -1    0    0  503  502  0.00000000000E+00  0.00000000000E+00  0.25387763762E+04  0.25387763762E+04  0.00000000000E+00 0. -1.
         21   -1    0    0  501  503 -0.00000000000E+00 -0.00000000000E+00 -0.19935060443E+02  0.19935060443E+02  0.00000000000E+00 0. -1.
          6    1    1    2  501    0  0.17574743771E+02  0.61327481538E+02  0.52646495301E+03  0.55782100925E+03  0.17300000000E+03 0. -1.
         -6    1    1    2    0  502 -0.17574743771E+02 -0.61327481538E+02  0.19923763627E+04  0.20008904274E+04  0.17300000000E+03 0. -1.
<mgrwt>
<rscale>  2 0.18438799E+03</rscale>
<asrwt>0</asrwt>
<pdfrwt beam="1">  1       21 0.39058072E+00 0.18438799E+03</pdfrwt>
<pdfrwt beam="2">  1       21 0.30669344E-02 0.18438799E+03</pdfrwt>
<totfact> 0.61471176E+03</totfact>
</mgrwt>
</event>
<event>
 4    1  0.3883260E+000  0.2247366E+03  0.7546771E-02  0.1130400E+00
         21   -1    0    0  503  502  0.00000000000E+00  0.00000000000E+00  0.10856277477E+03  0.10856277477E+03  0.00000000000E+00 0.  1.
         21   -1    0    0  501  503 -0.00000000000E+00 -0.00000000000E+00 -0.62367467242E+03  0.62367467242E+03  0.00000000000E+00 0.  1.
          6    1    1    2  501    0 -0.32230397453E+02 -0.13978111669E+03 -0.44209274497E+03  0.49593603847E+03  0.17300000000E+03 0.  1.
         -6    1    1    2    0  502  0.32230397453E+02  0.13978111669E+03 -0.73019152687E+02  0.23630140872E+03  0.17300000000E+03 0.  1.
<mgrwt>
<rscale>  2 0.22473664E+03</rscale>
<asrwt>0</asrwt>
<pdfrwt beam="1">  1       21 0.16701966E-01 0.22473664E+03</pdfrwt>
<pdfrwt beam="2">  1       21 0.95949948E-01 0.22473664E+03</pdfrwt>
<totfact> 0.28653288E+04</totfact>
</mgrwt>
</event>
<event>
 4    1  0.3883260E+000  0.1816996E+03  0.7546771E-02  0.1166168E+00
         21   -1    0    0  501  502  0.00000000000E+00  0.00000000000E+00  0.92744743482E+02  0.92744743482E+02  0.00000000000E+00 0.  1.
         21   -1    0    0  502  503 -0.00000000000E+00 -0.00000000000E+00 -0.35808003671E+03  0.35808003671E+03  0.00000000000E+00 0.  1.
          6    1    1    2  501    0 -0.55285100432E+02 -0.54132373221E+01 -0.11538185001E+03  0.21523874368E+03  0.17300000000E+03 0.  1.
         -6    1    1    2    0  503  0.55285100432E+02  0.54132373221E+01 -0.14995344322E+03  0.23558603652E+03  0.17300000000E+03 0.  1.
<mgrwt>
<rscale>  2 0.18169960E+03</rscale>
<asrwt>0</asrwt>
<pdfrwt beam="1">  1       21 0.14268422E-01 0.18169960E+03</pdfrwt>
<pdfrwt beam="2">  1       21 0.55089237E-01 0.18169960E+03</pdfrwt>
<totfact> 0.13404097E+05</totfact>
</mgrwt>
</event>
<event>
 4    1  0.3883260E+000  0.1800222E+03  0.7546771E-02  0.1167782E+00
         21   -1    0    0  501  502  0.00000000000E+00  0.00000000000E+00  0.23469098872E+03  0.23469098872E+03  0.00000000000E+00 0. -1.
         21   -1    0    0  502  503 -0.00000000000E+00 -0.00000000000E+00 -0.17083580504E+03  0.17083580504E+03  0.00000000000E+00 0. -1.
          6    1    1    2  501    0 -0.16185013888E+02  0.47085440266E+02  0.12070279116E+03  0.21674214439E+03  0.17300000000E+03 0. -1.
         -6    1    1    2    0  503  0.16185013888E+02 -0.47085440266E+02 -0.56847607485E+02  0.18878464937E+03  0.17300000000E+03 0. -1.
<mgrwt>
<rscale>  2 0.18002220E+03</rscale>
<asrwt>0</asrwt>
<pdfrwt beam="1">  1       21 0.36106306E-01 0.18002220E+03</pdfrwt>
<pdfrwt beam="2">  1       21 0.26282432E-01 0.18002220E+03</pdfrwt>
<totfact> 0.10229195E+05</totfact>
</mgrwt>
</event>
<event>
 4    1  0.3883260E+000  0.1869838E+03  0.7546771E-02  0.1161210E+00
         21   -1    0    0  501  502  0.00000000000E+00  0.00000000000E+00  0.75266080698E+02  0.75266080698E+02  0.00000000000E+00 0.  1.
         21   -1    0    0  502  503 -0.00000000000E+00 -0.00000000000E+00 -0.50560568632E+03  0.50560568632E+03  0.00000000000E+00 0. -1.
          6    1    1    2  501    0 -0.64549647397E+02  0.29449581426E+02 -0.13238205951E+03  0.22910247599E+03  0.17300000000E+03 0. -1.
         -6    1    1    2    0  503  0.64549647397E+02 -0.29449581426E+02 -0.29795754610E+03  0.35176929102E+03  0.17300000000E+03 0. -1.
<mgrwt>
<rscale>  2 0.18698378E+03</rscale>
<asrwt>0</asrwt>
<pdfrwt beam="1">  1       21 0.11579397E-01 0.18698378E+03</pdfrwt>
<pdfrwt beam="2">  1       21 0.77785491E-01 0.18698378E+03</pdfrwt>
<totfact> 0.91849478E+04</totfact>
</mgrwt>
</event>
<event>
 4    1  0.3883260E+000  0.3883742E+03  0.7546771E-02  0.1047881E+00
         21   -1    0    0  501  502  0.00000000000E+00  0.00000000000E+00  0.12403442285E+04  0.12403442285E+04  0.00000000000E+00 0.  1.
         21   -1    0    0  502  503 -0.00000000000E+00 -0.00000000000E+00 -0.64739931573E+03  0.64739931573E+03  0.00000000000E+00 0. -1.
          6    1    1    2  501    0  0.20180188089E+03  0.28316343383E+03  0.11470893450E+04  0.12110526391E+04  0.17300000000E+03 0.  1.
         -6    1    1    2    0  503 -0.20180188089E+03 -0.28316343383E+03 -0.55414443217E+03  0.67669090513E+03  0.17300000000E+03 0. -1.
<mgrwt>
<rscale>  2 0.38837421E+03</rscale>
<asrwt>0</asrwt>
<pdfrwt beam="1">  1       21 0.19082219E+00 0.38837421E+03</pdfrwt>
<pdfrwt beam="2">  1       21 0.99599895E-01 0.38837421E+03</pdfrwt>
<totfact> 0.10581674E+02</totfact>
</mgrwt>
</event>
<event>
 4    1  0.3883260E+000  0.1883133E+03  0.7546771E-02  0.1159991E+00
         21   -1    0    0  503  502  0.00000000000E+00  0.00000000000E+00  0.53888828788E+02  0.53888828788E+02  0.00000000000E+00 0. -1.
         21   -1    0    0  501  503 -0.00000000000E+00 -0.00000000000E+00 -0.71888545872E+03  0.71888545872E+03  0.00000000000E+00 0. -1.
          6    1    1    2  501    0 -0.44680523822E+02  0.59468894221E+02 -0.44489350072E+03  0.48310674345E+03  0.17300000000E+03 0. -1.
         -6    1    1    2    0  502  0.44680523822E+02 -0.59468894221E+02 -0.22010312922E+03  0.28966754406E+03  0.17300000000E+03 0. -1.
<mgrwt>
<rscale>  2 0.18831330E+03</rscale>
<asrwt>0</asrwt>
<pdfrwt beam="1">  1       21 0.82905899E-02 0.18831330E+03</pdfrwt>
<pdfrwt beam="2">  1       21 0.11059775E+00 0.18831330E+03</pdfrwt>
<totfact> 0.72834810E+04</totfact>
</mgrwt>
</event>
<event>
 4    1  0.3883260E+000  0.1731187E+03  0.7546771E-02  0.1174634E+00
         21   -1    0    0  503  502  0.00000000000E+00  0.00000000000E+00  0.48311191100E+03  0.48311191100E+03  0.00000000000E+00 0. -1.
         21   -1    0    0  501  503 -0.00000000000E+00 -0.00000000000E+00 -0.66662821031E+02  0.66662821031E+02  0.00000000000E+00 0. -1.
          6    1    1    2  501    0 -0.29083880164E+01  0.57113365178E+01  0.13580116207E+03  0.22002734763E+03  0.17300000000E+03 0. -1.
         -6    1    1    2    0  502  0.29083880164E+01 -0.57113365178E+01  0.28064792790E+03  0.32974738440E+03  0.17300000000E+03 0. -1.
<mgrwt>
<rscale>  2 0.17311868E+03</rscale>
<asrwt>0</asrwt>
<pdfrwt beam="1">  1       21 0.74324907E-01 0.17311868E+03</pdfrwt>
<pdfrwt beam="2">  1       21 0.10255819E-01 0.17311868E+03</pdfrwt>
<totfact> 0.12679364E+05</totfact>
</mgrwt>
</event>
<event>
 4    1  0.3883260E+000  0.2487013E+03  0.7546771E-02  0.1114128E+00
         21   -1    0    0  501  502  0.00000000000E+00  0.00000000000E+00  0.53268725162E+03  0.53268725162E+03  0.00000000000E+00 0.  1.
         21   -1    0    0  502  503 -0.00000000000E+00 -0.00000000000E+00 -0.15539226854E+03  0.15539226854E+03  0.00000000000E+00 0. -1.
          6    1    1    2  501    0 -0.12162462302E+02 -0.17825651948E+03  0.36161777793E+03  0.43888464263E+03  0.17300000000E+03 0.  1.
         -6    1    1    2    0  503  0.12162462302E+02  0.17825651948E+03  0.15677205151E+02  0.24919487753E+03  0.17300000000E+03 0. -1.
<mgrwt>
<rscale>  2 0.24870125E+03</rscale>
<asrwt>0</asrwt>
<pdfrwt beam="1">  1       21 0.81951884E-01 0.24870125E+03</pdfrwt>
<pdfrwt beam="2">  1       21 0.23906503E-01 0.24870125E+03</pdfrwt>
<totfact> 0.20826277E+04</totfact>
</mgrwt>
</event>
<event>
 4    1  0.3883260E+000  0.1758420E+03  0.7546771E-02  0.1171889E+00
         21   -1    0    0  501  502  0.00000000000E+00  0.00000000000E+00  0.26573094633E+03  0.26573094633E+03  0.00000000000E+00 0. -1.
         21   -1    0    0  502  503 -0.00000000000E+00 -0.00000000000E+00 -0.32661765645E+03  0.32661765645E+03  0.00000000000E+00 0. -1.
          6    1    1    2  501    0  0.19291278458E+02 -0.24884592359E+02  0.20718796091E+03  0.27174850047E+03  0.17300000000E+03 0. -1.
         -6    1    1    2    0  503 -0.19291278458E+02  0.24884592359E+02 -0.26807467103E+03  0.32060010232E+03  0.17300000000E+03 0. -1.
<mgrwt>
<rscale>  2 0.17584196E+03</rscale>
<asrwt>0</asrwt>
<pdfrwt beam="1">  1       21 0.40881684E-01 0.17584196E+03</pdfrwt>
<pdfrwt beam="2">  1       21 0.50248870E-01 0.17584196E+03</pdfrwt>
<totfact> 0.21951438E+04</totfact>
</mgrwt>
</event>
<event>
 4    1  0.3883260E+000  0.2206841E+03  0.7546771E-02  0.1133374E+00
         21   -1    0    0  501  502  0.00000000000E+00  0.00000000000E+00  0.10494171027E+03  0.10494171027E+03  0.00000000000E+00 0. -1.
         21   -1    0    0  502  503 -0.00000000000E+00 -0.00000000000E+00 -0.90839749694E+03  0.90839749694E+03  0.00000000000E+00 0.  1.
          6    1    1    2  501    0  0.74172882532E+02  0.11519914726E+03 -0.47377371557E+02  0.22571237310E+03  0.17300000000E+03 0. -1.
         -6    1    1    2    0  503 -0.74172882532E+02 -0.11519914726E+03 -0.75607841511E+03  0.78762683412E+03  0.17300000000E+03 0.  1.
<mgrwt>
<rscale>  2 0.22068407E+03</rscale>
<asrwt>0</asrwt>
<pdfrwt beam="1">  1       21 0.16144879E-01 0.22068407E+03</pdfrwt>
<pdfrwt beam="2">  1       21 0.13975346E+00 0.22068407E+03</pdfrwt>
<totfact> 0.12090520E+04</totfact>
</mgrwt>
</event>
<event>
 4    1  0.3883260E+000  0.2515616E+03  0.7546771E-02  0.1112322E+00
         21   -1    0    0  503  502  0.00000000000E+00  0.00000000000E+00  0.33638540898E+03  0.33638540898E+03  0.00000000000E+00 0. -1.
         21   -1    0    0  501  503 -0.00000000000E+00 -0.00000000000E+00 -0.19200481755E+03  0.19200481755E+03  0.00000000000E+00 0.  1.
          6    1    1    2  501    0 -0.17830331650E+03  0.39524496992E+02  0.34645567173E+02  0.25393616100E+03  0.17300000000E+03 0. -1.
         -6    1    1    2    0  502  0.17830331650E+03 -0.39524496992E+02  0.10973502427E+03  0.27445406553E+03  0.17300000000E+03 0. -1.
<mgrwt>
<rscale>  2 0.25156164E+03</rscale>
<asrwt>0</asrwt>
<pdfrwt beam="1">  1       21 0.51751601E-01 0.25156164E+03</pdfrwt>
<pdfrwt beam="2">  1       21 0.29539203E-01 0.25156164E+03</pdfrwt>
<totfact> 0.37869130E+04</totfact>
</mgrwt>
</event>
<event>
 4    1  0.3883260E+000  0.1847221E+03  0.7546771E-02  0.1163310E+00
         21   -1    0    0  501  502  0.00000000000E+00  0.00000000000E+00  0.68672584969E+02  0.68672584969E+02  0.00000000000E+00 0.  1.
         21   -1    0    0  502  503 -0.00000000000E+00 -0.00000000000E+00 -0.62729946687E+03  0.62729946687E+03  0.00000000000E+00 0.  1.
          6    1    1    2  501    0  0.64299014344E+02  0.76749770608E+01 -0.12064525014E+03  0.22062988215E+03  0.17300000000E+03 0.  1.
         -6    1    1    2    0  503 -0.64299014344E+02 -0.76749770608E+01 -0.43798163176E+03  0.47534216968E+03  0.17300000000E+03 0.  1.
<mgrwt>
<rscale>  2 0.18472214E+03</rscale>
<asrwt>0</asrwt>
<pdfrwt beam="1">  1       21 0.10565013E-01 0.18472214E+03</pdfrwt>
<pdfrwt beam="2">  1       21 0.96507614E-01 0.18472214E+03</pdfrwt>
<totfact> 0.65967583E+04</totfact>
</mgrwt>
</event>
<event>
 4    1  0.3883260E+000  0.1838769E+03  0.7546771E-02  0.1164103E+00
         21   -1    0    0  501  502  0.00000000000E+00  0.00000000000E+00  0.86452378148E+03  0.86452378148E+03  0.00000000000E+00 0. -1.
         21   -1    0    0  502  503 -0.00000000000E+00 -0.00000000000E+00 -0.43931253924E+02  0.43931253924E+02  0.00000000000E+00 0. -1.
          6    1    1    2  501    0  0.10885510508E+02 -0.61345015650E+02  0.56078685543E+03  0.59016319990E+03  0.17300000000E+03 0. -1.
         -6    1    1    2    0  503 -0.10885510508E+02  0.61345015650E+02  0.25980567212E+03  0.31829183551E+03  0.17300000000E+03 0. -1.
<mgrwt>
<rscale>  2 0.18387688E+03</rscale>
<asrwt>0</asrwt>
<pdfrwt beam="1">  1       21 0.13300365E+00 0.18387688E+03</pdfrwt>
<pdfrwt beam="2">  1       21 0.67586551E-02 0.18387688E+03</pdfrwt>
<totfact> 0.65853905E+04</totfact>
</mgrwt>
</event>
<event>
 4    1  0.3883260E+000  0.1931654E+03  0.7546771E-02  0.1155637E+00
         21   -1    0    0  501  502  0.00000000000E+00  0.00000000000E+00  0.55661044086E+02  0.55661044086E+02  0.00000000000E+00 0.  1.
         21   -1    0    0  502  503 -0.00000000000E+00 -0.00000000000E+00 -0.67272075887E+03  0.67272075887E+03  0.00000000000E+00 0.  1.
          6    1    1    2  501    0 -0.82057958386E+02  0.25502098869E+02 -0.33011010038E+03  0.38247293231E+03  0.17300000000E+03 0.  1.
         -6    1    1    2    0  503  0.82057958386E+02 -0.25502098869E+02 -0.28694961441E+03  0.34590887064E+03  0.17300000000E+03 0.  1.
<mgrwt>
<rscale>  2 0.19316538E+03</rscale>
<asrwt>0</asrwt>
<pdfrwt beam="1">  1       21 0.85632377E-02 0.19316538E+03</pdfrwt>
<pdfrwt beam="2">  1       21 0.10349550E+00 0.19316538E+03</pdfrwt>
<totfact> 0.80591504E+04</totfact>
</mgrwt>
</event>
<event>
 4    1  0.3883260E+000  0.2210899E+03  0.7546771E-02  0.1133073E+00
         21   -1    0    0  503  502  0.00000000000E+00  0.00000000000E+00  0.15730864430E+03  0.15730864430E+03  0.00000000000E+00 0.  1.
         21   -1    0    0  501  503 -0.00000000000E+00 -0.00000000000E+00 -0.45713715547E+03  0.45713715547E+03  0.00000000000E+00 0. -1.
          6    1    1    2  501    0  0.12110086568E+03 -0.65470010188E+02 -0.32377812302E+03  0.39206251396E+03  0.17300000000E+03 0. -1.
         -6    1    1    2    0  502 -0.12110086568E+03  0.65470010188E+02  0.23949611851E+02  0.22238328582E+03  0.17300000000E+03 0.  1.
<mgrwt>
<rscale>  2 0.22108990E+03</rscale>
<asrwt>0</asrwt>
<pdfrwt beam="1">  1       21 0.24201331E-01 0.22108990E+03</pdfrwt>
<pdfrwt beam="2">  1       21 0.70328791E-01 0.22108990E+03</pdfrwt>
<totfact> 0.29098364E+04</totfact>
</mgrwt>
</event>
<event>
 4    1  0.3883260E+000  0.2010802E+03  0.7546771E-02  0.1148831E+00
         21   -1    0    0  501  502  0.00000000000E+00  0.00000000000E+00  0.96443259573E+03  0.96443259573E+03  0.00000000000E+00 0. -1.
         21   -1    0    0  502  503 -0.00000000000E+00 -0.00000000000E+00 -0.42204008292E+02  0.42204008292E+02  0.00000000000E+00 0. -1.
          6    1    1    2  501    0  0.44856041759E+01  0.10239198519E+03  0.50208334486E+03  0.54085203564E+03  0.17300000000E+03 0. -1.
         -6    1    1    2    0  503 -0.44856041759E+01 -0.10239198519E+03  0.42014524258E+03  0.46578456838E+03  0.17300000000E+03 0. -1.
<mgrwt>
<rscale>  2 0.20108018E+03</rscale>
<asrwt>0</asrwt>
<pdfrwt beam="1">  1       21 0.14837423E+00 0.20108018E+03</pdfrwt>
<pdfrwt beam="2">  1       21 0.64929251E-02 0.20108018E+03</pdfrwt>
<totfact> 0.52715549E+04</totfact>
</mgrwt>
</event>
<event>
 4    1  0.3883260E+000  0.1826496E+03  0.7546771E-02  0.1165263E+00
         21   -1    0    0  501  502  0.00000000000E+00  0.00000000000E+00  0.41574894344E+03  0.41574894344E+03  0.00000000000E+00 0.  1.
         21   -1    0    0  502  503 -0.00000000000E+00 -0.00000000000E+00 -0.82042234178E+02  0.82042234178E+02  0.00000000000E+00 0.  1.
          6    1    1    2  501    0 -0.15459181651E+02  0.56505821530E+02  0.20371343931E+03  0.27360566427E+03  0.17300000000E+03 0.  1.
         -6    1    1    2    0  503  0.15459181651E+02 -0.56505821530E+02  0.12999326995E+03  0.22418551335E+03  0.17300000000E+03 0.  1.
<mgrwt>
<rscale>  2 0.18264965E+03</rscale>
<asrwt>0</asrwt>
<pdfrwt beam="1">  1       21 0.63961375E-01 0.18264965E+03</pdfrwt>
<pdfrwt beam="2">  1       21 0.12621882E-01 0.18264965E+03</pdfrwt>
<totfact> 0.12142048E+05</totfact>
</mgrwt>
</event>
<event>
 4    1  0.3883260E+000  0.1757011E+03  0.7546771E-02  0.1172030E+00
         21   -1    0    0  503  502  0.00000000000E+00  0.00000000000E+00  0.57519418927E+02  0.57519418927E+02  0.00000000000E+00 0. -1.
         21   -1    0    0  501  503 -0.00000000000E+00 -0.00000000000E+00 -0.61355719967E+03  0.61355719967E+03  0.00000000000E+00 0. -1.
          6    1    1    2  501    0 -0.19381002798E+02  0.23796338145E+02 -0.39677233354E+03  0.43393452691E+03  0.17300000000E+03 0. -1.
         -6    1    1    2    0  502  0.19381002798E+02 -0.23796338145E+02 -0.15926544720E+03  0.23714209169E+03  0.17300000000E+03 0. -1.
<mgrwt>
<rscale>  2 0.17570114E+03</rscale>
<asrwt>0</asrwt>
<pdfrwt beam="1">  1       21 0.88491416E-02 0.17570114E+03</pdfrwt>
<pdfrwt beam="2">  1       21 0.94393413E-01 0.17570114E+03</pdfrwt>
<totfact> 0.95285720E+04</totfact>
</mgrwt>
</event>
<event>
 4    1  0.3883260E+000  0.1854255E+03  0.7546771E-02  0.1162653E+00
         21   -1    0    0  501  502  0.00000000000E+00  0.00000000000E+00  0.10522503777E+03  0.10522503777E+03  0.00000000000E+00 0. -1.
         21   -1    0    0  502  503 -0.00000000000E+00 -0.00000000000E+00 -0.49237505020E+03  0.49237505020E+03  0.00000000000E+00 0. -1.
          6    1    1    2  501    0  0.52035750350E+02 -0.41783860062E+02 -0.20277805386E+02  0.18653096169E+03  0.17300000000E+03 0. -1.
         -6    1    1    2    0  503 -0.52035750350E+02  0.41783860062E+02 -0.36687220705E+03  0.41106912628E+03  0.17300000000E+03 0. -1.
<mgrwt>
<rscale>  2 0.18542548E+03</rscale>
<asrwt>0</asrwt>
<pdfrwt beam="1">  1       21 0.16188467E-01 0.18542548E+03</pdfrwt>
<pdfrwt beam="2">  1       21 0.75750009E-01 0.18542548E+03</pdfrwt>
<totfact> 0.53248822E+04</totfact>
</mgrwt>
</event>
<event>
 4    1  0.3883260E+000  0.1807365E+03  0.7546771E-02  0.1167092E+00
         21   -1    0    0  501  502  0.00000000000E+00  0.00000000000E+00  0.99670147138E+02  0.99670147138E+02  0.00000000000E+00 0. -1.
         21   -1    0    0  502  503 -0.00000000000E+00 -0.00000000000E+00 -0.62839831781E+03  0.62839831781E+03  0.00000000000E+00 0.  1.
          6    1    1    2  501    0 -0.43029285153E+02  0.29751455284E+02 -0.12559888529E+02  0.18117234687E+03  0.17300000000E+03 0. -1.
         -6    1    1    2    0  503  0.43029285153E+02 -0.29751455284E+02 -0.51616828215E+03  0.54689611807E+03  0.17300000000E+03 0.  1.
<mgrwt>
<rscale>  2 0.18073646E+03</rscale>
<asrwt>0</asrwt>
<pdfrwt beam="1">  1       21 0.15333869E-01 0.18073646E+03</pdfrwt>
<pdfrwt beam="2">  1       21 0.96676666E-01 0.18073646E+03</pdfrwt>
<totfact> 0.33725524E+04</totfact>
</mgrwt>
</event>
<event>
 4    1  0.3883260E+000  0.2164112E+03  0.7546771E-02  0.1136587E+00
         21   -1    0    0  503  502  0.00000000000E+00  0.00000000000E+00  0.26911885347E+03  0.26911885347E+03  0.00000000000E+00 0. -1.
         21   -1    0    0  501  503 -0.00000000000E+00 -0.00000000000E+00 -0.17935535947E+03  0.17935535947E+03  0.00000000000E+00 0. -1.
          6    1    1    2  501    0  0.65150354657E+02 -0.11251781214E+03  0.62303475026E+01  0.21650090991E+03  0.17300000000E+03 0. -1.
         -6    1    1    2    0  502 -0.65150354657E+02  0.11251781214E+03  0.83533146497E+02  0.23197330304E+03  0.17300000000E+03 0. -1.
<mgrwt>
<rscale>  2 0.21641124E+03</rscale>
<asrwt>0</asrwt>
<pdfrwt beam="1">  1       21 0.41402901E-01 0.21641124E+03</pdfrwt>
<pdfrwt beam="2">  1       21 0.27593132E-01 0.21641124E+03</pdfrwt>
<totfact> 0.69674173E+04</totfact>
</mgrwt>
</event>
<event>
 4    1  0.3883260E+000  0.1771472E+03  0.7546771E-02  0.1170593E+00
         21   -1    0    0  503  502  0.00000000000E+00  0.00000000000E+00  0.12134661333E+03  0.12134661333E+03  0.00000000000E+00 0. -1.
         21   -1    0    0  501  503 -0.00000000000E+00 -0.00000000000E+00 -0.27402301497E+03  0.27402301497E+03  0.00000000000E+00 0. -1.
          6    1    1    2  501    0 -0.37887369630E+02  0.40839382961E+01 -0.12322605024E+03  0.21579108134E+03  0.17300000000E+03 0. -1.
         -6    1    1    2    0  502  0.37887369630E+02 -0.40839382961E+01 -0.29450351407E+02  0.17957854696E+03  0.17300000000E+03 0. -1.
<mgrwt>
<rscale>  2 0.17714720E+03</rscale>
<asrwt>0</asrwt>
<pdfrwt beam="1">  1       21 0.18668710E-01 0.17714720E+03</pdfrwt>
<pdfrwt beam="2">  1       21 0.42157387E-01 0.17714720E+03</pdfrwt>
<totfact> 0.14282684E+05</totfact>
</mgrwt>
</event>
<event>
 4    1  0.3883260E+000  0.1804613E+03  0.7546771E-02  0.1167357E+00
         21   -1    0    0  501  502  0.00000000000E+00  0.00000000000E+00  0.18893332326E+04  0.18893332326E+04  0.00000000000E+00 0.  1.
         21   -1    0    0  502  503 -0.00000000000E+00 -0.00000000000E+00 -0.28917414977E+02  0.28917414977E+02  0.00000000000E+00 0.  1.
          6    1    1    2  501    0  0.27219753122E+02 -0.43547087523E+02  0.15397819497E+04  0.15503208431E+04  0.17300000000E+03 0.  1.
         -6    1    1    2    0  503 -0.27219753122E+02  0.43547087523E+02  0.32063386788E+03  0.36792980447E+03  0.17300000000E+03 0.  1.
<mgrwt>
<rscale>  2 0.18046125E+03</rscale>
<asrwt>0</asrwt>
<pdfrwt beam="1">  1       21 0.29066655E+00 0.18046125E+03</pdfrwt>
<pdfrwt beam="2">  1       21 0.44488346E-02 0.18046125E+03</pdfrwt>
<totfact> 0.12823373E+04</totfact>
</mgrwt>
</event>
<event>
 4    1  0.3883260E+000  0.1879970E+03  0.7546771E-02  0.1160280E+00
         21   -1    0    0  501  502  0.00000000000E+00  0.00000000000E+00  0.38850216440E+03  0.38850216440E+03  0.00000000000E+00 0.  1.
         21   -1    0    0  502  503 -0.00000000000E+00 -0.00000000000E+00 -0.91901402892E+02  0.91901402892E+02  0.00000000000E+00 0.  1.
          6    1    1    2  501    0  0.72231503677E+02 -0.14017596231E+02  0.12414696605E+03  0.22528948557E+03  0.17300000000E+03 0.  1.
         -6    1    1    2    0  503 -0.72231503677E+02  0.14017596231E+02  0.17245379546E+03  0.25511408173E+03  0.17300000000E+03 0.  1.
<mgrwt>
<rscale>  2 0.18799703E+03</rscale>
<asrwt>0</asrwt>
<pdfrwt beam="1">  1       21 0.59769563E-01 0.18799703E+03</pdfrwt>
<pdfrwt beam="2">  1       21 0.14138678E-01 0.18799703E+03</pdfrwt>
<totfact> 0.11430967E+05</totfact>
</mgrwt>
</event>
<event>
 4    1  0.3883260E+000  0.3306476E+03  0.7546771E-02  0.1070851E+00
         21   -1    0    0  503  502  0.00000000000E+00  0.00000000000E+00  0.93785074774E+02  0.93785074774E+02  0.00000000000E+00 0. -1.
         21   -1    0    0  501  503 -0.00000000000E+00 -0.00000000000E+00 -0.13995299911E+04  0.13995299911E+04  0.00000000000E+00 0.  1.
          6    1    1    2  501    0  0.14491757191E+03  0.24165622691E+03 -0.95805168873E+03  0.10135042540E+04  0.17300000000E+03 0.  1.
         -6    1    1    2    0  502 -0.14491757191E+03 -0.24165622691E+03 -0.34769322761E+03  0.47981081186E+03  0.17300000000E+03 0. -1.
<mgrwt>
<rscale>  2 0.33064760E+03</rscale>
<asrwt>0</asrwt>
<pdfrwt beam="1">  1       21 0.14428474E-01 0.33064760E+03</pdfrwt>
<pdfrwt beam="2">  1       21 0.21531229E+00 0.33064760E+03</pdfrwt>
<totfact> 0.40836082E+03</totfact>
</mgrwt>
</event>
<event>
 4    1  0.3883260E+000  0.3011763E+03  0.7546771E-02  0.1084654E+00
         21   -1    0    0  503  502  0.00000000000E+00  0.00000000000E+00  0.44286808036E+03  0.44286808036E+03  0.00000000000E+00 0. -1.
         21   -1    0    0  501  503 -0.00000000000E+00 -0.00000000000E+00 -0.28910693461E+03  0.28910693461E+03  0.00000000000E+00 0.  1.
          6    1    1    2  501    0  0.87317141460E+02  0.23055127152E+03 -0.12073599433E+03  0.32447550342E+03  0.17300000000E+03 0. -1.
         -6    1    1    2    0  502 -0.87317141460E+02 -0.23055127152E+03  0.27449714008E+03  0.40749951154E+03  0.17300000000E+03 0.  1.
<mgrwt>
<rscale>  2 0.30117631E+03</rscale>
<asrwt>0</asrwt>
<pdfrwt beam="1">  1       21 0.68133551E-01 0.30117631E+03</pdfrwt>
<pdfrwt beam="2">  1       21 0.44477990E-01 0.30117631E+03</pdfrwt>
<totfact> 0.89685501E+03</totfact>
</mgrwt>
</event>
<event>
 4    1  0.3883260E+000  0.2099032E+03  0.7546771E-02  0.1141643E+00
         21   -1    0    0  501  502  0.00000000000E+00  0.00000000000E+00  0.33525014347E+03  0.33525014347E+03  0.00000000000E+00 0.  1.
         21   -1    0    0  502  503 -0.00000000000E+00 -0.00000000000E+00 -0.17786300983E+03  0.17786300983E+03  0.00000000000E+00 0.  1.
          6    1    1    2  501    0 -0.11520564888E+03 -0.29292101748E+02  0.20978956225E+03  0.29676763501E+03  0.17300000000E+03 0.  1.
         -6    1    1    2    0  503  0.11520564888E+03  0.29292101748E+02 -0.52402428613E+02  0.21634551829E+03  0.17300000000E+03 0.  1.
<mgrwt>
<rscale>  2 0.20990324E+03</rscale>
<asrwt>0</asrwt>
<pdfrwt beam="1">  1       21 0.51576945E-01 0.20990324E+03</pdfrwt>
<pdfrwt beam="2">  1       21 0.27363540E-01 0.20990324E+03</pdfrwt>
<totfact> 0.45094930E+04</totfact>
</mgrwt>
</event>
<event>
 4    1  0.3883260E+000  0.2197403E+03  0.7546771E-02  0.1134077E+00
         21   -1    0    0  501  502  0.00000000000E+00  0.00000000000E+00  0.48115030021E+02  0.48115030021E+02  0.00000000000E+00 0.  1.
         21   -1    0    0  502  503 -0.00000000000E+00 -0.00000000000E+00 -0.10200708562E+04  0.10200708562E+04  0.00000000000E+00 0.  1.
          6    1    1    2  501    0 -0.13491510041E+03 -0.12438616588E+02 -0.41800631638E+03  0.47224472896E+03  0.17300000000E+03 0.  1.
         -6    1    1    2    0  503  0.13491510041E+03  0.12438616588E+02 -0.55394950976E+03  0.59594115722E+03  0.17300000000E+03 0.  1.
<mgrwt>
<rscale>  2 0.21974031E+03</rscale>
<asrwt>0</asrwt>
<pdfrwt beam="1">  1       21 0.74023123E-02 0.21974031E+03</pdfrwt>
<pdfrwt beam="2">  1       21 0.15693398E+00 0.21974031E+03</pdfrwt>
<totfact> 0.35824814E+04</totfact>
</mgrwt>
</event>
<event>
 4    1  0.3883260E+000  0.2004653E+03  0.7546771E-02  0.1149347E+00
         21   -1    0    0  501  502  0.00000000000E+00  0.00000000000E+00  0.21169327011E+03  0.21169327011E+03  0.00000000000E+00 0.  1.
         21   -1    0    0  502  503 -0.00000000000E+00 -0.00000000000E+00 -0.29478475311E+03  0.29478475311E+03  0.00000000000E+00 0.  1.
          6    1    1    2  501    0 -0.83414591640E+02  0.57439906093E+02  0.10955731842E+03  0.22844943189E+03  0.17300000000E+03 0.  1.
         -6    1    1    2    0  503  0.83414591640E+02 -0.57439906093E+02 -0.19264880141E+03  0.27802859133E+03  0.17300000000E+03 0.  1.
<mgrwt>
<rscale>  2 0.20046530E+03</rscale>
<asrwt>0</asrwt>
<pdfrwt beam="1">  1       21 0.32568195E-01 0.20046530E+03</pdfrwt>
<pdfrwt beam="2">  1       21 0.45351501E-01 0.20046530E+03</pdfrwt>
<totfact> 0.42143368E+04</totfact>
</mgrwt>
</event>
<event>
 4    1  0.3883260E+000  0.1770084E+03  0.7546771E-02  0.1170730E+00
         21   -1    0    0  503  502  0.00000000000E+00  0.00000000000E+00  0.18870698760E+04  0.18870698760E+04  0.00000000000E+00 0. -1.
         21   -1    0    0  501  503 -0.00000000000E+00 -0.00000000000E+00 -0.33714579303E+02  0.33714579303E+02  0.00000000000E+00 0. -1.
          6    1    1    2  501    0  0.37392051373E+02 -0.21941390977E+01  0.24248506045E+03  0.30021822779E+03  0.17300000000E+03 0. -1.
         -6    1    1    2    0  502 -0.37392051373E+02  0.21941390977E+01  0.16108702363E+04  0.16205662275E+04  0.17300000000E+03 0. -1.
<mgrwt>
<rscale>  2 0.17700842E+03</rscale>
<asrwt>0</asrwt>
<pdfrwt beam="1">  1       21 0.29031836E+00 0.17700842E+03</pdfrwt>
<pdfrwt beam="2">  1       21 0.51868598E-02 0.17700842E+03</pdfrwt>
<totfact> 0.99783497E+03</totfact>
</mgrwt>
</event>
<event>
 4    1  0.3883260E+000  0.2004313E+03  0.7546771E-02  0.1149376E+00
         21   -1    0    0  503  502  0.00000000000E+00  0.00000000000E+00  0.67109398747E+02  0.67109398747E+02  0.00000000000E+00 0.  1.
         21   -1    0    0  501  503 -0.00000000000E+00 -0.00000000000E+00 -0.68225624495E+03  0.68225624495E+03  0.00000000000E+00 0. -1.
          6    1    1    2  501    0 -0.30006853894E+02  0.96660674963E+02 -0.43876322839E+03  0.48237523563E+03  0.17300000000E+03 0. -1.
         -6    1    1    2    0  502  0.30006853894E+02 -0.96660674963E+02 -0.17638361781E+03  0.26699040806E+03  0.17300000000E+03 0.  1.
<mgrwt>
<rscale>  2 0.20043128E+03</rscale>
<asrwt>0</asrwt>
<pdfrwt beam="1">  1       21 0.10324523E-01 0.20043128E+03</pdfrwt>
<pdfrwt beam="2">  1       21 0.10496249E+00 0.20043128E+03</pdfrwt>
<totfact> 0.55857955E+04</totfact>
</mgrwt>
</event>
<event>
 4    1  0.3883260E+000  0.2093355E+03  0.7546771E-02  0.1142093E+00
         21   -1    0    0  501  502  0.00000000000E+00  0.00000000000E+00  0.23453982859E+03  0.23453982859E+03  0.00000000000E+00 0. -1.
         21   -1    0    0  502  503 -0.00000000000E+00 -0.00000000000E+00 -0.19078922622E+03  0.19078922622E+03  0.00000000000E+00 0. -1.
          6    1    1    2  501    0  0.49804544997E+02 -0.10682630194E+03  0.52473126991E+02  0.21581191011E+03  0.17300000000E+03 0.  1.
         -6    1    1    2    0  503 -0.49804544997E+02  0.10682630194E+03 -0.87225246192E+01  0.20951714470E+03  0.17300000000E+03 0.  1.
<mgrwt>
<rscale>  2 0.20933550E+03</rscale>
<asrwt>0</asrwt>
<pdfrwt beam="1">  1       21 0.36083051E-01 0.20933550E+03</pdfrwt>
<pdfrwt beam="2">  1       21 0.29352188E-01 0.20933550E+03</pdfrwt>
<totfact> 0.81772684E+04</totfact>
</mgrwt>
</event>
<event>
 4    1  0.3883260E+000  0.2180549E+03  0.7546771E-02  0.1135342E+00
         21   -1    0    0  503  502  0.00000000000E+00  0.00000000000E+00  0.43998118812E+02  0.43998118812E+02  0.00000000000E+00 0. -1.
         21   -1    0    0  501  503 -0.00000000000E+00 -0.00000000000E+00 -0.11031056829E+04  0.11031056829E+04  0.00000000000E+00 0. -1.
          6    1    1    2  501    0  0.13193381954E+03  0.14574238994E+02 -0.61132963551E+03  0.64905459280E+03  0.17300000000E+03 0. -1.
         -6    1    1    2    0  502 -0.13193381954E+03 -0.14574238994E+02 -0.44777792859E+03  0.49804920892E+03  0.17300000000E+03 0. -1.
<mgrwt>
<rscale>  2 0.21805490E+03</rscale>
<asrwt>0</asrwt>
<pdfrwt beam="1">  1       21 0.67689407E-02 0.21805490E+03</pdfrwt>
<pdfrwt beam="2">  1       21 0.16970858E+00 0.21805490E+03</pdfrwt>
<totfact> 0.33821241E+04</totfact>
</mgrwt>
</event>
<event>
 4    1  0.3883260E+000  0.1982573E+03  0.7546771E-02  0.1151218E+00
         21   -1    0    0  501  502  0.00000000000E+00  0.00000000000E+00  0.30191741420E+02  0.30191741420E+02  0.00000000000E+00 0.  1.
         21   -1    0    0  502  503 -0.00000000000E+00 -0.00000000000E+00 -0.16020222079E+04  0.16020222079E+04  0.00000000000E+00 0.  1.
          6    1    1    2  501    0  0.50044768641E+02 -0.82900410889E+02 -0.43266864728E+03  0.47592868724E+03  0.17300000000E+03 0. -1.
         -6    1    1    2    0  503 -0.50044768641E+02  0.82900410889E+02 -0.11391618192E+04  0.11562852621E+04  0.17300000000E+03 0. -1.
<mgrwt>
<rscale>  2 0.19825730E+03</rscale>
<asrwt>0</asrwt>
<pdfrwt beam="1">  1       21 0.46448825E-02 0.19825730E+03</pdfrwt>
<pdfrwt beam="2">  1       21 0.24646500E+00 0.19825730E+03</pdfrwt>
<totfact> 0.21154753E+04</totfact>
</mgrwt>
</event>
<event>
 4    1  0.3883260E+000  0.1744536E+03  0.7546771E-02  0.1173281E+00
         21   -1    0    0  503  502  0.00000000000E+00  0.00000000000E+00  0.43486247133E+03  0.43486247133E+03  0.00000000000E+00 0.  1.
         21   -1    0    0  501  503 -0.00000000000E+00 -0.00000000000E+00 -0.12703653298E+03  0.12703653298E+03  0.00000000000E+00 0.  1.
          6    1    1    2  501    0 -0.71405222719E+01  0.21309057790E+02 -0.34363370248E+02  0.17780580479E+03  0.17300000000E+03 0.  1.
         -6    1    1    2    0  502  0.71405222719E+01 -0.21309057790E+02  0.34218930860E+03  0.38409319952E+03  0.17300000000E+03 0.  1.
<mgrwt>
<rscale>  2 0.17445361E+03</rscale>
<asrwt>0</asrwt>
<pdfrwt beam="1">  1       21 0.66901918E-01 0.17445361E+03</pdfrwt>
<pdfrwt beam="2">  1       21 0.19544082E-01 0.17445361E+03</pdfrwt>
<totfact> 0.49754076E+04</totfact>
</mgrwt>
</event>
<event>
 4    1  0.3883260E+000  0.2190807E+03  0.7546771E-02  0.1134570E+00
         21   -1    0    0  503  502  0.00000000000E+00  0.00000000000E+00  0.16587667399E+03  0.16587667399E+03  0.00000000000E+00 0. -1.
         21   -1    0    0  501  503 -0.00000000000E+00 -0.00000000000E+00 -0.45891968447E+03  0.45891968447E+03  0.00000000000E+00 0. -1.
          6    1    1    2  501    0 -0.12469288051E+03 -0.50189986629E+02 -0.33641704733E+03  0.40146329713E+03  0.17300000000E+03 0. -1.
         -6    1    1    2    0  502  0.12469288051E+03  0.50189986629E+02  0.43374036851E+02  0.22333306133E+03  0.17300000000E+03 0. -1.
<mgrwt>
<rscale>  2 0.21908069E+03</rscale>
<asrwt>0</asrwt>
<pdfrwt beam="1">  1       21 0.25519488E-01 0.21908069E+03</pdfrwt>
<pdfrwt beam="2">  1       21 0.70603029E-01 0.21908069E+03</pdfrwt>
<totfact> 0.26091101E+04</totfact>
</mgrwt>
</event>
<event>
 4    1  0.3883260E+000  0.1741265E+03  0.7546771E-02  0.1173612E+00
         21   -1    0    0  503  502  0.00000000000E+00  0.00000000000E+00  0.12149966295E+03  0.12149966295E+03  0.00000000000E+00 0.  1.
         21   -1    0    0  501  503 -0.00000000000E+00 -0.00000000000E+00 -0.28260194920E+03  0.28260194920E+03  0.00000000000E+00 0.  1.
          6    1    1    2  501    0  0.18632838034E+02 -0.66211640009E+01 -0.14965198838E+03  0.22959908556E+03  0.17300000000E+03 0. -1.
         -6    1    1    2    0  502 -0.18632838034E+02  0.66211640009E+01 -0.11450297873E+02  0.17450252659E+03  0.17300000000E+03 0. -1.
<mgrwt>
<rscale>  2 0.17412646E+03</rscale>
<asrwt>0</asrwt>
<pdfrwt beam="1">  1       21 0.18692256E-01 0.17412646E+03</pdfrwt>
<pdfrwt beam="2">  1       21 0.43477223E-01 0.17412646E+03</pdfrwt>
<totfact> 0.13397201E+05</totfact>
</mgrwt>
</event>
<event>
 4    1  0.3883260E+000  0.4993111E+03  0.7546771E-02  0.1013959E+00
         21   -1    0    0  503  502  0.00000000000E+00  0.00000000000E+00  0.60299709578E+03  0.60299709578E+03  0.00000000000E+00 0. -1.
         21   -1    0    0  501  503 -0.00000000000E+00 -0.00000000000E+00 -0.50237523503E+03  0.50237523503E+03  0.00000000000E+00 0.  1.
          6    1    1    2  501    0  0.25598992962E+03 -0.39223937006E+03 -0.18221275630E+03  0.53151957260E+03  0.17300000000E+03 0.  1.
         -6    1    1    2    0  502 -0.25598992962E+03  0.39223937006E+03  0.28283461705E+03  0.57385275820E+03  0.17300000000E+03 0. -1.
<mgrwt>
<rscale>  2 0.49931109E+03</rscale>
<asrwt>0</asrwt>
<pdfrwt beam="1">  1       21 0.92768784E-01 0.49931109E+03</pdfrwt>
<pdfrwt beam="2">  1       21 0.77288498E-01 0.49931109E+03</pdfrwt>
<totfact> 0.12205244E+03</totfact>
</mgrwt>
</event>
<event>
 4    1  0.3883260E+000  0.2416437E+03  0.7546771E-02  0.1118703E+00
         21   -1    0    0  503  502  0.00000000000E+00  0.00000000000E+00  0.72311940522E+02  0.72311940522E+02  0.00000000000E+00 0.  1.
         21   -1    0    0  501  503 -0.00000000000E+00 -0.00000000000E+00 -0.83479180681E+03  0.83479180681E+03  0.00000000000E+00 0.  1.
          6    1    1    2  501    0  0.73418674272E+02  0.15189595093E+03 -0.46325188765E+03  0.52248827073E+03  0.17300000000E+03 0.  1.
         -6    1    1    2    0  502 -0.73418674272E+02 -0.15189595093E+03 -0.29922797864E+03  0.38461547660E+03  0.17300000000E+03 0.  1.
<mgrwt>
<rscale>  2 0.24164371E+03</rscale>
<asrwt>0</asrwt>
<pdfrwt beam="1">  1       21 0.11124914E-01 0.24164371E+03</pdfrwt>
<pdfrwt beam="2">  1       21 0.12842951E+00 0.24164371E+03</pdfrwt>
<totfact> 0.29129784E+04</totfact>
</mgrwt>
</event>
<event>
 4    1  0.3883260E+000  0.1775916E+03  0.7546771E-02  0.1170155E+00
         21   -1    0    0  503  502  0.00000000000E+00  0.00000000000E+00  0.25960881809E+03  0.25960881809E+03  0.00000000000E+00 0. -1.
         21   -1    0    0  501  503 -0.00000000000E+00 -0.00000000000E+00 -0.12221867513E+03  0.12221867513E+03  0.00000000000E+00 0. -1.
          6    1    1    2  501    0 -0.40084141286E+02  0.17381491374E+01  0.53910375321E+02  0.18559387951E+03  0.17300000000E+03 0. -1.
         -6    1    1    2    0  502  0.40084141286E+02 -0.17381491374E+01  0.83479767642E+02  0.19623361371E+03  0.17300000000E+03 0. -1.
<mgrwt>
<rscale>  2 0.17759155E+03</rscale>
<asrwt>0</asrwt>
<pdfrwt beam="1">  1       21 0.39939818E-01 0.17759155E+03</pdfrwt>
<pdfrwt beam="2">  1       21 0.18802873E-01 0.17759155E+03</pdfrwt>
<totfact> 0.15720557E+05</totfact>
</mgrwt>
</event>
<event>
 4    1  0.3883260E+000  0.1983535E+03  0.7546771E-02  0.1151136E+00
         21   -1    0    0  503  502  0.00000000000E+00  0.00000000000E+00  0.44541503820E+02  0.44541503820E+02  0.00000000000E+00 0. -1.
         21   -1    0    0  501  503 -0.00000000000E+00 -0.00000000000E+00 -0.11970740673E+04  0.11970740673E+04  0.00000000000E+00 0. -1.
          6    1    1    2  501    0  0.13469932915E+02 -0.96091962154E+02 -0.89409705058E+03  0.91583494154E+03  0.17300000000E+03 0. -1.
         -6    1    1    2    0  502 -0.13469932915E+02  0.96091962154E+02 -0.25843551290E+03  0.32578062958E+03  0.17300000000E+03 0. -1.
<mgrwt>
<rscale>  2 0.19835348E+03</rscale>
<asrwt>0</asrwt>
<pdfrwt beam="1">  1       21 0.68525393E-02 0.19835348E+03</pdfrwt>
<pdfrwt beam="2">  1       21 0.18416524E+00 0.19835348E+03</pdfrwt>
<totfact> 0.26656525E+04</totfact>
</mgrwt>
</event>
<event>
 4    1  0.3883260E+000  0.2103856E+03  0.7546771E-02  0.1141261E+00
         21   -1    0    0  501  502  0.00000000000E+00  0.00000000000E+00  0.35629695407E+03  0.35629695407E+03  0.00000000000E+00 0. -1.
         21   -1    0    0  502  503 -0.00000000000E+00 -0.00000000000E+00 -0.14662468832E+03  0.14662468832E+03  0.00000000000E+00 0.  1.
          6    1    1    2  501    0 -0.11713431573E+03  0.24751473887E+02  0.20311451338E+03  0.29243390523E+03  0.17300000000E+03 0. -1.
         -6    1    1    2    0  503  0.11713431573E+03 -0.24751473887E+02  0.65577523642E+01  0.21048773716E+03  0.17300000000E+03 0.  1.
<mgrwt>
<rscale>  2 0.21038556E+03</rscale>
<asrwt>0</asrwt>
<pdfrwt beam="1">  1       21 0.54814916E-01 0.21038556E+03</pdfrwt>
<pdfrwt beam="2">  1       21 0.22557645E-01 0.21038556E+03</pdfrwt>
<totfact> 0.57364223E+04</totfact>
</mgrwt>
</event>
<event>
 4    1  0.3883260E+000  0.1986444E+03  0.7546771E-02  0.1150888E+00
         21   -1    0    0  503  502  0.00000000000E+00  0.00000000000E+00  0.54125034414E+03  0.54125034414E+03  0.00000000000E+00 0.  1.
         21   -1    0    0  501  503 -0.00000000000E+00 -0.00000000000E+00 -0.94909905418E+02  0.94909905418E+02  0.00000000000E+00 0. -1.
          6    1    1    2  501    0  0.37649906003E+01 -0.97552074980E+02  0.70010166086E+02  0.21062052569E+03  0.17300000000E+03 0. -1.
         -6    1    1    2    0  502 -0.37649906003E+01  0.97552074980E+02  0.37633027264E+03  0.42553972387E+03  0.17300000000E+03 0.  1.
<mgrwt>
<rscale>  2 0.19864436E+03</rscale>
<asrwt>0</asrwt>
<pdfrwt beam="1">  1       21 0.83269282E-01 0.19864436E+03</pdfrwt>
<pdfrwt beam="2">  1       21 0.14601524E-01 0.19864436E+03</pdfrwt>
<totfact> 0.51584515E+04</totfact>
</mgrwt>
</event>
<event>
 4    1  0.3883260E+000  0.2669112E+03  0.7546771E-02  0.1103061E+00
         21   -1    0    0  501  502  0.00000000000E+00  0.00000000000E+00  0.17632143782E+04  0.17632143782E+04  0.00000000000E+00 0. -1.
         21   -1    0    0  502  503 -0.00000000000E+00 -0.00000000000E+00 -0.10193015630E+03  0.10193015630E+03  0.00000000000E+00 0.  1.
          6    1    1    2  501    0 -0.20031316418E+03  0.34455890378E+02  0.15551777047E+04  0.15779161147E+04  0.17300000000E+03 0. -1.
         -6    1    1    2    0  503  0.20031316418E+03 -0.34455890378E+02  0.10610651727E+03  0.28722841978E+03  0.17300000000E+03 0.  1.
<mgrwt>
<rscale>  2 0.26691117E+03</rscale>
<asrwt>0</asrwt>
<pdfrwt beam="1">  1       21 0.27126373E+00 0.26691117E+03</pdfrwt>
<pdfrwt beam="2">  1       21 0.15681564E-01 0.26691117E+03</pdfrwt>
<totfact> 0.16739867E+03</totfact>
</mgrwt>
</event>
<event>
 4    1  0.3883260E+000  0.1835394E+03  0.7546771E-02  0.1164421E+00
         21   -1    0    0  501  502  0.00000000000E+00  0.00000000000E+00  0.21499548763E+03  0.21499548763E+03  0.00000000000E+00 0. -1.
         21   -1    0    0  502  503 -0.00000000000E+00 -0.00000000000E+00 -0.35895454822E+03  0.35895454822E+03  0.00000000000E+00 0. -1.
          6    1    1    2  501    0 -0.61276755309E+02 -0.16963191271E+01  0.14344187930E+03  0.23294267745E+03  0.17300000000E+03 0. -1.
         -6    1    1    2    0  503  0.61276755309E+02  0.16963191271E+01 -0.28740093988E+03  0.34100735840E+03  0.17300000000E+03 0. -1.
<mgrwt>
<rscale>  2 0.18353942E+03</rscale>
<asrwt>0</asrwt>
<pdfrwt beam="1">  1       21 0.33076229E-01 0.18353942E+03</pdfrwt>
<pdfrwt beam="2">  1       21 0.55223776E-01 0.18353942E+03</pdfrwt>
<totfact> 0.27352379E+04</totfact>
</mgrwt>
</event>
<event>
 4    1  0.3883260E+000  0.1959056E+03  0.7546771E-02  0.1153240E+00
         21   -1    0    0  503  502  0.00000000000E+00  0.00000000000E+00  0.34679078449E+02  0.34679078449E+02  0.00000000000E+00 0. -1.
         21   -1    0    0  501  503 -0.00000000000E+00 -0.00000000000E+00 -0.19554481525E+04  0.19554481525E+04  0.00000000000E+00 0. -1.
          6    1    1    2  501    0  0.69219535628E+02  0.60486744513E+02 -0.16159554340E+04  0.16277871345E+04  0.17300000000E+03 0. -1.
         -6    1    1    2    0  502 -0.69219535628E+02 -0.60486744513E+02 -0.30481364002E+03  0.36234009648E+03  0.17300000000E+03 0. -1.
<mgrwt>
<rscale>  2 0.19590556E+03</rscale>
<asrwt>0</asrwt>
<pdfrwt beam="1">  1       21 0.53352423E-02 0.19590556E+03</pdfrwt>
<pdfrwt beam="2">  1       21 0.30083821E+00 0.19590556E+03</pdfrwt>
<totfact> 0.81040695E+03</totfact>
</mgrwt>
</event>
