<event>
 5    1  0.4006808E+001  0.9196579E+02  0.7546771E-02  0.1298160E+00
         -1   -1    0    0    0  501 -0.00000000000E+00  0.00000000000E+00  0.78204911784E+02  0.78204911784E+02  0.00000000000E+00 0.  1.
          1   -1    0    0  501    0  0.00000000000E+00 -0.00000000000E+00 -0.27037005722E+02  0.27037005722E+02  0.00000000000E+00 0. -1.
         23    2    1    2    0    0  0.00000000000E+00  0.00000000000E+00  0.51167906062E+02  0.10524191751E+03  0.91965790321E+02 0.  0.
          2    1    3    3  502    0 -0.44493722527E+02 -0.10177276897E+02  0.31971727689E+02  0.55726651441E+02  0.00000000000E+00 0. -1.
         -2    1    3    3    0  502  0.44493722527E+02  0.10177276897E+02  0.19196178372E+02  0.49515266065E+02  0.00000000000E+00 0.  1.
<mgrwt>
<rscale>  0 0.91965790E+02</rscale>
<asrwt>0</asrwt>
<pdfrwt beam="2">  1        1 0.41595394E-02 0.91965790E+02</pdfrwt>
<pdfrwt beam="1">  1       -1 0.12031525E-01 0.91965790E+02</pdfrwt>
<totfact> 0.83120313E+04</totfact>
</mgrwt>
</event>
<event>
 5    1  0.4006808E+001  0.9112752E+02  0.7546771E-02  0.1300144E+00
          2   -1    0    0  501    0  0.00000000000E+00  0.00000000000E+00  0.41832420480E+03  0.41832420480E+03  0.00000000000E+00 0. -1.
         -2   -1    0    0    0  501 -0.00000000000E+00 -0.00000000000E+00 -0.49627925811E+01  0.49627925811E+01  0.00000000000E+00 0.  1.
         23    2    1    2    0    0  0.00000000000E+00  0.00000000000E+00  0.41336141222E+03  0.42328699738E+03  0.91127520763E+02 0.  0.
          2    1    3    3  502    0  0.32230292656E+02  0.21102167883E+02  0.31969481278E+03  0.32200755670E+03  0.00000000000E+00 0. -1.
         -2    1    3    3    0  502 -0.32230292656E+02 -0.21102167883E+02  0.93666599440E+02  0.10127944068E+03  0.00000000000E+00 0.  1.
<mgrwt>
<rscale>  0 0.91127521E+02</rscale>
<asrwt>0</asrwt>
<pdfrwt beam="1">  1        2 0.64357542E-01 0.91127521E+02</pdfrwt>
<pdfrwt beam="2">  1       -2 0.76350688E-03 0.91127521E+02</pdfrwt>
<totfact> 0.20311666E+05</totfact>
</mgrwt>
</event>
<event>
 5    1  0.4006808E+001  0.9075662E+02  0.7546771E-02  0.1301030E+00
          3   -1    0    0  501    0  0.00000000000E+00  0.00000000000E+00  0.37640399984E+01  0.37640399984E+01  0.00000000000E+00 0. -1.
         -3   -1    0    0    0  501 -0.00000000000E+00 -0.00000000000E+00 -0.54706939920E+03  0.54706939920E+03  0.00000000000E+00 0.  1.
         23    2    1    2    0    0  0.00000000000E+00  0.00000000000E+00 -0.54330535920E+03  0.55083343920E+03  0.90756621808E+02 0.  0.
          2    1    3    3  502    0  0.18430508611E+02 -0.11675489259E+02 -0.30157453897E+02  0.37221938728E+02  0.00000000000E+00 0. -1.
         -2    1    3    3    0  502 -0.18430508611E+02  0.11675489259E+02 -0.51314790530E+03  0.51361150047E+03  0.00000000000E+00 0.  1.
<mgrwt>
<rscale>  0 0.90756622E+02</rscale>
<asrwt>0</asrwt>
<pdfrwt beam="1">  1        3 0.57908355E-03 0.90756622E+02</pdfrwt>
<pdfrwt beam="2">  1       -3 0.84164454E-01 0.90756622E+02</pdfrwt>
<totfact> 0.16928710E+04</totfact>
</mgrwt>
</event>
<event>
 5    1  0.4006808E+001  0.9181658E+02  0.7546771E-02  0.1298511E+00
         -1   -1    0    0    0  501 -0.00000000000E+00  0.00000000000E+00  0.11119834630E+03  0.11119834630E+03  0.00000000000E+00 0.  1.
          1   -1    0    0  501    0  0.00000000000E+00 -0.00000000000E+00 -0.18953258915E+02  0.18953258915E+02  0.00000000000E+00 0. -1.
         23    2    1    2    0    0  0.00000000000E+00  0.00000000000E+00  0.92245087384E+02  0.13015160521E+03  0.91816579075E+02 0.  0.
          2    1    3    3  502    0  0.16281851299E+02 -0.20076357987E+02 -0.76574829800E+01  0.26959152015E+02  0.00000000000E+00 0. -1.
         -2    1    3    3    0  502 -0.16281851299E+02  0.20076357987E+02  0.99902570364E+02  0.10319245320E+03  0.00000000000E+00 0.  1.
<mgrwt>
<rscale>  0 0.91816579E+02</rscale>
<asrwt>0</asrwt>
<pdfrwt beam="2">  1        1 0.29158861E-02 0.91816579E+02</pdfrwt>
<pdfrwt beam="1">  1       -1 0.17107437E-01 0.91816579E+02</pdfrwt>
<totfact> 0.78310402E+04</totfact>
</mgrwt>
</event>
<event>
 5    1  0.4006808E+001  0.9930293E+02  0.7546771E-02  0.1281769E+00
         -1   -1    0    0    0  501 -0.00000000000E+00  0.00000000000E+00  0.40740013419E+01  0.40740013419E+01  0.00000000000E+00 0.  1.
          1   -1    0    0  501    0  0.00000000000E+00 -0.00000000000E+00 -0.60512200166E+03  0.60512200166E+03  0.00000000000E+00 0. -1.
         23    2    1    2    0    0  0.00000000000E+00  0.00000000000E+00 -0.60104800032E+03  0.60919600300E+03  0.99302927385E+02 0.  0.
          2    1    3    3  502    0  0.41078317122E+02  0.17091481937E+02 -0.16532035092E+03  0.17120270244E+03  0.00000000000E+00 0.  1.
         -2    1    3    3    0  502 -0.41078317122E+02 -0.17091481937E+02 -0.43572764940E+03  0.43799330057E+03  0.00000000000E+00 0. -1.
<mgrwt>
<rscale>  0 0.99302927E+02</rscale>
<asrwt>0</asrwt>
<pdfrwt beam="2">  1        1 0.93095637E-01 0.99302927E+02</pdfrwt>
<pdfrwt beam="1">  1       -1 0.62676981E-03 0.99302927E+02</pdfrwt>
<totfact> 0.11289747E+05</totfact>
</mgrwt>
</event>
<event>
 5    1  0.4006808E+001  0.9036630E+02  0.7546771E-02  0.1301967E+00
         -4   -1    0    0    0  501 -0.00000000000E+00  0.00000000000E+00  0.72623363809E+03  0.72623363809E+03  0.00000000000E+00 0. -1.
          4   -1    0    0  501    0  0.00000000000E+00 -0.00000000000E+00 -0.28111023013E+01  0.28111023013E+01  0.00000000000E+00 0.  1.
         23    2    1    2    0    0  0.00000000000E+00  0.00000000000E+00  0.72342253579E+03  0.72904474039E+03  0.90366300164E+02 0.  0.
          2    1    3    3  502    0 -0.19000421391E+02 -0.30978270594E+02  0.57831676050E+03  0.57945745722E+03  0.00000000000E+00 0. -1.
         -2    1    3    3    0  502  0.19000421391E+02  0.30978270594E+02  0.14510577529E+03  0.14958728316E+03  0.00000000000E+00 0.  1.
<mgrwt>
<rscale>  0 0.90366300E+02</rscale>
<asrwt>0</asrwt>
<pdfrwt beam="2">  1        4 0.43247785E-03 0.90366300E+02</pdfrwt>
<pdfrwt beam="1">  1       -4 0.11172810E+00 0.90366300E+02</pdfrwt>
<totfact> 0.99209155E+03</totfact>
</mgrwt>
</event>
<event>
 5    1  0.4006808E+001  0.9635027E+02  0.7546771E-02  0.1288164E+00
          4   -1    0    0  501    0  0.00000000000E+00  0.00000000000E+00  0.53233654906E+01  0.53233654906E+01  0.00000000000E+00 0. -1.
         -4   -1    0    0    0  501 -0.00000000000E+00 -0.00000000000E+00 -0.43597297214E+03  0.43597297214E+03  0.00000000000E+00 0.  1.
         23    2    1    2    0    0  0.00000000000E+00  0.00000000000E+00 -0.43064960665E+03  0.44129633763E+03  0.96350266730E+02 0.  0.
          2    1    3    3  502    0  0.25166239492E+02 -0.24848203477E+02 -0.65500030515E+02  0.74438073750E+02  0.00000000000E+00 0. -1.
         -2    1    3    3    0  502 -0.25166239492E+02  0.24848203477E+02 -0.36514957614E+03  0.36685826388E+03  0.00000000000E+00 0.  1.
<mgrwt>
<rscale>  0 0.96350267E+02</rscale>
<asrwt>0</asrwt>
<pdfrwt beam="1">  1        4 0.81897899E-03 0.96350267E+02</pdfrwt>
<pdfrwt beam="2">  1       -4 0.67072791E-01 0.96350267E+02</pdfrwt>
<totfact> 0.12292081E+04</totfact>
</mgrwt>
</event>
<event>
 5    1  0.4006808E+001  0.9093378E+02  0.7546771E-02  0.1300606E+00
          1   -1    0    0  501    0  0.00000000000E+00  0.00000000000E+00  0.71043888553E+03  0.71043888553E+03  0.00000000000E+00 0. -1.
         -1   -1    0    0    0  501 -0.00000000000E+00 -0.00000000000E+00 -0.29098043487E+01  0.29098043487E+01  0.00000000000E+00 0.  1.
         23    2    1    2    0    0  0.00000000000E+00  0.00000000000E+00  0.70752908118E+03  0.71334868987E+03  0.90933781591E+02 0.  0.
          2    1    3    3  502    0 -0.11562330673E+02 -0.43883355015E+02  0.33185291508E+03  0.33494147785E+03  0.00000000000E+00 0. -1.
         -2    1    3    3    0  502  0.11562330673E+02  0.43883355015E+02  0.37567616609E+03  0.37840721202E+03  0.00000000000E+00 0.  1.
<mgrwt>
<rscale>  0 0.90933782E+02</rscale>
<asrwt>0</asrwt>
<pdfrwt beam="1">  1        1 0.10929815E+00 0.90933782E+02</pdfrwt>
<pdfrwt beam="2">  1       -1 0.44766277E-03 0.90933782E+02</pdfrwt>
<totfact> 0.14315498E+05</totfact>
</mgrwt>
</event>
<event>
 5    1  0.4006808E+001  0.9045976E+02  0.7546771E-02  0.1301742E+00
          1   -1    0    0  501    0  0.00000000000E+00  0.00000000000E+00  0.43631667588E+02  0.43631667588E+02  0.00000000000E+00 0. -1.
         -1   -1    0    0    0  501 -0.00000000000E+00 -0.00000000000E+00 -0.46886634929E+02  0.46886634929E+02  0.00000000000E+00 0.  1.
         23    2    1    2    0    0  0.00000000000E+00  0.00000000000E+00 -0.32549673411E+01  0.90518302517E+02  0.90459760547E+02 0.  0.
          2    1    3    3  502    0  0.22449584894E+02 -0.29239505614E+02  0.24596527435E+02  0.44316156336E+02  0.00000000000E+00 0. -1.
         -2    1    3    3    0  502 -0.22449584894E+02  0.29239505614E+02 -0.27851494776E+02  0.46202146181E+02  0.00000000000E+00 0.  1.
<mgrwt>
<rscale>  0 0.90459761E+02</rscale>
<asrwt>0</asrwt>
<pdfrwt beam="1">  1        1 0.67125643E-02 0.90459761E+02</pdfrwt>
<pdfrwt beam="2">  1       -1 0.72133284E-02 0.90459761E+02</pdfrwt>
<totfact> 0.93923963E+04</totfact>
</mgrwt>
</event>
<event>
 5    1  0.4006808E+001  0.9203262E+02  0.7546771E-02  0.1298003E+00
          2   -1    0    0  501    0  0.00000000000E+00  0.00000000000E+00  0.17902703217E+04  0.17902703217E+04  0.00000000000E+00 0. -1.
         -2   -1    0    0    0  501 -0.00000000000E+00 -0.00000000000E+00 -0.11827826905E+01  0.11827826905E+01  0.00000000000E+00 0.  1.
         23    2    1    2    0    0  0.00000000000E+00  0.00000000000E+00  0.17890875390E+04  0.17914531044E+04  0.92032619172E+02 0.  0.
          2    1    3    3  502    0  0.20687572719E+01  0.34212083905E+02  0.14922157890E+04  0.14926093620E+04  0.00000000000E+00 0. -1.
         -2    1    3    3    0  502 -0.20687572719E+01 -0.34212083905E+02  0.29687175001E+03  0.29884374244E+03  0.00000000000E+00 0.  1.
<mgrwt>
<rscale>  0 0.92032619E+02</rscale>
<asrwt>0</asrwt>
<pdfrwt beam="1">  1        2 0.27542404E+00 0.92032619E+02</pdfrwt>
<pdfrwt beam="2">  1       -2 0.18196800E-03 0.92032619E+02</pdfrwt>
<totfact> 0.20989380E+05</totfact>
</mgrwt>
</event>
<event>
 5    1  0.4006808E+001  0.9051001E+02  0.7546771E-02  0.1301621E+00
         -2   -1    0    0    0  501 -0.00000000000E+00  0.00000000000E+00  0.19620042783E+02  0.19620042783E+02  0.00000000000E+00 0.  1.
          2   -1    0    0  501    0  0.00000000000E+00 -0.00000000000E+00 -0.10438384029E+03  0.10438384029E+03  0.00000000000E+00 0. -1.
         23    2    1    2    0    0  0.00000000000E+00  0.00000000000E+00 -0.84763797508E+02  0.12400388307E+03  0.90510008560E+02 0.  0.
          2    1    3    3  502    0 -0.42482276723E+01 -0.45044604036E+02 -0.43718404239E+02  0.62915520028E+02  0.00000000000E+00 0. -1.
         -2    1    3    3    0  502  0.42482276723E+01  0.45044604036E+02 -0.41045393269E+02  0.61088363047E+02  0.00000000000E+00 0.  1.
<mgrwt>
<rscale>  0 0.90510009E+02</rscale>
<asrwt>0</asrwt>
<pdfrwt beam="2">  1        2 0.16059052E-01 0.90510009E+02</pdfrwt>
<pdfrwt beam="1">  1       -2 0.30184681E-02 0.90510009E+02</pdfrwt>
<totfact> 0.12682963E+05</totfact>
</mgrwt>
</event>
<event>
 5    1  0.4006808E+001  0.8605735E+02  0.7546771E-02  0.1312690E+00
         -1   -1    0    0    0  501 -0.00000000000E+00  0.00000000000E+00  0.14316699599E+02  0.14316699599E+02  0.00000000000E+00 0. -1.
          1   -1    0    0  501    0  0.00000000000E+00 -0.00000000000E+00 -0.12932219032E+03  0.12932219032E+03  0.00000000000E+00 0.  1.
         23    2    1    2    0    0  0.00000000000E+00  0.00000000000E+00 -0.11500549072E+03  0.14363888991E+03  0.86057351812E+02 0.  0.
          2    1    3    3  502    0 -0.17617518535E+00  0.42330845961E+02 -0.70381434893E+02  0.82130858604E+02  0.00000000000E+00 0.  1.
         -2    1    3    3    0  502  0.17617518535E+00 -0.42330845961E+02 -0.44624055824E+02  0.61508031310E+02  0.00000000000E+00 0. -1.
<mgrwt>
<rscale>  0 0.86057352E+02</rscale>
<asrwt>0</asrwt>
<pdfrwt beam="2">  1        1 0.19895721E-01 0.86057352E+02</pdfrwt>
<pdfrwt beam="1">  1       -1 0.22025692E-02 0.86057352E+02</pdfrwt>
<totfact> 0.12756733E+05</totfact>
</mgrwt>
</event>
<event>
 5    1  0.4006808E+001  0.9054402E+02  0.7546771E-02  0.1301540E+00
         -1   -1    0    0    0  501 -0.00000000000E+00  0.00000000000E+00  0.14412035647E+02  0.14412035647E+02  0.00000000000E+00 0.  1.
          1   -1    0    0  501    0  0.00000000000E+00 -0.00000000000E+00 -0.14221132613E+03  0.14221132613E+03  0.00000000000E+00 0. -1.
         23    2    1    2    0    0  0.00000000000E+00  0.00000000000E+00 -0.12779929049E+03  0.15662336178E+03  0.90544015851E+02 0.  0.
          2    1    3    3  502    0  0.43219389473E+01  0.32445128696E+02 -0.11800100914E+03  0.12245653796E+03  0.00000000000E+00 0. -1.
         -2    1    3    3    0  502 -0.43219389473E+01 -0.32445128696E+02 -0.97982813502E+01  0.34166823818E+02  0.00000000000E+00 0.  1.
<mgrwt>
<rscale>  0 0.90544016E+02</rscale>
<asrwt>0</asrwt>
<pdfrwt beam="2">  1        1 0.21878666E-01 0.90544016E+02</pdfrwt>
<pdfrwt beam="1">  1       -1 0.22172362E-02 0.90544016E+02</pdfrwt>
<totfact> 0.11315205E+05</totfact>
</mgrwt>
</event>
<event>
 5    1  0.4006808E+001  0.9076088E+02  0.7546771E-02  0.1301020E+00
          1   -1    0    0  501    0  0.00000000000E+00  0.00000000000E+00  0.11812303383E+04  0.11812303383E+04  0.00000000000E+00 0. -1.
         -1   -1    0    0    0  501 -0.00000000000E+00 -0.00000000000E+00 -0.17434232145E+01  0.17434232145E+01  0.00000000000E+00 0.  1.
         23    2    1    2    0    0  0.00000000000E+00  0.00000000000E+00  0.11794869151E+04  0.11829737616E+04  0.90760881299E+02 0.  0.
          2    1    3    3  502    0  0.40659426666E+02 -0.14122908707E+02  0.77715117581E+03  0.77834220982E+03  0.00000000000E+00 0. -1.
         -2    1    3    3    0  502 -0.40659426666E+02  0.14122908707E+02  0.40233573933E+03  0.40463155174E+03  0.00000000000E+00 0.  1.
<mgrwt>
<rscale>  0 0.90760881E+02</rscale>
<asrwt>0</asrwt>
<pdfrwt beam="1">  1        1 0.18172710E+00 0.90760881E+02</pdfrwt>
<pdfrwt beam="2">  1       -1 0.26821990E-03 0.90760881E+02</pdfrwt>
<totfact> 0.12978881E+05</totfact>
</mgrwt>
</event>
<event>
 5    1  0.4006808E+001  0.8990326E+02  0.7546771E-02  0.1303086E+00
         -2   -1    0    0    0  501 -0.00000000000E+00  0.00000000000E+00  0.98599471854E+00  0.98599471854E+00  0.00000000000E+00 0. -1.
          2   -1    0    0  501    0  0.00000000000E+00 -0.00000000000E+00 -0.20493506904E+04  0.20493506904E+04  0.00000000000E+00 0.  1.
         23    2    1    2    0    0  0.00000000000E+00  0.00000000000E+00 -0.20483646957E+04  0.20503366851E+04  0.89903258165E+02 0.  0.
          2    1    3    3  502    0  0.40195219689E+02  0.55712909718E+01 -0.58316178847E+03  0.58457195152E+03  0.00000000000E+00 0. -1.
         -2    1    3    3    0  502 -0.40195219689E+02 -0.55712909718E+01 -0.14652029072E+04  0.14657647336E+04  0.00000000000E+00 0.  1.
<mgrwt>
<rscale>  0 0.89903258E+02</rscale>
<asrwt>0</asrwt>
<pdfrwt beam="2">  1        2 0.31528520E+00 0.89903258E+02</pdfrwt>
<pdfrwt beam="1">  1       -2 0.15169127E-03 0.89903258E+02</pdfrwt>
<totfact> 0.19952008E+05</totfact>
</mgrwt>
</event>
<event>
 5    1  0.4006808E+001  0.9089544E+02  0.7546771E-02  0.1300698E+00
         -2   -1    0    0    0  501 -0.00000000000E+00  0.00000000000E+00  0.23011356733E+01  0.23011356733E+01  0.00000000000E+00 0. -1.
          2   -1    0    0  501    0  0.00000000000E+00 -0.00000000000E+00 -0.89759829536E+03  0.89759829536E+03  0.00000000000E+00 0.  1.
         23    2    1    2    0    0  0.00000000000E+00  0.00000000000E+00 -0.89529715968E+03  0.89989943103E+03  0.90895444500E+02 0.  0.
          2    1    3    3  502    0  0.33258443771E+02 -0.92597551873E+01 -0.74027612821E+03  0.74108070623E+03  0.00000000000E+00 0. -1.
         -2    1    3    3    0  502 -0.33258443771E+02  0.92597551873E+01 -0.15502103148E+03  0.15881872481E+03  0.00000000000E+00 0.  1.
<mgrwt>
<rscale>  0 0.90895444E+02</rscale>
<asrwt>0</asrwt>
<pdfrwt beam="2">  1        2 0.13809196E+00 0.90895444E+02</pdfrwt>
<pdfrwt beam="1">  1       -2 0.35402108E-03 0.90895444E+02</pdfrwt>
<totfact> 0.24989251E+05</totfact>
</mgrwt>
</event>
<event>
 5    1  0.4006808E+001  0.9155475E+02  0.7546771E-02  0.1299130E+00
          2   -1    0    0  501    0  0.00000000000E+00  0.00000000000E+00  0.64127569545E+02  0.64127569545E+02  0.00000000000E+00 0.  1.
         -2   -1    0    0    0  501 -0.00000000000E+00 -0.00000000000E+00 -0.32678113570E+02  0.32678113570E+02  0.00000000000E+00 0. -1.
         23    2    1    2    0    0  0.00000000000E+00  0.00000000000E+00  0.31449455976E+02  0.96805683115E+02  0.91554748660E+02 0.  0.
          2    1    3    3  502    0  0.42969055415E+02  0.14316836784E+02  0.86906314543E+01  0.46117660542E+02  0.00000000000E+00 0.  1.
         -2    1    3    3    0  502 -0.42969055415E+02 -0.14316836784E+02  0.22758824521E+02  0.50688022573E+02  0.00000000000E+00 0. -1.
<mgrwt>
<rscale>  0 0.91554749E+02</rscale>
<asrwt>0</asrwt>
<pdfrwt beam="1">  1        2 0.98657799E-02 0.91554749E+02</pdfrwt>
<pdfrwt beam="2">  1       -2 0.50274021E-02 0.91554749E+02</pdfrwt>
<totfact> 0.10674222E+05</totfact>
</mgrwt>
</event>
<event>
 5    1  0.4006808E+001  0.9004332E+02  0.7546771E-02  0.1302747E+00
         -3   -1    0    0    0  501 -0.00000000000E+00  0.00000000000E+00  0.96456475087E+02  0.96456475087E+02  0.00000000000E+00 0.  1.
          3   -1    0    0  501    0  0.00000000000E+00 -0.00000000000E+00 -0.21014139791E+02  0.21014139791E+02  0.00000000000E+00 0. -1.
         23    2    1    2    0    0  0.00000000000E+00  0.00000000000E+00  0.75442335297E+02  0.11747061488E+03  0.90043319601E+02 0.  0.
          2    1    3    3  502    0 -0.17538149968E+02  0.27332463568E+02 -0.29585372637E+01  0.32609863719E+02  0.00000000000E+00 0. -1.
         -2    1    3    3    0  502  0.17538149968E+02 -0.27332463568E+02  0.78400872560E+02  0.84860751159E+02  0.00000000000E+00 0.  1.
<mgrwt>
<rscale>  0 0.90043320E+02</rscale>
<asrwt>0</asrwt>
<pdfrwt beam="2">  1        3 0.32329446E-02 0.90043320E+02</pdfrwt>
<pdfrwt beam="1">  1       -3 0.14839457E-01 0.90043320E+02</pdfrwt>
<totfact> 0.34574857E+04</totfact>
</mgrwt>
</event>
<event>
 5    1  0.4006808E+001  0.8156451E+02  0.7546771E-02  0.1324669E+00
          3   -1    0    0  501    0  0.00000000000E+00  0.00000000000E+00  0.37259183030E+01  0.37259183030E+01  0.00000000000E+00 0. -1.
         -3   -1    0    0    0  501 -0.00000000000E+00 -0.00000000000E+00 -0.44638450906E+03  0.44638450906E+03  0.00000000000E+00 0.  1.
         23    2    1    2    0    0  0.00000000000E+00  0.00000000000E+00 -0.44265859076E+03  0.45011042736E+03  0.81564507293E+02 0.  0.
          2    1    3    3  502    0 -0.16115644648E+02  0.33112293599E+02 -0.12462953585E+03  0.12995637420E+03  0.00000000000E+00 0. -1.
         -2    1    3    3    0  502  0.16115644648E+02 -0.33112293599E+02 -0.31802905491E+03  0.32015405316E+03  0.00000000000E+00 0.  1.
<mgrwt>
<rscale>  0 0.81564507E+02</rscale>
<asrwt>0</asrwt>
<pdfrwt beam="1">  1        3 0.57321823E-03 0.81564507E+02</pdfrwt>
<pdfrwt beam="2">  1       -3 0.68674537E-01 0.81564507E+02</pdfrwt>
<totfact> 0.25756484E+04</totfact>
</mgrwt>
</event>
<event>
 5    1  0.4006808E+001  0.9144363E+02  0.7546771E-02  0.1299393E+00
          2   -1    0    0  501    0  0.00000000000E+00  0.00000000000E+00  0.13354565887E+03  0.13354565887E+03  0.00000000000E+00 0.  1.
         -2   -1    0    0    0  501 -0.00000000000E+00 -0.00000000000E+00 -0.15653704363E+02  0.15653704363E+02  0.00000000000E+00 0. -1.
         23    2    1    2    0    0  0.00000000000E+00  0.00000000000E+00  0.11789195451E+03  0.14919936323E+03  0.91443627727E+02 0.  0.
          2    1    3    3  502    0  0.25425081434E+02 -0.19301601736E+02  0.55376301323E+01  0.32398332411E+02  0.00000000000E+00 0. -1.
         -2    1    3    3    0  502 -0.25425081434E+02  0.19301601736E+02  0.11235432438E+03  0.11680103082E+03  0.00000000000E+00 0.  1.
<mgrwt>
<rscale>  0 0.91443628E+02</rscale>
<asrwt>0</asrwt>
<pdfrwt beam="1">  1        2 0.20545485E-01 0.91443628E+02</pdfrwt>
<pdfrwt beam="2">  1       -2 0.24082623E-02 0.91443628E+02</pdfrwt>
<totfact> 0.13339961E+05</totfact>
</mgrwt>
</event>
<event>
 5    1  0.4006808E+001  0.8180006E+02  0.7546771E-02  0.1324019E+00
         -2   -1    0    0    0  501 -0.00000000000E+00  0.00000000000E+00  0.53869262750E+01  0.53869262750E+01  0.00000000000E+00 0.  1.
          2   -1    0    0  501    0  0.00000000000E+00 -0.00000000000E+00 -0.31053189911E+03  0.31053189911E+03  0.00000000000E+00 0. -1.
         23    2    1    2    0    0  0.00000000000E+00  0.00000000000E+00 -0.30514497284E+03  0.31591882539E+03  0.81800059818E+02 0.  0.
          2    1    3    3  502    0 -0.33581291481E+02  0.91587732670E+01 -0.69629654264E+02  0.77845199070E+02  0.00000000000E+00 0.  1.
         -2    1    3    3    0  502  0.33581291481E+02 -0.91587732670E+01 -0.23551531858E+03  0.23807362632E+03  0.00000000000E+00 0. -1.
<mgrwt>
<rscale>  0 0.81800060E+02</rscale>
<asrwt>0</asrwt>
<pdfrwt beam="2">  1        2 0.47774160E-01 0.81800060E+02</pdfrwt>
<pdfrwt beam="1">  1       -2 0.82875752E-03 0.81800060E+02</pdfrwt>
<totfact> 0.24260325E+05</totfact>
</mgrwt>
</event>
<event>
 5    1  0.4006808E+001  0.9342037E+02  0.7546771E-02  0.1294774E+00
          2   -1    0    0  501    0  0.00000000000E+00  0.00000000000E+00  0.97824966547E+01  0.97824966547E+01  0.00000000000E+00 0.  1.
         -2   -1    0    0    0  501 -0.00000000000E+00 -0.00000000000E+00 -0.22303525003E+03  0.22303525003E+03  0.00000000000E+00 0. -1.
         23    2    1    2    0    0  0.00000000000E+00  0.00000000000E+00 -0.21325275337E+03  0.23281774668E+03  0.93420374379E+02 0.  0.
          2    1    3    3  502    0  0.42865970658E+02 -0.17885902491E+02 -0.11894795358E+03  0.12769499837E+03  0.00000000000E+00 0. -1.
         -2    1    3    3    0  502 -0.42865970658E+02  0.17885902491E+02 -0.94304799794E+02  0.10512274831E+03  0.00000000000E+00 0.  1.
<mgrwt>
<rscale>  0 0.93420374E+02</rscale>
<asrwt>0</asrwt>
<pdfrwt beam="1">  1        2 0.15049996E-02 0.93420374E+02</pdfrwt>
<pdfrwt beam="2">  1       -2 0.34313112E-01 0.93420374E+02</pdfrwt>
<totfact> 0.55762647E+04</totfact>
</mgrwt>
</event>
<event>
 5    1  0.4006808E+001  0.9025230E+02  0.7546771E-02  0.1302242E+00
          1   -1    0    0  501    0  0.00000000000E+00  0.00000000000E+00  0.16296589494E+01  0.16296589494E+01  0.00000000000E+00 0. -1.
         -1   -1    0    0    0  501 -0.00000000000E+00 -0.00000000000E+00 -0.12495678250E+04  0.12495678250E+04  0.00000000000E+00 0.  1.
         23    2    1    2    0    0  0.00000000000E+00  0.00000000000E+00 -0.12479381660E+04  0.12511974839E+04  0.90252299448E+02 0.  0.
          2    1    3    3  502    0  0.38883445128E+02  0.12084433601E+02 -0.35428772575E+03  0.35661989353E+03  0.00000000000E+00 0. -1.
         -2    1    3    3    0  502 -0.38883445128E+02 -0.12084433601E+02 -0.89365044029E+03  0.89457759041E+03  0.00000000000E+00 0.  1.
<mgrwt>
<rscale>  0 0.90252299E+02</rscale>
<asrwt>0</asrwt>
<pdfrwt beam="1">  1        1 0.25071582E-03 0.90252299E+02</pdfrwt>
<pdfrwt beam="2">  1       -1 0.19224192E+00 0.90252299E+02</pdfrwt>
<totfact> 0.19419422E+04</totfact>
</mgrwt>
</event>
<event>
 5    1  0.4006808E+001  0.8719897E+02  0.7546771E-02  0.1309780E+00
         -2   -1    0    0    0  501 -0.00000000000E+00  0.00000000000E+00  0.22226825752E+01  0.22226825752E+01  0.00000000000E+00 0. -1.
          2   -1    0    0  501    0  0.00000000000E+00 -0.00000000000E+00 -0.85523470329E+03  0.85523470329E+03  0.00000000000E+00 0.  1.
         23    2    1    2    0    0  0.00000000000E+00  0.00000000000E+00 -0.85301202071E+03  0.85745738586E+03  0.87198974139E+02 0.  0.
          2    1    3    3  502    0  0.64302412904E+01 -0.42821413439E+02 -0.37646809145E+03  0.37895018846E+03  0.00000000000E+00 0. -1.
         -2    1    3    3    0  502 -0.64302412904E+01  0.42821413439E+02 -0.47654392926E+03  0.47850719740E+03  0.00000000000E+00 0.  1.
<mgrwt>
<rscale>  0 0.87198974E+02</rscale>
<asrwt>0</asrwt>
<pdfrwt beam="2">  1        2 0.13157453E+00 0.87198974E+02</pdfrwt>
<pdfrwt beam="1">  1       -2 0.34195127E-03 0.87198974E+02</pdfrwt>
<totfact> 0.27698139E+05</totfact>
</mgrwt>
</event>
<event>
 5    1  0.4006808E+001  0.9150330E+02  0.7546771E-02  0.1299252E+00
          1   -1    0    0  501    0  0.00000000000E+00  0.00000000000E+00  0.50412932619E+02  0.50412932619E+02  0.00000000000E+00 0. -1.
         -1   -1    0    0    0  501 -0.00000000000E+00 -0.00000000000E+00 -0.41521355656E+02  0.41521355656E+02  0.00000000000E+00 0.  1.
         23    2    1    2    0    0  0.00000000000E+00  0.00000000000E+00  0.88915769631E+01  0.91934288274E+02  0.91503296223E+02 0.  0.
          2    1    3    3  502    0 -0.27255835477E+02  0.15334446660E+02  0.37997503353E+02  0.49212153813E+02  0.00000000000E+00 0. -1.
         -2    1    3    3    0  502  0.27255835477E+02 -0.15334446660E+02 -0.29105926390E+02  0.42722134461E+02  0.00000000000E+00 0.  1.
<mgrwt>
<rscale>  0 0.91503296E+02</rscale>
<asrwt>0</asrwt>
<pdfrwt beam="1">  1        1 0.77558358E-02 0.91503296E+02</pdfrwt>
<pdfrwt beam="2">  1       -1 0.63879009E-02 0.91503296E+02</pdfrwt>
<totfact> 0.92945627E+04</totfact>
</mgrwt>
</event>
<event>
 5    1  0.4006808E+001  0.9079760E+02  0.7546771E-02  0.1300932E+00
         -2   -1    0    0    0  501 -0.00000000000E+00  0.00000000000E+00  0.26828700892E+01  0.26828700892E+01  0.00000000000E+00 0.  1.
          2   -1    0    0  501    0  0.00000000000E+00 -0.00000000000E+00 -0.76822617780E+03  0.76822617780E+03  0.00000000000E+00 0. -1.
         23    2    1    2    0    0  0.00000000000E+00  0.00000000000E+00 -0.76554330771E+03  0.77090904789E+03  0.90797599840E+02 0.  0.
          2    1    3    3  502    0  0.33251380374E+02  0.18582165676E+02 -0.59248652876E+03  0.59370972532E+03  0.00000000000E+00 0. -1.
         -2    1    3    3    0  502 -0.33251380374E+02 -0.18582165676E+02 -0.17305677895E+03  0.17719932257E+03  0.00000000000E+00 0.  1.
<mgrwt>
<rscale>  0 0.90797600E+02</rscale>
<asrwt>0</asrwt>
<pdfrwt beam="2">  1        2 0.11818863E+00 0.90797600E+02</pdfrwt>
<pdfrwt beam="1">  1       -2 0.41274928E-03 0.90797600E+02</pdfrwt>
<totfact> 0.24458899E+05</totfact>
</mgrwt>
</event>
<event>
 5    1  0.4006808E+001  0.9036608E+02  0.7546771E-02  0.1301968E+00
         -1   -1    0    0    0  501 -0.00000000000E+00  0.00000000000E+00  0.28910284117E+02  0.28910284117E+02  0.00000000000E+00 0.  1.
          1   -1    0    0  501    0  0.00000000000E+00 -0.00000000000E+00 -0.70615248506E+02  0.70615248506E+02  0.00000000000E+00 0. -1.
         23    2    1    2    0    0  0.00000000000E+00  0.00000000000E+00 -0.41704964389E+02  0.99525532623E+02  0.90366075434E+02 0.  0.
          2    1    3    3  502    0  0.19192563889E+02  0.37020794383E+02 -0.40011489494E+02  0.57791115380E+02  0.00000000000E+00 0. -1.
         -2    1    3    3    0  502 -0.19192563889E+02 -0.37020794383E+02 -0.16934748958E+01  0.41734417243E+02  0.00000000000E+00 0.  1.
<mgrwt>
<rscale>  0 0.90366075E+02</rscale>
<asrwt>0</asrwt>
<pdfrwt beam="2">  1        1 0.10863884E-01 0.90366075E+02</pdfrwt>
<pdfrwt beam="1">  1       -1 0.44477361E-02 0.90366075E+02</pdfrwt>
<totfact> 0.10126043E+05</totfact>
</mgrwt>
</event>
<event>
 5    1  0.4006808E+001  0.9308413E+02  0.7546771E-02  0.1295550E+00
         -2   -1    0    0    0  501 -0.00000000000E+00  0.00000000000E+00  0.25486272199E+01  0.25486272199E+01  0.00000000000E+00 0.  1.
          2   -1    0    0  501    0  0.00000000000E+00 -0.00000000000E+00 -0.84993353250E+03  0.84993353250E+03  0.00000000000E+00 0. -1.
         23    2    1    2    0    0  0.00000000000E+00  0.00000000000E+00 -0.84738490528E+03  0.85248215972E+03  0.93084128315E+02 0.  0.
          2    1    3    3  502    0  0.32942591689E+01 -0.46405533265E+02 -0.43610872609E+03  0.43858311257E+03  0.00000000000E+00 0. -1.
         -2    1    3    3    0  502 -0.32942591689E+01  0.46405533265E+02 -0.41127617919E+03  0.41389904715E+03  0.00000000000E+00 0.  1.
<mgrwt>
<rscale>  0 0.93084128E+02</rscale>
<asrwt>0</asrwt>
<pdfrwt beam="2">  1        2 0.13075909E+00 0.93084128E+02</pdfrwt>
<pdfrwt beam="1">  1       -2 0.39209623E-03 0.93084128E+02</pdfrwt>
<totfact> 0.23304070E+05</totfact>
</mgrwt>
</event>
<event>
 5    1  0.4006808E+001  0.9016075E+02  0.7546771E-02  0.1302463E+00
         -2   -1    0    0    0  501 -0.00000000000E+00  0.00000000000E+00  0.39802539669E+01  0.39802539669E+01  0.00000000000E+00 0.  1.
          2   -1    0    0  501    0  0.00000000000E+00 -0.00000000000E+00 -0.51058050866E+03  0.51058050866E+03  0.00000000000E+00 0. -1.
         23    2    1    2    0    0  0.00000000000E+00  0.00000000000E+00 -0.50660025469E+03  0.51456076262E+03  0.90160747446E+02 0.  0.
          2    1    3    3  502    0  0.13090157374E+02  0.17233172411E+02 -0.27603828918E+02  0.35075715564E+02  0.00000000000E+00 0.  1.
         -2    1    3    3    0  502 -0.13090157374E+02 -0.17233172411E+02 -0.47899642577E+03  0.47948504706E+03  0.00000000000E+00 0. -1.
<mgrwt>
<rscale>  0 0.90160747E+02</rscale>
<asrwt>0</asrwt>
<pdfrwt beam="2">  1        2 0.78550825E-01 0.90160747E+02</pdfrwt>
<pdfrwt beam="1">  1       -2 0.61234694E-03 0.90160747E+02</pdfrwt>
<totfact> 0.22348271E+05</totfact>
</mgrwt>
</event>
<event>
 5    1  0.4006808E+001  0.9054258E+02  0.7546771E-02  0.1301543E+00
          2   -1    0    0  501    0  0.00000000000E+00  0.00000000000E+00  0.22160548004E+03  0.22160548004E+03  0.00000000000E+00 0. -1.
         -2   -1    0    0    0  501 -0.00000000000E+00 -0.00000000000E+00 -0.92483700634E+01  0.92483700634E+01  0.00000000000E+00 0.  1.
         23    2    1    2    0    0  0.00000000000E+00  0.00000000000E+00  0.21235710998E+03  0.23085385011E+03  0.90542575345E+02 0.  0.
          2    1    3    3  502    0  0.22993103281E+02 -0.23541743499E+02  0.18544805193E+03  0.18834509936E+03  0.00000000000E+00 0. -1.
         -2    1    3    3    0  502 -0.22993103281E+02  0.23541743499E+02  0.26909058047E+02  0.42508750751E+02  0.00000000000E+00 0.  1.
<mgrwt>
<rscale>  0 0.90542575E+02</rscale>
<asrwt>0</asrwt>
<pdfrwt beam="1">  1        2 0.34093147E-01 0.90542575E+02</pdfrwt>
<pdfrwt beam="2">  1       -2 0.14228263E-02 0.90542575E+02</pdfrwt>
<totfact> 0.16360350E+05</totfact>
</mgrwt>
</event>
<event>
 5    1  0.4006808E+001  0.9125314E+02  0.7546771E-02  0.1299845E+00
          1   -1    0    0  501    0  0.00000000000E+00  0.00000000000E+00  0.69911563954E+02  0.69911563954E+02  0.00000000000E+00 0. -1.
         -1   -1    0    0    0  501 -0.00000000000E+00 -0.00000000000E+00 -0.29777387917E+02  0.29777387917E+02  0.00000000000E+00 0.  1.
         23    2    1    2    0    0  0.00000000000E+00  0.00000000000E+00  0.40134176037E+02  0.99688951871E+02  0.91253137146E+02 0.  0.
          2    1    3    3  502    0  0.67439552840E+01  0.19307741385E+02  0.64623729678E+02  0.67782713488E+02  0.00000000000E+00 0. -1.
         -2    1    3    3    0  502 -0.67439552840E+01 -0.19307741385E+02 -0.24489553641E+02  0.31906238384E+02  0.00000000000E+00 0.  1.
<mgrwt>
<rscale>  0 0.91253137E+02</rscale>
<asrwt>0</asrwt>
<pdfrwt beam="1">  1        1 0.10755625E-01 0.91253137E+02</pdfrwt>
<pdfrwt beam="2">  1       -1 0.45811366E-02 0.91253137E+02</pdfrwt>
<totfact> 0.98420161E+04</totfact>
</mgrwt>
</event>
<event>
 5    1  0.4006808E+001  0.9101010E+02  0.7546771E-02  0.1300424E+00
         -1   -1    0    0    0  501 -0.00000000000E+00  0.00000000000E+00  0.38489234615E+03  0.38489234615E+03  0.00000000000E+00 0.  1.
          1   -1    0    0  501    0  0.00000000000E+00 -0.00000000000E+00 -0.53799712198E+01  0.53799712198E+01  0.00000000000E+00 0. -1.
         23    2    1    2    0    0  0.00000000000E+00  0.00000000000E+00  0.37951237493E+03  0.39027231737E+03  0.91010103725E+02 0.  0.
          2    1    3    3  502    0 -0.43742679686E+00  0.30574743679E+02  0.45241958297E+02  0.54606236675E+02  0.00000000000E+00 0. -1.
         -2    1    3    3    0  502  0.43742679686E+00 -0.30574743679E+02  0.33427041663E+03  0.33566608069E+03  0.00000000000E+00 0.  1.
<mgrwt>
<rscale>  0 0.91010104E+02</rscale>
<asrwt>0</asrwt>
<pdfrwt beam="2">  1        1 0.82768818E-03 0.91010104E+02</pdfrwt>
<pdfrwt beam="1">  1       -1 0.59214185E-01 0.91010104E+02</pdfrwt>
<totfact> 0.54579921E+04</totfact>
</mgrwt>
</event>
<event>
 5    1  0.4006808E+001  0.9571495E+02  0.7546771E-02  0.1289574E+00
          2   -1    0    0  501    0  0.00000000000E+00  0.00000000000E+00  0.81934209487E+01  0.81934209487E+01  0.00000000000E+00 0. -1.
         -2   -1    0    0    0  501 -0.00000000000E+00 -0.00000000000E+00 -0.27953379048E+03  0.27953379048E+03  0.00000000000E+00 0.  1.
         23    2    1    2    0    0  0.00000000000E+00  0.00000000000E+00 -0.27134036953E+03  0.28772721143E+03  0.95714952118E+02 0.  0.
          2    1    3    3  502    0 -0.20846145962E+02  0.12489164313E+02 -0.11733556195E+02  0.26985502917E+02  0.00000000000E+00 0. -1.
         -2    1    3    3    0  502  0.20846145962E+02 -0.12489164313E+02 -0.25960681333E+03  0.26074170851E+03  0.00000000000E+00 0.  1.
<mgrwt>
<rscale>  0 0.95714952E+02</rscale>
<asrwt>0</asrwt>
<pdfrwt beam="1">  1        2 0.12605265E-02 0.95714952E+02</pdfrwt>
<pdfrwt beam="2">  1       -2 0.43005192E-01 0.95714952E+02</pdfrwt>
<totfact> 0.46783969E+04</totfact>
</mgrwt>
</event>
<event>
 5    1  0.4006808E+001  0.9102809E+02  0.7546771E-02  0.1300381E+00
          2   -1    0    0  501    0  0.00000000000E+00  0.00000000000E+00  0.12036860073E+04  0.12036860073E+04  0.00000000000E+00 0. -1.
         -2   -1    0    0    0  501 -0.00000000000E+00 -0.00000000000E+00 -0.17209873149E+01  0.17209873149E+01  0.00000000000E+00 0.  1.
         23    2    1    2    0    0  0.00000000000E+00  0.00000000000E+00  0.12019650200E+04  0.12054069946E+04  0.91028091263E+02 0.  0.
          2    1    3    3  502    0  0.31765134340E+02  0.25984045742E+02  0.34036652055E+03  0.34283168276E+03  0.00000000000E+00 0.  1.
         -2    1    3    3    0  502 -0.31765134340E+02 -0.25984045742E+02  0.86159849946E+03  0.86257531188E+03  0.00000000000E+00 0. -1.
<mgrwt>
<rscale>  0 0.91028091E+02</rscale>
<asrwt>0</asrwt>
<pdfrwt beam="1">  1        2 0.18518179E+00 0.91028091E+02</pdfrwt>
<pdfrwt beam="2">  1       -2 0.26476824E-03 0.91028091E+02</pdfrwt>
<totfact> 0.24967015E+05</totfact>
</mgrwt>
</event>
<event>
 5    1  0.4006808E+001  0.8468901E+02  0.7546771E-02  0.1316248E+00
         -2   -1    0    0    0  501 -0.00000000000E+00  0.00000000000E+00  0.42355025550E+01  0.42355025550E+01  0.00000000000E+00 0.  1.
          2   -1    0    0  501    0  0.00000000000E+00 -0.00000000000E+00 -0.42333990033E+03  0.42333990033E+03  0.00000000000E+00 0. -1.
         23    2    1    2    0    0  0.00000000000E+00  0.00000000000E+00 -0.41910439778E+03  0.42757540289E+03  0.84689012970E+02 0.  0.
          2    1    3    3  502    0 -0.41801051062E+02 -0.65836473594E+01 -0.20175524418E+03  0.20614521784E+03  0.00000000000E+00 0. -1.
         -2    1    3    3    0  502  0.41801051062E+02  0.65836473594E+01 -0.21734915359E+03  0.22143018505E+03  0.00000000000E+00 0.  1.
<mgrwt>
<rscale>  0 0.84689013E+02</rscale>
<asrwt>0</asrwt>
<pdfrwt beam="2">  1        2 0.65129216E-01 0.84689013E+02</pdfrwt>
<pdfrwt beam="1">  1       -2 0.65161577E-03 0.84689013E+02</pdfrwt>
<totfact> 0.24752449E+05</totfact>
</mgrwt>
</event>
<event>
 5    1  0.4006808E+001  0.1061157E+03  0.7546771E-02  0.1267937E+00
         -1   -1    0    0    0  501 -0.00000000000E+00  0.00000000000E+00  0.66891115581E+01  0.66891115581E+01  0.00000000000E+00 0.  1.
          1   -1    0    0  501    0  0.00000000000E+00 -0.00000000000E+00 -0.42085306773E+03  0.42085306773E+03  0.00000000000E+00 0. -1.
         23    2    1    2    0    0  0.00000000000E+00  0.00000000000E+00 -0.41416395617E+03  0.42754217928E+03  0.10611565614E+03 0.  0.
          2    1    3    3  502    0 -0.47865949654E+02 -0.44648493021E+01 -0.29753767549E+03  0.30139633766E+03  0.00000000000E+00 0. -1.
         -2    1    3    3    0  502  0.47865949654E+02  0.44648493021E+01 -0.11662628067E+03  0.12614584162E+03  0.00000000000E+00 0.  1.
<mgrwt>
<rscale>  0 0.10611566E+03</rscale>
<asrwt>0</asrwt>
<pdfrwt beam="2">  1        1 0.64746620E-01 0.10611566E+03</pdfrwt>
<pdfrwt beam="1">  1       -1 0.10290942E-02 0.10611566E+03</pdfrwt>
<totfact> 0.90628504E+04</totfact>
</mgrwt>
</event>
<event>
 5    1  0.4006808E+001  0.9130105E+02  0.7546771E-02  0.1299731E+00
         -2   -1    0    0    0  501 -0.00000000000E+00  0.00000000000E+00  0.94443585655E+02  0.94443585655E+02  0.00000000000E+00 0.  1.
          2   -1    0    0  501    0  0.00000000000E+00 -0.00000000000E+00 -0.22065770679E+02  0.22065770679E+02  0.00000000000E+00 0. -1.
         23    2    1    2    0    0  0.00000000000E+00  0.00000000000E+00  0.72377814976E+02  0.11650935633E+03  0.91301051543E+02 0.  0.
          2    1    3    3  502    0 -0.33127792411E+02 -0.21531470945E+01 -0.37977476967E+01  0.33414211946E+02  0.00000000000E+00 0.  1.
         -2    1    3    3    0  502  0.33127792411E+02  0.21531470945E+01  0.76175562673E+02  0.83095144388E+02  0.00000000000E+00 0. -1.
<mgrwt>
<rscale>  0 0.91301052E+02</rscale>
<asrwt>0</asrwt>
<pdfrwt beam="2">  1        2 0.33947340E-02 0.91301052E+02</pdfrwt>
<pdfrwt beam="1">  1       -2 0.14529782E-01 0.91301052E+02</pdfrwt>
<totfact> 0.80890210E+04</totfact>
</mgrwt>
</event>
<event>
 5    1  0.4006808E+001  0.9131670E+02  0.7546771E-02  0.1299694E+00
          1   -1    0    0  501    0  0.00000000000E+00  0.00000000000E+00  0.66398172089E+03  0.66398172089E+03  0.00000000000E+00 0. -1.
         -1   -1    0    0    0  501 -0.00000000000E+00 -0.00000000000E+00 -0.31396722329E+01  0.31396722329E+01  0.00000000000E+00 0.  1.
         23    2    1    2    0    0  0.00000000000E+00  0.00000000000E+00  0.66084204865E+03  0.66712139312E+03  0.91316701040E+02 0.  0.
          2    1    3    3  502    0  0.67686514991E+01  0.19090995973E+02  0.62936155890E+03  0.62968742452E+03  0.00000000000E+00 0. -1.
         -2    1    3    3    0  502 -0.67686514991E+01 -0.19090995973E+02  0.31480489751E+02  0.37433968602E+02  0.00000000000E+00 0.  1.
<mgrwt>
<rscale>  0 0.91316701E+02</rscale>
<asrwt>0</asrwt>
<pdfrwt beam="1">  1        1 0.10215092E+00 0.91316701E+02</pdfrwt>
<pdfrwt beam="2">  1       -1 0.48302703E-03 0.91316701E+02</pdfrwt>
<totfact> 0.14157107E+05</totfact>
</mgrwt>
</event>
<event>
 5    1  0.4006808E+001  0.8999410E+02  0.7546771E-02  0.1302866E+00
          1   -1    0    0  501    0  0.00000000000E+00  0.00000000000E+00  0.17790619717E+04  0.17790619717E+04  0.00000000000E+00 0. -1.
         -1   -1    0    0    0  501 -0.00000000000E+00 -0.00000000000E+00 -0.11380909597E+01  0.11380909597E+01  0.00000000000E+00 0.  1.
         23    2    1    2    0    0  0.00000000000E+00  0.00000000000E+00  0.17779238807E+04  0.17802000627E+04  0.89994096401E+02 0.  0.
          2    1    3    3  502    0 -0.37195403936E+02  0.14025932672E+02  0.13060188374E+04  0.13066236752E+04  0.00000000000E+00 0. -1.
         -2    1    3    3    0  502  0.37195403936E+02 -0.14025932672E+02  0.47190504331E+03  0.47357638747E+03  0.00000000000E+00 0.  1.
<mgrwt>
<rscale>  0 0.89994096E+02</rscale>
<asrwt>0</asrwt>
<pdfrwt beam="1">  1        1 0.27369962E+00 0.89994096E+02</pdfrwt>
<pdfrwt beam="2">  1       -1 0.17509234E-03 0.89994096E+02</pdfrwt>
<totfact> 0.96566431E+04</totfact>
</mgrwt>
</event>
<event>
 5    1  0.4006808E+001  0.9190872E+02  0.7546771E-02  0.1298294E+00
         -1   -1    0    0    0  501 -0.00000000000E+00  0.00000000000E+00  0.15277946329E+02  0.15277946329E+02  0.00000000000E+00 0.  1.
          1   -1    0    0  501    0  0.00000000000E+00 -0.00000000000E+00 -0.13822560169E+03  0.13822560169E+03  0.00000000000E+00 0. -1.
         23    2    1    2    0    0  0.00000000000E+00  0.00000000000E+00 -0.12294765536E+03  0.15350354802E+03  0.91908722631E+02 0.  0.
          2    1    3    3  502    0  0.26977589105E+02  0.37189085282E+02 -0.63131382384E+02  0.78079381528E+02  0.00000000000E+00 0. -1.
         -2    1    3    3    0  502 -0.26977589105E+02 -0.37189085282E+02 -0.59816272980E+02  0.75424166493E+02  0.00000000000E+00 0.  1.
<mgrwt>
<rscale>  0 0.91908723E+02</rscale>
<asrwt>0</asrwt>
<pdfrwt beam="2">  1        1 0.21265477E-01 0.91908723E+02</pdfrwt>
<pdfrwt beam="1">  1       -1 0.23504533E-02 0.91908723E+02</pdfrwt>
<totfact> 0.10811019E+05</totfact>
</mgrwt>
</event>
<event>
 5    1  0.4006808E+001  0.9112156E+02  0.7546771E-02  0.1300158E+00
          4   -1    0    0  501    0  0.00000000000E+00  0.00000000000E+00  0.86829637725E+02  0.86829637725E+02  0.00000000000E+00 0.  1.
         -4   -1    0    0    0  501 -0.00000000000E+00 -0.00000000000E+00 -0.23906407188E+02  0.23906407188E+02  0.00000000000E+00 0. -1.
         23    2    1    2    0    0  0.00000000000E+00  0.00000000000E+00  0.62923230537E+02  0.11073604491E+03  0.91121560026E+02 0.  0.
          2    1    3    3  502    0  0.76177278488E+01  0.18535896813E+02 -0.18262646408E+02  0.27113345461E+02  0.00000000000E+00 0. -1.
         -2    1    3    3    0  502 -0.76177278488E+01 -0.18535896813E+02  0.81185876945E+02  0.83622699452E+02  0.00000000000E+00 0.  1.
<mgrwt>
<rscale>  0 0.91121560E+02</rscale>
<asrwt>0</asrwt>
<pdfrwt beam="1">  1        4 0.13358406E-01 0.91121560E+02</pdfrwt>
<pdfrwt beam="2">  1       -4 0.36779088E-02 0.91121560E+02</pdfrwt>
<totfact> 0.25851592E+04</totfact>
</mgrwt>
</event>
<event>
 5    1  0.4006808E+001  0.9128027E+02  0.7546771E-02  0.1299781E+00
          2   -1    0    0  501    0  0.00000000000E+00  0.00000000000E+00  0.23416587680E+04  0.23416587680E+04  0.00000000000E+00 0.  1.
         -2   -1    0    0    0  501 -0.00000000000E+00 -0.00000000000E+00 -0.88954963524E+00  0.88954963524E+00  0.00000000000E+00 0. -1.
         23    2    1    2    0    0  0.00000000000E+00  0.00000000000E+00  0.23407692184E+04  0.23425483177E+04  0.91280265183E+02 0.  0.
          2    1    3    3  502    0  0.22081753639E+02 -0.32396562831E+02  0.57078618211E+03  0.57213110982E+03  0.00000000000E+00 0. -1.
         -2    1    3    3    0  502 -0.22081753639E+02  0.32396562831E+02  0.17699830363E+04  0.17704172079E+04  0.00000000000E+00 0.  1.
<mgrwt>
<rscale>  0 0.91280265E+02</rscale>
<asrwt>0</asrwt>
<pdfrwt beam="1">  1        2 0.36025026E+00 0.91280265E+02</pdfrwt>
<pdfrwt beam="2">  1       -2 0.13685566E-03 0.91280265E+02</pdfrwt>
<totfact> 0.16357777E+05</totfact>
</mgrwt>
</event>
<event>
 5    1  0.4006808E+001  0.9046743E+02  0.7546771E-02  0.1301724E+00
         -2   -1    0    0    0  501 -0.00000000000E+00  0.00000000000E+00  0.12186744446E+02  0.12186744446E+02  0.00000000000E+00 0.  1.
          2   -1    0    0  501    0  0.00000000000E+00 -0.00000000000E+00 -0.16789463208E+03  0.16789463208E+03  0.00000000000E+00 0. -1.
         23    2    1    2    0    0  0.00000000000E+00  0.00000000000E+00 -0.15570788763E+03  0.18008137652E+03  0.90467430052E+02 0.  0.
          2    1    3    3  502    0  0.78777458842E+01 -0.44223103448E+02 -0.88452135176E+02  0.99204445344E+02  0.00000000000E+00 0. -1.
         -2    1    3    3    0  502 -0.78777458842E+01  0.44223103448E+02 -0.67255752456E+02  0.80876931181E+02  0.00000000000E+00 0.  1.
<mgrwt>
<rscale>  0 0.90467430E+02</rscale>
<asrwt>0</asrwt>
<pdfrwt beam="2">  1        2 0.25829942E-01 0.90467430E+02</pdfrwt>
<pdfrwt beam="1">  1       -2 0.18748838E-02 0.90467430E+02</pdfrwt>
<totfact> 0.14844503E+05</totfact>
</mgrwt>
</event>
<event>
 5    1  0.4006808E+001  0.8510135E+02  0.7546771E-02  0.1315168E+00
          1   -1    0    0  501    0  0.00000000000E+00  0.00000000000E+00  0.62497390362E+01  0.62497390362E+01  0.00000000000E+00 0. -1.
         -1   -1    0    0    0  501 -0.00000000000E+00 -0.00000000000E+00 -0.28970167858E+03  0.28970167858E+03  0.00000000000E+00 0.  1.
         23    2    1    2    0    0  0.00000000000E+00  0.00000000000E+00 -0.28345193954E+03  0.29595141761E+03  0.85101348742E+02 0.  0.
          2    1    3    3  502    0  0.37298098677E+02 -0.13804223441E+02 -0.89116452517E+02  0.97588149172E+02  0.00000000000E+00 0. -1.
         -2    1    3    3    0  502 -0.37298098677E+02  0.13804223441E+02 -0.19433548702E+03  0.19836326844E+03  0.00000000000E+00 0.  1.
<mgrwt>
<rscale>  0 0.85101349E+02</rscale>
<asrwt>0</asrwt>
<pdfrwt beam="1">  1        1 0.96149810E-03 0.85101349E+02</pdfrwt>
<pdfrwt beam="2">  1       -1 0.44569499E-01 0.85101349E+02</pdfrwt>
<totfact> 0.73508377E+04</totfact>
</mgrwt>
</event>
<event>
 5    1  0.4006808E+001  0.9251836E+02  0.7546771E-02  0.1296865E+00
          1   -1    0    0  501    0  0.00000000000E+00  0.00000000000E+00  0.16933086147E+01  0.16933086147E+01  0.00000000000E+00 0. -1.
         -1   -1    0    0    0  501 -0.00000000000E+00 -0.00000000000E+00 -0.12637458624E+04  0.12637458624E+04  0.00000000000E+00 0.  1.
         23    2    1    2    0    0  0.00000000000E+00  0.00000000000E+00 -0.12620525538E+04  0.12654391710E+04  0.92518360461E+02 0.  0.
          2    1    3    3  502    0  0.89863646404E+01  0.30220204813E+02 -0.16802094690E+03  0.17095336828E+03  0.00000000000E+00 0. -1.
         -2    1    3    3    0  502 -0.89863646404E+01 -0.30220204813E+02 -0.10940316069E+04  0.10944858028E+04  0.00000000000E+00 0.  1.
<mgrwt>
<rscale>  0 0.92518360E+02</rscale>
<asrwt>0</asrwt>
<pdfrwt beam="1">  1        1 0.26050893E-03 0.92518360E+02</pdfrwt>
<pdfrwt beam="2">  1       -1 0.19442250E+00 0.92518360E+02</pdfrwt>
<totfact> 0.17874205E+04</totfact>
</mgrwt>
</event>
<event>
 5    1  0.4006808E+001  0.9275384E+02  0.7546771E-02  0.1296317E+00
         -1   -1    0    0    0  501 -0.00000000000E+00  0.00000000000E+00  0.33692967777E+01  0.33692967777E+01  0.00000000000E+00 0.  1.
          1   -1    0    0  501    0  0.00000000000E+00 -0.00000000000E+00 -0.63835838337E+03  0.63835838337E+03  0.00000000000E+00 0. -1.
         23    2    1    2    0    0  0.00000000000E+00  0.00000000000E+00 -0.63498908659E+03  0.64172768014E+03  0.92753842919E+02 0.  0.
          2    1    3    3  502    0 -0.27464622723E+02  0.35851348906E+02 -0.39045033588E+03  0.39305354534E+03  0.00000000000E+00 0. -1.
         -2    1    3    3    0  502  0.27464622723E+02 -0.35851348906E+02 -0.24453875071E+03  0.24867413480E+03  0.00000000000E+00 0.  1.
<mgrwt>
<rscale>  0 0.92753843E+02</rscale>
<asrwt>0</asrwt>
<pdfrwt beam="2">  1        1 0.98208880E-01 0.92753843E+02</pdfrwt>
<pdfrwt beam="1">  1       -1 0.51835389E-03 0.92753843E+02</pdfrwt>
<totfact> 0.13569811E+05</totfact>
</mgrwt>
</event>
<event>
 5    1  0.4006808E+001  0.9105769E+02  0.7546771E-02  0.1300310E+00
         -1   -1    0    0    0  501 -0.00000000000E+00  0.00000000000E+00  0.41923177652E+01  0.41923177652E+01  0.00000000000E+00 0.  1.
          1   -1    0    0  501    0  0.00000000000E+00 -0.00000000000E+00 -0.49444624384E+03  0.49444624384E+03  0.00000000000E+00 0. -1.
         23    2    1    2    0    0  0.00000000000E+00  0.00000000000E+00 -0.49025392607E+03  0.49863856160E+03  0.91057690987E+02 0.  0.
          2    1    3    3  502    0  0.26673505173E+02 -0.23513364010E+02 -0.89417487158E+02  0.96228068540E+02  0.00000000000E+00 0.  1.
         -2    1    3    3    0  502 -0.26673505173E+02  0.23513364010E+02 -0.40083643891E+03  0.40241049306E+03  0.00000000000E+00 0. -1.
<mgrwt>
<rscale>  0 0.91057691E+02</rscale>
<asrwt>0</asrwt>
<pdfrwt beam="2">  1        1 0.76068621E-01 0.91057691E+02</pdfrwt>
<pdfrwt beam="1">  1       -1 0.64497224E-03 0.91057691E+02</pdfrwt>
<totfact> 0.13956233E+05</totfact>
</mgrwt>
</event>
<event>
 5    1  0.4006808E+001  0.9083440E+02  0.7546771E-02  0.1300844E+00
         -4   -1    0    0    0  501 -0.00000000000E+00  0.00000000000E+00  0.94615412106E+02  0.94615412106E+02  0.00000000000E+00 0. -1.
          4   -1    0    0  501    0  0.00000000000E+00 -0.00000000000E+00 -0.21801121210E+02  0.21801121210E+02  0.00000000000E+00 0.  1.
         23    2    1    2    0    0  0.00000000000E+00  0.00000000000E+00  0.72814290896E+02  0.11641653332E+03  0.90834400261E+02 0.  0.
          2    1    3    3  502    0  0.99655756564E+01 -0.35090291410E+02  0.71084329492E+02  0.79897579117E+02  0.00000000000E+00 0. -1.
         -2    1    3    3    0  502 -0.99655756564E+01  0.35090291410E+02  0.17299614041E+01  0.36518954200E+02  0.00000000000E+00 0.  1.
<mgrwt>
<rscale>  0 0.90834400E+02</rscale>
<asrwt>0</asrwt>
<pdfrwt beam="2">  1        4 0.33540187E-02 0.90834400E+02</pdfrwt>
<pdfrwt beam="1">  1       -4 0.14556217E-01 0.90834400E+02</pdfrwt>
<totfact> 0.25737817E+04</totfact>
</mgrwt>
</event>
<event>
 5    1  0.4006808E+001  0.8744837E+02  0.7546771E-02  0.1309151E+00
         -1   -1    0    0    0  501 -0.00000000000E+00  0.00000000000E+00  0.31871471206E+01  0.31871471206E+01  0.00000000000E+00 0.  1.
          1   -1    0    0  501    0  0.00000000000E+00 -0.00000000000E+00 -0.59984819465E+03  0.59984819465E+03  0.00000000000E+00 0. -1.
         23    2    1    2    0    0  0.00000000000E+00  0.00000000000E+00 -0.59666104753E+03  0.60303534177E+03  0.87448372114E+02 0.  0.
          2    1    3    3  502    0  0.32746751400E+02  0.28830462460E+02 -0.27851257030E+03  0.28190920011E+03  0.00000000000E+00 0. -1.
         -2    1    3    3    0  502 -0.32746751400E+02 -0.28830462460E+02 -0.31814847722E+03  0.32112614165E+03  0.00000000000E+00 0.  1.
<mgrwt>
<rscale>  0 0.87448372E+02</rscale>
<asrwt>0</asrwt>
<pdfrwt beam="2">  1        1 0.92284308E-01 0.87448372E+02</pdfrwt>
<pdfrwt beam="1">  1       -1 0.49033048E-03 0.87448372E+02</pdfrwt>
<totfact> 0.15808941E+05</totfact>
</mgrwt>
</event>
<event>
 5    1  0.4006808E+001  0.9089977E+02  0.7546771E-02  0.1300687E+00
          1   -1    0    0  501    0  0.00000000000E+00  0.00000000000E+00  0.92988414461E+00  0.92988414461E+00  0.00000000000E+00 0. -1.
         -1   -1    0    0    0  501 -0.00000000000E+00 -0.00000000000E+00 -0.22214510273E+04  0.22214510273E+04  0.00000000000E+00 0.  1.
         23    2    1    2    0    0  0.00000000000E+00  0.00000000000E+00 -0.22205211432E+04  0.22223809115E+04  0.90899770921E+02 0.  0.
          2    1    3    3  502    0  0.57490619763E+01  0.31652826513E+02 -0.32533215340E+03  0.32691889388E+03  0.00000000000E+00 0. -1.
         -2    1    3    3    0  502 -0.57490619763E+01 -0.31652826513E+02 -0.18951889898E+04  0.18954620176E+04  0.00000000000E+00 0.  1.
<mgrwt>
<rscale>  0 0.90899771E+02</rscale>
<asrwt>0</asrwt>
<pdfrwt beam="1">  1        1 0.14305825E-03 0.90899771E+02</pdfrwt>
<pdfrwt beam="2">  1       -1 0.34176372E+00 0.90899771E+02</pdfrwt>
<totfact> 0.50084310E+03</totfact>
</mgrwt>
</event>
<event>
 5    1  0.4006808E+001  0.8671416E+02  0.7546771E-02  0.1311010E+00
         -4   -1    0    0    0  501 -0.00000000000E+00  0.00000000000E+00  0.11357345640E+02  0.11357345640E+02  0.00000000000E+00 0.  1.
          4   -1    0    0  501    0  0.00000000000E+00 -0.00000000000E+00 -0.16551724538E+03  0.16551724538E+03  0.00000000000E+00 0. -1.
         23    2    1    2    0    0  0.00000000000E+00  0.00000000000E+00 -0.15415989974E+03  0.17687459102E+03  0.86714164129E+02 0.  0.
          2    1    3    3  502    0  0.21350600126E+00  0.28514073373E+02 -0.10459983100E+02  0.30372836739E+02  0.00000000000E+00 0.  1.
         -2    1    3    3    0  502 -0.21350600126E+00 -0.28514073373E+02 -0.14369991664E+03  0.14650175428E+03  0.00000000000E+00 0. -1.
<mgrwt>
<rscale>  0 0.86714164E+02</rscale>
<asrwt>0</asrwt>
<pdfrwt beam="2">  1        4 0.25464192E-01 0.86714164E+02</pdfrwt>
<pdfrwt beam="1">  1       -4 0.17472839E-02 0.86714164E+02</pdfrwt>
<totfact> 0.25601584E+04</totfact>
</mgrwt>
</event>
<event>
 5    1  0.4006808E+001  0.9157640E+02  0.7546771E-02  0.1299079E+00
         -1   -1    0    0    0  501 -0.00000000000E+00  0.00000000000E+00  0.32353681753E+01  0.32353681753E+01  0.00000000000E+00 0.  1.
          1   -1    0    0  501    0  0.00000000000E+00 -0.00000000000E+00 -0.64801251805E+03  0.64801251805E+03  0.00000000000E+00 0. -1.
         23    2    1    2    0    0  0.00000000000E+00  0.00000000000E+00 -0.64477714987E+03  0.65124788622E+03  0.91576396044E+02 0.  0.
          2    1    3    3  502    0  0.43668323758E+02  0.43244979553E+01 -0.41536624360E+03  0.41767779461E+03  0.00000000000E+00 0. -1.
         -2    1    3    3    0  502 -0.43668323758E+02 -0.43244979553E+01 -0.22941090627E+03  0.23357009162E+03  0.00000000000E+00 0.  1.
<mgrwt>
<rscale>  0 0.91576396E+02</rscale>
<asrwt>0</asrwt>
<pdfrwt beam="2">  1        1 0.99694288E-01 0.91576396E+02</pdfrwt>
<pdfrwt beam="1">  1       -1 0.49774868E-03 0.91576396E+02</pdfrwt>
<totfact> 0.14043561E+05</totfact>
</mgrwt>
</event>
<event>
 5    1  0.4006808E+001  0.9173779E+02  0.7546771E-02  0.1298697E+00
          1   -1    0    0  501    0  0.00000000000E+00  0.00000000000E+00  0.31296005469E+03  0.31296005469E+03  0.00000000000E+00 0. -1.
         -1   -1    0    0    0  501 -0.00000000000E+00 -0.00000000000E+00 -0.67227603076E+01  0.67227603076E+01  0.00000000000E+00 0.  1.
         23    2    1    2    0    0  0.00000000000E+00  0.00000000000E+00  0.30623729438E+03  0.31968281500E+03  0.91737787929E+02 0.  0.
          2    1    3    3  502    0  0.57760168544E+01 -0.27304553856E+02  0.27996789069E+03  0.28135550617E+03  0.00000000000E+00 0. -1.
         -2    1    3    3    0  502 -0.57760168544E+01  0.27304553856E+02  0.26269403691E+02  0.38327308831E+02  0.00000000000E+00 0.  1.
<mgrwt>
<rscale>  0 0.91737788E+02</rscale>
<asrwt>0</asrwt>
<pdfrwt beam="1">  1        1 0.48147689E-01 0.91737788E+02</pdfrwt>
<pdfrwt beam="2">  1       -1 0.10342711E-02 0.91737788E+02</pdfrwt>
<totfact> 0.12705785E+05</totfact>
</mgrwt>
</event>
<event>
 5    1  0.4006808E+001  0.9681692E+02  0.7546771E-02  0.1287136E+00
         -2   -1    0    0    0  501 -0.00000000000E+00  0.00000000000E+00  0.67386624050E+01  0.67386624050E+01  0.00000000000E+00 0.  1.
          2   -1    0    0  501    0  0.00000000000E+00 -0.00000000000E+00 -0.34775138811E+03  0.34775138811E+03  0.00000000000E+00 0. -1.
         23    2    1    2    0    0  0.00000000000E+00  0.00000000000E+00 -0.34101272570E+03  0.35449005051E+03  0.96816924251E+02 0.  0.
          2    1    3    3  502    0 -0.15959486243E+02  0.43332007040E+02 -0.11731936323E+03  0.12608013731E+03  0.00000000000E+00 0.  1.
         -2    1    3    3    0  502  0.15959486243E+02 -0.43332007040E+02 -0.22369336247E+03  0.22840991320E+03  0.00000000000E+00 0. -1.
<mgrwt>
<rscale>  0 0.96816924E+02</rscale>
<asrwt>0</asrwt>
<pdfrwt beam="2">  1        2 0.53500216E-01 0.96816924E+02</pdfrwt>
<pdfrwt beam="1">  1       -2 0.10367173E-02 0.96816924E+02</pdfrwt>
<totfact> 0.16164256E+05</totfact>
</mgrwt>
</event>
<event>
 5    1  0.4006808E+001  0.8973101E+02  0.7546771E-02  0.1303504E+00
          2   -1    0    0  501    0  0.00000000000E+00  0.00000000000E+00  0.12860478418E+02  0.12860478418E+02  0.00000000000E+00 0. -1.
         -2   -1    0    0    0  501 -0.00000000000E+00 -0.00000000000E+00 -0.15651933550E+03  0.15651933550E+03  0.00000000000E+00 0.  1.
         23    2    1    2    0    0  0.00000000000E+00  0.00000000000E+00 -0.14365885708E+03  0.16937981391E+03  0.89731009939E+02 0.  0.
          2    1    3    3  502    0 -0.20000755521E+02 -0.35677276861E+01  0.36798068030E+01  0.20647030788E+02  0.00000000000E+00 0. -1.
         -2    1    3    3    0  502  0.20000755521E+02  0.35677276861E+01 -0.14733866388E+03  0.14873278313E+03  0.00000000000E+00 0.  1.
<mgrwt>
<rscale>  0 0.89731010E+02</rscale>
<asrwt>0</asrwt>
<pdfrwt beam="1">  1        2 0.19785352E-02 0.89731010E+02</pdfrwt>
<pdfrwt beam="2">  1       -2 0.24079897E-01 0.89731010E+02</pdfrwt>
<totfact> 0.71611650E+04</totfact>
</mgrwt>
</event>
<event>
 5    1  0.4006808E+001  0.9715516E+02  0.7546771E-02  0.1286395E+00
          2   -1    0    0  501    0  0.00000000000E+00  0.00000000000E+00  0.23837040790E+04  0.23837040790E+04  0.00000000000E+00 0. -1.
         -2   -1    0    0    0  501 -0.00000000000E+00 -0.00000000000E+00 -0.98996393370E+00  0.98996393370E+00  0.00000000000E+00 0.  1.
         23    2    1    2    0    0  0.00000000000E+00  0.00000000000E+00  0.23827141151E+04  0.23846940429E+04  0.97155155639E+02 0.  0.
          2    1    3    3  502    0  0.16015315581E+02  0.30485418767E+02  0.35037271297E+03  0.35206091672E+03  0.00000000000E+00 0.  1.
         -2    1    3    3    0  502 -0.16015315581E+02 -0.30485418767E+02  0.20323414021E+04  0.20326331262E+04  0.00000000000E+00 0. -1.
<mgrwt>
<rscale>  0 0.97155156E+02</rscale>
<asrwt>0</asrwt>
<pdfrwt beam="1">  1        2 0.36671911E+00 0.97155156E+02</pdfrwt>
<pdfrwt beam="2">  1       -2 0.15230405E-03 0.97155156E+02</pdfrwt>
<totfact> 0.13510343E+05</totfact>
</mgrwt>
</event>
<event>
 5    1  0.4006808E+001  0.9349109E+02  0.7546771E-02  0.1294611E+00
         -1   -1    0    0    0  501 -0.00000000000E+00  0.00000000000E+00  0.17263204575E+02  0.17263204575E+02  0.00000000000E+00 0.  1.
          1   -1    0    0  501    0  0.00000000000E+00 -0.00000000000E+00 -0.12657824337E+03  0.12657824337E+03  0.00000000000E+00 0. -1.
         23    2    1    2    0    0  0.00000000000E+00  0.00000000000E+00 -0.10931503880E+03  0.14384144795E+03  0.93491092841E+02 0.  0.
          2    1    3    3  502    0  0.40278390703E+02  0.15954437212E+02 -0.81670198976E+02  0.92449522580E+02  0.00000000000E+00 0. -1.
         -2    1    3    3    0  502 -0.40278390703E+02 -0.15954437212E+02 -0.27644839821E+02  0.51391925369E+02  0.00000000000E+00 0.  1.
<mgrwt>
<rscale>  0 0.93491093E+02</rscale>
<asrwt>0</asrwt>
<pdfrwt beam="2">  1        1 0.19473576E-01 0.93491093E+02</pdfrwt>
<pdfrwt beam="1">  1       -1 0.26558776E-02 0.93491093E+02</pdfrwt>
<totfact> 0.10159728E+05</totfact>
</mgrwt>
</event>
<event>
 5    1  0.4006808E+001  0.9326121E+02  0.7546771E-02  0.1295141E+00
          1   -1    0    0  501    0  0.00000000000E+00  0.00000000000E+00  0.54433614347E+03  0.54433614347E+03  0.00000000000E+00 0. -1.
         -1   -1    0    0    0  501 -0.00000000000E+00 -0.00000000000E+00 -0.39946152132E+01  0.39946152132E+01  0.00000000000E+00 0.  1.
         23    2    1    2    0    0  0.00000000000E+00  0.00000000000E+00  0.54034152826E+03  0.54833075868E+03  0.93261212512E+02 0.  0.
          2    1    3    3  502    0 -0.36587520975E+02 -0.28391889255E+02  0.30219517128E+03  0.30572318788E+03  0.00000000000E+00 0. -1.
         -2    1    3    3    0  502  0.36587520975E+02  0.28391889255E+02  0.23814635698E+03  0.24260757080E+03  0.00000000000E+00 0.  1.
<mgrwt>
<rscale>  0 0.93261213E+02</rscale>
<asrwt>0</asrwt>
<pdfrwt beam="1">  1        1 0.83743963E-01 0.93261213E+02</pdfrwt>
<pdfrwt beam="2">  1       -1 0.61455662E-03 0.93261213E+02</pdfrwt>
<totfact> 0.13235035E+05</totfact>
</mgrwt>
</event>
<event>
 5    1  0.4006808E+001  0.9284009E+02  0.7546771E-02  0.1296116E+00
          3   -1    0    0  501    0  0.00000000000E+00  0.00000000000E+00  0.19608767846E+02  0.19608767846E+02  0.00000000000E+00 0. -1.
         -3   -1    0    0    0  501 -0.00000000000E+00 -0.00000000000E+00 -0.10989066652E+03  0.10989066652E+03  0.00000000000E+00 0.  1.
         23    2    1    2    0    0  0.00000000000E+00  0.00000000000E+00 -0.90281898675E+02  0.12949943437E+03  0.92840089794E+02 0.  0.
          2    1    3    3  502    0 -0.11888885864E+02 -0.16776457242E+02  0.12910016983E+02  0.24278872774E+02  0.00000000000E+00 0. -1.
         -2    1    3    3    0  502  0.11888885864E+02  0.16776457242E+02 -0.10319191566E+03  0.10522056159E+03  0.00000000000E+00 0.  1.
<mgrwt>
<rscale>  0 0.92840090E+02</rscale>
<asrwt>0</asrwt>
<pdfrwt beam="1">  1        3 0.30167335E-02 0.92840090E+02</pdfrwt>
<pdfrwt beam="2">  1       -3 0.16906256E-01 0.92840090E+02</pdfrwt>
<totfact> 0.31045419E+04</totfact>
</mgrwt>
</event>
<event>
 5    1  0.4006808E+001  0.9079665E+02  0.7546771E-02  0.1300934E+00
          2   -1    0    0  501    0  0.00000000000E+00  0.00000000000E+00  0.45419930361E+03  0.45419930361E+03  0.00000000000E+00 0. -1.
         -2   -1    0    0    0  501 -0.00000000000E+00 -0.00000000000E+00 -0.45376727274E+01  0.45376727274E+01  0.00000000000E+00 0.  1.
         23    2    1    2    0    0  0.00000000000E+00  0.00000000000E+00  0.44966163088E+03  0.45873697634E+03  0.90796647356E+02 0.  0.
          2    1    3    3  502    0  0.21057652689E+02 -0.20273291729E+02  0.40032850449E+03  0.40139424834E+03  0.00000000000E+00 0. -1.
         -2    1    3    3    0  502 -0.21057652689E+02  0.20273291729E+02  0.49333126390E+02  0.57342727993E+02  0.00000000000E+00 0.  1.
<mgrwt>
<rscale>  0 0.90796647E+02</rscale>
<asrwt>0</asrwt>
<pdfrwt beam="1">  1        2 0.69876780E-01 0.90796647E+02</pdfrwt>
<pdfrwt beam="2">  1       -2 0.69810385E-03 0.90796647E+02</pdfrwt>
<totfact> 0.21102519E+05</totfact>
</mgrwt>
</event>
<event>
 5    1  0.4006808E+001  0.8822394E+02  0.7546771E-02  0.1307211E+00
         -2   -1    0    0    0  501 -0.00000000000E+00  0.00000000000E+00  0.28148820294E+01  0.28148820294E+01  0.00000000000E+00 0.  1.
          2   -1    0    0  501    0  0.00000000000E+00 -0.00000000000E+00 -0.69127787961E+03  0.69127787961E+03  0.00000000000E+00 0. -1.
         23    2    1    2    0    0  0.00000000000E+00  0.00000000000E+00 -0.68846299758E+03  0.69409276164E+03  0.88223935089E+02 0.  0.
          2    1    3    3  502    0  0.14642319110E+02 -0.40401234124E+02 -0.42259348389E+03  0.42477277438E+03  0.00000000000E+00 0.  1.
         -2    1    3    3    0  502 -0.14642319110E+02  0.40401234124E+02 -0.26586951369E+03  0.26931998726E+03  0.00000000000E+00 0. -1.
<mgrwt>
<rscale>  0 0.88223935E+02</rscale>
<asrwt>0</asrwt>
<pdfrwt beam="2">  1        2 0.10635030E+00 0.88223935E+02</pdfrwt>
<pdfrwt beam="1">  1       -2 0.43305935E-03 0.88223935E+02</pdfrwt>
<totfact> 0.25785525E+05</totfact>
</mgrwt>
</event>
<event>
 5    1  0.4006808E+001  0.9074346E+02  0.7546771E-02  0.1301061E+00
          2   -1    0    0  501    0  0.00000000000E+00  0.00000000000E+00  0.76079468588E+02  0.76079468588E+02  0.00000000000E+00 0.  1.
         -2   -1    0    0    0  501 -0.00000000000E+00 -0.00000000000E+00 -0.27058466453E+02  0.27058466453E+02  0.00000000000E+00 0. -1.
         23    2    1    2    0    0  0.00000000000E+00  0.00000000000E+00  0.49021002136E+02  0.10313793504E+03  0.90743457032E+02 0.  0.
          2    1    3    3  502    0  0.27332702465E+02  0.30006401903E+02  0.47556432423E+02  0.62522596267E+02  0.00000000000E+00 0. -1.
         -2    1    3    3    0  502 -0.27332702465E+02 -0.30006401903E+02  0.14645697130E+01  0.40615338773E+02  0.00000000000E+00 0.  1.
<mgrwt>
<rscale>  0 0.90743457E+02</rscale>
<asrwt>0</asrwt>
<pdfrwt beam="1">  1        2 0.11704534E-01 0.90743457E+02</pdfrwt>
<pdfrwt beam="2">  1       -2 0.41628410E-02 0.90743457E+02</pdfrwt>
<totfact> 0.11473896E+05</totfact>
</mgrwt>
</event>
<event>
 5    1  0.4006808E+001  0.9267770E+02  0.7546771E-02  0.1296494E+00
         -2   -1    0    0    0  501 -0.00000000000E+00  0.00000000000E+00  0.36672284643E+02  0.36672284643E+02  0.00000000000E+00 0.  1.
          2   -1    0    0  501    0  0.00000000000E+00 -0.00000000000E+00 -0.58553450812E+02  0.58553450812E+02  0.00000000000E+00 0. -1.
         23    2    1    2    0    0  0.00000000000E+00  0.00000000000E+00 -0.21881166169E+02  0.95225735455E+02  0.92677695591E+02 0.  0.
          2    1    3    3  502    0  0.44215797176E+02  0.13348443791E+01  0.32399554835E+01  0.44354434287E+02  0.00000000000E+00 0.  1.
         -2    1    3    3    0  502 -0.44215797176E+02 -0.13348443791E+01 -0.25121121653E+02  0.50871301168E+02  0.00000000000E+00 0. -1.
<mgrwt>
<rscale>  0 0.92677696E+02</rscale>
<asrwt>0</asrwt>
<pdfrwt beam="2">  1        2 0.90082230E-02 0.92677696E+02</pdfrwt>
<pdfrwt beam="1">  1       -2 0.56418900E-02 0.92677696E+02</pdfrwt>
<totfact> 0.10061797E+05</totfact>
</mgrwt>
</event>
<event>
 5    1  0.4006808E+001  0.9189928E+02  0.7546771E-02  0.1298316E+00
         -1   -1    0    0    0  501 -0.00000000000E+00  0.00000000000E+00  0.36453758900E+02  0.36453758900E+02  0.00000000000E+00 0.  1.
          1   -1    0    0  501    0  0.00000000000E+00 -0.00000000000E+00 -0.57919110582E+02  0.57919110582E+02  0.00000000000E+00 0. -1.
         23    2    1    2    0    0  0.00000000000E+00  0.00000000000E+00 -0.21465351682E+02  0.94372869482E+02  0.91899277317E+02 0.  0.
          2    1    3    3  502    0 -0.13916367708E+02 -0.35811439332E+02  0.15149788768E+02  0.41299401653E+02  0.00000000000E+00 0.  1.
         -2    1    3    3    0  502  0.13916367708E+02  0.35811439332E+02 -0.36615140450E+02  0.53073467829E+02  0.00000000000E+00 0. -1.
<mgrwt>
<rscale>  0 0.91899277E+02</rscale>
<asrwt>0</asrwt>
<pdfrwt beam="2">  1        1 0.89106323E-02 0.91899277E+02</pdfrwt>
<pdfrwt beam="1">  1       -1 0.56082707E-02 0.91899277E+02</pdfrwt>
<totfact> 0.93776813E+04</totfact>
</mgrwt>
</event>
<event>
 5    1  0.4006808E+001  0.7531486E+02  0.7546771E-02  0.1342899E+00
         -2   -1    0    0    0  501 -0.00000000000E+00  0.00000000000E+00  0.30967073163E+01  0.30967073163E+01  0.00000000000E+00 0.  1.
          2   -1    0    0  501    0  0.00000000000E+00 -0.00000000000E+00 -0.45793217587E+03  0.45793217587E+03  0.00000000000E+00 0. -1.
         23    2    1    2    0    0  0.00000000000E+00  0.00000000000E+00 -0.45483546856E+03  0.46102888319E+03  0.75314856951E+02 0.  0.
          2    1    3    3  502    0 -0.15920895891E+02 -0.31485477501E+02 -0.30799477197E+03  0.31000901565E+03  0.00000000000E+00 0. -1.
         -2    1    3    3    0  502  0.15920895891E+02  0.31485477501E+02 -0.14684069658E+03  0.15101986754E+03  0.00000000000E+00 0.  1.
<mgrwt>
<rscale>  0 0.75314857E+02</rscale>
<asrwt>0</asrwt>
<pdfrwt beam="2">  1        2 0.70451156E-01 0.75314857E+02</pdfrwt>
<pdfrwt beam="1">  1       -2 0.47641616E-03 0.75314857E+02</pdfrwt>
<totfact> 0.34549843E+05</totfact>
</mgrwt>
</event>
<event>
 5    1  0.4006808E+001  0.8819892E+02  0.7546771E-02  0.1307273E+00
         -1   -1    0    0    0  501 -0.00000000000E+00  0.00000000000E+00  0.20333824100E+02  0.20333824100E+02  0.00000000000E+00 0.  1.
          1   -1    0    0  501    0  0.00000000000E+00 -0.00000000000E+00 -0.95641735060E+02  0.95641735060E+02  0.00000000000E+00 0. -1.
         23    2    1    2    0    0  0.00000000000E+00  0.00000000000E+00 -0.75307910961E+02  0.11597555916E+03  0.88198916486E+02 0.  0.
          2    1    3    3  502    0 -0.43229374311E+02 -0.78735746466E+01 -0.42572263791E+02  0.61181448376E+02  0.00000000000E+00 0. -1.
         -2    1    3    3    0  502  0.43229374311E+02  0.78735746466E+01 -0.32735647169E+02  0.54794110784E+02  0.00000000000E+00 0.  1.
<mgrwt>
<rscale>  0 0.88198916E+02</rscale>
<asrwt>0</asrwt>
<pdfrwt beam="2">  1        1 0.14714113E-01 0.88198916E+02</pdfrwt>
<pdfrwt beam="1">  1       -1 0.31282806E-02 0.88198916E+02</pdfrwt>
<totfact> 0.11349127E+05</totfact>
</mgrwt>
</event>
<event>
 5    1  0.4006808E+001  0.9214306E+02  0.7546771E-02  0.1297743E+00
          2   -1    0    0  501    0  0.00000000000E+00  0.00000000000E+00  0.46106091268E+03  0.46106091268E+03  0.00000000000E+00 0. -1.
         -2   -1    0    0    0  501 -0.00000000000E+00 -0.00000000000E+00 -0.46036994723E+01  0.46036994723E+01  0.00000000000E+00 0.  1.
         23    2    1    2    0    0  0.00000000000E+00  0.00000000000E+00  0.45645721321E+03  0.46566461215E+03  0.92143060084E+02 0.  0.
          2    1    3    3  502    0  0.22800283759E+02 -0.32480669289E+02  0.34650483346E+03  0.34876990471E+03  0.00000000000E+00 0. -1.
         -2    1    3    3    0  502 -0.22800283759E+02  0.32480669289E+02  0.10995237975E+03  0.11689470745E+03  0.00000000000E+00 0.  1.
<mgrwt>
<rscale>  0 0.92143060E+02</rscale>
<asrwt>0</asrwt>
<pdfrwt beam="1">  1        2 0.70932411E-01 0.92143060E+02</pdfrwt>
<pdfrwt beam="2">  1       -2 0.70826183E-03 0.92143060E+02</pdfrwt>
<totfact> 0.20398596E+05</totfact>
</mgrwt>
</event>
<event>
 5    1  0.4006808E+001  0.9291571E+02  0.7546771E-02  0.1295941E+00
          1   -1    0    0  501    0  0.00000000000E+00  0.00000000000E+00  0.13419354491E+03  0.13419354491E+03  0.00000000000E+00 0. -1.
         -1   -1    0    0    0  501 -0.00000000000E+00 -0.00000000000E+00 -0.16083727165E+02  0.16083727165E+02  0.00000000000E+00 0.  1.
         23    2    1    2    0    0  0.00000000000E+00  0.00000000000E+00  0.11810981774E+03  0.15027727207E+03  0.92915711558E+02 0.  0.
          2    1    3    3  502    0  0.16361282334E+02 -0.43481248697E+02  0.59293793667E+02  0.75326386581E+02  0.00000000000E+00 0. -1.
         -2    1    3    3    0  502 -0.16361282334E+02  0.43481248697E+02  0.58816024075E+02  0.74950885491E+02  0.00000000000E+00 0.  1.
<mgrwt>
<rscale>  0 0.92915712E+02</rscale>
<asrwt>0</asrwt>
<pdfrwt beam="1">  1        1 0.20645160E-01 0.92915712E+02</pdfrwt>
<pdfrwt beam="2">  1       -1 0.24744196E-02 0.92915712E+02</pdfrwt>
<totfact> 0.10440384E+05</totfact>
</mgrwt>
</event>
<event>
 5    1  0.4006808E+001  0.9409421E+02  0.7546771E-02  0.1293229E+00
         -1   -1    0    0    0  501 -0.00000000000E+00  0.00000000000E+00  0.28596264130E+02  0.28596264130E+02  0.00000000000E+00 0.  1.
          1   -1    0    0  501    0  0.00000000000E+00 -0.00000000000E+00 -0.77402772129E+02  0.77402772129E+02  0.00000000000E+00 0. -1.
         23    2    1    2    0    0  0.00000000000E+00  0.00000000000E+00 -0.48806508000E+02  0.10599903626E+03  0.94094210580E+02 0.  0.
          2    1    3    3  502    0 -0.14558258842E+02  0.39224248608E+02 -0.16485309777E+00  0.41839117532E+02  0.00000000000E+00 0. -1.
         -2    1    3    3    0  502  0.14558258842E+02 -0.39224248608E+02 -0.48641654902E+02  0.64159918726E+02  0.00000000000E+00 0.  1.
<mgrwt>
<rscale>  0 0.94094211E+02</rscale>
<asrwt>0</asrwt>
<pdfrwt beam="2">  1        1 0.11908119E-01 0.94094211E+02</pdfrwt>
<pdfrwt beam="1">  1       -1 0.43994252E-02 0.94094211E+02</pdfrwt>
<totfact> 0.91888072E+04</totfact>
</mgrwt>
</event>
<event>
 5    1  0.4006808E+001  0.9100930E+02  0.7546771E-02  0.1300426E+00
          4   -1    0    0  501    0  0.00000000000E+00  0.00000000000E+00  0.70020962312E+01  0.70020962312E+01  0.00000000000E+00 0. -1.
         -4   -1    0    0    0  501 -0.00000000000E+00 -0.00000000000E+00 -0.29572189355E+03  0.29572189355E+03  0.00000000000E+00 0.  1.
         23    2    1    2    0    0  0.00000000000E+00  0.00000000000E+00 -0.28871979732E+03  0.30272398978E+03  0.91009299664E+02 0.  0.
          2    1    3    3  502    0 -0.35433469132E+02  0.18766571481E+02 -0.72789742582E+02  0.83102716953E+02  0.00000000000E+00 0. -1.
         -2    1    3    3    0  502  0.35433469132E+02 -0.18766571481E+02 -0.21593005474E+03  0.21962127283E+03  0.00000000000E+00 0.  1.
<mgrwt>
<rscale>  0 0.91009300E+02</rscale>
<asrwt>0</asrwt>
<pdfrwt beam="1">  1        4 0.10772457E-02 0.91009300E+02</pdfrwt>
<pdfrwt beam="2">  1       -4 0.45495671E-01 0.91009300E+02</pdfrwt>
<totfact> 0.17824397E+04</totfact>
</mgrwt>
</event>
<event>
 5    1  0.4006808E+001  0.7751766E+02  0.7546771E-02  0.1336247E+00
          3   -1    0    0  501    0  0.00000000000E+00  0.00000000000E+00  0.10086453042E+02  0.10086453042E+02  0.00000000000E+00 0. -1.
         -3   -1    0    0    0  501 -0.00000000000E+00 -0.00000000000E+00 -0.14893707121E+03  0.14893707121E+03  0.00000000000E+00 0.  1.
         23    2    1    2    0    0  0.00000000000E+00  0.00000000000E+00 -0.13885061817E+03  0.15902352426E+03  0.77517656699E+02 0.  0.
          2    1    3    3  502    0 -0.19258428173E+01 -0.32636635035E+02 -0.26718299923E+02  0.42222344413E+02  0.00000000000E+00 0. -1.
         -2    1    3    3    0  502  0.19258428173E+01  0.32636635035E+02 -0.11213231825E+03  0.11680117984E+03  0.00000000000E+00 0.  1.
<mgrwt>
<rscale>  0 0.77517657E+02</rscale>
<asrwt>0</asrwt>
<pdfrwt beam="1">  1        3 0.15517621E-02 0.77517657E+02</pdfrwt>
<pdfrwt beam="2">  1       -3 0.22913394E-01 0.77517657E+02</pdfrwt>
<totfact> 0.47510676E+04</totfact>
</mgrwt>
</event>
<event>
 5    1  0.4006808E+001  0.9067341E+02  0.7546771E-02  0.1301229E+00
          2   -1    0    0  501    0  0.00000000000E+00  0.00000000000E+00  0.65883068892E+02  0.65883068892E+02  0.00000000000E+00 0. -1.
         -2   -1    0    0    0  501 -0.00000000000E+00 -0.00000000000E+00 -0.31197949956E+02  0.31197949956E+02  0.00000000000E+00 0.  1.
         23    2    1    2    0    0  0.00000000000E+00  0.00000000000E+00  0.34685118936E+02  0.97081018848E+02  0.90673407043E+02 0.  0.
          2    1    3    3  502    0  0.40314155898E+02 -0.75981979931E+01  0.38005402450E+02  0.55922932630E+02  0.00000000000E+00 0. -1.
         -2    1    3    3    0  502 -0.40314155898E+02  0.75981979931E+01 -0.33202835134E+01  0.41158086218E+02  0.00000000000E+00 0.  1.
<mgrwt>
<rscale>  0 0.90673407E+02</rscale>
<asrwt>0</asrwt>
<pdfrwt beam="1">  1        2 0.10135857E-01 0.90673407E+02</pdfrwt>
<pdfrwt beam="2">  1       -2 0.47996846E-02 0.90673407E+02</pdfrwt>
<totfact> 0.11049192E+05</totfact>
</mgrwt>
</event>
<event>
 5    1  0.4006808E+001  0.9173210E+02  0.7546771E-02  0.1298711E+00
         -3   -1    0    0    0  501 -0.00000000000E+00  0.00000000000E+00  0.38578548733E+03  0.38578548733E+03  0.00000000000E+00 0.  1.
          3   -1    0    0  501    0  0.00000000000E+00 -0.00000000000E+00 -0.54530166859E+01  0.54530166859E+01  0.00000000000E+00 0. -1.
         23    2    1    2    0    0  0.00000000000E+00  0.00000000000E+00  0.38033247064E+03  0.39123850401E+03  0.91732103422E+02 0.  0.
          2    1    3    3  502    0  0.26141701592E+02  0.36031406634E+02  0.23728330023E+03  0.24142289741E+03  0.00000000000E+00 0. -1.
         -2    1    3    3    0  502 -0.26141701592E+02 -0.36031406634E+02  0.14304917041E+03  0.14981560660E+03  0.00000000000E+00 0.  1.
<mgrwt>
<rscale>  0 0.91732103E+02</rscale>
<asrwt>0</asrwt>
<pdfrwt beam="2">  1        3 0.83892595E-03 0.91732103E+02</pdfrwt>
<pdfrwt beam="1">  1       -3 0.59351592E-01 0.91732103E+02</pdfrwt>
<totfact> 0.20531197E+04</totfact>
</mgrwt>
</event>
<event>
 5    1  0.4006808E+001  0.9053356E+02  0.7546771E-02  0.1301565E+00
          1   -1    0    0  501    0  0.00000000000E+00  0.00000000000E+00  0.11878656364E+02  0.11878656364E+02  0.00000000000E+00 0. -1.
         -1   -1    0    0    0  501 -0.00000000000E+00 -0.00000000000E+00 -0.17250110973E+03  0.17250110973E+03  0.00000000000E+00 0.  1.
         23    2    1    2    0    0  0.00000000000E+00  0.00000000000E+00 -0.16062245337E+03  0.18437976610E+03  0.90533560735E+02 0.  0.
          2    1    3    3  502    0 -0.18186726282E+02  0.27239685813E+02 -0.16675556791E+02  0.36753662271E+02  0.00000000000E+00 0. -1.
         -2    1    3    3    0  502  0.18186726282E+02 -0.27239685813E+02 -0.14394689658E+03  0.14762610382E+03  0.00000000000E+00 0.  1.
<mgrwt>
<rscale>  0 0.90533561E+02</rscale>
<asrwt>0</asrwt>
<pdfrwt beam="1">  1        1 0.18274857E-02 0.90533561E+02</pdfrwt>
<pdfrwt beam="2">  1       -1 0.26538630E-01 0.90533561E+02</pdfrwt>
<totfact> 0.73609913E+04</totfact>
</mgrwt>
</event>
<event>
 5    1  0.4006808E+001  0.9289803E+02  0.7546771E-02  0.1295982E+00
         -1   -1    0    0    0  501 -0.00000000000E+00  0.00000000000E+00  0.20273134805E+03  0.20273134805E+03  0.00000000000E+00 0.  1.
          1   -1    0    0  501    0  0.00000000000E+00 -0.00000000000E+00 -0.10642216996E+02  0.10642216996E+02  0.00000000000E+00 0. -1.
         23    2    1    2    0    0  0.00000000000E+00  0.00000000000E+00  0.19208913105E+03  0.21337356504E+03  0.92898030071E+02 0.  0.
          2    1    3    3  502    0  0.20515435294E+02 -0.10444125467E+02  0.33827015122E+01  0.23268122219E+02  0.00000000000E+00 0. -1.
         -2    1    3    3    0  502 -0.20515435294E+02  0.10444125467E+02  0.18870642954E+03  0.19010544282E+03  0.00000000000E+00 0.  1.
<mgrwt>
<rscale>  0 0.92898030E+02</rscale>
<asrwt>0</asrwt>
<pdfrwt beam="2">  1        1 0.16372643E-02 0.92898030E+02</pdfrwt>
<pdfrwt beam="1">  1       -1 0.31189435E-01 0.92898030E+02</pdfrwt>
<totfact> 0.65860723E+04</totfact>
</mgrwt>
</event>
<event>
 5    1  0.4006808E+001  0.8207225E+02  0.7546771E-02  0.1323271E+00
          2   -1    0    0  501    0  0.00000000000E+00  0.00000000000E+00  0.43066851422E+02  0.43066851422E+02  0.00000000000E+00 0. -1.
         -2   -1    0    0    0  501 -0.00000000000E+00 -0.00000000000E+00 -0.39101149563E+02  0.39101149563E+02  0.00000000000E+00 0.  1.
         23    2    1    2    0    0  0.00000000000E+00  0.00000000000E+00  0.39657018589E+01  0.82168000984E+02  0.82072246189E+02 0.  0.
          2    1    3    3  502    0  0.12037770535E+02 -0.39068586674E+02 -0.15851553332E+01  0.40911796606E+02  0.00000000000E+00 0. -1.
         -2    1    3    3    0  502 -0.12037770535E+02  0.39068586674E+02  0.55508571921E+01  0.41256204378E+02  0.00000000000E+00 0.  1.
<mgrwt>
<rscale>  0 0.82072246E+02</rscale>
<asrwt>0</asrwt>
<pdfrwt beam="1">  1        2 0.66256694E-02 0.82072246E+02</pdfrwt>
<pdfrwt beam="2">  1       -2 0.60155615E-02 0.82072246E+02</pdfrwt>
<totfact> 0.13120180E+05</totfact>
</mgrwt>
</event>
<event>
 5    1  0.4006808E+001  0.7743351E+02  0.7546771E-02  0.1336497E+00
          2   -1    0    0  501    0  0.00000000000E+00  0.00000000000E+00  0.17307181278E+02  0.17307181278E+02  0.00000000000E+00 0. -1.
         -2   -1    0    0    0  501 -0.00000000000E+00 -0.00000000000E+00 -0.86610704813E+02  0.86610704813E+02  0.00000000000E+00 0.  1.
         23    2    1    2    0    0  0.00000000000E+00  0.00000000000E+00 -0.69303523535E+02  0.10391788609E+03  0.77433511320E+02 0.  0.
          2    1    3    3  502    0  0.29129672613E+02  0.25289018631E+02 -0.30218015738E+02  0.49002048579E+02  0.00000000000E+00 0.  1.
         -2    1    3    3    0  502 -0.29129672613E+02 -0.25289018631E+02 -0.39085507797E+02  0.54915837512E+02  0.00000000000E+00 0. -1.
<mgrwt>
<rscale>  0 0.77433511E+02</rscale>
<asrwt>0</asrwt>
<pdfrwt beam="1">  1        2 0.26626432E-02 0.77433511E+02</pdfrwt>
<pdfrwt beam="2">  1       -2 0.13324724E-01 0.77433511E+02</pdfrwt>
<totfact> 0.12462325E+05</totfact>
</mgrwt>
</event>
<event>
 5    1  0.4006808E+001  0.9217294E+02  0.7546771E-02  0.1297673E+00
          1   -1    0    0  501    0  0.00000000000E+00  0.00000000000E+00  0.35626882048E+03  0.35626882048E+03  0.00000000000E+00 0. -1.
         -1   -1    0    0    0  501 -0.00000000000E+00 -0.00000000000E+00 -0.59616851786E+01  0.59616851786E+01  0.00000000000E+00 0.  1.
         23    2    1    2    0    0  0.00000000000E+00  0.00000000000E+00  0.35030713530E+03  0.36223050566E+03  0.92172936303E+02 0.  0.
          2    1    3    3  502    0  0.26546931713E+02  0.35819586047E+02  0.12929308585E+03  0.13676433884E+03  0.00000000000E+00 0.  1.
         -2    1    3    3    0  502 -0.26546931713E+02 -0.35819586047E+02  0.22101404945E+03  0.22546616682E+03  0.00000000000E+00 0. -1.
<mgrwt>
<rscale>  0 0.92172936E+02</rscale>
<asrwt>0</asrwt>
<pdfrwt beam="1">  1        1 0.54810571E-01 0.92172936E+02</pdfrwt>
<pdfrwt beam="2">  1       -1 0.91718262E-03 0.92172936E+02</pdfrwt>
<totfact> 0.12847915E+05</totfact>
</mgrwt>
</event>
<event>
 5    1  0.4006808E+001  0.9030440E+02  0.7546771E-02  0.1302116E+00
         -2   -1    0    0    0  501 -0.00000000000E+00  0.00000000000E+00  0.11100692176E+01  0.11100692176E+01  0.00000000000E+00 0.  1.
          2   -1    0    0  501    0  0.00000000000E+00 -0.00000000000E+00 -0.18365712915E+04  0.18365712915E+04  0.00000000000E+00 0. -1.
         23    2    1    2    0    0  0.00000000000E+00  0.00000000000E+00 -0.18354612223E+04  0.18376813607E+04  0.90304402034E+02 0.  0.
          2    1    3    3  502    0  0.21503238982E+02  0.37712841901E+02 -0.66513529127E+03  0.66655052578E+03  0.00000000000E+00 0. -1.
         -2    1    3    3    0  502 -0.21503238982E+02 -0.37712841901E+02 -0.11703259310E+04  0.11711308349E+04  0.00000000000E+00 0.  1.
<mgrwt>
<rscale>  0 0.90304402E+02</rscale>
<asrwt>0</asrwt>
<pdfrwt beam="2">  1        2 0.28254932E+00 0.90304402E+02</pdfrwt>
<pdfrwt beam="1">  1       -2 0.17077995E-03 0.90304402E+02</pdfrwt>
<totfact> 0.21670046E+05</totfact>
</mgrwt>
</event>
<event>
 5    1  0.4006808E+001  0.9618405E+02  0.7546771E-02  0.1288531E+00
         -2   -1    0    0    0  501 -0.00000000000E+00  0.00000000000E+00  0.41800485195E+01  0.41800485195E+01  0.00000000000E+00 0.  1.
          2   -1    0    0  501    0  0.00000000000E+00 -0.00000000000E+00 -0.55330523140E+03  0.55330523140E+03  0.00000000000E+00 0. -1.
         23    2    1    2    0    0  0.00000000000E+00  0.00000000000E+00 -0.54912518288E+03  0.55748527992E+03  0.96184046772E+02 0.  0.
          2    1    3    3  502    0  0.27900005082E+02 -0.59404209154E+00 -0.50157745794E+03  0.50235317206E+03  0.00000000000E+00 0.  1.
         -2    1    3    3    0  502 -0.27900005082E+02  0.59404209154E+00 -0.47547724943E+02  0.55132107858E+02  0.00000000000E+00 0. -1.
<mgrwt>
<rscale>  0 0.96184047E+02</rscale>
<asrwt>0</asrwt>
<pdfrwt beam="2">  1        2 0.85123799E-01 0.96184047E+02</pdfrwt>
<pdfrwt beam="1">  1       -2 0.64308501E-03 0.96184047E+02</pdfrwt>
<totfact> 0.19307638E+05</totfact>
</mgrwt>
</event>
<event>
 5    1  0.4006808E+001  0.9114581E+02  0.7546771E-02  0.1300100E+00
          1   -1    0    0  501    0  0.00000000000E+00  0.00000000000E+00  0.24814477556E+03  0.24814477556E+03  0.00000000000E+00 0. -1.
         -1   -1    0    0    0  501 -0.00000000000E+00 -0.00000000000E+00 -0.83696683393E+01  0.83696683393E+01  0.00000000000E+00 0.  1.
         23    2    1    2    0    0  0.00000000000E+00  0.00000000000E+00  0.23977510722E+03  0.25651444390E+03  0.91145805642E+02 0.  0.
          2    1    3    3  502    0  0.37003032692E+02  0.26594678184E+02  0.12164089609E+03  0.12989614674E+03  0.00000000000E+00 0. -1.
         -2    1    3    3    0  502 -0.37003032692E+02 -0.26594678184E+02  0.11813421112E+03  0.12661829715E+03  0.00000000000E+00 0.  1.
<mgrwt>
<rscale>  0 0.91145806E+02</rscale>
<asrwt>0</asrwt>
<pdfrwt beam="1">  1        1 0.38176114E-01 0.91145806E+02</pdfrwt>
<pdfrwt beam="2">  1       -1 0.12876415E-02 0.91145806E+02</pdfrwt>
<totfact> 0.12360316E+05</totfact>
</mgrwt>
</event>
<event>
 5    1  0.4006808E+001  0.8961041E+02  0.7546771E-02  0.1303798E+00
         -1   -1    0    0    0  501 -0.00000000000E+00  0.00000000000E+00  0.17082617209E+01  0.17082617209E+01  0.00000000000E+00 0.  1.
          1   -1    0    0  501    0  0.00000000000E+00 -0.00000000000E+00 -0.11751749748E+04  0.11751749748E+04  0.00000000000E+00 0. -1.
         23    2    1    2    0    0  0.00000000000E+00  0.00000000000E+00 -0.11734667131E+04  0.11768832365E+04  0.89610410663E+02 0.  0.
          2    1    3    3  502    0  0.15190841283E+02 -0.42146048305E+02 -0.57787075921E+03  0.57960474928E+03  0.00000000000E+00 0. -1.
         -2    1    3    3    0  502 -0.15190841283E+02  0.42146048305E+02 -0.59559595389E+03  0.59727848725E+03  0.00000000000E+00 0.  1.
<mgrwt>
<rscale>  0 0.89610411E+02</rscale>
<asrwt>0</asrwt>
<pdfrwt beam="2">  1        1 0.18079594E+00 0.89610411E+02</pdfrwt>
<pdfrwt beam="1">  1       -1 0.26280980E-03 0.89610411E+02</pdfrwt>
<totfact> 0.13454703E+05</totfact>
</mgrwt>
</event>
<event>
 5    1  0.4006808E+001  0.9130610E+02  0.7546771E-02  0.1299719E+00
          2   -1    0    0  501    0  0.00000000000E+00  0.00000000000E+00  0.20918199418E+04  0.20918199418E+04  0.00000000000E+00 0. -1.
         -2   -1    0    0    0  501 -0.00000000000E+00 -0.00000000000E+00 -0.99635776311E+00  0.99635776311E+00  0.00000000000E+00 0.  1.
         23    2    1    2    0    0  0.00000000000E+00  0.00000000000E+00  0.20908235840E+04  0.20928162995E+04  0.91306101396E+02 0.  0.
          2    1    3    3  502    0 -0.43903217137E+02  0.68890026939E+01  0.12849873121E+04  0.12857555534E+04  0.00000000000E+00 0. -1.
         -2    1    3    3    0  502  0.43903217137E+02 -0.68890026939E+01  0.80583627195E+03  0.80706074618E+03  0.00000000000E+00 0.  1.
<mgrwt>
<rscale>  0 0.91306101E+02</rscale>
<asrwt>0</asrwt>
<pdfrwt beam="1">  1        2 0.32181494E+00 0.91306101E+02</pdfrwt>
<pdfrwt beam="2">  1       -2 0.15328748E-03 0.91306101E+02</pdfrwt>
<totfact> 0.18754162E+05</totfact>
</mgrwt>
</event>
<event>
 5    1  0.4006808E+001  0.9121147E+02  0.7546771E-02  0.1299944E+00
         -1   -1    0    0    0  501 -0.00000000000E+00  0.00000000000E+00  0.13791053686E+03  0.13791053686E+03  0.00000000000E+00 0.  1.
          1   -1    0    0  501    0  0.00000000000E+00 -0.00000000000E+00 -0.15081392081E+02  0.15081392081E+02  0.00000000000E+00 0. -1.
         23    2    1    2    0    0  0.00000000000E+00  0.00000000000E+00  0.12282914478E+03  0.15299192894E+03  0.91211465912E+02 0.  0.
          2    1    3    3  502    0  0.15507422702E+02  0.42877490998E+02  0.59802687308E+02  0.75201867014E+02  0.00000000000E+00 0. -1.
         -2    1    3    3    0  502 -0.15507422702E+02 -0.42877490998E+02  0.63026457473E+02  0.77790061928E+02  0.00000000000E+00 0.  1.
<mgrwt>
<rscale>  0 0.91211466E+02</rscale>
<asrwt>0</asrwt>
<pdfrwt beam="2">  1        1 0.23202143E-02 0.91211466E+02</pdfrwt>
<pdfrwt beam="1">  1       -1 0.21217005E-01 0.91211466E+02</pdfrwt>
<totfact> 0.76160460E+04</totfact>
</mgrwt>
</event>
<event>
 5    1  0.4006808E+001  0.9153747E+02  0.7546771E-02  0.1299171E+00
          4   -1    0    0  501    0  0.00000000000E+00  0.00000000000E+00  0.14483684826E+02  0.14483684826E+02  0.00000000000E+00 0. -1.
         -4   -1    0    0    0  501 -0.00000000000E+00 -0.00000000000E+00 -0.14463012543E+03  0.14463012543E+03  0.00000000000E+00 0.  1.
         23    2    1    2    0    0  0.00000000000E+00  0.00000000000E+00 -0.13014644061E+03  0.15911381026E+03  0.91537471085E+02 0.  0.
          2    1    3    3  502    0 -0.38912002501E+02 -0.21562720919E+02 -0.46377492013E+02  0.64264816482E+02  0.00000000000E+00 0.  1.
         -2    1    3    3    0  502  0.38912002501E+02  0.21562720919E+02 -0.83768948594E+02  0.94848993778E+02  0.00000000000E+00 0. -1.
<mgrwt>
<rscale>  0 0.91537471E+02</rscale>
<asrwt>0</asrwt>
<pdfrwt beam="1">  1        4 0.22282591E-02 0.91537471E+02</pdfrwt>
<pdfrwt beam="2">  1       -4 0.22250789E-01 0.91537471E+02</pdfrwt>
<totfact> 0.22978172E+04</totfact>
</mgrwt>
</event>
<event>
 5    1  0.4006808E+001  0.1255854E+03  0.7546771E-02  0.1234157E+00
          4   -1    0    0  501    0  0.00000000000E+00  0.00000000000E+00  0.24280886373E+03  0.24280886373E+03  0.00000000000E+00 0. -1.
         -4   -1    0    0    0  501 -0.00000000000E+00 -0.00000000000E+00 -0.16238798679E+02  0.16238798679E+02  0.00000000000E+00 0.  1.
         23    2    1    2    0    0  0.00000000000E+00  0.00000000000E+00  0.22657006505E+03  0.25904766240E+03  0.12558541724E+03 0.  0.
          2    1    3    3  502    0  0.27816911118E+02 -0.55807681854E+02  0.12853332011E+03  0.14286039436E+03  0.00000000000E+00 0. -1.
         -2    1    3    3    0  502 -0.27816911118E+02  0.55807681854E+02  0.98036744941E+02  0.11618726805E+03  0.00000000000E+00 0.  1.
<mgrwt>
<rscale>  0 0.12558542E+03</rscale>
<asrwt>0</asrwt>
<pdfrwt beam="1">  1        4 0.37355207E-01 0.12558542E+03</pdfrwt>
<pdfrwt beam="2">  1       -4 0.24982769E-02 0.12558542E+03</pdfrwt>
<totfact> 0.79992768E+03</totfact>
</mgrwt>
</event>
<event>
 5    1  0.4006808E+001  0.9111874E+02  0.7546771E-02  0.1300165E+00
          2   -1    0    0  501    0  0.00000000000E+00  0.00000000000E+00  0.36774276748E+04  0.36774276748E+04  0.00000000000E+00 0.  1.
         -2   -1    0    0    0  501 -0.00000000000E+00 -0.00000000000E+00 -0.56443152839E+00  0.56443152839E+00  0.00000000000E+00 0. -1.
         23    2    1    2    0    0  0.00000000000E+00  0.00000000000E+00  0.36768632433E+04  0.36779921064E+04  0.91118738425E+02 0.  0.
          2    1    3    3  502    0 -0.40606677694E+02 -0.13448145770E+02  0.12054611640E+04  0.12062198692E+04  0.00000000000E+00 0. -1.
         -2    1    3    3    0  502  0.40606677694E+02  0.13448145770E+02  0.24714020793E+04  0.24717722372E+04  0.00000000000E+00 0.  1.
<mgrwt>
<rscale>  0 0.91118738E+02</rscale>
<asrwt>0</asrwt>
<pdfrwt beam="1">  1        2 0.56573892E+00 0.91118738E+02</pdfrwt>
<pdfrwt beam="2">  1       -2 0.86838565E-04 0.91118738E+02</pdfrwt>
<totfact> 0.51760875E+04</totfact>
</mgrwt>
</event>
<event>
 5    1  0.4006808E+001  0.8940395E+02  0.7546771E-02  0.1304302E+00
          2   -1    0    0  501    0  0.00000000000E+00  0.00000000000E+00  0.93373719005E+03  0.93373719005E+03  0.00000000000E+00 0.  1.
         -2   -1    0    0    0  501 -0.00000000000E+00 -0.00000000000E+00 -0.21400738499E+01  0.21400738499E+01  0.00000000000E+00 0. -1.
         23    2    1    2    0    0  0.00000000000E+00  0.00000000000E+00  0.93159711620E+03  0.93587726390E+03  0.89403949423E+02 0.  0.
          2    1    3    3  502    0  0.12667762250E+02 -0.17823737409E+02  0.57667618781E+02  0.61674241556E+02  0.00000000000E+00 0. -1.
         -2    1    3    3    0  502 -0.12667762250E+02  0.17823737409E+02  0.87392949742E+03  0.87420302234E+03  0.00000000000E+00 0.  1.
<mgrwt>
<rscale>  0 0.89403949E+02</rscale>
<asrwt>0</asrwt>
<pdfrwt beam="1">  1        2 0.14365155E+00 0.89403949E+02</pdfrwt>
<pdfrwt beam="2">  1       -2 0.32924288E-03 0.89403949E+02</pdfrwt>
<totfact> 0.26206062E+05</totfact>
</mgrwt>
</event>
<event>
 5    1  0.4006808E+001  0.9053522E+02  0.7546771E-02  0.1301561E+00
          2   -1    0    0  501    0  0.00000000000E+00  0.00000000000E+00  0.30458002997E+02  0.30458002997E+02  0.00000000000E+00 0. -1.
         -2   -1    0    0    0  501 -0.00000000000E+00 -0.00000000000E+00 -0.67278104147E+02  0.67278104147E+02  0.00000000000E+00 0.  1.
         23    2    1    2    0    0  0.00000000000E+00  0.00000000000E+00 -0.36820101150E+02  0.97736107143E+02  0.90535224034E+02 0.  0.
          2    1    3    3  502    0 -0.26071995944E+02  0.12407140666E+02  0.19226488732E+02  0.34689248781E+02  0.00000000000E+00 0. -1.
         -2    1    3    3    0  502  0.26071995944E+02 -0.12407140666E+02 -0.56046589882E+02  0.63046858363E+02  0.00000000000E+00 0.  1.
<mgrwt>
<rscale>  0 0.90535224E+02</rscale>
<asrwt>0</asrwt>
<pdfrwt beam="1">  1        2 0.46858467E-02 0.90535224E+02</pdfrwt>
<pdfrwt beam="2">  1       -2 0.10350477E-01 0.90535224E+02</pdfrwt>
<totfact> 0.90700084E+04</totfact>
</mgrwt>
</event>
<event>
 5    1  0.4006808E+001  0.7937899E+02  0.7546771E-02  0.1330823E+00
         -2   -1    0    0    0  501 -0.00000000000E+00  0.00000000000E+00  0.20539156035E+04  0.20539156035E+04  0.00000000000E+00 0.  1.
          2   -1    0    0  501    0  0.00000000000E+00 -0.00000000000E+00 -0.76695256690E+00  0.76695256690E+00  0.00000000000E+00 0. -1.
         23    2    1    2    0    0  0.00000000000E+00  0.00000000000E+00  0.20531486509E+04  0.20546825561E+04  0.79378985741E+02 0.  0.
          2    1    3    3  502    0  0.18997923300E+02 -0.31026875832E+02  0.14372064812E+04  0.14376668799E+04  0.00000000000E+00 0. -1.
         -2    1    3    3    0  502 -0.18997923300E+02  0.31026875832E+02  0.61594216979E+03  0.61701567616E+03  0.00000000000E+00 0.  1.
<mgrwt>
<rscale>  0 0.79378986E+02</rscale>
<asrwt>0</asrwt>
<pdfrwt beam="2">  1        2 0.11799435E-03 0.79378986E+02</pdfrwt>
<pdfrwt beam="1">  1       -2 0.31598261E+00 0.79378986E+02</pdfrwt>
<totfact> 0.77278541E+03</totfact>
</mgrwt>
</event>
<event>
 5    1  0.4006808E+001  0.8958713E+02  0.7546771E-02  0.1303855E+00
         -4   -1    0    0    0  501 -0.00000000000E+00  0.00000000000E+00  0.14490333641E+02  0.14490333641E+02  0.00000000000E+00 0. -1.
          4   -1    0    0  501    0  0.00000000000E+00 -0.00000000000E+00 -0.13846908782E+03  0.13846908782E+03  0.00000000000E+00 0.  1.
         23    2    1    2    0    0  0.00000000000E+00  0.00000000000E+00 -0.12397875418E+03  0.15295942147E+03  0.89587125896E+02 0.  0.
          2    1    3    3  502    0  0.31199449237E+02  0.23535529702E+02 -0.24616179915E+02  0.46187477790E+02  0.00000000000E+00 0. -1.
         -2    1    3    3    0  502 -0.31199449237E+02 -0.23535529702E+02 -0.99362574269E+02  0.10677194368E+03  0.00000000000E+00 0.  1.
<mgrwt>
<rscale>  0 0.89587126E+02</rscale>
<asrwt>0</asrwt>
<pdfrwt beam="2">  1        4 0.21302937E-01 0.89587126E+02</pdfrwt>
<pdfrwt beam="1">  1       -4 0.22292821E-02 0.89587126E+02</pdfrwt>
<totfact> 0.24661967E+04</totfact>
</mgrwt>
</event>
<event>
 5    1  0.4006808E+001  0.8912705E+02  0.7546771E-02  0.1304980E+00
          1   -1    0    0  501    0  0.00000000000E+00  0.00000000000E+00  0.93190492686E+02  0.93190492686E+02  0.00000000000E+00 0. -1.
         -1   -1    0    0    0  501 -0.00000000000E+00 -0.00000000000E+00 -0.21310197191E+02  0.21310197191E+02  0.00000000000E+00 0.  1.
         23    2    1    2    0    0  0.00000000000E+00  0.00000000000E+00  0.71880295495E+02  0.11450068988E+03  0.89127050338E+02 0.  0.
          2    1    3    3  502    0 -0.10288696958E+02 -0.34428261041E+02  0.20782426424E+01  0.35992798389E+02  0.00000000000E+00 0. -1.
         -2    1    3    3    0  502  0.10288696958E+02  0.34428261041E+02  0.69802052853E+02  0.78507891488E+02  0.00000000000E+00 0.  1.
<mgrwt>
<rscale>  0 0.89127050E+02</rscale>
<asrwt>0</asrwt>
<pdfrwt beam="1">  1        1 0.14336999E-01 0.89127050E+02</pdfrwt>
<pdfrwt beam="2">  1       -1 0.32784919E-02 0.89127050E+02</pdfrwt>
<totfact> 0.10984487E+05</totfact>
</mgrwt>
</event>
<event>
 5    1  0.4006808E+001  0.9243571E+02  0.7546771E-02  0.1297058E+00
         -1   -1    0    0    0  501 -0.00000000000E+00  0.00000000000E+00  0.19123631974E+02  0.19123631974E+02  0.00000000000E+00 0.  1.
          1   -1    0    0  501    0  0.00000000000E+00 -0.00000000000E+00 -0.11169896551E+03  0.11169896551E+03  0.00000000000E+00 0. -1.
         23    2    1    2    0    0  0.00000000000E+00  0.00000000000E+00 -0.92575333537E+02  0.13082259748E+03  0.92435705402E+02 0.  0.
          2    1    3    3  502    0  0.28646791944E+02 -0.11393684547E+02 -0.95020150350E+02  0.99896364842E+02  0.00000000000E+00 0. -1.
         -2    1    3    3    0  502 -0.28646791944E+02  0.11393684547E+02  0.24448168123E+01  0.30926232643E+02  0.00000000000E+00 0.  1.
<mgrwt>
<rscale>  0 0.92435705E+02</rscale>
<asrwt>0</asrwt>
<pdfrwt beam="2">  1        1 0.17184456E-01 0.92435705E+02</pdfrwt>
<pdfrwt beam="1">  1       -1 0.29420972E-02 0.92435705E+02</pdfrwt>
<totfact> 0.10251811E+05</totfact>
</mgrwt>
</event>
<event>
 5    1  0.4006808E+001  0.9463889E+02  0.7546771E-02  0.1291991E+00
         -3   -1    0    0    0  501 -0.00000000000E+00  0.00000000000E+00  0.96094164102E+02  0.96094164102E+02  0.00000000000E+00 0.  1.
          3   -1    0    0  501    0  0.00000000000E+00 -0.00000000000E+00 -0.23301414337E+02  0.23301414337E+02  0.00000000000E+00 0. -1.
         23    2    1    2    0    0  0.00000000000E+00  0.00000000000E+00  0.72792749765E+02  0.11939557844E+03  0.94638891225E+02 0.  0.
          2    1    3    3  502    0 -0.26340089166E+02  0.39195577693E+02  0.32603971502E+02  0.57385647732E+02  0.00000000000E+00 0. -1.
         -2    1    3    3    0  502  0.26340089166E+02 -0.39195577693E+02  0.40188778263E+02  0.62009930707E+02  0.00000000000E+00 0.  1.
<mgrwt>
<rscale>  0 0.94638891E+02</rscale>
<asrwt>0</asrwt>
<pdfrwt beam="2">  1        3 0.35848330E-02 0.94638891E+02</pdfrwt>
<pdfrwt beam="1">  1       -3 0.14783717E-01 0.94638891E+02</pdfrwt>
<totfact> 0.30073558E+04</totfact>
</mgrwt>
</event>
<event>
 5    1  0.4006808E+001  0.8889175E+02  0.7546771E-02  0.1305558E+00
         -2   -1    0    0    0  501 -0.00000000000E+00  0.00000000000E+00  0.88423347480E+02  0.88423347480E+02  0.00000000000E+00 0.  1.
          2   -1    0    0  501    0  0.00000000000E+00 -0.00000000000E+00 -0.22340660446E+02  0.22340660446E+02  0.00000000000E+00 0. -1.
         23    2    1    2    0    0  0.00000000000E+00  0.00000000000E+00  0.66082687034E+02  0.11076400793E+03  0.88891753982E+02 0.  0.
          2    1    3    3  502    0  0.25509283387E+02 -0.35521747860E+02  0.23157537855E+02  0.49485246988E+02  0.00000000000E+00 0. -1.
         -2    1    3    3    0  502 -0.25509283387E+02  0.35521747860E+02  0.42925149179E+02  0.61278760937E+02  0.00000000000E+00 0.  1.
<mgrwt>
<rscale>  0 0.88891754E+02</rscale>
<asrwt>0</asrwt>
<pdfrwt beam="2">  1        2 0.34370247E-02 0.88891754E+02</pdfrwt>
<pdfrwt beam="1">  1       -2 0.13603592E-01 0.88891754E+02</pdfrwt>
<totfact> 0.88074718E+04</totfact>
</mgrwt>
</event>
<event>
 5    1  0.4006808E+001  0.8921788E+02  0.7546771E-02  0.1304757E+00
          1   -1    0    0  501    0  0.00000000000E+00  0.00000000000E+00  0.73854299577E+03  0.73854299577E+03  0.00000000000E+00 0. -1.
         -1   -1    0    0    0  501 -0.00000000000E+00 -0.00000000000E+00 -0.26944368491E+01  0.26944368491E+01  0.00000000000E+00 0.  1.
         23    2    1    2    0    0  0.00000000000E+00  0.00000000000E+00  0.73584855892E+03  0.74123743262E+03  0.89217878533E+02 0.  0.
          2    1    3    3  502    0  0.37235116553E+02  0.21015198678E+02  0.47362596263E+03  0.47555193719E+03  0.00000000000E+00 0.  1.
         -2    1    3    3    0  502 -0.37235116553E+02 -0.21015198678E+02  0.26222259629E+03  0.26568549543E+03  0.00000000000E+00 0. -1.
<mgrwt>
<rscale>  0 0.89217879E+02</rscale>
<asrwt>0</asrwt>
<pdfrwt beam="1">  1        1 0.11362184E+00 0.89217879E+02</pdfrwt>
<pdfrwt beam="2">  1       -1 0.41452934E-03 0.89217879E+02</pdfrwt>
<totfact> 0.15038301E+05</totfact>
</mgrwt>
</event>
<event>
 5    1  0.4006808E+001  0.9116879E+02  0.7546771E-02  0.1300046E+00
         -2   -1    0    0    0  501 -0.00000000000E+00  0.00000000000E+00  0.21759987838E+02  0.21759987838E+02  0.00000000000E+00 0.  1.
          2   -1    0    0  501    0  0.00000000000E+00 -0.00000000000E+00 -0.95493491342E+02  0.95493491342E+02  0.00000000000E+00 0. -1.
         23    2    1    2    0    0  0.00000000000E+00  0.00000000000E+00 -0.73733503504E+02  0.11725347918E+03  0.91168793131E+02 0.  0.
          2    1    3    3  502    0 -0.10813540897E+02  0.43076265100E+02 -0.50073079883E+02  0.66931387335E+02  0.00000000000E+00 0.  1.
         -2    1    3    3    0  502  0.10813540897E+02 -0.43076265100E+02 -0.23660423621E+02  0.50322091845E+02  0.00000000000E+00 0. -1.
<mgrwt>
<rscale>  0 0.91168793E+02</rscale>
<asrwt>0</asrwt>
<pdfrwt beam="2">  1        2 0.14691307E-01 0.91168793E+02</pdfrwt>
<pdfrwt beam="1">  1       -2 0.33476904E-02 0.91168793E+02</pdfrwt>
<totfact> 0.12100606E+05</totfact>
</mgrwt>
</event>
<event>
 5    1  0.4006808E+001  0.9156572E+02  0.7546771E-02  0.1299104E+00
         -1   -1    0    0    0  501 -0.00000000000E+00  0.00000000000E+00  0.57425489394E+03  0.57425489394E+03  0.00000000000E+00 0.  1.
          1   -1    0    0  501    0  0.00000000000E+00 -0.00000000000E+00 -0.36500691497E+01  0.36500691497E+01  0.00000000000E+00 0. -1.
         23    2    1    2    0    0  0.00000000000E+00  0.00000000000E+00  0.57060482479E+03  0.57790496309E+03  0.91565715690E+02 0.  0.
          2    1    3    3  502    0 -0.18173709519E+02  0.38108512766E+02  0.39705598752E+03  0.39929437723E+03  0.00000000000E+00 0. -1.
         -2    1    3    3    0  502  0.18173709519E+02 -0.38108512766E+02  0.17354883727E+03  0.17861058586E+03  0.00000000000E+00 0.  1.
<mgrwt>
<rscale>  0 0.91565716E+02</rscale>
<asrwt>0</asrwt>
<pdfrwt beam="2">  1        1 0.56154956E-03 0.91565716E+02</pdfrwt>
<pdfrwt beam="1">  1       -1 0.88346835E-01 0.91565716E+02</pdfrwt>
<totfact> 0.42466907E+04</totfact>
</mgrwt>
</event>
<event>
 5    1  0.4006808E+001  0.9760672E+02  0.7546771E-02  0.1285411E+00
          2   -1    0    0  501    0  0.00000000000E+00  0.00000000000E+00  0.26570716197E+02  0.26570716197E+02  0.00000000000E+00 0.  1.
         -2   -1    0    0    0  501 -0.00000000000E+00 -0.00000000000E+00 -0.89638831090E+02  0.89638831090E+02  0.00000000000E+00 0. -1.
         23    2    1    2    0    0  0.00000000000E+00  0.00000000000E+00 -0.63068114893E+02  0.11620954729E+03  0.97606719875E+02 0.  0.
          2    1    3    3  502    0  0.42383278245E+02 -0.18245722377E+02 -0.50453544751E+02  0.68372573725E+02  0.00000000000E+00 0. -1.
         -2    1    3    3    0  502 -0.42383278245E+02  0.18245722377E+02 -0.12614570142E+02  0.47836973563E+02  0.00000000000E+00 0.  1.
<mgrwt>
<rscale>  0 0.97606720E+02</rscale>
<asrwt>0</asrwt>
<pdfrwt beam="1">  1        2 0.40878025E-02 0.97606720E+02</pdfrwt>
<pdfrwt beam="2">  1       -2 0.13790589E-01 0.97606720E+02</pdfrwt>
<totfact> 0.69622462E+04</totfact>
</mgrwt>
</event>
<event>
 5    1  0.4006808E+001  0.9070601E+02  0.7546771E-02  0.1301151E+00
         -2   -1    0    0    0  501 -0.00000000000E+00  0.00000000000E+00  0.23823384300E+01  0.23823384300E+01  0.00000000000E+00 0.  1.
          2   -1    0    0  501    0  0.00000000000E+00 -0.00000000000E+00 -0.86339328538E+03  0.86339328538E+03  0.00000000000E+00 0. -1.
         23    2    1    2    0    0  0.00000000000E+00  0.00000000000E+00 -0.86101094695E+03  0.86577562381E+03  0.90706008708E+02 0.  0.
          2    1    3    3  502    0 -0.24491952153E+02  0.38142806578E+02 -0.44455162721E+03  0.44685666457E+03  0.00000000000E+00 0. -1.
         -2    1    3    3    0  502  0.24491952153E+02 -0.38142806578E+02 -0.41645931974E+03  0.41891895924E+03  0.00000000000E+00 0.  1.
<mgrwt>
<rscale>  0 0.90706009E+02</rscale>
<asrwt>0</asrwt>
<pdfrwt beam="2">  1        2 0.13282992E+00 0.90706009E+02</pdfrwt>
<pdfrwt beam="1">  1       -2 0.36651311E-03 0.90706009E+02</pdfrwt>
<totfact> 0.25004974E+05</totfact>
</mgrwt>
</event>
<event>
 5    1  0.4006808E+001  0.9572307E+02  0.7546771E-02  0.1289556E+00
          2   -1    0    0  501    0  0.00000000000E+00  0.00000000000E+00  0.29065460197E+03  0.29065460197E+03  0.00000000000E+00 0. -1.
         -2   -1    0    0    0  501 -0.00000000000E+00 -0.00000000000E+00 -0.78812665048E+01  0.78812665048E+01  0.00000000000E+00 0.  1.
         23    2    1    2    0    0  0.00000000000E+00  0.00000000000E+00  0.28277333546E+03  0.29853586847E+03  0.95723066791E+02 0.  0.
          2    1    3    3  502    0 -0.45410393398E+02  0.15110029173E+02  0.14312190368E+03  0.15091155066E+03  0.00000000000E+00 0.  1.
         -2    1    3    3    0  502  0.45410393398E+02 -0.15110029173E+02  0.13965143178E+03  0.14762431781E+03  0.00000000000E+00 0. -1.
<mgrwt>
<rscale>  0 0.95723067E+02</rscale>
<asrwt>0</asrwt>
<pdfrwt beam="1">  1        2 0.44716084E-01 0.95723067E+02</pdfrwt>
<pdfrwt beam="2">  1       -2 0.12125028E-02 0.95723067E+02</pdfrwt>
<totfact> 0.15585707E+05</totfact>
</mgrwt>
</event>
<event>
 5    1  0.4006808E+001  0.7233486E+02  0.7546771E-02  0.1352329E+00
         -1   -1    0    0    0  501 -0.00000000000E+00  0.00000000000E+00  0.16056947477E+03  0.16056947477E+03  0.00000000000E+00 0. -1.
          1   -1    0    0  501    0  0.00000000000E+00 -0.00000000000E+00 -0.81465228942E+01  0.81465228942E+01  0.00000000000E+00 0.  1.
         23    2    1    2    0    0  0.00000000000E+00  0.00000000000E+00  0.15242295188E+03  0.16871599766E+03  0.72334857498E+02 0.  0.
          2    1    3    3  502    0 -0.21468594980E+02  0.28278531240E+02  0.60135126030E+02  0.69834155556E+02  0.00000000000E+00 0. -1.
         -2    1    3    3    0  502  0.21468594980E+02 -0.28278531240E+02  0.92287825845E+02  0.98881842108E+02  0.00000000000E+00 0.  1.
<mgrwt>
<rscale>  0 0.72334857E+02</rscale>
<asrwt>0</asrwt>
<pdfrwt beam="2">  1        1 0.12533113E-02 0.72334857E+02</pdfrwt>
<pdfrwt beam="1">  1       -1 0.24702994E-01 0.72334857E+02</pdfrwt>
<totfact> 0.13367735E+05</totfact>
</mgrwt>
</event>
<event>
 5    1  0.4006808E+001  0.8769646E+02  0.7546771E-02  0.1308528E+00
          2   -1    0    0  501    0  0.00000000000E+00  0.00000000000E+00  0.21022699237E+02  0.21022699237E+02  0.00000000000E+00 0. -1.
         -2   -1    0    0    0  501 -0.00000000000E+00 -0.00000000000E+00 -0.91456726404E+02  0.91456726404E+02  0.00000000000E+00 0.  1.
         23    2    1    2    0    0  0.00000000000E+00  0.00000000000E+00 -0.70434027167E+02  0.11247942564E+03  0.87696459505E+02 0.  0.
          2    1    3    3  502    0 -0.33216197894E+02  0.27320578962E+02 -0.24263178106E+02  0.49380478422E+02  0.00000000000E+00 0. -1.
         -2    1    3    3    0  502  0.33216197894E+02 -0.27320578962E+02 -0.46170849061E+02  0.63098947220E+02  0.00000000000E+00 0.  1.
<mgrwt>
<rscale>  0 0.87696460E+02</rscale>
<asrwt>0</asrwt>
<pdfrwt beam="1">  1        2 0.32342614E-02 0.87696460E+02</pdfrwt>
<pdfrwt beam="2">  1       -2 0.14070266E-01 0.87696460E+02</pdfrwt>
<totfact> 0.90210621E+04</totfact>
</mgrwt>
</event>
<event>
 5    1  0.4006808E+001  0.7819126E+02  0.7546771E-02  0.1334264E+00
          3   -1    0    0  501    0  0.00000000000E+00  0.00000000000E+00  0.68783459966E+03  0.68783459966E+03  0.00000000000E+00 0. -1.
         -3   -1    0    0    0  501 -0.00000000000E+00 -0.00000000000E+00 -0.22221451177E+01  0.22221451177E+01  0.00000000000E+00 0.  1.
         23    2    1    2    0    0  0.00000000000E+00  0.00000000000E+00  0.68561245455E+03  0.69005674478E+03  0.78191260316E+02 0.  0.
          2    1    3    3  502    0  0.18371740524E+02  0.21298686093E+02  0.58244255774E+03  0.58312133210E+03  0.00000000000E+00 0. -1.
         -2    1    3    3    0  502 -0.18371740524E+02 -0.21298686093E+02  0.10316989681E+03  0.10693541269E+03  0.00000000000E+00 0.  1.
<mgrwt>
<rscale>  0 0.78191260E+02</rscale>
<asrwt>0</asrwt>
<pdfrwt beam="1">  1        3 0.10582054E+00 0.78191260E+02</pdfrwt>
<pdfrwt beam="2">  1       -3 0.34186903E-03 0.78191260E+02</pdfrwt>
<totfact> 0.21118440E+04</totfact>
</mgrwt>
</event>
<event>
 5    1  0.4006808E+001  0.9054705E+02  0.7546771E-02  0.1301532E+00
         -1   -1    0    0    0  501 -0.00000000000E+00  0.00000000000E+00  0.60900364082E+03  0.60900364082E+03  0.00000000000E+00 0.  1.
          1   -1    0    0  501    0  0.00000000000E+00 -0.00000000000E+00 -0.33656482695E+01  0.33656482695E+01  0.00000000000E+00 0. -1.
         23    2    1    2    0    0  0.00000000000E+00  0.00000000000E+00  0.60563799256E+03  0.61236928909E+03  0.90547049645E+02 0.  0.
          2    1    3    3  502    0 -0.17660561909E+02 -0.20608734592E+02  0.57752388412E+02  0.63811862186E+02  0.00000000000E+00 0. -1.
         -2    1    3    3    0  502  0.17660561909E+02  0.20608734592E+02  0.54788560414E+03  0.54855742691E+03  0.00000000000E+00 0.  1.
<mgrwt>
<rscale>  0 0.90547050E+02</rscale>
<asrwt>0</asrwt>
<pdfrwt beam="2">  1        1 0.51779253E-03 0.90547050E+02</pdfrwt>
<pdfrwt beam="1">  1       -1 0.93692780E-01 0.90547050E+02</pdfrwt>
<totfact> 0.41917188E+04</totfact>
</mgrwt>
</event>
<event>
 5    1  0.4006808E+001  0.9293561E+02  0.7546771E-02  0.1295894E+00
         -2   -1    0    0    0  501 -0.00000000000E+00  0.00000000000E+00  0.94734216334E+02  0.94734216334E+02  0.00000000000E+00 0.  1.
          2   -1    0    0  501    0  0.00000000000E+00 -0.00000000000E+00 -0.22792789456E+02  0.22792789456E+02  0.00000000000E+00 0. -1.
         23    2    1    2    0    0  0.00000000000E+00  0.00000000000E+00  0.71941426878E+02  0.11752700579E+03  0.92935613135E+02 0.  0.
          2    1    3    3  502    0 -0.35602254365E+02  0.17021214849E+02  0.49423350562E+01  0.39770201742E+02  0.00000000000E+00 0. -1.
         -2    1    3    3    0  502  0.35602254365E+02 -0.17021214849E+02  0.66999091822E+02  0.77756804048E+02  0.00000000000E+00 0.  1.
<mgrwt>
<rscale>  0 0.92935613E+02</rscale>
<asrwt>0</asrwt>
<pdfrwt beam="2">  1        2 0.35065830E-02 0.92935613E+02</pdfrwt>
<pdfrwt beam="1">  1       -2 0.14574495E-01 0.92935613E+02</pdfrwt>
<totfact> 0.77334027E+04</totfact>
</mgrwt>
</event>
<event>
 5    1  0.4006808E+001  0.8870276E+02  0.7546771E-02  0.1306024E+00
          1   -1    0    0  501    0  0.00000000000E+00  0.00000000000E+00  0.19915243501E+04  0.19915243501E+04  0.00000000000E+00 0. -1.
         -1   -1    0    0    0  501 -0.00000000000E+00 -0.00000000000E+00 -0.98770812845E+00  0.98770812845E+00  0.00000000000E+00 0.  1.
         23    2    1    2    0    0  0.00000000000E+00  0.00000000000E+00  0.19905366420E+04  0.19925120583E+04  0.88702757311E+02 0.  0.
          2    1    3    3  502    0  0.30076147913E+02 -0.27146401605E+02  0.58997633551E+03  0.59136585821E+03  0.00000000000E+00 0. -1.
         -2    1    3    3    0  502 -0.30076147913E+02  0.27146401605E+02  0.14005603065E+04  0.14011462000E+04  0.00000000000E+00 0.  1.
<mgrwt>
<rscale>  0 0.88702757E+02</rscale>
<asrwt>0</asrwt>
<pdfrwt beam="1">  1        1 0.30638515E+00 0.88702757E+02</pdfrwt>
<pdfrwt beam="2">  1       -1 0.15195669E-03 0.88702757E+02</pdfrwt>
<totfact> 0.86328115E+04</totfact>
</mgrwt>
</event>
<event>
 5    1  0.4006808E+001  0.9156296E+02  0.7546771E-02  0.1299110E+00
         -4   -1    0    0    0  501 -0.00000000000E+00  0.00000000000E+00  0.22819068625E+02  0.22819068625E+02  0.00000000000E+00 0. -1.
          4   -1    0    0  501    0  0.00000000000E+00 -0.00000000000E+00 -0.91850546030E+02  0.91850546030E+02  0.00000000000E+00 0.  1.
         23    2    1    2    0    0  0.00000000000E+00  0.00000000000E+00 -0.69031477405E+02  0.11466961466E+03  0.91562960047E+02 0.  0.
          2    1    3    3  502    0 -0.41586473051E+02  0.67610917273E+01 -0.12085001349E+02  0.43831431185E+02  0.00000000000E+00 0. -1.
         -2    1    3    3    0  502  0.41586473051E+02 -0.67610917273E+01 -0.56946476056E+02  0.70838183470E+02  0.00000000000E+00 0.  1.
<mgrwt>
<rscale>  0 0.91562960E+02</rscale>
<asrwt>0</asrwt>
<pdfrwt beam="2">  1        4 0.14130853E-01 0.91562960E+02</pdfrwt>
<pdfrwt beam="1">  1       -4 0.35106259E-02 0.91562960E+02</pdfrwt>
<totfact> 0.25287347E+04</totfact>
</mgrwt>
</event>
<event>
 5    1  0.4006808E+001  0.9313109E+02  0.7546771E-02  0.1295442E+00
          1   -1    0    0  501    0  0.00000000000E+00  0.00000000000E+00  0.71212871516E+03  0.71212871516E+03  0.00000000000E+00 0. -1.
         -1   -1    0    0    0  501 -0.00000000000E+00 -0.00000000000E+00 -0.30448847446E+01  0.30448847446E+01  0.00000000000E+00 0.  1.
         23    2    1    2    0    0  0.00000000000E+00  0.00000000000E+00  0.70908383042E+03  0.71517359990E+03  0.93131087420E+02 0.  0.
          2    1    3    3  502    0 -0.39207119410E+02 -0.24846195987E+02  0.38308772952E+03  0.38588954401E+03  0.00000000000E+00 0. -1.
         -2    1    3    3    0  502  0.39207119410E+02  0.24846195987E+02  0.32599610090E+03  0.32928405590E+03  0.00000000000E+00 0.  1.
<mgrwt>
<rscale>  0 0.93131087E+02</rscale>
<asrwt>0</asrwt>
<pdfrwt beam="1">  1        1 0.10955813E+00 0.93131087E+02</pdfrwt>
<pdfrwt beam="2">  1       -1 0.46844437E-03 0.93131087E+02</pdfrwt>
<totfact> 0.13438046E+05</totfact>
</mgrwt>
</event>
<event>
 5    1  0.4006808E+001  0.9127302E+02  0.7546771E-02  0.1299798E+00
         -2   -1    0    0    0  501 -0.00000000000E+00  0.00000000000E+00  0.11918110522E+03  0.11918110522E+03  0.00000000000E+00 0. -1.
          2   -1    0    0  501    0  0.00000000000E+00 -0.00000000000E+00 -0.17475010750E+02  0.17475010750E+02  0.00000000000E+00 0.  1.
         23    2    1    2    0    0  0.00000000000E+00  0.00000000000E+00  0.10170609447E+03  0.13665611597E+03  0.91273021094E+02 0.  0.
          2    1    3    3  502    0  0.48081325463E+01  0.30326038766E+02  0.10140301103E+03  0.10594978722E+03  0.00000000000E+00 0. -1.
         -2    1    3    3    0  502 -0.48081325463E+01 -0.30326038766E+02  0.30308344115E+00  0.30706328751E+02  0.00000000000E+00 0.  1.
<mgrwt>
<rscale>  0 0.91273021E+02</rscale>
<asrwt>0</asrwt>
<pdfrwt beam="2">  1        2 0.26884633E-02 0.91273021E+02</pdfrwt>
<pdfrwt beam="1">  1       -2 0.18335554E-01 0.91273021E+02</pdfrwt>
<totfact> 0.75383756E+04</totfact>
</mgrwt>
</event>
<event>
 5    1  0.4006808E+001  0.8936743E+02  0.7546771E-02  0.1304391E+00
          2   -1    0    0  501    0  0.00000000000E+00  0.00000000000E+00  0.25304841322E+03  0.25304841322E+03  0.00000000000E+00 0. -1.
         -2   -1    0    0    0  501 -0.00000000000E+00 -0.00000000000E+00 -0.78903263100E+01  0.78903263100E+01  0.00000000000E+00 0.  1.
         23    2    1    2    0    0  0.00000000000E+00  0.00000000000E+00  0.24515808691E+03  0.26093873953E+03  0.89367433722E+02 0.  0.
          2    1    3    3  502    0  0.46307742972E+01 -0.39157191001E+02  0.18395858913E+03  0.18813689748E+03  0.00000000000E+00 0. -1.
         -2    1    3    3    0  502 -0.46307742972E+01  0.39157191001E+02  0.61199497778E+02  0.72801842050E+02  0.00000000000E+00 0.  1.
<mgrwt>
<rscale>  0 0.89367434E+02</rscale>
<asrwt>0</asrwt>
<pdfrwt beam="1">  1        2 0.38930519E-01 0.89367434E+02</pdfrwt>
<pdfrwt beam="2">  1       -2 0.12138966E-02 0.89367434E+02</pdfrwt>
<totfact> 0.17789492E+05</totfact>
</mgrwt>
</event>
<event>
 5    1  0.4006808E+001  0.8978309E+02  0.7546771E-02  0.1303378E+00
         -1   -1    0    0    0  501 -0.00000000000E+00  0.00000000000E+00  0.13817939591E+02  0.13817939591E+02  0.00000000000E+00 0.  1.
          1   -1    0    0  501    0  0.00000000000E+00 -0.00000000000E+00 -0.14584308382E+03  0.14584308382E+03  0.00000000000E+00 0. -1.
         23    2    1    2    0    0  0.00000000000E+00  0.00000000000E+00 -0.13202514423E+03  0.15966102341E+03  0.89783092441E+02 0.  0.
          2    1    3    3  502    0  0.29035883861E+02  0.34135756165E+02 -0.70690041962E+02  0.83698353826E+02  0.00000000000E+00 0. -1.
         -2    1    3    3    0  502 -0.29035883861E+02 -0.34135756165E+02 -0.61335102270E+02  0.75962669589E+02  0.00000000000E+00 0.  1.
<mgrwt>
<rscale>  0 0.89783092E+02</rscale>
<asrwt>0</asrwt>
<pdfrwt beam="2">  1        1 0.22437397E-01 0.89783092E+02</pdfrwt>
<pdfrwt beam="1">  1       -1 0.21258369E-02 0.89783092E+02</pdfrwt>
<totfact> 0.11628558E+05</totfact>
</mgrwt>
</event>
<event>
 5    1  0.4006808E+001  0.8084872E+02  0.7546771E-02  0.1326660E+00
         -2   -1    0    0    0  501 -0.00000000000E+00  0.00000000000E+00  0.83888453279E+00  0.83888453279E+00  0.00000000000E+00 0.  1.
          2   -1    0    0  501    0  0.00000000000E+00 -0.00000000000E+00 -0.19479780873E+04  0.19479780873E+04  0.00000000000E+00 0. -1.
         23    2    1    2    0    0  0.00000000000E+00  0.00000000000E+00 -0.19471392028E+04  0.19488169718E+04  0.80848715207E+02 0.  0.
          2    1    3    3  502    0 -0.29778359637E+02 -0.26819555270E+02 -0.11013221202E+04  0.11020510205E+04  0.00000000000E+00 0. -1.
         -2    1    3    3    0  502  0.29778359637E+02  0.26819555270E+02 -0.84581708256E+03  0.84676595137E+03  0.00000000000E+00 0.  1.
<mgrwt>
<rscale>  0 0.80848715E+02</rscale>
<asrwt>0</asrwt>
<pdfrwt beam="2">  1        2 0.29969036E+00 0.80848715E+02</pdfrwt>
<pdfrwt beam="1">  1       -2 0.12905855E-03 0.80848715E+02</pdfrwt>
<totfact> 0.27640150E+05</totfact>
</mgrwt>
</event>
<event>
 5    1  0.4006808E+001  0.8744835E+02  0.7546771E-02  0.1309151E+00
          1   -1    0    0  501    0  0.00000000000E+00  0.00000000000E+00  0.35440188604E+02  0.35440188604E+02  0.00000000000E+00 0. -1.
         -1   -1    0    0    0  501 -0.00000000000E+00 -0.00000000000E+00 -0.53944510988E+02  0.53944510988E+02  0.00000000000E+00 0.  1.
         23    2    1    2    0    0  0.00000000000E+00  0.00000000000E+00 -0.18504322385E+02  0.89384699592E+02  0.87448353753E+02 0.  0.
          2    1    3    3  502    0  0.96541139148E+01  0.40796829578E+02  0.34413711470E+01  0.42064548666E+02  0.00000000000E+00 0. -1.
         -2    1    3    3    0  502 -0.96541139148E+01 -0.40796829578E+02 -0.21945693532E+02  0.47320150926E+02  0.00000000000E+00 0.  1.
<mgrwt>
<rscale>  0 0.87448354E+02</rscale>
<asrwt>0</asrwt>
<pdfrwt beam="1">  1        1 0.54523367E-02 0.87448354E+02</pdfrwt>
<pdfrwt beam="2">  1       -1 0.82991556E-02 0.87448354E+02</pdfrwt>
<totfact> 0.10015849E+05</totfact>
</mgrwt>
</event>
<event>
 5    1  0.4006808E+001  0.9009091E+02  0.7546771E-02  0.1302632E+00
          1   -1    0    0  501    0  0.00000000000E+00  0.00000000000E+00  0.20603711770E+02  0.20603711770E+02  0.00000000000E+00 0. -1.
         -1   -1    0    0    0  501 -0.00000000000E+00 -0.00000000000E+00 -0.98481908738E+02  0.98481908738E+02  0.00000000000E+00 0.  1.
         23    2    1    2    0    0  0.00000000000E+00  0.00000000000E+00 -0.77878196968E+02  0.11908562051E+03  0.90090906582E+02 0.  0.
          2    1    3    3  502    0 -0.41103939991E+01  0.21563947611E+02  0.13054599723E+02  0.25540590231E+02  0.00000000000E+00 0. -1.
         -2    1    3    3    0  502  0.41103939991E+01 -0.21563947611E+02 -0.90932796691E+02  0.93545030277E+02  0.00000000000E+00 0.  1.
<mgrwt>
<rscale>  0 0.90090907E+02</rscale>
<asrwt>0</asrwt>
<pdfrwt beam="1">  1        1 0.31698018E-02 0.90090907E+02</pdfrwt>
<pdfrwt beam="2">  1       -1 0.15151063E-01 0.90090907E+02</pdfrwt>
<totfact> 0.84155154E+04</totfact>
</mgrwt>
</event>
<event>
 5    1  0.4006808E+001  0.9636311E+02  0.7546771E-02  0.1288135E+00
          1   -1    0    0  501    0  0.00000000000E+00  0.00000000000E+00  0.37704757086E+03  0.37704757086E+03  0.00000000000E+00 0. -1.
         -1   -1    0    0    0  501 -0.00000000000E+00 -0.00000000000E+00 -0.61569474910E+01  0.61569474910E+01  0.00000000000E+00 0.  1.
         23    2    1    2    0    0  0.00000000000E+00  0.00000000000E+00  0.37089062337E+03  0.38320451835E+03  0.96363106953E+02 0.  0.
          2    1    3    3  502    0 -0.14569022292E+02  0.45721124292E+02  0.20268063346E+03  0.20828374108E+03  0.00000000000E+00 0. -1.
         -2    1    3    3    0  502  0.14569022292E+02 -0.45721124292E+02  0.16820998991E+03  0.17492077727E+03  0.00000000000E+00 0.  1.
<mgrwt>
<rscale>  0 0.96363107E+02</rscale>
<asrwt>0</asrwt>
<pdfrwt beam="1">  1        1 0.58007301E-01 0.96363107E+02</pdfrwt>
<pdfrwt beam="2">  1       -1 0.94722299E-03 0.96363107E+02</pdfrwt>
<totfact> 0.11524784E+05</totfact>
</mgrwt>
</event>
<event>
 5    1  0.4006808E+001  0.9205909E+02  0.7546771E-02  0.1297941E+00
         -2   -1    0    0    0  501 -0.00000000000E+00  0.00000000000E+00  0.54359172709E+02  0.54359172709E+02  0.00000000000E+00 0.  1.
          2   -1    0    0  501    0  0.00000000000E+00 -0.00000000000E+00 -0.38976291328E+02  0.38976291328E+02  0.00000000000E+00 0. -1.
         23    2    1    2    0    0  0.00000000000E+00  0.00000000000E+00  0.15382881380E+02  0.93335464037E+02  0.92059088674E+02 0.  0.
          2    1    3    3  502    0  0.52770242648E+01  0.39893383669E+02 -0.14965428626E+02  0.42933589410E+02  0.00000000000E+00 0. -1.
         -2    1    3    3    0  502 -0.52770242648E+01 -0.39893383669E+02  0.30348310006E+02  0.50401874627E+02  0.00000000000E+00 0.  1.
<mgrwt>
<rscale>  0 0.92059089E+02</rscale>
<asrwt>0</asrwt>
<pdfrwt beam="2">  1        2 0.59963525E-02 0.92059089E+02</pdfrwt>
<pdfrwt beam="1">  1       -2 0.83629497E-02 0.92059089E+02</pdfrwt>
<totfact> 0.92133586E+04</totfact>
</mgrwt>
</event>
<event>
 5    1  0.4006808E+001  0.9180723E+02  0.7546771E-02  0.1298533E+00
         -3   -1    0    0    0  501 -0.00000000000E+00  0.00000000000E+00  0.83299124926E+03  0.83299124926E+03  0.00000000000E+00 0.  1.
          3   -1    0    0  501    0  0.00000000000E+00 -0.00000000000E+00 -0.25296085711E+01  0.25296085711E+01  0.00000000000E+00 0. -1.
         23    2    1    2    0    0  0.00000000000E+00  0.00000000000E+00  0.83046164069E+03  0.83552085783E+03  0.91807228556E+02 0.  0.
          2    1    3    3  502    0 -0.40820892860E+02 -0.17862548191E+02  0.31482199561E+03  0.31795959624E+03  0.00000000000E+00 0. -1.
         -2    1    3    3    0  502  0.40820892860E+02  0.17862548191E+02  0.51563964508E+03  0.51756126159E+03  0.00000000000E+00 0.  1.
<mgrwt>
<rscale>  0 0.91807229E+02</rscale>
<asrwt>0</asrwt>
<pdfrwt beam="2">  1        3 0.38917122E-03 0.91807229E+02</pdfrwt>
<pdfrwt beam="1">  1       -3 0.12815228E+00 0.91807229E+02</pdfrwt>
<totfact> 0.11677939E+04</totfact>
</mgrwt>
</event>
<event>
 5    1  0.4006808E+001  0.9247695E+02  0.7546771E-02  0.1296962E+00
         -2   -1    0    0    0  501 -0.00000000000E+00  0.00000000000E+00  0.37437113398E+01  0.37437113398E+01  0.00000000000E+00 0.  1.
          2   -1    0    0  501    0  0.00000000000E+00 -0.00000000000E+00 -0.57109017715E+03  0.57109017715E+03  0.00000000000E+00 0. -1.
         23    2    1    2    0    0  0.00000000000E+00  0.00000000000E+00 -0.56734646581E+03  0.57483388849E+03  0.92476954368E+02 0.  0.
          2    1    3    3  502    0  0.33676268822E+02  0.31506390334E+02 -0.26282140481E+03  0.26683671887E+03  0.00000000000E+00 0. -1.
         -2    1    3    3    0  502 -0.33676268822E+02 -0.31506390334E+02 -0.30452506101E+03  0.30799716962E+03  0.00000000000E+00 0.  1.
<mgrwt>
<rscale>  0 0.92476954E+02</rscale>
<asrwt>0</asrwt>
<pdfrwt beam="2">  1        2 0.87859992E-01 0.92476954E+02</pdfrwt>
<pdfrwt beam="1">  1       -2 0.57595582E-03 0.92476954E+02</pdfrwt>
<totfact> 0.21635090E+05</totfact>
</mgrwt>
</event>
<event>
 5    1  0.4006808E+001  0.9133604E+02  0.7546771E-02  0.1299648E+00
          1   -1    0    0  501    0  0.00000000000E+00  0.00000000000E+00  0.40808672742E+03  0.40808672742E+03  0.00000000000E+00 0. -1.
         -1   -1    0    0    0  501 -0.00000000000E+00 -0.00000000000E+00 -0.51105995624E+01  0.51105995624E+01  0.00000000000E+00 0.  1.
         23    2    1    2    0    0  0.00000000000E+00  0.00000000000E+00  0.40297612785E+03  0.41319732698E+03  0.91336035617E+02 0.  0.
          2    1    3    3  502    0 -0.36726182446E+02  0.23123510213E+02  0.26579444479E+03  0.26931430723E+03  0.00000000000E+00 0. -1.
         -2    1    3    3    0  502  0.36726182446E+02 -0.23123510213E+02  0.13718168307E+03  0.14388301975E+03  0.00000000000E+00 0.  1.
<mgrwt>
<rscale>  0 0.91336036E+02</rscale>
<asrwt>0</asrwt>
<pdfrwt beam="1">  1        1 0.62782548E-01 0.91336036E+02</pdfrwt>
<pdfrwt beam="2">  1       -1 0.78624641E-03 0.91336036E+02</pdfrwt>
<totfact> 0.13470451E+05</totfact>
</mgrwt>
</event>
<event>
 5    1  0.4006808E+001  0.8597054E+02  0.7546771E-02  0.1312914E+00
         -2   -1    0    0    0  501 -0.00000000000E+00  0.00000000000E+00  0.16508029619E+03  0.16508029619E+03  0.00000000000E+00 0.  1.
          2   -1    0    0  501    0  0.00000000000E+00 -0.00000000000E+00 -0.11192937099E+02  0.11192937099E+02  0.00000000000E+00 0. -1.
         23    2    1    2    0    0  0.00000000000E+00  0.00000000000E+00  0.15388735909E+03  0.17627323329E+03  0.85970538477E+02 0.  0.
          2    1    3    3  502    0 -0.39687230939E+02  0.82998623751E+01  0.47674795736E+02  0.62584743856E+02  0.00000000000E+00 0. -1.
         -2    1    3    3    0  502  0.39687230939E+02 -0.82998623751E+01  0.10621256336E+03  0.11368848943E+03  0.00000000000E+00 0.  1.
<mgrwt>
<rscale>  0 0.85970538E+02</rscale>
<asrwt>0</asrwt>
<pdfrwt beam="2">  1        2 0.17219904E-02 0.85970538E+02</pdfrwt>
<pdfrwt beam="1">  1       -2 0.25396967E-01 0.85970538E+02</pdfrwt>
<totfact> 0.78234804E+04</totfact>
</mgrwt>
</event>
<event>
 5    1  0.4006808E+001  0.9120241E+02  0.7546771E-02  0.1299966E+00
          2   -1    0    0  501    0  0.00000000000E+00  0.00000000000E+00  0.21323188531E+02  0.21323188531E+02  0.00000000000E+00 0. -1.
         -2   -1    0    0    0  501 -0.00000000000E+00 -0.00000000000E+00 -0.97521529336E+02  0.97521529336E+02  0.00000000000E+00 0.  1.
         23    2    1    2    0    0  0.00000000000E+00  0.00000000000E+00 -0.76198340805E+02  0.11884471787E+03  0.91202411281E+02 0.  0.
          2    1    3    3  502    0 -0.14659025128E+01  0.28503907789E+02  0.82447520216E+01  0.29708543642E+02  0.00000000000E+00 0. -1.
         -2    1    3    3    0  502  0.14659025128E+01 -0.28503907789E+02 -0.84443092827E+02  0.89136174226E+02  0.00000000000E+00 0.  1.
<mgrwt>
<rscale>  0 0.91202411E+02</rscale>
<asrwt>0</asrwt>
<pdfrwt beam="1">  1        2 0.32804905E-02 0.91202411E+02</pdfrwt>
<pdfrwt beam="2">  1       -2 0.15003312E-01 0.91202411E+02</pdfrwt>
<totfact> 0.80347127E+04</totfact>
</mgrwt>
</event>
<event>
 5    1  0.4006808E+001  0.8089155E+02  0.7546771E-02  0.1326540E+00
         -2   -1    0    0    0  501 -0.00000000000E+00  0.00000000000E+00  0.12448328555E+03  0.12448328555E+03  0.00000000000E+00 0.  1.
          2   -1    0    0  501    0  0.00000000000E+00 -0.00000000000E+00 -0.13141206747E+02  0.13141206747E+02  0.00000000000E+00 0. -1.
         23    2    1    2    0    0  0.00000000000E+00  0.00000000000E+00  0.11134207880E+03  0.13762449229E+03  0.80891546949E+02 0.  0.
          2    1    3    3  502    0 -0.39293339396E+01  0.37996312247E+02  0.78286858244E+02  0.87109078651E+02  0.00000000000E+00 0.  1.
         -2    1    3    3    0  502  0.39293339396E+01 -0.37996312247E+02  0.33055220555E+02  0.50515413643E+02  0.00000000000E+00 0. -1.
<mgrwt>
<rscale>  0 0.80891547E+02</rscale>
<asrwt>0</asrwt>
<pdfrwt beam="2">  1        2 0.20217242E-02 0.80891547E+02</pdfrwt>
<pdfrwt beam="1">  1       -2 0.19151274E-01 0.80891547E+02</pdfrwt>
<totfact> 0.10064982E+05</totfact>
</mgrwt>
</event>
<event>
 5    1  0.4006808E+001  0.8882082E+02  0.7546771E-02  0.1305733E+00
          2   -1    0    0  501    0  0.00000000000E+00  0.00000000000E+00  0.23640778936E+01  0.23640778936E+01  0.00000000000E+00 0.  1.
         -2   -1    0    0    0  501 -0.00000000000E+00 -0.00000000000E+00 -0.83427218020E+03  0.83427218020E+03  0.00000000000E+00 0. -1.
         23    2    1    2    0    0  0.00000000000E+00  0.00000000000E+00 -0.83190810230E+03  0.83663625809E+03  0.88820817796E+02 0.  0.
          2    1    3    3  502    0 -0.13883584030E+02  0.31311941635E+02 -0.68222300372E+03  0.68308229255E+03  0.00000000000E+00 0. -1.
         -2    1    3    3    0  502  0.13883584030E+02 -0.31311941635E+02 -0.14968509859E+03  0.15355396554E+03  0.00000000000E+00 0.  1.
<mgrwt>
<rscale>  0 0.88820818E+02</rscale>
<asrwt>0</asrwt>
<pdfrwt beam="1">  1        2 0.36370472E-03 0.88820818E+02</pdfrwt>
<pdfrwt beam="2">  1       -2 0.12834942E+00 0.88820818E+02</pdfrwt>
<totfact> 0.24435727E+04</totfact>
</mgrwt>
</event>
<event>
 5    1  0.4006808E+001  0.7797244E+02  0.7546771E-02  0.1334906E+00
          2   -1    0    0  501    0  0.00000000000E+00  0.00000000000E+00  0.11808949767E+02  0.11808949767E+02  0.00000000000E+00 0. -1.
         -2   -1    0    0    0  501 -0.00000000000E+00 -0.00000000000E+00 -0.12870960987E+03  0.12870960987E+03  0.00000000000E+00 0.  1.
         23    2    1    2    0    0  0.00000000000E+00  0.00000000000E+00 -0.11690066010E+03  0.14051855964E+03  0.77972439170E+02 0.  0.
          2    1    3    3  502    0 -0.22579562491E+01 -0.38905242547E+02 -0.56468733115E+02  0.68610743209E+02  0.00000000000E+00 0. -1.
         -2    1    3    3    0  502  0.22579562491E+01  0.38905242547E+02 -0.60431926988E+02  0.71907816429E+02  0.00000000000E+00 0.  1.
<mgrwt>
<rscale>  0 0.77972439E+02</rscale>
<asrwt>0</asrwt>
<pdfrwt beam="1">  1        2 0.18167614E-02 0.77972439E+02</pdfrwt>
<pdfrwt beam="2">  1       -2 0.19801480E-01 0.77972439E+02</pdfrwt>
<totfact> 0.10920912E+05</totfact>
</mgrwt>
</event>
<event>
 5    1  0.4006808E+001  0.9058477E+02  0.7546771E-02  0.1301442E+00
         -1   -1    0    0    0  501 -0.00000000000E+00  0.00000000000E+00  0.23500189402E+02  0.23500189402E+02  0.00000000000E+00 0.  1.
          1   -1    0    0  501    0  0.00000000000E+00 -0.00000000000E+00 -0.87292918437E+02  0.87292918437E+02  0.00000000000E+00 0. -1.
         23    2    1    2    0    0  0.00000000000E+00  0.00000000000E+00 -0.63792729035E+02  0.11079310784E+03  0.90584769508E+02 0.  0.
          2    1    3    3  502    0  0.32584573784E+02 -0.16356054309E+02 -0.64763647064E+02  0.74320958970E+02  0.00000000000E+00 0. -1.
         -2    1    3    3    0  502 -0.32584573784E+02  0.16356054309E+02  0.97091802872E+00  0.36472148869E+02  0.00000000000E+00 0.  1.
<mgrwt>
<rscale>  0 0.90584770E+02</rscale>
<asrwt>0</asrwt>
<pdfrwt beam="2">  1        1 0.13429680E-01 0.90584770E+02</pdfrwt>
<pdfrwt beam="1">  1       -1 0.36154137E-02 0.90584770E+02</pdfrwt>
<totfact> 0.10399116E+05</totfact>
</mgrwt>
</event>
<event>
 5    1  0.4006808E+001  0.9099510E+02  0.7546771E-02  0.1300460E+00
          1   -1    0    0  501    0  0.00000000000E+00  0.00000000000E+00  0.11307875414E+03  0.11307875414E+03  0.00000000000E+00 0. -1.
         -1   -1    0    0    0  501 -0.00000000000E+00 -0.00000000000E+00 -0.18306064395E+02  0.18306064395E+02  0.00000000000E+00 0.  1.
         23    2    1    2    0    0  0.00000000000E+00  0.00000000000E+00  0.94772689748E+02  0.13138481854E+03  0.90995097780E+02 0.  0.
          2    1    3    3  502    0  0.34859415892E+02 -0.28979804715E+02  0.52981957732E+02  0.69728730110E+02  0.00000000000E+00 0. -1.
         -2    1    3    3    0  502 -0.34859415892E+02  0.28979804715E+02  0.41790732016E+02  0.61656088427E+02  0.00000000000E+00 0.  1.
<mgrwt>
<rscale>  0 0.90995098E+02</rscale>
<asrwt>0</asrwt>
<pdfrwt beam="1">  1        1 0.17396731E-01 0.90995098E+02</pdfrwt>
<pdfrwt beam="2">  1       -1 0.28163177E-02 0.90995098E+02</pdfrwt>
<totfact> 0.10722049E+05</totfact>
</mgrwt>
</event>
<event>
 5    1  0.4006808E+001  0.8757837E+02  0.7546771E-02  0.1308824E+00
         -2   -1    0    0    0  501 -0.00000000000E+00  0.00000000000E+00  0.20267870632E+01  0.20267870632E+01  0.00000000000E+00 0.  1.
          2   -1    0    0  501    0  0.00000000000E+00 -0.00000000000E+00 -0.94607506437E+03  0.94607506437E+03  0.00000000000E+00 0. -1.
         23    2    1    2    0    0  0.00000000000E+00  0.00000000000E+00 -0.94404827730E+03  0.94810185143E+03  0.87578369505E+02 0.  0.
          2    1    3    3  502    0  0.28379467834E+02  0.23835842606E+02 -0.72451058770E+03  0.72545787837E+03  0.00000000000E+00 0. -1.
         -2    1    3    3    0  502 -0.28379467834E+02 -0.23835842606E+02 -0.21953768960E+03  0.22264397306E+03  0.00000000000E+00 0.  1.
<mgrwt>
<rscale>  0 0.87578370E+02</rscale>
<asrwt>0</asrwt>
<pdfrwt beam="2">  1        2 0.14555004E+00 0.87578370E+02</pdfrwt>
<pdfrwt beam="1">  1       -2 0.31181333E-03 0.87578370E+02</pdfrwt>
<totfact> 0.27695711E+05</totfact>
</mgrwt>
</event>
<event>
 5    1  0.4006808E+001  0.9108865E+02  0.7546771E-02  0.1300237E+00
         -2   -1    0    0    0  501 -0.00000000000E+00  0.00000000000E+00  0.88620416555E+01  0.88620416555E+01  0.00000000000E+00 0. -1.
          2   -1    0    0  501    0  0.00000000000E+00 -0.00000000000E+00 -0.23406405562E+03  0.23406405562E+03  0.00000000000E+00 0.  1.
         23    2    1    2    0    0  0.00000000000E+00  0.00000000000E+00 -0.22520201397E+03  0.24292609728E+03  0.91088647173E+02 0.  0.
          2    1    3    3  502    0  0.10702583297E+02  0.42984577462E+02 -0.14083337372E+03  0.14763555921E+03  0.00000000000E+00 0.  1.
         -2    1    3    3    0  502 -0.10702583297E+02 -0.42984577462E+02 -0.84368640246E+02  0.95290538071E+02  0.00000000000E+00 0. -1.
<mgrwt>
<rscale>  0 0.91088647E+02</rscale>
<asrwt>0</asrwt>
<pdfrwt beam="2">  1        2 0.36009849E-01 0.91088647E+02</pdfrwt>
<pdfrwt beam="1">  1       -2 0.13633913E-02 0.91088647E+02</pdfrwt>
<totfact> 0.16425328E+05</totfact>
</mgrwt>
</event>
<event>
 5    1  0.4006808E+001  0.9588929E+02  0.7546771E-02  0.1289186E+00
          2   -1    0    0  501    0  0.00000000000E+00  0.00000000000E+00  0.50416867988E+03  0.50416867988E+03  0.00000000000E+00 0. -1.
         -2   -1    0    0    0  501 -0.00000000000E+00 -0.00000000000E+00 -0.45593650448E+01  0.45593650448E+01  0.00000000000E+00 0.  1.
         23    2    1    2    0    0  0.00000000000E+00  0.00000000000E+00  0.49960931483E+03  0.50872804492E+03  0.95889291493E+02 0.  0.
          2    1    3    3  502    0  0.32324872815E+02 -0.21693585371E+02  0.39827727536E+03  0.40017533296E+03  0.00000000000E+00 0. -1.
         -2    1    3    3    0  502 -0.32324872815E+02  0.21693585371E+02  0.10133203948E+03  0.10855271196E+03  0.00000000000E+00 0.  1.
<mgrwt>
<rscale>  0 0.95889291E+02</rscale>
<asrwt>0</asrwt>
<pdfrwt beam="1">  1        2 0.77564368E-01 0.95889291E+02</pdfrwt>
<pdfrwt beam="2">  1       -2 0.70144117E-03 0.95889291E+02</pdfrwt>
<totfact> 0.18902505E+05</totfact>
</mgrwt>
</event>
<event>
 5    1  0.4006808E+001  0.9327737E+02  0.7546771E-02  0.1295104E+00
         -1   -1    0    0    0  501 -0.00000000000E+00  0.00000000000E+00  0.94330338709E+01  0.94330338709E+01  0.00000000000E+00 0.  1.
          1   -1    0    0  501    0  0.00000000000E+00 -0.00000000000E+00 -0.23059040907E+03  0.23059040907E+03  0.00000000000E+00 0. -1.
         23    2    1    2    0    0  0.00000000000E+00  0.00000000000E+00 -0.22115737520E+03  0.24002344294E+03  0.93277374300E+02 0.  0.
          2    1    3    3  502    0  0.13646490978E+02  0.39073278651E+02 -0.16590113634E+03  0.17098577385E+03  0.00000000000E+00 0. -1.
         -2    1    3    3    0  502 -0.13646490978E+02 -0.39073278651E+02 -0.55256238863E+02  0.69037669094E+02  0.00000000000E+00 0.  1.
<mgrwt>
<rscale>  0 0.93277374E+02</rscale>
<asrwt>0</asrwt>
<pdfrwt beam="2">  1        1 0.35475443E-01 0.93277374E+02</pdfrwt>
<pdfrwt beam="1">  1       -1 0.14512362E-02 0.93277374E+02</pdfrwt>
<totfact> 0.11452620E+05</totfact>
</mgrwt>
</event>
<event>
 5    1  0.4006808E+001  0.9122530E+02  0.7546771E-02  0.1299911E+00
          1   -1    0    0  501    0  0.00000000000E+00  0.00000000000E+00  0.13256847436E+03  0.13256847436E+03  0.00000000000E+00 0. -1.
         -1   -1    0    0    0  501 -0.00000000000E+00 -0.00000000000E+00 -0.15693880351E+02  0.15693880351E+02  0.00000000000E+00 0.  1.
         23    2    1    2    0    0  0.00000000000E+00  0.00000000000E+00  0.11687459401E+03  0.14826235471E+03  0.91225298572E+02 0.  0.
          2    1    3    3  502    0 -0.32945364379E+02 -0.31900823319E+01  0.10944320850E+03  0.11433892402E+03  0.00000000000E+00 0. -1.
         -2    1    3    3    0  502  0.32945364379E+02  0.31900823319E+01  0.74313855108E+01  0.33923430693E+02  0.00000000000E+00 0.  1.
<mgrwt>
<rscale>  0 0.91225299E+02</rscale>
<asrwt>0</asrwt>
<pdfrwt beam="1">  1        1 0.20395149E-01 0.91225299E+02</pdfrwt>
<pdfrwt beam="2">  1       -1 0.24144432E-02 0.91225299E+02</pdfrwt>
<totfact> 0.10949129E+05</totfact>
</mgrwt>
</event>
<event>
 5    1  0.4006808E+001  0.9067432E+02  0.7546771E-02  0.1301227E+00
         -2   -1    0    0    0  501 -0.00000000000E+00  0.00000000000E+00  0.47412802720E+01  0.47412802720E+01  0.00000000000E+00 0.  1.
          2   -1    0    0  501    0  0.00000000000E+00 -0.00000000000E+00 -0.43352382180E+03  0.43352382180E+03  0.00000000000E+00 0. -1.
         23    2    1    2    0    0  0.00000000000E+00  0.00000000000E+00 -0.42878254153E+03  0.43826510207E+03  0.90674317064E+02 0.  0.
          2    1    3    3  502    0  0.36137301079E+02 -0.33872906521E+01 -0.34570321162E+03  0.34760334980E+03  0.00000000000E+00 0. -1.
         -2    1    3    3    0  502 -0.36137301079E+02  0.33872906521E+01 -0.83079329909E+02  0.90661752274E+02  0.00000000000E+00 0.  1.
<mgrwt>
<rscale>  0 0.90674317E+02</rscale>
<asrwt>0</asrwt>
<pdfrwt beam="2">  1        2 0.66695962E-01 0.90674317E+02</pdfrwt>
<pdfrwt beam="1">  1       -2 0.72942785E-03 0.90674317E+02</pdfrwt>
<totfact> 0.20840729E+05</totfact>
</mgrwt>
</event>
<event>
 5    1  0.4006808E+001  0.9078714E+02  0.7546771E-02  0.1300957E+00
         -1   -1    0    0    0  501 -0.00000000000E+00  0.00000000000E+00  0.95302569701E+02  0.95302569701E+02  0.00000000000E+00 0.  1.
          1   -1    0    0  501    0  0.00000000000E+00 -0.00000000000E+00 -0.21621410442E+02  0.21621410442E+02  0.00000000000E+00 0. -1.
         23    2    1    2    0    0  0.00000000000E+00  0.00000000000E+00  0.73681159259E+02  0.11692398014E+03  0.90787135118E+02 0.  0.
          2    1    3    3  502    0 -0.19372651892E+02  0.37241178463E+02  0.14594291622E+02  0.44443203783E+02  0.00000000000E+00 0. -1.
         -2    1    3    3    0  502  0.19372651892E+02 -0.37241178463E+02  0.59086867637E+02  0.72480776360E+02  0.00000000000E+00 0.  1.
<mgrwt>
<rscale>  0 0.90787135E+02</rscale>
<asrwt>0</asrwt>
<pdfrwt beam="2">  1        1 0.33263709E-02 0.90787135E+02</pdfrwt>
<pdfrwt beam="1">  1       -1 0.14661934E-01 0.90787135E+02</pdfrwt>
<totfact> 0.83002875E+04</totfact>
</mgrwt>
</event>
<event>
 5    1  0.4006808E+001  0.9684942E+02  0.7546771E-02  0.1287064E+00
          1   -1    0    0  501    0  0.00000000000E+00  0.00000000000E+00  0.37405416112E+03  0.37405416112E+03  0.00000000000E+00 0. -1.
         -1   -1    0    0    0  501 -0.00000000000E+00 -0.00000000000E+00 -0.62690186254E+01  0.62690186254E+01  0.00000000000E+00 0.  1.
         23    2    1    2    0    0  0.00000000000E+00  0.00000000000E+00  0.36778514249E+03  0.38032317974E+03  0.96849419265E+02 0.  0.
          2    1    3    3  502    0 -0.38818709665E+02  0.20714507032E+02  0.26330733072E+03  0.26695829905E+03  0.00000000000E+00 0. -1.
         -2    1    3    3    0  502  0.38818709665E+02 -0.20714507032E+02  0.10447781178E+03  0.11336488070E+03  0.00000000000E+00 0.  1.
<mgrwt>
<rscale>  0 0.96849419E+02</rscale>
<asrwt>0</asrwt>
<pdfrwt beam="1">  1        1 0.57546777E-01 0.96849419E+02</pdfrwt>
<pdfrwt beam="2">  1       -1 0.96446470E-03 0.96849419E+02</pdfrwt>
<totfact> 0.11354940E+05</totfact>
</mgrwt>
</event>
<event>
 5    1  0.4006808E+001  0.9017041E+02  0.7546771E-02  0.1302440E+00
         -2   -1    0    0    0  501 -0.00000000000E+00  0.00000000000E+00  0.10148873879E+02  0.10148873879E+02  0.00000000000E+00 0.  1.
          2   -1    0    0  501    0  0.00000000000E+00 -0.00000000000E+00 -0.20028583293E+03  0.20028583293E+03  0.00000000000E+00 0. -1.
         23    2    1    2    0    0  0.00000000000E+00  0.00000000000E+00 -0.19013695905E+03  0.21043470681E+03  0.90170408852E+02 0.  0.
          2    1    3    3  502    0  0.11088391718E+01 -0.45060275438E+02 -0.97422800214E+02  0.10734458509E+03  0.00000000000E+00 0.  1.
         -2    1    3    3    0  502 -0.11088391718E+01  0.45060275438E+02 -0.92714158836E+02  0.10309012172E+03  0.00000000000E+00 0. -1.
<mgrwt>
<rscale>  0 0.90170409E+02</rscale>
<asrwt>0</asrwt>
<pdfrwt beam="2">  1        2 0.30813203E-01 0.90170409E+02</pdfrwt>
<pdfrwt beam="1">  1       -2 0.15613653E-02 0.90170409E+02</pdfrwt>
<totfact> 0.15944816E+05</totfact>
</mgrwt>
</event>
<event>
 5    1  0.4006808E+001  0.1067310E+03  0.7546771E-02  0.1266746E+00
          4   -1    0    0  501    0  0.00000000000E+00  0.00000000000E+00  0.22222700157E+03  0.22222700157E+03  0.00000000000E+00 0.  1.
         -4   -1    0    0    0  501 -0.00000000000E+00 -0.00000000000E+00 -0.12815174369E+02  0.12815174369E+02  0.00000000000E+00 0. -1.
         23    2    1    2    0    0  0.00000000000E+00  0.00000000000E+00  0.20941182720E+03  0.23504217594E+03  0.10673102219E+03 0.  0.
          2    1    3    3  502    0 -0.38820632535E+02 -0.10612653571E+02  0.18188347720E+03  0.18628276680E+03  0.00000000000E+00 0.  1.
         -2    1    3    3    0  502  0.38820632535E+02  0.10612653571E+02  0.27528349998E+02  0.48759409142E+02  0.00000000000E+00 0. -1.
<mgrwt>
<rscale>  0 0.10673102E+03</rscale>
<asrwt>0</asrwt>
<pdfrwt beam="1">  1        4 0.34188767E-01 0.10673102E+03</pdfrwt>
<pdfrwt beam="2">  1       -4 0.19715654E-02 0.10673102E+03</pdfrwt>
<totfact> 0.13075775E+04</totfact>
</mgrwt>
</event>
<event>
 5    1  0.4006808E+001  0.8853566E+02  0.7546771E-02  0.1306437E+00
          1   -1    0    0  501    0  0.00000000000E+00  0.00000000000E+00  0.17797647440E+02  0.17797647440E+02  0.00000000000E+00 0. -1.
         -1   -1    0    0    0  501 -0.00000000000E+00 -0.00000000000E+00 -0.11010673370E+03  0.11010673370E+03  0.00000000000E+00 0.  1.
         23    2    1    2    0    0  0.00000000000E+00  0.00000000000E+00 -0.92309086265E+02  0.12790438114E+03  0.88535661227E+02 0.  0.
          2    1    3    3  502    0  0.20920836372E+02 -0.62830464340E+01  0.94694306168E+01  0.23808153712E+02  0.00000000000E+00 0. -1.
         -2    1    3    3    0  502 -0.20920836372E+02  0.62830464340E+01 -0.10177851688E+03  0.10409622743E+03  0.00000000000E+00 0.  1.
<mgrwt>
<rscale>  0 0.88535661E+02</rscale>
<asrwt>0</asrwt>
<pdfrwt beam="1">  1        1 0.27380996E-02 0.88535661E+02</pdfrwt>
<pdfrwt beam="2">  1       -1 0.16939498E-01 0.88535661E+02</pdfrwt>
<totfact> 0.86179088E+04</totfact>
</mgrwt>
</event>
<event>
 5    1  0.4006808E+001  0.9183080E+02  0.7546771E-02  0.1298478E+00
         -2   -1    0    0    0  501 -0.00000000000E+00  0.00000000000E+00  0.98941326333E+02  0.98941326333E+02  0.00000000000E+00 0.  1.
          2   -1    0    0  501    0  0.00000000000E+00 -0.00000000000E+00 -0.21307819767E+02  0.21307819767E+02  0.00000000000E+00 0. -1.
         23    2    1    2    0    0  0.00000000000E+00  0.00000000000E+00  0.77633506566E+02  0.12024914610E+03  0.91830799823E+02 0.  0.
          2    1    3    3  502    0  0.72200909111E+01  0.21365832734E+02 -0.13555192694E+02  0.26312958218E+02  0.00000000000E+00 0. -1.
         -2    1    3    3    0  502 -0.72200909111E+01 -0.21365832734E+02  0.91188699260E+02  0.93936187883E+02  0.00000000000E+00 0.  1.
<mgrwt>
<rscale>  0 0.91830800E+02</rscale>
<asrwt>0</asrwt>
<pdfrwt beam="2">  1        2 0.32781262E-02 0.91830800E+02</pdfrwt>
<pdfrwt beam="1">  1       -2 0.15221742E-01 0.91830800E+02</pdfrwt>
<totfact> 0.78647802E+04</totfact>
</mgrwt>
</event>
<event>
 5    1  0.4006808E+001  0.8774738E+02  0.7546771E-02  0.1308400E+00
          2   -1    0    0  501    0  0.00000000000E+00  0.00000000000E+00  0.98645634389E+02  0.98645634389E+02  0.00000000000E+00 0. -1.
         -2   -1    0    0    0  501 -0.00000000000E+00 -0.00000000000E+00 -0.19513288037E+02  0.19513288037E+02  0.00000000000E+00 0.  1.
         23    2    1    2    0    0  0.00000000000E+00  0.00000000000E+00  0.79132346352E+02  0.11815892243E+03  0.87747380074E+02 0.  0.
          2    1    3    3  502    0 -0.16601964643E+02  0.21760930255E+02 -0.66067662271E+01  0.28156929441E+02  0.00000000000E+00 0.  1.
         -2    1    3    3    0  502  0.16601964643E+02 -0.21760930255E+02  0.85739112579E+02  0.90001992985E+02  0.00000000000E+00 0. -1.
<mgrwt>
<rscale>  0 0.87747380E+02</rscale>
<asrwt>0</asrwt>
<pdfrwt beam="1">  1        2 0.15176251E-01 0.87747380E+02</pdfrwt>
<pdfrwt beam="2">  1       -2 0.30020444E-02 0.87747380E+02</pdfrwt>
<totfact> 0.13572452E+05</totfact>
</mgrwt>
</event>
<event>
 5    1  0.4006808E+001  0.9124449E+02  0.7546771E-02  0.1299866E+00
          2   -1    0    0  501    0  0.00000000000E+00  0.00000000000E+00  0.23036362694E+03  0.23036362694E+03  0.00000000000E+00 0. -1.
         -2   -1    0    0    0  501 -0.00000000000E+00 -0.00000000000E+00 -0.90352348123E+01  0.90352348123E+01  0.00000000000E+00 0.  1.
         23    2    1    2    0    0  0.00000000000E+00  0.00000000000E+00  0.22132839213E+03  0.23939886175E+03  0.91244494883E+02 0.  0.
          2    1    3    3  502    0  0.31888431528E+02  0.19558860719E+02  0.42147324678E+02  0.56354397126E+02  0.00000000000E+00 0. -1.
         -2    1    3    3    0  502 -0.31888431528E+02 -0.19558860719E+02  0.17918106745E+03  0.18304446462E+03  0.00000000000E+00 0.  1.
<mgrwt>
<rscale>  0 0.91244495E+02</rscale>
<asrwt>0</asrwt>
<pdfrwt beam="1">  1        2 0.35440554E-01 0.91244495E+02</pdfrwt>
<pdfrwt beam="2">  1       -2 0.13900363E-02 0.91244495E+02</pdfrwt>
<totfact> 0.16254506E+05</totfact>
</mgrwt>
</event>
<event>
 5    1  0.4006808E+001  0.9135406E+02  0.7546771E-02  0.1299605E+00
         -1   -1    0    0    0  501 -0.00000000000E+00  0.00000000000E+00  0.72709425582E+01  0.72709425582E+01  0.00000000000E+00 0.  1.
          1   -1    0    0  501    0  0.00000000000E+00 -0.00000000000E+00 -0.28694921980E+03  0.28694921980E+03  0.00000000000E+00 0. -1.
         23    2    1    2    0    0  0.00000000000E+00  0.00000000000E+00 -0.27967827724E+03  0.29422016236E+03  0.91354064919E+02 0.  0.
          2    1    3    3  502    0 -0.32195650582E+02 -0.16152205496E+02 -0.23030107739E+03  0.23310092215E+03  0.00000000000E+00 0. -1.
         -2    1    3    3    0  502  0.32195650582E+02  0.16152205496E+02 -0.49377199851E+02  0.61119240210E+02  0.00000000000E+00 0.  1.
<mgrwt>
<rscale>  0 0.91354065E+02</rscale>
<asrwt>0</asrwt>
<pdfrwt beam="2">  1        1 0.44146026E-01 0.91354065E+02</pdfrwt>
<pdfrwt beam="1">  1       -1 0.11186068E-02 0.91354065E+02</pdfrwt>
<totfact> 0.12637725E+05</totfact>
</mgrwt>
</event>
<event>
 5    1  0.4006808E+001  0.8912475E+02  0.7546771E-02  0.1304985E+00
          1   -1    0    0  501    0  0.00000000000E+00  0.00000000000E+00  0.26123294593E+03  0.26123294593E+03  0.00000000000E+00 0. -1.
         -1   -1    0    0    0  501 -0.00000000000E+00 -0.00000000000E+00 -0.76016651223E+01  0.76016651223E+01  0.00000000000E+00 0.  1.
         23    2    1    2    0    0  0.00000000000E+00  0.00000000000E+00  0.25363128081E+03  0.26883461106E+03  0.89124752429E+02 0.  0.
          2    1    3    3  502    0  0.44743558975E+01 -0.32492745892E+02  0.21780889645E+03  0.22026464485E+03  0.00000000000E+00 0. -1.
         -2    1    3    3    0  502 -0.44743558975E+01  0.32492745892E+02  0.35822384359E+02  0.48569966208E+02  0.00000000000E+00 0.  1.
<mgrwt>
<rscale>  0 0.89124752E+02</rscale>
<asrwt>0</asrwt>
<pdfrwt beam="1">  1        1 0.40189677E-01 0.89124752E+02</pdfrwt>
<pdfrwt beam="2">  1       -1 0.11694871E-02 0.89124752E+02</pdfrwt>
<totfact> 0.13253659E+05</totfact>
</mgrwt>
</event>
<event>
 5    1  0.4006808E+001  0.9053351E+02  0.7546771E-02  0.1301565E+00
         -2   -1    0    0    0  501 -0.00000000000E+00  0.00000000000E+00  0.77456322621E+00  0.77456322621E+00  0.00000000000E+00 0.  1.
          2   -1    0    0  501    0  0.00000000000E+00 -0.00000000000E+00 -0.26454641641E+04  0.26454641641E+04  0.00000000000E+00 0. -1.
         23    2    1    2    0    0  0.00000000000E+00  0.00000000000E+00 -0.26446896009E+04  0.26462387273E+04  0.90533513303E+02 0.  0.
          2    1    3    3  502    0 -0.36230494394E+02  0.25365906725E+02 -0.16042247462E+04  0.16048342949E+04  0.00000000000E+00 0. -1.
         -2    1    3    3    0  502  0.36230494394E+02 -0.25365906725E+02 -0.10404648547E+04  0.10414044324E+04  0.00000000000E+00 0.  1.
<mgrwt>
<rscale>  0 0.90533513E+02</rscale>
<asrwt>0</asrwt>
<pdfrwt beam="2">  1        2 0.40699708E+00 0.90533513E+02</pdfrwt>
<pdfrwt beam="1">  1       -2 0.11916281E-03 0.90533513E+02</pdfrwt>
<totfact> 0.13701553E+05</totfact>
</mgrwt>
</event>
<event>
 5    1  0.4006808E+001  0.7298868E+02  0.7546771E-02  0.1350215E+00
         -1   -1    0    0    0  501 -0.00000000000E+00  0.00000000000E+00  0.27793046359E+02  0.27793046359E+02  0.00000000000E+00 0.  1.
          1   -1    0    0  501    0  0.00000000000E+00 -0.00000000000E+00 -0.47919788222E+02  0.47919788222E+02  0.00000000000E+00 0. -1.
         23    2    1    2    0    0  0.00000000000E+00  0.00000000000E+00 -0.20126741863E+02  0.75712834581E+02  0.72988681193E+02 0.  0.
          2    1    3    3  502    0  0.28901470774E+02  0.13107946197E+02 -0.28756023555E+02  0.42825484902E+02  0.00000000000E+00 0. -1.
         -2    1    3    3    0  502 -0.28901470774E+02 -0.13107946197E+02  0.86292816925E+01  0.32887349679E+02  0.00000000000E+00 0.  1.
<mgrwt>
<rscale>  0 0.72988681E+02</rscale>
<asrwt>0</asrwt>
<pdfrwt beam="2">  1        1 0.73722750E-02 0.72988681E+02</pdfrwt>
<pdfrwt beam="1">  1       -1 0.42758534E-02 0.72988681E+02</pdfrwt>
<totfact> 0.17180493E+05</totfact>
</mgrwt>
</event>
<event>
 5    1  0.4006808E+001  0.8645487E+02  0.7546771E-02  0.1311671E+00
          1   -1    0    0  501    0  0.00000000000E+00  0.00000000000E+00  0.11585647053E+03  0.11585647053E+03  0.00000000000E+00 0. -1.
         -1   -1    0    0    0  501 -0.00000000000E+00 -0.00000000000E+00 -0.16128672956E+02  0.16128672956E+02  0.00000000000E+00 0.  1.
         23    2    1    2    0    0  0.00000000000E+00  0.00000000000E+00  0.99727797571E+02  0.13198514348E+03  0.86454869682E+02 0.  0.
          2    1    3    3  502    0  0.19481041787E+02 -0.29930933145E+02  0.12680372573E+02  0.37896749156E+02  0.00000000000E+00 0. -1.
         -2    1    3    3    0  502 -0.19481041787E+02  0.29930933145E+02  0.87047424998E+02  0.94088394326E+02  0.00000000000E+00 0.  1.
<mgrwt>
<rscale>  0 0.86454870E+02</rscale>
<asrwt>0</asrwt>
<pdfrwt beam="1">  1        1 0.17824072E-01 0.86454870E+02</pdfrwt>
<pdfrwt beam="2">  1       -1 0.24813344E-02 0.86454870E+02</pdfrwt>
<totfact> 0.12364386E+05</totfact>
</mgrwt>
</event>
<event>
 5    1  0.4006808E+001  0.9139729E+02  0.7546771E-02  0.1299503E+00
         -1   -1    0    0    0  501 -0.00000000000E+00  0.00000000000E+00  0.51548831670E+01  0.51548831670E+01  0.00000000000E+00 0.  1.
          1   -1    0    0  501    0  0.00000000000E+00 -0.00000000000E+00 -0.40512384895E+03  0.40512384895E+03  0.00000000000E+00 0. -1.
         23    2    1    2    0    0  0.00000000000E+00  0.00000000000E+00 -0.39996896578E+03  0.41027873212E+03  0.91397289008E+02 0.  0.
          2    1    3    3  502    0  0.27611303473E+01  0.34504721883E+02 -0.66053425278E+02  0.74573820232E+02  0.00000000000E+00 0.  1.
         -2    1    3    3    0  502 -0.27611303473E+01 -0.34504721883E+02 -0.33391554051E+03  0.33570491189E+03  0.00000000000E+00 0. -1.
<mgrwt>
<rscale>  0 0.91397289E+02</rscale>
<asrwt>0</asrwt>
<pdfrwt beam="2">  1        1 0.62326786E-01 0.91397289E+02</pdfrwt>
<pdfrwt beam="1">  1       -1 0.79305843E-03 0.91397289E+02</pdfrwt>
<totfact> 0.13430690E+05</totfact>
</mgrwt>
</event>
<event>
 5    1  0.4006808E+001  0.9156035E+02  0.7546771E-02  0.1299116E+00
          2   -1    0    0  501    0  0.00000000000E+00  0.00000000000E+00  0.14264113397E+03  0.14264113397E+03  0.00000000000E+00 0. -1.
         -2   -1    0    0    0  501 -0.00000000000E+00 -0.00000000000E+00 -0.14692988678E+02  0.14692988678E+02  0.00000000000E+00 0.  1.
         23    2    1    2    0    0  0.00000000000E+00  0.00000000000E+00  0.12794814529E+03  0.15733412265E+03  0.91560353131E+02 0.  0.
          2    1    3    3  502    0  0.26734566427E+02  0.28796035868E+02  0.10434197249E+03  0.11149527321E+03  0.00000000000E+00 0. -1.
         -2    1    3    3    0  502 -0.26734566427E+02 -0.28796035868E+02  0.23606172797E+02  0.45838849439E+02  0.00000000000E+00 0.  1.
<mgrwt>
<rscale>  0 0.91560353E+02</rscale>
<asrwt>0</asrwt>
<pdfrwt beam="1">  1        2 0.21944789E-01 0.91560353E+02</pdfrwt>
<pdfrwt beam="2">  1       -2 0.22604599E-02 0.91560353E+02</pdfrwt>
<totfact> 0.13589070E+05</totfact>
</mgrwt>
</event>
<event>
 5    1  0.4006808E+001  0.9059730E+02  0.7546771E-02  0.1301412E+00
         -3   -1    0    0    0  501 -0.00000000000E+00  0.00000000000E+00  0.32685762906E+03  0.32685762906E+03  0.00000000000E+00 0.  1.
          3   -1    0    0  501    0  0.00000000000E+00 -0.00000000000E+00 -0.62778633555E+01  0.62778633555E+01  0.00000000000E+00 0. -1.
         23    2    1    2    0    0  0.00000000000E+00  0.00000000000E+00  0.32057976571E+03  0.33313549242E+03  0.90597296471E+02 0.  0.
          2    1    3    3  502    0  0.19047054173E+02 -0.19208831373E+02  0.26684113676E+02  0.37997518315E+02  0.00000000000E+00 0. -1.
         -2    1    3    3    0  502 -0.19047054173E+02  0.19208831373E+02  0.29389565203E+03  0.29513797410E+03  0.00000000000E+00 0.  1.
<mgrwt>
<rscale>  0 0.90597296E+02</rscale>
<asrwt>0</asrwt>
<pdfrwt beam="2">  1        3 0.96582539E-03 0.90597296E+02</pdfrwt>
<pdfrwt beam="1">  1       -3 0.50285776E-01 0.90597296E+02</pdfrwt>
<totfact> 0.23185932E+04</totfact>
</mgrwt>
</event>
<event>
 5    1  0.4006808E+001  0.9228215E+02  0.7546771E-02  0.1297417E+00
         -2   -1    0    0    0  501 -0.00000000000E+00  0.00000000000E+00  0.16346644632E+01  0.16346644632E+01  0.00000000000E+00 0.  1.
          2   -1    0    0  501    0  0.00000000000E+00 -0.00000000000E+00 -0.13024070956E+04  0.13024070956E+04  0.00000000000E+00 0. -1.
         23    2    1    2    0    0  0.00000000000E+00  0.00000000000E+00 -0.13007724311E+04  0.13040417601E+04  0.92282145528E+02 0.  0.
          2    1    3    3  502    0 -0.24099507654E+02  0.22019448525E+02 -0.11111869925E+04  0.11116663954E+04  0.00000000000E+00 0. -1.
         -2    1    3    3    0  502  0.24099507654E+02 -0.22019448525E+02 -0.18958543866E+03  0.19237536468E+03  0.00000000000E+00 0.  1.
<mgrwt>
<rscale>  0 0.92282146E+02</rscale>
<asrwt>0</asrwt>
<pdfrwt beam="2">  1        2 0.20037123E+00 0.92282146E+02</pdfrwt>
<pdfrwt beam="1">  1       -2 0.25148570E-03 0.92282146E+02</pdfrwt>
<totfact> 0.23793134E+05</totfact>
</mgrwt>
</event>
<event>
 5    1  0.4006808E+001  0.8635150E+02  0.7546771E-02  0.1311936E+00
         -1   -1    0    0    0  501 -0.00000000000E+00  0.00000000000E+00  0.57913125599E+03  0.57913125599E+03  0.00000000000E+00 0.  1.
          1   -1    0    0  501    0  0.00000000000E+00 -0.00000000000E+00 -0.32188649687E+01  0.32188649687E+01  0.00000000000E+00 0. -1.
         23    2    1    2    0    0  0.00000000000E+00  0.00000000000E+00  0.57591239102E+03  0.58235012096E+03  0.86351498242E+02 0.  0.
          2    1    3    3  502    0 -0.28531032669E+02  0.32877249995E+01  0.70541861840E+02  0.76164186024E+02  0.00000000000E+00 0. -1.
         -2    1    3    3    0  502  0.28531032669E+02 -0.32877249995E+01  0.50537052918E+03  0.50618593494E+03  0.00000000000E+00 0.  1.
<mgrwt>
<rscale>  0 0.86351498E+02</rscale>
<asrwt>0</asrwt>
<pdfrwt beam="2">  1        1 0.49521046E-03 0.86351498E+02</pdfrwt>
<pdfrwt beam="1">  1       -1 0.89097033E-01 0.86351498E+02</pdfrwt>
<totfact> 0.49220819E+04</totfact>
</mgrwt>
</event>
<event>
 5    1  0.4006808E+001  0.6483892E+02  0.7546771E-02  0.1378578E+00
         -4   -1    0    0    0  501 -0.00000000000E+00  0.00000000000E+00  0.83203898631E+03  0.83203898631E+03  0.00000000000E+00 0.  1.
          4   -1    0    0  501    0  0.00000000000E+00 -0.00000000000E+00 -0.12631877077E+01  0.12631877077E+01  0.00000000000E+00 0. -1.
         23    2    1    2    0    0  0.00000000000E+00  0.00000000000E+00  0.83077579860E+03  0.83330217401E+03  0.64838921023E+02 0.  0.
          2    1    3    3  502    0 -0.21901512694E+02 -0.47863762795E+01  0.11441345627E+03  0.11658912742E+03  0.00000000000E+00 0. -1.
         -2    1    3    3    0  502  0.21901512694E+02  0.47863762795E+01  0.71636234232E+03  0.71671304659E+03  0.00000000000E+00 0.  1.
<mgrwt>
<rscale>  0 0.64838921E+02</rscale>
<asrwt>0</asrwt>
<pdfrwt beam="2">  1        4 0.19433724E-03 0.64838921E+02</pdfrwt>
<pdfrwt beam="1">  1       -4 0.12800556E+00 0.64838921E+02</pdfrwt>
<totfact> 0.20514571E+04</totfact>
</mgrwt>
</event>
<event>
 4    1  0.4006808E+001  0.5366257E+02  0.7546771E-02  0.1426532E+00
          4   -1    0    0  501    0  0.00000000000E+00  0.00000000000E+00  0.28041872674E+03  0.28041872674E+03  0.00000000000E+00 0.  1.
         -4   -1    0    0    0  501 -0.00000000000E+00 -0.00000000000E+00 -0.25672959060E+01  0.25672959060E+01  0.00000000000E+00 0. -1.
          2    1    1    2  502    0 -0.20684678171E+02  0.30892427814E+01  0.50288321634E+02  0.54463883673E+02  0.00000000000E+00 0. -1.
         -2    1    1    2    0  502  0.20684678171E+02 -0.30892427814E+01  0.22756310920E+03  0.22852213898E+03  0.00000000000E+00 0.  1.
<mgrwt>
<rscale>  0 0.53662570E+02</rscale>
<asrwt>0</asrwt>
<pdfrwt beam="1">  1        4 0.43141318E-01 0.53662570E+02</pdfrwt>
<pdfrwt beam="2">  1       -4 0.39496882E-03 0.53662570E+02</pdfrwt>
<totfact> 0.71236757E+04</totfact>
</mgrwt>
</event>
<event>
 5    1  0.4006808E+001  0.9085526E+02  0.7546771E-02  0.1300794E+00
          2   -1    0    0  501    0  0.00000000000E+00  0.00000000000E+00  0.29513191598E+01  0.29513191598E+01  0.00000000000E+00 0. -1.
         -2   -1    0    0    0  501 -0.00000000000E+00 -0.00000000000E+00 -0.69923632367E+03  0.69923632367E+03  0.00000000000E+00 0.  1.
         23    2    1    2    0    0  0.00000000000E+00  0.00000000000E+00 -0.69628500451E+03  0.70218764283E+03  0.90855259821E+02 0.  0.
          2    1    3    3  502    0  0.50420711695E+01 -0.41510766100E+02 -0.21095023433E+03  0.21505480127E+03  0.00000000000E+00 0. -1.
         -2    1    3    3    0  502 -0.50420711695E+01  0.41510766100E+02 -0.48533477018E+03  0.48713284156E+03  0.00000000000E+00 0.  1.
<mgrwt>
<rscale>  0 0.90855260E+02</rscale>
<asrwt>0</asrwt>
<pdfrwt beam="1">  1        2 0.45404852E-03 0.90855260E+02</pdfrwt>
<pdfrwt beam="2">  1       -2 0.10757496E+00 0.90855260E+02</pdfrwt>
<totfact> 0.27461741E+04</totfact>
</mgrwt>
</event>
<event>
 5    1  0.4006808E+001  0.8915866E+02  0.7546771E-02  0.1304902E+00
         -2   -1    0    0    0  501 -0.00000000000E+00  0.00000000000E+00  0.36868147916E+01  0.36868147916E+01  0.00000000000E+00 0.  1.
          2   -1    0    0  501    0  0.00000000000E+00 -0.00000000000E+00 -0.53903347105E+03  0.53903347105E+03  0.00000000000E+00 0. -1.
         23    2    1    2    0    0  0.00000000000E+00  0.00000000000E+00 -0.53534665626E+03  0.54272028585E+03  0.89158658004E+02 0.  0.
          2    1    3    3  502    0  0.28482363648E+02 -0.31872680485E+02 -0.34471911649E+03  0.34735915430E+03  0.00000000000E+00 0.  1.
         -2    1    3    3    0  502 -0.28482363648E+02  0.31872680485E+02 -0.19062753977E+03  0.19536113154E+03  0.00000000000E+00 0. -1.
<mgrwt>
<rscale>  0 0.89158658E+02</rscale>
<asrwt>0</asrwt>
<pdfrwt beam="2">  1        2 0.82928174E-01 0.89158658E+02</pdfrwt>
<pdfrwt beam="1">  1       -2 0.56720264E-03 0.89158658E+02</pdfrwt>
<totfact> 0.23413738E+05</totfact>
</mgrwt>
</event>
<event>
 5    1  0.4006808E+001  0.9222768E+02  0.7546771E-02  0.1297545E+00
          2   -1    0    0  501    0  0.00000000000E+00  0.00000000000E+00  0.10384148893E+04  0.10384148893E+04  0.00000000000E+00 0. -1.
         -2   -1    0    0    0  501 -0.00000000000E+00 -0.00000000000E+00 -0.20478193198E+01  0.20478193198E+01  0.00000000000E+00 0.  1.
         23    2    1    2    0    0  0.00000000000E+00  0.00000000000E+00  0.10363670700E+04  0.10404627086E+04  0.92227676372E+02 0.  0.
          2    1    3    3  502    0  0.13305586587E+02  0.23999219864E+02  0.93628067258E+03  0.93668270991E+03  0.00000000000E+00 0. -1.
         -2    1    3    3    0  502 -0.13305586587E+02 -0.23999219864E+02  0.10008639738E+03  0.10377999869E+03  0.00000000000E+00 0.  1.
<mgrwt>
<rscale>  0 0.92227676E+02</rscale>
<asrwt>0</asrwt>
<pdfrwt beam="1">  1        2 0.15975572E+00 0.92227676E+02</pdfrwt>
<pdfrwt beam="2">  1       -2 0.31504996E-03 0.92227676E+02</pdfrwt>
<totfact> 0.24285129E+05</totfact>
</mgrwt>
</event>
<event>
 5    1  0.4006808E+001  0.8249651E+02  0.7546771E-02  0.1322112E+00
          2   -1    0    0  501    0  0.00000000000E+00  0.00000000000E+00  0.99996751567E+01  0.99996751567E+01  0.00000000000E+00 0.  1.
         -2   -1    0    0    0  501 -0.00000000000E+00 -0.00000000000E+00 -0.17014738981E+03  0.17014738981E+03  0.00000000000E+00 0. -1.
         23    2    1    2    0    0  0.00000000000E+00  0.00000000000E+00 -0.16014771465E+03  0.18014706496E+03  0.82496512092E+02 0.  0.
          2    1    3    3  502    0 -0.37703099017E+02 -0.16720518363E+02 -0.81307628461E+02  0.91170334296E+02  0.00000000000E+00 0. -1.
         -2    1    3    3    0  502  0.37703099017E+02  0.16720518363E+02 -0.78840086190E+02  0.88976730668E+02  0.00000000000E+00 0.  1.
<mgrwt>
<rscale>  0 0.82496512E+02</rscale>
<asrwt>0</asrwt>
<pdfrwt beam="1">  1        2 0.15384116E-02 0.82496512E+02</pdfrwt>
<pdfrwt beam="2">  1       -2 0.26176521E-01 0.82496512E+02</pdfrwt>
<totfact> 0.85860403E+04</totfact>
</mgrwt>
</event>
<event>
 5    1  0.4006808E+001  0.9091815E+02  0.7546771E-02  0.1300643E+00
          1   -1    0    0  501    0  0.00000000000E+00  0.00000000000E+00  0.19087086199E+01  0.19087086199E+01  0.00000000000E+00 0. -1.
         -1   -1    0    0    0  501 -0.00000000000E+00 -0.00000000000E+00 -0.10826836158E+04  0.10826836158E+04  0.00000000000E+00 0.  1.
         23    2    1    2    0    0  0.00000000000E+00  0.00000000000E+00 -0.10807749072E+04  0.10845923244E+04  0.90918151106E+02 0.  0.
          2    1    3    3  502    0 -0.36742455608E+02 -0.26767096210E+02 -0.53794073491E+03  0.53985805520E+03  0.00000000000E+00 0. -1.
         -2    1    3    3    0  502  0.36742455608E+02  0.26767096210E+02 -0.54283417227E+03  0.54473426922E+03  0.00000000000E+00 0.  1.
<mgrwt>
<rscale>  0 0.90918151E+02</rscale>
<asrwt>0</asrwt>
<pdfrwt beam="1">  1        1 0.29364751E-03 0.90918151E+02</pdfrwt>
<pdfrwt beam="2">  1       -1 0.16656669E+00 0.90918151E+02</pdfrwt>
<totfact> 0.23369787E+04</totfact>
</mgrwt>
</event>
<event>
 5    1  0.4006808E+001  0.9263712E+02  0.7546771E-02  0.1296588E+00
         -2   -1    0    0    0  501 -0.00000000000E+00  0.00000000000E+00  0.21075104336E+01  0.21075104336E+01  0.00000000000E+00 0.  1.
          2   -1    0    0  501    0  0.00000000000E+00 -0.00000000000E+00 -0.10179826022E+04  0.10179826022E+04  0.00000000000E+00 0. -1.
         23    2    1    2    0    0  0.00000000000E+00  0.00000000000E+00 -0.10158750918E+04  0.10200901126E+04  0.92637119026E+02 0.  0.
          2    1    3    3  502    0  0.32735816171E+02 -0.11187793140E+01 -0.14731163110E+03  0.15090925083E+03  0.00000000000E+00 0.  1.
         -2    1    3    3    0  502 -0.32735816171E+02  0.11187793140E+01 -0.86856346067E+03  0.86918086182E+03  0.00000000000E+00 0. -1.
<mgrwt>
<rscale>  0 0.92637119E+02</rscale>
<asrwt>0</asrwt>
<pdfrwt beam="2">  1        2 0.15661230E+00 0.92637119E+02</pdfrwt>
<pdfrwt beam="1">  1       -2 0.32423321E-03 0.92637119E+02</pdfrwt>
<totfact> 0.23992081E+05</totfact>
</mgrwt>
</event>
<event>
 5    1  0.4006808E+001  0.8710314E+02  0.7546771E-02  0.1310022E+00
          1   -1    0    0  501    0  0.00000000000E+00  0.00000000000E+00  0.29752697335E+03  0.29752697335E+03  0.00000000000E+00 0. -1.
         -1   -1    0    0    0  501 -0.00000000000E+00 -0.00000000000E+00 -0.63750154893E+01  0.63750154893E+01  0.00000000000E+00 0.  1.
         23    2    1    2    0    0  0.00000000000E+00  0.00000000000E+00  0.29115195786E+03  0.30390198884E+03  0.87103135733E+02 0.  0.
          2    1    3    3  502    0  0.15273099220E+02  0.27054758996E+02  0.25206231082E+03  0.25396975426E+03  0.00000000000E+00 0. -1.
         -2    1    3    3    0  502 -0.15273099220E+02 -0.27054758996E+02  0.39089647042E+02  0.49932234578E+02  0.00000000000E+00 0.  1.
<mgrwt>
<rscale>  0 0.87103136E+02</rscale>
<asrwt>0</asrwt>
<pdfrwt beam="1">  1        1 0.45773370E-01 0.87103136E+02</pdfrwt>
<pdfrwt beam="2">  1       -1 0.98077184E-03 0.87103136E+02</pdfrwt>
<totfact> 0.14443883E+05</totfact>
</mgrwt>
</event>
<event>
 5    1  0.4006808E+001  0.9404423E+02  0.7546771E-02  0.1293343E+00
          2   -1    0    0  501    0  0.00000000000E+00  0.00000000000E+00  0.67228450544E+03  0.67228450544E+03  0.00000000000E+00 0.  1.
         -2   -1    0    0    0  501 -0.00000000000E+00 -0.00000000000E+00 -0.32889039402E+01  0.32889039402E+01  0.00000000000E+00 0. -1.
         23    2    1    2    0    0  0.00000000000E+00  0.00000000000E+00  0.66899560150E+03  0.67557340938E+03  0.94044227018E+02 0.  0.
          2    1    3    3  502    0  0.20976446946E+01 -0.45336430218E+02  0.24614070883E+03  0.25028991303E+03  0.00000000000E+00 0. -1.
         -2    1    3    3    0  502 -0.20976446946E+01  0.45336430218E+02  0.42285489266E+03  0.42528349635E+03  0.00000000000E+00 0.  1.
<mgrwt>
<rscale>  0 0.94044227E+02</rscale>
<asrwt>0</asrwt>
<pdfrwt beam="1">  1        2 0.10342828E+00 0.94044227E+02</pdfrwt>
<pdfrwt beam="2">  1       -2 0.50598575E-03 0.94044227E+02</pdfrwt>
<totfact> 0.21639457E+05</totfact>
</mgrwt>
</event>
<event>
 5    1  0.4006808E+001  0.9341628E+02  0.7546771E-02  0.1294783E+00
         -1   -1    0    0    0  501 -0.00000000000E+00  0.00000000000E+00  0.47233439508E+03  0.47233439508E+03  0.00000000000E+00 0.  1.
          1   -1    0    0  501    0  0.00000000000E+00 -0.00000000000E+00 -0.46188682538E+01  0.46188682538E+01  0.00000000000E+00 0. -1.
         23    2    1    2    0    0  0.00000000000E+00  0.00000000000E+00  0.46771552682E+03  0.47695326333E+03  0.93416280007E+02 0.  0.
          2    1    3    3  502    0 -0.20878295441E+02  0.38001728472E+02  0.14518703677E+03  0.15152329931E+03  0.00000000000E+00 0. -1.
         -2    1    3    3    0  502  0.20878295441E+02 -0.38001728472E+02  0.32252849006E+03  0.32542996403E+03  0.00000000000E+00 0.  1.
<mgrwt>
<rscale>  0 0.93416280E+02</rscale>
<asrwt>0</asrwt>
<pdfrwt beam="2">  1        1 0.71059549E-03 0.93416280E+02</pdfrwt>
<pdfrwt beam="1">  1       -1 0.72666792E-01 0.93416280E+02</pdfrwt>
<totfact> 0.45675214E+04</totfact>
</mgrwt>
</event>
<event>
 5    1  0.4006808E+001  0.9192949E+02  0.7546771E-02  0.1298245E+00
         -1   -1    0    0    0  501 -0.00000000000E+00  0.00000000000E+00  0.41068041236E+01  0.41068041236E+01  0.00000000000E+00 0.  1.
          1   -1    0    0  501    0  0.00000000000E+00 -0.00000000000E+00 -0.51445302812E+03  0.51445302812E+03  0.00000000000E+00 0. -1.
         23    2    1    2    0    0  0.00000000000E+00  0.00000000000E+00 -0.51034622399E+03  0.51855983224E+03  0.91929490747E+02 0.  0.
          2    1    3    3  502    0 -0.43774015196E+02  0.14021136578E+02 -0.25498266314E+03  0.25909248384E+03  0.00000000000E+00 0. -1.
         -2    1    3    3    0  502  0.43774015196E+02 -0.14021136578E+02 -0.25536356085E+03  0.25946734840E+03  0.00000000000E+00 0.  1.
<mgrwt>
<rscale>  0 0.91929491E+02</rscale>
<asrwt>0</asrwt>
<pdfrwt beam="2">  1        1 0.79146604E-01 0.91929491E+02</pdfrwt>
<pdfrwt beam="1">  1       -1 0.63181614E-03 0.91929491E+02</pdfrwt>
<totfact> 0.13670655E+05</totfact>
</mgrwt>
</event>
<event>
 5    1  0.4006808E+001  0.9138183E+02  0.7546771E-02  0.1299539E+00
          2   -1    0    0  501    0  0.00000000000E+00  0.00000000000E+00  0.73022134349E+02  0.73022134349E+02  0.00000000000E+00 0. -1.
         -2   -1    0    0    0  501 -0.00000000000E+00 -0.00000000000E+00 -0.28589407833E+02  0.28589407833E+02  0.00000000000E+00 0.  1.
         23    2    1    2    0    0  0.00000000000E+00  0.00000000000E+00  0.44432726516E+02  0.10161154218E+03  0.91381827071E+02 0.  0.
          2    1    3    3  502    0  0.71295132121E+01 -0.24278791185E+02 -0.20086813024E+02  0.32307425114E+02  0.00000000000E+00 0.  1.
         -2    1    3    3    0  502 -0.71295132121E+01  0.24278791185E+02  0.64519539540E+02  0.69304117068E+02  0.00000000000E+00 0. -1.
<mgrwt>
<rscale>  0 0.91381827E+02</rscale>
<asrwt>0</asrwt>
<pdfrwt beam="1">  1        2 0.11234174E-01 0.91381827E+02</pdfrwt>
<pdfrwt beam="2">  1       -2 0.43983705E-02 0.91381827E+02</pdfrwt>
<totfact> 0.11122855E+05</totfact>
</mgrwt>
</event>
<event>
 5    1  0.4006808E+001  0.9552193E+02  0.7546771E-02  0.1290005E+00
          2   -1    0    0  501    0  0.00000000000E+00  0.00000000000E+00  0.53587600429E+03  0.53587600429E+03  0.00000000000E+00 0.  1.
         -2   -1    0    0    0  501 -0.00000000000E+00 -0.00000000000E+00 -0.42567869389E+01  0.42567869389E+01  0.00000000000E+00 0. -1.
         23    2    1    2    0    0  0.00000000000E+00  0.00000000000E+00  0.53161921735E+03  0.54013279123E+03  0.95521934150E+02 0.  0.
          2    1    3    3  502    0  0.35958432078E+02  0.28163706894E+02  0.18686710810E+03  0.19236818685E+03  0.00000000000E+00 0. -1.
         -2    1    3    3    0  502 -0.35958432078E+02 -0.28163706894E+02  0.34475210925E+03  0.34776460438E+03  0.00000000000E+00 0.  1.
<mgrwt>
<rscale>  0 0.95521934E+02</rscale>
<asrwt>0</asrwt>
<pdfrwt beam="1">  1        2 0.82442409E-01 0.95521934E+02</pdfrwt>
<pdfrwt beam="2">  1       -2 0.65489072E-03 0.95521934E+02</pdfrwt>
<totfact> 0.19471536E+05</totfact>
</mgrwt>
</event>
<event>
 5    1  0.4006808E+001  0.1246881E+03  0.7546771E-02  0.1235558E+00
          3   -1    0    0  501    0  0.00000000000E+00  0.00000000000E+00  0.63959813439E+01  0.63959813439E+01  0.00000000000E+00 0. -1.
         -3   -1    0    0    0  501 -0.00000000000E+00 -0.00000000000E+00 -0.60769080378E+03  0.60769080378E+03  0.00000000000E+00 0.  1.
         23    2    1    2    0    0  0.00000000000E+00  0.00000000000E+00 -0.60129482244E+03  0.61408678513E+03  0.12468807551E+03 0.  0.
          2    1    3    3  502    0 -0.44067534600E+02 -0.32048077830E+02 -0.15144785410E+03  0.16095179220E+03  0.00000000000E+00 0. -1.
         -2    1    3    3    0  502  0.44067534600E+02  0.32048077830E+02 -0.44984696834E+03  0.45313499293E+03  0.00000000000E+00 0.  1.
<mgrwt>
<rscale>  0 0.12468808E+03</rscale>
<asrwt>0</asrwt>
<pdfrwt beam="1">  1        3 0.98399737E-03 0.12468808E+03</pdfrwt>
<pdfrwt beam="2">  1       -3 0.93490870E-01 0.12468808E+03</pdfrwt>
<totfact> 0.66017934E+03</totfact>
</mgrwt>
</event>
<event>
 5    1  0.4006808E+001  0.9102811E+02  0.7546771E-02  0.1300381E+00
          1   -1    0    0  501    0  0.00000000000E+00  0.00000000000E+00  0.74172257992E+00  0.74172257992E+00  0.00000000000E+00 0. -1.
         -1   -1    0    0    0  501 -0.00000000000E+00 -0.00000000000E+00 -0.27928624199E+04  0.27928624199E+04  0.00000000000E+00 0.  1.
         23    2    1    2    0    0  0.00000000000E+00  0.00000000000E+00 -0.27921206973E+04  0.27936041425E+04  0.91028108174E+02 0.  0.
          2    1    3    3  502    0 -0.12712708485E+02  0.40394594962E+02 -0.88418721109E+03  0.88520074588E+03  0.00000000000E+00 0. -1.
         -2    1    3    3    0  502  0.12712708485E+02 -0.40394594962E+02 -0.19079334862E+04  0.19084033966E+04  0.00000000000E+00 0.  1.
<mgrwt>
<rscale>  0 0.91028108E+02</rscale>
<asrwt>0</asrwt>
<pdfrwt beam="1">  1        1 0.11411068E-03 0.91028108E+02</pdfrwt>
<pdfrwt beam="2">  1       -1 0.42967298E+00 0.91028108E+02</pdfrwt>
<totfact> 0.18500940E+03</totfact>
</mgrwt>
</event>
<event>
 5    1  0.4006808E+001  0.9011408E+02  0.7546771E-02  0.1302576E+00
          1   -1    0    0  501    0  0.00000000000E+00  0.00000000000E+00  0.40965560725E+02  0.40965560725E+02  0.00000000000E+00 0. -1.
         -1   -1    0    0    0  501 -0.00000000000E+00 -0.00000000000E+00 -0.49557163440E+02  0.49557163440E+02  0.00000000000E+00 0.  1.
         23    2    1    2    0    0  0.00000000000E+00  0.00000000000E+00 -0.85916027152E+01  0.90522724165E+02  0.90114082989E+02 0.  0.
          2    1    3    3  502    0  0.26355274595E+02  0.71913228628E+01  0.31697132369E+02  0.41845236574E+02  0.00000000000E+00 0. -1.
         -2    1    3    3    0  502 -0.26355274595E+02 -0.71913228628E+01 -0.40288735084E+02  0.48677487591E+02  0.00000000000E+00 0.  1.
<mgrwt>
<rscale>  0 0.90114083E+02</rscale>
<asrwt>0</asrwt>
<pdfrwt beam="1">  1        1 0.63023940E-02 0.90114083E+02</pdfrwt>
<pdfrwt beam="2">  1       -1 0.76241790E-02 0.90114083E+02</pdfrwt>
<totfact> 0.94047397E+04</totfact>
</mgrwt>
</event>
<event>
 5    1  0.4006808E+001  0.9069054E+02  0.7546771E-02  0.1301188E+00
         -1   -1    0    0    0  501 -0.00000000000E+00  0.00000000000E+00  0.12295099419E+02  0.12295099419E+02  0.00000000000E+00 0.  1.
          1   -1    0    0  501    0  0.00000000000E+00 -0.00000000000E+00 -0.16723684442E+03  0.16723684442E+03  0.00000000000E+00 0. -1.
         23    2    1    2    0    0  0.00000000000E+00  0.00000000000E+00 -0.15494174500E+03  0.17953194384E+03  0.90690542589E+02 0.  0.
          2    1    3    3  502    0 -0.10086007523E+02  0.44209099221E+02 -0.77761996823E+02  0.90017221417E+02  0.00000000000E+00 0. -1.
         -2    1    3    3    0  502  0.10086007523E+02 -0.44209099221E+02 -0.77179748180E+02  0.89514722425E+02  0.00000000000E+00 0.  1.
<mgrwt>
<rscale>  0 0.90690543E+02</rscale>
<asrwt>0</asrwt>
<pdfrwt beam="2">  1        1 0.25728747E-01 0.90690543E+02</pdfrwt>
<pdfrwt beam="1">  1       -1 0.18915536E-02 0.90690543E+02</pdfrwt>
<totfact> 0.11607998E+05</totfact>
</mgrwt>
</event>
<event>
 5    1  0.4006808E+001  0.9641012E+02  0.7546771E-02  0.1288031E+00
         -1   -1    0    0    0  501 -0.00000000000E+00  0.00000000000E+00  0.21129289920E+03  0.21129289920E+03  0.00000000000E+00 0.  1.
          1   -1    0    0  501    0  0.00000000000E+00 -0.00000000000E+00 -0.10997660802E+02  0.10997660802E+02  0.00000000000E+00 0. -1.
         23    2    1    2    0    0  0.00000000000E+00  0.00000000000E+00  0.20029523840E+03  0.22229056000E+03  0.96410116381E+02 0.  0.
          2    1    3    3  502    0  0.39976328058E+02  0.81651502523E+01  0.40960796922E+02  0.57814906107E+02  0.00000000000E+00 0. -1.
         -2    1    3    3    0  502 -0.39976328058E+02 -0.81651502523E+01  0.15933444147E+03  0.16447565389E+03  0.00000000000E+00 0.  1.
<mgrwt>
<rscale>  0 0.96410116E+02</rscale>
<asrwt>0</asrwt>
<pdfrwt beam="2">  1        1 0.16919480E-02 0.96410116E+02</pdfrwt>
<pdfrwt beam="1">  1       -1 0.32506597E-01 0.96410116E+02</pdfrwt>
<totfact> 0.59049254E+04</totfact>
</mgrwt>
</event>
<event>
 5    1  0.4006808E+001  0.6909631E+02  0.7546771E-02  0.1363193E+00
         -1   -1    0    0    0  501 -0.00000000000E+00  0.00000000000E+00  0.60542804967E+02  0.60542804967E+02  0.00000000000E+00 0.  1.
          1   -1    0    0  501    0  0.00000000000E+00 -0.00000000000E+00 -0.19714565390E+02  0.19714565390E+02  0.00000000000E+00 0. -1.
         23    2    1    2    0    0  0.00000000000E+00  0.00000000000E+00  0.40828239577E+02  0.80257370357E+02  0.69096312128E+02 0.  0.
          2    1    3    3  502    0 -0.31269585567E+02  0.24182250556E+01  0.37243881131E+02  0.48690260583E+02  0.00000000000E+00 0.  1.
         -2    1    3    3    0  502  0.31269585567E+02 -0.24182250556E+01  0.35843584451E+01  0.31567109773E+02  0.00000000000E+00 0. -1.
<mgrwt>
<rscale>  0 0.69096312E+02</rscale>
<asrwt>0</asrwt>
<pdfrwt beam="2">  1        1 0.30330101E-02 0.69096312E+02</pdfrwt>
<pdfrwt beam="1">  1       -1 0.93142776E-02 0.69096312E+02</pdfrwt>
<totfact> 0.17850685E+05</totfact>
</mgrwt>
</event>
<event>
 5    1  0.4006808E+001  0.9153774E+02  0.7546771E-02  0.1299170E+00
          2   -1    0    0  501    0  0.00000000000E+00  0.00000000000E+00  0.76644131800E+02  0.76644131800E+02  0.00000000000E+00 0. -1.
         -2   -1    0    0    0  501 -0.00000000000E+00 -0.00000000000E+00 -0.27331376600E+02  0.27331376600E+02  0.00000000000E+00 0.  1.
         23    2    1    2    0    0  0.00000000000E+00  0.00000000000E+00  0.49312755200E+02  0.10397550840E+03  0.91537743700E+02 0.  0.
          2    1    3    3  502    0 -0.69511002429E+01  0.45237649740E+02  0.24842612180E+02  0.52076080195E+02  0.00000000000E+00 0. -1.
         -2    1    3    3    0  502  0.69511002429E+01 -0.45237649740E+02  0.24470143020E+02  0.51899428205E+02  0.00000000000E+00 0.  1.
<mgrwt>
<rscale>  0 0.91537744E+02</rscale>
<asrwt>0</asrwt>
<pdfrwt beam="1">  1        2 0.11791405E-01 0.91537744E+02</pdfrwt>
<pdfrwt beam="2">  1       -2 0.42048272E-02 0.91537744E+02</pdfrwt>
<totfact> 0.11222108E+05</totfact>
</mgrwt>
</event>
<event>
 5    1  0.4006808E+001  0.7806096E+02  0.7546771E-02  0.1334646E+00
         -1   -1    0    0    0  501 -0.00000000000E+00  0.00000000000E+00  0.11316361716E+03  0.11316361716E+03  0.00000000000E+00 0.  1.
          1   -1    0    0  501    0  0.00000000000E+00 -0.00000000000E+00 -0.13461732326E+02  0.13461732326E+02  0.00000000000E+00 0. -1.
         23    2    1    2    0    0  0.00000000000E+00  0.00000000000E+00  0.99701884838E+02  0.12662534949E+03  0.78060958829E+02 0.  0.
          2    1    3    3  502    0 -0.22797061967E+02  0.12098646722E+02  0.23555007928E+01  0.25915857517E+02  0.00000000000E+00 0. -1.
         -2    1    3    3    0  502  0.22797061967E+02 -0.12098646722E+02  0.97346384045E+02  0.10070949197E+03  0.00000000000E+00 0.  1.
<mgrwt>
<rscale>  0 0.78060959E+02</rscale>
<asrwt>0</asrwt>
<pdfrwt beam="2">  1        1 0.20710358E-02 0.78060959E+02</pdfrwt>
<pdfrwt beam="1">  1       -1 0.17409787E-01 0.78060959E+02</pdfrwt>
<totfact> 0.11848485E+05</totfact>
</mgrwt>
</event>
<event>
 5    1  0.4006808E+001  0.9254399E+02  0.7546771E-02  0.1296805E+00
         -1   -1    0    0    0  501 -0.00000000000E+00  0.00000000000E+00  0.22997623277E+01  0.22997623277E+01  0.00000000000E+00 0.  1.
          1   -1    0    0  501    0  0.00000000000E+00 -0.00000000000E+00 -0.93100809629E+03  0.93100809629E+03  0.00000000000E+00 0. -1.
         23    2    1    2    0    0  0.00000000000E+00  0.00000000000E+00 -0.92870833396E+03  0.93330785861E+03  0.92543986226E+02 0.  0.
          2    1    3    3  502    0 -0.22354142361E+02  0.38994039269E+02 -0.57522268809E+03  0.57697606855E+03  0.00000000000E+00 0. -1.
         -2    1    3    3    0  502  0.22354142361E+02 -0.38994039269E+02 -0.35348564586E+03  0.35633179007E+03  0.00000000000E+00 0.  1.
<mgrwt>
<rscale>  0 0.92543986E+02</rscale>
<asrwt>0</asrwt>
<pdfrwt beam="2">  1        1 0.14323194E+00 0.92543986E+02</pdfrwt>
<pdfrwt beam="1">  1       -1 0.35380977E-03 0.92543986E+02</pdfrwt>
<totfact> 0.13295865E+05</totfact>
</mgrwt>
</event>
<event>
 5    1  0.4006808E+001  0.8832637E+02  0.7546771E-02  0.1306956E+00
         -2   -1    0    0    0  501 -0.00000000000E+00  0.00000000000E+00  0.66206266984E+00  0.66206266984E+00  0.00000000000E+00 0.  1.
          2   -1    0    0  501    0  0.00000000000E+00 -0.00000000000E+00 -0.29459250514E+04  0.29459250514E+04  0.00000000000E+00 0. -1.
         23    2    1    2    0    0  0.00000000000E+00  0.00000000000E+00 -0.29452629887E+04  0.29465871141E+04  0.88326372158E+02 0.  0.
          2    1    3    3  502    0  0.14509163706E+02  0.39304586080E+02 -0.19385063085E+04  0.19389590182E+04  0.00000000000E+00 0. -1.
         -2    1    3    3    0  502 -0.14509163706E+02 -0.39304586080E+02 -0.10067566802E+04  0.10076280958E+04  0.00000000000E+00 0.  1.
<mgrwt>
<rscale>  0 0.88326372E+02</rscale>
<asrwt>0</asrwt>
<pdfrwt beam="2">  1        2 0.45321254E+00 0.88326372E+02</pdfrwt>
<pdfrwt beam="1">  1       -2 0.10185730E-03 0.88326372E+02</pdfrwt>
<totfact> 0.11609327E+05</totfact>
</mgrwt>
</event>
<event>
 5    1  0.4006808E+001  0.9446126E+02  0.7546771E-02  0.1292394E+00
         -2   -1    0    0    0  501 -0.00000000000E+00  0.00000000000E+00  0.10486982576E+01  0.10486982576E+01  0.00000000000E+00 0.  1.
          2   -1    0    0  501    0  0.00000000000E+00 -0.00000000000E+00 -0.21271440012E+04  0.21271440012E+04  0.00000000000E+00 0. -1.
         23    2    1    2    0    0  0.00000000000E+00  0.00000000000E+00 -0.21260953029E+04  0.21281926995E+04  0.94461255713E+02 0.  0.
          2    1    3    3  502    0  0.27391264520E+02  0.24965564505E+02 -0.17226634924E+04  0.17230621198E+04  0.00000000000E+00 0. -1.
         -2    1    3    3    0  502 -0.27391264520E+02 -0.24965564505E+02 -0.40343181057E+03  0.40513057964E+03  0.00000000000E+00 0.  1.
<mgrwt>
<rscale>  0 0.94461256E+02</rscale>
<asrwt>0</asrwt>
<pdfrwt beam="2">  1        2 0.32724761E+00 0.94461256E+02</pdfrwt>
<pdfrwt beam="1">  1       -2 0.16134081E-03 0.94461256E+02</pdfrwt>
<totfact> 0.16834904E+05</totfact>
</mgrwt>
</event>
<event>
 5    1  0.4006808E+001  0.9156393E+02  0.7546771E-02  0.1299108E+00
          1   -1    0    0  501    0  0.00000000000E+00  0.00000000000E+00  0.50849128011E+02  0.50849128011E+02  0.00000000000E+00 0. -1.
         -1   -1    0    0    0  501 -0.00000000000E+00 -0.00000000000E+00 -0.41219753773E+02  0.41219753773E+02  0.00000000000E+00 0.  1.
         23    2    1    2    0    0  0.00000000000E+00  0.00000000000E+00  0.96293742377E+01  0.92068881785E+02  0.91563934739E+02 0.  0.
          2    1    3    3  502    0 -0.19411525760E+02 -0.32024412777E+02  0.31296557673E+02  0.48804148063E+02  0.00000000000E+00 0. -1.
         -2    1    3    3    0  502  0.19411525760E+02  0.32024412777E+02 -0.21667183435E+02  0.43264733722E+02  0.00000000000E+00 0.  1.
<mgrwt>
<rscale>  0 0.91563935E+02</rscale>
<asrwt>0</asrwt>
<pdfrwt beam="1">  1        1 0.78229428E-02 0.91563935E+02</pdfrwt>
<pdfrwt beam="2">  1       -1 0.63415006E-02 0.91563935E+02</pdfrwt>
<totfact> 0.92893921E+04</totfact>
</mgrwt>
</event>
<event>
 5    1  0.4006808E+001  0.9053477E+02  0.7546771E-02  0.1301562E+00
         -2   -1    0    0    0  501 -0.00000000000E+00  0.00000000000E+00  0.97414242558E+00  0.97414242558E+00  0.00000000000E+00 0.  1.
          2   -1    0    0  501    0  0.00000000000E+00 -0.00000000000E+00 -0.21035284642E+04  0.21035284642E+04  0.00000000000E+00 0. -1.
         23    2    1    2    0    0  0.00000000000E+00  0.00000000000E+00 -0.21025543218E+04  0.21045026066E+04  0.90534773880E+02 0.  0.
          2    1    3    3  502    0 -0.14483502683E+02  0.41421880668E+02 -0.79285502871E+03  0.79406841053E+03  0.00000000000E+00 0. -1.
         -2    1    3    3    0  502  0.14483502683E+02 -0.41421880668E+02 -0.13096992931E+04  0.13104341961E+04  0.00000000000E+00 0.  1.
<mgrwt>
<rscale>  0 0.90534774E+02</rscale>
<asrwt>0</asrwt>
<pdfrwt beam="2">  1        2 0.32361971E+00 0.90534774E+02</pdfrwt>
<pdfrwt beam="1">  1       -2 0.14986809E-03 0.90534774E+02</pdfrwt>
<totfact> 0.19066654E+05</totfact>
</mgrwt>
</event>
<event>
 5    1  0.4006808E+001  0.9451816E+02  0.7546771E-02  0.1292265E+00
          1   -1    0    0  501    0  0.00000000000E+00  0.00000000000E+00  0.25475846591E+01  0.25475846591E+01  0.00000000000E+00 0. -1.
         -1   -1    0    0    0  501 -0.00000000000E+00 -0.00000000000E+00 -0.87668161915E+03  0.87668161915E+03  0.00000000000E+00 0.  1.
         23    2    1    2    0    0  0.00000000000E+00  0.00000000000E+00 -0.87413403449E+03  0.87922920381E+03  0.94518160030E+02 0.  0.
          2    1    3    3  502    0  0.32209426728E+02  0.13278908339E+02 -0.14002961066E+03  0.14429853928E+03  0.00000000000E+00 0. -1.
         -2    1    3    3    0  502 -0.32209426728E+02 -0.13278908339E+02 -0.73410442383E+03  0.73493066453E+03  0.00000000000E+00 0.  1.
<mgrwt>
<rscale>  0 0.94518160E+02</rscale>
<asrwt>0</asrwt>
<pdfrwt beam="1">  1        1 0.39193604E-03 0.94518160E+02</pdfrwt>
<pdfrwt beam="2">  1       -1 0.13487412E+00 0.94518160E+02</pdfrwt>
<totfact> 0.27075532E+04</totfact>
</mgrwt>
</event>
<event>
 5    1  0.4006808E+001  0.9124944E+02  0.7546771E-02  0.1299854E+00
         -2   -1    0    0    0  501 -0.00000000000E+00  0.00000000000E+00  0.36102020558E+02  0.36102020558E+02  0.00000000000E+00 0. -1.
          2   -1    0    0  501    0  0.00000000000E+00 -0.00000000000E+00 -0.57659243961E+02  0.57659243961E+02  0.00000000000E+00 0.  1.
         23    2    1    2    0    0  0.00000000000E+00  0.00000000000E+00 -0.21557223403E+02  0.93761264518E+02  0.91249442975E+02 0.  0.
          2    1    3    3  502    0  0.39311346233E+02  0.19663031163E+02  0.17891175213E+01  0.43991109087E+02  0.00000000000E+00 0. -1.
         -2    1    3    3    0  502 -0.39311346233E+02 -0.19663031163E+02 -0.23346340924E+02  0.49770155432E+02  0.00000000000E+00 0.  1.
<mgrwt>
<rscale>  0 0.91249443E+02</rscale>
<asrwt>0</asrwt>
<pdfrwt beam="2">  1        2 0.88706529E-02 0.91249443E+02</pdfrwt>
<pdfrwt beam="1">  1       -2 0.55541570E-02 0.91249443E+02</pdfrwt>
<totfact> 0.10471071E+05</totfact>
</mgrwt>
</event>
<event>
 5    1  0.4006808E+001  0.9391502E+02  0.7546771E-02  0.1293639E+00
          2   -1    0    0  501    0  0.00000000000E+00  0.00000000000E+00  0.35350017824E+02  0.35350017824E+02  0.00000000000E+00 0. -1.
         -2   -1    0    0    0  501 -0.00000000000E+00 -0.00000000000E+00 -0.62376424948E+02  0.62376424948E+02  0.00000000000E+00 0.  1.
         23    2    1    2    0    0  0.00000000000E+00  0.00000000000E+00 -0.27026407125E+02  0.97726442772E+02  0.93915019751E+02 0.  0.
          2    1    3    3  502    0  0.45676814516E+02 -0.17300835786E+01 -0.23230251143E+01  0.45768559287E+02  0.00000000000E+00 0. -1.
         -2    1    3    3    0  502 -0.45676814516E+02  0.17300835786E+01 -0.24703382010E+02  0.51957883485E+02  0.00000000000E+00 0.  1.
<mgrwt>
<rscale>  0 0.93915020E+02</rscale>
<asrwt>0</asrwt>
<pdfrwt beam="1">  1        2 0.54384643E-02 0.93915020E+02</pdfrwt>
<pdfrwt beam="2">  1       -2 0.95963731E-02 0.93915020E+02</pdfrwt>
<totfact> 0.84684724E+04</totfact>
</mgrwt>
</event>
<event>
 5    1  0.4006808E+001  0.8662307E+02  0.7546771E-02  0.1311242E+00
          1   -1    0    0  501    0  0.00000000000E+00  0.00000000000E+00  0.33584143866E+02  0.33584143866E+02  0.00000000000E+00 0. -1.
         -1   -1    0    0    0  501 -0.00000000000E+00 -0.00000000000E+00 -0.55856391901E+02  0.55856391901E+02  0.00000000000E+00 0.  1.
         23    2    1    2    0    0  0.00000000000E+00  0.00000000000E+00 -0.22272248034E+02  0.89440535767E+02  0.86623070863E+02 0.  0.
          2    1    3    3  502    0  0.32007917939E+02  0.14077563560E+01  0.18956293282E+02  0.37226732918E+02  0.00000000000E+00 0. -1.
         -2    1    3    3    0  502 -0.32007917939E+02 -0.14077563560E+01 -0.41228541317E+02  0.52213802848E+02  0.00000000000E+00 0.  1.
<mgrwt>
<rscale>  0 0.86623071E+02</rscale>
<asrwt>0</asrwt>
<pdfrwt beam="1">  1        1 0.51667914E-02 0.86623071E+02</pdfrwt>
<pdfrwt beam="2">  1       -1 0.85932910E-02 0.86623071E+02</pdfrwt>
<totfact> 0.10205539E+05</totfact>
</mgrwt>
</event>
<event>
 5    1  0.4006808E+001  0.9089481E+02  0.7546771E-02  0.1300699E+00
         -1   -1    0    0    0  501 -0.00000000000E+00  0.00000000000E+00  0.64956711030E+01  0.64956711030E+01  0.00000000000E+00 0.  1.
          1   -1    0    0  501    0  0.00000000000E+00 -0.00000000000E+00 -0.31797588927E+03  0.31797588927E+03  0.00000000000E+00 0. -1.
         23    2    1    2    0    0  0.00000000000E+00  0.00000000000E+00 -0.31148021817E+03  0.32447156037E+03  0.90894813832E+02 0.  0.
          2    1    3    3  502    0  0.23211141756E+02 -0.61101425633E+01 -0.29350535978E+03  0.29448512214E+03  0.00000000000E+00 0. -1.
         -2    1    3    3    0  502 -0.23211141756E+02  0.61101425633E+01 -0.17974858389E+02  0.29986438233E+02  0.00000000000E+00 0.  1.
<mgrwt>
<rscale>  0 0.90894814E+02</rscale>
<asrwt>0</asrwt>
<pdfrwt beam="2">  1        1 0.48919365E-01 0.90894814E+02</pdfrwt>
<pdfrwt beam="1">  1       -1 0.99933407E-03 0.90894814E+02</pdfrwt>
<totfact> 0.13061056E+05</totfact>
</mgrwt>
</event>
<event>
 5    1  0.4006808E+001  0.9353228E+02  0.7546771E-02  0.1294516E+00
         -1   -1    0    0    0  501 -0.00000000000E+00  0.00000000000E+00  0.14577728177E+04  0.14577728177E+04  0.00000000000E+00 0.  1.
          1   -1    0    0  501    0  0.00000000000E+00 -0.00000000000E+00 -0.15002829649E+01  0.15002829649E+01  0.00000000000E+00 0. -1.
         23    2    1    2    0    0  0.00000000000E+00  0.00000000000E+00  0.14562725347E+04  0.14592731006E+04  0.93532277318E+02 0.  0.
          2    1    3    3  502    0 -0.33702545868E+02  0.29776745178E+02  0.52799743264E+03  0.52990924226E+03  0.00000000000E+00 0. -1.
         -2    1    3    3    0  502  0.33702545868E+02 -0.29776745178E+02  0.92827510207E+03  0.92936385838E+03  0.00000000000E+00 0.  1.
<mgrwt>
<rscale>  0 0.93532277E+02</rscale>
<asrwt>0</asrwt>
<pdfrwt beam="2">  1        1 0.23081393E-03 0.93532277E+02</pdfrwt>
<pdfrwt beam="1">  1       -1 0.22427161E+00 0.93532277E+02</pdfrwt>
<totfact> 0.13611727E+04</totfact>
</mgrwt>
</event>
<event>
 5    1  0.4006808E+001  0.9169520E+02  0.7546771E-02  0.1298798E+00
         -1   -1    0    0    0  501 -0.00000000000E+00  0.00000000000E+00  0.27010611341E+03  0.27010611341E+03  0.00000000000E+00 0.  1.
          1   -1    0    0  501    0  0.00000000000E+00 -0.00000000000E+00 -0.77821351942E+01  0.77821351942E+01  0.00000000000E+00 0. -1.
         23    2    1    2    0    0  0.00000000000E+00  0.00000000000E+00  0.26232397822E+03  0.27788824861E+03  0.91695197068E+02 0.  0.
          2    1    3    3  502    0  0.38928031237E+02  0.80089357812E+01  0.61890697608E+02  0.73552655416E+02  0.00000000000E+00 0. -1.
         -2    1    3    3    0  502 -0.38928031237E+02 -0.80089357812E+01  0.20043328061E+03  0.20433559319E+03  0.00000000000E+00 0.  1.
<mgrwt>
<rscale>  0 0.91695197E+02</rscale>
<asrwt>0</asrwt>
<pdfrwt beam="2">  1        1 0.11972518E-02 0.91695197E+02</pdfrwt>
<pdfrwt beam="1">  1       -1 0.41554779E-01 0.91695197E+02</pdfrwt>
<totfact> 0.62106363E+04</totfact>
</mgrwt>
</event>
<event>
 5    1  0.4006808E+001  0.8345956E+02  0.7546771E-02  0.1319511E+00
          2   -1    0    0  501    0  0.00000000000E+00  0.00000000000E+00  0.61186616725E+03  0.61186616725E+03  0.00000000000E+00 0. -1.
         -2   -1    0    0    0  501 -0.00000000000E+00 -0.00000000000E+00 -0.28460053222E+01  0.28460053222E+01  0.00000000000E+00 0.  1.
         23    2    1    2    0    0  0.00000000000E+00  0.00000000000E+00  0.60902016192E+03  0.61471217257E+03  0.83459555917E+02 0.  0.
          2    1    3    3  502    0  0.57955853485E+01  0.29029997349E+02  0.52113830871E+03  0.52197841561E+03  0.00000000000E+00 0. -1.
         -2    1    3    3    0  502 -0.57955853485E+01 -0.29029997349E+02  0.87881853212E+02  0.92733756958E+02  0.00000000000E+00 0.  1.
<mgrwt>
<rscale>  0 0.83459556E+02</rscale>
<asrwt>0</asrwt>
<pdfrwt beam="1">  1        2 0.94133152E-01 0.83459556E+02</pdfrwt>
<pdfrwt beam="2">  1       -2 0.43784746E-03 0.83459556E+02</pdfrwt>
<totfact> 0.28905804E+05</totfact>
</mgrwt>
</event>
<event>
 5    1  0.4006808E+001  0.9118495E+02  0.7546771E-02  0.1300007E+00
         -2   -1    0    0    0  501 -0.00000000000E+00  0.00000000000E+00  0.24210812281E+03  0.24210812281E+03  0.00000000000E+00 0. -1.
          2   -1    0    0  501    0  0.00000000000E+00 -0.00000000000E+00 -0.85857259901E+01  0.85857259901E+01  0.00000000000E+00 0.  1.
         23    2    1    2    0    0  0.00000000000E+00  0.00000000000E+00  0.23352239682E+03  0.25069384880E+03  0.91184954952E+02 0.  0.
          2    1    3    3  502    0  0.20003391544E+02 -0.13065311311E+02  0.10003908698E+02  0.25902050540E+02  0.00000000000E+00 0.  1.
         -2    1    3    3    0  502 -0.20003391544E+02  0.13065311311E+02  0.22351848812E+03  0.22479179826E+03  0.00000000000E+00 0. -1.
<mgrwt>
<rscale>  0 0.91184955E+02</rscale>
<asrwt>0</asrwt>
<pdfrwt beam="2">  1        2 0.13208811E-02 0.91184955E+02</pdfrwt>
<pdfrwt beam="1">  1       -2 0.37247398E-01 0.91184955E+02</pdfrwt>
<totfact> 0.57061092E+04</totfact>
</mgrwt>
</event>
<event>
 5    1  0.4006808E+001  0.9127588E+02  0.7546771E-02  0.1299791E+00
         -1   -1    0    0    0  501 -0.00000000000E+00  0.00000000000E+00  0.69147093743E+02  0.69147093743E+02  0.00000000000E+00 0.  1.
          1   -1    0    0  501    0  0.00000000000E+00 -0.00000000000E+00 -0.30121607842E+02  0.30121607842E+02  0.00000000000E+00 0. -1.
         23    2    1    2    0    0  0.00000000000E+00  0.00000000000E+00  0.39025485901E+02  0.99268701585E+02  0.91275881615E+02 0.  0.
          2    1    3    3  502    0  0.31219868218E+02  0.31229417429E+02  0.69766694415E+01  0.44706046582E+02  0.00000000000E+00 0. -1.
         -2    1    3    3    0  502 -0.31219868218E+02 -0.31229417429E+02  0.32048816459E+02  0.54562655003E+02  0.00000000000E+00 0.  1.
<mgrwt>
<rscale>  0 0.91275882E+02</rscale>
<asrwt>0</asrwt>
<pdfrwt beam="2">  1        1 0.46340936E-02 0.91275882E+02</pdfrwt>
<pdfrwt beam="1">  1       -1 0.10638014E-01 0.91275882E+02</pdfrwt>
<totfact> 0.86470937E+04</totfact>
</mgrwt>
</event>
<event>
 5    1  0.4006808E+001  0.8922673E+02  0.7546771E-02  0.1304735E+00
          1   -1    0    0  501    0  0.00000000000E+00  0.00000000000E+00  0.62232771747E+03  0.62232771747E+03  0.00000000000E+00 0. -1.
         -1   -1    0    0    0  501 -0.00000000000E+00 -0.00000000000E+00 -0.31982383267E+01  0.31982383267E+01  0.00000000000E+00 0.  1.
         23    2    1    2    0    0  0.00000000000E+00  0.00000000000E+00  0.61912947914E+03  0.62552595579E+03  0.89226730474E+02 0.  0.
          2    1    3    3  502    0 -0.71459312384E+01 -0.43099103423E+02  0.37295292751E+03  0.37550297360E+03  0.00000000000E+00 0. -1.
         -2    1    3    3    0  502  0.71459312384E+01  0.43099103423E+02  0.24617655163E+03  0.25002298219E+03  0.00000000000E+00 0.  1.
<mgrwt>
<rscale>  0 0.89226730E+02</rscale>
<asrwt>0</asrwt>
<pdfrwt beam="1">  1        1 0.95742629E-01 0.89226730E+02</pdfrwt>
<pdfrwt beam="2">  1       -1 0.49203716E-03 0.89226730E+02</pdfrwt>
<totfact> 0.15020158E+05</totfact>
</mgrwt>
</event>
<event>
 5    1  0.4006808E+001  0.1096854E+03  0.7546771E-02  0.1261154E+00
         -1   -1    0    0    0  501 -0.00000000000E+00  0.00000000000E+00  0.69275575501E+01  0.69275575501E+01  0.00000000000E+00 0.  1.
          1   -1    0    0  501    0  0.00000000000E+00 -0.00000000000E+00 -0.43416732257E+03  0.43416732257E+03  0.00000000000E+00 0. -1.
         23    2    1    2    0    0  0.00000000000E+00  0.00000000000E+00 -0.42723976502E+03  0.44109488012E+03  0.10968535205E+03 0.  0.
          2    1    3    3  502    0  0.16291588828E+02 -0.16123422996E+02 -0.13258563091E+02  0.26479617272E+02  0.00000000000E+00 0.  1.
         -2    1    3    3    0  502 -0.16291588828E+02  0.16123422996E+02 -0.41398120193E+03  0.41461526284E+03  0.00000000000E+00 0. -1.
<mgrwt>
<rscale>  0 0.10968535E+03</rscale>
<asrwt>0</asrwt>
<pdfrwt beam="2">  1        1 0.66794972E-01 0.10968535E+03</pdfrwt>
<pdfrwt beam="1">  1       -1 0.10657781E-02 0.10968535E+03</pdfrwt>
<totfact> 0.83297140E+04</totfact>
</mgrwt>
</event>
<event>
 5    1  0.4006808E+001  0.8054289E+02  0.7546771E-02  0.1327518E+00
         -2   -1    0    0    0  501 -0.00000000000E+00  0.00000000000E+00  0.90383264459E+00  0.90383264459E+00  0.00000000000E+00 0.  1.
          2   -1    0    0  501    0  0.00000000000E+00 -0.00000000000E+00 -0.17943468311E+04  0.17943468311E+04  0.00000000000E+00 0. -1.
         23    2    1    2    0    0  0.00000000000E+00  0.00000000000E+00 -0.17934429984E+04  0.17952506637E+04  0.80542888989E+02 0.  0.
          2    1    3    3  502    0 -0.33498645603E+02  0.88203455882E+01 -0.13545126467E+04  0.13549555224E+04  0.00000000000E+00 0. -1.
         -2    1    3    3    0  502  0.33498645603E+02 -0.88203455882E+01 -0.43893035176E+03  0.44029514130E+03  0.00000000000E+00 0.  1.
<mgrwt>
<rscale>  0 0.80542889E+02</rscale>
<asrwt>0</asrwt>
<pdfrwt beam="2">  1        2 0.27605323E+00 0.80542889E+02</pdfrwt>
<pdfrwt beam="1">  1       -2 0.13905124E-03 0.80542889E+02</pdfrwt>
<totfact> 0.29741041E+05</totfact>
</mgrwt>
</event>
<event>
 5    1  0.4006808E+001  0.8787753E+02  0.7546771E-02  0.1308074E+00
          1   -1    0    0  501    0  0.00000000000E+00  0.00000000000E+00  0.61569920368E+01  0.61569920368E+01  0.00000000000E+00 0. -1.
         -1   -1    0    0    0  501 -0.00000000000E+00 -0.00000000000E+00 -0.31356468598E+03  0.31356468598E+03  0.00000000000E+00 0.  1.
         23    2    1    2    0    0  0.00000000000E+00  0.00000000000E+00 -0.30740769395E+03  0.31972167802E+03  0.87877534663E+02 0.  0.
          2    1    3    3  502    0 -0.90293331258E+01  0.42590401291E+02 -0.13213531168E+03  0.13912300935E+03  0.00000000000E+00 0. -1.
         -2    1    3    3    0  502  0.90293331258E+01 -0.42590401291E+02 -0.17527238227E+03  0.18059866867E+03  0.00000000000E+00 0.  1.
<mgrwt>
<rscale>  0 0.87877535E+02</rscale>
<asrwt>0</asrwt>
<pdfrwt beam="1">  1        1 0.94722957E-03 0.87877535E+02</pdfrwt>
<pdfrwt beam="2">  1       -1 0.48240719E-01 0.87877535E+02</pdfrwt>
<totfact> 0.65534755E+04</totfact>
</mgrwt>
</event>
<event>
 5    1  0.4006808E+001  0.9179901E+02  0.7546771E-02  0.1298553E+00
          2   -1    0    0  501    0  0.00000000000E+00  0.00000000000E+00  0.92891875377E+03  0.92891875377E+03  0.00000000000E+00 0. -1.
         -2   -1    0    0    0  501 -0.00000000000E+00 -0.00000000000E+00 -0.22679750062E+01  0.22679750062E+01  0.00000000000E+00 0.  1.
         23    2    1    2    0    0  0.00000000000E+00  0.00000000000E+00  0.92665077877E+03  0.93118672878E+03  0.91799009066E+02 0.  0.
          2    1    3    3  502    0 -0.18796345765E+02  0.12746953307E+02  0.86792992480E+03  0.86822701052E+03  0.00000000000E+00 0. -1.
         -2    1    3    3    0  502  0.18796345765E+02 -0.12746953307E+02  0.58720853968E+02  0.62959718261E+02  0.00000000000E+00 0.  1.
<mgrwt>
<rscale>  0 0.91799009E+02</rscale>
<asrwt>0</asrwt>
<pdfrwt beam="1">  1        2 0.14291027E+00 0.91799009E+02</pdfrwt>
<pdfrwt beam="2">  1       -2 0.34891997E-03 0.91799009E+02</pdfrwt>
<totfact> 0.24433187E+05</totfact>
</mgrwt>
</event>
<event>
 5    1  0.4006808E+001  0.9267177E+02  0.7546771E-02  0.1296508E+00
         -2   -1    0    0    0  501 -0.00000000000E+00  0.00000000000E+00  0.49060261111E+02  0.49060261111E+02  0.00000000000E+00 0.  1.
          2   -1    0    0  501    0  0.00000000000E+00 -0.00000000000E+00 -0.43762795423E+02  0.43762795423E+02  0.00000000000E+00 0. -1.
         23    2    1    2    0    0  0.00000000000E+00  0.00000000000E+00  0.52974656881E+01  0.92823056534E+02  0.92671768526E+02 0.  0.
          2    1    3    3  502    0  0.98844328324E+01  0.20224371440E+02 -0.37917841007E+02  0.44096370363E+02  0.00000000000E+00 0. -1.
         -2    1    3    3    0  502 -0.98844328324E+01 -0.20224371440E+02  0.43215306695E+02  0.48726686172E+02  0.00000000000E+00 0.  1.
<mgrwt>
<rscale>  0 0.92671769E+02</rscale>
<asrwt>0</asrwt>
<pdfrwt beam="2">  1        2 0.67327378E-02 0.92671769E+02</pdfrwt>
<pdfrwt beam="1">  1       -2 0.75477325E-02 0.92671769E+02</pdfrwt>
<totfact> 0.93158644E+04</totfact>
</mgrwt>
</event>
<event>
 5    1  0.4006808E+001  0.8908450E+02  0.7546771E-02  0.1305084E+00
          1   -1    0    0  501    0  0.00000000000E+00  0.00000000000E+00  0.46767553595E+01  0.46767553595E+01  0.00000000000E+00 0. -1.
         -1   -1    0    0    0  501 -0.00000000000E+00 -0.00000000000E+00 -0.42422830123E+03  0.42422830123E+03  0.00000000000E+00 0.  1.
         23    2    1    2    0    0  0.00000000000E+00  0.00000000000E+00 -0.41955154587E+03  0.42890505659E+03  0.89084498797E+02 0.  0.
          2    1    3    3  502    0 -0.36065450438E+02 -0.14809852197E+01 -0.84125022425E+02  0.91541954483E+02  0.00000000000E+00 0. -1.
         -2    1    3    3    0  502  0.36065450438E+02  0.14809852197E+01 -0.33542652345E+03  0.33736310211E+03  0.00000000000E+00 0.  1.
<mgrwt>
<rscale>  0 0.89084499E+02</rscale>
<asrwt>0</asrwt>
<pdfrwt beam="1">  1        1 0.71950084E-03 0.89084499E+02</pdfrwt>
<pdfrwt beam="2">  1       -1 0.65265892E-01 0.89084499E+02</pdfrwt>
<totfact> 0.54927875E+04</totfact>
</mgrwt>
</event>
<event>
 5    1  0.4006808E+001  0.9174593E+02  0.7546771E-02  0.1298678E+00
          2   -1    0    0  501    0  0.00000000000E+00  0.00000000000E+00  0.92755127890E+02  0.92755127890E+02  0.00000000000E+00 0. -1.
         -2   -1    0    0    0  501 -0.00000000000E+00 -0.00000000000E+00 -0.22686929526E+02  0.22686929526E+02  0.00000000000E+00 0.  1.
         23    2    1    2    0    0  0.00000000000E+00  0.00000000000E+00  0.70068198364E+02  0.11544205742E+03  0.91745932871E+02 0.  0.
          2    1    3    3  502    0 -0.14907337562E+02  0.43269951081E+02  0.31092715623E+02  0.55328784050E+02  0.00000000000E+00 0. -1.
         -2    1    3    3    0  502  0.14907337562E+02 -0.43269951081E+02  0.38975482742E+02  0.60113273365E+02  0.00000000000E+00 0.  1.
<mgrwt>
<rscale>  0 0.91745933E+02</rscale>
<asrwt>0</asrwt>
<pdfrwt beam="1">  1        2 0.14270019E-01 0.91745933E+02</pdfrwt>
<pdfrwt beam="2">  1       -2 0.34902969E-02 0.91745933E+02</pdfrwt>
<totfact> 0.11788151E+05</totfact>
</mgrwt>
</event>
<event>
 5    1  0.4006808E+001  0.9001963E+02  0.7546771E-02  0.1302804E+00
          1   -1    0    0  501    0  0.00000000000E+00  0.00000000000E+00  0.56772967363E+01  0.56772967363E+01  0.00000000000E+00 0. -1.
         -1   -1    0    0    0  501 -0.00000000000E+00 -0.00000000000E+00 -0.35683942959E+03  0.35683942959E+03  0.00000000000E+00 0.  1.
         23    2    1    2    0    0  0.00000000000E+00  0.00000000000E+00 -0.35116213285E+03  0.36251672633E+03  0.90019627393E+02 0.  0.
          2    1    3    3  502    0  0.17560470818E+02 -0.16996549566E+02 -0.32779373388E+03  0.32870349070E+03  0.00000000000E+00 0.  1.
         -2    1    3    3    0  502 -0.17560470818E+02  0.16996549566E+02 -0.23368398978E+02  0.33813235623E+02  0.00000000000E+00 0. -1.
<mgrwt>
<rscale>  0 0.90019627E+02</rscale>
<asrwt>0</asrwt>
<pdfrwt beam="1">  1        1 0.87343048E-03 0.90019627E+02</pdfrwt>
<pdfrwt beam="2">  1       -1 0.54898361E-01 0.90019627E+02</pdfrwt>
<totfact> 0.58205270E+04</totfact>
</mgrwt>
</event>
<event>
 5    1  0.4006808E+001  0.9164649E+02  0.7546771E-02  0.1298913E+00
         -2   -1    0    0    0  501 -0.00000000000E+00  0.00000000000E+00  0.58778428228E+01  0.58778428228E+01  0.00000000000E+00 0.  1.
          2   -1    0    0  501    0  0.00000000000E+00 -0.00000000000E+00 -0.35723479464E+03  0.35723479464E+03  0.00000000000E+00 0. -1.
         23    2    1    2    0    0  0.00000000000E+00  0.00000000000E+00 -0.35135695182E+03  0.36311263746E+03  0.91646494177E+02 0.  0.
          2    1    3    3  502    0  0.23735514442E+02 -0.29633150901E+02 -0.27733332468E+03  0.27992011585E+03  0.00000000000E+00 0. -1.
         -2    1    3    3    0  502 -0.23735514442E+02  0.29633150901E+02 -0.74023627140E+02  0.83192521618E+02  0.00000000000E+00 0.  1.
<mgrwt>
<rscale>  0 0.91646494E+02</rscale>
<asrwt>0</asrwt>
<pdfrwt beam="2">  1        2 0.54959207E-01 0.91646494E+02</pdfrwt>
<pdfrwt beam="1">  1       -2 0.90428339E-03 0.91646494E+02</pdfrwt>
<totfact> 0.18902105E+05</totfact>
</mgrwt>
</event>
<event>
 5    1  0.4006808E+001  0.9061742E+02  0.7546771E-02  0.1301363E+00
          2   -1    0    0  501    0  0.00000000000E+00  0.00000000000E+00  0.20158256670E+03  0.20158256670E+03  0.00000000000E+00 0. -1.
         -2   -1    0    0    0  501 -0.00000000000E+00 -0.00000000000E+00 -0.10183813116E+02  0.10183813116E+02  0.00000000000E+00 0.  1.
         23    2    1    2    0    0  0.00000000000E+00  0.00000000000E+00  0.19139875359E+03  0.21176637982E+03  0.90617419666E+02 0.  0.
          2    1    3    3  502    0 -0.15064586163E+02 -0.34076068286E+02  0.35446549010E+02  0.51425460841E+02  0.00000000000E+00 0.  1.
         -2    1    3    3    0  502  0.15064586163E+02  0.34076068286E+02  0.15595220458E+03  0.16034091898E+03  0.00000000000E+00 0. -1.
<mgrwt>
<rscale>  0 0.90617420E+02</rscale>
<asrwt>0</asrwt>
<pdfrwt beam="1">  1        2 0.31012700E-01 0.90617420E+02</pdfrwt>
<pdfrwt beam="2">  1       -2 0.15667406E-02 0.90617420E+02</pdfrwt>
<totfact> 0.15771066E+05</totfact>
</mgrwt>
</event>
<event>
 5    1  0.4006808E+001  0.9271320E+02  0.7546771E-02  0.1296411E+00
         -2   -1    0    0    0  501 -0.00000000000E+00  0.00000000000E+00  0.85901476535E+02  0.85901476535E+02  0.00000000000E+00 0.  1.
          2   -1    0    0  501    0  0.00000000000E+00 -0.00000000000E+00 -0.25016267832E+02  0.25016267832E+02  0.00000000000E+00 0. -1.
         23    2    1    2    0    0  0.00000000000E+00  0.00000000000E+00  0.60885208703E+02  0.11091774437E+03  0.92713199581E+02 0.  0.
          2    1    3    3  502    0 -0.27902259767E+02  0.27379318014E+02  0.63512605968E+00  0.39096886578E+02  0.00000000000E+00 0. -1.
         -2    1    3    3    0  502  0.27902259767E+02 -0.27379318014E+02  0.60250082643E+02  0.71820857789E+02  0.00000000000E+00 0.  1.
<mgrwt>
<rscale>  0 0.92713200E+02</rscale>
<asrwt>0</asrwt>
<pdfrwt beam="2">  1        2 0.38486566E-02 0.92713200E+02</pdfrwt>
<pdfrwt beam="1">  1       -2 0.13215612E-01 0.92713200E+02</pdfrwt>
<totfact> 0.80032981E+04</totfact>
</mgrwt>
</event>
<event>
 5    1  0.4006808E+001  0.9230250E+02  0.7546771E-02  0.1297370E+00
          4   -1    0    0  501    0  0.00000000000E+00  0.00000000000E+00  0.34287339323E+02  0.34287339323E+02  0.00000000000E+00 0. -1.
         -4   -1    0    0    0  501 -0.00000000000E+00 -0.00000000000E+00 -0.62120245835E+02  0.62120245835E+02  0.00000000000E+00 0.  1.
         23    2    1    2    0    0  0.00000000000E+00  0.00000000000E+00 -0.27832906512E+02  0.96407585159E+02  0.92302501544E+02 0.  0.
          2    1    3    3  502    0  0.36335712629E+02  0.13109832440E+02  0.12461148209E+02  0.40588569001E+02  0.00000000000E+00 0. -1.
         -2    1    3    3    0  502 -0.36335712629E+02 -0.13109832440E+02 -0.40294054722E+02  0.55819016157E+02  0.00000000000E+00 0.  1.
<mgrwt>
<rscale>  0 0.92302502E+02</rscale>
<asrwt>0</asrwt>
<pdfrwt beam="1">  1        4 0.52749753E-02 0.92302502E+02</pdfrwt>
<pdfrwt beam="2">  1       -4 0.95569610E-02 0.92302502E+02</pdfrwt>
<totfact> 0.25807064E+04</totfact>
</mgrwt>
</event>
<event>
 5    1  0.4006808E+001  0.9121946E+02  0.7546771E-02  0.1299925E+00
         -1   -1    0    0    0  501 -0.00000000000E+00  0.00000000000E+00  0.11477952848E+03  0.11477952848E+03  0.00000000000E+00 0.  1.
          1   -1    0    0  501    0  0.00000000000E+00 -0.00000000000E+00 -0.18123852989E+02  0.18123852989E+02  0.00000000000E+00 0. -1.
         23    2    1    2    0    0  0.00000000000E+00  0.00000000000E+00  0.96655675486E+02  0.13290338146E+03  0.91219456264E+02 0.  0.
          2    1    3    3  502    0 -0.33443292560E+01  0.29527899269E+02 -0.20832101839E+01  0.29789614601E+02  0.00000000000E+00 0. -1.
         -2    1    3    3    0  502  0.33443292560E+01 -0.29527899269E+02  0.98738885670E+02  0.10311376686E+03  0.00000000000E+00 0.  1.
<mgrwt>
<rscale>  0 0.91219456E+02</rscale>
<asrwt>0</asrwt>
<pdfrwt beam="2">  1        1 0.27882851E-02 0.91219456E+02</pdfrwt>
<pdfrwt beam="1">  1       -1 0.17658389E-01 0.91219456E+02</pdfrwt>
<totfact> 0.79143811E+04</totfact>
</mgrwt>
</event>
<event>
 5    1  0.4006808E+001  0.9082947E+02  0.7546771E-02  0.1300855E+00
         -4   -1    0    0    0  501 -0.00000000000E+00  0.00000000000E+00  0.79800639676E+02  0.79800639676E+02  0.00000000000E+00 0.  1.
          4   -1    0    0  501    0  0.00000000000E+00 -0.00000000000E+00 -0.25845635858E+02  0.25845635858E+02  0.00000000000E+00 0. -1.
         23    2    1    2    0    0  0.00000000000E+00  0.00000000000E+00  0.53955003818E+02  0.10564627553E+03  0.90829472625E+02 0.  0.
          2    1    3    3  502    0  0.40128989591E+02  0.20949484287E+02  0.22738611209E+02  0.50658278072E+02  0.00000000000E+00 0. -1.
         -2    1    3    3    0  502 -0.40128989591E+02 -0.20949484287E+02  0.31216392609E+02  0.54987997463E+02  0.00000000000E+00 0.  1.
<mgrwt>
<rscale>  0 0.90829473E+02</rscale>
<asrwt>0</asrwt>
<pdfrwt beam="2">  1        4 0.39762517E-02 0.90829473E+02</pdfrwt>
<pdfrwt beam="1">  1       -4 0.12277021E-01 0.90829473E+02</pdfrwt>
<totfact> 0.26384236E+04</totfact>
</mgrwt>
</event>
<event>
 5    1  0.4006808E+001  0.8810560E+02  0.7546771E-02  0.1307505E+00
         -2   -1    0    0    0  501 -0.00000000000E+00  0.00000000000E+00  0.25229469992E+02  0.25229469992E+02  0.00000000000E+00 0.  1.
          2   -1    0    0  501    0  0.00000000000E+00 -0.00000000000E+00 -0.76919938669E+02  0.76919938669E+02  0.00000000000E+00 0. -1.
         23    2    1    2    0    0  0.00000000000E+00  0.00000000000E+00 -0.51690468677E+02  0.10214940866E+03  0.88105602193E+02 0.  0.
          2    1    3    3  502    0  0.68501528034E+01  0.37880390102E+02 -0.50679103363E+02  0.63641339280E+02  0.00000000000E+00 0. -1.
         -2    1    3    3    0  502 -0.68501528034E+01 -0.37880390102E+02 -0.10113653143E+01  0.38508069381E+02  0.00000000000E+00 0.  1.
<mgrwt>
<rscale>  0 0.88105602E+02</rscale>
<asrwt>0</asrwt>
<pdfrwt beam="2">  1        2 0.11833837E-01 0.88105602E+02</pdfrwt>
<pdfrwt beam="1">  1       -2 0.38814569E-02 0.88105602E+02</pdfrwt>
<totfact> 0.12490659E+05</totfact>
</mgrwt>
</event>
<event>
 5    1  0.4006808E+001  0.8835512E+02  0.7546771E-02  0.1306885E+00
          1   -1    0    0  501    0  0.00000000000E+00  0.00000000000E+00  0.30557766590E+03  0.30557766590E+03  0.00000000000E+00 0.  1.
         -1   -1    0    0    0  501 -0.00000000000E+00 -0.00000000000E+00 -0.63867783470E+01  0.63867783470E+01  0.00000000000E+00 0. -1.
         23    2    1    2    0    0  0.00000000000E+00  0.00000000000E+00  0.29919088756E+03  0.31196444425E+03  0.88355120280E+02 0.  0.
          2    1    3    3  502    0 -0.33174530933E+02  0.28423345127E+02  0.12638306645E+03  0.13372028843E+03  0.00000000000E+00 0. -1.
         -2    1    3    3    0  502  0.33174530933E+02 -0.28423345127E+02  0.17280782110E+03  0.17824415582E+03  0.00000000000E+00 0.  1.
<mgrwt>
<rscale>  0 0.88355120E+02</rscale>
<asrwt>0</asrwt>
<pdfrwt beam="1">  1        1 0.47011937E-01 0.88355120E+02</pdfrwt>
<pdfrwt beam="2">  1       -1 0.98258152E-03 0.88355120E+02</pdfrwt>
<totfact> 0.13977706E+05</totfact>
</mgrwt>
</event>
<event>
 5    1  0.4006808E+001  0.9187754E+02  0.7546771E-02  0.1298368E+00
         -3   -1    0    0    0  501 -0.00000000000E+00  0.00000000000E+00  0.45785972239E+02  0.45785972239E+02  0.00000000000E+00 0.  1.
          3   -1    0    0  501    0  0.00000000000E+00 -0.00000000000E+00 -0.46092077011E+02  0.46092077011E+02  0.00000000000E+00 0. -1.
         23    2    1    2    0    0  0.00000000000E+00  0.00000000000E+00 -0.30610477174E+00  0.91878049249E+02  0.91877539332E+02 0.  0.
          2    1    3    3  502    0 -0.12683172296E+02  0.19453544124E+02 -0.39789963955E+02  0.46071080626E+02  0.00000000000E+00 0. -1.
         -2    1    3    3    0  502  0.12683172296E+02 -0.19453544124E+02  0.39483859183E+02  0.45806968624E+02  0.00000000000E+00 0.  1.
<mgrwt>
<rscale>  0 0.91877539E+02</rscale>
<asrwt>0</asrwt>
<pdfrwt beam="2">  1        3 0.70910887E-02 0.91877539E+02</pdfrwt>
<pdfrwt beam="1">  1       -3 0.70439958E-02 0.91877539E+02</pdfrwt>
<totfact> 0.34554732E+04</totfact>
</mgrwt>
</event>
<event>
 5    1  0.4006808E+001  0.9058900E+02  0.7546771E-02  0.1301432E+00
         -1   -1    0    0    0  501 -0.00000000000E+00  0.00000000000E+00  0.96300734753E+01  0.96300734753E+01  0.00000000000E+00 0.  1.
          1   -1    0    0  501    0  0.00000000000E+00 -0.00000000000E+00 -0.21304010307E+03  0.21304010307E+03  0.00000000000E+00 0. -1.
         23    2    1    2    0    0  0.00000000000E+00  0.00000000000E+00 -0.20341002959E+03  0.22267017654E+03  0.90589002550E+02 0.  0.
          2    1    3    3  502    0 -0.19734236610E+02 -0.34562233994E+01 -0.20155676745E+03  0.20255003352E+03  0.00000000000E+00 0. -1.
         -2    1    3    3    0  502  0.19734236610E+02  0.34562233994E+01 -0.18532621463E+01  0.20120143025E+02  0.00000000000E+00 0.  1.
<mgrwt>
<rscale>  0 0.90589003E+02</rscale>
<asrwt>0</asrwt>
<pdfrwt beam="2">  1        1 0.32775399E-01 0.90589003E+02</pdfrwt>
<pdfrwt beam="1">  1       -1 0.14815498E-02 0.90589003E+02</pdfrwt>
<totfact> 0.12196281E+05</totfact>
</mgrwt>
</event>
<event>
 5    1  0.4006808E+001  0.9511390E+02  0.7546771E-02  0.1290920E+00
         -1   -1    0    0    0  501 -0.00000000000E+00  0.00000000000E+00  0.65158709663E+01  0.65158709663E+01  0.00000000000E+00 0.  1.
          1   -1    0    0  501    0  0.00000000000E+00 -0.00000000000E+00 -0.34710074493E+03  0.34710074493E+03  0.00000000000E+00 0. -1.
         23    2    1    2    0    0  0.00000000000E+00  0.00000000000E+00 -0.34058487397E+03  0.35361661590E+03  0.95113903637E+02 0.  0.
          2    1    3    3  502    0 -0.43356780947E+02  0.19390700092E+02 -0.16129717924E+03  0.16814455012E+03  0.00000000000E+00 0. -1.
         -2    1    3    3    0  502  0.43356780947E+02 -0.19390700092E+02 -0.17928769472E+03  0.18547206578E+03  0.00000000000E+00 0.  1.
<mgrwt>
<rscale>  0 0.95113904E+02</rscale>
<asrwt>0</asrwt>
<pdfrwt beam="2">  1        1 0.53400112E-01 0.95113904E+02</pdfrwt>
<pdfrwt beam="1">  1       -1 0.10024417E-02 0.95113904E+02</pdfrwt>
<totfact> 0.11760311E+05</totfact>
</mgrwt>
</event>
<event>
 5    1  0.4006808E+001  0.9175905E+02  0.7546771E-02  0.1298647E+00
          3   -1    0    0  501    0  0.00000000000E+00  0.00000000000E+00  0.19420402329E+02  0.19420402329E+02  0.00000000000E+00 0. -1.
         -3   -1    0    0    0  501 -0.00000000000E+00 -0.00000000000E+00 -0.10838759423E+03  0.10838759423E+03  0.00000000000E+00 0.  1.
         23    2    1    2    0    0  0.00000000000E+00  0.00000000000E+00 -0.88967191903E+02  0.12780799656E+03  0.91759047238E+02 0.  0.
          2    1    3    3  502    0  0.90699034823E+01  0.26510110597E+02  0.61194448275E+01  0.28679203581E+02  0.00000000000E+00 0. -1.
         -2    1    3    3    0  502 -0.90699034823E+01 -0.26510110597E+02 -0.95086636730E+02  0.99128792980E+02  0.00000000000E+00 0.  1.
<mgrwt>
<rscale>  0 0.91759047E+02</rscale>
<asrwt>0</asrwt>
<pdfrwt beam="1">  1        3 0.29877541E-02 0.91759047E+02</pdfrwt>
<pdfrwt beam="2">  1       -3 0.16675015E-01 0.91759047E+02</pdfrwt>
<totfact> 0.32160754E+04</totfact>
</mgrwt>
</event>
<event>
 5    1  0.4006808E+001  0.9061823E+02  0.7546771E-02  0.1301361E+00
         -1   -1    0    0    0  501 -0.00000000000E+00  0.00000000000E+00  0.13439160136E+01  0.13439160136E+01  0.00000000000E+00 0.  1.
          1   -1    0    0  501    0  0.00000000000E+00 -0.00000000000E+00 -0.15275625623E+04  0.15275625623E+04  0.00000000000E+00 0. -1.
         23    2    1    2    0    0  0.00000000000E+00  0.00000000000E+00 -0.15262186463E+04  0.15289064783E+04  0.90618227511E+02 0.  0.
          2    1    3    3  502    0 -0.18755722978E+00 -0.35531538708E+02 -0.12374454220E+04  0.12379554507E+04  0.00000000000E+00 0. -1.
         -2    1    3    3    0  502  0.18755722978E+00  0.35531538708E+02 -0.28877322427E+03  0.29095102763E+03  0.00000000000E+00 0.  1.
<mgrwt>
<rscale>  0 0.90618228E+02</rscale>
<asrwt>0</asrwt>
<pdfrwt beam="2">  1        1 0.23500926E+00 0.90618228E+02</pdfrwt>
<pdfrwt beam="1">  1       -1 0.20675663E-03 0.90618228E+02</pdfrwt>
<totfact> 0.11062701E+05</totfact>
</mgrwt>
</event>
<event>
 5    1  0.4006808E+001  0.9185737E+02  0.7546771E-02  0.1298415E+00
         -2   -1    0    0    0  501 -0.00000000000E+00  0.00000000000E+00  0.54287771705E+03  0.54287771705E+03  0.00000000000E+00 0.  1.
          2   -1    0    0  501    0  0.00000000000E+00 -0.00000000000E+00 -0.38856704446E+01  0.38856704446E+01  0.00000000000E+00 0. -1.
         23    2    1    2    0    0  0.00000000000E+00  0.00000000000E+00  0.53899204661E+03  0.54676338750E+03  0.91857365523E+02 0.  0.
          2    1    3    3  502    0  0.10062525716E+02  0.23194922132E+02  0.41266699781E+02  0.48396274105E+02  0.00000000000E+00 0. -1.
         -2    1    3    3    0  502 -0.10062525716E+02 -0.23194922132E+02  0.49772534683E+03  0.49836711339E+03  0.00000000000E+00 0.  1.
<mgrwt>
<rscale>  0 0.91857366E+02</rscale>
<asrwt>0</asrwt>
<pdfrwt beam="2">  1        2 0.59779588E-03 0.91857366E+02</pdfrwt>
<pdfrwt beam="1">  1       -2 0.83519589E-01 0.91857366E+02</pdfrwt>
<totfact> 0.33350581E+04</totfact>
</mgrwt>
</event>
<event>
 5    1  0.4006808E+001  0.9194029E+02  0.7546771E-02  0.1298220E+00
          2   -1    0    0  501    0  0.00000000000E+00  0.00000000000E+00  0.57094672241E+03  0.57094672241E+03  0.00000000000E+00 0. -1.
         -2   -1    0    0    0  501 -0.00000000000E+00 -0.00000000000E+00 -0.37013163383E+01  0.37013163383E+01  0.00000000000E+00 0.  1.
         23    2    1    2    0    0  0.00000000000E+00  0.00000000000E+00  0.56724540607E+03  0.57464803875E+03  0.91940294365E+02 0.  0.
          2    1    3    3  502    0  0.37867747219E+02 -0.10387354150E+02  0.43302688250E+03  0.43480356987E+03  0.00000000000E+00 0. -1.
         -2    1    3    3    0  502 -0.37867747219E+02  0.10387354150E+02  0.13421852358E+03  0.13984446888E+03  0.00000000000E+00 0.  1.
<mgrwt>
<rscale>  0 0.91940294E+02</rscale>
<asrwt>0</asrwt>
<pdfrwt beam="1">  1        2 0.87837887E-01 0.91940294E+02</pdfrwt>
<pdfrwt beam="2">  1       -2 0.56943374E-03 0.91940294E+02</pdfrwt>
<totfact> 0.21969279E+05</totfact>
</mgrwt>
</event>
<event>
 5    1  0.4006808E+001  0.9051362E+02  0.7546771E-02  0.1301613E+00
         -2   -1    0    0    0  501 -0.00000000000E+00  0.00000000000E+00  0.42157291252E+01  0.42157291252E+01  0.00000000000E+00 0.  1.
          2   -1    0    0  501    0  0.00000000000E+00 -0.00000000000E+00 -0.48584210829E+03  0.48584210829E+03  0.00000000000E+00 0. -1.
         23    2    1    2    0    0  0.00000000000E+00  0.00000000000E+00 -0.48162637916E+03  0.49005783741E+03  0.90513617234E+02 0.  0.
          2    1    3    3  502    0 -0.42712017148E+02  0.98840676327E+01 -0.17999868002E+03  0.18526072441E+03  0.00000000000E+00 0. -1.
         -2    1    3    3    0  502  0.42712017148E+02 -0.98840676327E+01 -0.30162769914E+03  0.30479711300E+03  0.00000000000E+00 0.  1.
<mgrwt>
<rscale>  0 0.90513617E+02</rscale>
<asrwt>0</asrwt>
<pdfrwt beam="2">  1        2 0.74744891E-01 0.90513617E+02</pdfrwt>
<pdfrwt beam="1">  1       -2 0.64857413E-03 0.90513617E+02</pdfrwt>
<totfact> 0.21764206E+05</totfact>
</mgrwt>
</event>
<event>
 5    1  0.4006808E+001  0.9395064E+02  0.7546771E-02  0.1293557E+00
          2   -1    0    0  501    0  0.00000000000E+00  0.00000000000E+00  0.28947961278E+03  0.28947961278E+03  0.00000000000E+00 0. -1.
         -2   -1    0    0    0  501 -0.00000000000E+00 -0.00000000000E+00 -0.76229220034E+01  0.76229220034E+01  0.00000000000E+00 0.  1.
         23    2    1    2    0    0  0.00000000000E+00  0.00000000000E+00  0.28185669078E+03  0.29710253479E+03  0.93950636183E+02 0.  0.
          2    1    3    3  502    0 -0.18072983639E+01 -0.45241014833E+02  0.18050984915E+03  0.18610164264E+03  0.00000000000E+00 0. -1.
         -2    1    3    3    0  502  0.18072983639E+01  0.45241014833E+02  0.10134684163E+03  0.11100089215E+03  0.00000000000E+00 0.  1.
<mgrwt>
<rscale>  0 0.93950636E+02</rscale>
<asrwt>0</asrwt>
<pdfrwt beam="1">  1        2 0.44535317E-01 0.93950636E+02</pdfrwt>
<pdfrwt beam="2">  1       -2 0.11727575E-02 0.93950636E+02</pdfrwt>
<totfact> 0.16362280E+05</totfact>
</mgrwt>
</event>
<event>
 5    1  0.4006808E+001  0.9125820E+02  0.7546771E-02  0.1299833E+00
          1   -1    0    0  501    0  0.00000000000E+00  0.00000000000E+00  0.43586254078E+03  0.43586254078E+03  0.00000000000E+00 0. -1.
         -1   -1    0    0    0  501 -0.00000000000E+00 -0.00000000000E+00 -0.47767691081E+01  0.47767691081E+01  0.00000000000E+00 0.  1.
         23    2    1    2    0    0  0.00000000000E+00  0.00000000000E+00  0.43108577167E+03  0.44063930989E+03  0.91258198978E+02 0.  0.
          2    1    3    3  502    0 -0.76610520389E+01  0.43276625586E+02  0.27476952398E+03  0.27826219533E+03  0.00000000000E+00 0.  1.
         -2    1    3    3    0  502  0.76610520389E+01 -0.43276625586E+02  0.15631624769E+03  0.16237711455E+03  0.00000000000E+00 0. -1.
<mgrwt>
<rscale>  0 0.91258199E+02</rscale>
<asrwt>0</asrwt>
<pdfrwt beam="1">  1        1 0.67055744E-01 0.91258199E+02</pdfrwt>
<pdfrwt beam="2">  1       -1 0.73488790E-03 0.91258199E+02</pdfrwt>
<totfact> 0.13639553E+05</totfact>
</mgrwt>
</event>
<event>
 5    1  0.4006808E+001  0.8782565E+02  0.7546771E-02  0.1308204E+00
         -1   -1    0    0    0  501 -0.00000000000E+00  0.00000000000E+00  0.73562195530E+01  0.73562195530E+01  0.00000000000E+00 0.  1.
          1   -1    0    0  501    0  0.00000000000E+00 -0.00000000000E+00 -0.26213682409E+03  0.26213682409E+03  0.00000000000E+00 0. -1.
         23    2    1    2    0    0  0.00000000000E+00  0.00000000000E+00 -0.25478060453E+03  0.26949304364E+03  0.87825646161E+02 0.  0.
          2    1    3    3  502    0 -0.35448465557E+02  0.12841675012E+02 -0.19647135529E+03  0.20005623154E+03  0.00000000000E+00 0. -1.
         -2    1    3    3    0  502  0.35448465557E+02 -0.12841675012E+02 -0.58309249239E+02  0.69436812097E+02  0.00000000000E+00 0.  1.
<mgrwt>
<rscale>  0 0.87825646E+02</rscale>
<asrwt>0</asrwt>
<pdfrwt beam="2">  1        1 0.40328734E-01 0.87825646E+02</pdfrwt>
<pdfrwt beam="1">  1       -1 0.11317263E-02 0.87825646E+02</pdfrwt>
<totfact> 0.13790769E+05</totfact>
</mgrwt>
</event>
<event>
 5    1  0.4006808E+001  0.9223468E+02  0.7546771E-02  0.1297529E+00
         -1   -1    0    0    0  501 -0.00000000000E+00  0.00000000000E+00  0.43330297678E+02  0.43330297678E+02  0.00000000000E+00 0.  1.
          1   -1    0    0  501    0  0.00000000000E+00 -0.00000000000E+00 -0.49083648267E+02  0.49083648267E+02  0.00000000000E+00 0. -1.
         23    2    1    2    0    0  0.00000000000E+00  0.00000000000E+00 -0.57533505895E+01  0.92413945945E+02  0.92234680908E+02 0.  0.
          2    1    3    3  502    0  0.26726742317E+02 -0.37241288029E+02 -0.79438558811E+01  0.46522436901E+02  0.00000000000E+00 0. -1.
         -2    1    3    3    0  502 -0.26726742317E+02  0.37241288029E+02  0.21905052917E+01  0.45891509044E+02  0.00000000000E+00 0.  1.
<mgrwt>
<rscale>  0 0.92234681E+02</rscale>
<asrwt>0</asrwt>
<pdfrwt beam="2">  1        1 0.75513304E-02 0.92234681E+02</pdfrwt>
<pdfrwt beam="1">  1       -1 0.66661997E-02 0.92234681E+02</pdfrwt>
<totfact> 0.90529166E+04</totfact>
</mgrwt>
</event>
<event>
 5    1  0.4006808E+001  0.9070884E+02  0.7546771E-02  0.1301144E+00
          1   -1    0    0  501    0  0.00000000000E+00  0.00000000000E+00  0.33291563629E+01  0.33291563629E+01  0.00000000000E+00 0. -1.
         -1   -1    0    0    0  501 -0.00000000000E+00 -0.00000000000E+00 -0.61788135293E+03  0.61788135293E+03  0.00000000000E+00 0.  1.
         23    2    1    2    0    0  0.00000000000E+00  0.00000000000E+00 -0.61455219657E+03  0.62121050929E+03  0.90708844940E+02 0.  0.
          2    1    3    3  502    0 -0.33611692074E+02  0.52323233767E+01 -0.10183542737E+03  0.10736655587E+03  0.00000000000E+00 0. -1.
         -2    1    3    3    0  502  0.33611692074E+02 -0.52323233767E+01 -0.51271676920E+03  0.51384395342E+03  0.00000000000E+00 0.  1.
<mgrwt>
<rscale>  0 0.90708845E+02</rscale>
<asrwt>0</asrwt>
<pdfrwt beam="1">  1        1 0.51217789E-03 0.90708845E+02</pdfrwt>
<pdfrwt beam="2">  1       -1 0.95058671E-01 0.90708845E+02</pdfrwt>
<totfact> 0.41272825E+04</totfact>
</mgrwt>
</event>
<event>
 5    1  0.4006808E+001  0.9144229E+02  0.7546771E-02  0.1299396E+00
          2   -1    0    0  501    0  0.00000000000E+00  0.00000000000E+00  0.22126000419E+04  0.22126000419E+04  0.00000000000E+00 0.  1.
         -2   -1    0    0    0  501 -0.00000000000E+00 -0.00000000000E+00 -0.94478117702E+00  0.94478117702E+00  0.00000000000E+00 0. -1.
         23    2    1    2    0    0  0.00000000000E+00  0.00000000000E+00  0.22116552607E+04  0.22135448231E+04  0.91442285008E+02 0.  0.
          2    1    3    3  502    0  0.43364348925E+02 -0.10016401924E+02  0.85237219255E+03  0.85353333250E+03  0.00000000000E+00 0. -1.
         -2    1    3    3    0  502 -0.43364348925E+02  0.10016401924E+02  0.13592830682E+04  0.13600114906E+04  0.00000000000E+00 0.  1.
<mgrwt>
<rscale>  0 0.91442285E+02</rscale>
<asrwt>0</asrwt>
<pdfrwt beam="1">  1        2 0.34039586E+00 0.91442285E+02</pdfrwt>
<pdfrwt beam="2">  1       -2 0.14535272E-03 0.91442285E+02</pdfrwt>
<totfact> 0.17531367E+05</totfact>
</mgrwt>
</event>
<event>
 4    1  0.4006808E+001  0.1522653E+03  0.7546771E-02  0.1197717E+00
          2   -1    0    0  501    0  0.00000000000E+00  0.00000000000E+00  0.12422223749E+04  0.12422223749E+04  0.00000000000E+00 0.  1.
         -2   -1    0    0    0  501 -0.00000000000E+00 -0.00000000000E+00 -0.46659744913E+01  0.46659744913E+01  0.00000000000E+00 0. -1.
          2    1    1    2  502    0  0.47230919555E+01 -0.27406511594E+02  0.38417965947E+02  0.47427466544E+02  0.00000000000E+00 0. -1.
         -2    1    1    2    0  502 -0.47230919555E+01  0.27406511594E+02  0.11991384344E+04  0.11994608828E+04  0.00000000000E+00 0.  1.
<mgrwt>
<rscale>  0 0.15226527E+03</rscale>
<asrwt>0</asrwt>
<pdfrwt beam="1">  1        2 0.19111087E+00 0.15226527E+03</pdfrwt>
<pdfrwt beam="2">  1       -2 0.71784322E-03 0.15226527E+03</pdfrwt>
<totfact> 0.62062287E+04</totfact>
</mgrwt>
</event>
<event>
 5    1  0.4006808E+001  0.9193996E+02  0.7546771E-02  0.1298221E+00
         -1   -1    0    0    0  501 -0.00000000000E+00  0.00000000000E+00  0.29943793172E+02  0.29943793172E+02  0.00000000000E+00 0.  1.
          1   -1    0    0  501    0  0.00000000000E+00 -0.00000000000E+00 -0.70573521773E+02  0.70573521773E+02  0.00000000000E+00 0. -1.
         23    2    1    2    0    0  0.00000000000E+00  0.00000000000E+00 -0.40629728601E+02  0.10051731494E+03  0.91939957350E+02 0.  0.
          2    1    3    3  502    0  0.30219802473E+02  0.34405290459E+02 -0.24725927941E+02  0.52041637038E+02  0.00000000000E+00 0. -1.
         -2    1    3    3    0  502 -0.30219802473E+02 -0.34405290459E+02 -0.15903800659E+02  0.48475677906E+02  0.00000000000E+00 0.  1.
<mgrwt>
<rscale>  0 0.91939957E+02</rscale>
<asrwt>0</asrwt>
<pdfrwt beam="2">  1        1 0.10857465E-01 0.91939957E+02</pdfrwt>
<pdfrwt beam="1">  1       -1 0.46067374E-02 0.91939957E+02</pdfrwt>
<totfact> 0.96543576E+04</totfact>
</mgrwt>
</event>
<event>
 5    1  0.4006808E+001  0.9022270E+02  0.7546771E-02  0.1302313E+00
         -1   -1    0    0    0  501 -0.00000000000E+00  0.00000000000E+00  0.97703563587E+00  0.97703563587E+00  0.00000000000E+00 0.  1.
          1   -1    0    0  501    0  0.00000000000E+00 -0.00000000000E+00 -0.20828657312E+04  0.20828657312E+04  0.00000000000E+00 0. -1.
         23    2    1    2    0    0  0.00000000000E+00  0.00000000000E+00 -0.20818886955E+04  0.20838427668E+04  0.90222703221E+02 0.  0.
          2    1    3    3  502    0 -0.34074403582E+02  0.11314037773E+02 -0.16717671040E+04  0.16721526015E+04  0.00000000000E+00 0. -1.
         -2    1    3    3    0  502  0.34074403582E+02 -0.11314037773E+02 -0.41012159152E+03  0.41169016536E+03  0.00000000000E+00 0.  1.
<mgrwt>
<rscale>  0 0.90222703E+02</rscale>
<asrwt>0</asrwt>
<pdfrwt beam="2">  1        1 0.32043935E+00 0.90222703E+02</pdfrwt>
<pdfrwt beam="1">  1       -1 0.15031389E-03 0.90222703E+02</pdfrwt>
<totfact> 0.76943195E+04</totfact>
</mgrwt>
</event>
<event>
 5    1  0.4006808E+001  0.9147565E+02  0.7546771E-02  0.1299317E+00
          3   -1    0    0  501    0  0.00000000000E+00  0.00000000000E+00  0.86791768231E+01  0.86791768231E+01  0.00000000000E+00 0. -1.
         -3   -1    0    0    0  501 -0.00000000000E+00 -0.00000000000E+00 -0.24103075160E+03  0.24103075160E+03  0.00000000000E+00 0.  1.
         23    2    1    2    0    0  0.00000000000E+00  0.00000000000E+00 -0.23235157477E+03  0.24970992842E+03  0.91475647315E+02 0.  0.
          2    1    3    3  502    0 -0.23889387795E+02  0.20061293027E+02 -0.24868667756E+02  0.39894974159E+02  0.00000000000E+00 0. -1.
         -2    1    3    3    0  502  0.23889387795E+02 -0.20061293027E+02 -0.20748290702E+03  0.20981495426E+03  0.00000000000E+00 0.  1.
<mgrwt>
<rscale>  0 0.91475647E+02</rscale>
<asrwt>0</asrwt>
<pdfrwt beam="1">  1        3 0.13352580E-02 0.91475647E+02</pdfrwt>
<pdfrwt beam="2">  1       -3 0.37081654E-01 0.91475647E+02</pdfrwt>
<totfact> 0.25883199E+04</totfact>
</mgrwt>
</event>
<event>
 5    1  0.4006808E+001  0.9009797E+02  0.7546771E-02  0.1302615E+00
          2   -1    0    0  501    0  0.00000000000E+00  0.00000000000E+00  0.78500666689E+02  0.78500666689E+02  0.00000000000E+00 0. -1.
         -2   -1    0    0    0  501 -0.00000000000E+00 -0.00000000000E+00 -0.25852152402E+02  0.25852152402E+02  0.00000000000E+00 0.  1.
         23    2    1    2    0    0  0.00000000000E+00  0.00000000000E+00  0.52648514286E+02  0.10435281909E+03  0.90097973317E+02 0.  0.
          2    1    3    3  502    0  0.17366688670E+02  0.29845950500E+02 -0.71845758494E+01  0.35270395047E+02  0.00000000000E+00 0. -1.
         -2    1    3    3    0  502 -0.17366688670E+02 -0.29845950500E+02  0.59833090136E+02  0.69082424044E+02  0.00000000000E+00 0.  1.
<mgrwt>
<rscale>  0 0.90097973E+02</rscale>
<asrwt>0</asrwt>
<pdfrwt beam="1">  1        2 0.12077026E-01 0.90097973E+02</pdfrwt>
<pdfrwt beam="2">  1       -2 0.39772542E-02 0.90097973E+02</pdfrwt>
<totfact> 0.11807664E+05</totfact>
</mgrwt>
</event>
<event>
 5    1  0.4006808E+001  0.8814936E+02  0.7546771E-02  0.1307396E+00
          1   -1    0    0  501    0  0.00000000000E+00  0.00000000000E+00  0.27939400841E+02  0.27939400841E+02  0.00000000000E+00 0. -1.
         -1   -1    0    0    0  501 -0.00000000000E+00 -0.00000000000E+00 -0.69528248649E+02  0.69528248649E+02  0.00000000000E+00 0.  1.
         23    2    1    2    0    0  0.00000000000E+00  0.00000000000E+00 -0.41588847807E+02  0.97467649490E+02  0.88149364350E+02 0.  0.
          2    1    3    3  502    0 -0.26241019500E+02  0.34489258697E+02 -0.11915802569E+02  0.44945371516E+02  0.00000000000E+00 0. -1.
         -2    1    3    3    0  502  0.26241019500E+02 -0.34489258697E+02 -0.29673045238E+02  0.52522277974E+02  0.00000000000E+00 0.  1.
<mgrwt>
<rscale>  0 0.88149364E+02</rscale>
<asrwt>0</asrwt>
<pdfrwt beam="1">  1        1 0.42983695E-02 0.88149364E+02</pdfrwt>
<pdfrwt beam="2">  1       -1 0.10696653E-01 0.88149364E+02</pdfrwt>
<totfact> 0.94411039E+04</totfact>
</mgrwt>
</event>
<event>
 5    1  0.4006808E+001  0.9076587E+02  0.7546771E-02  0.1301008E+00
         -2   -1    0    0    0  501 -0.00000000000E+00  0.00000000000E+00  0.17104369773E+01  0.17104369773E+01  0.00000000000E+00 0.  1.
          2   -1    0    0  501    0  0.00000000000E+00 -0.00000000000E+00 -0.12041429957E+04  0.12041429957E+04  0.00000000000E+00 0. -1.
         23    2    1    2    0    0  0.00000000000E+00  0.00000000000E+00 -0.12024325588E+04  0.12058534327E+04  0.90765868163E+02 0.  0.
          2    1    3    3  502    0  0.24836098001E+02 -0.75939908208E+01 -0.10956568841E+04  0.10959646473E+04  0.00000000000E+00 0. -1.
         -2    1    3    3    0  502 -0.24836098001E+02  0.75939908208E+01 -0.10677567469E+03  0.10988878545E+03  0.00000000000E+00 0.  1.
<mgrwt>
<rscale>  0 0.90765868E+02</rscale>
<asrwt>0</asrwt>
<pdfrwt beam="2">  1        2 0.18525285E+00 0.90765868E+02</pdfrwt>
<pdfrwt beam="1">  1       -2 0.26314403E-03 0.90765868E+02</pdfrwt>
<totfact> 0.25156248E+05</totfact>
</mgrwt>
</event>
<event>
 5    1  0.4006808E+001  0.9504582E+02  0.7546771E-02  0.1291073E+00
          2   -1    0    0  501    0  0.00000000000E+00  0.00000000000E+00  0.10083591142E+03  0.10083591142E+03  0.00000000000E+00 0. -1.
         -2   -1    0    0    0  501 -0.00000000000E+00 -0.00000000000E+00 -0.22397049114E+02  0.22397049114E+02  0.00000000000E+00 0.  1.
         23    2    1    2    0    0  0.00000000000E+00  0.00000000000E+00  0.78438862302E+02  0.12323296053E+03  0.95045817593E+02 0.  0.
          2    1    3    3  502    0 -0.37959804774E+02 -0.27370114637E+02  0.28499670903E+02  0.54793258666E+02  0.00000000000E+00 0. -1.
         -2    1    3    3    0  502  0.37959804774E+02  0.27370114637E+02  0.49939191399E+02  0.68439701864E+02  0.00000000000E+00 0.  1.
<mgrwt>
<rscale>  0 0.95045818E+02</rscale>
<asrwt>0</asrwt>
<pdfrwt beam="1">  1        2 0.15513217E-01 0.95045818E+02</pdfrwt>
<pdfrwt beam="2">  1       -2 0.34456999E-02 0.95045818E+02</pdfrwt>
<totfact> 0.10964730E+05</totfact>
</mgrwt>
</event>
<event>
 5    1  0.4006808E+001  0.8957178E+02  0.7546771E-02  0.1303892E+00
         -3   -1    0    0    0  501 -0.00000000000E+00  0.00000000000E+00  0.27291648722E+03  0.27291648722E+03  0.00000000000E+00 0.  1.
          3   -1    0    0  501    0  0.00000000000E+00 -0.00000000000E+00 -0.73494128836E+01  0.73494128836E+01  0.00000000000E+00 0. -1.
         23    2    1    2    0    0  0.00000000000E+00  0.00000000000E+00  0.26556707434E+03  0.28026590011E+03  0.89571780095E+02 0.  0.
          2    1    3    3  502    0 -0.16893050757E+02 -0.41443146980E+02  0.13808094985E+03  0.14515253462E+03  0.00000000000E+00 0.  1.
         -2    1    3    3    0  502  0.16893050757E+02  0.41443146980E+02  0.12748612449E+03  0.13511336549E+03  0.00000000000E+00 0. -1.
<mgrwt>
<rscale>  0 0.89571780E+02</rscale>
<asrwt>0</asrwt>
<pdfrwt beam="2">  1        3 0.11306791E-02 0.89571780E+02</pdfrwt>
<pdfrwt beam="1">  1       -3 0.41987144E-01 0.89571780E+02</pdfrwt>
<totfact> 0.26018497E+04</totfact>
</mgrwt>
</event>
<event>
 5    1  0.4006808E+001  0.9031683E+02  0.7546771E-02  0.1302086E+00
          2   -1    0    0  501    0  0.00000000000E+00  0.00000000000E+00  0.11615508916E+04  0.11615508916E+04  0.00000000000E+00 0. -1.
         -2   -1    0    0    0  501 -0.00000000000E+00 -0.00000000000E+00 -0.17556550241E+01  0.17556550241E+01  0.00000000000E+00 0.  1.
         23    2    1    2    0    0  0.00000000000E+00  0.00000000000E+00  0.11597952365E+04  0.11633065466E+04  0.90316834722E+02 0.  0.
          2    1    3    3  502    0  0.80264309662E+01  0.37653276241E+02  0.88390777089E+03  0.88474580544E+03  0.00000000000E+00 0. -1.
         -2    1    3    3    0  502 -0.80264309662E+01 -0.37653276241E+02  0.27588746564E+03  0.27856074114E+03  0.00000000000E+00 0.  1.
<mgrwt>
<rscale>  0 0.90316835E+02</rscale>
<asrwt>0</asrwt>
<pdfrwt beam="1">  1        2 0.17869952E+00 0.90316835E+02</pdfrwt>
<pdfrwt beam="2">  1       -2 0.27010170E-03 0.90316835E+02</pdfrwt>
<totfact> 0.25574889E+05</totfact>
</mgrwt>
</event>
<event>
 5    1  0.4006808E+001  0.9171712E+02  0.7546771E-02  0.1298746E+00
          2   -1    0    0  501    0  0.00000000000E+00  0.00000000000E+00  0.15948372480E+02  0.15948372480E+02  0.00000000000E+00 0. -1.
         -2   -1    0    0    0  501 -0.00000000000E+00 -0.00000000000E+00 -0.13186345443E+03  0.13186345443E+03  0.00000000000E+00 0.  1.
         23    2    1    2    0    0  0.00000000000E+00  0.00000000000E+00 -0.11591508195E+03  0.14781182691E+03  0.91717119180E+02 0.  0.
          2    1    3    3  502    0  0.11269698633E+02  0.35371113223E+02 -0.14567150867E+02  0.39878862099E+02  0.00000000000E+00 0. -1.
         -2    1    3    3    0  502 -0.11269698633E+02 -0.35371113223E+02 -0.10134793108E+03  0.10793296481E+03  0.00000000000E+00 0.  1.
<mgrwt>
<rscale>  0 0.91717119E+02</rscale>
<asrwt>0</asrwt>
<pdfrwt beam="1">  1        2 0.24535959E-02 0.91717119E+02</pdfrwt>
<pdfrwt beam="2">  1       -2 0.20286684E-01 0.91717119E+02</pdfrwt>
<totfact> 0.72013779E+04</totfact>
</mgrwt>
</event>
<event>
 5    1  0.4006808E+001  0.9273843E+02  0.7546771E-02  0.1296352E+00
         -2   -1    0    0    0  501 -0.00000000000E+00  0.00000000000E+00  0.16255536489E+03  0.16255536489E+03  0.00000000000E+00 0.  1.
          2   -1    0    0  501    0  0.00000000000E+00 -0.00000000000E+00 -0.13226904644E+02  0.13226904644E+02  0.00000000000E+00 0. -1.
         23    2    1    2    0    0  0.00000000000E+00  0.00000000000E+00  0.14932846025E+03  0.17578226954E+03  0.92738434553E+02 0.  0.
          2    1    3    3  502    0  0.35233256148E+02 -0.56441976620E+00  0.17535485226E+02  0.39359803742E+02  0.00000000000E+00 0. -1.
         -2    1    3    3    0  502 -0.35233256148E+02  0.56441976620E+00  0.13179297502E+03  0.13642246579E+03  0.00000000000E+00 0.  1.
<mgrwt>
<rscale>  0 0.92738435E+02</rscale>
<asrwt>0</asrwt>
<pdfrwt beam="2">  1        2 0.20349085E-02 0.92738435E+02</pdfrwt>
<pdfrwt beam="1">  1       -2 0.25008516E-01 0.92738435E+02</pdfrwt>
<totfact> 0.64932861E+04</totfact>
</mgrwt>
</event>
<event>
 5    1  0.4006808E+001  0.8528949E+02  0.7546771E-02  0.1314677E+00
          4   -1    0    0  501    0  0.00000000000E+00  0.00000000000E+00  0.10928847329E+02  0.10928847329E+02  0.00000000000E+00 0. -1.
         -4   -1    0    0    0  501 -0.00000000000E+00 -0.00000000000E+00 -0.16640129716E+03  0.16640129716E+03  0.00000000000E+00 0.  1.
         23    2    1    2    0    0  0.00000000000E+00  0.00000000000E+00 -0.15547244984E+03  0.17733014449E+03  0.85289492248E+02 0.  0.
          2    1    3    3  502    0 -0.37962494640E+02 -0.10404849700E+02 -0.43625237133E+02  0.58758601170E+02  0.00000000000E+00 0. -1.
         -2    1    3    3    0  502  0.37962494640E+02  0.10404849700E+02 -0.11184721270E+03  0.11857154332E+03  0.00000000000E+00 0.  1.
<mgrwt>
<rscale>  0 0.85289492E+02</rscale>
<asrwt>0</asrwt>
<pdfrwt beam="1">  1        4 0.16813612E-02 0.85289492E+02</pdfrwt>
<pdfrwt beam="2">  1       -4 0.25600199E-01 0.85289492E+02</pdfrwt>
<totfact> 0.26729136E+04</totfact>
</mgrwt>
</event>
<event>
 5    1  0.4006808E+001  0.9432794E+02  0.7546771E-02  0.1292697E+00
          2   -1    0    0  501    0  0.00000000000E+00  0.00000000000E+00  0.47129684287E+01  0.47129684287E+01  0.00000000000E+00 0. -1.
         -2   -1    0    0    0  501 -0.00000000000E+00 -0.00000000000E+00 -0.47198280589E+03  0.47198280589E+03  0.00000000000E+00 0.  1.
         23    2    1    2    0    0  0.00000000000E+00  0.00000000000E+00 -0.46726983746E+03  0.47669577432E+03  0.94327939934E+02 0.  0.
          2    1    3    3  502    0 -0.62076099196E+01  0.33310836915E+02 -0.39942798694E+03  0.40086264858E+03  0.00000000000E+00 0.  1.
         -2    1    3    3    0  502  0.62076099196E+01 -0.33310836915E+02 -0.67841850521E+02  0.75833125737E+02  0.00000000000E+00 0. -1.
<mgrwt>
<rscale>  0 0.94327940E+02</rscale>
<asrwt>0</asrwt>
<pdfrwt beam="1">  1        2 0.72507218E-03 0.94327940E+02</pdfrwt>
<pdfrwt beam="2">  1       -2 0.72612728E-01 0.94327940E+02</pdfrwt>
<totfact> 0.34740629E+04</totfact>
</mgrwt>
</event>
<event>
 5    1  0.4006808E+001  0.8750621E+02  0.7546771E-02  0.1309006E+00
          1   -1    0    0  501    0  0.00000000000E+00  0.00000000000E+00  0.35525875060E+03  0.35525875060E+03  0.00000000000E+00 0. -1.
         -1   -1    0    0    0  501 -0.00000000000E+00 -0.00000000000E+00 -0.53885634636E+01  0.53885634636E+01  0.00000000000E+00 0.  1.
         23    2    1    2    0    0  0.00000000000E+00  0.00000000000E+00  0.34987018713E+03  0.36064731406E+03  0.87506212890E+02 0.  0.
          2    1    3    3  502    0  0.13263493762E+02 -0.26586717173E+02  0.30730558188E+03  0.30873855356E+03  0.00000000000E+00 0. -1.
         -2    1    3    3    0  502 -0.13263493762E+02  0.26586717173E+02  0.42564605252E+02  0.51908760504E+02  0.00000000000E+00 0.  1.
<mgrwt>
<rscale>  0 0.87506213E+02</rscale>
<asrwt>0</asrwt>
<pdfrwt beam="1">  1        1 0.54655174E-01 0.87506213E+02</pdfrwt>
<pdfrwt beam="2">  1       -1 0.82901004E-03 0.87506213E+02</pdfrwt>
<totfact> 0.14740088E+05</totfact>
</mgrwt>
</event>
<event>
 5    1  0.4006808E+001  0.8935777E+02  0.7546771E-02  0.1304414E+00
         -2   -1    0    0    0  501 -0.00000000000E+00  0.00000000000E+00  0.38085537850E+02  0.38085537850E+02  0.00000000000E+00 0.  1.
          2   -1    0    0  501    0  0.00000000000E+00 -0.00000000000E+00 -0.52413663821E+02  0.52413663821E+02  0.00000000000E+00 0. -1.
         23    2    1    2    0    0  0.00000000000E+00  0.00000000000E+00 -0.14328125971E+02  0.90499201671E+02  0.89357765802E+02 0.  0.
          2    1    3    3  502    0 -0.12820303327E+02  0.34044647889E+02 -0.33433867551E+02  0.49408721160E+02  0.00000000000E+00 0. -1.
         -2    1    3    3    0  502  0.12820303327E+02 -0.34044647889E+02  0.19105741580E+02  0.41090480511E+02  0.00000000000E+00 0.  1.
<mgrwt>
<rscale>  0 0.89357766E+02</rscale>
<asrwt>0</asrwt>
<pdfrwt beam="2">  1        2 0.80636406E-02 0.89357766E+02</pdfrwt>
<pdfrwt beam="1">  1       -2 0.58593135E-02 0.89357766E+02</pdfrwt>
<totfact> 0.10835181E+05</totfact>
</mgrwt>
</event>
<event>
 5    1  0.4006808E+001  0.9202211E+02  0.7546771E-02  0.1298027E+00
         -1   -1    0    0    0  501 -0.00000000000E+00  0.00000000000E+00  0.90689334997E+03  0.90689334997E+03  0.00000000000E+00 0.  1.
          1   -1    0    0  501    0  0.00000000000E+00 -0.00000000000E+00 -0.23343617176E+01  0.23343617176E+01  0.00000000000E+00 0. -1.
         23    2    1    2    0    0  0.00000000000E+00  0.00000000000E+00  0.90455898826E+03  0.90922771169E+03  0.92022108608E+02 0.  0.
          2    1    3    3  502    0 -0.28530552006E+02 -0.16864809199E+02  0.13693667631E+03  0.14089026761E+03  0.00000000000E+00 0. -1.
         -2    1    3    3    0  502  0.28530552006E+02  0.16864809199E+02  0.76762231194E+03  0.76833744408E+03  0.00000000000E+00 0.  1.
<mgrwt>
<rscale>  0 0.92022109E+02</rscale>
<asrwt>0</asrwt>
<pdfrwt beam="2">  1        1 0.35913330E-03 0.92022109E+02</pdfrwt>
<pdfrwt beam="1">  1       -1 0.13952177E+00 0.92022109E+02</pdfrwt>
<totfact> 0.28012931E+04</totfact>
</mgrwt>
</event>
<event>
 5    1  0.4006808E+001  0.9382291E+02  0.7546771E-02  0.1293849E+00
          2   -1    0    0  501    0  0.00000000000E+00  0.00000000000E+00  0.10232450988E+03  0.10232450988E+03  0.00000000000E+00 0.  1.
         -2   -1    0    0    0  501 -0.00000000000E+00 -0.00000000000E+00 -0.21506917453E+02  0.21506917453E+02  0.00000000000E+00 0. -1.
         23    2    1    2    0    0  0.00000000000E+00  0.00000000000E+00  0.80817592423E+02  0.12383142733E+03  0.93822913774E+02 0.  0.
          2    1    3    3  502    0 -0.12394807350E+02 -0.19156768800E+02 -0.13689785165E+02  0.26608706431E+02  0.00000000000E+00 0. -1.
         -2    1    3    3    0  502  0.12394807350E+02  0.19156768800E+02  0.94507377588E+02  0.97222720897E+02  0.00000000000E+00 0.  1.
<mgrwt>
<rscale>  0 0.93822914E+02</rscale>
<asrwt>0</asrwt>
<pdfrwt beam="1">  1        2 0.15742232E-01 0.93822914E+02</pdfrwt>
<pdfrwt beam="2">  1       -2 0.33087566E-02 0.93822914E+02</pdfrwt>
<totfact> 0.11416538E+05</totfact>
</mgrwt>
</event>
<event>
 5    1  0.4006808E+001  0.9310409E+02  0.7546771E-02  0.1295504E+00
         -1   -1    0    0    0  501 -0.00000000000E+00  0.00000000000E+00  0.52792988169E+03  0.52792988169E+03  0.00000000000E+00 0.  1.
          1   -1    0    0  501    0  0.00000000000E+00 -0.00000000000E+00 -0.41048877605E+01  0.41048877605E+01  0.00000000000E+00 0. -1.
         23    2    1    2    0    0  0.00000000000E+00  0.00000000000E+00  0.52382499393E+03  0.53203476945E+03  0.93104090345E+02 0.  0.
          2    1    3    3  502    0 -0.30379683415E+01  0.46444837347E+02  0.26683068016E+03  0.27085967593E+03  0.00000000000E+00 0. -1.
         -2    1    3    3    0  502  0.30379683415E+01 -0.46444837347E+02  0.25699431376E+03  0.26117509352E+03  0.00000000000E+00 0.  1.
<mgrwt>
<rscale>  0 0.93104090E+02</rscale>
<asrwt>0</asrwt>
<pdfrwt beam="2">  1        1 0.63152161E-03 0.93104090E+02</pdfrwt>
<pdfrwt beam="1">  1       -1 0.81219928E-01 0.93104090E+02</pdfrwt>
<totfact> 0.43022664E+04</totfact>
</mgrwt>
</event>
<event>
 5    1  0.4006808E+001  0.9418114E+02  0.7546771E-02  0.1293031E+00
         -2   -1    0    0    0  501 -0.00000000000E+00  0.00000000000E+00  0.48532035518E+02  0.48532035518E+02  0.00000000000E+00 0.  1.
          2   -1    0    0  501    0  0.00000000000E+00 -0.00000000000E+00 -0.45691917852E+02  0.45691917852E+02  0.00000000000E+00 0. -1.
         23    2    1    2    0    0  0.00000000000E+00  0.00000000000E+00  0.28401176653E+01  0.94223953370E+02  0.94181139940E+02 0.  0.
          2    1    3    3  502    0 -0.38208783162E+02  0.11275077512E+02 -0.23700782008E+02  0.46354779165E+02  0.00000000000E+00 0. -1.
         -2    1    3    3    0  502  0.38208783162E+02 -0.11275077512E+02  0.26540899674E+02  0.47869174205E+02  0.00000000000E+00 0.  1.
<mgrwt>
<rscale>  0 0.94181140E+02</rscale>
<asrwt>0</asrwt>
<pdfrwt beam="2">  1        2 0.70295258E-02 0.94181140E+02</pdfrwt>
<pdfrwt beam="1">  1       -2 0.74664670E-02 0.94181140E+02</pdfrwt>
<totfact> 0.89927458E+04</totfact>
</mgrwt>
</event>
<event>
 5    1  0.4006808E+001  0.9424136E+02  0.7546771E-02  0.1292894E+00
         -1   -1    0    0    0  501 -0.00000000000E+00  0.00000000000E+00  0.30023863946E+01  0.30023863946E+01  0.00000000000E+00 0.  1.
          1   -1    0    0  501    0  0.00000000000E+00 -0.00000000000E+00 -0.73953125781E+03  0.73953125781E+03  0.00000000000E+00 0. -1.
         23    2    1    2    0    0  0.00000000000E+00  0.00000000000E+00 -0.73652887141E+03  0.74253364420E+03  0.94241362190E+02 0.  0.
          2    1    3    3  502    0  0.43850586991E+02 -0.95891893241E+01 -0.48122175165E+03  0.48331066695E+03  0.00000000000E+00 0. -1.
         -2    1    3    3    0  502 -0.43850586991E+02  0.95891893241E+01 -0.25530711977E+03  0.25922297725E+03  0.00000000000E+00 0.  1.
<mgrwt>
<rscale>  0 0.94241362E+02</rscale>
<asrwt>0</asrwt>
<pdfrwt beam="2">  1        1 0.11377413E+00 0.94241362E+02</pdfrwt>
<pdfrwt beam="1">  1       -1 0.46190522E-03 0.94241362E+02</pdfrwt>
<totfact> 0.13008662E+05</totfact>
</mgrwt>
</event>
<event>
 5    1  0.4006808E+001  0.8986141E+02  0.7546771E-02  0.1303188E+00
         -1   -1    0    0    0  501 -0.00000000000E+00  0.00000000000E+00  0.32333809266E+01  0.32333809266E+01  0.00000000000E+00 0.  1.
          1   -1    0    0  501    0  0.00000000000E+00 -0.00000000000E+00 -0.62435206237E+03  0.62435206237E+03  0.00000000000E+00 0. -1.
         23    2    1    2    0    0  0.00000000000E+00  0.00000000000E+00 -0.62111868145E+03  0.62758544330E+03  0.89861405508E+02 0.  0.
          2    1    3    3  502    0  0.19438537998E+02 -0.32136688407E+02 -0.48278706524E+03  0.48424577836E+03  0.00000000000E+00 0. -1.
         -2    1    3    3    0  502 -0.19438537998E+02  0.32136688407E+02 -0.13833161621E+03  0.14333966494E+03  0.00000000000E+00 0.  1.
<mgrwt>
<rscale>  0 0.89861406E+02</rscale>
<asrwt>0</asrwt>
<pdfrwt beam="2">  1        1 0.96054112E-01 0.89861406E+02</pdfrwt>
<pdfrwt beam="1">  1       -1 0.49744349E-03 0.89861406E+02</pdfrwt>
<totfact> 0.14743736E+05</totfact>
</mgrwt>
</event>
<event>
 5    1  0.4006808E+001  0.9546202E+02  0.7546771E-02  0.1290139E+00
         -1   -1    0    0    0  501 -0.00000000000E+00  0.00000000000E+00  0.30591352710E+03  0.30591352710E+03  0.00000000000E+00 0.  1.
          1   -1    0    0  501    0  0.00000000000E+00 -0.00000000000E+00 -0.74473635734E+01  0.74473635734E+01  0.00000000000E+00 0. -1.
         23    2    1    2    0    0  0.00000000000E+00  0.00000000000E+00  0.29846616353E+03  0.31336089068E+03  0.95462018800E+02 0.  0.
          2    1    3    3  502    0 -0.50164456017E+01  0.34419245271E+02  0.41937673695E+02  0.54485022221E+02  0.00000000000E+00 0. -1.
         -2    1    3    3    0  502  0.50164456017E+01 -0.34419245271E+02  0.25652848983E+03  0.25887586845E+03  0.00000000000E+00 0.  1.
<mgrwt>
<rscale>  0 0.95462019E+02</rscale>
<asrwt>0</asrwt>
<pdfrwt beam="2">  1        1 0.11457485E-02 0.95462019E+02</pdfrwt>
<pdfrwt beam="1">  1       -1 0.47063610E-01 0.95462019E+02</pdfrwt>
<totfact> 0.53300116E+04</totfact>
</mgrwt>
</event>
<event>
 5    1  0.4006808E+001  0.9430382E+02  0.7546771E-02  0.1292752E+00
         -1   -1    0    0    0  501 -0.00000000000E+00  0.00000000000E+00  0.38187336106E+02  0.38187336106E+02  0.00000000000E+00 0.  1.
          1   -1    0    0  501    0  0.00000000000E+00 -0.00000000000E+00 -0.58220937580E+02  0.58220937580E+02  0.00000000000E+00 0. -1.
         23    2    1    2    0    0  0.00000000000E+00  0.00000000000E+00 -0.20033601474E+02  0.96408273687E+02  0.94303817776E+02 0.  0.
          2    1    3    3  502    0 -0.30428451952E+02 -0.36019562848E+02 -0.99615973896E+01  0.48192665609E+02  0.00000000000E+00 0. -1.
         -2    1    3    3    0  502  0.30428451952E+02  0.36019562848E+02 -0.10072004084E+02  0.48215608077E+02  0.00000000000E+00 0.  1.
<mgrwt>
<rscale>  0 0.94303818E+02</rscale>
<asrwt>0</asrwt>
<pdfrwt beam="2">  1        1 0.89570673E-02 0.94303818E+02</pdfrwt>
<pdfrwt beam="1">  1       -1 0.58749748E-02 0.94303818E+02</pdfrwt>
<totfact> 0.87329543E+04</totfact>
</mgrwt>
</event>
<event>
 5    1  0.4006808E+001  0.8677442E+02  0.7546771E-02  0.1310856E+00
          1   -1    0    0  501    0  0.00000000000E+00  0.00000000000E+00  0.17182881265E+01  0.17182881265E+01  0.00000000000E+00 0. -1.
         -1   -1    0    0    0  501 -0.00000000000E+00 -0.00000000000E+00 -0.10955380078E+04  0.10955380078E+04  0.00000000000E+00 0.  1.
         23    2    1    2    0    0  0.00000000000E+00  0.00000000000E+00 -0.10938197197E+04  0.10972562960E+04  0.86774419064E+02 0.  0.
          2    1    3    3  502    0  0.23297572900E+02  0.16734082590E+02 -0.95852966387E+03  0.95895877020E+03  0.00000000000E+00 0.  1.
         -2    1    3    3    0  502 -0.23297572900E+02 -0.16734082590E+02 -0.13529005583E+03  0.13829752576E+03  0.00000000000E+00 0. -1.
<mgrwt>
<rscale>  0 0.86774419E+02</rscale>
<asrwt>0</asrwt>
<pdfrwt beam="1">  1        1 0.26435265E-03 0.86774419E+02</pdfrwt>
<pdfrwt beam="2">  1       -1 0.16854391E+00 0.86774419E+02</pdfrwt>
<totfact> 0.26006334E+04</totfact>
</mgrwt>
</event>
<event>
 5    1  0.4006808E+001  0.9190940E+02  0.7546771E-02  0.1298293E+00
         -2   -1    0    0    0  501 -0.00000000000E+00  0.00000000000E+00  0.31335730508E+01  0.31335730508E+01  0.00000000000E+00 0.  1.
          2   -1    0    0  501    0  0.00000000000E+00 -0.00000000000E+00 -0.67393810820E+03  0.67393810820E+03  0.00000000000E+00 0. -1.
         23    2    1    2    0    0  0.00000000000E+00  0.00000000000E+00 -0.67080453515E+03  0.67707168125E+03  0.91909396555E+02 0.  0.
          2    1    3    3  502    0  0.42165204929E+02  0.64861827535E+01 -0.20954988437E+03  0.21384837879E+03  0.00000000000E+00 0. -1.
         -2    1    3    3    0  502 -0.42165204929E+02 -0.64861827535E+01 -0.46125465078E+03  0.46322330246E+03  0.00000000000E+00 0.  1.
<mgrwt>
<rscale>  0 0.91909397E+02</rscale>
<asrwt>0</asrwt>
<pdfrwt beam="2">  1        2 0.10368296E+00 0.91909397E+02</pdfrwt>
<pdfrwt beam="1">  1       -2 0.48208735E-03 0.91909397E+02</pdfrwt>
<totfact> 0.23008151E+05</totfact>
</mgrwt>
</event>
<event>
 5    1  0.4006808E+001  0.9737392E+02  0.7546771E-02  0.1285917E+00
          1   -1    0    0  501    0  0.00000000000E+00  0.00000000000E+00  0.62975128326E+02  0.62975128326E+02  0.00000000000E+00 0. -1.
         -1   -1    0    0    0  501 -0.00000000000E+00 -0.00000000000E+00 -0.37640572244E+02  0.37640572244E+02  0.00000000000E+00 0.  1.
         23    2    1    2    0    0  0.00000000000E+00  0.00000000000E+00  0.25334556082E+02  0.10061570057E+03  0.97373915754E+02 0.  0.
          2    1    3    3  502    0  0.75351423165E+01 -0.31981773673E+02  0.49791202982E+02  0.59655478469E+02  0.00000000000E+00 0. -1.
         -2    1    3    3    0  502 -0.75351423165E+01  0.31981773673E+02 -0.24456646899E+02  0.40960222101E+02  0.00000000000E+00 0.  1.
<mgrwt>
<rscale>  0 0.97373916E+02</rscale>
<asrwt>0</asrwt>
<pdfrwt beam="1">  1        1 0.96884813E-02 0.97373916E+02</pdfrwt>
<pdfrwt beam="2">  1       -1 0.57908573E-02 0.97373916E+02</pdfrwt>
<totfact> 0.80838668E+04</totfact>
</mgrwt>
</event>
<event>
 5    1  0.4006808E+001  0.9417452E+02  0.7546771E-02  0.1293046E+00
         -1   -1    0    0    0  501 -0.00000000000E+00  0.00000000000E+00  0.12129256485E+01  0.12129256485E+01  0.00000000000E+00 0.  1.
          1   -1    0    0  501    0  0.00000000000E+00 -0.00000000000E+00 -0.18279851885E+04  0.18279851885E+04  0.00000000000E+00 0. -1.
         23    2    1    2    0    0  0.00000000000E+00  0.00000000000E+00 -0.18267722629E+04  0.18291981142E+04  0.94174521400E+02 0.  0.
          2    1    3    3  502    0 -0.46530591604E+02  0.38593092636E+00 -0.10534040828E+04  0.10544313190E+04  0.00000000000E+00 0. -1.
         -2    1    3    3    0  502  0.46530591604E+02 -0.38593092636E+00 -0.77336818012E+03  0.77476679518E+03  0.00000000000E+00 0.  1.
<mgrwt>
<rscale>  0 0.94174521E+02</rscale>
<asrwt>0</asrwt>
<pdfrwt beam="2">  1        1 0.28122944E+00 0.94174521E+02</pdfrwt>
<pdfrwt beam="1">  1       -1 0.18660331E-03 0.94174521E+02</pdfrwt>
<totfact> 0.82813795E+04</totfact>
</mgrwt>
</event>
<event>
 5    1  0.4006808E+001  0.8923659E+02  0.7546771E-02  0.1304711E+00
          2   -1    0    0  501    0  0.00000000000E+00  0.00000000000E+00  0.10326494300E+04  0.10326494300E+04  0.00000000000E+00 0. -1.
         -2   -1    0    0    0  501 -0.00000000000E+00 -0.00000000000E+00 -0.19278488813E+01  0.19278488813E+01  0.00000000000E+00 0.  1.
         23    2    1    2    0    0  0.00000000000E+00  0.00000000000E+00  0.10307215811E+04  0.10345772789E+04  0.89236585511E+02 0.  0.
          2    1    3    3  502    0  0.11336022385E+02 -0.33186648677E+02  0.19554993603E+03  0.19866966687E+03  0.00000000000E+00 0. -1.
         -2    1    3    3    0  502 -0.11336022385E+02  0.33186648677E+02  0.83517164510E+03  0.83590761202E+03  0.00000000000E+00 0.  1.
<mgrwt>
<rscale>  0 0.89236586E+02</rscale>
<asrwt>0</asrwt>
<pdfrwt beam="1">  1        2 0.15886870E+00 0.89236586E+02</pdfrwt>
<pdfrwt beam="2">  1       -2 0.29659296E-03 0.89236586E+02</pdfrwt>
<totfact> 0.26483531E+05</totfact>
</mgrwt>
</event>
<event>
 5    1  0.4006808E+001  0.9053940E+02  0.7546771E-02  0.1301551E+00
          1   -1    0    0  501    0  0.00000000000E+00  0.00000000000E+00  0.19592383377E+03  0.19592383377E+03  0.00000000000E+00 0. -1.
         -1   -1    0    0    0  501 -0.00000000000E+00 -0.00000000000E+00 -0.10459911172E+02  0.10459911172E+02  0.00000000000E+00 0.  1.
         23    2    1    2    0    0  0.00000000000E+00  0.00000000000E+00  0.18546392260E+03  0.20638374494E+03  0.90539403526E+02 0.  0.
          2    1    3    3  502    0 -0.37607749116E+02 -0.14693667978E+02  0.46066422045E+02  0.61256525467E+02  0.00000000000E+00 0. -1.
         -2    1    3    3    0  502  0.37607749116E+02  0.14693667978E+02  0.13939750055E+03  0.14512721948E+03  0.00000000000E+00 0.  1.
<mgrwt>
<rscale>  0 0.90539404E+02</rscale>
<asrwt>0</asrwt>
<pdfrwt beam="1">  1        1 0.30142126E-01 0.90539404E+02</pdfrwt>
<pdfrwt beam="2">  1       -1 0.16092173E-02 0.90539404E+02</pdfrwt>
<totfact> 0.12017357E+05</totfact>
</mgrwt>
</event>
<event>
 5    1  0.4006808E+001  0.9099712E+02  0.7546771E-02  0.1300455E+00
         -1   -1    0    0    0  501 -0.00000000000E+00  0.00000000000E+00  0.19008115748E+02  0.19008115748E+02  0.00000000000E+00 0.  1.
          1   -1    0    0  501    0  0.00000000000E+00 -0.00000000000E+00 -0.10890710353E+03  0.10890710353E+03  0.00000000000E+00 0. -1.
         23    2    1    2    0    0  0.00000000000E+00  0.00000000000E+00 -0.89898987785E+02  0.12791521928E+03  0.90997117093E+02 0.  0.
          2    1    3    3  502    0  0.34574277741E+01  0.27187251923E+02 -0.96002345592E+02  0.99837622333E+02  0.00000000000E+00 0. -1.
         -2    1    3    3    0  502 -0.34574277741E+01 -0.27187251923E+02  0.61033578070E+01  0.28077596949E+02  0.00000000000E+00 0.  1.
<mgrwt>
<rscale>  0 0.90997117E+02</rscale>
<asrwt>0</asrwt>
<pdfrwt beam="2">  1        1 0.16754939E-01 0.90997117E+02</pdfrwt>
<pdfrwt beam="1">  1       -1 0.29243254E-02 0.90997117E+02</pdfrwt>
<totfact> 0.10653022E+05</totfact>
</mgrwt>
</event>
<event>
 5    1  0.4006808E+001  0.9295390E+02  0.7546771E-02  0.1295852E+00
          2   -1    0    0  501    0  0.00000000000E+00  0.00000000000E+00  0.76676783739E+03  0.76676783739E+03  0.00000000000E+00 0. -1.
         -2   -1    0    0    0  501 -0.00000000000E+00 -0.00000000000E+00 -0.28171587033E+01  0.28171587033E+01  0.00000000000E+00 0.  1.
         23    2    1    2    0    0  0.00000000000E+00  0.00000000000E+00  0.76395067869E+03  0.76958499610E+03  0.92953895809E+02 0.  0.
          2    1    3    3  502    0 -0.20070704003E+02 -0.20995396869E+02  0.68237120939E+03  0.68298909747E+03  0.00000000000E+00 0. -1.
         -2    1    3    3    0  502  0.20070704003E+02  0.20995396869E+02  0.81579469296E+02  0.86595898630E+02  0.00000000000E+00 0.  1.
<mgrwt>
<rscale>  0 0.92953896E+02</rscale>
<asrwt>0</asrwt>
<pdfrwt beam="1">  1        2 0.11796412E+00 0.92953896E+02</pdfrwt>
<pdfrwt beam="2">  1       -2 0.43340964E-03 0.92953896E+02</pdfrwt>
<totfact> 0.22981718E+05</totfact>
</mgrwt>
</event>
<event>
 5    1  0.4006808E+001  0.9117455E+02  0.7546771E-02  0.1300032E+00
         -1   -1    0    0    0  501 -0.00000000000E+00  0.00000000000E+00  0.15526296464E+03  0.15526296464E+03  0.00000000000E+00 0.  1.
          1   -1    0    0  501    0  0.00000000000E+00 -0.00000000000E+00 -0.13385031481E+02  0.13385031481E+02  0.00000000000E+00 0. -1.
         23    2    1    2    0    0  0.00000000000E+00  0.00000000000E+00  0.14187793316E+03  0.16864799612E+03  0.91174550605E+02 0.  0.
          2    1    3    3  502    0  0.15759450961E+02 -0.39834081857E+02  0.42099521466E+02  0.60062334950E+02  0.00000000000E+00 0. -1.
         -2    1    3    3    0  502 -0.15759450961E+02  0.39834081857E+02  0.99778411695E+02  0.10858566117E+03  0.00000000000E+00 0.  1.
<mgrwt>
<rscale>  0 0.91174551E+02</rscale>
<asrwt>0</asrwt>
<pdfrwt beam="2">  1        1 0.20592357E-02 0.91174551E+02</pdfrwt>
<pdfrwt beam="1">  1       -1 0.23886609E-01 0.91174551E+02</pdfrwt>
<totfact> 0.74185220E+04</totfact>
</mgrwt>
</event>
<event>
 5    1  0.4006808E+001  0.9206614E+02  0.7546771E-02  0.1297924E+00
         -1   -1    0    0    0  501 -0.00000000000E+00  0.00000000000E+00  0.15175794989E+03  0.15175794989E+03  0.00000000000E+00 0.  1.
          1   -1    0    0  501    0  0.00000000000E+00 -0.00000000000E+00 -0.13963312228E+02  0.13963312228E+02  0.00000000000E+00 0. -1.
         23    2    1    2    0    0  0.00000000000E+00  0.00000000000E+00  0.13779463766E+03  0.16572126211E+03  0.92066142253E+02 0.  0.
          2    1    3    3  502    0  0.13055529786E+02 -0.16489122918E+02 -0.48093348487E+01  0.21574701256E+02  0.00000000000E+00 0. -1.
         -2    1    3    3    0  502 -0.13055529786E+02  0.16489122918E+02  0.14260397251E+03  0.14414656086E+03  0.00000000000E+00 0.  1.
<mgrwt>
<rscale>  0 0.92066142E+02</rscale>
<asrwt>0</asrwt>
<pdfrwt beam="2">  1        1 0.21482020E-02 0.92066142E+02</pdfrwt>
<pdfrwt beam="1">  1       -1 0.23347376E-01 0.92066142E+02</pdfrwt>
<totfact> 0.72726001E+04</totfact>
</mgrwt>
</event>
<event>
 5    1  0.4006808E+001  0.9083654E+02  0.7546771E-02  0.1300838E+00
          3   -1    0    0  501    0  0.00000000000E+00  0.00000000000E+00  0.43388435405E+01  0.43388435405E+01  0.00000000000E+00 0.  1.
         -3   -1    0    0    0  501 -0.00000000000E+00 -0.00000000000E+00 -0.47543066221E+03  0.47543066221E+03  0.00000000000E+00 0. -1.
         23    2    1    2    0    0  0.00000000000E+00  0.00000000000E+00 -0.47109181867E+03  0.47976950575E+03  0.90836540173E+02 0.  0.
          2    1    3    3  502    0 -0.21538528575E+02  0.19654058529E+01 -0.44648592085E+03  0.44700945019E+03  0.00000000000E+00 0. -1.
         -2    1    3    3    0  502  0.21538528575E+02 -0.19654058529E+01 -0.24605897812E+02  0.32760055562E+02  0.00000000000E+00 0.  1.
<mgrwt>
<rscale>  0 0.90836540E+02</rscale>
<asrwt>0</asrwt>
<pdfrwt beam="1">  1        3 0.66751482E-03 0.90836540E+02</pdfrwt>
<pdfrwt beam="2">  1       -3 0.73143132E-01 0.90836540E+02</pdfrwt>
<totfact> 0.18576909E+04</totfact>
</mgrwt>
</event>
<event>
 5    1  0.4006808E+001  0.9242820E+02  0.7546771E-02  0.1297076E+00
         -1   -1    0    0    0  501 -0.00000000000E+00  0.00000000000E+00  0.17623695974E+01  0.17623695974E+01  0.00000000000E+00 0.  1.
          1   -1    0    0  501    0  0.00000000000E+00 -0.00000000000E+00 -0.12118588587E+04  0.12118588587E+04  0.00000000000E+00 0. -1.
         23    2    1    2    0    0  0.00000000000E+00  0.00000000000E+00 -0.12100964891E+04  0.12136212283E+04  0.92428203680E+02 0.  0.
          2    1    3    3  502    0  0.36889081561E+01 -0.36133143600E+02 -0.98025013406E+03  0.98092279892E+03  0.00000000000E+00 0. -1.
         -2    1    3    3    0  502 -0.36889081561E+01  0.36133143600E+02 -0.22984635503E+03  0.23269842937E+03  0.00000000000E+00 0.  1.
<mgrwt>
<rscale>  0 0.92428204E+02</rscale>
<asrwt>0</asrwt>
<pdfrwt beam="2">  1        1 0.18643923E+00 0.92428204E+02</pdfrwt>
<pdfrwt beam="1">  1       -1 0.27113464E-03 0.92428204E+02</pdfrwt>
<totfact> 0.12221835E+05</totfact>
</mgrwt>
</event>
<event>
 5    1  0.4006808E+001  0.9154580E+02  0.7546771E-02  0.1299151E+00
          1   -1    0    0  501    0  0.00000000000E+00  0.00000000000E+00  0.79629211856E+01  0.79629211856E+01  0.00000000000E+00 0. -1.
         -1   -1    0    0    0  501 -0.00000000000E+00 -0.00000000000E+00 -0.26311427554E+03  0.26311427554E+03  0.00000000000E+00 0.  1.
         23    2    1    2    0    0  0.00000000000E+00  0.00000000000E+00 -0.25515135435E+03  0.27107719672E+03  0.91545797039E+02 0.  0.
          2    1    3    3  502    0 -0.32729498839E+02  0.26237948549E+02 -0.73337367604E+02  0.84486800894E+02  0.00000000000E+00 0. -1.
         -2    1    3    3    0  502  0.32729498839E+02 -0.26237948549E+02 -0.18181398675E+03  0.18659039583E+03  0.00000000000E+00 0.  1.
<mgrwt>
<rscale>  0 0.91545797E+02</rscale>
<asrwt>0</asrwt>
<pdfrwt beam="1">  1        1 0.12250647E-02 0.91545797E+02</pdfrwt>
<pdfrwt beam="2">  1       -1 0.40479122E-01 0.91545797E+02</pdfrwt>
<totfact> 0.62959892E+04</totfact>
</mgrwt>
</event>
<event>
 5    1  0.4006808E+001  0.9156702E+02  0.7546771E-02  0.1299101E+00
          1   -1    0    0  501    0  0.00000000000E+00  0.00000000000E+00  0.56207501700E+03  0.56207501700E+03  0.00000000000E+00 0. -1.
         -1   -1    0    0    0  501 -0.00000000000E+00 -0.00000000000E+00 -0.37292704700E+01  0.37292704700E+01  0.00000000000E+00 0.  1.
         23    2    1    2    0    0  0.00000000000E+00  0.00000000000E+00  0.55834574653E+03  0.56580428747E+03  0.91567019452E+02 0.  0.
          2    1    3    3  502    0  0.26460553055E+02  0.34178993907E+02  0.37242761162E+03  0.37492758019E+03  0.00000000000E+00 0. -1.
         -2    1    3    3    0  502 -0.26460553055E+02 -0.34178993907E+02  0.18591813491E+03  0.19087670728E+03  0.00000000000E+00 0.  1.
<mgrwt>
<rscale>  0 0.91567019E+02</rscale>
<asrwt>0</asrwt>
<pdfrwt beam="1">  1        1 0.86473012E-01 0.91567019E+02</pdfrwt>
<pdfrwt beam="2">  1       -1 0.57373437E-03 0.91567019E+02</pdfrwt>
<totfact> 0.13934063E+05</totfact>
</mgrwt>
</event>
<event>
 5    1  0.4006808E+001  0.9300089E+02  0.7546771E-02  0.1295743E+00
         -1   -1    0    0    0  501 -0.00000000000E+00  0.00000000000E+00  0.36816711008E+02  0.36816711008E+02  0.00000000000E+00 0.  1.
          1   -1    0    0  501    0  0.00000000000E+00 -0.00000000000E+00 -0.58731252786E+02  0.58731252786E+02  0.00000000000E+00 0. -1.
         23    2    1    2    0    0  0.00000000000E+00  0.00000000000E+00 -0.21914541778E+02  0.95547963794E+02  0.93000893780E+02 0.  0.
          2    1    3    3  502    0 -0.20818531433E+01  0.23103169804E+02 -0.52362405402E+02  0.57270516560E+02  0.00000000000E+00 0. -1.
         -2    1    3    3    0  502  0.20818531433E+01 -0.23103169804E+02  0.30447863624E+02  0.38277447234E+02  0.00000000000E+00 0.  1.
<mgrwt>
<rscale>  0 0.93000894E+02</rscale>
<asrwt>0</asrwt>
<pdfrwt beam="2">  1        1 0.90355773E-02 0.93000894E+02</pdfrwt>
<pdfrwt beam="1">  1       -1 0.56641094E-02 0.93000894E+02</pdfrwt>
<totfact> 0.90908360E+04</totfact>
</mgrwt>
</event>
<event>
 5    1  0.4006808E+001  0.8339801E+02  0.7546771E-02  0.1319676E+00
         -1   -1    0    0    0  501 -0.00000000000E+00  0.00000000000E+00  0.52090043874E+03  0.52090043874E+03  0.00000000000E+00 0.  1.
          1   -1    0    0  501    0  0.00000000000E+00 -0.00000000000E+00 -0.33380790465E+01  0.33380790465E+01  0.00000000000E+00 0. -1.
         23    2    1    2    0    0  0.00000000000E+00  0.00000000000E+00  0.51756235969E+03  0.52423851779E+03  0.83398005729E+02 0.  0.
          2    1    3    3  502    0  0.29646150623E+02  0.24059193940E+02  0.15339618146E+03  0.15807633456E+03  0.00000000000E+00 0. -1.
         -2    1    3    3    0  502 -0.29646150623E+02 -0.24059193940E+02  0.36416617823E+03  0.36616218323E+03  0.00000000000E+00 0.  1.
<mgrwt>
<rscale>  0 0.83398006E+02</rscale>
<asrwt>0</asrwt>
<pdfrwt beam="2">  1        1 0.51355104E-03 0.83398006E+02</pdfrwt>
<pdfrwt beam="1">  1       -1 0.80138464E-01 0.83398006E+02</pdfrwt>
<totfact> 0.57880443E+04</totfact>
</mgrwt>
</event>
<event>
 5    1  0.4006808E+001  0.9323308E+02  0.7546771E-02  0.1295206E+00
          2   -1    0    0  501    0  0.00000000000E+00  0.00000000000E+00  0.22465577468E+04  0.22465577468E+04  0.00000000000E+00 0. -1.
         -2   -1    0    0    0  501 -0.00000000000E+00 -0.00000000000E+00 -0.96730290437E+00  0.96730290437E+00  0.00000000000E+00 0.  1.
         23    2    1    2    0    0  0.00000000000E+00  0.00000000000E+00  0.22455904439E+04  0.22475250497E+04  0.93233080681E+02 0.  0.
          2    1    3    3  502    0  0.35748165407E+02 -0.29875895974E+02  0.11616758549E+04  0.11626096905E+04  0.00000000000E+00 0. -1.
         -2    1    3    3    0  502 -0.35748165407E+02  0.29875895974E+02  0.10839145890E+04  0.10849153593E+04  0.00000000000E+00 0.  1.
<mgrwt>
<rscale>  0 0.93233081E+02</rscale>
<asrwt>0</asrwt>
<pdfrwt beam="1">  1        2 0.34562009E+00 0.93233081E+02</pdfrwt>
<pdfrwt beam="2">  1       -2 0.14881763E-03 0.93233081E+02</pdfrwt>
<totfact> 0.16342304E+05</totfact>
</mgrwt>
</event>
<event>
 5    1  0.4006808E+001  0.8685624E+02  0.7546771E-02  0.1310648E+00
         -2   -1    0    0    0  501 -0.00000000000E+00  0.00000000000E+00  0.28120157563E+02  0.28120157563E+02  0.00000000000E+00 0.  1.
          2   -1    0    0  501    0  0.00000000000E+00 -0.00000000000E+00 -0.67069383758E+02  0.67069383758E+02  0.00000000000E+00 0. -1.
         23    2    1    2    0    0  0.00000000000E+00  0.00000000000E+00 -0.38949226195E+02  0.95189541321E+02  0.86856240741E+02 0.  0.
          2    1    3    3  502    0  0.18573691930E+02 -0.16376461010E+02 -0.58574328844E+02  0.63593415592E+02  0.00000000000E+00 0. -1.
         -2    1    3    3    0  502 -0.18573691930E+02  0.16376461010E+02  0.19625102649E+02  0.31596125729E+02  0.00000000000E+00 0.  1.
<mgrwt>
<rscale>  0 0.86856241E+02</rscale>
<asrwt>0</asrwt>
<pdfrwt beam="2">  1        2 0.10318367E-01 0.86856241E+02</pdfrwt>
<pdfrwt beam="1">  1       -2 0.43261782E-02 0.86856241E+02</pdfrwt>
<totfact> 0.12517956E+05</totfact>
</mgrwt>
</event>
<event>
 5    1  0.4006808E+001  0.9145762E+02  0.7546771E-02  0.1299360E+00
          1   -1    0    0  501    0  0.00000000000E+00  0.00000000000E+00  0.10013894810E+03  0.10013894810E+03  0.00000000000E+00 0. -1.
         -1   -1    0    0    0  501 -0.00000000000E+00 -0.00000000000E+00 -0.20882225373E+02  0.20882225373E+02  0.00000000000E+00 0.  1.
         23    2    1    2    0    0  0.00000000000E+00  0.00000000000E+00  0.79256722728E+02  0.12102117347E+03  0.91457620412E+02 0.  0.
          2    1    3    3  502    0 -0.19392307708E+02  0.41413283930E+02  0.39693169604E+02  0.60553029630E+02  0.00000000000E+00 0. -1.
         -2    1    3    3    0  502  0.19392307708E+02 -0.41413283930E+02  0.39563553124E+02  0.60468143844E+02  0.00000000000E+00 0.  1.
<mgrwt>
<rscale>  0 0.91457620E+02</rscale>
<asrwt>0</asrwt>
<pdfrwt beam="1">  1        1 0.15405992E-01 0.91457620E+02</pdfrwt>
<pdfrwt beam="2">  1       -1 0.32126501E-02 0.91457620E+02</pdfrwt>
<totfact> 0.10360282E+05</totfact>
</mgrwt>
</event>
<event>
 5    1  0.4006808E+001  0.9042573E+02  0.7546771E-02  0.1301824E+00
          1   -1    0    0  501    0  0.00000000000E+00  0.00000000000E+00  0.72677325417E+03  0.72677325417E+03  0.00000000000E+00 0. -1.
         -1   -1    0    0    0  501 -0.00000000000E+00 -0.00000000000E+00 -0.28127107422E+01  0.28127107422E+01  0.00000000000E+00 0.  1.
         23    2    1    2    0    0  0.00000000000E+00  0.00000000000E+00  0.72396054343E+03  0.72958596492E+03  0.90425725083E+02 0.  0.
          2    1    3    3  502    0  0.19499620341E+02 -0.37010496630E+02  0.50036847706E+03  0.50211415524E+03  0.00000000000E+00 0. -1.
         -2    1    3    3    0  502 -0.19499620341E+02  0.37010496630E+02  0.22359206637E+03  0.22747180968E+03  0.00000000000E+00 0.  1.
<mgrwt>
<rscale>  0 0.90425725E+02</rscale>
<asrwt>0</asrwt>
<pdfrwt beam="1">  1        1 0.11181112E+00 0.90425725E+02</pdfrwt>
<pdfrwt beam="2">  1       -1 0.43272531E-03 0.90425725E+02</pdfrwt>
<totfact> 0.14521518E+05</totfact>
</mgrwt>
</event>
<event>
 5    1  0.4006808E+001  0.9128139E+02  0.7546771E-02  0.1299778E+00
          4   -1    0    0  501    0  0.00000000000E+00  0.00000000000E+00  0.55516782072E+03  0.55516782072E+03  0.00000000000E+00 0.  1.
         -4   -1    0    0    0  501 -0.00000000000E+00 -0.00000000000E+00 -0.37521504184E+01  0.37521504184E+01  0.00000000000E+00 0. -1.
         23    2    1    2    0    0  0.00000000000E+00  0.00000000000E+00  0.55141567030E+03  0.55891997114E+03  0.91281392864E+02 0.  0.
          2    1    3    3  502    0 -0.43750386669E+02 -0.12708777858E+02  0.29243596687E+03  0.29596351817E+03  0.00000000000E+00 0. -1.
         -2    1    3    3    0  502  0.43750386669E+02  0.12708777858E+02  0.25897970343E+03  0.26295645297E+03  0.00000000000E+00 0.  1.
<mgrwt>
<rscale>  0 0.91281393E+02</rscale>
<asrwt>0</asrwt>
<pdfrwt beam="1">  1        4 0.85410369E-01 0.91281393E+02</pdfrwt>
<pdfrwt beam="2">  1       -4 0.57725435E-03 0.91281393E+02</pdfrwt>
<totfact> 0.12011859E+04</totfact>
</mgrwt>
</event>
<event>
 5    1  0.4006808E+001  0.9121394E+02  0.7546771E-02  0.1299938E+00
          2   -1    0    0  501    0  0.00000000000E+00  0.00000000000E+00  0.25720283916E+03  0.25720283916E+03  0.00000000000E+00 0. -1.
         -2   -1    0    0    0  501 -0.00000000000E+00 -0.00000000000E+00 -0.80869863113E+01  0.80869863113E+01  0.00000000000E+00 0.  1.
         23    2    1    2    0    0  0.00000000000E+00  0.00000000000E+00  0.24911585284E+03  0.26528982547E+03  0.91213942782E+02 0.  0.
          2    1    3    3  502    0  0.16113961274E+02 -0.32140927955E+02  0.20616515323E+03  0.20927677703E+03  0.00000000000E+00 0. -1.
         -2    1    3    3    0  502 -0.16113961274E+02  0.32140927955E+02  0.42950699611E+02  0.56013048434E+02  0.00000000000E+00 0.  1.
<mgrwt>
<rscale>  0 0.91213943E+02</rscale>
<asrwt>0</asrwt>
<pdfrwt beam="1">  1        2 0.39569661E-01 0.91213943E+02</pdfrwt>
<pdfrwt beam="2">  1       -2 0.12441519E-02 0.91213943E+02</pdfrwt>
<totfact> 0.16945191E+05</totfact>
</mgrwt>
</event>
<event>
 5    1  0.4006808E+001  0.9552640E+02  0.7546771E-02  0.1289995E+00
         -1   -1    0    0    0  501 -0.00000000000E+00  0.00000000000E+00  0.16749964818E+01  0.16749964818E+01  0.00000000000E+00 0.  1.
          1   -1    0    0  501    0  0.00000000000E+00 -0.00000000000E+00 -0.13619868078E+04  0.13619868078E+04  0.00000000000E+00 0. -1.
         23    2    1    2    0    0  0.00000000000E+00  0.00000000000E+00 -0.13603118114E+04  0.13636618043E+04  0.95526396591E+02 0.  0.
          2    1    3    3  502    0 -0.30913183890E+02 -0.27786905744E+02 -0.10160294880E+04  0.10168793721E+04  0.00000000000E+00 0. -1.
         -2    1    3    3    0  502  0.30913183890E+02  0.27786905744E+02 -0.34428232339E+03  0.34678243218E+03  0.00000000000E+00 0.  1.
<mgrwt>
<rscale>  0 0.95526397E+02</rscale>
<asrwt>0</asrwt>
<pdfrwt beam="2">  1        1 0.20953734E+00 0.95526397E+02</pdfrwt>
<pdfrwt beam="1">  1       -1 0.25769065E-03 0.95526397E+02</pdfrwt>
<totfact> 0.10482753E+05</totfact>
</mgrwt>
</event>
<event>
 5    1  0.4006808E+001  0.9354869E+02  0.7546771E-02  0.1294479E+00
          2   -1    0    0  501    0  0.00000000000E+00  0.00000000000E+00  0.11517926652E+04  0.11517926652E+04  0.00000000000E+00 0.  1.
         -2   -1    0    0    0  501 -0.00000000000E+00 -0.00000000000E+00 -0.18995078978E+01  0.18995078978E+01  0.00000000000E+00 0. -1.
         23    2    1    2    0    0  0.00000000000E+00  0.00000000000E+00  0.11498931573E+04  0.11536921731E+04  0.93548688161E+02 0.  0.
          2    1    3    3  502    0  0.10229979081E+02  0.27522834318E+02  0.12592040211E+03  0.12929851719E+03  0.00000000000E+00 0. -1.
         -2    1    3    3    0  502 -0.10229979081E+02 -0.27522834318E+02  0.10239727552E+04  0.10243936559E+04  0.00000000000E+00 0.  1.
<mgrwt>
<rscale>  0 0.93548688E+02</rscale>
<asrwt>0</asrwt>
<pdfrwt beam="1">  1        2 0.17719831E+00 0.93548688E+02</pdfrwt>
<pdfrwt beam="2">  1       -2 0.29223290E-03 0.93548688E+02</pdfrwt>
<totfact> 0.23327059E+05</totfact>
</mgrwt>
</event>
<event>
 5    1  0.4006808E+001  0.9201201E+02  0.7546771E-02  0.1298051E+00
         -1   -1    0    0    0  501 -0.00000000000E+00  0.00000000000E+00  0.49636909605E+01  0.49636909605E+01  0.00000000000E+00 0.  1.
          1   -1    0    0  501    0  0.00000000000E+00 -0.00000000000E+00 -0.42640694481E+03  0.42640694481E+03  0.00000000000E+00 0. -1.
         23    2    1    2    0    0  0.00000000000E+00  0.00000000000E+00 -0.42144325385E+03  0.43137063577E+03  0.92012005684E+02 0.  0.
          2    1    3    3  502    0 -0.41716154185E+02 -0.18397890894E+02 -0.18188543155E+03  0.18751274655E+03  0.00000000000E+00 0.  1.
         -2    1    3    3    0  502  0.41716154185E+02  0.18397890894E+02 -0.23955782230E+03  0.24385788922E+03  0.00000000000E+00 0. -1.
<mgrwt>
<rscale>  0 0.92012006E+02</rscale>
<asrwt>0</asrwt>
<pdfrwt beam="2">  1        1 0.65601094E-01 0.92012006E+02</pdfrwt>
<pdfrwt beam="1">  1       -1 0.76364446E-03 0.92012006E+02</pdfrwt>
<totfact> 0.13300577E+05</totfact>
</mgrwt>
</event>
<event>
 5    1  0.4006808E+001  0.9131491E+02  0.7546771E-02  0.1299698E+00
         -1   -1    0    0    0  501 -0.00000000000E+00  0.00000000000E+00  0.10929048492E+03  0.10929048492E+03  0.00000000000E+00 0.  1.
          1   -1    0    0  501    0  0.00000000000E+00 -0.00000000000E+00 -0.19073969023E+02  0.19073969023E+02  0.00000000000E+00 0. -1.
         23    2    1    2    0    0  0.00000000000E+00  0.00000000000E+00  0.90216515900E+02  0.12836445395E+03  0.91314912777E+02 0.  0.
          2    1    3    3  502    0 -0.60943690131E+01  0.43438346141E+02  0.62921299403E+02  0.76701506945E+02  0.00000000000E+00 0. -1.
         -2    1    3    3    0  502  0.60943690131E+01 -0.43438346141E+02  0.27295216497E+02  0.51662947000E+02  0.00000000000E+00 0.  1.
<mgrwt>
<rscale>  0 0.91314913E+02</rscale>
<asrwt>0</asrwt>
<pdfrwt beam="2">  1        1 0.29344568E-02 0.91314913E+02</pdfrwt>
<pdfrwt beam="1">  1       -1 0.16813920E-01 0.91314913E+02</pdfrwt>
<totfact> 0.79696012E+04</totfact>
</mgrwt>
</event>
<event>
 5    1  0.4006808E+001  0.9229182E+02  0.7546771E-02  0.1297395E+00
         -2   -1    0    0    0  501 -0.00000000000E+00  0.00000000000E+00  0.72830906187E+03  0.72830906187E+03  0.00000000000E+00 0.  1.
          2   -1    0    0  501    0  0.00000000000E+00 -0.00000000000E+00 -0.29238205392E+01  0.29238205392E+01  0.00000000000E+00 0. -1.
         23    2    1    2    0    0  0.00000000000E+00  0.00000000000E+00  0.72538524133E+03  0.73123288241E+03  0.92291819658E+02 0.  0.
          2    1    3    3  502    0 -0.42721452256E+02 -0.14647442611E+02  0.28762199143E+03  0.29114614889E+03  0.00000000000E+00 0.  1.
         -2    1    3    3    0  502  0.42721452256E+02  0.14647442611E+02  0.43776324990E+03  0.44008673352E+03  0.00000000000E+00 0. -1.
<mgrwt>
<rscale>  0 0.92291820E+02</rscale>
<asrwt>0</asrwt>
<pdfrwt beam="2">  1        2 0.44981912E-03 0.92291820E+02</pdfrwt>
<pdfrwt beam="1">  1       -2 0.11204740E+00 0.92291820E+02</pdfrwt>
<totfact> 0.25358497E+04</totfact>
</mgrwt>
</event>
<event>
 5    1  0.4006808E+001  0.9069787E+02  0.7546771E-02  0.1301170E+00
          2   -1    0    0  501    0  0.00000000000E+00  0.00000000000E+00  0.58077884008E+03  0.58077884008E+03  0.00000000000E+00 0. -1.
         -2   -1    0    0    0  501 -0.00000000000E+00 -0.00000000000E+00 -0.35409790915E+01  0.35409790915E+01  0.00000000000E+00 0.  1.
         23    2    1    2    0    0  0.00000000000E+00  0.00000000000E+00  0.57723786099E+03  0.58431981917E+03  0.90697866116E+02 0.  0.
          2    1    3    3  502    0 -0.15168338013E+02  0.42612438471E+02  0.30962117999E+03  0.31290761175E+03  0.00000000000E+00 0. -1.
         -2    1    3    3    0  502  0.15168338013E+02 -0.42612438471E+02  0.26761668100E+03  0.27141220743E+03  0.00000000000E+00 0.  1.
<mgrwt>
<rscale>  0 0.90697866E+02</rscale>
<asrwt>0</asrwt>
<pdfrwt beam="1">  1        2 0.89350515E-01 0.90697866E+02</pdfrwt>
<pdfrwt beam="2">  1       -2 0.54476648E-03 0.90697866E+02</pdfrwt>
<totfact> 0.22888571E+05</totfact>
</mgrwt>
</event>
<event>
 5    1  0.4006808E+001  0.9110220E+02  0.7546771E-02  0.1300204E+00
          2   -1    0    0  501    0  0.00000000000E+00  0.00000000000E+00  0.65764704773E+03  0.65764704773E+03  0.00000000000E+00 0. -1.
         -2   -1    0    0    0  501 -0.00000000000E+00 -0.00000000000E+00 -0.31550400228E+01  0.31550400228E+01  0.00000000000E+00 0.  1.
         23    2    1    2    0    0  0.00000000000E+00  0.00000000000E+00  0.65449200771E+03  0.66080208775E+03  0.91102200993E+02 0.  0.
          2    1    3    3  502    0 -0.33555071565E+02  0.29778791366E+01  0.54964240412E+03  0.55067375369E+03  0.00000000000E+00 0. -1.
         -2    1    3    3    0  502  0.33555071565E+02 -0.29778791366E+01  0.10484960358E+03  0.11012833406E+03  0.00000000000E+00 0.  1.
<mgrwt>
<rscale>  0 0.91102201E+02</rscale>
<asrwt>0</asrwt>
<pdfrwt beam="1">  1        2 0.10117636E+00 0.91102201E+02</pdfrwt>
<pdfrwt beam="2">  1       -2 0.48539130E-03 0.91102201E+02</pdfrwt>
<totfact> 0.23406145E+05</totfact>
</mgrwt>
</event>
<event>
 5    1  0.4006808E+001  0.8890895E+02  0.7546771E-02  0.1305516E+00
         -1   -1    0    0    0  501 -0.00000000000E+00  0.00000000000E+00  0.14433400013E+04  0.14433400013E+04  0.00000000000E+00 0.  1.
          1   -1    0    0  501    0  0.00000000000E+00 -0.00000000000E+00 -0.13691856623E+01  0.13691856623E+01  0.00000000000E+00 0. -1.
         23    2    1    2    0    0  0.00000000000E+00  0.00000000000E+00  0.14419708156E+04  0.14447091870E+04  0.88908951983E+02 0.  0.
          2    1    3    3  502    0 -0.30453092455E+01 -0.30340241406E+02  0.19535190714E+03  0.19771740383E+03  0.00000000000E+00 0. -1.
         -2    1    3    3    0  502  0.30453092455E+01  0.30340241406E+02  0.12466189085E+04  0.12469917831E+04  0.00000000000E+00 0.  1.
<mgrwt>
<rscale>  0 0.88908952E+02</rscale>
<asrwt>0</asrwt>
<pdfrwt beam="2">  1        1 0.21064510E-03 0.88908952E+02</pdfrwt>
<pdfrwt beam="1">  1       -1 0.22205109E+00 0.88908952E+02</pdfrwt>
<totfact> 0.15848828E+04</totfact>
</mgrwt>
</event>
<event>
 5    1  0.4006808E+001  0.9111585E+02  0.7546771E-02  0.1300172E+00
         -1   -1    0    0    0  501 -0.00000000000E+00  0.00000000000E+00  0.84470933864E+03  0.84470933864E+03  0.00000000000E+00 0.  1.
          1   -1    0    0  501    0  0.00000000000E+00 -0.00000000000E+00 -0.24570871125E+01  0.24570871125E+01  0.00000000000E+00 0. -1.
         23    2    1    2    0    0  0.00000000000E+00  0.00000000000E+00  0.84225225153E+03  0.84716642575E+03  0.91115847794E+02 0.  0.
          2    1    3    3  502    0 -0.31010420643E+02  0.25705988215E+02  0.22321853206E+03  0.22682362547E+03  0.00000000000E+00 0. -1.
         -2    1    3    3    0  502  0.31010420643E+02 -0.25705988215E+02  0.61903371947E+03  0.62034280028E+03  0.00000000000E+00 0.  1.
<mgrwt>
<rscale>  0 0.91115848E+02</rscale>
<asrwt>0</asrwt>
<pdfrwt beam="2">  1        1 0.37801407E-03 0.91115848E+02</pdfrwt>
<pdfrwt beam="1">  1       -1 0.12995505E+00 0.91115848E+02</pdfrwt>
<totfact> 0.30989829E+04</totfact>
</mgrwt>
</event>
<event>
 5    1  0.4006808E+001  0.9154718E+02  0.7546771E-02  0.1299148E+00
         -1   -1    0    0    0  501 -0.00000000000E+00  0.00000000000E+00  0.18696792235E+01  0.18696792235E+01  0.00000000000E+00 0.  1.
          1   -1    0    0  501    0  0.00000000000E+00 -0.00000000000E+00 -0.11206314781E+04  0.11206314781E+04  0.00000000000E+00 0. -1.
         23    2    1    2    0    0  0.00000000000E+00  0.00000000000E+00 -0.11187617989E+04  0.11225011573E+04  0.91547176730E+02 0.  0.
          2    1    3    3  502    0  0.37563662699E+02  0.13244027527E+02 -0.83595431327E+03  0.83690265079E+03  0.00000000000E+00 0. -1.
         -2    1    3    3    0  502 -0.37563662699E+02 -0.13244027527E+02 -0.28280748559E+03  0.28559850652E+03  0.00000000000E+00 0.  1.
<mgrwt>
<rscale>  0 0.91547177E+02</rscale>
<asrwt>0</asrwt>
<pdfrwt beam="2">  1        1 0.17240512E+00 0.91547177E+02</pdfrwt>
<pdfrwt beam="1">  1       -1 0.28764249E-03 0.91547177E+02</pdfrwt>
<totfact> 0.12968473E+05</totfact>
</mgrwt>
</event>
<event>
 4    1  0.4006808E+001  0.3741604E+03  0.7546771E-02  0.1053113E+00
          2   -1    0    0  501    0  0.00000000000E+00  0.00000000000E+00  0.87622508224E+03  0.87622508224E+03  0.00000000000E+00 0. -1.
         -2   -1    0    0    0  501 -0.00000000000E+00 -0.00000000000E+00 -0.39942932611E+02  0.39942932611E+02  0.00000000000E+00 0.  1.
          2    1    1    2  502    0 -0.81105567432E+02 -0.13727623487E+01  0.53581480110E+01  0.81293956079E+02  0.00000000000E+00 0.  1.
         -2    1    1    2    0  502  0.81105567432E+02  0.13727623487E+01  0.83092400162E+03  0.83487405877E+03  0.00000000000E+00 0. -1.
<mgrwt>
<rscale>  0 0.37416039E+03</rscale>
<asrwt>0</asrwt>
<pdfrwt beam="1">  1        2 0.13480384E+00 0.37416039E+03</pdfrwt>
<pdfrwt beam="2">  1       -2 0.61450672E-02 0.37416039E+03</pdfrwt>
<totfact> 0.45134034E+03</totfact>
</mgrwt>
</event>
<event>
 5    1  0.4006808E+001  0.9145237E+02  0.7546771E-02  0.1299372E+00
          2   -1    0    0  501    0  0.00000000000E+00  0.00000000000E+00  0.22257147530E+04  0.22257147530E+04  0.00000000000E+00 0. -1.
         -2   -1    0    0    0  501 -0.00000000000E+00 -0.00000000000E+00 -0.93942136511E+00  0.93942136511E+00  0.00000000000E+00 0.  1.
         23    2    1    2    0    0  0.00000000000E+00  0.00000000000E+00  0.22247753316E+04  0.22266541743E+04  0.91452369933E+02 0.  0.
          2    1    3    3  502    0  0.42030293676E+02 -0.15832728551E+02  0.13213571338E+04  0.13221202275E+04  0.00000000000E+00 0. -1.
         -2    1    3    3    0  502 -0.42030293676E+02  0.15832728551E+02  0.90341819782E+03  0.90453394687E+03  0.00000000000E+00 0.  1.
<mgrwt>
<rscale>  0 0.91452370E+02</rscale>
<asrwt>0</asrwt>
<pdfrwt beam="1">  1        2 0.34241343E+00 0.91452370E+02</pdfrwt>
<pdfrwt beam="2">  1       -2 0.14452815E-03 0.91452370E+02</pdfrwt>
<totfact> 0.17400005E+05</totfact>
</mgrwt>
</event>
<event>
 5    1  0.4006808E+001  0.8902971E+02  0.7546771E-02  0.1305219E+00
          1   -1    0    0  501    0  0.00000000000E+00  0.00000000000E+00  0.29841069752E+03  0.29841069752E+03  0.00000000000E+00 0. -1.
         -1   -1    0    0    0  501 -0.00000000000E+00 -0.00000000000E+00 -0.66404195078E+01  0.66404195078E+01  0.00000000000E+00 0.  1.
         23    2    1    2    0    0  0.00000000000E+00  0.00000000000E+00  0.29177027801E+03  0.30505111703E+03  0.89029707787E+02 0.  0.
          2    1    3    3  502    0  0.13631980145E+01 -0.26049368264E+02  0.26947999818E+03  0.27073953778E+03  0.00000000000E+00 0. -1.
         -2    1    3    3    0  502 -0.13631980145E+01  0.26049368264E+02  0.22290279832E+02  0.34311579253E+02  0.00000000000E+00 0.  1.
<mgrwt>
<rscale>  0 0.89029708E+02</rscale>
<asrwt>0</asrwt>
<pdfrwt beam="1">  1        1 0.45909328E-01 0.89029708E+02</pdfrwt>
<pdfrwt beam="2">  1       -1 0.10216032E-02 0.89029708E+02</pdfrwt>
<totfact> 0.13636832E+05</totfact>
</mgrwt>
</event>
<event>
 5    1  0.4006808E+001  0.9416313E+02  0.7546771E-02  0.1293072E+00
         -2   -1    0    0    0  501 -0.00000000000E+00  0.00000000000E+00  0.15605602570E+01  0.15605602570E+01  0.00000000000E+00 0.  1.
          2   -1    0    0  501    0  0.00000000000E+00 -0.00000000000E+00 -0.14204345763E+04  0.14204345763E+04  0.00000000000E+00 0. -1.
         23    2    1    2    0    0  0.00000000000E+00  0.00000000000E+00 -0.14188740161E+04  0.14219951366E+04  0.94163129673E+02 0.  0.
          2    1    3    3  502    0  0.13140839815E+02 -0.44925316564E+02 -0.78600573736E+03  0.78739823781E+03  0.00000000000E+00 0. -1.
         -2    1    3    3    0  502 -0.13140839815E+02  0.44925316564E+02 -0.63286827872E+03  0.63459689879E+03  0.00000000000E+00 0.  1.
<mgrwt>
<rscale>  0 0.94163130E+02</rscale>
<asrwt>0</asrwt>
<pdfrwt beam="2">  1        2 0.21852952E+00 0.94163130E+02</pdfrwt>
<pdfrwt beam="1">  1       -2 0.24008496E-03 0.94163130E+02</pdfrwt>
<totfact> 0.22078601E+05</totfact>
</mgrwt>
</event>
<event>
 5    1  0.4006808E+001  0.9586740E+02  0.7546771E-02  0.1289234E+00
          2   -1    0    0  501    0  0.00000000000E+00  0.00000000000E+00  0.20838677003E+04  0.20838677003E+04  0.00000000000E+00 0. -1.
         -2   -1    0    0    0  501 -0.00000000000E+00 -0.00000000000E+00 -0.11025842199E+01  0.11025842199E+01  0.00000000000E+00 0.  1.
         23    2    1    2    0    0  0.00000000000E+00  0.00000000000E+00  0.20827651161E+04  0.20849702845E+04  0.95867400979E+02 0.  0.
          2    1    3    3  502    0  0.93788627359E+01  0.38689873853E+02  0.16220182046E+04  0.16225066796E+04  0.00000000000E+00 0. -1.
         -2    1    3    3    0  502 -0.93788627359E+01 -0.38689873853E+02  0.46074691146E+03  0.46246360486E+03  0.00000000000E+00 0.  1.
<mgrwt>
<rscale>  0 0.95867401E+02</rscale>
<asrwt>0</asrwt>
<pdfrwt beam="1">  1        2 0.32059188E+00 0.95867401E+02</pdfrwt>
<pdfrwt beam="2">  1       -2 0.16963001E-03 0.95867401E+02</pdfrwt>
<totfact> 0.16547234E+05</totfact>
</mgrwt>
</event>
<event>
 5    1  0.4006808E+001  0.9124590E+02  0.7546771E-02  0.1299862E+00
          1   -1    0    0  501    0  0.00000000000E+00  0.00000000000E+00  0.38164558194E+02  0.38164558194E+02  0.00000000000E+00 0. -1.
         -1   -1    0    0    0  501 -0.00000000000E+00 -0.00000000000E+00 -0.54538919724E+02  0.54538919724E+02  0.00000000000E+00 0.  1.
         23    2    1    2    0    0  0.00000000000E+00  0.00000000000E+00 -0.16374361530E+02  0.92703477918E+02  0.91245904580E+02 0.  0.
          2    1    3    3  502    0  0.38056991366E+02  0.46876438805E+01  0.16929071805E+02  0.41915415651E+02  0.00000000000E+00 0. -1.
         -2    1    3    3    0  502 -0.38056991366E+02 -0.46876438805E+01 -0.33303433335E+02  0.50788062268E+02  0.00000000000E+00 0.  1.
<mgrwt>
<rscale>  0 0.91245905E+02</rscale>
<asrwt>0</asrwt>
<pdfrwt beam="1">  1        1 0.58714705E-02 0.91245905E+02</pdfrwt>
<pdfrwt beam="2">  1       -1 0.83906030E-02 0.91245905E+02</pdfrwt>
<totfact> 0.89823711E+04</totfact>
</mgrwt>
</event>
<event>
 5    1  0.4006808E+001  0.9189232E+02  0.7546771E-02  0.1298333E+00
          1   -1    0    0  501    0  0.00000000000E+00  0.00000000000E+00  0.86506548134E+02  0.86506548134E+02  0.00000000000E+00 0. -1.
         -1   -1    0    0    0  501 -0.00000000000E+00 -0.00000000000E+00 -0.24403349332E+02  0.24403349332E+02  0.00000000000E+00 0.  1.
         23    2    1    2    0    0  0.00000000000E+00  0.00000000000E+00  0.62103198802E+02  0.11090989747E+03  0.91892317712E+02 0.  0.
          2    1    3    3  502    0  0.36107933966E+02 -0.22882671499E+02  0.51379028937E+02  0.66837146593E+02  0.00000000000E+00 0. -1.
         -2    1    3    3    0  502 -0.36107933966E+02  0.22882671499E+02  0.10724169864E+02  0.44072750873E+02  0.00000000000E+00 0.  1.
<mgrwt>
<rscale>  0 0.91892318E+02</rscale>
<asrwt>0</asrwt>
<pdfrwt beam="1">  1        1 0.13308700E-01 0.91892318E+02</pdfrwt>
<pdfrwt beam="2">  1       -1 0.37543615E-02 0.91892318E+02</pdfrwt>
<totfact> 0.99843317E+04</totfact>
</mgrwt>
</event>
<event>
 5    1  0.4006808E+001  0.9292654E+02  0.7546771E-02  0.1295916E+00
         -2   -1    0    0    0  501 -0.00000000000E+00  0.00000000000E+00  0.45809078256E+01  0.45809078256E+01  0.00000000000E+00 0.  1.
          2   -1    0    0  501    0  0.00000000000E+00 -0.00000000000E+00 -0.47126802117E+03  0.47126802117E+03  0.00000000000E+00 0. -1.
         23    2    1    2    0    0  0.00000000000E+00  0.00000000000E+00 -0.46668711334E+03  0.47584892899E+03  0.92926537999E+02 0.  0.
          2    1    3    3  502    0  0.21183605665E+02  0.12553836280E+01 -0.21683631370E+02  0.30339759498E+02  0.00000000000E+00 0.  1.
         -2    1    3    3    0  502 -0.21183605665E+02 -0.12553836280E+01 -0.44500348197E+03  0.44550916949E+03  0.00000000000E+00 0. -1.
<mgrwt>
<rscale>  0 0.92926538E+02</rscale>
<asrwt>0</asrwt>
<pdfrwt beam="2">  1        2 0.72502786E-01 0.92926538E+02</pdfrwt>
<pdfrwt beam="1">  1       -2 0.70475492E-03 0.92926538E+02</pdfrwt>
<totfact> 0.20093372E+05</totfact>
</mgrwt>
</event>
<event>
 5    1  0.4006808E+001  0.9087749E+02  0.7546771E-02  0.1300741E+00
          1   -1    0    0  501    0  0.00000000000E+00  0.00000000000E+00  0.19261739133E+03  0.19261739133E+03  0.00000000000E+00 0. -1.
         -1   -1    0    0    0  501 -0.00000000000E+00 -0.00000000000E+00 -0.10719071289E+02  0.10719071289E+02  0.00000000000E+00 0.  1.
         23    2    1    2    0    0  0.00000000000E+00  0.00000000000E+00  0.18189832004E+03  0.20333646262E+03  0.90877490045E+02 0.  0.
          2    1    3    3  502    0  0.24360767550E+02 -0.37406882608E+02  0.10992921815E+03  0.11864718650E+03  0.00000000000E+00 0. -1.
         -2    1    3    3    0  502 -0.24360767550E+02  0.37406882608E+02  0.71969101888E+02  0.84689276114E+02  0.00000000000E+00 0.  1.
<mgrwt>
<rscale>  0 0.90877490E+02</rscale>
<asrwt>0</asrwt>
<pdfrwt beam="1">  1        1 0.29633442E-01 0.90877490E+02</pdfrwt>
<pdfrwt beam="2">  1       -1 0.16490880E-02 0.90877490E+02</pdfrwt>
<totfact> 0.11858900E+05</totfact>
</mgrwt>
</event>
<event>
 5    1  0.4006808E+001  0.8237445E+02  0.7546771E-02  0.1322445E+00
         -2   -1    0    0    0  501 -0.00000000000E+00  0.00000000000E+00  0.18212817155E+03  0.18212817155E+03  0.00000000000E+00 0.  1.
          2   -1    0    0  501    0  0.00000000000E+00 -0.00000000000E+00 -0.93142515375E+01  0.93142515375E+01  0.00000000000E+00 0. -1.
         23    2    1    2    0    0  0.00000000000E+00  0.00000000000E+00  0.17281392001E+03  0.19144242309E+03  0.82374452395E+02 0.  0.
          2    1    3    3  502    0 -0.15517561132E+02  0.21008664981E+02  0.12393001651E+02  0.28909257993E+02  0.00000000000E+00 0. -1.
         -2    1    3    3    0  502  0.15517561132E+02 -0.21008664981E+02  0.16042091836E+03  0.16253316509E+03  0.00000000000E+00 0.  1.
<mgrwt>
<rscale>  0 0.82374452E+02</rscale>
<asrwt>0</asrwt>
<pdfrwt beam="2">  1        2 0.14329619E-02 0.82374452E+02</pdfrwt>
<pdfrwt beam="1">  1       -2 0.28019716E-01 0.82374452E+02</pdfrwt>
<totfact> 0.83909374E+04</totfact>
</mgrwt>
</event>
<event>
 5    1  0.4006808E+001  0.9127367E+02  0.7546771E-02  0.1299796E+00
          4   -1    0    0  501    0  0.00000000000E+00  0.00000000000E+00  0.58053139624E+03  0.58053139624E+03  0.00000000000E+00 0.  1.
         -4   -1    0    0    0  501 -0.00000000000E+00 -0.00000000000E+00 -0.35876106329E+01  0.35876106329E+01  0.00000000000E+00 0. -1.
         23    2    1    2    0    0  0.00000000000E+00  0.00000000000E+00  0.57694378561E+03  0.58411900688E+03  0.91273667832E+02 0.  0.
          2    1    3    3  502    0 -0.20328855213E+02 -0.35608324107E+02  0.41670542052E+03  0.41871783171E+03  0.00000000000E+00 0.  1.
         -2    1    3    3    0  502  0.20328855213E+02  0.35608324107E+02  0.16023836509E+03  0.16540117517E+03  0.00000000000E+00 0. -1.
<mgrwt>
<rscale>  0 0.91273668E+02</rscale>
<asrwt>0</asrwt>
<pdfrwt beam="1">  1        4 0.89312448E-01 0.91273668E+02</pdfrwt>
<pdfrwt beam="2">  1       -4 0.55194056E-03 0.91273668E+02</pdfrwt>
<totfact> 0.11616519E+04</totfact>
</mgrwt>
</event>
<event>
 5    1  0.4006808E+001  0.9108524E+02  0.7546771E-02  0.1300245E+00
         -4   -1    0    0    0  501 -0.00000000000E+00  0.00000000000E+00  0.86629719227E+01  0.86629719227E+01  0.00000000000E+00 0.  1.
          4   -1    0    0  501    0  0.00000000000E+00 -0.00000000000E+00 -0.23942477801E+03  0.23942477801E+03  0.00000000000E+00 0. -1.
         23    2    1    2    0    0  0.00000000000E+00  0.00000000000E+00 -0.23076180609E+03  0.24808774994E+03  0.91085237652E+02 0.  0.
          2    1    3    3  502    0  0.11972331158E+02 -0.38879015341E+02 -0.59614063449E+02  0.72171678020E+02  0.00000000000E+00 0. -1.
         -2    1    3    3    0  502 -0.11972331158E+02  0.38879015341E+02 -0.17114774264E+03  0.17591607192E+03  0.00000000000E+00 0.  1.
<mgrwt>
<rscale>  0 0.91085238E+02</rscale>
<asrwt>0</asrwt>
<pdfrwt beam="2">  1        4 0.36834584E-01 0.91085238E+02</pdfrwt>
<pdfrwt beam="1">  1       -4 0.13327648E-02 0.91085238E+02</pdfrwt>
<totfact> 0.19584162E+04</totfact>
</mgrwt>
</event>
<event>
 5    1  0.4006808E+001  0.9188811E+02  0.7546771E-02  0.1298343E+00
          2   -1    0    0  501    0  0.00000000000E+00  0.00000000000E+00  0.48444603045E+02  0.48444603045E+02  0.00000000000E+00 0. -1.
         -2   -1    0    0    0  501 -0.00000000000E+00 -0.00000000000E+00 -0.43572580818E+02  0.43572580818E+02  0.00000000000E+00 0.  1.
         23    2    1    2    0    0  0.00000000000E+00  0.00000000000E+00  0.48720222265E+01  0.92017183863E+02  0.91888114169E+02 0.  0.
          2    1    3    3  502    0  0.20697575106E+02 -0.16679942079E+02  0.39961922017E+02  0.47995471602E+02  0.00000000000E+00 0. -1.
         -2    1    3    3    0  502 -0.20697575106E+02  0.16679942079E+02 -0.35089899791E+02  0.44021712260E+02  0.00000000000E+00 0.  1.
<mgrwt>
<rscale>  0 0.91888114E+02</rscale>
<asrwt>0</asrwt>
<pdfrwt beam="1">  1        2 0.74530159E-02 0.91888114E+02</pdfrwt>
<pdfrwt beam="2">  1       -2 0.67034740E-02 0.91888114E+02</pdfrwt>
<totfact> 0.98040871E+04</totfact>
</mgrwt>
</event>
<event>
 5    1  0.4006808E+001  0.8660339E+02  0.7546771E-02  0.1311292E+00
         -2   -1    0    0    0  501 -0.00000000000E+00  0.00000000000E+00  0.52776460559E+01  0.52776460559E+01  0.00000000000E+00 0.  1.
          2   -1    0    0  501    0  0.00000000000E+00 -0.00000000000E+00 -0.35527898306E+03  0.35527898306E+03  0.00000000000E+00 0. -1.
         23    2    1    2    0    0  0.00000000000E+00  0.00000000000E+00 -0.35000133701E+03  0.36055662912E+03  0.86603388472E+02 0.  0.
          2    1    3    3  502    0  0.23535806998E+02  0.31394786212E+02 -0.25125515259E+03  0.25430044930E+03  0.00000000000E+00 0.  1.
         -2    1    3    3    0  502 -0.23535806998E+02 -0.31394786212E+02 -0.98746184420E+02  0.10625617982E+03  0.00000000000E+00 0. -1.
<mgrwt>
<rscale>  0 0.86603388E+02</rscale>
<asrwt>0</asrwt>
<pdfrwt beam="2">  1        2 0.54658324E-01 0.86603388E+02</pdfrwt>
<pdfrwt beam="1">  1       -2 0.81194527E-03 0.86603388E+02</pdfrwt>
<totfact> 0.21919707E+05</totfact>
</mgrwt>
</event>
<event>
 5    1  0.4006808E+001  0.9171861E+02  0.7546771E-02  0.1298742E+00
         -1   -1    0    0    0  501 -0.00000000000E+00  0.00000000000E+00  0.46176925248E+01  0.46176925248E+01  0.00000000000E+00 0.  1.
          1   -1    0    0  501    0  0.00000000000E+00 -0.00000000000E+00 -0.45543865838E+03  0.45543865838E+03  0.00000000000E+00 0. -1.
         23    2    1    2    0    0  0.00000000000E+00  0.00000000000E+00 -0.45082096586E+03  0.46005635091E+03  0.91718606364E+02 0.  0.
          2    1    3    3  502    0 -0.36238449589E+01  0.43734335939E+02 -0.29219077174E+03  0.29546788570E+03  0.00000000000E+00 0. -1.
         -2    1    3    3    0  502  0.36238449589E+01 -0.43734335939E+02 -0.15863019412E+03  0.16458846521E+03  0.00000000000E+00 0.  1.
<mgrwt>
<rscale>  0 0.91718606E+02</rscale>
<asrwt>0</asrwt>
<pdfrwt beam="2">  1        1 0.70067486E-01 0.91718606E+02</pdfrwt>
<pdfrwt beam="1">  1       -1 0.71041424E-03 0.91718606E+02</pdfrwt>
<totfact> 0.13544467E+05</totfact>
</mgrwt>
</event>
<event>
 5    1  0.4006808E+001  0.8708188E+02  0.7546771E-02  0.1310076E+00
          2   -1    0    0  501    0  0.00000000000E+00  0.00000000000E+00  0.46782909708E+03  0.46782909708E+03  0.00000000000E+00 0. -1.
         -2   -1    0    0    0  501 -0.00000000000E+00 -0.00000000000E+00 -0.40523635272E+01  0.40523635272E+01  0.00000000000E+00 0.  1.
         23    2    1    2    0    0  0.00000000000E+00  0.00000000000E+00  0.46377673356E+03  0.47188146061E+03  0.87081882616E+02 0.  0.
          2    1    3    3  502    0  0.61385300383E+00 -0.36755316526E+02  0.35833214139E+03  0.36021278942E+03  0.00000000000E+00 0.  1.
         -2    1    3    3    0  502 -0.61385300383E+00  0.36755316526E+02  0.10544459217E+03  0.11166867119E+03  0.00000000000E+00 0. -1.
<mgrwt>
<rscale>  0 0.87081883E+02</rscale>
<asrwt>0</asrwt>
<pdfrwt beam="1">  1        2 0.71973664E-01 0.87081883E+02</pdfrwt>
<pdfrwt beam="2">  1       -2 0.62344091E-03 0.87081883E+02</pdfrwt>
<totfact> 0.23801127E+05</totfact>
</mgrwt>
</event>
<event>
 5    1  0.4006808E+001  0.9159486E+02  0.7546771E-02  0.1299035E+00
         -2   -1    0    0    0  501 -0.00000000000E+00  0.00000000000E+00  0.38505958574E+01  0.38505958574E+01  0.00000000000E+00 0.  1.
          2   -1    0    0  501    0  0.00000000000E+00 -0.00000000000E+00 -0.54469613952E+03  0.54469613952E+03  0.00000000000E+00 0. -1.
         23    2    1    2    0    0  0.00000000000E+00  0.00000000000E+00 -0.54084554367E+03  0.54854673538E+03  0.91594862266E+02 0.  0.
          2    1    3    3  502    0  0.27333663621E+02  0.31912188624E+02 -0.37952613330E+03  0.38184499841E+03  0.00000000000E+00 0. -1.
         -2    1    3    3    0  502 -0.27333663621E+02 -0.31912188624E+02 -0.16131941036E+03  0.16670173697E+03  0.00000000000E+00 0.  1.
<mgrwt>
<rscale>  0 0.91594862E+02</rscale>
<asrwt>0</asrwt>
<pdfrwt beam="2">  1        2 0.83799401E-01 0.91594862E+02</pdfrwt>
<pdfrwt beam="1">  1       -2 0.59239940E-03 0.91594862E+02</pdfrwt>
<totfact> 0.21875220E+05</totfact>
</mgrwt>
</event>
<event>
 5    1  0.4006808E+001  0.9153641E+02  0.7546771E-02  0.1299173E+00
         -2   -1    0    0    0  501 -0.00000000000E+00  0.00000000000E+00  0.10206466445E+02  0.10206466445E+02  0.00000000000E+00 0.  1.
          2   -1    0    0  501    0  0.00000000000E+00 -0.00000000000E+00 -0.20523545065E+03  0.20523545065E+03  0.00000000000E+00 0. -1.
         23    2    1    2    0    0  0.00000000000E+00  0.00000000000E+00 -0.19502898420E+03  0.21544191709E+03  0.91536413308E+02 0.  0.
          2    1    3    3  502    0 -0.28252901223E+02  0.12846809946E+02 -0.17668369259E+03  0.17938894665E+03  0.00000000000E+00 0.  1.
         -2    1    3    3    0  502  0.28252901223E+02 -0.12846809946E+02 -0.18345291613E+02  0.36052970441E+02  0.00000000000E+00 0. -1.
<mgrwt>
<rscale>  0 0.91536413E+02</rscale>
<asrwt>0</asrwt>
<pdfrwt beam="2">  1        2 0.31574683E-01 0.91536413E+02</pdfrwt>
<pdfrwt beam="1">  1       -2 0.15702257E-02 0.91536413E+02</pdfrwt>
<totfact> 0.15448813E+05</totfact>
</mgrwt>
</event>
<event>
 5    1  0.4006808E+001  0.9103753E+02  0.7546771E-02  0.1300358E+00
          1   -1    0    0  501    0  0.00000000000E+00  0.00000000000E+00  0.47083916297E+02  0.47083916297E+02  0.00000000000E+00 0. -1.
         -1   -1    0    0    0  501 -0.00000000000E+00 -0.00000000000E+00 -0.44005642398E+02  0.44005642398E+02  0.00000000000E+00 0.  1.
         23    2    1    2    0    0  0.00000000000E+00  0.00000000000E+00  0.30782738994E+01  0.91089558695E+02  0.91037530355E+02 0.  0.
          2    1    3    3  502    0  0.35902741036E+02 -0.59123149770E+01  0.28904277380E+02  0.46469554906E+02  0.00000000000E+00 0. -1.
         -2    1    3    3    0  502 -0.35902741036E+02  0.59123149770E+01 -0.25826003481E+02  0.44620003789E+02  0.00000000000E+00 0.  1.
<mgrwt>
<rscale>  0 0.91037530E+02</rscale>
<asrwt>0</asrwt>
<pdfrwt beam="1">  1        1 0.72436795E-02 0.91037530E+02</pdfrwt>
<pdfrwt beam="2">  1       -1 0.67700988E-02 0.91037530E+02</pdfrwt>
<totfact> 0.93321338E+04</totfact>
</mgrwt>
</event>
<event>
 5    1  0.4006808E+001  0.8908153E+02  0.7546771E-02  0.1305091E+00
         -2   -1    0    0    0  501 -0.00000000000E+00  0.00000000000E+00  0.41411071929E+01  0.41411071929E+01  0.00000000000E+00 0.  1.
          2   -1    0    0  501    0  0.00000000000E+00 -0.00000000000E+00 -0.47906990110E+03  0.47906990110E+03  0.00000000000E+00 0. -1.
         23    2    1    2    0    0  0.00000000000E+00  0.00000000000E+00 -0.47492879391E+03  0.48321100830E+03  0.89081531494E+02 0.  0.
          2    1    3    3  502    0 -0.23192549070E+02 -0.35091308635E+02 -0.31692454516E+03  0.31970370908E+03  0.00000000000E+00 0. -1.
         -2    1    3    3    0  502  0.23192549070E+02  0.35091308635E+02 -0.15800424875E+03  0.16350729921E+03  0.00000000000E+00 0.  1.
<mgrwt>
<rscale>  0 0.89081531E+02</rscale>
<asrwt>0</asrwt>
<pdfrwt beam="2">  1        2 0.73703031E-01 0.89081531E+02</pdfrwt>
<pdfrwt beam="1">  1       -2 0.63709368E-03 0.89081531E+02</pdfrwt>
<totfact> 0.22595775E+05</totfact>
</mgrwt>
</event>
<event>
 5    1  0.4006808E+001  0.8724191E+02  0.7546771E-02  0.1309672E+00
          2   -1    0    0  501    0  0.00000000000E+00  0.00000000000E+00  0.50536564101E+03  0.50536564101E+03  0.00000000000E+00 0. -1.
         -2   -1    0    0    0  501 -0.00000000000E+00 -0.00000000000E+00 -0.37651707216E+01  0.37651707216E+01  0.00000000000E+00 0.  1.
         23    2    1    2    0    0  0.00000000000E+00  0.00000000000E+00  0.50160047029E+03  0.50913081173E+03  0.87241914588E+02 0.  0.
          2    1    3    3  502    0 -0.34034584981E+01  0.21547604714E+02  0.47124599015E+03  0.47175063968E+03  0.00000000000E+00 0. -1.
         -2    1    3    3    0  502  0.34034584981E+01 -0.21547604714E+02  0.30354480135E+02  0.37380172056E+02  0.00000000000E+00 0.  1.
<mgrwt>
<rscale>  0 0.87241915E+02</rscale>
<asrwt>0</asrwt>
<pdfrwt beam="1">  1        2 0.77748506E-01 0.87241915E+02</pdfrwt>
<pdfrwt beam="2">  1       -2 0.57925743E-03 0.87241915E+02</pdfrwt>
<totfact> 0.24294573E+05</totfact>
</mgrwt>
</event>
<event>
 5    1  0.4006808E+001  0.9549337E+02  0.7546771E-02  0.1290069E+00
          1   -1    0    0  501    0  0.00000000000E+00  0.00000000000E+00  0.39844564832E+04  0.39844564832E+04  0.00000000000E+00 0. -1.
         -1   -1    0    0    0  501 -0.00000000000E+00 -0.00000000000E+00 -0.57215979242E+00  0.57215979242E+00  0.00000000000E+00 0.  1.
         23    2    1    2    0    0  0.00000000000E+00  0.00000000000E+00  0.39838843234E+04  0.39850286430E+04  0.95493367190E+02 0.  0.
          2    1    3    3  502    0  0.26021270151E+01  0.46783680118E+02  0.16088756986E+04  0.16095578577E+04  0.00000000000E+00 0. -1.
         -2    1    3    3    0  502 -0.26021270151E+01 -0.46783680118E+02  0.23750086248E+04  0.23754707853E+04  0.00000000000E+00 0.  1.
<mgrwt>
<rscale>  0 0.95493367E+02</rscale>
<asrwt>0</asrwt>
<pdfrwt beam="1">  1        1 0.61297109E+00 0.95493367E+02</pdfrwt>
<pdfrwt beam="2">  1       -1 0.88027774E-04 0.95493367E+02</pdfrwt>
<totfact> 0.76875148E+03</totfact>
</mgrwt>
</event>
<event>
 5    1  0.4006808E+001  0.9066639E+02  0.7546771E-02  0.1301246E+00
          1   -1    0    0  501    0  0.00000000000E+00  0.00000000000E+00  0.19419639726E+01  0.19419639726E+01  0.00000000000E+00 0. -1.
         -1   -1    0    0    0  501 -0.00000000000E+00 -0.00000000000E+00 -0.10582577917E+04  0.10582577917E+04  0.00000000000E+00 0.  1.
         23    2    1    2    0    0  0.00000000000E+00  0.00000000000E+00 -0.10563158277E+04  0.10601997557E+04  0.90666388596E+02 0.  0.
          2    1    3    3  502    0 -0.29218594561E+02 -0.15826380500E+02 -0.16757235421E+03  0.17083528465E+03  0.00000000000E+00 0. -1.
         -2    1    3    3    0  502  0.29218594561E+02  0.15826380500E+02 -0.88874347354E+03  0.88936447104E+03  0.00000000000E+00 0.  1.
<mgrwt>
<rscale>  0 0.90666389E+02</rscale>
<asrwt>0</asrwt>
<pdfrwt beam="1">  1        1 0.29876353E-03 0.90666389E+02</pdfrwt>
<pdfrwt beam="2">  1       -1 0.16280898E+00 0.90666389E+02</pdfrwt>
<totfact> 0.24250720E+04</totfact>
</mgrwt>
</event>
<event>
 5    1  0.4006808E+001  0.9333935E+02  0.7546771E-02  0.1294961E+00
          1   -1    0    0  501    0  0.00000000000E+00  0.00000000000E+00  0.16127836882E+04  0.16127836882E+04  0.00000000000E+00 0. -1.
         -1   -1    0    0    0  501 -0.00000000000E+00 -0.00000000000E+00 -0.13504963833E+01  0.13504963833E+01  0.00000000000E+00 0.  1.
         23    2    1    2    0    0  0.00000000000E+00  0.00000000000E+00  0.16114331918E+04  0.16141341846E+04  0.93339349430E+02 0.  0.
          2    1    3    3  502    0  0.24540798641E+02  0.77857416415E+01  0.14788612617E+04  0.14790853592E+04  0.00000000000E+00 0. -1.
         -2    1    3    3    0  502 -0.24540798641E+02 -0.77857416415E+01  0.13257193011E+03  0.13504882534E+03  0.00000000000E+00 0.  1.
<mgrwt>
<rscale>  0 0.93339349E+02</rscale>
<asrwt>0</asrwt>
<pdfrwt beam="1">  1        1 0.24811903E+00 0.93339349E+02</pdfrwt>
<pdfrwt beam="2">  1       -1 0.20776997E-03 0.93339349E+02</pdfrwt>
<totfact> 0.97370386E+04</totfact>
</mgrwt>
</event>
<event>
 5    1  0.4006808E+001  0.9267570E+02  0.7546771E-02  0.1296498E+00
         -1   -1    0    0    0  501 -0.00000000000E+00  0.00000000000E+00  0.89108082608E+01  0.89108082608E+01  0.00000000000E+00 0.  1.
          1   -1    0    0  501    0  0.00000000000E+00 -0.00000000000E+00 -0.24096538672E+03  0.24096538672E+03  0.00000000000E+00 0. -1.
         23    2    1    2    0    0  0.00000000000E+00  0.00000000000E+00 -0.23205457845E+03  0.24987619498E+03  0.92675700343E+02 0.  0.
          2    1    3    3  502    0  0.39142326488E+02 -0.14851903795E+02 -0.16957983035E+03  0.17467117573E+03  0.00000000000E+00 0. -1.
         -2    1    3    3    0  502 -0.39142326488E+02  0.14851903795E+02 -0.62474748109E+02  0.75205019251E+02  0.00000000000E+00 0.  1.
<mgrwt>
<rscale>  0 0.92675700E+02</rscale>
<asrwt>0</asrwt>
<pdfrwt beam="2">  1        1 0.37071592E-01 0.92675700E+02</pdfrwt>
<pdfrwt beam="1">  1       -1 0.13708938E-02 0.92675700E+02</pdfrwt>
<totfact> 0.11754125E+05</totfact>
</mgrwt>
</event>
<event>
 5    1  0.4006808E+001  0.8841289E+02  0.7546771E-02  0.1306741E+00
          2   -1    0    0  501    0  0.00000000000E+00  0.00000000000E+00  0.14604356412E+04  0.14604356412E+04  0.00000000000E+00 0. -1.
         -2   -1    0    0    0  501 -0.00000000000E+00 -0.00000000000E+00 -0.13381006140E+01  0.13381006140E+01  0.00000000000E+00 0.  1.
         23    2    1    2    0    0  0.00000000000E+00  0.00000000000E+00  0.14590975406E+04  0.14617737419E+04  0.88412891102E+02 0.  0.
          2    1    3    3  502    0  0.31825466131E+02 -0.29107423180E+01  0.22456574106E+03  0.22682835972E+03  0.00000000000E+00 0.  1.
         -2    1    3    3    0  502 -0.31825466131E+02  0.29107423180E+01  0.12345317996E+04  0.12349453821E+04  0.00000000000E+00 0. -1.
<mgrwt>
<rscale>  0 0.88412891E+02</rscale>
<asrwt>0</asrwt>
<pdfrwt beam="1">  1        2 0.22468113E+00 0.88412891E+02</pdfrwt>
<pdfrwt beam="2">  1       -2 0.20586280E-03 0.88412891E+02</pdfrwt>
<totfact> 0.25834260E+05</totfact>
</mgrwt>
</event>
<event>
 5    1  0.4006808E+001  0.9126545E+02  0.7546771E-02  0.1299816E+00
          2   -1    0    0  501    0  0.00000000000E+00  0.00000000000E+00  0.15941411164E+02  0.15941411164E+02  0.00000000000E+00 0. -1.
         -2   -1    0    0    0  501 -0.00000000000E+00 -0.00000000000E+00 -0.13062491229E+03  0.13062491229E+03  0.00000000000E+00 0.  1.
         23    2    1    2    0    0  0.00000000000E+00  0.00000000000E+00 -0.11468350113E+03  0.14656632346E+03  0.91265446587E+02 0.  0.
          2    1    3    3  502    0  0.31073755551E+02 -0.33265430497E+02 -0.52218269761E+02  0.69274200443E+02  0.00000000000E+00 0. -1.
         -2    1    3    3    0  502 -0.31073755551E+02  0.33265430497E+02 -0.62465231369E+02  0.77292123015E+02  0.00000000000E+00 0.  1.
<mgrwt>
<rscale>  0 0.91265447E+02</rscale>
<asrwt>0</asrwt>
<pdfrwt beam="1">  1        2 0.24525247E-02 0.91265447E+02</pdfrwt>
<pdfrwt beam="2">  1       -2 0.20096141E-01 0.91265447E+02</pdfrwt>
<totfact> 0.73149678E+04</totfact>
</mgrwt>
</event>
<event>
 5    1  0.4006808E+001  0.6433761E+02  0.7546771E-02  0.1380481E+00
          2   -1    0    0  501    0  0.00000000000E+00  0.00000000000E+00  0.15557285505E+04  0.15557285505E+04  0.00000000000E+00 0. -1.
         -2   -1    0    0    0  501 -0.00000000000E+00 -0.00000000000E+00 -0.66517524559E+00  0.66517524559E+00  0.00000000000E+00 0.  1.
         23    2    1    2    0    0  0.00000000000E+00  0.00000000000E+00  0.15550633752E+04  0.15563937257E+04  0.64337613279E+02 0.  0.
          2    1    3    3  502    0  0.23894812193E+02 -0.14557131352E+02  0.11615220491E+04  0.11618590029E+04  0.00000000000E+00 0. -1.
         -2    1    3    3    0  502 -0.23894812193E+02  0.14557131352E+02  0.39354132616E+03  0.39453472283E+03  0.00000000000E+00 0.  1.
<mgrwt>
<rscale>  0 0.64337613E+02</rscale>
<asrwt>0</asrwt>
<pdfrwt beam="1">  1        2 0.23933994E+00 0.64337613E+02</pdfrwt>
<pdfrwt beam="2">  1       -2 0.10233590E-03 0.64337613E+02</pdfrwt>
<totfact> 0.57365604E+05</totfact>
</mgrwt>
</event>
<event>
 5    1  0.4006808E+001  0.8955115E+02  0.7546771E-02  0.1303942E+00
          4   -1    0    0  501    0  0.00000000000E+00  0.00000000000E+00  0.63733291075E+02  0.63733291075E+02  0.00000000000E+00 0. -1.
         -4   -1    0    0    0  501 -0.00000000000E+00 -0.00000000000E+00 -0.31456906012E+02  0.31456906012E+02  0.00000000000E+00 0.  1.
         23    2    1    2    0    0  0.00000000000E+00  0.00000000000E+00  0.32276385063E+02  0.95190197087E+02  0.89551150684E+02 0.  0.
          2    1    3    3  502    0 -0.42530841729E+02  0.11411989705E+02  0.24757178731E+02  0.50517560372E+02  0.00000000000E+00 0. -1.
         -2    1    3    3    0  502  0.42530841729E+02 -0.11411989705E+02  0.75192063316E+01  0.44672636715E+02  0.00000000000E+00 0.  1.
<mgrwt>
<rscale>  0 0.89551151E+02</rscale>
<asrwt>0</asrwt>
<pdfrwt beam="1">  1        4 0.98051217E-02 0.89551151E+02</pdfrwt>
<pdfrwt beam="2">  1       -4 0.48395240E-02 0.89551151E+02</pdfrwt>
<totfact> 0.28093744E+04</totfact>
</mgrwt>
</event>
<event>
 5    1  0.4006808E+001  0.9003805E+02  0.7546771E-02  0.1302760E+00
          1   -1    0    0  501    0  0.00000000000E+00  0.00000000000E+00  0.73683798385E+03  0.73683798385E+03  0.00000000000E+00 0. -1.
         -1   -1    0    0    0  501 -0.00000000000E+00 -0.00000000000E+00 -0.27505538409E+01  0.27505538409E+01  0.00000000000E+00 0.  1.
         23    2    1    2    0    0  0.00000000000E+00  0.00000000000E+00  0.73408743001E+03  0.73958853769E+03  0.90038048548E+02 0.  0.
          2    1    3    3  502    0 -0.19886327485E+02  0.18902652556E+02  0.66022614915E+03  0.66079599297E+03  0.00000000000E+00 0. -1.
         -2    1    3    3    0  502  0.19886327485E+02 -0.18902652556E+02  0.73861280854E+02  0.78792544723E+02  0.00000000000E+00 0.  1.
<mgrwt>
<rscale>  0 0.90038049E+02</rscale>
<asrwt>0</asrwt>
<pdfrwt beam="1">  1        1 0.11335953E+00 0.90038049E+02</pdfrwt>
<pdfrwt beam="2">  1       -1 0.42316271E-03 0.90038049E+02</pdfrwt>
<totfact> 0.14680662E+05</totfact>
</mgrwt>
</event>
<event>
 5    1  0.4006808E+001  0.9070561E+02  0.7546771E-02  0.1301152E+00
         -2   -1    0    0    0  501 -0.00000000000E+00  0.00000000000E+00  0.61496185121E+01  0.61496185121E+01  0.00000000000E+00 0.  1.
          2   -1    0    0  501    0  0.00000000000E+00 -0.00000000000E+00 -0.33447227170E+03  0.33447227170E+03  0.00000000000E+00 0. -1.
         23    2    1    2    0    0  0.00000000000E+00  0.00000000000E+00 -0.32832265319E+03  0.34062189021E+03  0.90705608952E+02 0.  0.
          2    1    3    3  502    0 -0.94545176022E+01  0.43588350481E+02 -0.19502402986E+03  0.20005925228E+03  0.00000000000E+00 0. -1.
         -2    1    3    3    0  502  0.94545176022E+01 -0.43588350481E+02 -0.13329862332E+03  0.14056263793E+03  0.00000000000E+00 0.  1.
<mgrwt>
<rscale>  0 0.90705609E+02</rscale>
<asrwt>0</asrwt>
<pdfrwt beam="2">  1        2 0.51457283E-01 0.90705609E+02</pdfrwt>
<pdfrwt beam="1">  1       -2 0.94609496E-03 0.90705609E+02</pdfrwt>
<totfact> 0.18965044E+05</totfact>
</mgrwt>
</event>
<event>
 5    1  0.4006808E+001  0.9119187E+02  0.7546771E-02  0.1299991E+00
         -2   -1    0    0    0  501 -0.00000000000E+00  0.00000000000E+00  0.81999940928E+01  0.81999940928E+01  0.00000000000E+00 0.  1.
          2   -1    0    0  501    0  0.00000000000E+00 -0.00000000000E+00 -0.25353545514E+03  0.25353545514E+03  0.00000000000E+00 0. -1.
         23    2    1    2    0    0  0.00000000000E+00  0.00000000000E+00 -0.24533546105E+03  0.26173544924E+03  0.91191868815E+02 0.  0.
          2    1    3    3  502    0 -0.29614146226E+02  0.34351731312E+02 -0.13611471848E+03  0.14347214255E+03  0.00000000000E+00 0. -1.
         -2    1    3    3    0  502  0.29614146226E+02 -0.34351731312E+02 -0.10922074257E+03  0.11826330669E+03  0.00000000000E+00 0.  1.
<mgrwt>
<rscale>  0 0.91191869E+02</rscale>
<asrwt>0</asrwt>
<pdfrwt beam="2">  1        2 0.39005455E-01 0.91191869E+02</pdfrwt>
<pdfrwt beam="1">  1       -2 0.12615375E-02 0.91191869E+02</pdfrwt>
<totfact> 0.16866089E+05</totfact>
</mgrwt>
</event>
<event>
 5    1  0.4006808E+001  0.9542634E+02  0.7546771E-02  0.1290219E+00
          1   -1    0    0  501    0  0.00000000000E+00  0.00000000000E+00  0.34254066958E+03  0.34254066958E+03  0.00000000000E+00 0. -1.
         -1   -1    0    0    0  501 -0.00000000000E+00 -0.00000000000E+00 -0.66460628178E+01  0.66460628178E+01  0.00000000000E+00 0.  1.
         23    2    1    2    0    0  0.00000000000E+00  0.00000000000E+00  0.33589460676E+03  0.34918673239E+03  0.95426344532E+02 0.  0.
          2    1    3    3  502    0  0.72499793844E+01 -0.46052394151E+02  0.13078107597E+03  0.13884190664E+03  0.00000000000E+00 0. -1.
         -2    1    3    3    0  502 -0.72499793844E+01  0.46052394151E+02  0.20511353079E+03  0.21034482575E+03  0.00000000000E+00 0.  1.
<mgrwt>
<rscale>  0 0.95426345E+02</rscale>
<asrwt>0</asrwt>
<pdfrwt beam="1">  1        1 0.52698551E-01 0.95426345E+02</pdfrwt>
<pdfrwt beam="2">  1       -1 0.10224715E-02 0.95426345E+02</pdfrwt>
<totfact> 0.11629708E+05</totfact>
</mgrwt>
</event>
<event>
 5    1  0.4006808E+001  0.9360153E+02  0.7546771E-02  0.1294357E+00
         -3   -1    0    0    0  501 -0.00000000000E+00  0.00000000000E+00  0.16520562625E+02  0.16520562625E+02  0.00000000000E+00 0.  1.
          3   -1    0    0  501    0  0.00000000000E+00 -0.00000000000E+00 -0.13258093314E+03  0.13258093314E+03  0.00000000000E+00 0. -1.
         23    2    1    2    0    0  0.00000000000E+00  0.00000000000E+00 -0.11606037051E+03  0.14910149576E+03  0.93601530090E+02 0.  0.
          2    1    3    3  502    0  0.25793962732E+02 -0.25753510619E+02 -0.10479154427E+03  0.11094971641E+03  0.00000000000E+00 0. -1.
         -2    1    3    3    0  502 -0.25793962732E+02  0.25753510619E+02 -0.11268826249E+02  0.38151779351E+02  0.00000000000E+00 0.  1.
<mgrwt>
<rscale>  0 0.93601530E+02</rscale>
<asrwt>0</asrwt>
<pdfrwt beam="2">  1        3 0.20397066E-01 0.93601530E+02</pdfrwt>
<pdfrwt beam="1">  1       -3 0.25416251E-02 0.93601530E+02</pdfrwt>
<totfact> 0.29203968E+04</totfact>
</mgrwt>
</event>
<event>
 5    1  0.4006808E+001  0.9198132E+02  0.7546771E-02  0.1298123E+00
         -4   -1    0    0    0  501 -0.00000000000E+00  0.00000000000E+00  0.15779073864E+02  0.15779073864E+02  0.00000000000E+00 0.  1.
          4   -1    0    0  501    0  0.00000000000E+00 -0.00000000000E+00 -0.13404720660E+03  0.13404720660E+03  0.00000000000E+00 0. -1.
         23    2    1    2    0    0  0.00000000000E+00  0.00000000000E+00 -0.11826813274E+03  0.14982628047E+03  0.91981319283E+02 0.  0.
          2    1    3    3  502    0  0.43423218253E+02  0.10070346042E+02 -0.77573721251E+02  0.89468821282E+02  0.00000000000E+00 0. -1.
         -2    1    3    3    0  502 -0.43423218253E+02 -0.10070346042E+02 -0.40694411486E+02  0.60357459183E+02  0.00000000000E+00 0.  1.
<mgrwt>
<rscale>  0 0.91981319E+02</rscale>
<asrwt>0</asrwt>
<pdfrwt beam="2">  1        4 0.20622646E-01 0.91981319E+02</pdfrwt>
<pdfrwt beam="1">  1       -4 0.24275499E-02 0.91981319E+02</pdfrwt>
<totfact> 0.23127247E+04</totfact>
</mgrwt>
</event>
<event>
 5    1  0.4006808E+001  0.9154346E+02  0.7546771E-02  0.1299156E+00
          1   -1    0    0  501    0  0.00000000000E+00  0.00000000000E+00  0.12798931876E+03  0.12798931876E+03  0.00000000000E+00 0. -1.
         -1   -1    0    0    0  501 -0.00000000000E+00 -0.00000000000E+00 -0.16368953180E+02  0.16368953180E+02  0.00000000000E+00 0.  1.
         23    2    1    2    0    0  0.00000000000E+00  0.00000000000E+00  0.11162036558E+03  0.14435827194E+03  0.91543457794E+02 0.  0.
          2    1    3    3  502    0 -0.27166881509E+02 -0.24824664855E+02  0.98729176086E+02  0.10536485964E+03  0.00000000000E+00 0. -1.
         -2    1    3    3    0  502  0.27166881509E+02  0.24824664855E+02  0.12891189491E+02  0.38993412297E+02  0.00000000000E+00 0.  1.
<mgrwt>
<rscale>  0 0.91543458E+02</rscale>
<asrwt>0</asrwt>
<pdfrwt beam="1">  1        1 0.19690664E-01 0.91543458E+02</pdfrwt>
<pdfrwt beam="2">  1       -1 0.25183006E-02 0.91543458E+02</pdfrwt>
<totfact> 0.10778626E+05</totfact>
</mgrwt>
</event>
<event>
 5    1  0.4006808E+001  0.9134861E+02  0.7546771E-02  0.1299618E+00
          2   -1    0    0  501    0  0.00000000000E+00  0.00000000000E+00  0.20031410428E+03  0.20031410428E+03  0.00000000000E+00 0. -1.
         -2   -1    0    0    0  501 -0.00000000000E+00 -0.00000000000E+00 -0.10414355816E+02  0.10414355816E+02  0.00000000000E+00 0.  1.
         23    2    1    2    0    0  0.00000000000E+00  0.00000000000E+00  0.18989974846E+03  0.21072846010E+03  0.91348614811E+02 0.  0.
          2    1    3    3  502    0 -0.23422293834E+02 -0.31240466278E+02  0.14961670076E+03  0.15462770685E+03  0.00000000000E+00 0. -1.
         -2    1    3    3    0  502  0.23422293834E+02  0.31240466278E+02  0.40283047708E+02  0.56100753242E+02  0.00000000000E+00 0.  1.
<mgrwt>
<rscale>  0 0.91348615E+02</rscale>
<asrwt>0</asrwt>
<pdfrwt beam="1">  1        2 0.30817552E-01 0.91348615E+02</pdfrwt>
<pdfrwt beam="2">  1       -2 0.16022087E-02 0.91348615E+02</pdfrwt>
<totfact> 0.15398445E+05</totfact>
</mgrwt>
</event>
<event>
 5    1  0.4006808E+001  0.8797729E+02  0.7546771E-02  0.1307825E+00
         -1   -1    0    0    0  501 -0.00000000000E+00  0.00000000000E+00  0.36347312581E+01  0.36347312581E+01  0.00000000000E+00 0.  1.
          1   -1    0    0  501    0  0.00000000000E+00 -0.00000000000E+00 -0.53236426895E+03  0.53236426895E+03  0.00000000000E+00 0. -1.
         23    2    1    2    0    0  0.00000000000E+00  0.00000000000E+00 -0.52872953769E+03  0.53599900021E+03  0.87977293639E+02 0.  0.
          2    1    3    3  502    0  0.10221318579E+02  0.21035096414E+02 -0.37380373435E+02  0.44093570424E+02  0.00000000000E+00 0.  1.
         -2    1    3    3    0  502 -0.10221318579E+02 -0.21035096414E+02 -0.49134916425E+03  0.49190542978E+03  0.00000000000E+00 0. -1.
<mgrwt>
<rscale>  0 0.87977294E+02</rscale>
<asrwt>0</asrwt>
<pdfrwt beam="2">  1        1 0.81902198E-01 0.87977294E+02</pdfrwt>
<pdfrwt beam="1">  1       -1 0.55918941E-03 0.87977294E+02</pdfrwt>
<totfact> 0.15410968E+05</totfact>
</mgrwt>
</event>
<event>
 5    1  0.4006808E+001  0.9402706E+02  0.7546771E-02  0.1293383E+00
         -1   -1    0    0    0  501 -0.00000000000E+00  0.00000000000E+00  0.17881215939E+01  0.17881215939E+01  0.00000000000E+00 0.  1.
          1   -1    0    0  501    0  0.00000000000E+00 -0.00000000000E+00 -0.12360859368E+04  0.12360859368E+04  0.00000000000E+00 0. -1.
         23    2    1    2    0    0  0.00000000000E+00  0.00000000000E+00 -0.12342978152E+04  0.12378740584E+04  0.94027058987E+02 0.  0.
          2    1    3    3  502    0  0.31800935830E+02  0.20480051462E+02 -0.98472122104E+03  0.98544741879E+03  0.00000000000E+00 0. -1.
         -2    1    3    3    0  502 -0.31800935830E+02 -0.20480051462E+02 -0.24957659415E+03  0.25242663959E+03  0.00000000000E+00 0.  1.
<mgrwt>
<rscale>  0 0.94027059E+02</rscale>
<asrwt>0</asrwt>
<pdfrwt beam="2">  1        1 0.19016728E+00 0.94027059E+02</pdfrwt>
<pdfrwt beam="1">  1       -1 0.27509532E-03 0.94027059E+02</pdfrwt>
<totfact> 0.11564577E+05</totfact>
</mgrwt>
</event>
<event>
 5    1  0.4006808E+001  0.9140937E+02  0.7546771E-02  0.1299474E+00
          1   -1    0    0  501    0  0.00000000000E+00  0.00000000000E+00  0.28018102100E+02  0.28018102100E+02  0.00000000000E+00 0.  1.
         -1   -1    0    0    0  501 -0.00000000000E+00 -0.00000000000E+00 -0.74556015456E+02  0.74556015456E+02  0.00000000000E+00 0. -1.
         23    2    1    2    0    0  0.00000000000E+00  0.00000000000E+00 -0.46537913356E+02  0.10257411756E+03  0.91409366111E+02 0.  0.
          2    1    3    3  502    0  0.37606275320E+02  0.15863208428E+02 -0.46349192177E+02  0.61758569774E+02  0.00000000000E+00 0. -1.
         -2    1    3    3    0  502 -0.37606275320E+02 -0.15863208428E+02 -0.18872117925E+00  0.40815547782E+02  0.00000000000E+00 0.  1.
<mgrwt>
<rscale>  0 0.91409366E+02</rscale>
<asrwt>0</asrwt>
<pdfrwt beam="1">  1        1 0.43104773E-02 0.91409366E+02</pdfrwt>
<pdfrwt beam="2">  1       -1 0.11470156E-01 0.91409366E+02</pdfrwt>
<totfact> 0.85096644E+04</totfact>
</mgrwt>
</event>
<event>
 5    1  0.4006808E+001  0.9173947E+02  0.7546771E-02  0.1298693E+00
         -1   -1    0    0    0  501 -0.00000000000E+00  0.00000000000E+00  0.87126611822E+01  0.87126611822E+01  0.00000000000E+00 0.  1.
          1   -1    0    0  501    0  0.00000000000E+00 -0.00000000000E+00 -0.24149137826E+03  0.24149137826E+03  0.00000000000E+00 0. -1.
         23    2    1    2    0    0  0.00000000000E+00  0.00000000000E+00 -0.23277871708E+03  0.25020403945E+03  0.91739469308E+02 0.  0.
          2    1    3    3  502    0  0.65397867064E+00  0.35586758489E+02 -0.19530252284E+03  0.19851932021E+03  0.00000000000E+00 0. -1.
         -2    1    3    3    0  502 -0.65397867064E+00 -0.35586758489E+02 -0.37476194239E+02  0.51684719236E+02  0.00000000000E+00 0.  1.
<mgrwt>
<rscale>  0 0.91739469E+02</rscale>
<asrwt>0</asrwt>
<pdfrwt beam="2">  1        1 0.37152516E-01 0.91739469E+02</pdfrwt>
<pdfrwt beam="1">  1       -1 0.13404096E-02 0.91739469E+02</pdfrwt>
<totfact> 0.12083274E+05</totfact>
</mgrwt>
</event>
<event>
 5    1  0.4006808E+001  0.8988682E+02  0.7546771E-02  0.1303126E+00
          1   -1    0    0  501    0  0.00000000000E+00  0.00000000000E+00  0.30855610852E+03  0.30855610852E+03  0.00000000000E+00 0. -1.
         -1   -1    0    0    0  501 -0.00000000000E+00 -0.00000000000E+00 -0.65463294609E+01  0.65463294609E+01  0.00000000000E+00 0.  1.
         23    2    1    2    0    0  0.00000000000E+00  0.00000000000E+00  0.30200977906E+03  0.31510243798E+03  0.89886816464E+02 0.  0.
          2    1    3    3  502    0 -0.37398427569E+02 -0.82076764600E+01  0.23350833322E+03  0.23662660463E+03  0.00000000000E+00 0. -1.
         -2    1    3    3    0  502  0.37398427569E+02  0.82076764600E+01  0.68501445842E+02  0.78475833350E+02  0.00000000000E+00 0.  1.
<mgrwt>
<rscale>  0 0.89886816E+02</rscale>
<asrwt>0</asrwt>
<pdfrwt beam="1">  1        1 0.47470159E-01 0.89886816E+02</pdfrwt>
<pdfrwt beam="2">  1       -1 0.10071278E-02 0.89886816E+02</pdfrwt>
<totfact> 0.13378424E+05</totfact>
</mgrwt>
</event>
<event>
 5    1  0.4006808E+001  0.9156577E+02  0.7546771E-02  0.1299104E+00
          2   -1    0    0  501    0  0.00000000000E+00  0.00000000000E+00  0.12602770967E+04  0.12602770967E+04  0.00000000000E+00 0. -1.
         -2   -1    0    0    0  501 -0.00000000000E+00 -0.00000000000E+00 -0.16631838524E+01  0.16631838524E+01  0.00000000000E+00 0.  1.
         23    2    1    2    0    0  0.00000000000E+00  0.00000000000E+00  0.12586139129E+04  0.12619402806E+04  0.91565769080E+02 0.  0.
          2    1    3    3  502    0  0.22680105986E+02 -0.59286089394E+01  0.11712901250E+04  0.11715246872E+04  0.00000000000E+00 0. -1.
         -2    1    3    3    0  502 -0.22680105986E+02  0.59286089394E+01  0.87323787848E+02  0.90415593431E+02  0.00000000000E+00 0.  1.
<mgrwt>
<rscale>  0 0.91565769E+02</rscale>
<asrwt>0</asrwt>
<pdfrwt beam="1">  1        2 0.19388802E+00 0.91565769E+02</pdfrwt>
<pdfrwt beam="2">  1       -2 0.25587545E-03 0.91565769E+02</pdfrwt>
<totfact> 0.24429418E+05</totfact>
</mgrwt>
</event>
<event>
 5    1  0.4006808E+001  0.9011927E+02  0.7546771E-02  0.1302563E+00
          1   -1    0    0  501    0  0.00000000000E+00  0.00000000000E+00  0.26945819093E+04  0.26945819093E+04  0.00000000000E+00 0. -1.
         -1   -1    0    0    0  501 -0.00000000000E+00 -0.00000000000E+00 -0.75350115647E+00  0.75350115647E+00  0.00000000000E+00 0.  1.
         23    2    1    2    0    0  0.00000000000E+00  0.00000000000E+00  0.26938284081E+04  0.26953354105E+04  0.90119267304E+02 0.  0.
          2    1    3    3  502    0 -0.11705775538E+02  0.37681092114E+02  0.19977123482E+04  0.19981019784E+04  0.00000000000E+00 0. -1.
         -2    1    3    3    0  502  0.11705775538E+02 -0.37681092114E+02  0.69611605994E+03  0.69723343207E+03  0.00000000000E+00 0.  1.
<mgrwt>
<rscale>  0 0.90119267E+02</rscale>
<asrwt>0</asrwt>
<pdfrwt beam="1">  1        1 0.41454335E+00 0.90119267E+02</pdfrwt>
<pdfrwt beam="2">  1       -1 0.11592541E-03 0.90119267E+02</pdfrwt>
<totfact> 0.44727492E+04</totfact>
</mgrwt>
</event>
<event>
 5    1  0.4006808E+001  0.9005162E+02  0.7546771E-02  0.1302727E+00
         -1   -1    0    0    0  501 -0.00000000000E+00  0.00000000000E+00  0.23149362106E+02  0.23149362106E+02  0.00000000000E+00 0.  1.
          1   -1    0    0  501    0  0.00000000000E+00 -0.00000000000E+00 -0.87575781603E+02  0.87575781603E+02  0.00000000000E+00 0. -1.
         23    2    1    2    0    0  0.00000000000E+00  0.00000000000E+00 -0.64426419497E+02  0.11072514371E+03  0.90051618088E+02 0.  0.
          2    1    3    3  502    0  0.30327050662E+02 -0.33275266119E+02 -0.31485635368E+02  0.54939226166E+02  0.00000000000E+00 0. -1.
         -2    1    3    3    0  502 -0.30327050662E+02  0.33275266119E+02 -0.32940784130E+02  0.55785917544E+02  0.00000000000E+00 0.  1.
<mgrwt>
<rscale>  0 0.90051618E+02</rscale>
<asrwt>0</asrwt>
<pdfrwt beam="2">  1        1 0.13473197E-01 0.90051618E+02</pdfrwt>
<pdfrwt beam="1">  1       -1 0.35614404E-02 0.90051618E+02</pdfrwt>
<totfact> 0.10573597E+05</totfact>
</mgrwt>
</event>
<event>
 5    1  0.4006808E+001  0.9111696E+02  0.7546771E-02  0.1300169E+00
          2   -1    0    0  501    0  0.00000000000E+00  0.00000000000E+00  0.24676406851E+04  0.24676406851E+04  0.00000000000E+00 0. -1.
         -2   -1    0    0    0  501 -0.00000000000E+00 -0.00000000000E+00 -0.84111722751E+00  0.84111722751E+00  0.00000000000E+00 0.  1.
         23    2    1    2    0    0  0.00000000000E+00  0.00000000000E+00  0.24667995679E+04  0.24684818023E+04  0.91116959816E+02 0.  0.
          2    1    3    3  502    0 -0.30472598360E+02  0.33855481068E+02  0.12091346044E+04  0.12099922580E+04  0.00000000000E+00 0. -1.
         -2    1    3    3    0  502  0.30472598360E+02 -0.33855481068E+02  0.12576649634E+04  0.12584895443E+04  0.00000000000E+00 0.  1.
<mgrwt>
<rscale>  0 0.91116960E+02</rscale>
<asrwt>0</asrwt>
<pdfrwt beam="1">  1        2 0.37963123E+00 0.91116960E+02</pdfrwt>
<pdfrwt beam="2">  1       -2 0.12940463E-03 0.91116960E+02</pdfrwt>
<totfact> 0.15198015E+05</totfact>
</mgrwt>
</event>
<event>
 5    1  0.4006808E+001  0.9869336E+02  0.7546771E-02  0.1283068E+00
          1   -1    0    0  501    0  0.00000000000E+00  0.00000000000E+00  0.92412784759E+03  0.92412784759E+03  0.00000000000E+00 0. -1.
         -1   -1    0    0    0  501 -0.00000000000E+00 -0.00000000000E+00 -0.26350194775E+01  0.26350194775E+01  0.00000000000E+00 0.  1.
         23    2    1    2    0    0  0.00000000000E+00  0.00000000000E+00  0.92149282811E+03  0.92676286706E+03  0.98693361034E+02 0.  0.
          2    1    3    3  502    0  0.11511416631E+02 -0.30508779326E+02  0.80854317911E+03  0.80920045156E+03  0.00000000000E+00 0. -1.
         -2    1    3    3    0  502 -0.11511416631E+02  0.30508779326E+02  0.11294964900E+03  0.11756241550E+03  0.00000000000E+00 0.  1.
<mgrwt>
<rscale>  0 0.98693361E+02</rscale>
<asrwt>0</asrwt>
<pdfrwt beam="1">  1        1 0.14217326E+00 0.98693361E+02</pdfrwt>
<pdfrwt beam="2">  1       -1 0.40538835E-03 0.98693361E+02</pdfrwt>
<totfact> 0.11224489E+05</totfact>
</mgrwt>
</event>
<event>
 5    1  0.4006808E+001  0.9242132E+02  0.7546771E-02  0.1297092E+00
         -2   -1    0    0    0  501 -0.00000000000E+00  0.00000000000E+00  0.35624866589E+01  0.35624866589E+01  0.00000000000E+00 0.  1.
          2   -1    0    0  501    0  0.00000000000E+00 -0.00000000000E+00 -0.59941982334E+03  0.59941982334E+03  0.00000000000E+00 0. -1.
         23    2    1    2    0    0  0.00000000000E+00  0.00000000000E+00 -0.59585733668E+03  0.60298231000E+03  0.92421320564E+02 0.  0.
          2    1    3    3  502    0  0.36028481588E+02 -0.68280190320E+01 -0.48139335968E+03  0.48278798667E+03  0.00000000000E+00 0. -1.
         -2    1    3    3    0  502 -0.36028481588E+02  0.68280190320E+01 -0.11446397700E+03  0.12019432333E+03  0.00000000000E+00 0.  1.
<mgrwt>
<rscale>  0 0.92421321E+02</rscale>
<asrwt>0</asrwt>
<pdfrwt beam="2">  1        2 0.92218330E-01 0.92421321E+02</pdfrwt>
<pdfrwt beam="1">  1       -2 0.54807549E-03 0.92421321E+02</pdfrwt>
<totfact> 0.21976687E+05</totfact>
</mgrwt>
</event>
<event>
 5    1  0.4006808E+001  0.7846533E+02  0.7546771E-02  0.1333464E+00
          2   -1    0    0  501    0  0.00000000000E+00  0.00000000000E+00  0.61189613198E+03  0.61189613198E+03  0.00000000000E+00 0. -1.
         -2   -1    0    0    0  501 -0.00000000000E+00 -0.00000000000E+00 -0.25154631803E+01  0.25154631803E+01  0.00000000000E+00 0.  1.
         23    2    1    2    0    0  0.00000000000E+00  0.00000000000E+00  0.60938066880E+03  0.61441159517E+03  0.78465334771E+02 0.  0.
          2    1    3    3  502    0  0.61496221436E+01 -0.22546568413E+02  0.57936337120E+02  0.62472271918E+02  0.00000000000E+00 0.  1.
         -2    1    3    3    0  502 -0.61496221436E+01  0.22546568413E+02  0.55144433168E+03  0.55193932325E+03  0.00000000000E+00 0. -1.
<mgrwt>
<rscale>  0 0.78465335E+02</rscale>
<asrwt>0</asrwt>
<pdfrwt beam="1">  1        2 0.94137748E-01 0.78465335E+02</pdfrwt>
<pdfrwt beam="2">  1       -2 0.38699482E-03 0.78465335E+02</pdfrwt>
<totfact> 0.33954223E+05</totfact>
</mgrwt>
</event>
<event>
 5    1  0.4006808E+001  0.9094194E+02  0.7546771E-02  0.1300587E+00
          1   -1    0    0  501    0  0.00000000000E+00  0.00000000000E+00  0.28965835030E+03  0.28965835030E+03  0.00000000000E+00 0. -1.
         -1   -1    0    0    0  501 -0.00000000000E+00 -0.00000000000E+00 -0.71380966112E+01  0.71380966112E+01  0.00000000000E+00 0.  1.
         23    2    1    2    0    0  0.00000000000E+00  0.00000000000E+00  0.28252025369E+03  0.29679644691E+03  0.90941943869E+02 0.  0.
          2    1    3    3  502    0  0.35947373650E+02  0.27843572145E+02  0.14244182525E+03  0.14952308104E+03  0.00000000000E+00 0. -1.
         -2    1    3    3    0  502 -0.35947373650E+02 -0.27843572145E+02  0.14007842844E+03  0.14727336588E+03  0.00000000000E+00 0.  1.
<mgrwt>
<rscale>  0 0.90941944E+02</rscale>
<asrwt>0</asrwt>
<pdfrwt beam="1">  1        1 0.44562814E-01 0.90941944E+02</pdfrwt>
<pdfrwt beam="2">  1       -1 0.10981689E-02 0.90941944E+02</pdfrwt>
<totfact> 0.12814206E+05</totfact>
</mgrwt>
</event>
<event>
 5    1  0.4006808E+001  0.9789315E+02  0.7546771E-02  0.1284790E+00
          2   -1    0    0  501    0  0.00000000000E+00  0.00000000000E+00  0.22252038017E+04  0.22252038017E+04  0.00000000000E+00 0. -1.
         -2   -1    0    0    0  501 -0.00000000000E+00 -0.00000000000E+00 -0.10766506815E+01  0.10766506815E+01  0.00000000000E+00 0.  1.
         23    2    1    2    0    0  0.00000000000E+00  0.00000000000E+00  0.22241271510E+04  0.22262804524E+04  0.97893149700E+02 0.  0.
          2    1    3    3  502    0 -0.42590582192E+02  0.61577606305E+01  0.16424393752E+04  0.16430030362E+04  0.00000000000E+00 0. -1.
         -2    1    3    3    0  502  0.42590582192E+02 -0.61577606305E+01  0.58168777579E+03  0.58327741616E+03  0.00000000000E+00 0.  1.
<mgrwt>
<rscale>  0 0.97893150E+02</rscale>
<asrwt>0</asrwt>
<pdfrwt beam="1">  1        2 0.34233537E+00 0.97893150E+02</pdfrwt>
<pdfrwt beam="2">  1       -2 0.16564035E-03 0.97893150E+02</pdfrwt>
<totfact> 0.14526851E+05</totfact>
</mgrwt>
</event>
<event>
 5    1  0.4006808E+001  0.8936365E+02  0.7546771E-02  0.1304400E+00
          2   -1    0    0  501    0  0.00000000000E+00  0.00000000000E+00  0.10037963433E+02  0.10037963433E+02  0.00000000000E+00 0. -1.
         -2   -1    0    0    0  501 -0.00000000000E+00 -0.00000000000E+00 -0.19889147083E+03  0.19889147083E+03  0.00000000000E+00 0.  1.
         23    2    1    2    0    0  0.00000000000E+00  0.00000000000E+00 -0.18885350740E+03  0.20892943426E+03  0.89363646106E+02 0.  0.
          2    1    3    3  502    0  0.48801297077E+01  0.41586295299E+02 -0.57964203481E+02  0.71505835481E+02  0.00000000000E+00 0. -1.
         -2    1    3    3    0  502 -0.48801297077E+01 -0.41586295299E+02 -0.13088930392E+03  0.13742359878E+03  0.00000000000E+00 0.  1.
<mgrwt>
<rscale>  0 0.89363646E+02</rscale>
<asrwt>0</asrwt>
<pdfrwt beam="1">  1        2 0.15443020E-02 0.89363646E+02</pdfrwt>
<pdfrwt beam="2">  1       -2 0.30598689E-01 0.89363646E+02</pdfrwt>
<totfact> 0.65753087E+04</totfact>
</mgrwt>
</event>
<event>
 5    1  0.4006808E+001  0.9274385E+02  0.7546771E-02  0.1296340E+00
          1   -1    0    0  501    0  0.00000000000E+00  0.00000000000E+00  0.12824741046E+04  0.12824741046E+04  0.00000000000E+00 0. -1.
         -1   -1    0    0    0  501 -0.00000000000E+00 -0.00000000000E+00 -0.16767241133E+01  0.16767241133E+01  0.00000000000E+00 0.  1.
         23    2    1    2    0    0  0.00000000000E+00  0.00000000000E+00  0.12807973805E+04  0.12841508287E+04  0.92743846283E+02 0.  0.
          2    1    3    3  502    0  0.30208789374E+02  0.33654162504E+02  0.49839457972E+03  0.50044213522E+03  0.00000000000E+00 0. -1.
         -2    1    3    3    0  502 -0.30208789374E+02 -0.33654162504E+02  0.78240280077E+03  0.78370869350E+03  0.00000000000E+00 0.  1.
<mgrwt>
<rscale>  0 0.92743846E+02</rscale>
<asrwt>0</asrwt>
<pdfrwt beam="1">  1        1 0.19730292E+00 0.92743846E+02</pdfrwt>
<pdfrwt beam="2">  1       -1 0.25795858E-03 0.92743846E+02</pdfrwt>
<totfact> 0.11759329E+05</totfact>
</mgrwt>
</event>
<event>
 5    1  0.4006808E+001  0.9164095E+02  0.7546771E-02  0.1298926E+00
         -2   -1    0    0    0  501 -0.00000000000E+00  0.00000000000E+00  0.32957636297E+01  0.32957636297E+01  0.00000000000E+00 0.  1.
          2   -1    0    0  501    0  0.00000000000E+00 -0.00000000000E+00 -0.63703471601E+03  0.63703471601E+03  0.00000000000E+00 0. -1.
         23    2    1    2    0    0  0.00000000000E+00  0.00000000000E+00 -0.63373895238E+03  0.64033047964E+03  0.91640948225E+02 0.  0.
          2    1    3    3  502    0  0.35092544517E+02 -0.27493334717E+02 -0.39086508355E+03  0.39339914041E+03  0.00000000000E+00 0. -1.
         -2    1    3    3    0  502 -0.35092544517E+02  0.27493334717E+02 -0.24287386883E+03  0.24693133923E+03  0.00000000000E+00 0.  1.
<mgrwt>
<rscale>  0 0.91640948E+02</rscale>
<asrwt>0</asrwt>
<pdfrwt beam="2">  1        2 0.98005205E-01 0.91640948E+02</pdfrwt>
<pdfrwt beam="1">  1       -2 0.50704126E-03 0.91640948E+02</pdfrwt>
<totfact> 0.22854239E+05</totfact>
</mgrwt>
</event>
<event>
 5    1  0.4006808E+001  0.8820992E+02  0.7546771E-02  0.1307245E+00
         -4   -1    0    0    0  501 -0.00000000000E+00  0.00000000000E+00  0.50324801126E+02  0.50324801126E+02  0.00000000000E+00 0.  1.
          4   -1    0    0  501    0  0.00000000000E+00 -0.00000000000E+00 -0.38653854482E+02  0.38653854482E+02  0.00000000000E+00 0. -1.
         23    2    1    2    0    0  0.00000000000E+00  0.00000000000E+00  0.11670946644E+02  0.88978655608E+02  0.88209920974E+02 0.  0.
          2    1    3    3  502    0  0.22758355792E+02  0.26580875565E+02 -0.21245501780E+02  0.40937233054E+02  0.00000000000E+00 0. -1.
         -2    1    3    3    0  502 -0.22758355792E+02 -0.26580875565E+02  0.32916448424E+02  0.48041422554E+02  0.00000000000E+00 0.  1.
<mgrwt>
<rscale>  0 0.88209921E+02</rscale>
<asrwt>0</asrwt>
<pdfrwt beam="2">  1        4 0.59467469E-02 0.88209921E+02</pdfrwt>
<pdfrwt beam="1">  1       -4 0.77422771E-02 0.88209921E+02</pdfrwt>
<totfact> 0.29700938E+04</totfact>
</mgrwt>
</event>
<event>
 5    1  0.4006808E+001  0.9599881E+02  0.7546771E-02  0.1288942E+00
          2   -1    0    0  501    0  0.00000000000E+00  0.00000000000E+00  0.17013585466E+04  0.17013585466E+04  0.00000000000E+00 0. -1.
         -2   -1    0    0    0  501 -0.00000000000E+00 -0.00000000000E+00 -0.13541782493E+01  0.13541782493E+01  0.00000000000E+00 0.  1.
         23    2    1    2    0    0  0.00000000000E+00  0.00000000000E+00  0.17000043683E+04  0.17027127248E+04  0.95998807035E+02 0.  0.
          2    1    3    3  502    0  0.68999744997E+00  0.31604375978E+02  0.14906498321E+04  0.14909849881E+04  0.00000000000E+00 0. -1.
         -2    1    3    3    0  502 -0.68999744997E+00 -0.31604375978E+02  0.20935453621E+03  0.21172773675E+03  0.00000000000E+00 0.  1.
<mgrwt>
<rscale>  0 0.95998807E+02</rscale>
<asrwt>0</asrwt>
<pdfrwt beam="1">  1        2 0.26174576E+00 0.95998807E+02</pdfrwt>
<pdfrwt beam="2">  1       -2 0.20833648E-03 0.95998807E+02</pdfrwt>
<totfact> 0.19389075E+05</totfact>
</mgrwt>
</event>
<event>
 5    1  0.4006808E+001  0.9577243E+02  0.7546771E-02  0.1289446E+00
         -2   -1    0    0    0  501 -0.00000000000E+00  0.00000000000E+00  0.19374922416E+01  0.19374922416E+01  0.00000000000E+00 0.  1.
          2   -1    0    0  501    0  0.00000000000E+00 -0.00000000000E+00 -0.11835348595E+04  0.11835348595E+04  0.00000000000E+00 0. -1.
         23    2    1    2    0    0  0.00000000000E+00  0.00000000000E+00 -0.11815973673E+04  0.11854723517E+04  0.95772430437E+02 0.  0.
          2    1    3    3  502    0  0.34573166939E+02 -0.43603329484E+01 -0.18424677741E+03  0.18751317650E+03  0.00000000000E+00 0.  1.
         -2    1    3    3    0  502 -0.34573166939E+02  0.43603329484E+01 -0.99735058985E+03  0.99795917524E+03  0.00000000000E+00 0. -1.
<mgrwt>
<rscale>  0 0.95772430E+02</rscale>
<asrwt>0</asrwt>
<pdfrwt beam="2">  1        2 0.18208276E+00 0.95772430E+02</pdfrwt>
<pdfrwt beam="1">  1       -2 0.29807496E-03 0.95772430E+02</pdfrwt>
<totfact> 0.21873215E+05</totfact>
</mgrwt>
</event>
<event>
 5    1  0.4006808E+001  0.8917293E+02  0.7546771E-02  0.1304867E+00
          2   -1    0    0  501    0  0.00000000000E+00  0.00000000000E+00  0.31909127923E+03  0.31909127923E+03  0.00000000000E+00 0. -1.
         -2   -1    0    0    0  501 -0.00000000000E+00 -0.00000000000E+00 -0.62300442798E+01  0.62300442798E+01  0.00000000000E+00 0.  1.
         23    2    1    2    0    0  0.00000000000E+00  0.00000000000E+00  0.31286123495E+03  0.32532132351E+03  0.89172928602E+02 0.  0.
          2    1    3    3  502    0 -0.16930836519E+02 -0.28566209656E+02  0.26497758077E+03  0.26705018231E+03  0.00000000000E+00 0. -1.
         -2    1    3    3    0  502  0.16930836519E+02  0.28566209656E+02  0.47883654174E+02  0.58271141196E+02  0.00000000000E+00 0.  1.
<mgrwt>
<rscale>  0 0.89172929E+02</rscale>
<asrwt>0</asrwt>
<pdfrwt beam="1">  1        2 0.49090953E-01 0.89172929E+02</pdfrwt>
<pdfrwt beam="2">  1       -2 0.95846860E-03 0.89172929E+02</pdfrwt>
<totfact> 0.19502261E+05</totfact>
</mgrwt>
</event>
<event>
 5    1  0.4006808E+001  0.1054706E+03  0.7546771E-02  0.1269195E+00
         -2   -1    0    0    0  501 -0.00000000000E+00  0.00000000000E+00  0.31866580978E+02  0.31866580978E+02  0.00000000000E+00 0.  1.
          2   -1    0    0  501    0  0.00000000000E+00 -0.00000000000E+00 -0.87270557657E+02  0.87270557657E+02  0.00000000000E+00 0. -1.
         23    2    1    2    0    0  0.00000000000E+00  0.00000000000E+00 -0.55403976680E+02  0.11913713863E+03  0.10547064601E+03 0.  0.
          2    1    3    3  502    0 -0.22418551298E+02 -0.64246736394E+01 -0.81129231319E+02  0.84414572487E+02  0.00000000000E+00 0. -1.
         -2    1    3    3    0  502  0.22418551298E+02  0.64246736394E+01  0.25725254639E+02  0.34722566148E+02  0.00000000000E+00 0.  1.
<mgrwt>
<rscale>  0 0.10547065E+03</rscale>
<asrwt>0</asrwt>
<pdfrwt beam="2">  1        2 0.13426239E-01 0.10547065E+03</pdfrwt>
<pdfrwt beam="1">  1       -2 0.49025510E-02 0.10547065E+03</pdfrwt>
<totfact> 0.78314280E+04</totfact>
</mgrwt>
</event>
<event>
 5    1  0.4006808E+001  0.9035661E+02  0.7546771E-02  0.1301990E+00
          1   -1    0    0  501    0  0.00000000000E+00  0.00000000000E+00  0.91173527365E+01  0.91173527365E+01  0.00000000000E+00 0. -1.
         -1   -1    0    0    0  501 -0.00000000000E+00 -0.00000000000E+00 -0.22386752582E+03  0.22386752582E+03  0.00000000000E+00 0.  1.
         23    2    1    2    0    0  0.00000000000E+00  0.00000000000E+00 -0.21475017308E+03  0.23298487856E+03  0.90356609037E+02 0.  0.
          2    1    3    3  502    0 -0.25223248644E+01  0.38138749356E+02 -0.45268303466E+02  0.59246481954E+02  0.00000000000E+00 0. -1.
         -2    1    3    3    0  502  0.25223248644E+01 -0.38138749356E+02 -0.16948186962E+03  0.17373839660E+03  0.00000000000E+00 0.  1.
<mgrwt>
<rscale>  0 0.90356609E+02</rscale>
<asrwt>0</asrwt>
<pdfrwt beam="1">  1        1 0.14026697E-02 0.90356609E+02</pdfrwt>
<pdfrwt beam="2">  1       -1 0.34441156E-01 0.90356609E+02</pdfrwt>
<totfact> 0.68728738E+04</totfact>
</mgrwt>
</event>
<event>
 5    1  0.4006808E+001  0.9155920E+02  0.7546771E-02  0.1299119E+00
          2   -1    0    0  501    0  0.00000000000E+00  0.00000000000E+00  0.23695876326E+03  0.23695876326E+03  0.00000000000E+00 0. -1.
         -2   -1    0    0    0  501 -0.00000000000E+00 -0.00000000000E+00 -0.88444586867E+01  0.88444586867E+01  0.00000000000E+00 0.  1.
         23    2    1    2    0    0  0.00000000000E+00  0.00000000000E+00  0.22811430457E+03  0.24580322194E+03  0.91559204717E+02 0.  0.
          2    1    3    3  502    0  0.22132496588E+02 -0.47297150666E+01  0.22088932247E+03  0.22204573941E+03  0.00000000000E+00 0. -1.
         -2    1    3    3    0  502 -0.22132496588E+02  0.47297150666E+01  0.72249820992E+01  0.23757482530E+02  0.00000000000E+00 0.  1.
<mgrwt>
<rscale>  0 0.91559205E+02</rscale>
<asrwt>0</asrwt>
<pdfrwt beam="1">  1        2 0.36455190E-01 0.91559205E+02</pdfrwt>
<pdfrwt beam="2">  1       -2 0.13606861E-02 0.91559205E+02</pdfrwt>
<totfact> 0.16273287E+05</totfact>
</mgrwt>
</event>
<event>
 5    1  0.4006808E+001  0.9352997E+02  0.7546771E-02  0.1294522E+00
         -2   -1    0    0    0  501 -0.00000000000E+00  0.00000000000E+00  0.11801281011E+04  0.11801281011E+04  0.00000000000E+00 0.  1.
          2   -1    0    0  501    0  0.00000000000E+00 -0.00000000000E+00 -0.18531579775E+01  0.18531579775E+01  0.00000000000E+00 0. -1.
         23    2    1    2    0    0  0.00000000000E+00  0.00000000000E+00  0.11782749431E+04  0.11819812591E+04  0.93529969635E+02 0.  0.
          2    1    3    3  502    0 -0.26868804660E+02 -0.32422256929E+02  0.33205649468E+03  0.33471577655E+03  0.00000000000E+00 0. -1.
         -2    1    3    3    0  502  0.26868804660E+02  0.32422256929E+02  0.84621844842E+03  0.84726548251E+03  0.00000000000E+00 0.  1.
<mgrwt>
<rscale>  0 0.93529970E+02</rscale>
<asrwt>0</asrwt>
<pdfrwt beam="2">  1        2 0.28510217E-03 0.93529970E+02</pdfrwt>
<pdfrwt beam="1">  1       -2 0.18155757E+00 0.93529970E+02</pdfrwt>
<totfact> 0.14216932E+04</totfact>
</mgrwt>
</event>
<event>
 5    1  0.4006808E+001  0.9206933E+02  0.7546771E-02  0.1297916E+00
         -1   -1    0    0    0  501 -0.00000000000E+00  0.00000000000E+00  0.33218641701E+01  0.33218641701E+01  0.00000000000E+00 0.  1.
          1   -1    0    0  501    0  0.00000000000E+00 -0.00000000000E+00 -0.63795214790E+03  0.63795214790E+03  0.00000000000E+00 0. -1.
         23    2    1    2    0    0  0.00000000000E+00  0.00000000000E+00 -0.63463028373E+03  0.64127401207E+03  0.92069330015E+02 0.  0.
          2    1    3    3  502    0 -0.37075410672E+02 -0.26552933659E+02 -0.36111574069E+03  0.36398382180E+03  0.00000000000E+00 0.  1.
         -2    1    3    3    0  502  0.37075410672E+02  0.26552933659E+02 -0.27351454305E+03  0.27729019027E+03  0.00000000000E+00 0. -1.
<mgrwt>
<rscale>  0 0.92069330E+02</rscale>
<asrwt>0</asrwt>
<pdfrwt beam="2">  1        1 0.98146423E-01 0.92069330E+02</pdfrwt>
<pdfrwt beam="1">  1       -1 0.51105635E-03 0.92069330E+02</pdfrwt>
<totfact> 0.13838496E+05</totfact>
</mgrwt>
</event>
<event>
 5    1  0.4006808E+001  0.7342959E+02  0.7546771E-02  0.1348804E+00
         -1   -1    0    0    0  501 -0.00000000000E+00  0.00000000000E+00  0.16231656320E+03  0.16231656320E+03  0.00000000000E+00 0.  1.
          1   -1    0    0  501    0  0.00000000000E+00 -0.00000000000E+00 -0.83046131580E+01  0.83046131580E+01  0.00000000000E+00 0. -1.
         23    2    1    2    0    0  0.00000000000E+00  0.00000000000E+00  0.15401195004E+03  0.17062117635E+03  0.73429592577E+02 0.  0.
          2    1    3    3  502    0  0.19047647523E+02  0.27939492511E+02  0.43773736996E+02  0.55313363381E+02  0.00000000000E+00 0. -1.
         -2    1    3    3    0  502 -0.19047647523E+02 -0.27939492511E+02  0.11023821304E+03  0.11530781297E+03  0.00000000000E+00 0.  1.
<mgrwt>
<rscale>  0 0.73429593E+02</rscale>
<asrwt>0</asrwt>
<pdfrwt beam="2">  1        1 0.12776329E-02 0.73429593E+02</pdfrwt>
<pdfrwt beam="1">  1       -1 0.24971777E-01 0.73429593E+02</pdfrwt>
<totfact> 0.12830379E+05</totfact>
</mgrwt>
</event>
<event>
 5    1  0.4006808E+001  0.9487181E+02  0.7546771E-02  0.1291465E+00
         -1   -1    0    0    0  501 -0.00000000000E+00  0.00000000000E+00  0.15345564858E+03  0.15345564858E+03  0.00000000000E+00 0.  1.
          1   -1    0    0  501    0  0.00000000000E+00 -0.00000000000E+00 -0.14663293006E+02  0.14663293006E+02  0.00000000000E+00 0. -1.
         23    2    1    2    0    0  0.00000000000E+00  0.00000000000E+00  0.13879235557E+03  0.16811894158E+03  0.94871811167E+02 0.  0.
          2    1    3    3  502    0  0.28380895354E+02  0.22183821867E+02  0.14703719841E+02  0.38907538484E+02  0.00000000000E+00 0. -1.
         -2    1    3    3    0  502 -0.28380895354E+02 -0.22183821867E+02  0.12408863573E+03  0.12921140310E+03  0.00000000000E+00 0.  1.
<mgrwt>
<rscale>  0 0.94871811E+02</rscale>
<asrwt>0</asrwt>
<pdfrwt beam="2">  1        1 0.22558913E-02 0.94871811E+02</pdfrwt>
<pdfrwt beam="1">  1       -1 0.23608560E-01 0.94871811E+02</pdfrwt>
<totfact> 0.67085173E+04</totfact>
</mgrwt>
</event>
<event>
 5    1  0.4006808E+001  0.9044804E+02  0.7546771E-02  0.1301770E+00
         -1   -1    0    0    0  501 -0.00000000000E+00  0.00000000000E+00  0.20159274013E+02  0.20159274013E+02  0.00000000000E+00 0.  1.
          1   -1    0    0  501    0  0.00000000000E+00 -0.00000000000E+00 -0.10145267039E+03  0.10145267039E+03  0.00000000000E+00 0. -1.
         23    2    1    2    0    0  0.00000000000E+00  0.00000000000E+00 -0.81293396373E+02  0.12161194440E+03  0.90448044349E+02 0.  0.
          2    1    3    3  502    0 -0.18129578374E+02 -0.26668297027E+02 -0.83278325749E+02  0.89303746942E+02  0.00000000000E+00 0. -1.
         -2    1    3    3    0  502  0.18129578374E+02  0.26668297027E+02  0.19849293757E+01  0.32308197457E+02  0.00000000000E+00 0.  1.
<mgrwt>
<rscale>  0 0.90448044E+02</rscale>
<asrwt>0</asrwt>
<pdfrwt beam="2">  1        1 0.15608103E-01 0.90448044E+02</pdfrwt>
<pdfrwt beam="1">  1       -1 0.31014268E-02 0.90448044E+02</pdfrwt>
<totfact> 0.10701527E+05</totfact>
</mgrwt>
</event>
<event>
 5    1  0.4006808E+001  0.9175132E+02  0.7546771E-02  0.1298665E+00
         -2   -1    0    0    0  501 -0.00000000000E+00  0.00000000000E+00  0.38156086996E+01  0.38156086996E+01  0.00000000000E+00 0. -1.
          2   -1    0    0  501    0  0.00000000000E+00 -0.00000000000E+00 -0.55157026071E+03  0.55157026071E+03  0.00000000000E+00 0.  1.
         23    2    1    2    0    0  0.00000000000E+00  0.00000000000E+00 -0.54775465201E+03  0.55538586941E+03  0.91751322283E+02 0.  0.
          2    1    3    3  502    0  0.24022689957E+02 -0.16907603030E+01 -0.37522520249E+02  0.44585735712E+02  0.00000000000E+00 0. -1.
         -2    1    3    3    0  502 -0.24022689957E+02  0.16907603030E+01 -0.51023213176E+03  0.51080013369E+03  0.00000000000E+00 0.  1.
<mgrwt>
<rscale>  0 0.91751322E+02</rscale>
<asrwt>0</asrwt>
<pdfrwt beam="2">  1        2 0.84856972E-01 0.91751322E+02</pdfrwt>
<pdfrwt beam="1">  1       -2 0.58701667E-03 0.91751322E+02</pdfrwt>
<totfact> 0.21860627E+05</totfact>
</mgrwt>
</event>
<event>
 5    1  0.4006808E+001  0.9138811E+02  0.7546771E-02  0.1299525E+00
         -2   -1    0    0    0  501 -0.00000000000E+00  0.00000000000E+00  0.28498001171E+01  0.28498001171E+01  0.00000000000E+00 0.  1.
          2   -1    0    0  501    0  0.00000000000E+00 -0.00000000000E+00 -0.73266427546E+03  0.73266427546E+03  0.00000000000E+00 0. -1.
         23    2    1    2    0    0  0.00000000000E+00  0.00000000000E+00 -0.72981447535E+03  0.73551407558E+03  0.91388111656E+02 0.  0.
          2    1    3    3  502    0 -0.51418664332E+01  0.34852501768E+02 -0.59911136674E+03  0.60014628669E+03  0.00000000000E+00 0. -1.
         -2    1    3    3    0  502  0.51418664332E+01 -0.34852501768E+02 -0.13070310860E+03  0.13536778889E+03  0.00000000000E+00 0.  1.
<mgrwt>
<rscale>  0 0.91388112E+02</rscale>
<asrwt>0</asrwt>
<pdfrwt beam="2">  1        2 0.11271762E+00 0.91388112E+02</pdfrwt>
<pdfrwt beam="1">  1       -2 0.43843065E-03 0.91388112E+02</pdfrwt>
<totfact> 0.23812063E+05</totfact>
</mgrwt>
</event>
<event>
 5    1  0.4006808E+001  0.9124632E+02  0.7546771E-02  0.1299861E+00
          2   -1    0    0  501    0  0.00000000000E+00  0.00000000000E+00  0.49700506751E+01  0.49700506751E+01  0.00000000000E+00 0. -1.
         -2   -1    0    0    0  501 -0.00000000000E+00 -0.00000000000E+00 -0.41880310398E+03  0.41880310398E+03  0.00000000000E+00 0.  1.
         23    2    1    2    0    0  0.00000000000E+00  0.00000000000E+00 -0.41383305330E+03  0.42377315465E+03  0.91246318275E+02 0.  0.
          2    1    3    3  502    0  0.31267509329E+02  0.13843724539E+02 -0.66649619111E+02  0.74909796265E+02  0.00000000000E+00 0. -1.
         -2    1    3    3    0  502 -0.31267509329E+02 -0.13843724539E+02 -0.34718343419E+03  0.34886335839E+03  0.00000000000E+00 0.  1.
<mgrwt>
<rscale>  0 0.91246318E+02</rscale>
<asrwt>0</asrwt>
<pdfrwt beam="1">  1        2 0.76462295E-03 0.91246318E+02</pdfrwt>
<pdfrwt beam="2">  1       -2 0.64431266E-01 0.91246318E+02</pdfrwt>
<totfact> 0.41285792E+04</totfact>
</mgrwt>
</event>
<event>
 5    1  0.4006808E+001  0.9375428E+02  0.7546771E-02  0.1294007E+00
          1   -1    0    0  501    0  0.00000000000E+00  0.00000000000E+00  0.36549601293E+02  0.36549601293E+02  0.00000000000E+00 0. -1.
         -1   -1    0    0    0  501 -0.00000000000E+00 -0.00000000000E+00 -0.60122852056E+02  0.60122852056E+02  0.00000000000E+00 0.  1.
         23    2    1    2    0    0  0.00000000000E+00  0.00000000000E+00 -0.23573250763E+02  0.96672453349E+02  0.93754280356E+02 0.  0.
          2    1    3    3  502    0  0.16478303752E+02 -0.16791308763E+02  0.30021470925E+02  0.38141463802E+02  0.00000000000E+00 0. -1.
         -2    1    3    3    0  502 -0.16478303752E+02  0.16791308763E+02 -0.53594721688E+02  0.58530989547E+02  0.00000000000E+00 0.  1.
<mgrwt>
<rscale>  0 0.93754280E+02</rscale>
<asrwt>0</asrwt>
<pdfrwt beam="1">  1        1 0.56230156E-02 0.93754280E+02</pdfrwt>
<pdfrwt beam="2">  1       -1 0.92496695E-02 0.93754280E+02</pdfrwt>
<totfact> 0.82596378E+04</totfact>
</mgrwt>
</event>
<event>
 5    1  0.4006808E+001  0.8990866E+02  0.7546771E-02  0.1303073E+00
          2   -1    0    0  501    0  0.00000000000E+00  0.00000000000E+00  0.33538127512E+03  0.33538127512E+03  0.00000000000E+00 0. -1.
         -2   -1    0    0    0  501 -0.00000000000E+00 -0.00000000000E+00 -0.60256541445E+01  0.60256541445E+01  0.00000000000E+00 0.  1.
         23    2    1    2    0    0  0.00000000000E+00  0.00000000000E+00  0.32935562097E+03  0.34140692926E+03  0.89908655209E+02 0.  0.
          2    1    3    3  502    0 -0.70729125155E+01 -0.42131150389E+02  0.11153894640E+03  0.11944034699E+03  0.00000000000E+00 0.  1.
         -2    1    3    3    0  502  0.70729125155E+01  0.42131150389E+02  0.21781667457E+03  0.22196658227E+03  0.00000000000E+00 0. -1.
<mgrwt>
<rscale>  0 0.89908655E+02</rscale>
<asrwt>0</asrwt>
<pdfrwt beam="1">  1        2 0.51597105E-01 0.89908655E+02</pdfrwt>
<pdfrwt beam="2">  1       -2 0.92702397E-03 0.89908655E+02</pdfrwt>
<totfact> 0.19434583E+05</totfact>
</mgrwt>
</event>
<event>
 5    1  0.4006808E+001  0.9881900E+02  0.7546771E-02  0.1282799E+00
          1   -1    0    0  501    0  0.00000000000E+00  0.00000000000E+00  0.89329662823E+03  0.89329662823E+03  0.00000000000E+00 0. -1.
         -1   -1    0    0    0  501 -0.00000000000E+00 -0.00000000000E+00 -0.27329094691E+01  0.27329094691E+01  0.00000000000E+00 0.  1.
         23    2    1    2    0    0  0.00000000000E+00  0.00000000000E+00  0.89056371876E+03  0.89602953770E+03  0.98819002506E+02 0.  0.
          2    1    3    3  502    0 -0.41099299926E+02  0.26186358941E+02  0.51918016001E+03  0.52146228665E+03  0.00000000000E+00 0. -1.
         -2    1    3    3    0  502  0.41099299926E+02 -0.26186358941E+02  0.37138355876E+03  0.37456725106E+03  0.00000000000E+00 0.  1.
<mgrwt>
<rscale>  0 0.98819003E+02</rscale>
<asrwt>0</asrwt>
<pdfrwt beam="1">  1        1 0.13743002E+00 0.98819003E+02</pdfrwt>
<pdfrwt beam="2">  1       -1 0.42044832E-03 0.98819003E+02</pdfrwt>
<totfact> 0.11255315E+05</totfact>
</mgrwt>
</event>
<event>
 5    1  0.4006808E+001  0.9241047E+02  0.7546771E-02  0.1297117E+00
         -2   -1    0    0    0  501 -0.00000000000E+00  0.00000000000E+00  0.47564937395E+03  0.47564937395E+03  0.00000000000E+00 0.  1.
          2   -1    0    0  501    0  0.00000000000E+00 -0.00000000000E+00 -0.44884397561E+01  0.44884397561E+01  0.00000000000E+00 0. -1.
         23    2    1    2    0    0  0.00000000000E+00  0.00000000000E+00  0.47116093419E+03  0.48013781371E+03  0.92410466074E+02 0.  0.
          2    1    3    3  502    0 -0.22034874168E+02  0.35213252514E+02  0.13045051157E+03  0.13690450979E+03  0.00000000000E+00 0. -1.
         -2    1    3    3    0  502  0.22034874168E+02 -0.35213252514E+02  0.34071042262E+03  0.34323330391E+03  0.00000000000E+00 0.  1.
<mgrwt>
<rscale>  0 0.92410466E+02</rscale>
<asrwt>0</asrwt>
<pdfrwt beam="2">  1        2 0.69052957E-03 0.92410466E+02</pdfrwt>
<pdfrwt beam="1">  1       -2 0.73176787E-01 0.92410466E+02</pdfrwt>
<totfact> 0.36428843E+04</totfact>
</mgrwt>
</event>
<event>
 5    1  0.4006808E+001  0.8741291E+02  0.7546771E-02  0.1309240E+00
         -1   -1    0    0    0  501 -0.00000000000E+00  0.00000000000E+00  0.35311880770E+02  0.35311880770E+02  0.00000000000E+00 0.  1.
          1   -1    0    0  501    0  0.00000000000E+00 -0.00000000000E+00 -0.54096641233E+02  0.54096641233E+02  0.00000000000E+00 0. -1.
         23    2    1    2    0    0  0.00000000000E+00  0.00000000000E+00 -0.18784760463E+02  0.89408522003E+02  0.87412908549E+02 0.  0.
          2    1    3    3  502    0 -0.78277256716E+00  0.32069688989E+02 -0.39754688696E+02  0.51083392194E+02  0.00000000000E+00 0. -1.
         -2    1    3    3    0  502  0.78277256716E+00 -0.32069688989E+02  0.20969928233E+02  0.38325129808E+02  0.00000000000E+00 0.  1.
<mgrwt>
<rscale>  0 0.87412909E+02</rscale>
<asrwt>0</asrwt>
<pdfrwt beam="2">  1        1 0.83225602E-02 0.87412909E+02</pdfrwt>
<pdfrwt beam="1">  1       -1 0.54325970E-02 0.87412909E+02</pdfrwt>
<totfact> 0.10664955E+05</totfact>
</mgrwt>
</event>
<event>
 5    1  0.4006808E+001  0.8740158E+02  0.7546771E-02  0.1309269E+00
          2   -1    0    0  501    0  0.00000000000E+00  0.00000000000E+00  0.18467486196E+04  0.18467486196E+04  0.00000000000E+00 0. -1.
         -2   -1    0    0    0  501 -0.00000000000E+00 -0.00000000000E+00 -0.10341196266E+01  0.10341196266E+01  0.00000000000E+00 0.  1.
         23    2    1    2    0    0  0.00000000000E+00  0.00000000000E+00  0.18457145000E+04  0.18477827392E+04  0.87401578771E+02 0.  0.
          2    1    3    3  502    0  0.23446880459E+02 -0.25654814860E+02  0.14829353643E+04  0.14833425837E+04  0.00000000000E+00 0. -1.
         -2    1    3    3    0  502 -0.23446880459E+02  0.25654814860E+02  0.36277913566E+03  0.36444015558E+03  0.00000000000E+00 0.  1.
<mgrwt>
<rscale>  0 0.87401579E+02</rscale>
<asrwt>0</asrwt>
<pdfrwt beam="1">  1        2 0.28411253E+00 0.87401579E+02</pdfrwt>
<pdfrwt beam="2">  1       -2 0.15909681E-03 0.87401579E+02</pdfrwt>
<totfact> 0.23522095E+05</totfact>
</mgrwt>
</event>
<event>
 5    1  0.4006808E+001  0.9134827E+02  0.7546771E-02  0.1299619E+00
         -1   -1    0    0    0  501 -0.00000000000E+00  0.00000000000E+00  0.21786140958E+01  0.21786140958E+01  0.00000000000E+00 0.  1.
          1   -1    0    0  501    0  0.00000000000E+00 -0.00000000000E+00 -0.95754750882E+03  0.95754750882E+03  0.00000000000E+00 0. -1.
         23    2    1    2    0    0  0.00000000000E+00  0.00000000000E+00 -0.95536889473E+03  0.95972612292E+03  0.91348267638E+02 0.  0.
          2    1    3    3  502    0  0.21173223862E+01 -0.40195317173E+02 -0.70447794732E+03  0.70562690201E+03  0.00000000000E+00 0. -1.
         -2    1    3    3    0  502 -0.21173223862E+01  0.40195317173E+02 -0.25089094740E+03  0.25409922091E+03  0.00000000000E+00 0.  1.
<mgrwt>
<rscale>  0 0.91348268E+02</rscale>
<asrwt>0</asrwt>
<pdfrwt beam="2">  1        1 0.14731501E+00 0.91348268E+02</pdfrwt>
<pdfrwt beam="1">  1       -1 0.33517139E-03 0.91348268E+02</pdfrwt>
<totfact> 0.13679004E+05</totfact>
</mgrwt>
</event>
<event>
 5    1  0.4006808E+001  0.8720241E+02  0.7546771E-02  0.1309771E+00
         -1   -1    0    0    0  501 -0.00000000000E+00  0.00000000000E+00  0.14485520125E+01  0.14485520125E+01  0.00000000000E+00 0.  1.
          1   -1    0    0  501    0  0.00000000000E+00 -0.00000000000E+00 -0.13123900492E+04  0.13123900492E+04  0.00000000000E+00 0. -1.
         23    2    1    2    0    0  0.00000000000E+00  0.00000000000E+00 -0.13109414972E+04  0.13138386012E+04  0.87202413888E+02 0.  0.
          2    1    3    3  502    0  0.16609262278E+02  0.12480230126E+02 -0.12330208473E+04  0.12331958618E+04  0.00000000000E+00 0. -1.
         -2    1    3    3    0  502 -0.16609262278E+02 -0.12480230126E+02 -0.77920649854E+02  0.80642739357E+02  0.00000000000E+00 0.  1.
<mgrwt>
<rscale>  0 0.87202414E+02</rscale>
<asrwt>0</asrwt>
<pdfrwt beam="2">  1        1 0.20190613E+00 0.87202414E+02</pdfrwt>
<pdfrwt beam="1">  1       -1 0.22285419E-03 0.87202414E+02</pdfrwt>
<totfact> 0.13655282E+05</totfact>
</mgrwt>
</event>
<event>
 5    1  0.4006808E+001  0.1017798E+03  0.7546771E-02  0.1276597E+00
         -1   -1    0    0    0  501 -0.00000000000E+00  0.00000000000E+00  0.16358463807E+01  0.16358463807E+01  0.00000000000E+00 0.  1.
          1   -1    0    0  501    0  0.00000000000E+00 -0.00000000000E+00 -0.15831439127E+04  0.15831439127E+04  0.00000000000E+00 0. -1.
         23    2    1    2    0    0  0.00000000000E+00  0.00000000000E+00 -0.15815080663E+04  0.15847797591E+04  0.10177976694E+03 0.  0.
          2    1    3    3  502    0 -0.17832821110E+02 -0.35842244958E+02 -0.12799568682E+04  0.12805827815E+04  0.00000000000E+00 0. -1.
         -2    1    3    3    0  502  0.17832821110E+02  0.35842244958E+02 -0.30155119819E+03  0.30419697757E+03  0.00000000000E+00 0.  1.
<mgrwt>
<rscale>  0 0.10177977E+03</rscale>
<asrwt>0</asrwt>
<pdfrwt beam="2">  1        1 0.24356037E+00 0.10177977E+03</pdfrwt>
<pdfrwt beam="1">  1       -1 0.25166892E-03 0.10177977E+03</pdfrwt>
<totfact> 0.78670341E+04</totfact>
</mgrwt>
</event>
<event>
 5    1  0.4006808E+001  0.7677556E+02  0.7546771E-02  0.1338459E+00
          3   -1    0    0  501    0  0.00000000000E+00  0.00000000000E+00  0.31192972195E+03  0.31192972195E+03  0.00000000000E+00 0. -1.
         -3   -1    0    0    0  501 -0.00000000000E+00 -0.00000000000E+00 -0.47242110671E+01  0.47242110671E+01  0.00000000000E+00 0.  1.
         23    2    1    2    0    0  0.00000000000E+00  0.00000000000E+00  0.30720551088E+03  0.31665393301E+03  0.76775564982E+02 0.  0.
          2    1    3    3  502    0 -0.99446946654E+01  0.34552262600E+02  0.98135026743E+02  0.10451430178E+03  0.00000000000E+00 0.  1.
         -2    1    3    3    0  502  0.99446946654E+01 -0.34552262600E+02  0.20907048414E+03  0.21213963123E+03  0.00000000000E+00 0. -1.
<mgrwt>
<rscale>  0 0.76775565E+02</rscale>
<asrwt>0</asrwt>
<pdfrwt beam="1">  1        3 0.47989172E-01 0.76775565E+02</pdfrwt>
<pdfrwt beam="2">  1       -3 0.72680194E-03 0.76775565E+02</pdfrwt>
<totfact> 0.36929055E+04</totfact>
</mgrwt>
</event>
<event>
 5    1  0.4006808E+001  0.9111574E+02  0.7546771E-02  0.1300172E+00
         -2   -1    0    0    0  501 -0.00000000000E+00  0.00000000000E+00  0.42567585967E+01  0.42567585967E+01  0.00000000000E+00 0.  1.
          2   -1    0    0  501    0  0.00000000000E+00 -0.00000000000E+00 -0.48758214224E+03  0.48758214224E+03  0.00000000000E+00 0. -1.
         23    2    1    2    0    0  0.00000000000E+00  0.00000000000E+00 -0.48332538365E+03  0.49183890084E+03  0.91115739049E+02 0.  0.
          2    1    3    3  502    0 -0.19355830468E+02  0.89054737559E+01 -0.45903113691E+03  0.45952534238E+03  0.00000000000E+00 0. -1.
         -2    1    3    3    0  502  0.19355830468E+02 -0.89054737559E+01 -0.24294246740E+02  0.32313558464E+02  0.00000000000E+00 0.  1.
<mgrwt>
<rscale>  0 0.91115739E+02</rscale>
<asrwt>0</asrwt>
<pdfrwt beam="2">  1        2 0.75012622E-01 0.91115739E+02</pdfrwt>
<pdfrwt beam="1">  1       -2 0.65488607E-03 0.91115739E+02</pdfrwt>
<totfact> 0.21411020E+05</totfact>
</mgrwt>
</event>
<event>
 5    1  0.4006808E+001  0.9028291E+02  0.7546771E-02  0.1302168E+00
         -2   -1    0    0    0  501 -0.00000000000E+00  0.00000000000E+00  0.25129381900E+01  0.25129381900E+01  0.00000000000E+00 0. -1.
          2   -1    0    0  501    0  0.00000000000E+00 -0.00000000000E+00 -0.81090381092E+03  0.81090381092E+03  0.00000000000E+00 0.  1.
         23    2    1    2    0    0  0.00000000000E+00  0.00000000000E+00 -0.80839087273E+03  0.81341674911E+03  0.90282914327E+02 0.  0.
          2    1    3    3  502    0  0.29081337033E+02  0.31131935512E+02 -0.53868666602E+03  0.54036862022E+03  0.00000000000E+00 0.  1.
         -2    1    3    3    0  502 -0.29081337033E+02 -0.31131935512E+02 -0.26970420671E+03  0.27304812889E+03  0.00000000000E+00 0. -1.
<mgrwt>
<rscale>  0 0.90282914E+02</rscale>
<asrwt>0</asrwt>
<pdfrwt beam="2">  1        2 0.12475458E+00 0.90282914E+02</pdfrwt>
<pdfrwt beam="1">  1       -2 0.38660543E-03 0.90282914E+02</pdfrwt>
<totfact> 0.25073099E+05</totfact>
</mgrwt>
</event>
<event>
 5    1  0.4006808E+001  0.9383546E+02  0.7546771E-02  0.1293821E+00
         -3   -1    0    0    0  501 -0.00000000000E+00  0.00000000000E+00  0.13707507394E+02  0.13707507394E+02  0.00000000000E+00 0.  1.
          3   -1    0    0  501    0  0.00000000000E+00 -0.00000000000E+00 -0.16058890402E+03  0.16058890402E+03  0.00000000000E+00 0. -1.
         23    2    1    2    0    0  0.00000000000E+00  0.00000000000E+00 -0.14688139662E+03  0.17429641141E+03  0.93835464279E+02 0.  0.
          2    1    3    3  502    0 -0.21679339015E+02 -0.30135659196E+02 -0.20149741837E+02  0.42239363056E+02  0.00000000000E+00 0.  1.
         -2    1    3    3    0  502  0.21679339015E+02  0.30135659196E+02 -0.12673165479E+03  0.13205704835E+03  0.00000000000E+00 0. -1.
<mgrwt>
<rscale>  0 0.93835464E+02</rscale>
<asrwt>0</asrwt>
<pdfrwt beam="2">  1        3 0.24705984E-01 0.93835464E+02</pdfrwt>
<pdfrwt beam="1">  1       -3 0.21088474E-02 0.93835464E+02</pdfrwt>
<totfact> 0.27643071E+04</totfact>
</mgrwt>
</event>
<event>
 5    1  0.4006808E+001  0.9085472E+02  0.7546771E-02  0.1300795E+00
         -1   -1    0    0    0  501 -0.00000000000E+00  0.00000000000E+00  0.30544268168E+01  0.30544268168E+01  0.00000000000E+00 0.  1.
          1   -1    0    0  501    0  0.00000000000E+00 -0.00000000000E+00 -0.67562435517E+03  0.67562435517E+03  0.00000000000E+00 0. -1.
         23    2    1    2    0    0  0.00000000000E+00  0.00000000000E+00 -0.67256992836E+03  0.67867878199E+03  0.90854722465E+02 0.  0.
          2    1    3    3  502    0 -0.13129464135E+02  0.18014645027E+02 -0.63195990762E+03  0.63235293555E+03  0.00000000000E+00 0. -1.
         -2    1    3    3    0  502  0.13129464135E+02 -0.18014645027E+02 -0.40610020741E+02  0.46325846442E+02  0.00000000000E+00 0.  1.
<mgrwt>
<rscale>  0 0.90854722E+02</rscale>
<asrwt>0</asrwt>
<pdfrwt beam="2">  1        1 0.10394235E+00 0.90854722E+02</pdfrwt>
<pdfrwt beam="1">  1       -1 0.46991117E-03 0.90854722E+02</pdfrwt>
<totfact> 0.14351396E+05</totfact>
</mgrwt>
</event>
<event>
 5    1  0.4006808E+001  0.9266489E+02  0.7546771E-02  0.1296524E+00
         -2   -1    0    0    0  501 -0.00000000000E+00  0.00000000000E+00  0.47539521265E+02  0.47539521265E+02  0.00000000000E+00 0.  1.
          2   -1    0    0  501    0  0.00000000000E+00 -0.00000000000E+00 -0.45156015479E+02  0.45156015479E+02  0.00000000000E+00 0. -1.
         23    2    1    2    0    0  0.00000000000E+00  0.00000000000E+00  0.23835057858E+01  0.92695536744E+02  0.92664887808E+02 0.  0.
          2    1    3    3  502    0 -0.22045525860E+02  0.99420632719E+01 -0.38341509786E+02  0.45331238735E+02  0.00000000000E+00 0. -1.
         -2    1    3    3    0  502  0.22045525860E+02 -0.99420632719E+01  0.40725015572E+02  0.47364298009E+02  0.00000000000E+00 0.  1.
<mgrwt>
<rscale>  0 0.92664888E+02</rscale>
<asrwt>0</asrwt>
<pdfrwt beam="2">  1        2 0.69470793E-02 0.92664888E+02</pdfrwt>
<pdfrwt beam="1">  1       -2 0.73137725E-02 0.92664888E+02</pdfrwt>
<totfact> 0.93948387E+04</totfact>
</mgrwt>
</event>
<event>
 5    1  0.4006808E+001  0.9516148E+02  0.7546771E-02  0.1290813E+00
          1   -1    0    0  501    0  0.00000000000E+00  0.00000000000E+00  0.73425009309E+02  0.73425009309E+02  0.00000000000E+00 0. -1.
         -1   -1    0    0    0  501 -0.00000000000E+00 -0.00000000000E+00 -0.30833185908E+02  0.30833185908E+02  0.00000000000E+00 0.  1.
         23    2    1    2    0    0  0.00000000000E+00  0.00000000000E+00  0.42591823400E+02  0.10425819522E+03  0.95161483013E+02 0.  0.
          2    1    3    3  502    0 -0.10421222547E+02  0.31515323876E+02  0.58644355988E+02  0.67386779176E+02  0.00000000000E+00 0. -1.
         -2    1    3    3    0  502  0.10421222547E+02 -0.31515323876E+02 -0.16052532588E+02  0.36871416041E+02  0.00000000000E+00 0.  1.
<mgrwt>
<rscale>  0 0.95161483E+02</rscale>
<asrwt>0</asrwt>
<pdfrwt beam="1">  1        1 0.11296155E-01 0.95161483E+02</pdfrwt>
<pdfrwt beam="2">  1       -1 0.47435671E-02 0.95161483E+02</pdfrwt>
<totfact> 0.88316254E+04</totfact>
</mgrwt>
</event>
<event>
 5    1  0.4006808E+001  0.9179597E+02  0.7546771E-02  0.1298560E+00
          2   -1    0    0  501    0  0.00000000000E+00  0.00000000000E+00  0.11834631562E+03  0.11834631562E+03  0.00000000000E+00 0.  1.
         -2   -1    0    0    0  501 -0.00000000000E+00 -0.00000000000E+00 -0.17800510943E+02  0.17800510943E+02  0.00000000000E+00 0. -1.
         23    2    1    2    0    0  0.00000000000E+00  0.00000000000E+00  0.10054580468E+03  0.13614682657E+03  0.91795966934E+02 0.  0.
          2    1    3    3  502    0 -0.20462553278E+02 -0.40862211778E+02  0.56598211358E+02  0.72744717794E+02  0.00000000000E+00 0.  1.
         -2    1    3    3    0  502  0.20462553278E+02  0.40862211778E+02  0.43947593322E+02  0.63402108772E+02  0.00000000000E+00 0. -1.
<mgrwt>
<rscale>  0 0.91795967E+02</rscale>
<asrwt>0</asrwt>
<pdfrwt beam="1">  1        2 0.18207125E-01 0.91795967E+02</pdfrwt>
<pdfrwt beam="2">  1       -2 0.27385402E-02 0.91795967E+02</pdfrwt>
<totfact> 0.12691498E+05</totfact>
</mgrwt>
</event>
<event>
 5    1  0.4006808E+001  0.9035194E+02  0.7546771E-02  0.1302002E+00
          1   -1    0    0  501    0  0.00000000000E+00  0.00000000000E+00  0.56351279294E+03  0.56351279294E+03  0.00000000000E+00 0. -1.
         -1   -1    0    0    0  501 -0.00000000000E+00 -0.00000000000E+00 -0.36216896497E+01  0.36216896497E+01  0.00000000000E+00 0.  1.
         23    2    1    2    0    0  0.00000000000E+00  0.00000000000E+00  0.55989110329E+03  0.56713448259E+03  0.90351944079E+02 0.  0.
          2    1    3    3  502    0 -0.21027907511E+02 -0.10970082948E+02  0.38600943057E+02  0.45305059530E+02  0.00000000000E+00 0.  1.
         -2    1    3    3    0  502  0.21027907511E+02  0.10970082948E+02  0.52129016024E+03  0.52182942306E+03  0.00000000000E+00 0. -1.
<mgrwt>
<rscale>  0 0.90351944E+02</rscale>
<asrwt>0</asrwt>
<pdfrwt beam="1">  1        1 0.86694206E-01 0.90351944E+02</pdfrwt>
<pdfrwt beam="2">  1       -1 0.55718347E-03 0.90351944E+02</pdfrwt>
<totfact> 0.14438639E+05</totfact>
</mgrwt>
</event>
<event>
 5    1  0.4006808E+001  0.9115296E+02  0.7546771E-02  0.1300083E+00
         -4   -1    0    0    0  501 -0.00000000000E+00  0.00000000000E+00  0.94626710353E+02  0.94626710353E+02  0.00000000000E+00 0.  1.
          4   -1    0    0  501    0  0.00000000000E+00 -0.00000000000E+00 -0.21951681379E+02  0.21951681379E+02  0.00000000000E+00 0. -1.
         23    2    1    2    0    0  0.00000000000E+00  0.00000000000E+00  0.72675028974E+02  0.11657839173E+03  0.91152957070E+02 0.  0.
          2    1    3    3  502    0  0.40616364758E+02 -0.20540167313E+02  0.33303497397E+02  0.56397788062E+02  0.00000000000E+00 0. -1.
         -2    1    3    3    0  502 -0.40616364758E+02  0.20540167313E+02  0.39371531577E+02  0.60180603670E+02  0.00000000000E+00 0.  1.
<mgrwt>
<rscale>  0 0.91152957E+02</rscale>
<asrwt>0</asrwt>
<pdfrwt beam="2">  1        4 0.33771818E-02 0.91152957E+02</pdfrwt>
<pdfrwt beam="1">  1       -4 0.14557955E-01 0.91152957E+02</pdfrwt>
<totfact> 0.25486279E+04</totfact>
</mgrwt>
</event>
<event>
 5    1  0.4006808E+001  0.9100984E+02  0.7546771E-02  0.1300424E+00
          1   -1    0    0  501    0  0.00000000000E+00  0.00000000000E+00  0.63964276092E+02  0.63964276092E+02  0.00000000000E+00 0. -1.
         -1   -1    0    0    0  501 -0.00000000000E+00 -0.00000000000E+00 -0.32372720867E+02  0.32372720867E+02  0.00000000000E+00 0.  1.
         23    2    1    2    0    0  0.00000000000E+00  0.00000000000E+00  0.31591555225E+02  0.96336996959E+02  0.91009838049E+02 0.  0.
          2    1    3    3  502    0 -0.35589231499E-01 -0.45488882321E+02  0.14517634013E+02  0.47749359983E+02  0.00000000000E+00 0. -1.
         -2    1    3    3    0  502  0.35589231499E-01  0.45488882321E+02  0.17073921211E+02  0.48587636976E+02  0.00000000000E+00 0.  1.
<mgrwt>
<rscale>  0 0.91009838E+02</rscale>
<asrwt>0</asrwt>
<pdfrwt beam="1">  1        1 0.98406579E-02 0.91009838E+02</pdfrwt>
<pdfrwt beam="2">  1       -1 0.49804186E-02 0.91009838E+02</pdfrwt>
<totfact> 0.97807353E+04</totfact>
</mgrwt>
</event>
<event>
 5    1  0.4006808E+001  0.9071467E+02  0.7546771E-02  0.1301130E+00
          1   -1    0    0  501    0  0.00000000000E+00  0.00000000000E+00  0.16359648116E+04  0.16359648116E+04  0.00000000000E+00 0. -1.
         -1   -1    0    0    0  501 -0.00000000000E+00 -0.00000000000E+00 -0.12575378909E+01  0.12575378909E+01  0.00000000000E+00 0.  1.
         23    2    1    2    0    0  0.00000000000E+00  0.00000000000E+00  0.16347072737E+04  0.16372223495E+04  0.90714667806E+02 0.  0.
          2    1    3    3  502    0 -0.26500584968E+02  0.35264350038E+02  0.10078715421E+04  0.10088364093E+04  0.00000000000E+00 0. -1.
         -2    1    3    3    0  502  0.26500584968E+02 -0.35264350038E+02  0.62683573165E+03  0.62838594022E+03  0.00000000000E+00 0.  1.
<mgrwt>
<rscale>  0 0.90714668E+02</rscale>
<asrwt>0</asrwt>
<pdfrwt beam="1">  1        1 0.25168519E+00 0.90714668E+02</pdfrwt>
<pdfrwt beam="2">  1       -1 0.19346868E-03 0.90714668E+02</pdfrwt>
<totfact> 0.10356383E+05</totfact>
</mgrwt>
</event>
<event>
 5    1  0.4006808E+001  0.9354558E+02  0.7546771E-02  0.1294486E+00
          1   -1    0    0  501    0  0.00000000000E+00  0.00000000000E+00  0.85739489525E+01  0.85739489525E+01  0.00000000000E+00 0. -1.
         -1   -1    0    0    0  501 -0.00000000000E+00 -0.00000000000E+00 -0.25515592090E+03  0.25515592090E+03  0.00000000000E+00 0.  1.
         23    2    1    2    0    0  0.00000000000E+00  0.00000000000E+00 -0.24658197195E+03  0.26372986985E+03  0.93545579067E+02 0.  0.
          2    1    3    3  502    0 -0.63684738115E+01  0.23657937713E+02 -0.10963900933E+02  0.26841434373E+02  0.00000000000E+00 0. -1.
         -2    1    3    3    0  502  0.63684738115E+01 -0.23657937713E+02 -0.23561807102E+03  0.23688843548E+03  0.00000000000E+00 0.  1.
<mgrwt>
<rscale>  0 0.93545579E+02</rscale>
<asrwt>0</asrwt>
<pdfrwt beam="1">  1        1 0.13190691E-02 0.93545579E+02</pdfrwt>
<pdfrwt beam="2">  1       -1 0.39254756E-01 0.93545579E+02</pdfrwt>
<totfact> 0.60141862E+04</totfact>
</mgrwt>
</event>
<event>
 5    1  0.4006808E+001  0.9125061E+02  0.7546771E-02  0.1299851E+00
          4   -1    0    0  501    0  0.00000000000E+00  0.00000000000E+00  0.93696382345E+02  0.93696382345E+02  0.00000000000E+00 0. -1.
         -4   -1    0    0    0  501 -0.00000000000E+00 -0.00000000000E+00 -0.22217170045E+02  0.22217170045E+02  0.00000000000E+00 0.  1.
         23    2    1    2    0    0  0.00000000000E+00  0.00000000000E+00  0.71479212300E+02  0.11591355239E+03  0.91250610062E+02 0.  0.
          2    1    3    3  502    0  0.25052553074E+02  0.31062925143E+02  0.76457212233E+01  0.40632410549E+02  0.00000000000E+00 0.  1.
         -2    1    3    3    0  502 -0.25052553074E+02 -0.31062925143E+02  0.63833491076E+02  0.75281141842E+02  0.00000000000E+00 0. -1.
<mgrwt>
<rscale>  0 0.91250610E+02</rscale>
<asrwt>0</asrwt>
<pdfrwt beam="1">  1        4 0.14414828E-01 0.91250610E+02</pdfrwt>
<pdfrwt beam="2">  1       -4 0.34180262E-02 0.91250610E+02</pdfrwt>
<totfact> 0.25450723E+04</totfact>
</mgrwt>
</event>
<event>
 5    1  0.4006808E+001  0.9162989E+02  0.7546771E-02  0.1298952E+00
         -4   -1    0    0    0  501 -0.00000000000E+00  0.00000000000E+00  0.26557996893E+03  0.26557996893E+03  0.00000000000E+00 0.  1.
          4   -1    0    0  501    0  0.00000000000E+00 -0.00000000000E+00 -0.79034913094E+01  0.79034913094E+01  0.00000000000E+00 0. -1.
         23    2    1    2    0    0  0.00000000000E+00  0.00000000000E+00  0.25767647762E+03  0.27348346024E+03  0.91629885440E+02 0.  0.
          2    1    3    3  502    0 -0.45112611905E+02 -0.14948359324E+01  0.10540791232E+03  0.11466564554E+03  0.00000000000E+00 0. -1.
         -2    1    3    3    0  502  0.45112611905E+02  0.14948359324E+01  0.15226856531E+03  0.15881781471E+03  0.00000000000E+00 0.  1.
<mgrwt>
<rscale>  0 0.91629885E+02</rscale>
<asrwt>0</asrwt>
<pdfrwt beam="2">  1        4 0.12159219E-02 0.91629885E+02</pdfrwt>
<pdfrwt beam="1">  1       -4 0.40858450E-01 0.91629885E+02</pdfrwt>
<totfact> 0.18416000E+04</totfact>
</mgrwt>
</event>
<event>
 5    1  0.4006808E+001  0.9036938E+02  0.7546771E-02  0.1301960E+00
         -2   -1    0    0    0  501 -0.00000000000E+00  0.00000000000E+00  0.60547870438E+02  0.60547870438E+02  0.00000000000E+00 0.  1.
          2   -1    0    0  501    0  0.00000000000E+00 -0.00000000000E+00 -0.33719702747E+02  0.33719702747E+02  0.00000000000E+00 0. -1.
         23    2    1    2    0    0  0.00000000000E+00  0.00000000000E+00  0.26828167691E+02  0.94267573185E+02  0.90369379618E+02 0.  0.
          2    1    3    3  502    0  0.33174549162E+02  0.76423853064E+01 -0.17577762376E+02  0.38313633284E+02  0.00000000000E+00 0. -1.
         -2    1    3    3    0  502 -0.33174549162E+02 -0.76423853064E+01  0.44405930067E+02  0.55953939900E+02  0.00000000000E+00 0.  1.
<mgrwt>
<rscale>  0 0.90369380E+02</rscale>
<asrwt>0</asrwt>
<pdfrwt beam="2">  1        2 0.51876466E-02 0.90369380E+02</pdfrwt>
<pdfrwt beam="1">  1       -2 0.93150570E-02 0.90369380E+02</pdfrwt>
<totfact> 0.93654761E+04</totfact>
</mgrwt>
</event>
<event>
 5    1  0.4006808E+001  0.8987939E+02  0.7546771E-02  0.1303144E+00
          2   -1    0    0  501    0  0.00000000000E+00  0.00000000000E+00  0.21940039160E+02  0.21940039160E+02  0.00000000000E+00 0. -1.
         -2   -1    0    0    0  501 -0.00000000000E+00 -0.00000000000E+00 -0.92049804441E+02  0.92049804441E+02  0.00000000000E+00 0.  1.
         23    2    1    2    0    0  0.00000000000E+00  0.00000000000E+00 -0.70109765280E+02  0.11398984360E+03  0.89879392836E+02 0.  0.
          2    1    3    3  502    0 -0.16536753192E+02 -0.26362453977E+02  0.60633926409E+01  0.31705014054E+02  0.00000000000E+00 0. -1.
         -2    1    3    3    0  502  0.16536753192E+02  0.26362453977E+02 -0.76173157921E+02  0.82284829547E+02  0.00000000000E+00 0.  1.
<mgrwt>
<rscale>  0 0.89879393E+02</rscale>
<asrwt>0</asrwt>
<pdfrwt beam="1">  1        2 0.33753906E-02 0.89879393E+02</pdfrwt>
<pdfrwt beam="2">  1       -2 0.14161508E-01 0.89879393E+02</pdfrwt>
<totfact> 0.84725582E+04</totfact>
</mgrwt>
</event>
<event>
 5    1  0.4006808E+001  0.9151537E+02  0.7546771E-02  0.1299223E+00
         -2   -1    0    0    0  501 -0.00000000000E+00  0.00000000000E+00  0.30309002864E+02  0.30309002864E+02  0.00000000000E+00 0.  1.
          2   -1    0    0  501    0  0.00000000000E+00 -0.00000000000E+00 -0.69080657774E+02  0.69080657774E+02  0.00000000000E+00 0. -1.
         23    2    1    2    0    0  0.00000000000E+00  0.00000000000E+00 -0.38771654910E+02  0.99389660637E+02  0.91515372573E+02 0.  0.
          2    1    3    3  502    0  0.36486690598E+02  0.26656730048E+02 -0.27210316101E+02  0.52747143524E+02  0.00000000000E+00 0. -1.
         -2    1    3    3    0  502 -0.36486690598E+02 -0.26656730048E+02 -0.11561338809E+02  0.46642517114E+02  0.00000000000E+00 0.  1.
<mgrwt>
<rscale>  0 0.91515373E+02</rscale>
<asrwt>0</asrwt>
<pdfrwt beam="2">  1        2 0.10627793E-01 0.91515373E+02</pdfrwt>
<pdfrwt beam="1">  1       -2 0.46629236E-02 0.91515373E+02</pdfrwt>
<totfact> 0.10907664E+05</totfact>
</mgrwt>
</event>
<event>
 5    1  0.4006808E+001  0.8937569E+02  0.7546771E-02  0.1304371E+00
          4   -1    0    0  501    0  0.00000000000E+00  0.00000000000E+00  0.10517986459E+03  0.10517986459E+03  0.00000000000E+00 0. -1.
         -4   -1    0    0    0  501 -0.00000000000E+00 -0.00000000000E+00 -0.18986558596E+02  0.18986558596E+02  0.00000000000E+00 0.  1.
         23    2    1    2    0    0  0.00000000000E+00  0.00000000000E+00  0.86193305992E+02  0.12416642318E+03  0.89375693835E+02 0.  0.
          2    1    3    3  502    0 -0.31076817965E+02  0.22746279673E+02  0.11604709529E+02  0.40222271654E+02  0.00000000000E+00 0.  1.
         -2    1    3    3    0  502  0.31076817965E+02 -0.22746279673E+02  0.74588596463E+02  0.83944151530E+02  0.00000000000E+00 0. -1.
<mgrwt>
<rscale>  0 0.89375694E+02</rscale>
<asrwt>0</asrwt>
<pdfrwt beam="1">  1        4 0.16181517E-01 0.89375694E+02</pdfrwt>
<pdfrwt beam="2">  1       -4 0.29210091E-02 0.89375694E+02</pdfrwt>
<totfact> 0.26420202E+04</totfact>
</mgrwt>
</event>
<event>
 5    1  0.4006808E+001  0.9135865E+02  0.7546771E-02  0.1299594E+00
          2   -1    0    0  501    0  0.00000000000E+00  0.00000000000E+00  0.39023842085E+02  0.39023842085E+02  0.00000000000E+00 0. -1.
         -2   -1    0    0    0  501 -0.00000000000E+00 -0.00000000000E+00 -0.53469894479E+02  0.53469894479E+02  0.00000000000E+00 0.  1.
         23    2    1    2    0    0  0.00000000000E+00  0.00000000000E+00 -0.14446052395E+02  0.92493736564E+02  0.91358649693E+02 0.  0.
          2    1    3    3  502    0 -0.32629579168E+02 -0.20651625894E+02  0.17481410518E+02  0.42388427695E+02  0.00000000000E+00 0. -1.
         -2    1    3    3    0  502  0.32629579168E+02  0.20651625894E+02 -0.31927462913E+02  0.50105308869E+02  0.00000000000E+00 0.  1.
<mgrwt>
<rscale>  0 0.91358650E+02</rscale>
<asrwt>0</asrwt>
<pdfrwt beam="1">  1        2 0.60036680E-02 0.91358650E+02</pdfrwt>
<pdfrwt beam="2">  1       -2 0.82261376E-02 0.91358650E+02</pdfrwt>
<totfact> 0.94233185E+04</totfact>
</mgrwt>
</event>
<event>
 5    1  0.4006808E+001  0.9200822E+02  0.7546771E-02  0.1298060E+00
          1   -1    0    0  501    0  0.00000000000E+00  0.00000000000E+00  0.50876941647E+01  0.50876941647E+01  0.00000000000E+00 0. -1.
         -1   -1    0    0    0  501 -0.00000000000E+00 -0.00000000000E+00 -0.41597983882E+03  0.41597983882E+03  0.00000000000E+00 0.  1.
         23    2    1    2    0    0  0.00000000000E+00  0.00000000000E+00 -0.41089214466E+03  0.42106753298E+03  0.92008221341E+02 0.  0.
          2    1    3    3  502    0 -0.14372026531E+02  0.43219771457E+02 -0.23506023494E+03  0.23943228237E+03  0.00000000000E+00 0.  1.
         -2    1    3    3    0  502  0.14372026531E+02 -0.43219771457E+02 -0.17583190971E+03  0.18163525061E+03  0.00000000000E+00 0. -1.
<mgrwt>
<rscale>  0 0.92008221E+02</rscale>
<asrwt>0</asrwt>
<pdfrwt beam="1">  1        1 0.78272207E-03 0.92008221E+02</pdfrwt>
<pdfrwt beam="2">  1       -1 0.63996907E-01 0.92008221E+02</pdfrwt>
<totfact> 0.50998878E+04</totfact>
</mgrwt>
</event>
<event>
 5    1  0.4006808E+001  0.9309252E+02  0.7546771E-02  0.1295531E+00
          4   -1    0    0  501    0  0.00000000000E+00  0.00000000000E+00  0.63346707408E+01  0.63346707408E+01  0.00000000000E+00 0. -1.
         -4   -1    0    0    0  501 -0.00000000000E+00 -0.00000000000E+00 -0.34201531634E+03  0.34201531634E+03  0.00000000000E+00 0.  1.
         23    2    1    2    0    0  0.00000000000E+00  0.00000000000E+00 -0.33568064560E+03  0.34834998709E+03  0.93092522092E+02 0.  0.
          2    1    3    3  502    0 -0.44744675221E+02 -0.54167221748E+01 -0.12434195132E+03  0.13225863941E+03  0.00000000000E+00 0. -1.
         -2    1    3    3    0  502  0.44744675221E+02  0.54167221748E+01 -0.21133869429E+03  0.21609134768E+03  0.00000000000E+00 0.  1.
<mgrwt>
<rscale>  0 0.93092522E+02</rscale>
<asrwt>0</asrwt>
<pdfrwt beam="1">  1        4 0.97456477E-03 0.93092522E+02</pdfrwt>
<pdfrwt beam="2">  1       -4 0.52617739E-01 0.93092522E+02</pdfrwt>
<totfact> 0.15556088E+04</totfact>
</mgrwt>
</event>
<event>
 5    1  0.4006808E+001  0.8976087E+02  0.7546771E-02  0.1303432E+00
         -1   -1    0    0    0  501 -0.00000000000E+00  0.00000000000E+00  0.93613517330E+01  0.93613517330E+01  0.00000000000E+00 0.  1.
          1   -1    0    0  501    0  0.00000000000E+00 -0.00000000000E+00 -0.21516692600E+03  0.21516692600E+03  0.00000000000E+00 0. -1.
         23    2    1    2    0    0  0.00000000000E+00  0.00000000000E+00 -0.20580557427E+03  0.22452827773E+03  0.89760866208E+02 0.  0.
          2    1    3    3  502    0  0.29320603860E+01 -0.29284733928E+02 -0.18765800160E+03  0.18995188386E+03  0.00000000000E+00 0. -1.
         -2    1    3    3    0  502 -0.29320603860E+01  0.29284733928E+02 -0.18147572672E+02  0.34576393873E+02  0.00000000000E+00 0.  1.
<mgrwt>
<rscale>  0 0.89760866E+02</rscale>
<asrwt>0</asrwt>
<pdfrwt beam="2">  1        1 0.33102602E-01 0.89760866E+02</pdfrwt>
<pdfrwt beam="1">  1       -1 0.14402080E-02 0.89760866E+02</pdfrwt>
<totfact> 0.12523593E+05</totfact>
</mgrwt>
</event>
<event>
 5    1  0.4006808E+001  0.8845259E+02  0.7546771E-02  0.1306643E+00
          1   -1    0    0  501    0  0.00000000000E+00  0.00000000000E+00  0.36108596139E+02  0.36108596139E+02  0.00000000000E+00 0. -1.
         -1   -1    0    0    0  501 -0.00000000000E+00 -0.00000000000E+00 -0.54168958858E+02  0.54168958858E+02  0.00000000000E+00 0.  1.
         23    2    1    2    0    0  0.00000000000E+00  0.00000000000E+00 -0.18060362719E+02  0.90277554997E+02  0.88452587496E+02 0.  0.
          2    1    3    3  502    0 -0.23068068418E+02 -0.85801864094E+01  0.28473150697E+02  0.37636095573E+02  0.00000000000E+00 0. -1.
         -2    1    3    3    0  502  0.23068068418E+02  0.85801864094E+01 -0.46533513416E+02  0.52641459423E+02  0.00000000000E+00 0.  1.
<mgrwt>
<rscale>  0 0.88452587E+02</rscale>
<asrwt>0</asrwt>
<pdfrwt beam="1">  1        1 0.55551686E-02 0.88452587E+02</pdfrwt>
<pdfrwt beam="2">  1       -1 0.83336860E-02 0.88452587E+02</pdfrwt>
<totfact> 0.97254440E+04</totfact>
</mgrwt>
</event>
<event>
 5    1  0.4006808E+001  0.9144613E+02  0.7546771E-02  0.1299387E+00
          2   -1    0    0  501    0  0.00000000000E+00  0.00000000000E+00  0.89722000905E+03  0.89722000905E+03  0.00000000000E+00 0. -1.
         -2   -1    0    0    0  501 -0.00000000000E+00 -0.00000000000E+00 -0.23300849937E+01  0.23300849937E+01  0.00000000000E+00 0.  1.
         23    2    1    2    0    0  0.00000000000E+00  0.00000000000E+00  0.89488992406E+03  0.89955009405E+03  0.91446134509E+02 0.  0.
          2    1    3    3  502    0  0.37098771163E+02 -0.22307334398E+02  0.59223952895E+03  0.59381949752E+03  0.00000000000E+00 0.  1.
         -2    1    3    3    0  502 -0.37098771163E+02  0.22307334398E+02  0.30265039511E+03  0.30573059652E+03  0.00000000000E+00 0. -1.
<mgrwt>
<rscale>  0 0.91446135E+02</rscale>
<asrwt>0</asrwt>
<pdfrwt beam="1">  1        2 0.13803357E+00 0.91446135E+02</pdfrwt>
<pdfrwt beam="2">  1       -2 0.35847533E-03 0.91446135E+02</pdfrwt>
<totfact> 0.24593636E+05</totfact>
</mgrwt>
</event>
<event>
 5    1  0.4006808E+001  0.8689308E+02  0.7546771E-02  0.1310555E+00
         -1   -1    0    0    0  501 -0.00000000000E+00  0.00000000000E+00  0.15189806922E+03  0.15189806922E+03  0.00000000000E+00 0.  1.
          1   -1    0    0  501    0  0.00000000000E+00 -0.00000000000E+00 -0.12426765630E+02  0.12426765630E+02  0.00000000000E+00 0. -1.
         23    2    1    2    0    0  0.00000000000E+00  0.00000000000E+00  0.13947130359E+03  0.16432483485E+03  0.86893076959E+02 0.  0.
          2    1    3    3  502    0 -0.40370095575E+02  0.11113695275E+02  0.47816419791E+02  0.63558389227E+02  0.00000000000E+00 0. -1.
         -2    1    3    3    0  502  0.40370095575E+02 -0.11113695275E+02  0.91654883800E+02  0.10076644562E+03  0.00000000000E+00 0.  1.
<mgrwt>
<rscale>  0 0.86893077E+02</rscale>
<asrwt>0</asrwt>
<pdfrwt beam="2">  1        1 0.19118102E-02 0.86893077E+02</pdfrwt>
<pdfrwt beam="1">  1       -1 0.23368932E-01 0.86893077E+02</pdfrwt>
<totfact> 0.84468579E+04</totfact>
</mgrwt>
</event>
<event>
 5    1  0.4006808E+001  0.9279622E+02  0.7546771E-02  0.1296218E+00
          1   -1    0    0  501    0  0.00000000000E+00  0.00000000000E+00  0.15310219424E+03  0.15310219424E+03  0.00000000000E+00 0. -1.
         -1   -1    0    0    0  501 -0.00000000000E+00 -0.00000000000E+00 -0.14061096143E+02  0.14061096143E+02  0.00000000000E+00 0.  1.
         23    2    1    2    0    0  0.00000000000E+00  0.00000000000E+00  0.13904109809E+03  0.16716329038E+03  0.92796221322E+02 0.  0.
          2    1    3    3  502    0  0.59320611628E+01  0.46016861244E+02  0.69897574118E+02  0.83895242630E+02  0.00000000000E+00 0.  1.
         -2    1    3    3    0  502 -0.59320611628E+01 -0.46016861244E+02  0.69143523976E+02  0.83268047751E+02  0.00000000000E+00 0. -1.
<mgrwt>
<rscale>  0 0.92796221E+02</rscale>
<asrwt>0</asrwt>
<pdfrwt beam="1">  1        1 0.23554183E-01 0.92796221E+02</pdfrwt>
<pdfrwt beam="2">  1       -1 0.21632457E-02 0.92796221E+02</pdfrwt>
<totfact> 0.10732842E+05</totfact>
</mgrwt>
</event>
<event>
 5    1  0.4006808E+001  0.9058537E+02  0.7546771E-02  0.1301440E+00
         -2   -1    0    0    0  501 -0.00000000000E+00  0.00000000000E+00  0.21073167936E+01  0.21073167936E+01  0.00000000000E+00 0.  1.
          2   -1    0    0  501    0  0.00000000000E+00 -0.00000000000E+00 -0.97347842873E+03  0.97347842873E+03  0.00000000000E+00 0. -1.
         23    2    1    2    0    0  0.00000000000E+00  0.00000000000E+00 -0.97137111193E+03  0.97558574552E+03  0.90585372794E+02 0.  0.
          2    1    3    3  502    0 -0.28012824928E+02  0.34748876905E+02 -0.56856723960E+03  0.57031649876E+03  0.00000000000E+00 0.  1.
         -2    1    3    3    0  502  0.28012824928E+02 -0.34748876905E+02 -0.40280387233E+03  0.40526924676E+03  0.00000000000E+00 0. -1.
<mgrwt>
<rscale>  0 0.90585373E+02</rscale>
<asrwt>0</asrwt>
<pdfrwt beam="2">  1        2 0.14976606E+00 0.90585373E+02</pdfrwt>
<pdfrwt beam="1">  1       -2 0.32420226E-03 0.90585373E+02</pdfrwt>
<totfact> 0.25397216E+05</totfact>
</mgrwt>
</event>
<event>
 5    1  0.4006808E+001  0.9230012E+02  0.7546771E-02  0.1297375E+00
          3   -1    0    0  501    0  0.00000000000E+00  0.00000000000E+00  0.80026093575E+01  0.80026093575E+01  0.00000000000E+00 0. -1.
         -3   -1    0    0    0  501 -0.00000000000E+00 -0.00000000000E+00 -0.26614172119E+03  0.26614172119E+03  0.00000000000E+00 0.  1.
         23    2    1    2    0    0  0.00000000000E+00  0.00000000000E+00 -0.25813911183E+03  0.27414433054E+03  0.92300124125E+02 0.  0.
          2    1    3    3  502    0  0.16874721864E+02 -0.27499810261E+02 -0.31062463136E+02  0.44786967060E+02  0.00000000000E+00 0. -1.
         -2    1    3    3    0  502 -0.16874721864E+02  0.27499810261E+02 -0.22707664869E+03  0.22935736348E+03  0.00000000000E+00 0.  1.
<mgrwt>
<rscale>  0 0.92300124E+02</rscale>
<asrwt>0</asrwt>
<pdfrwt beam="1">  1        3 0.12311709E-02 0.92300124E+02</pdfrwt>
<pdfrwt beam="2">  1       -3 0.40944873E-01 0.92300124E+02</pdfrwt>
<totfact> 0.24248578E+04</totfact>
</mgrwt>
</event>
<event>
 5    1  0.4006808E+001  0.9170441E+02  0.7546771E-02  0.1298776E+00
          2   -1    0    0  501    0  0.00000000000E+00  0.00000000000E+00  0.35382744734E+03  0.35382744734E+03  0.00000000000E+00 0. -1.
         -2   -1    0    0    0  501 -0.00000000000E+00 -0.00000000000E+00 -0.59419491275E+01  0.59419491275E+01  0.00000000000E+00 0.  1.
         23    2    1    2    0    0  0.00000000000E+00  0.00000000000E+00  0.34788549822E+03  0.35976939647E+03  0.91704409753E+02 0.  0.
          2    1    3    3  502    0 -0.38619628812E+02 -0.16444427679E+02  0.24633824285E+03  0.24988882492E+03  0.00000000000E+00 0. -1.
         -2    1    3    3    0  502  0.38619628812E+02  0.16444427679E+02  0.10154725537E+03  0.10988057155E+03  0.00000000000E+00 0.  1.
<mgrwt>
<rscale>  0 0.91704410E+02</rscale>
<asrwt>0</asrwt>
<pdfrwt beam="1">  1        2 0.54434975E-01 0.91704410E+02</pdfrwt>
<pdfrwt beam="2">  1       -2 0.91414630E-03 0.91704410E+02</pdfrwt>
<totfact> 0.18804388E+05</totfact>
</mgrwt>
</event>
<event>
 5    1  0.4006808E+001  0.9326917E+02  0.7546771E-02  0.1295123E+00
          2   -1    0    0  501    0  0.00000000000E+00  0.00000000000E+00  0.87317418981E+02  0.87317418981E+02  0.00000000000E+00 0.  1.
         -2   -1    0    0    0  501 -0.00000000000E+00 -0.00000000000E+00 -0.24906650038E+02  0.24906650038E+02  0.00000000000E+00 0. -1.
         23    2    1    2    0    0  0.00000000000E+00  0.00000000000E+00  0.62410768944E+02  0.11222406902E+03  0.93269167398E+02 0.  0.
          2    1    3    3  502    0  0.39612785087E+02 -0.12805003025E+02  0.59191675984E+01  0.42049701424E+02  0.00000000000E+00 0. -1.
         -2    1    3    3    0  502 -0.39612785087E+02  0.12805003025E+02  0.56491601345E+02  0.70174367595E+02  0.00000000000E+00 0.  1.
<mgrwt>
<rscale>  0 0.93269167E+02</rscale>
<asrwt>0</asrwt>
<pdfrwt beam="1">  1        2 0.13433449E-01 0.93269167E+02</pdfrwt>
<pdfrwt beam="2">  1       -2 0.38317924E-02 0.93269167E+02</pdfrwt>
<totfact> 0.11061358E+05</totfact>
</mgrwt>
</event>
<event>
 4    1  0.4006808E+001  0.1292415E+03  0.7546771E-02  0.1228586E+00
         -3   -1    0    0    0  501 -0.00000000000E+00  0.00000000000E+00  0.51078763600E+02  0.51078763600E+02  0.00000000000E+00 0.  1.
          3   -1    0    0  501    0  0.00000000000E+00 -0.00000000000E+00 -0.81752969373E+02  0.81752969373E+02  0.00000000000E+00 0. -1.
          2    1    1    2  502    0  0.16655743788E+02 -0.29219896259E+02 -0.72048030737E+02  0.79511853654E+02  0.00000000000E+00 0. -1.
         -2    1    1    2    0  502 -0.16655743788E+02  0.29219896259E+02  0.41373824963E+02  0.53319879319E+02  0.00000000000E+00 0.  1.
<mgrwt>
<rscale>  0 0.12924149E+03</rscale>
<asrwt>0</asrwt>
<pdfrwt beam="2">  1        3 0.12577380E-01 0.12924149E+03</pdfrwt>
<pdfrwt beam="1">  1       -3 0.78582714E-02 0.12924149E+03</pdfrwt>
<totfact> 0.12312938E+04</totfact>
</mgrwt>
</event>
<event>
 5    1  0.4006808E+001  0.9107299E+02  0.7546771E-02  0.1300274E+00
          2   -1    0    0  501    0  0.00000000000E+00  0.00000000000E+00  0.46342137404E+02  0.46342137404E+02  0.00000000000E+00 0. -1.
         -2   -1    0    0    0  501 -0.00000000000E+00 -0.00000000000E+00 -0.44744859985E+02  0.44744859985E+02  0.00000000000E+00 0.  1.
         23    2    1    2    0    0  0.00000000000E+00  0.00000000000E+00  0.15972774182E+01  0.91086997389E+02  0.91072991596E+02 0.  0.
          2    1    3    3  502    0  0.29536854285E+02 -0.20178867061E+02  0.28980268045E+02  0.46037684269E+02  0.00000000000E+00 0. -1.
         -2    1    3    3    0  502 -0.29536854285E+02  0.20178867061E+02 -0.27382990627E+02  0.45049313120E+02  0.00000000000E+00 0.  1.
<mgrwt>
<rscale>  0 0.91072992E+02</rscale>
<asrwt>0</asrwt>
<pdfrwt beam="1">  1        2 0.71295596E-02 0.91072992E+02</pdfrwt>
<pdfrwt beam="2">  1       -2 0.68838246E-02 0.91072992E+02</pdfrwt>
<totfact> 0.99420246E+04</totfact>
</mgrwt>
</event>
<event>
 5    1  0.4006808E+001  0.9002932E+02  0.7546771E-02  0.1302781E+00
          4   -1    0    0  501    0  0.00000000000E+00  0.00000000000E+00  0.34902991431E+03  0.34902991431E+03  0.00000000000E+00 0. -1.
         -4   -1    0    0    0  501 -0.00000000000E+00 -0.00000000000E+00 -0.58055761358E+01  0.58055761358E+01  0.00000000000E+00 0.  1.
         23    2    1    2    0    0  0.00000000000E+00  0.00000000000E+00  0.34322433817E+03  0.35483549044E+03  0.90029322805E+02 0.  0.
          2    1    3    3  502    0  0.20585023842E+02 -0.36789365496E+02  0.23382022069E+03  0.23759018546E+03  0.00000000000E+00 0. -1.
         -2    1    3    3    0  502 -0.20585023842E+02  0.36789365496E+02  0.10940411748E+03  0.11724530498E+03  0.00000000000E+00 0.  1.
<mgrwt>
<rscale>  0 0.90029323E+02</rscale>
<asrwt>0</asrwt>
<pdfrwt beam="1">  1        4 0.53696893E-01 0.90029323E+02</pdfrwt>
<pdfrwt beam="2">  1       -4 0.89316583E-03 0.90029323E+02</pdfrwt>
<totfact> 0.16822970E+04</totfact>
</mgrwt>
</event>
<event>
 5    1  0.4006808E+001  0.8655074E+02  0.7546771E-02  0.1311426E+00
          1   -1    0    0  501    0  0.00000000000E+00  0.00000000000E+00  0.11267867195E+04  0.11267867195E+04  0.00000000000E+00 0. -1.
         -1   -1    0    0    0  501 -0.00000000000E+00 -0.00000000000E+00 -0.16620339826E+01  0.16620339826E+01  0.00000000000E+00 0.  1.
         23    2    1    2    0    0  0.00000000000E+00  0.00000000000E+00  0.11251246855E+04  0.11284487534E+04  0.86550743934E+02 0.  0.
          2    1    3    3  502    0  0.13113250205E+02  0.34631984722E+02  0.85451639903E+03  0.85531842486E+03  0.00000000000E+00 0. -1.
         -2    1    3    3    0  502 -0.13113250205E+02 -0.34631984722E+02  0.27060828645E+03  0.27313032859E+03  0.00000000000E+00 0.  1.
<mgrwt>
<rscale>  0 0.86550744E+02</rscale>
<asrwt>0</asrwt>
<pdfrwt beam="1">  1        1 0.17335119E+00 0.86550744E+02</pdfrwt>
<pdfrwt beam="2">  1       -1 0.25569844E-03 0.86550744E+02</pdfrwt>
<totfact> 0.15006245E+05</totfact>
</mgrwt>
</event>
<event>
 5    1  0.4006808E+001  0.8976512E+02  0.7546771E-02  0.1303421E+00
         -3   -1    0    0    0  501 -0.00000000000E+00  0.00000000000E+00  0.42077597207E+01  0.42077597207E+01  0.00000000000E+00 0.  1.
          3   -1    0    0  501    0  0.00000000000E+00 -0.00000000000E+00 -0.47874508725E+03  0.47874508725E+03  0.00000000000E+00 0. -1.
         23    2    1    2    0    0  0.00000000000E+00  0.00000000000E+00 -0.47453732753E+03  0.48295284697E+03  0.89765122282E+02 0.  0.
          2    1    3    3  502    0  0.21747273708E+02  0.24993568491E+02 -0.74361719828E+02  0.81408155338E+02  0.00000000000E+00 0.  1.
         -2    1    3    3    0  502 -0.21747273708E+02 -0.24993568491E+02 -0.40017560770E+03  0.40154469163E+03  0.00000000000E+00 0. -1.
<mgrwt>
<rscale>  0 0.89765122E+02</rscale>
<asrwt>0</asrwt>
<pdfrwt beam="2">  1        3 0.73653068E-01 0.89765122E+02</pdfrwt>
<pdfrwt beam="1">  1       -3 0.64734785E-03 0.89765122E+02</pdfrwt>
<totfact> 0.19110210E+04</totfact>
</mgrwt>
</event>
<event>
 5    1  0.4006808E+001  0.8993634E+02  0.7546771E-02  0.1303006E+00
         -2   -1    0    0    0  501 -0.00000000000E+00  0.00000000000E+00  0.55888441400E+01  0.55888441400E+01  0.00000000000E+00 0.  1.
          2   -1    0    0  501    0  0.00000000000E+00 -0.00000000000E+00 -0.36181653917E+03  0.36181653917E+03  0.00000000000E+00 0. -1.
         23    2    1    2    0    0  0.00000000000E+00  0.00000000000E+00 -0.35622769503E+03  0.36740538331E+03  0.89936338478E+02 0.  0.
          2    1    3    3  502    0 -0.40084719211E+02 -0.18591169463E+02 -0.21222440691E+03  0.21677549489E+03  0.00000000000E+00 0. -1.
         -2    1    3    3    0  502  0.40084719211E+02  0.18591169463E+02 -0.14400328812E+03  0.15062988842E+03  0.00000000000E+00 0.  1.
<mgrwt>
<rscale>  0 0.89936338E+02</rscale>
<asrwt>0</asrwt>
<pdfrwt beam="2">  1        2 0.55664079E-01 0.89936338E+02</pdfrwt>
<pdfrwt beam="1">  1       -2 0.85982224E-03 0.89936338E+02</pdfrwt>
<totfact> 0.19964880E+05</totfact>
</mgrwt>
</event>
<event>
 5    1  0.4006808E+001  0.9626602E+02  0.7546771E-02  0.1288350E+00
          1   -1    0    0  501    0  0.00000000000E+00  0.00000000000E+00  0.28776053278E+02  0.28776053278E+02  0.00000000000E+00 0. -1.
         -1   -1    0    0    0  501 -0.00000000000E+00 -0.00000000000E+00 -0.80510928578E+02  0.80510928578E+02  0.00000000000E+00 0.  1.
         23    2    1    2    0    0  0.00000000000E+00  0.00000000000E+00 -0.51734875300E+02  0.10928698186E+03  0.96266022464E+02 0.  0.
          2    1    3    3  502    0  0.39863558629E+02 -0.21316253281E+02 -0.44635345554E+02  0.63527946868E+02  0.00000000000E+00 0.  1.
         -2    1    3    3    0  502 -0.39863558629E+02  0.21316253281E+02 -0.70995297464E+01  0.45759034989E+02  0.00000000000E+00 0. -1.
<mgrwt>
<rscale>  0 0.96266022E+02</rscale>
<asrwt>0</asrwt>
<pdfrwt beam="1">  1        1 0.44270852E-02 0.96266022E+02</pdfrwt>
<pdfrwt beam="2">  1       -1 0.12386296E-01 0.96266022E+02</pdfrwt>
<totfact> 0.73566995E+04</totfact>
</mgrwt>
</event>
<event>
 5    1  0.4006808E+001  0.9132665E+02  0.7546771E-02  0.1299670E+00
         -3   -1    0    0    0  501 -0.00000000000E+00  0.00000000000E+00  0.47186812531E+03  0.47186812531E+03  0.00000000000E+00 0.  1.
          3   -1    0    0  501    0  0.00000000000E+00 -0.00000000000E+00 -0.44189028636E+01  0.44189028636E+01  0.00000000000E+00 0. -1.
         23    2    1    2    0    0  0.00000000000E+00  0.00000000000E+00  0.46744922245E+03  0.47628702818E+03  0.91326653507E+02 0.  0.
          2    1    3    3  502    0  0.13894278587E+02 -0.43397117427E+02  0.24917660858E+03  0.25330878990E+03  0.00000000000E+00 0. -1.
         -2    1    3    3    0  502 -0.13894278587E+02  0.43397117427E+02  0.21827261387E+03  0.22297823827E+03  0.00000000000E+00 0.  1.
<mgrwt>
<rscale>  0 0.91326654E+02</rscale>
<asrwt>0</asrwt>
<pdfrwt beam="2">  1        3 0.67983158E-03 0.91326654E+02</pdfrwt>
<pdfrwt beam="1">  1       -3 0.72595056E-01 0.91326654E+02</pdfrwt>
<totfact> 0.18400040E+04</totfact>
</mgrwt>
</event>
<event>
 5    1  0.4006808E+001  0.8766976E+02  0.7546771E-02  0.1308595E+00
         -3   -1    0    0    0  501 -0.00000000000E+00  0.00000000000E+00  0.31109580797E+02  0.31109580797E+02  0.00000000000E+00 0.  1.
          3   -1    0    0  501    0  0.00000000000E+00 -0.00000000000E+00 -0.61765429527E+02  0.61765429527E+02  0.00000000000E+00 0. -1.
         23    2    1    2    0    0  0.00000000000E+00  0.00000000000E+00 -0.30655848730E+02  0.92875010324E+02  0.87669758077E+02 0.  0.
          2    1    3    3  502    0 -0.23878700655E+02  0.13043977695E+02  0.21080613146E+02  0.34419906300E+02  0.00000000000E+00 0.  1.
         -2    1    3    3    0  502  0.23878700655E+02 -0.13043977695E+02 -0.51736461876E+02  0.58455104025E+02  0.00000000000E+00 0. -1.
<mgrwt>
<rscale>  0 0.87669758E+02</rscale>
<asrwt>0</asrwt>
<pdfrwt beam="2">  1        3 0.95023737E-02 0.87669758E+02</pdfrwt>
<pdfrwt beam="1">  1       -3 0.47860894E-02 0.87669758E+02</pdfrwt>
<totfact> 0.39162083E+04</totfact>
</mgrwt>
</event>
<event>
 5    1  0.4006808E+001  0.8908649E+02  0.7546771E-02  0.1305079E+00
          1   -1    0    0  501    0  0.00000000000E+00  0.00000000000E+00  0.11382282072E+03  0.11382282072E+03  0.00000000000E+00 0. -1.
         -1   -1    0    0    0  501 -0.00000000000E+00 -0.00000000000E+00 -0.17431485876E+02  0.17431485876E+02  0.00000000000E+00 0.  1.
         23    2    1    2    0    0  0.00000000000E+00  0.00000000000E+00  0.96391334842E+02  0.13125430659E+03  0.89086494862E+02 0.  0.
          2    1    3    3  502    0  0.31682688599E+02  0.27719337961E+02  0.69645047804E+02  0.81379279534E+02  0.00000000000E+00 0. -1.
         -2    1    3    3    0  502 -0.31682688599E+02 -0.27719337961E+02  0.26746287037E+02  0.49875027059E+02  0.00000000000E+00 0.  1.
<mgrwt>
<rscale>  0 0.89086495E+02</rscale>
<asrwt>0</asrwt>
<pdfrwt beam="1">  1        1 0.17511203E-01 0.89086495E+02</pdfrwt>
<pdfrwt beam="2">  1       -1 0.26817671E-02 0.89086495E+02</pdfrwt>
<totfact> 0.11368569E+05</totfact>
</mgrwt>
</event>
<event>
 5    1  0.4006808E+001  0.9172863E+02  0.7546771E-02  0.1298719E+00
          2   -1    0    0  501    0  0.00000000000E+00  0.00000000000E+00  0.11837761894E+03  0.11837761894E+03  0.00000000000E+00 0. -1.
         -2   -1    0    0    0  501 -0.00000000000E+00 -0.00000000000E+00 -0.17769706778E+02  0.17769706778E+02  0.00000000000E+00 0.  1.
         23    2    1    2    0    0  0.00000000000E+00  0.00000000000E+00  0.10060791217E+03  0.13614732572E+03  0.91728634083E+02 0.  0.
          2    1    3    3  502    0 -0.44533766043E+02 -0.36414752053E+01  0.34949498938E+02  0.56727278585E+02  0.00000000000E+00 0.  1.
         -2    1    3    3    0  502  0.44533766043E+02  0.36414752053E+01  0.65658413229E+02  0.79420047138E+02  0.00000000000E+00 0. -1.
<mgrwt>
<rscale>  0 0.91728634E+02</rscale>
<asrwt>0</asrwt>
<pdfrwt beam="1">  1        2 0.18211941E-01 0.91728634E+02</pdfrwt>
<pdfrwt beam="2">  1       -2 0.27338011E-02 0.91728634E+02</pdfrwt>
<totfact> 0.12718117E+05</totfact>
</mgrwt>
</event>
<event>
 5    1  0.4006808E+001  0.9453168E+02  0.7546771E-02  0.1292234E+00
          2   -1    0    0  501    0  0.00000000000E+00  0.00000000000E+00  0.99700098527E+02  0.99700098527E+02  0.00000000000E+00 0. -1.
         -2   -1    0    0    0  501 -0.00000000000E+00 -0.00000000000E+00 -0.22407799368E+02  0.22407799368E+02  0.00000000000E+00 0.  1.
         23    2    1    2    0    0  0.00000000000E+00  0.00000000000E+00  0.77292299159E+02  0.12210789790E+03  0.94531683679E+02 0.  0.
          2    1    3    3  502    0 -0.33533385285E+02  0.13720371666E+02  0.77853941415E+02  0.85871838930E+02  0.00000000000E+00 0. -1.
         -2    1    3    3    0  502  0.33533385285E+02 -0.13720371666E+02 -0.56164225645E+00  0.36236058965E+02  0.00000000000E+00 0.  1.
<mgrwt>
<rscale>  0 0.94531684E+02</rscale>
<asrwt>0</asrwt>
<pdfrwt beam="1">  1        2 0.15338476E-01 0.94531684E+02</pdfrwt>
<pdfrwt beam="2">  1       -2 0.34473538E-02 0.94531684E+02</pdfrwt>
<totfact> 0.11091844E+05</totfact>
</mgrwt>
</event>
<event>
 5    1  0.4006808E+001  0.9059261E+02  0.7546771E-02  0.1301423E+00
         -1   -1    0    0    0  501 -0.00000000000E+00  0.00000000000E+00  0.19147350548E+01  0.19147350548E+01  0.00000000000E+00 0.  1.
          1   -1    0    0  501    0  0.00000000000E+00 -0.00000000000E+00 -0.10715608433E+04  0.10715608433E+04  0.00000000000E+00 0. -1.
         23    2    1    2    0    0  0.00000000000E+00  0.00000000000E+00 -0.10696461083E+04  0.10734755784E+04  0.90592606984E+02 0.  0.
          2    1    3    3  502    0  0.17801437970E+02  0.41397558476E+02 -0.58926116965E+03  0.59098170454E+03  0.00000000000E+00 0. -1.
         -2    1    3    3    0  502 -0.17801437970E+02 -0.41397558476E+02 -0.48038493862E+03  0.48249387384E+03  0.00000000000E+00 0.  1.
<mgrwt>
<rscale>  0 0.90592607E+02</rscale>
<asrwt>0</asrwt>
<pdfrwt beam="2">  1        1 0.16485520E+00 0.90592607E+02</pdfrwt>
<pdfrwt beam="1">  1       -1 0.29457519E-03 0.90592607E+02</pdfrwt>
<totfact> 0.13550204E+05</totfact>
</mgrwt>
</event>
<event>
 5    1  0.4006808E+001  0.9099996E+02  0.7546771E-02  0.1300448E+00
         -3   -1    0    0    0  501 -0.00000000000E+00  0.00000000000E+00  0.60255861165E+02  0.60255861165E+02  0.00000000000E+00 0.  1.
          3   -1    0    0  501    0  0.00000000000E+00 -0.00000000000E+00 -0.34357626646E+02  0.34357626646E+02  0.00000000000E+00 0. -1.
         23    2    1    2    0    0  0.00000000000E+00  0.00000000000E+00  0.25898234519E+02  0.94613487810E+02  0.90999964420E+02 0.  0.
          2    1    3    3  502    0  0.19650056059E+02 -0.39601879541E+02  0.24138184624E+02  0.50369490004E+02  0.00000000000E+00 0. -1.
         -2    1    3    3    0  502 -0.19650056059E+02  0.39601879541E+02  0.17600498947E+01  0.44243997807E+02  0.00000000000E+00 0.  1.
<mgrwt>
<rscale>  0 0.90999964E+02</rscale>
<asrwt>0</asrwt>
<pdfrwt beam="2">  1        3 0.52857887E-02 0.90999964E+02</pdfrwt>
<pdfrwt beam="1">  1       -3 0.92701325E-02 0.90999964E+02</pdfrwt>
<totfact> 0.35262864E+04</totfact>
</mgrwt>
</event>
<event>
 5    1  0.4006808E+001  0.7541284E+02  0.7546771E-02  0.1342597E+00
          2   -1    0    0  501    0  0.00000000000E+00  0.00000000000E+00  0.11638043489E+01  0.11638043489E+01  0.00000000000E+00 0. -1.
         -2   -1    0    0    0  501 -0.00000000000E+00 -0.00000000000E+00 -0.12216606350E+04  0.12216606350E+04  0.00000000000E+00 0.  1.
         23    2    1    2    0    0  0.00000000000E+00  0.00000000000E+00 -0.12204968306E+04  0.12228244393E+04  0.75412836040E+02 0.  0.
          2    1    3    3  502    0  0.26330083702E+02  0.13141482296E+02 -0.22797074892E+03  0.22986220705E+03  0.00000000000E+00 0. -1.
         -2    1    3    3    0  502 -0.26330083702E+02 -0.13141482296E+02 -0.99252608170E+03  0.99296223227E+03  0.00000000000E+00 0.  1.
<mgrwt>
<rscale>  0 0.75412836E+02</rscale>
<asrwt>0</asrwt>
<pdfrwt beam="1">  1        2 0.17904638E-03 0.75412836E+02</pdfrwt>
<pdfrwt beam="2">  1       -2 0.18794825E+00 0.75412836E+02</pdfrwt>
<totfact> 0.23683392E+04</totfact>
</mgrwt>
</event>
<event>
 5    1  0.4006808E+001  0.8466010E+02  0.7546771E-02  0.1316324E+00
          1   -1    0    0  501    0  0.00000000000E+00  0.00000000000E+00  0.22660097556E+04  0.22660097556E+04  0.00000000000E+00 0. -1.
         -1   -1    0    0    0  501 -0.00000000000E+00 -0.00000000000E+00 -0.79074375714E+00  0.79074375714E+00  0.00000000000E+00 0.  1.
         23    2    1    2    0    0  0.00000000000E+00  0.00000000000E+00  0.22652190119E+04  0.22668004994E+04  0.84660098461E+02 0.  0.
          2    1    3    3  502    0 -0.15517022029E+02 -0.38096609560E+02  0.13999652944E+04  0.14005695111E+04  0.00000000000E+00 0. -1.
         -2    1    3    3    0  502  0.15517022029E+02  0.38096609560E+02  0.86525371742E+03  0.86623098833E+03  0.00000000000E+00 0.  1.
<mgrwt>
<rscale>  0 0.84660098E+02</rscale>
<asrwt>0</asrwt>
<pdfrwt beam="1">  1        1 0.34861169E+00 0.84660098E+02</pdfrwt>
<pdfrwt beam="2">  1       -1 0.12165470E-03 0.84660098E+02</pdfrwt>
<totfact> 0.78449155E+04</totfact>
</mgrwt>
</event>
<event>
 5    1  0.4006808E+001  0.9131978E+02  0.7546771E-02  0.1299687E+00
         -1   -1    0    0    0  501 -0.00000000000E+00  0.00000000000E+00  0.46023804852E+01  0.46023804852E+01  0.00000000000E+00 0.  1.
          1   -1    0    0  501    0  0.00000000000E+00 -0.00000000000E+00 -0.45298851335E+03  0.45298851335E+03  0.00000000000E+00 0. -1.
         23    2    1    2    0    0  0.00000000000E+00  0.00000000000E+00 -0.44838613286E+03  0.45759089383E+03  0.91319778665E+02 0.  0.
          2    1    3    3  502    0  0.35424283672E+02  0.28473947285E+02 -0.20224803460E+03  0.20729185475E+03  0.00000000000E+00 0. -1.
         -2    1    3    3    0  502 -0.35424283672E+02 -0.28473947285E+02 -0.24613809826E+03  0.25029903908E+03  0.00000000000E+00 0.  1.
<mgrwt>
<rscale>  0 0.91319779E+02</rscale>
<asrwt>0</asrwt>
<pdfrwt beam="2">  1        1 0.69690574E-01 0.91319779E+02</pdfrwt>
<pdfrwt beam="1">  1       -1 0.70805820E-03 0.91319779E+02</pdfrwt>
<totfact> 0.13691636E+05</totfact>
</mgrwt>
</event>
<event>
 5    1  0.4006808E+001  0.9253655E+02  0.7546771E-02  0.1296823E+00
          2   -1    0    0  501    0  0.00000000000E+00  0.00000000000E+00  0.12872766004E+04  0.12872766004E+04  0.00000000000E+00 0. -1.
         -2   -1    0    0    0  501 -0.00000000000E+00 -0.00000000000E+00 -0.16630096892E+01  0.16630096892E+01  0.00000000000E+00 0.  1.
         23    2    1    2    0    0  0.00000000000E+00  0.00000000000E+00  0.12856135907E+04  0.12889396100E+04  0.92536554056E+02 0.  0.
          2    1    3    3  502    0 -0.45202216174E+02 -0.61126941412E+01  0.75083325422E+03  0.75221750912E+03  0.00000000000E+00 0. -1.
         -2    1    3    3    0  502  0.45202216174E+02  0.61126941412E+01  0.53478033644E+03  0.53672210092E+03  0.00000000000E+00 0.  1.
<mgrwt>
<rscale>  0 0.92536554E+02</rscale>
<asrwt>0</asrwt>
<pdfrwt beam="1">  1        2 0.19804176E+00 0.92536554E+02</pdfrwt>
<pdfrwt beam="2">  1       -2 0.25584867E-03 0.92536554E+02</pdfrwt>
<totfact> 0.23673572E+05</totfact>
</mgrwt>
</event>
<event>
 5    1  0.4006808E+001  0.6785565E+02  0.7546771E-02  0.1367541E+00
          2   -1    0    0  501    0  0.00000000000E+00  0.00000000000E+00  0.67206106702E+03  0.67206106702E+03  0.00000000000E+00 0. -1.
         -2   -1    0    0    0  501 -0.00000000000E+00 -0.00000000000E+00 -0.17127866637E+01  0.17127866637E+01  0.00000000000E+00 0.  1.
         23    2    1    2    0    0  0.00000000000E+00  0.00000000000E+00  0.67034828035E+03  0.67377385368E+03  0.67855647747E+02 0.  0.
          2    1    3    3  502    0 -0.23644449752E+02 -0.18736623907E+02  0.48931408065E+03  0.49024319536E+03  0.00000000000E+00 0. -1.
         -2    1    3    3    0  502  0.23644449752E+02  0.18736623907E+02  0.18103419970E+03  0.18353065832E+03  0.00000000000E+00 0.  1.
<mgrwt>
<rscale>  0 0.67855648E+02</rscale>
<asrwt>0</asrwt>
<pdfrwt beam="1">  1        2 0.10339380E+00 0.67855648E+02</pdfrwt>
<pdfrwt beam="2">  1       -2 0.26350618E-03 0.67855648E+02</pdfrwt>
<totfact> 0.50596087E+05</totfact>
</mgrwt>
</event>
<event>
 5    1  0.4006808E+001  0.9488854E+02  0.7546771E-02  0.1291427E+00
         -2   -1    0    0    0  501 -0.00000000000E+00  0.00000000000E+00  0.13371386453E+02  0.13371386453E+02  0.00000000000E+00 0. -1.
          2   -1    0    0  501    0  0.00000000000E+00 -0.00000000000E+00 -0.16834146073E+03  0.16834146073E+03  0.00000000000E+00 0.  1.
         23    2    1    2    0    0  0.00000000000E+00  0.00000000000E+00 -0.15497007427E+03  0.18171284718E+03  0.94888539402E+02 0.  0.
          2    1    3    3  502    0 -0.22749520139E+02  0.47766767526E+01  0.17188115904E+01  0.23309045898E+02  0.00000000000E+00 0. -1.
         -2    1    3    3    0  502  0.22749520139E+02 -0.47766767526E+01 -0.15668888586E+03  0.15840380128E+03  0.00000000000E+00 0.  1.
<mgrwt>
<rscale>  0 0.94888539E+02</rscale>
<asrwt>0</asrwt>
<pdfrwt beam="2">  1        2 0.25898685E-01 0.94888539E+02</pdfrwt>
<pdfrwt beam="1">  1       -2 0.20571365E-02 0.94888539E+02</pdfrwt>
<totfact> 0.13055014E+05</totfact>
</mgrwt>
</event>
<event>
 5    1  0.4006808E+001  0.9225071E+02  0.7546771E-02  0.1297491E+00
         -4   -1    0    0    0  501 -0.00000000000E+00  0.00000000000E+00  0.64700473987E+02  0.64700473987E+02  0.00000000000E+00 0.  1.
          4   -1    0    0  501    0  0.00000000000E+00 -0.00000000000E+00 -0.32883042698E+02  0.32883042698E+02  0.00000000000E+00 0. -1.
         23    2    1    2    0    0  0.00000000000E+00  0.00000000000E+00  0.31817431289E+02  0.97583516686E+02  0.92250711623E+02 0.  0.
          2    1    3    3  502    0 -0.23607031982E+02 -0.23960258620E+02 -0.17477856666E+02  0.37905955017E+02  0.00000000000E+00 0. -1.
         -2    1    3    3    0  502  0.23607031982E+02  0.23960258620E+02  0.49295287955E+02  0.59677561668E+02  0.00000000000E+00 0.  1.
<mgrwt>
<rscale>  0 0.92250712E+02</rscale>
<asrwt>0</asrwt>
<pdfrwt beam="2">  1        4 0.50589297E-02 0.92250712E+02</pdfrwt>
<pdfrwt beam="1">  1       -4 0.99539191E-02 0.92250712E+02</pdfrwt>
<totfact> 0.25774967E+04</totfact>
</mgrwt>
</event>
<event>
 5    1  0.4006808E+001  0.9012834E+02  0.7546771E-02  0.1302541E+00
          2   -1    0    0  501    0  0.00000000000E+00  0.00000000000E+00  0.10571220301E+02  0.10571220301E+02  0.00000000000E+00 0. -1.
         -2   -1    0    0    0  501 -0.00000000000E+00 -0.00000000000E+00 -0.19210454423E+03  0.19210454423E+03  0.00000000000E+00 0.  1.
         23    2    1    2    0    0  0.00000000000E+00  0.00000000000E+00 -0.18153332393E+03  0.20267576453E+03  0.90128340887E+02 0.  0.
          2    1    3    3  502    0 -0.44163410791E+02 -0.68465199005E+01 -0.10378178846E+03  0.11299531541E+03  0.00000000000E+00 0. -1.
         -2    1    3    3    0  502  0.44163410791E+02  0.68465199005E+01 -0.77751535466E+02  0.89680449123E+02  0.00000000000E+00 0.  1.
<mgrwt>
<rscale>  0 0.90128341E+02</rscale>
<asrwt>0</asrwt>
<pdfrwt beam="1">  1        2 0.16263416E-02 0.90128341E+02</pdfrwt>
<pdfrwt beam="2">  1       -2 0.29554545E-01 0.90128341E+02</pdfrwt>
<totfact> 0.65298797E+04</totfact>
</mgrwt>
</event>
<event>
 5    1  0.4006808E+001  0.8994753E+02  0.7546771E-02  0.1302979E+00
          3   -1    0    0  501    0  0.00000000000E+00  0.00000000000E+00  0.29096876621E+01  0.29096876621E+01  0.00000000000E+00 0.  1.
         -3   -1    0    0    0  501 -0.00000000000E+00 -0.00000000000E+00 -0.69513980502E+03  0.69513980502E+03  0.00000000000E+00 0. -1.
         23    2    1    2    0    0  0.00000000000E+00  0.00000000000E+00 -0.69223011736E+03  0.69804949268E+03  0.89947533909E+02 0.  0.
          2    1    3    3  502    0 -0.30097485662E+02  0.28719028567E+00 -0.60545233144E+03  0.60620002208E+03  0.00000000000E+00 0. -1.
         -2    1    3    3    0  502  0.30097485662E+02 -0.28719028567E+00 -0.86777785920E+02  0.91849470606E+02  0.00000000000E+00 0.  1.
<mgrwt>
<rscale>  0 0.89947534E+02</rscale>
<asrwt>0</asrwt>
<pdfrwt beam="1">  1        3 0.44764448E-03 0.89947534E+02</pdfrwt>
<pdfrwt beam="2">  1       -3 0.10694453E+00 0.89947534E+02</pdfrwt>
<totfact> 0.14431387E+04</totfact>
</mgrwt>
</event>
<event>
 5    1  0.4006808E+001  0.9747262E+02  0.7546771E-02  0.1285702E+00
          1   -1    0    0  501    0  0.00000000000E+00  0.00000000000E+00  0.17735683728E+04  0.17735683728E+04  0.00000000000E+00 0. -1.
         -1   -1    0    0    0  501 -0.00000000000E+00 -0.00000000000E+00 -0.13392366729E+01  0.13392366729E+01  0.00000000000E+00 0.  1.
         23    2    1    2    0    0  0.00000000000E+00  0.00000000000E+00  0.17722291361E+04  0.17749076095E+04  0.97472617832E+02 0.  0.
          2    1    3    3  502    0  0.42916256381E+02  0.11885346379E+02  0.52551476887E+03  0.52739817863E+03  0.00000000000E+00 0. -1.
         -2    1    3    3    0  502 -0.42916256381E+02 -0.11885346379E+02  0.12467143673E+04  0.12475094308E+04  0.00000000000E+00 0.  1.
<mgrwt>
<rscale>  0 0.97472618E+02</rscale>
<asrwt>0</asrwt>
<pdfrwt beam="1">  1        1 0.27285479E+00 0.97472618E+02</pdfrwt>
<pdfrwt beam="2">  1       -1 0.20603783E-03 0.97472618E+02</pdfrwt>
<totfact> 0.78389521E+04</totfact>
</mgrwt>
</event>
<event>
 5    1  0.4006808E+001  0.9234583E+02  0.7546771E-02  0.1297268E+00
         -2   -1    0    0    0  501 -0.00000000000E+00  0.00000000000E+00  0.90940378797E+00  0.90940378797E+00  0.00000000000E+00 0.  1.
          2   -1    0    0  501    0  0.00000000000E+00 -0.00000000000E+00 -0.23443252658E+04  0.23443252658E+04  0.00000000000E+00 0. -1.
         23    2    1    2    0    0  0.00000000000E+00  0.00000000000E+00 -0.23434158620E+04  0.23452346695E+04  0.92345834273E+02 0.  0.
          2    1    3    3  502    0  0.15339083595E+02  0.41835628787E+02 -0.14790241240E+04  0.14796951938E+04  0.00000000000E+00 0. -1.
         -2    1    3    3    0  502 -0.15339083595E+02 -0.41835628787E+02 -0.86439173799E+03  0.86553947572E+03  0.00000000000E+00 0.  1.
<mgrwt>
<rscale>  0 0.92345834E+02</rscale>
<asrwt>0</asrwt>
<pdfrwt beam="2">  1        2 0.36066361E+00 0.92345834E+02</pdfrwt>
<pdfrwt beam="1">  1       -2 0.13990898E-03 0.92345834E+02</pdfrwt>
<totfact> 0.15836900E+05</totfact>
</mgrwt>
</event>
<event>
 5    1  0.4006808E+001  0.9315799E+02  0.7546771E-02  0.1295379E+00
         -1   -1    0    0    0  501 -0.00000000000E+00  0.00000000000E+00  0.92835389058E+00  0.92835389058E+00  0.00000000000E+00 0.  1.
          1   -1    0    0  501    0  0.00000000000E+00 -0.00000000000E+00 -0.23370429815E+04  0.23370429815E+04  0.00000000000E+00 0. -1.
         23    2    1    2    0    0  0.00000000000E+00  0.00000000000E+00 -0.23361146276E+04  0.23379713354E+04  0.93157993631E+02 0.  0.
          2    1    3    3  502    0  0.25865033760E+01 -0.45033673879E+02 -0.14595278800E+04  0.14602247615E+04  0.00000000000E+00 0. -1.
         -2    1    3    3    0  502 -0.25865033760E+01  0.45033673879E+02 -0.87658674766E+03  0.87774657388E+03  0.00000000000E+00 0.  1.
<mgrwt>
<rscale>  0 0.93157994E+02</rscale>
<asrwt>0</asrwt>
<pdfrwt beam="2">  1        1 0.35953983E+00 0.93157994E+02</pdfrwt>
<pdfrwt beam="1">  1       -1 0.14282576E-03 0.93157994E+02</pdfrwt>
<totfact> 0.57229285E+04</totfact>
</mgrwt>
</event>
<event>
 5    1  0.4006808E+001  0.9100606E+02  0.7546771E-02  0.1300434E+00
          1   -1    0    0  501    0  0.00000000000E+00  0.00000000000E+00  0.19522326659E+03  0.19522326659E+03  0.00000000000E+00 0. -1.
         -1   -1    0    0    0  501 -0.00000000000E+00 -0.00000000000E+00 -0.10605936218E+02  0.10605936218E+02  0.00000000000E+00 0.  1.
         23    2    1    2    0    0  0.00000000000E+00  0.00000000000E+00  0.18461733038E+03  0.20582920281E+03  0.91006055046E+02 0.  0.
          2    1    3    3  502    0  0.32238225843E+02 -0.26983487905E+02  0.13168537979E+03  0.13823332115E+03  0.00000000000E+00 0. -1.
         -2    1    3    3    0  502 -0.32238225843E+02  0.26983487905E+02  0.52931950584E+02  0.67595881662E+02  0.00000000000E+00 0.  1.
<mgrwt>
<rscale>  0 0.91006055E+02</rscale>
<asrwt>0</asrwt>
<pdfrwt beam="1">  1        1 0.30034346E-01 0.91006055E+02</pdfrwt>
<pdfrwt beam="2">  1       -1 0.16316826E-02 0.91006055E+02</pdfrwt>
<totfact> 0.11844753E+05</totfact>
</mgrwt>
</event>
<event>
 5    1  0.4006808E+001  0.9126406E+02  0.7546771E-02  0.1299819E+00
          2   -1    0    0  501    0  0.00000000000E+00  0.00000000000E+00  0.13941160814E+02  0.13941160814E+02  0.00000000000E+00 0.  1.
         -2   -1    0    0    0  501 -0.00000000000E+00 -0.00000000000E+00 -0.14936219057E+03  0.14936219057E+03  0.00000000000E+00 0. -1.
         23    2    1    2    0    0  0.00000000000E+00  0.00000000000E+00 -0.13542102975E+03  0.16330335138E+03  0.91264063427E+02 0.  0.
          2    1    3    3  502    0 -0.31018418318E+01 -0.26306314749E+02 -0.13419729753E+03  0.13678654277E+03  0.00000000000E+00 0. -1.
         -2    1    3    3    0  502  0.31018418318E+01  0.26306314749E+02 -0.12237322231E+01  0.26516808612E+02  0.00000000000E+00 0.  1.
<mgrwt>
<rscale>  0 0.91264063E+02</rscale>
<asrwt>0</asrwt>
<pdfrwt beam="1">  1        2 0.21447941E-02 0.91264063E+02</pdfrwt>
<pdfrwt beam="2">  1       -2 0.22978797E-01 0.91264063E+02</pdfrwt>
<totfact> 0.69795594E+04</totfact>
</mgrwt>
</event>
<event>
 5    1  0.4006808E+001  0.9088434E+02  0.7546771E-02  0.1300724E+00
          2   -1    0    0  501    0  0.00000000000E+00  0.00000000000E+00  0.66781456749E+02  0.66781456749E+02  0.00000000000E+00 0.  1.
         -2   -1    0    0    0  501 -0.00000000000E+00 -0.00000000000E+00 -0.30921619024E+02  0.30921619024E+02  0.00000000000E+00 0. -1.
         23    2    1    2    0    0  0.00000000000E+00  0.00000000000E+00  0.35859837725E+02  0.97703075773E+02  0.90884338881E+02 0.  0.
          2    1    3    3  502    0 -0.19903333754E+02 -0.14176582655E+02 -0.23257384776E+02  0.33734613336E+02  0.00000000000E+00 0. -1.
         -2    1    3    3    0  502  0.19903333754E+02  0.14176582655E+02  0.59117222501E+02  0.63968462437E+02  0.00000000000E+00 0.  1.
<mgrwt>
<rscale>  0 0.90884339E+02</rscale>
<asrwt>0</asrwt>
<pdfrwt beam="1">  1        2 0.10274070E-01 0.90884339E+02</pdfrwt>
<pdfrwt beam="2">  1       -2 0.47571722E-02 0.90884339E+02</pdfrwt>
<totfact> 0.11018206E+05</totfact>
</mgrwt>
</event>
<event>
 5    1  0.4006808E+001  0.9098296E+02  0.7546771E-02  0.1300489E+00
          2   -1    0    0  501    0  0.00000000000E+00  0.00000000000E+00  0.14848944737E+04  0.14848944737E+04  0.00000000000E+00 0. -1.
         -2   -1    0    0    0  501 -0.00000000000E+00 -0.00000000000E+00 -0.13936847057E+01  0.13936847057E+01  0.00000000000E+00 0.  1.
         23    2    1    2    0    0  0.00000000000E+00  0.00000000000E+00  0.14835007890E+04  0.14862881584E+04  0.90982959230E+02 0.  0.
          2    1    3    3  502    0  0.34221604436E+02 -0.73262236115E+01  0.26697322740E+03  0.26925730429E+03  0.00000000000E+00 0. -1.
         -2    1    3    3    0  502 -0.34221604436E+02  0.73262236115E+01  0.12165275616E+04  0.12170308541E+04  0.00000000000E+00 0.  1.
<mgrwt>
<rscale>  0 0.90982959E+02</rscale>
<asrwt>0</asrwt>
<pdfrwt beam="1">  1        2 0.22844404E+00 0.90982959E+02</pdfrwt>
<pdfrwt beam="2">  1       -2 0.21441422E-03 0.90982959E+02</pdfrwt>
<totfact> 0.23818476E+05</totfact>
</mgrwt>
</event>
<event>
 5    1  0.4006808E+001  0.9732261E+02  0.7546771E-02  0.1286029E+00
          1   -1    0    0  501    0  0.00000000000E+00  0.00000000000E+00  0.10651265416E+04  0.10651265416E+04  0.00000000000E+00 0. -1.
         -1   -1    0    0    0  501 -0.00000000000E+00 -0.00000000000E+00 -0.22231372218E+01  0.22231372218E+01  0.00000000000E+00 0.  1.
         23    2    1    2    0    0  0.00000000000E+00  0.00000000000E+00  0.10629034044E+04  0.10673496788E+04  0.97322607046E+02 0.  0.
          2    1    3    3  502    0  0.24801202935E+02  0.33241980431E+02  0.25231863175E+03  0.25570455776E+03  0.00000000000E+00 0.  1.
         -2    1    3    3    0  502 -0.24801202935E+02 -0.33241980431E+02  0.81058477263E+03  0.81164512107E+03  0.00000000000E+00 0. -1.
<mgrwt>
<rscale>  0 0.97322607E+02</rscale>
<asrwt>0</asrwt>
<pdfrwt beam="1">  1        1 0.16386521E+00 0.97322607E+02</pdfrwt>
<pdfrwt beam="2">  1       -1 0.34202196E-03 0.97322607E+02</pdfrwt>
<totfact> 0.11228394E+05</totfact>
</mgrwt>
</event>
<event>
 5    1  0.4006808E+001  0.9298965E+02  0.7546771E-02  0.1295769E+00
         -2   -1    0    0    0  501 -0.00000000000E+00  0.00000000000E+00  0.23566882854E+02  0.23566882854E+02  0.00000000000E+00 0. -1.
          2   -1    0    0  501    0  0.00000000000E+00 -0.00000000000E+00 -0.91729089662E+02  0.91729089662E+02  0.00000000000E+00 0.  1.
         23    2    1    2    0    0  0.00000000000E+00  0.00000000000E+00 -0.68162206809E+02  0.11529597252E+03  0.92989649109E+02 0.  0.
          2    1    3    3  502    0 -0.43313876045E+02  0.12305718351E+02 -0.19715282601E+02  0.49155009207E+02  0.00000000000E+00 0.  1.
         -2    1    3    3    0  502  0.43313876045E+02 -0.12305718351E+02 -0.48446924208E+02  0.66140963309E+02  0.00000000000E+00 0. -1.
<mgrwt>
<rscale>  0 0.92989649E+02</rscale>
<asrwt>0</asrwt>
<pdfrwt beam="2">  1        2 0.14112167E-01 0.92989649E+02</pdfrwt>
<pdfrwt beam="1">  1       -2 0.36256743E-02 0.92989649E+02</pdfrwt>
<totfact> 0.11318854E+05</totfact>
</mgrwt>
</event>
<event>
 5    1  0.4006808E+001  0.9166267E+02  0.7546771E-02  0.1298875E+00
          1   -1    0    0  501    0  0.00000000000E+00  0.00000000000E+00  0.20361414091E+02  0.20361414091E+02  0.00000000000E+00 0. -1.
         -1   -1    0    0    0  501 -0.00000000000E+00 -0.00000000000E+00 -0.10316136819E+03  0.10316136819E+03  0.00000000000E+00 0.  1.
         23    2    1    2    0    0  0.00000000000E+00  0.00000000000E+00 -0.82799954099E+02  0.12352278228E+03  0.91662671483E+02 0.  0.
          2    1    3    3  502    0  0.23063600206E+02 -0.34063456014E+02 -0.68628518473E+02  0.80013262887E+02  0.00000000000E+00 0. -1.
         -2    1    3    3    0  502 -0.23063600206E+02  0.34063456014E+02 -0.14171435626E+02  0.43509519393E+02  0.00000000000E+00 0.  1.
<mgrwt>
<rscale>  0 0.91662671E+02</rscale>
<asrwt>0</asrwt>
<pdfrwt beam="1">  1        1 0.31325254E-02 0.91662671E+02</pdfrwt>
<pdfrwt beam="2">  1       -1 0.15870979E-01 0.91662671E+02</pdfrwt>
<totfact> 0.79795860E+04</totfact>
</mgrwt>
</event>
<event>
 5    1  0.4006808E+001  0.9005235E+02  0.7546771E-02  0.1302725E+00
         -3   -1    0    0    0  501 -0.00000000000E+00  0.00000000000E+00  0.12459385445E+02  0.12459385445E+02  0.00000000000E+00 0.  1.
          3   -1    0    0  501    0  0.00000000000E+00 -0.00000000000E+00 -0.16271720601E+03  0.16271720601E+03  0.00000000000E+00 0. -1.
         23    2    1    2    0    0  0.00000000000E+00  0.00000000000E+00 -0.15025782056E+03  0.17517659145E+03  0.90052348956E+02 0.  0.
          2    1    3    3  502    0  0.17079831703E+02 -0.37910691715E+02 -0.10873295002E+03  0.11641217985E+03  0.00000000000E+00 0. -1.
         -2    1    3    3    0  502 -0.17079831703E+02  0.37910691715E+02 -0.41524870541E+02  0.58764411601E+02  0.00000000000E+00 0.  1.
<mgrwt>
<rscale>  0 0.90052349E+02</rscale>
<asrwt>0</asrwt>
<pdfrwt beam="2">  1        3 0.25033415E-01 0.90052349E+02</pdfrwt>
<pdfrwt beam="1">  1       -3 0.19168286E-02 0.90052349E+02</pdfrwt>
<totfact> 0.30849519E+04</totfact>
</mgrwt>
</event>
<event>
 5    1  0.4006808E+001  0.9571081E+02  0.7546771E-02  0.1289583E+00
         -1   -1    0    0    0  501 -0.00000000000E+00  0.00000000000E+00  0.10770082724E+04  0.10770082724E+04  0.00000000000E+00 0.  1.
          1   -1    0    0  501    0  0.00000000000E+00 -0.00000000000E+00 -0.21263900145E+01  0.21263900145E+01  0.00000000000E+00 0. -1.
         23    2    1    2    0    0  0.00000000000E+00  0.00000000000E+00  0.10748818823E+04  0.10791346624E+04  0.95710806826E+02 0.  0.
          2    1    3    3  502    0 -0.26977561458E+01 -0.47431033068E+02  0.47251557712E+03  0.47489783260E+03  0.00000000000E+00 0. -1.
         -2    1    3    3    0  502  0.26977561458E+01  0.47431033068E+02  0.60236630522E+03  0.60423682977E+03  0.00000000000E+00 0.  1.
<mgrwt>
<rscale>  0 0.95710807E+02</rscale>
<asrwt>0</asrwt>
<pdfrwt beam="2">  1        1 0.32713778E-03 0.95710807E+02</pdfrwt>
<pdfrwt beam="1">  1       -1 0.16569315E+00 0.95710807E+02</pdfrwt>
<totfact> 0.20550328E+04</totfact>
</mgrwt>
</event>
<event>
 5    1  0.4006808E+001  0.8859513E+02  0.7546771E-02  0.1306290E+00
         -1   -1    0    0    0  501 -0.00000000000E+00  0.00000000000E+00  0.22135757484E+02  0.22135757484E+02  0.00000000000E+00 0.  1.
          1   -1    0    0  501    0  0.00000000000E+00 -0.00000000000E+00 -0.88647263860E+02  0.88647263860E+02  0.00000000000E+00 0. -1.
         23    2    1    2    0    0  0.00000000000E+00  0.00000000000E+00 -0.66511506376E+02  0.11078302134E+03  0.88595131569E+02 0.  0.
          2    1    3    3  502    0  0.22418819441E+02 -0.25613650383E+02  0.21918190303E+01  0.34109626526E+02  0.00000000000E+00 0. -1.
         -2    1    3    3    0  502 -0.22418819441E+02  0.25613650383E+02 -0.68703325406E+02  0.76673394818E+02  0.00000000000E+00 0.  1.
<mgrwt>
<rscale>  0 0.88595132E+02</rscale>
<asrwt>0</asrwt>
<pdfrwt beam="2">  1        1 0.13638041E-01 0.88595132E+02</pdfrwt>
<pdfrwt beam="1">  1       -1 0.34055012E-02 0.88595132E+02</pdfrwt>
<totfact> 0.11075763E+05</totfact>
</mgrwt>
</event>
<event>
 5    1  0.4006808E+001  0.9010071E+02  0.7546771E-02  0.1302608E+00
         -2   -1    0    0    0  501 -0.00000000000E+00  0.00000000000E+00  0.11506192612E+02  0.11506192612E+02  0.00000000000E+00 0.  1.
          2   -1    0    0  501    0  0.00000000000E+00 -0.00000000000E+00 -0.17638626895E+03  0.17638626895E+03  0.00000000000E+00 0. -1.
         23    2    1    2    0    0  0.00000000000E+00  0.00000000000E+00 -0.16488007633E+03  0.18789246156E+03  0.90100707757E+02 0.  0.
          2    1    3    3  502    0  0.11496030982E+02  0.21627223340E+02 -0.16128869996E+03  0.16313779529E+03  0.00000000000E+00 0. -1.
         -2    1    3    3    0  502 -0.11496030982E+02 -0.21627223340E+02 -0.35913763755E+01  0.24754666268E+02  0.00000000000E+00 0.  1.
<mgrwt>
<rscale>  0 0.90100708E+02</rscale>
<asrwt>0</asrwt>
<pdfrwt beam="2">  1        2 0.27136347E-01 0.90100708E+02</pdfrwt>
<pdfrwt beam="1">  1       -2 0.17701836E-02 0.90100708E+02</pdfrwt>
<totfact> 0.15269326E+05</totfact>
</mgrwt>
</event>
<event>
 5    1  0.4006808E+001  0.9127043E+02  0.7546771E-02  0.1299804E+00
         -1   -1    0    0    0  501 -0.00000000000E+00  0.00000000000E+00  0.76379575431E+01  0.76379575431E+01  0.00000000000E+00 0.  1.
          1   -1    0    0  501    0  0.00000000000E+00 -0.00000000000E+00 -0.27266097436E+03  0.27266097436E+03  0.00000000000E+00 0. -1.
         23    2    1    2    0    0  0.00000000000E+00  0.00000000000E+00 -0.26502301681E+03  0.28029893190E+03  0.91270432141E+02 0.  0.
          2    1    3    3  502    0 -0.29705366558E+02 -0.29613835956E+01 -0.26508277061E+02  0.39923268251E+02  0.00000000000E+00 0.  1.
         -2    1    3    3    0  502  0.29705366558E+02  0.29613835956E+01 -0.23851473975E+03  0.24037566365E+03  0.00000000000E+00 0. -1.
<mgrwt>
<rscale>  0 0.91270432E+02</rscale>
<asrwt>0</asrwt>
<pdfrwt beam="2">  1        1 0.41947842E-01 0.91270432E+02</pdfrwt>
<pdfrwt beam="1">  1       -1 0.11750704E-02 0.91270432E+02</pdfrwt>
<totfact> 0.12543834E+05</totfact>
</mgrwt>
</event>
<event>
 5    1  0.4006808E+001  0.9025295E+02  0.7546771E-02  0.1302240E+00
         -3   -1    0    0    0  501 -0.00000000000E+00  0.00000000000E+00  0.29547271173E+01  0.29547271173E+01  0.00000000000E+00 0.  1.
          3   -1    0    0  501    0  0.00000000000E+00 -0.00000000000E+00 -0.68920022972E+03  0.68920022972E+03  0.00000000000E+00 0. -1.
         23    2    1    2    0    0  0.00000000000E+00  0.00000000000E+00 -0.68624550260E+03  0.69215495684E+03  0.90252946944E+02 0.  0.
          2    1    3    3  502    0  0.23893234930E+02 -0.77178752097E+01 -0.55564182144E+02  0.60974015864E+02  0.00000000000E+00 0.  1.
         -2    1    3    3    0  502 -0.23893234930E+02  0.77178752097E+01 -0.63068132046E+03  0.63118094097E+03  0.00000000000E+00 0. -1.
<mgrwt>
<rscale>  0 0.90252947E+02</rscale>
<asrwt>0</asrwt>
<pdfrwt beam="2">  1        3 0.10603085E+00 0.90252947E+02</pdfrwt>
<pdfrwt beam="1">  1       -3 0.45457321E-03 0.90252947E+02</pdfrwt>
<totfact> 0.14434910E+04</totfact>
</mgrwt>
</event>
<event>
 5    1  0.4006808E+001  0.9176353E+02  0.7546771E-02  0.1298636E+00
          2   -1    0    0  501    0  0.00000000000E+00  0.00000000000E+00  0.87511317070E+02  0.87511317070E+02  0.00000000000E+00 0. -1.
         -2   -1    0    0    0  501 -0.00000000000E+00 -0.00000000000E+00 -0.24055588038E+02  0.24055588038E+02  0.00000000000E+00 0.  1.
         23    2    1    2    0    0  0.00000000000E+00  0.00000000000E+00  0.63455729032E+02  0.11156690511E+03  0.91763526352E+02 0.  0.
          2    1    3    3  502    0  0.39513130674E+02 -0.20780238212E+02  0.44596521575E+02  0.63102737915E+02  0.00000000000E+00 0. -1.
         -2    1    3    3    0  502 -0.39513130674E+02  0.20780238212E+02  0.18859207457E+02  0.48464167193E+02  0.00000000000E+00 0.  1.
<mgrwt>
<rscale>  0 0.91763526E+02</rscale>
<asrwt>0</asrwt>
<pdfrwt beam="1">  1        2 0.13463279E-01 0.91763526E+02</pdfrwt>
<pdfrwt beam="2">  1       -2 0.37008597E-02 0.91763526E+02</pdfrwt>
<totfact> 0.11580316E+05</totfact>
</mgrwt>
</event>
<event>
 5    1  0.4006808E+001  0.9056651E+02  0.7546771E-02  0.1301486E+00
         -2   -1    0    0    0  501 -0.00000000000E+00  0.00000000000E+00  0.28453171974E+02  0.28453171974E+02  0.00000000000E+00 0.  1.
          2   -1    0    0  501    0  0.00000000000E+00 -0.00000000000E+00 -0.72068353132E+02  0.72068353132E+02  0.00000000000E+00 0. -1.
         23    2    1    2    0    0  0.00000000000E+00  0.00000000000E+00 -0.43615181158E+02  0.10052152511E+03  0.90566511372E+02 0.  0.
          2    1    3    3  502    0  0.19957380199E+00 -0.39424650311E+02  0.29172270766E+01  0.39532936846E+02  0.00000000000E+00 0.  1.
         -2    1    3    3    0  502 -0.19957380199E+00  0.39424650311E+02 -0.46532408234E+02  0.60988588260E+02  0.00000000000E+00 0. -1.
<mgrwt>
<rscale>  0 0.90566511E+02</rscale>
<asrwt>0</asrwt>
<pdfrwt beam="2">  1        2 0.11087439E-01 0.90566511E+02</pdfrwt>
<pdfrwt beam="1">  1       -2 0.43774112E-02 0.90566511E+02</pdfrwt>
<totfact> 0.11362842E+05</totfact>
</mgrwt>
</event>
<event>
 5    1  0.4006808E+001  0.9054810E+02  0.7546771E-02  0.1301530E+00
         -2   -1    0    0    0  501 -0.00000000000E+00  0.00000000000E+00  0.75488647322E+01  0.75488647322E+01  0.00000000000E+00 0.  1.
          2   -1    0    0  501    0  0.00000000000E+00 -0.00000000000E+00 -0.27152951717E+03  0.27152951717E+03  0.00000000000E+00 0. -1.
         23    2    1    2    0    0  0.00000000000E+00  0.00000000000E+00 -0.26398065244E+03  0.27907838190E+03  0.90548099835E+02 0.  0.
          2    1    3    3  502    0 -0.20073780557E+02 -0.29003251690E+02 -0.21946957671E+03  0.22228594282E+03  0.00000000000E+00 0. -1.
         -2    1    3    3    0  502  0.20073780557E+02  0.29003251690E+02 -0.44511075732E+02  0.56792439085E+02  0.00000000000E+00 0.  1.
<mgrwt>
<rscale>  0 0.90548100E+02</rscale>
<asrwt>0</asrwt>
<pdfrwt beam="2">  1        2 0.41773769E-01 0.90548100E+02</pdfrwt>
<pdfrwt beam="1">  1       -2 0.11613639E-02 0.90548100E+02</pdfrwt>
<totfact> 0.17633057E+05</totfact>
</mgrwt>
</event>
<event>
 5    1  0.4006808E+001  0.9176878E+02  0.7546771E-02  0.1298624E+00
         -2   -1    0    0    0  501 -0.00000000000E+00  0.00000000000E+00  0.28768709501E+02  0.28768709501E+02  0.00000000000E+00 0.  1.
          2   -1    0    0  501    0  0.00000000000E+00 -0.00000000000E+00 -0.73182893100E+02  0.73182893100E+02  0.00000000000E+00 0. -1.
         23    2    1    2    0    0  0.00000000000E+00  0.00000000000E+00 -0.44414183600E+02  0.10195160260E+03  0.91768783189E+02 0.  0.
          2    1    3    3  502    0  0.15849767409E+02  0.35810514882E+02  0.43578883726E+01  0.39403036610E+02  0.00000000000E+00 0. -1.
         -2    1    3    3    0  502 -0.15849767409E+02 -0.35810514882E+02 -0.48772071972E+02  0.62548565991E+02  0.00000000000E+00 0.  1.
<mgrwt>
<rscale>  0 0.91768783E+02</rscale>
<asrwt>0</asrwt>
<pdfrwt beam="2">  1        2 0.11258907E-01 0.91768783E+02</pdfrwt>
<pdfrwt beam="1">  1       -2 0.44259553E-02 0.91768783E+02</pdfrwt>
<totfact> 0.10998982E+05</totfact>
</mgrwt>
</event>
<event>
 5    1  0.4006808E+001  0.9120803E+02  0.7546771E-02  0.1299952E+00
         -1   -1    0    0    0  501 -0.00000000000E+00  0.00000000000E+00  0.36230045199E+03  0.36230045199E+03  0.00000000000E+00 0.  1.
          1   -1    0    0  501    0  0.00000000000E+00 -0.00000000000E+00 -0.57403356974E+01  0.57403356974E+01  0.00000000000E+00 0. -1.
         23    2    1    2    0    0  0.00000000000E+00  0.00000000000E+00  0.35656011629E+03  0.36804078769E+03  0.91208030738E+02 0.  0.
          2    1    3    3  502    0 -0.28715441888E+02 -0.26540788878E+02  0.83583398264E+02  0.92277703387E+02  0.00000000000E+00 0. -1.
         -2    1    3    3    0  502  0.28715441888E+02  0.26540788878E+02  0.27297671803E+03  0.27576308430E+03  0.00000000000E+00 0.  1.
<mgrwt>
<rscale>  0 0.91208031E+02</rscale>
<asrwt>0</asrwt>
<pdfrwt beam="2">  1        1 0.88312885E-03 0.91208031E+02</pdfrwt>
<pdfrwt beam="1">  1       -1 0.55738513E-01 0.91208031E+02</pdfrwt>
<totfact> 0.55851879E+04</totfact>
</mgrwt>
</event>
<event>
 5    1  0.4006808E+001  0.9858293E+02  0.7546771E-02  0.1283304E+00
          2   -1    0    0  501    0  0.00000000000E+00  0.00000000000E+00  0.81707832363E+03  0.81707832363E+03  0.00000000000E+00 0. -1.
         -2   -1    0    0    0  501 -0.00000000000E+00 -0.00000000000E+00 -0.29735809528E+01  0.29735809528E+01  0.00000000000E+00 0.  1.
         23    2    1    2    0    0  0.00000000000E+00  0.00000000000E+00  0.81410474268E+03  0.82005190458E+03  0.98582930371E+02 0.  0.
          2    1    3    3  502    0  0.35684850486E+02  0.33053463574E+02  0.34065690645E+03  0.34411199909E+03  0.00000000000E+00 0. -1.
         -2    1    3    3    0  502 -0.35684850486E+02 -0.33053463574E+02  0.47344783623E+03  0.47593990549E+03  0.00000000000E+00 0.  1.
<mgrwt>
<rscale>  0 0.98582930E+02</rscale>
<asrwt>0</asrwt>
<pdfrwt beam="1">  1        2 0.12570418E+00 0.98582930E+02</pdfrwt>
<pdfrwt beam="2">  1       -2 0.45747464E-03 0.98582930E+02</pdfrwt>
<totfact> 0.19895693E+05</totfact>
</mgrwt>
</event>
<event>
 5    1  0.4006808E+001  0.8720580E+02  0.7546771E-02  0.1309763E+00
          1   -1    0    0  501    0  0.00000000000E+00  0.00000000000E+00  0.49495628146E+01  0.49495628146E+01  0.00000000000E+00 0. -1.
         -1   -1    0    0    0  501 -0.00000000000E+00 -0.00000000000E+00 -0.38411737468E+03  0.38411737468E+03  0.00000000000E+00 0.  1.
         23    2    1    2    0    0  0.00000000000E+00  0.00000000000E+00 -0.37916781187E+03  0.38906693750E+03  0.87205804260E+02 0.  0.
          2    1    3    3  502    0 -0.43213359226E+02 -0.55865281707E+01 -0.18237704625E+03  0.18750997497E+03  0.00000000000E+00 0. -1.
         -2    1    3    3    0  502  0.43213359226E+02  0.55865281707E+01 -0.19679076561E+03  0.20155696253E+03  0.00000000000E+00 0.  1.
<mgrwt>
<rscale>  0 0.87205804E+02</rscale>
<asrwt>0</asrwt>
<pdfrwt beam="1">  1        1 0.76147109E-03 0.87205804E+02</pdfrwt>
<pdfrwt beam="2">  1       -1 0.59094989E-01 0.87205804E+02</pdfrwt>
<totfact> 0.61084032E+04</totfact>
</mgrwt>
</event>
<event>
 5    1  0.4006808E+001  0.8386586E+02  0.7546771E-02  0.1318425E+00
          2   -1    0    0  501    0  0.00000000000E+00  0.00000000000E+00  0.25236913643E+04  0.25236913643E+04  0.00000000000E+00 0. -1.
         -2   -1    0    0    0  501 -0.00000000000E+00 -0.00000000000E+00 -0.69674552077E+00  0.69674552077E+00  0.00000000000E+00 0.  1.
         23    2    1    2    0    0  0.00000000000E+00  0.00000000000E+00  0.25229946188E+04  0.25243881099E+04  0.83865860847E+02 0.  0.
          2    1    3    3  502    0  0.40716147842E+02  0.57080255191E+01  0.10133122907E+04  0.10141460372E+04  0.00000000000E+00 0.  1.
         -2    1    3    3    0  502 -0.40716147842E+02 -0.57080255191E+01  0.15096823281E+04  0.15102420726E+04  0.00000000000E+00 0. -1.
<mgrwt>
<rscale>  0 0.83865861E+02</rscale>
<asrwt>0</asrwt>
<pdfrwt beam="1">  1        2 0.38825289E+00 0.83865861E+02</pdfrwt>
<pdfrwt beam="2">  1       -2 0.10719364E-03 0.83865861E+02</pdfrwt>
<totfact> 0.18246435E+05</totfact>
</mgrwt>
</event>
<event>
 5    1  0.4006808E+001  0.8951068E+02  0.7546771E-02  0.1304041E+00
         -2   -1    0    0    0  501 -0.00000000000E+00  0.00000000000E+00  0.23530961864E+01  0.23530961864E+01  0.00000000000E+00 0.  1.
          2   -1    0    0  501    0  0.00000000000E+00 -0.00000000000E+00 -0.85123603214E+03  0.85123603214E+03  0.00000000000E+00 0. -1.
         23    2    1    2    0    0  0.00000000000E+00  0.00000000000E+00 -0.84888293595E+03  0.85358912832E+03  0.89510675585E+02 0.  0.
          2    1    3    3  502    0  0.21699144565E+02  0.35184859915E+02 -0.26087096723E+03  0.26412589571E+03  0.00000000000E+00 0.  1.
         -2    1    3    3    0  502 -0.21699144565E+02 -0.35184859915E+02 -0.58801196872E+03  0.58946323261E+03  0.00000000000E+00 0. -1.
<mgrwt>
<rscale>  0 0.89510676E+02</rscale>
<asrwt>0</asrwt>
<pdfrwt beam="2">  1        2 0.13095924E+00 0.89510676E+02</pdfrwt>
<pdfrwt beam="1">  1       -2 0.36201521E-03 0.89510676E+02</pdfrwt>
<totfact> 0.25841733E+05</totfact>
</mgrwt>
</event>
<event>
 5    1  0.4006808E+001  0.8958610E+02  0.7546771E-02  0.1303857E+00
         -3   -1    0    0    0  501 -0.00000000000E+00  0.00000000000E+00  0.10830189276E+02  0.10830189276E+02  0.00000000000E+00 0.  1.
          3   -1    0    0  501    0  0.00000000000E+00 -0.00000000000E+00 -0.18526153390E+03  0.18526153390E+03  0.00000000000E+00 0. -1.
         23    2    1    2    0    0  0.00000000000E+00  0.00000000000E+00 -0.17443134463E+03  0.19609172318E+03  0.89586103336E+02 0.  0.
          2    1    3    3  502    0 -0.38805853835E+02 -0.20311622937E+02 -0.66686847479E+02  0.79784659834E+02  0.00000000000E+00 0.  1.
         -2    1    3    3    0  502  0.38805853835E+02  0.20311622937E+02 -0.10774449715E+03  0.11630706334E+03  0.00000000000E+00 0. -1.
<mgrwt>
<rscale>  0 0.89586103E+02</rscale>
<asrwt>0</asrwt>
<pdfrwt beam="2">  1        3 0.28501772E-01 0.89586103E+02</pdfrwt>
<pdfrwt beam="1">  1       -3 0.16661831E-02 0.89586103E+02</pdfrwt>
<totfact> 0.30094648E+04</totfact>
</mgrwt>
</event>
<event>
 5    1  0.4006808E+001  0.9149815E+02  0.7546771E-02  0.1299264E+00
          3   -1    0    0  501    0  0.00000000000E+00  0.00000000000E+00  0.47479340503E+02  0.47479340503E+02  0.00000000000E+00 0. -1.
         -3   -1    0    0    0  501 -0.00000000000E+00 -0.00000000000E+00 -0.44081865662E+02  0.44081865662E+02  0.00000000000E+00 0.  1.
         23    2    1    2    0    0  0.00000000000E+00  0.00000000000E+00  0.33974748409E+01  0.91561206164E+02  0.91498151014E+02 0.  0.
          2    1    3    3  502    0  0.31753888847E+02 -0.28997636391E+02 -0.13926296507E+02  0.45200819767E+02  0.00000000000E+00 0.  1.
         -2    1    3    3    0  502 -0.31753888847E+02  0.28997636391E+02  0.17323771348E+02  0.46360386397E+02  0.00000000000E+00 0. -1.
<mgrwt>
<rscale>  0 0.91498151E+02</rscale>
<asrwt>0</asrwt>
<pdfrwt beam="1">  1        3 0.73045139E-02 0.91498151E+02</pdfrwt>
<pdfrwt beam="2">  1       -3 0.67818255E-02 0.91498151E+02</pdfrwt>
<totfact> 0.34971513E+04</totfact>
</mgrwt>
</event>
<event>
 5    1  0.4006808E+001  0.9074503E+02  0.7546771E-02  0.1301057E+00
          2   -1    0    0  501    0  0.00000000000E+00  0.00000000000E+00  0.88002429679E+03  0.88002429679E+03  0.00000000000E+00 0. -1.
         -2   -1    0    0    0  501 -0.00000000000E+00 -0.00000000000E+00 -0.23393274371E+01  0.23393274371E+01  0.00000000000E+00 0.  1.
         23    2    1    2    0    0  0.00000000000E+00  0.00000000000E+00  0.87768496935E+03  0.88236362423E+03  0.90745027033E+02 0.  0.
          2    1    3    3  502    0 -0.41961752294E+02 -0.28580842693E+01  0.60434506407E+03  0.60580682876E+03  0.00000000000E+00 0. -1.
         -2    1    3    3    0  502  0.41961752294E+02  0.28580842693E+01  0.27333990528E+03  0.27655679547E+03  0.00000000000E+00 0.  1.
<mgrwt>
<rscale>  0 0.90745027E+02</rscale>
<asrwt>0</asrwt>
<pdfrwt beam="1">  1        2 0.13538809E+00 0.90745027E+02</pdfrwt>
<pdfrwt beam="2">  1       -2 0.35989723E-03 0.90745027E+02</pdfrwt>
<totfact> 0.25039094E+05</totfact>
</mgrwt>
</event>
<event>
 5    1  0.4006808E+001  0.9047947E+02  0.7546771E-02  0.1301695E+00
         -3   -1    0    0    0  501 -0.00000000000E+00  0.00000000000E+00  0.10293454796E+03  0.10293454796E+03  0.00000000000E+00 0.  1.
          3   -1    0    0  501    0  0.00000000000E+00 -0.00000000000E+00 -0.19882864274E+02  0.19882864274E+02  0.00000000000E+00 0. -1.
         23    2    1    2    0    0  0.00000000000E+00  0.00000000000E+00  0.83051683685E+02  0.12281741223E+03  0.90479470516E+02 0.  0.
          2    1    3    3  502    0 -0.34868701697E+02  0.19402243633E+01  0.24890706360E+01  0.35011231073E+02  0.00000000000E+00 0. -1.
         -2    1    3    3    0  502  0.34868701697E+02 -0.19402243633E+01  0.80562613049E+02  0.87806181161E+02  0.00000000000E+00 0.  1.
<mgrwt>
<rscale>  0 0.90479471E+02</rscale>
<asrwt>0</asrwt>
<pdfrwt beam="2">  1        3 0.30589022E-02 0.90479471E+02</pdfrwt>
<pdfrwt beam="1">  1       -3 0.15836084E-01 0.90479471E+02</pdfrwt>
<totfact> 0.33751736E+04</totfact>
</mgrwt>
</event>
<event>
 5    1  0.4006808E+001  0.9263582E+02  0.7546771E-02  0.1296591E+00
          2   -1    0    0  501    0  0.00000000000E+00  0.00000000000E+00  0.68949266581E+03  0.68949266581E+03  0.00000000000E+00 0. -1.
         -2   -1    0    0    0  501 -0.00000000000E+00 -0.00000000000E+00 -0.31114887731E+01  0.31114887731E+01  0.00000000000E+00 0.  1.
         23    2    1    2    0    0  0.00000000000E+00  0.00000000000E+00  0.68638117703E+03  0.69260415458E+03  0.92635817885E+02 0.  0.
          2    1    3    3  502    0 -0.20957852002E+02 -0.14564770818E+02  0.63217818930E+03  0.63269315402E+03  0.00000000000E+00 0. -1.
         -2    1    3    3    0  502  0.20957852002E+02  0.14564770818E+02  0.54202987730E+02  0.59911000562E+02  0.00000000000E+00 0.  1.
<mgrwt>
<rscale>  0 0.92635818E+02</rscale>
<asrwt>0</asrwt>
<pdfrwt beam="1">  1        2 0.10607567E+00 0.92635818E+02</pdfrwt>
<pdfrwt beam="2">  1       -2 0.47869113E-03 0.92635818E+02</pdfrwt>
<totfact> 0.22659744E+05</totfact>
</mgrwt>
</event>
<event>
 5    1  0.4006808E+001  0.9513835E+02  0.7546771E-02  0.1290865E+00
          1   -1    0    0  501    0  0.00000000000E+00  0.00000000000E+00  0.14991292974E+03  0.14991292974E+03  0.00000000000E+00 0. -1.
         -1   -1    0    0    0  501 -0.00000000000E+00 -0.00000000000E+00 -0.15094270806E+02  0.15094270806E+02  0.00000000000E+00 0.  1.
         23    2    1    2    0    0  0.00000000000E+00  0.00000000000E+00  0.13481865893E+03  0.16500720054E+03  0.95138348919E+02 0.  0.
          2    1    3    3  502    0 -0.32373670571E+02 -0.16628452929E+02  0.12053572609E+03  0.12591036993E+03  0.00000000000E+00 0. -1.
         -2    1    3    3    0  502  0.32373670571E+02  0.16628452929E+02  0.14282932840E+02  0.39096830608E+02  0.00000000000E+00 0.  1.
<mgrwt>
<rscale>  0 0.95138349E+02</rscale>
<asrwt>0</asrwt>
<pdfrwt beam="1">  1        1 0.23063527E-01 0.95138349E+02</pdfrwt>
<pdfrwt beam="2">  1       -1 0.23221956E-02 0.95138349E+02</pdfrwt>
<totfact> 0.99929063E+04</totfact>
</mgrwt>
</event>
<event>
 5    1  0.4006808E+001  0.9215155E+02  0.7546771E-02  0.1297723E+00
          1   -1    0    0  501    0  0.00000000000E+00  0.00000000000E+00  0.12986150611E+03  0.12986150611E+03  0.00000000000E+00 0. -1.
         -1   -1    0    0    0  501 -0.00000000000E+00 -0.00000000000E+00 -0.16348008713E+02  0.16348008713E+02  0.00000000000E+00 0.  1.
         23    2    1    2    0    0  0.00000000000E+00  0.00000000000E+00  0.11351349739E+03  0.14620951482E+03  0.92151549814E+02 0.  0.
          2    1    3    3  502    0 -0.29372123885E+02 -0.75674068575E+01  0.11178731111E+03  0.11582914242E+03  0.00000000000E+00 0. -1.
         -2    1    3    3    0  502  0.29372123885E+02  0.75674068575E+01  0.17261862816E+01  0.30380372400E+02  0.00000000000E+00 0.  1.
<mgrwt>
<rscale>  0 0.92151550E+02</rscale>
<asrwt>0</asrwt>
<pdfrwt beam="1">  1        1 0.19978693E-01 0.92151550E+02</pdfrwt>
<pdfrwt beam="2">  1       -1 0.25150784E-02 0.92151550E+02</pdfrwt>
<totfact> 0.10614214E+05</totfact>
</mgrwt>
</event>
<event>
 5    1  0.4006808E+001  0.9167744E+02  0.7546771E-02  0.1298840E+00
          2   -1    0    0  501    0  0.00000000000E+00  0.00000000000E+00  0.82998373000E+02  0.82998373000E+02  0.00000000000E+00 0. -1.
         -2   -1    0    0    0  501 -0.00000000000E+00 -0.00000000000E+00 -0.25316016766E+02  0.25316016766E+02  0.00000000000E+00 0.  1.
         23    2    1    2    0    0  0.00000000000E+00  0.00000000000E+00  0.57682356234E+02  0.10831438977E+03  0.91677438936E+02 0.  0.
          2    1    3    3  502    0  0.22636547643E+01 -0.38901906669E+02  0.57361099763E+02  0.69345354866E+02  0.00000000000E+00 0. -1.
         -2    1    3    3    0  502 -0.22636547643E+01  0.38901906669E+02  0.32125647083E+00  0.38969034901E+02  0.00000000000E+00 0.  1.
<mgrwt>
<rscale>  0 0.91677439E+02</rscale>
<asrwt>0</asrwt>
<pdfrwt beam="1">  1        2 0.12768980E-01 0.91677439E+02</pdfrwt>
<pdfrwt beam="2">  1       -2 0.38947719E-02 0.91677439E+02</pdfrwt>
<totfact> 0.11432431E+05</totfact>
</mgrwt>
</event>
<event>
 5    1  0.4006808E+001  0.8891359E+02  0.7546771E-02  0.1305504E+00
          2   -1    0    0  501    0  0.00000000000E+00  0.00000000000E+00  0.21106919906E+04  0.21106919906E+04  0.00000000000E+00 0. -1.
         -2   -1    0    0    0  501 -0.00000000000E+00 -0.00000000000E+00 -0.93637845532E+00  0.93637845532E+00  0.00000000000E+00 0.  1.
         23    2    1    2    0    0  0.00000000000E+00  0.00000000000E+00  0.21097556121E+04  0.21116283690E+04  0.88913587393E+02 0.  0.
          2    1    3    3  502    0 -0.28829153294E+02 -0.28545443538E+02  0.14865940028E+04  0.14871475016E+04  0.00000000000E+00 0. -1.
         -2    1    3    3    0  502  0.28829153294E+02  0.28545443538E+02  0.62316160936E+03  0.62448086745E+03  0.00000000000E+00 0.  1.
<mgrwt>
<rscale>  0 0.88913587E+02</rscale>
<asrwt>0</asrwt>
<pdfrwt beam="1">  1        2 0.32471804E+00 0.88913587E+02</pdfrwt>
<pdfrwt beam="2">  1       -2 0.14405991E-03 0.88913587E+02</pdfrwt>
<totfact> 0.19927103E+05</totfact>
</mgrwt>
</event>
<event>
 5    1  0.4006808E+001  0.8491965E+02  0.7546771E-02  0.1315643E+00
          1   -1    0    0  501    0  0.00000000000E+00  0.00000000000E+00  0.70126540409E+02  0.70126540409E+02  0.00000000000E+00 0. -1.
         -1   -1    0    0    0  501 -0.00000000000E+00 -0.00000000000E+00 -0.25708335769E+02  0.25708335769E+02  0.00000000000E+00 0.  1.
         23    2    1    2    0    0  0.00000000000E+00  0.00000000000E+00  0.44418204640E+02  0.95834876178E+02  0.84919647836E+02 0.  0.
          2    1    3    3  502    0  0.25769056221E+02 -0.94175632581E+01 -0.14361416517E+02  0.30967483602E+02  0.00000000000E+00 0. -1.
         -2    1    3    3    0  502 -0.25769056221E+02  0.94175632581E+01  0.58779621157E+02  0.64867392576E+02  0.00000000000E+00 0.  1.
<mgrwt>
<rscale>  0 0.84919648E+02</rscale>
<asrwt>0</asrwt>
<pdfrwt beam="1">  1        1 0.10788698E-01 0.84919648E+02</pdfrwt>
<pdfrwt beam="2">  1       -1 0.39551286E-02 0.84919648E+02</pdfrwt>
<totfact> 0.11993335E+05</totfact>
</mgrwt>
</event>
<event>
 5    1  0.4006808E+001  0.9180983E+02  0.7546771E-02  0.1298527E+00
          4   -1    0    0  501    0  0.00000000000E+00  0.00000000000E+00  0.11312236632E+03  0.11312236632E+03  0.00000000000E+00 0. -1.
         -4   -1    0    0    0  501 -0.00000000000E+00 -0.00000000000E+00 -0.18628157998E+02  0.18628157998E+02  0.00000000000E+00 0.  1.
         23    2    1    2    0    0  0.00000000000E+00  0.00000000000E+00  0.94494208317E+02  0.13175052431E+03  0.91809831996E+02 0.  0.
          2    1    3    3  502    0 -0.25101220681E+02  0.36009765023E+02  0.27968039961E+02  0.52047917499E+02  0.00000000000E+00 0.  1.
         -2    1    3    3    0  502  0.25101220681E+02 -0.36009765023E+02  0.66526168356E+02  0.79702606814E+02  0.00000000000E+00 0. -1.
<mgrwt>
<rscale>  0 0.91809832E+02</rscale>
<asrwt>0</asrwt>
<pdfrwt beam="1">  1        4 0.17403441E-01 0.91809832E+02</pdfrwt>
<pdfrwt beam="2">  1       -4 0.28658705E-02 0.91809832E+02</pdfrwt>
<totfact> 0.24166768E+04</totfact>
</mgrwt>
</event>
<event>
 5    1  0.4006808E+001  0.9153027E+02  0.7546771E-02  0.1299188E+00
         -2   -1    0    0    0  501 -0.00000000000E+00  0.00000000000E+00  0.31776268409E+03  0.31776268409E+03  0.00000000000E+00 0. -1.
          2   -1    0    0  501    0  0.00000000000E+00 -0.00000000000E+00 -0.65912319274E+01  0.65912319274E+01  0.00000000000E+00 0.  1.
         23    2    1    2    0    0  0.00000000000E+00  0.00000000000E+00  0.31117145217E+03  0.32435391602E+03  0.91530269283E+02 0.  0.
          2    1    3    3  502    0  0.35222388885E+02  0.21118551364E+02  0.84021155802E+02  0.93520930880E+02  0.00000000000E+00 0.  1.
         -2    1    3    3    0  502 -0.35222388885E+02 -0.21118551364E+02  0.22715029636E+03  0.23083298514E+03  0.00000000000E+00 0. -1.
<mgrwt>
<rscale>  0 0.91530269E+02</rscale>
<asrwt>0</asrwt>
<pdfrwt beam="2">  1        2 0.10140359E-02 0.91530269E+02</pdfrwt>
<pdfrwt beam="1">  1       -2 0.48886555E-01 0.91530269E+02</pdfrwt>
<totfact> 0.48857613E+04</totfact>
</mgrwt>
</event>
<event>
 5    1  0.4006808E+001  0.9231250E+02  0.7546771E-02  0.1297346E+00
          2   -1    0    0  501    0  0.00000000000E+00  0.00000000000E+00  0.94350024077E+01  0.94350024077E+01  0.00000000000E+00 0. -1.
         -2   -1    0    0    0  501 -0.00000000000E+00 -0.00000000000E+00 -0.22579743067E+03  0.22579743067E+03  0.00000000000E+00 0.  1.
         23    2    1    2    0    0  0.00000000000E+00  0.00000000000E+00 -0.21636242826E+03  0.23523243308E+03  0.92312497572E+02 0.  0.
          2    1    3    3  502    0  0.21360915475E+02 -0.37188352361E+02 -0.15166080321E+03  0.15760793601E+03  0.00000000000E+00 0.  1.
         -2    1    3    3    0  502 -0.21360915475E+02  0.37188352361E+02 -0.64701625046E+02  0.77624497067E+02  0.00000000000E+00 0. -1.
<mgrwt>
<rscale>  0 0.92312498E+02</rscale>
<asrwt>0</asrwt>
<pdfrwt beam="1">  1        2 0.14515389E-02 0.92312498E+02</pdfrwt>
<pdfrwt beam="2">  1       -2 0.34738064E-01 0.92312498E+02</pdfrwt>
<totfact> 0.57165656E+04</totfact>
</mgrwt>
</event>
<event>
 5    1  0.4006808E+001  0.8858599E+02  0.7546771E-02  0.1306313E+00
         -2   -1    0    0    0  501 -0.00000000000E+00  0.00000000000E+00  0.13230699465E+01  0.13230699465E+01  0.00000000000E+00 0.  1.
          2   -1    0    0  501    0  0.00000000000E+00 -0.00000000000E+00 -0.14828159816E+04  0.14828159816E+04  0.00000000000E+00 0. -1.
         23    2    1    2    0    0  0.00000000000E+00  0.00000000000E+00 -0.14814929116E+04  0.14841390515E+04  0.88585986733E+02 0.  0.
          2    1    3    3  502    0 -0.14710660077E+01 -0.32751949436E+02 -0.12397171694E+04  0.12401506015E+04  0.00000000000E+00 0. -1.
         -2    1    3    3    0  502  0.14710660077E+01  0.32751949436E+02 -0.24177574219E+03  0.24398845001E+03  0.00000000000E+00 0.  1.
<mgrwt>
<rscale>  0 0.88585987E+02</rscale>
<asrwt>0</asrwt>
<pdfrwt beam="2">  1        2 0.22812669E+00 0.88585987E+02</pdfrwt>
<pdfrwt beam="1">  1       -2 0.20354819E-03 0.88585987E+02</pdfrwt>
<totfact> 0.25565095E+05</totfact>
</mgrwt>
</event>
<event>
 5    1  0.4006808E+001  0.8991387E+02  0.7546771E-02  0.1303060E+00
          2   -1    0    0  501    0  0.00000000000E+00  0.00000000000E+00  0.61014325500E+01  0.61014325500E+01  0.00000000000E+00 0. -1.
         -2   -1    0    0    0  501 -0.00000000000E+00 -0.00000000000E+00 -0.33125435446E+03  0.33125435446E+03  0.00000000000E+00 0.  1.
         23    2    1    2    0    0  0.00000000000E+00  0.00000000000E+00 -0.32515292191E+03  0.33735578701E+03  0.89913872137E+02 0.  0.
          2    1    3    3  502    0  0.10829641950E+02  0.37229010253E+02 -0.77195375391E+02  0.86385220559E+02  0.00000000000E+00 0. -1.
         -2    1    3    3    0  502 -0.10829641950E+02 -0.37229010253E+02 -0.24795754652E+03  0.25097056645E+03  0.00000000000E+00 0.  1.
<mgrwt>
<rscale>  0 0.89913872E+02</rscale>
<asrwt>0</asrwt>
<pdfrwt beam="1">  1        2 0.93868183E-03 0.89913872E+02</pdfrwt>
<pdfrwt beam="2">  1       -2 0.50962214E-01 0.89913872E+02</pdfrwt>
<totfact> 0.49909940E+04</totfact>
</mgrwt>
</event>
<event>
 5    1  0.4006808E+001  0.9323514E+02  0.7546771E-02  0.1295201E+00
          1   -1    0    0  501    0  0.00000000000E+00  0.00000000000E+00  0.16611247269E+02  0.16611247269E+02  0.00000000000E+00 0. -1.
         -1   -1    0    0    0  501 -0.00000000000E+00 -0.00000000000E+00 -0.13082688378E+03  0.13082688378E+03  0.00000000000E+00 0.  1.
         23    2    1    2    0    0  0.00000000000E+00  0.00000000000E+00 -0.11421563651E+03  0.14743813105E+03  0.93235137494E+02 0.  0.
          2    1    3    3  502    0  0.37743272234E+02  0.50942718616E+01 -0.14596293878E+02  0.40786738038E+02  0.00000000000E+00 0. -1.
         -2    1    3    3    0  502 -0.37743272234E+02 -0.50942718616E+01 -0.99619342631E+02  0.10665139301E+03  0.00000000000E+00 0.  1.
<mgrwt>
<rscale>  0 0.93235137E+02</rscale>
<asrwt>0</asrwt>
<pdfrwt beam="1">  1        1 0.25555766E-02 0.93235137E+02</pdfrwt>
<pdfrwt beam="2">  1       -1 0.20127212E-01 0.93235137E+02</pdfrwt>
<totfact> 0.72782196E+04</totfact>
</mgrwt>
</event>
<event>
 5    1  0.4006808E+001  0.9051089E+02  0.7546771E-02  0.1301619E+00
          1   -1    0    0  501    0  0.00000000000E+00  0.00000000000E+00  0.11037214244E+04  0.11037214244E+04  0.00000000000E+00 0. -1.
         -1   -1    0    0    0  501 -0.00000000000E+00 -0.00000000000E+00 -0.18555909178E+01  0.18555909178E+01  0.00000000000E+00 0.  1.
         23    2    1    2    0    0  0.00000000000E+00  0.00000000000E+00  0.11018658335E+04  0.11055770153E+04  0.90510893288E+02 0.  0.
          2    1    3    3  502    0 -0.32477004167E+02 -0.38713004805E+01  0.93298888840E+03  0.93356200043E+03  0.00000000000E+00 0. -1.
         -2    1    3    3    0  502  0.32477004167E+02  0.38713004805E+01  0.16887694511E+03  0.17201501492E+03  0.00000000000E+00 0.  1.
<mgrwt>
<rscale>  0 0.90510893E+02</rscale>
<asrwt>0</asrwt>
<pdfrwt beam="1">  1        1 0.16980277E+00 0.90510893E+02</pdfrwt>
<pdfrwt beam="2">  1       -1 0.28547641E-03 0.90510893E+02</pdfrwt>
<totfact> 0.13441690E+05</totfact>
</mgrwt>
</event>
<event>
 5    1  0.4006808E+001  0.9233181E+02  0.7546771E-02  0.1297301E+00
          2   -1    0    0  501    0  0.00000000000E+00  0.00000000000E+00  0.28773701600E+02  0.28773701600E+02  0.00000000000E+00 0.  1.
         -2   -1    0    0    0  501 -0.00000000000E+00 -0.00000000000E+00 -0.74070790220E+02  0.74070790220E+02  0.00000000000E+00 0. -1.
         23    2    1    2    0    0  0.00000000000E+00  0.00000000000E+00 -0.45297088620E+02  0.10284449182E+03  0.92331810663E+02 0.  0.
          2    1    3    3  502    0 -0.22602111602E+02 -0.30850576940E+02 -0.51451560209E+02  0.64108319229E+02  0.00000000000E+00 0. -1.
         -2    1    3    3    0  502  0.22602111602E+02  0.30850576940E+02  0.61544715893E+01  0.38736172591E+02  0.00000000000E+00 0.  1.
<mgrwt>
<rscale>  0 0.92331811E+02</rscale>
<asrwt>0</asrwt>
<pdfrwt beam="1">  1        2 0.44267233E-02 0.92331811E+02</pdfrwt>
<pdfrwt beam="2">  1       -2 0.11395506E-01 0.92331811E+02</pdfrwt>
<totfact> 0.84253632E+04</totfact>
</mgrwt>
</event>
<event>
 5    1  0.4006808E+001  0.9218580E+02  0.7546771E-02  0.1297643E+00
          2   -1    0    0  501    0  0.00000000000E+00  0.00000000000E+00  0.13289452978E+04  0.13289452978E+04  0.00000000000E+00 0. -1.
         -2   -1    0    0    0  501 -0.00000000000E+00 -0.00000000000E+00 -0.15986779717E+01  0.15986779717E+01  0.00000000000E+00 0.  1.
         23    2    1    2    0    0  0.00000000000E+00  0.00000000000E+00  0.13273466199E+04  0.13305439758E+04  0.92185803100E+02 0.  0.
          2    1    3    3  502    0 -0.45893572413E+01  0.42968635844E+02  0.89514185480E+03  0.89618430364E+03  0.00000000000E+00 0. -1.
         -2    1    3    3    0  502  0.45893572413E+01 -0.42968635844E+02  0.43220476506E+03  0.43435967217E+03  0.00000000000E+00 0.  1.
<mgrwt>
<rscale>  0 0.92185803E+02</rscale>
<asrwt>0</asrwt>
<pdfrwt beam="1">  1        2 0.20445224E+00 0.92185803E+02</pdfrwt>
<pdfrwt beam="2">  1       -2 0.24595152E-03 0.92185803E+02</pdfrwt>
<totfact> 0.23758882E+05</totfact>
</mgrwt>
</event>
<event>
 5    1  0.4006808E+001  0.9161210E+02  0.7546771E-02  0.1298994E+00
         -2   -1    0    0    0  501 -0.00000000000E+00  0.00000000000E+00  0.13655041031E+02  0.13655041031E+02  0.00000000000E+00 0.  1.
          2   -1    0    0  501    0  0.00000000000E+00 -0.00000000000E+00 -0.15365712851E+03  0.15365712851E+03  0.00000000000E+00 0. -1.
         23    2    1    2    0    0  0.00000000000E+00  0.00000000000E+00 -0.14000208748E+03  0.16731216954E+03  0.91612103883E+02 0.  0.
          2    1    3    3  502    0 -0.31759472167E+02 -0.13272050381E+02 -0.14805866004E+02  0.37470322414E+02  0.00000000000E+00 0.  1.
         -2    1    3    3    0  502  0.31759472167E+02  0.13272050381E+02 -0.12519622147E+03  0.12984184713E+03  0.00000000000E+00 0. -1.
<mgrwt>
<rscale>  0 0.91612104E+02</rscale>
<asrwt>0</asrwt>
<pdfrwt beam="2">  1        2 0.23639558E-01 0.91612104E+02</pdfrwt>
<pdfrwt beam="1">  1       -2 0.21007756E-02 0.91612104E+02</pdfrwt>
<totfact> 0.13915203E+05</totfact>
</mgrwt>
</event>
<event>
 5    1  0.4006808E+001  0.8771419E+02  0.7546771E-02  0.1308483E+00
          2   -1    0    0  501    0  0.00000000000E+00  0.00000000000E+00  0.68086169686E+03  0.68086169686E+03  0.00000000000E+00 0.  1.
         -2   -1    0    0    0  501 -0.00000000000E+00 -0.00000000000E+00 -0.28250156295E+01  0.28250156295E+01  0.00000000000E+00 0. -1.
         23    2    1    2    0    0  0.00000000000E+00  0.00000000000E+00  0.67803668123E+03  0.68368671249E+03  0.87714193496E+02 0.  0.
          2    1    3    3  502    0  0.12119420866E+02  0.26796533856E+02  0.85426767031E+02  0.90347479844E+02  0.00000000000E+00 0. -1.
         -2    1    3    3    0  502 -0.12119420866E+02 -0.26796533856E+02  0.59260991420E+03  0.59333923264E+03  0.00000000000E+00 0.  1.
<mgrwt>
<rscale>  0 0.87714193E+02</rscale>
<asrwt>0</asrwt>
<pdfrwt beam="1">  1        2 0.10474782E+00 0.87714193E+02</pdfrwt>
<pdfrwt beam="2">  1       -2 0.43461833E-03 0.87714193E+02</pdfrwt>
<totfact> 0.26086125E+05</totfact>
</mgrwt>
</event>
<event>
 5    1  0.4006808E+001  0.9581380E+02  0.7546771E-02  0.1289354E+00
         -2   -1    0    0    0  501 -0.00000000000E+00  0.00000000000E+00  0.12039354177E+01  0.12039354177E+01  0.00000000000E+00 0.  1.
          2   -1    0    0  501    0  0.00000000000E+00 -0.00000000000E+00 -0.19063074199E+04  0.19063074199E+04  0.00000000000E+00 0. -1.
         23    2    1    2    0    0  0.00000000000E+00  0.00000000000E+00 -0.19051034845E+04  0.19075113553E+04  0.95813799005E+02 0.  0.
          2    1    3    3  502    0  0.29081012302E+02 -0.23618781260E+02 -0.15469867152E+04  0.15474402893E+04  0.00000000000E+00 0. -1.
         -2    1    3    3    0  502 -0.29081012302E+02  0.23618781260E+02 -0.35811676935E+03  0.36007106603E+03  0.00000000000E+00 0.  1.
<mgrwt>
<rscale>  0 0.95813799E+02</rscale>
<asrwt>0</asrwt>
<pdfrwt beam="2">  1        2 0.29327562E+00 0.95813799E+02</pdfrwt>
<pdfrwt beam="1">  1       -2 0.18522238E-03 0.95813799E+02</pdfrwt>
<totfact> 0.17999412E+05</totfact>
</mgrwt>
</event>
<event>
 5    1  0.4006808E+001  0.8725158E+02  0.7546771E-02  0.1309647E+00
         -1   -1    0    0    0  501 -0.00000000000E+00  0.00000000000E+00  0.15106234603E+03  0.15106234603E+03  0.00000000000E+00 0.  1.
          1   -1    0    0  501    0  0.00000000000E+00 -0.00000000000E+00 -0.12598834396E+02  0.12598834396E+02  0.00000000000E+00 0. -1.
         23    2    1    2    0    0  0.00000000000E+00  0.00000000000E+00  0.13846351163E+03  0.16366118043E+03  0.87251578350E+02 0.  0.
          2    1    3    3  502    0 -0.22901907674E+02  0.22005389556E+02  0.13132580714E+02  0.34368578976E+02  0.00000000000E+00 0. -1.
         -2    1    3    3    0  502  0.22901907674E+02 -0.22005389556E+02  0.12533093092E+03  0.12929260145E+03  0.00000000000E+00 0.  1.
<mgrwt>
<rscale>  0 0.87251578E+02</rscale>
<asrwt>0</asrwt>
<pdfrwt beam="2">  1        1 0.19382823E-02 0.87251578E+02</pdfrwt>
<pdfrwt beam="1">  1       -1 0.23240360E-01 0.87251578E+02</pdfrwt>
<totfact> 0.83681345E+04</totfact>
</mgrwt>
</event>
<event>
 5    1  0.4006808E+001  0.8924805E+02  0.7546771E-02  0.1304683E+00
         -2   -1    0    0    0  501 -0.00000000000E+00  0.00000000000E+00  0.19892529214E+02  0.19892529214E+02  0.00000000000E+00 0.  1.
          2   -1    0    0  501    0  0.00000000000E+00 -0.00000000000E+00 -0.10010308810E+03  0.10010308810E+03  0.00000000000E+00 0. -1.
         23    2    1    2    0    0  0.00000000000E+00  0.00000000000E+00 -0.80210558884E+02  0.11999561731E+03  0.89248049938E+02 0.  0.
          2    1    3    3  502    0 -0.23735919249E+02 -0.37124284484E+02 -0.30626928195E+02  0.53662045169E+02  0.00000000000E+00 0. -1.
         -2    1    3    3    0  502  0.23735919249E+02  0.37124284484E+02 -0.49583630689E+02  0.66333572144E+02  0.00000000000E+00 0.  1.
<mgrwt>
<rscale>  0 0.89248050E+02</rscale>
<asrwt>0</asrwt>
<pdfrwt beam="2">  1        2 0.15400475E-01 0.89248050E+02</pdfrwt>
<pdfrwt beam="1">  1       -2 0.30603891E-02 0.89248050E+02</pdfrwt>
<totfact> 0.13013657E+05</totfact>
</mgrwt>
</event>
<event>
 5    1  0.4006808E+001  0.9099536E+02  0.7546771E-02  0.1300459E+00
          1   -1    0    0  501    0  0.00000000000E+00  0.00000000000E+00  0.34163222083E+03  0.34163222083E+03  0.00000000000E+00 0. -1.
         -1   -1    0    0    0  501 -0.00000000000E+00 -0.00000000000E+00 -0.60592614390E+01  0.60592614390E+01  0.00000000000E+00 0.  1.
         23    2    1    2    0    0  0.00000000000E+00  0.00000000000E+00  0.33557295939E+03  0.34769148227E+03  0.90995361244E+02 0.  0.
          2    1    3    3  502    0  0.21088119691E+02 -0.31112217391E+01  0.32137137319E+03  0.32207754966E+03  0.00000000000E+00 0. -1.
         -2    1    3    3    0  502 -0.21088119691E+02  0.31112217391E+01  0.14201586202E+02  0.25613932604E+02  0.00000000000E+00 0.  1.
<mgrwt>
<rscale>  0 0.90995361E+02</rscale>
<asrwt>0</asrwt>
<pdfrwt beam="1">  1        1 0.52558788E-01 0.90995361E+02</pdfrwt>
<pdfrwt beam="2">  1       -1 0.93219434E-03 0.90995361E+02</pdfrwt>
<totfact> 0.13195795E+05</totfact>
</mgrwt>
</event>
<event>
 5    1  0.4006808E+001  0.9308223E+02  0.7546771E-02  0.1295555E+00
          2   -1    0    0  501    0  0.00000000000E+00  0.00000000000E+00  0.96155325990E+02  0.96155325990E+02  0.00000000000E+00 0. -1.
         -2   -1    0    0    0  501 -0.00000000000E+00 -0.00000000000E+00 -0.22526837149E+02  0.22526837149E+02  0.00000000000E+00 0.  1.
         23    2    1    2    0    0  0.00000000000E+00  0.00000000000E+00  0.73628488841E+02  0.11868216314E+03  0.93082229659E+02 0.  0.
          2    1    3    3  502    0  0.41900216327E+02  0.27473021398E+01  0.11221487088E+02  0.43463750066E+02  0.00000000000E+00 0. -1.
         -2    1    3    3    0  502 -0.41900216327E+02 -0.27473021398E+01  0.62407001754E+02  0.75218413073E+02  0.00000000000E+00 0.  1.
<mgrwt>
<rscale>  0 0.93082230E+02</rscale>
<asrwt>0</asrwt>
<pdfrwt beam="1">  1        2 0.14793127E-01 0.93082230E+02</pdfrwt>
<pdfrwt beam="2">  1       -2 0.34656673E-02 0.93082230E+02</pdfrwt>
<totfact> 0.11449240E+05</totfact>
</mgrwt>
</event>
<event>
 5    1  0.4006808E+001  0.9348796E+02  0.7546771E-02  0.1294618E+00
         -3   -1    0    0    0  501 -0.00000000000E+00  0.00000000000E+00  0.22888629659E+03  0.22888629659E+03  0.00000000000E+00 0.  1.
          3   -1    0    0  501    0  0.00000000000E+00 -0.00000000000E+00 -0.95462239188E+01  0.95462239188E+01  0.00000000000E+00 0. -1.
         23    2    1    2    0    0  0.00000000000E+00  0.00000000000E+00  0.21934007267E+03  0.23843252051E+03  0.93487963699E+02 0.  0.
          2    1    3    3  502    0 -0.39812362592E+02  0.23732789952E+02  0.12512692424E+03  0.13343544021E+03  0.00000000000E+00 0.  1.
         -2    1    3    3    0  502  0.39812362592E+02 -0.23732789952E+02  0.94213148432E+02  0.10499708030E+03  0.00000000000E+00 0. -1.
<mgrwt>
<rscale>  0 0.93487964E+02</rscale>
<asrwt>0</asrwt>
<pdfrwt beam="2">  1        3 0.14686500E-02 0.93487964E+02</pdfrwt>
<pdfrwt beam="1">  1       -3 0.35213272E-01 0.93487964E+02</pdfrwt>
<totfact> 0.24883118E+04</totfact>
</mgrwt>
</event>
<event>
 5    1  0.4006808E+001  0.9150871E+02  0.7546771E-02  0.1299239E+00
         -3   -1    0    0    0  501 -0.00000000000E+00  0.00000000000E+00  0.22915585667E+03  0.22915585667E+03  0.00000000000E+00 0.  1.
          3   -1    0    0  501    0  0.00000000000E+00 -0.00000000000E+00 -0.91355337042E+01  0.91355337042E+01  0.00000000000E+00 0. -1.
         23    2    1    2    0    0  0.00000000000E+00  0.00000000000E+00  0.22002032297E+03  0.23829139038E+03  0.91508711108E+02 0.  0.
          2    1    3    3  502    0  0.33583061051E+02  0.14661979693E+02  0.38664245795E+02  0.53270250056E+02  0.00000000000E+00 0. -1.
         -2    1    3    3    0  502 -0.33583061051E+02 -0.14661979693E+02  0.18135607717E+03  0.18502114032E+03  0.00000000000E+00 0.  1.
<mgrwt>
<rscale>  0 0.91508711E+02</rscale>
<asrwt>0</asrwt>
<pdfrwt beam="2">  1        3 0.14054669E-02 0.91508711E+02</pdfrwt>
<pdfrwt beam="1">  1       -3 0.35254743E-01 0.91508711E+02</pdfrwt>
<totfact> 0.26369615E+04</totfact>
</mgrwt>
</event>
<event>
 5    1  0.4006808E+001  0.9259007E+02  0.7546771E-02  0.1296698E+00
          2   -1    0    0  501    0  0.00000000000E+00  0.00000000000E+00  0.17767340191E+02  0.17767340191E+02  0.00000000000E+00 0. -1.
         -2   -1    0    0    0  501 -0.00000000000E+00 -0.00000000000E+00 -0.12062751300E+03  0.12062751300E+03  0.00000000000E+00 0.  1.
         23    2    1    2    0    0  0.00000000000E+00  0.00000000000E+00 -0.10286017281E+03  0.13839485319E+03  0.92590065553E+02 0.  0.
          2    1    3    3  502    0 -0.11105228068E+02 -0.18405179213E+02 -0.11271579510E+03  0.11474723168E+03  0.00000000000E+00 0.  1.
         -2    1    3    3    0  502  0.11105228068E+02  0.18405179213E+02  0.98556222948E+01  0.23647621510E+02  0.00000000000E+00 0. -1.
<mgrwt>
<rscale>  0 0.92590066E+02</rscale>
<asrwt>0</asrwt>
<pdfrwt beam="1">  1        2 0.27334369E-02 0.92590066E+02</pdfrwt>
<pdfrwt beam="2">  1       -2 0.18558079E-01 0.92590066E+02</pdfrwt>
<totfact> 0.72435502E+04</totfact>
</mgrwt>
</event>
<event>
 5    1  0.4006808E+001  0.8984996E+02  0.7546771E-02  0.1303215E+00
         -2   -1    0    0    0  501 -0.00000000000E+00  0.00000000000E+00  0.21797382104E+01  0.21797382104E+01  0.00000000000E+00 0.  1.
          2   -1    0    0  501    0  0.00000000000E+00 -0.00000000000E+00 -0.92591579101E+03  0.92591579101E+03  0.00000000000E+00 0. -1.
         23    2    1    2    0    0  0.00000000000E+00  0.00000000000E+00 -0.92373605280E+03  0.92809552922E+03  0.89849964479E+02 0.  0.
          2    1    3    3  502    0  0.10923566309E+02  0.23867030454E+02 -0.83847242557E+03  0.83888316701E+03  0.00000000000E+00 0. -1.
         -2    1    3    3    0  502 -0.10923566309E+02 -0.23867030454E+02 -0.85263627222E+02  0.89212362207E+02  0.00000000000E+00 0.  1.
<mgrwt>
<rscale>  0 0.89849964E+02</rscale>
<asrwt>0</asrwt>
<pdfrwt beam="2">  1        2 0.14244845E+00 0.89849964E+02</pdfrwt>
<pdfrwt beam="1">  1       -2 0.33534465E-03 0.89849964E+02</pdfrwt>
<totfact> 0.25845387E+05</totfact>
</mgrwt>
</event>
<event>
 5    1  0.4006808E+001  0.9149870E+02  0.7546771E-02  0.1299262E+00
         -1   -1    0    0    0  501 -0.00000000000E+00  0.00000000000E+00  0.35573273344E+01  0.35573273344E+01  0.00000000000E+00 0.  1.
          1   -1    0    0  501    0  0.00000000000E+00 -0.00000000000E+00 -0.58836392073E+03  0.58836392073E+03  0.00000000000E+00 0. -1.
         23    2    1    2    0    0  0.00000000000E+00  0.00000000000E+00 -0.58480659340E+03  0.59192124807E+03  0.91498700708E+02 0.  0.
          2    1    3    3  502    0  0.40885193686E+02 -0.19093738538E+02 -0.34117296961E+03  0.34414410515E+03  0.00000000000E+00 0. -1.
         -2    1    3    3    0  502 -0.40885193686E+02  0.19093738538E+02 -0.24363362379E+03  0.24777714292E+03  0.00000000000E+00 0.  1.
<mgrwt>
<rscale>  0 0.91498701E+02</rscale>
<asrwt>0</asrwt>
<pdfrwt beam="2">  1        1 0.90517575E-01 0.91498701E+02</pdfrwt>
<pdfrwt beam="1">  1       -1 0.54728084E-03 0.91498701E+02</pdfrwt>
<totfact> 0.14009796E+05</totfact>
</mgrwt>
</event>
<event>
 5    1  0.4006808E+001  0.8853513E+02  0.7546771E-02  0.1306438E+00
         -2   -1    0    0    0  501 -0.00000000000E+00  0.00000000000E+00  0.11762039109E+01  0.11762039109E+01  0.00000000000E+00 0. -1.
          2   -1    0    0  501    0  0.00000000000E+00 -0.00000000000E+00 -0.16660523550E+04  0.16660523550E+04  0.00000000000E+00 0.  1.
         23    2    1    2    0    0  0.00000000000E+00  0.00000000000E+00 -0.16648761511E+04  0.16672285590E+04  0.88535129654E+02 0.  0.
          2    1    3    3  502    0  0.42938013784E+02  0.10658716378E+02 -0.86121994642E+03  0.86235554000E+03  0.00000000000E+00 0. -1.
         -2    1    3    3    0  502 -0.42938013784E+02 -0.10658716378E+02 -0.80365620471E+03  0.80487301895E+03  0.00000000000E+00 0.  1.
<mgrwt>
<rscale>  0 0.88535130E+02</rscale>
<asrwt>0</asrwt>
<pdfrwt beam="2">  1        2 0.25631737E+00 0.88535130E+02</pdfrwt>
<pdfrwt beam="1">  1       -2 0.18095330E-03 0.88535130E+02</pdfrwt>
<totfact> 0.24294547E+05</totfact>
</mgrwt>
</event>
<event>
 5    1  0.4006808E+001  0.8985269E+02  0.7546771E-02  0.1303209E+00
          1   -1    0    0  501    0  0.00000000000E+00  0.00000000000E+00  0.19249968990E+01  0.19249968990E+01  0.00000000000E+00 0. -1.
         -1   -1    0    0    0  501 -0.00000000000E+00 -0.00000000000E+00 -0.10485090318E+04  0.10485090318E+04  0.00000000000E+00 0.  1.
         23    2    1    2    0    0  0.00000000000E+00  0.00000000000E+00 -0.10465840349E+04  0.10504340287E+04  0.89852693556E+02 0.  0.
          2    1    3    3  502    0  0.33971216100E+02  0.15319424480E+02 -0.22994159724E+03  0.23294176618E+03  0.00000000000E+00 0. -1.
         -2    1    3    3    0  502 -0.33971216100E+02 -0.15319424480E+02 -0.81664243771E+03  0.81749226257E+03  0.00000000000E+00 0.  1.
<mgrwt>
<rscale>  0 0.89852694E+02</rscale>
<asrwt>0</asrwt>
<pdfrwt beam="1">  1        1 0.29615301E-03 0.89852694E+02</pdfrwt>
<pdfrwt beam="2">  1       -1 0.16130928E+00 0.89852694E+02</pdfrwt>
<totfact> 0.25128534E+04</totfact>
</mgrwt>
</event>
<event>
 5    1  0.4006808E+001  0.8934958E+02  0.7546771E-02  0.1304434E+00
         -1   -1    0    0    0  501 -0.00000000000E+00  0.00000000000E+00  0.34871339135E+01  0.34871339135E+01  0.00000000000E+00 0.  1.
          1   -1    0    0  501    0  0.00000000000E+00 -0.00000000000E+00 -0.57234304318E+03  0.57234304318E+03  0.00000000000E+00 0. -1.
         23    2    1    2    0    0  0.00000000000E+00  0.00000000000E+00 -0.56885590926E+03  0.57583017709E+03  0.89349579429E+02 0.  0.
          2    1    3    3  502    0  0.18572562030E+02  0.13704063982E+02 -0.53094004907E+03  0.53144150867E+03  0.00000000000E+00 0. -1.
         -2    1    3    3    0  502 -0.18572562030E+02 -0.13704063982E+02 -0.37915860191E+02  0.44388668419E+02  0.00000000000E+00 0.  1.
<mgrwt>
<rscale>  0 0.89349579E+02</rscale>
<asrwt>0</asrwt>
<pdfrwt beam="2">  1        1 0.88052766E-01 0.89349579E+02</pdfrwt>
<pdfrwt beam="1">  1       -1 0.53648220E-03 0.89349579E+02</pdfrwt>
<totfact> 0.14889091E+05</totfact>
</mgrwt>
</event>
<event>
 5    1  0.4006808E+001  0.9429213E+02  0.7546771E-02  0.1292778E+00
          2   -1    0    0  501    0  0.00000000000E+00  0.00000000000E+00  0.30724626642E+04  0.30724626642E+04  0.00000000000E+00 0. -1.
         -2   -1    0    0    0  501 -0.00000000000E+00 -0.00000000000E+00 -0.72344290211E+00  0.72344290211E+00  0.00000000000E+00 0.  1.
         23    2    1    2    0    0  0.00000000000E+00  0.00000000000E+00  0.30717392213E+04  0.30731861071E+04  0.94292127060E+02 0.  0.
          2    1    3    3  502    0 -0.29097223681E+01 -0.34700747178E+02  0.25717386451E+04  0.25719743909E+04  0.00000000000E+00 0. -1.
         -2    1    3    3    0  502  0.29097223681E+01  0.34700747178E+02  0.50000057614E+03  0.50121171623E+03  0.00000000000E+00 0.  1.
<mgrwt>
<rscale>  0 0.94292127E+02</rscale>
<asrwt>0</asrwt>
<pdfrwt beam="1">  1        2 0.47267611E+00 0.94292127E+02</pdfrwt>
<pdfrwt beam="2">  1       -2 0.11130137E-03 0.94292127E+02</pdfrwt>
<totfact> 0.87490337E+04</totfact>
</mgrwt>
</event>
<event>
 5    1  0.4006808E+001  0.8761781E+02  0.7546771E-02  0.1308725E+00
          2   -1    0    0  501    0  0.00000000000E+00  0.00000000000E+00  0.14714842934E+03  0.14714842934E+03  0.00000000000E+00 0. -1.
         -2   -1    0    0    0  501 -0.00000000000E+00 -0.00000000000E+00 -0.13042749035E+02  0.13042749035E+02  0.00000000000E+00 0.  1.
         23    2    1    2    0    0  0.00000000000E+00  0.00000000000E+00  0.13410568030E+03  0.16019117837E+03  0.87617807203E+02 0.  0.
          2    1    3    3  502    0  0.55617318511E+01 -0.41769916048E+02  0.45146749148E+02  0.61756681472E+02  0.00000000000E+00 0. -1.
         -2    1    3    3    0  502 -0.55617318511E+01  0.41769916048E+02  0.88958931155E+02  0.98434496900E+02  0.00000000000E+00 0.  1.
<mgrwt>
<rscale>  0 0.87617807E+02</rscale>
<asrwt>0</asrwt>
<pdfrwt beam="1">  1        2 0.22638219E-01 0.87617807E+02</pdfrwt>
<pdfrwt beam="2">  1       -2 0.20065769E-02 0.87617807E+02</pdfrwt>
<totfact> 0.15470876E+05</totfact>
</mgrwt>
</event>
<event>
 5    1  0.4006808E+001  0.8983604E+02  0.7546771E-02  0.1303249E+00
          1   -1    0    0  501    0  0.00000000000E+00  0.00000000000E+00  0.59368823360E+02  0.59368823360E+02  0.00000000000E+00 0. -1.
         -1   -1    0    0    0  501 -0.00000000000E+00 -0.00000000000E+00 -0.33984649049E+02  0.33984649049E+02  0.00000000000E+00 0.  1.
         23    2    1    2    0    0  0.00000000000E+00  0.00000000000E+00  0.25384174311E+02  0.93353472409E+02  0.89836042352E+02 0.  0.
          2    1    3    3  502    0  0.30915413661E+02  0.18908871460E+02 -0.14886054672E+02  0.39177836150E+02  0.00000000000E+00 0.  1.
         -2    1    3    3    0  502 -0.30915413661E+02 -0.18908871460E+02  0.40270228983E+02  0.54175636259E+02  0.00000000000E+00 0. -1.
<mgrwt>
<rscale>  0 0.89836042E+02</rscale>
<asrwt>0</asrwt>
<pdfrwt beam="1">  1        1 0.91336652E-02 0.89836042E+02</pdfrwt>
<pdfrwt beam="2">  1       -1 0.52284075E-02 0.89836042E+02</pdfrwt>
<totfact> 0.10024730E+05</totfact>
</mgrwt>
</event>
<event>
 5    1  0.4006808E+001  0.8480973E+02  0.7546771E-02  0.1315931E+00
         -1   -1    0    0    0  501 -0.00000000000E+00  0.00000000000E+00  0.51196286553E+03  0.51196286553E+03  0.00000000000E+00 0.  1.
          1   -1    0    0  501    0  0.00000000000E+00 -0.00000000000E+00 -0.35123104831E+01  0.35123104831E+01  0.00000000000E+00 0. -1.
         23    2    1    2    0    0  0.00000000000E+00  0.00000000000E+00  0.50845055504E+03  0.51547517601E+03  0.84809729148E+02 0.  0.
          2    1    3    3  502    0 -0.43051593593E+01 -0.25802421494E+02  0.51372969057E+02  0.57649642685E+02  0.00000000000E+00 0. -1.
         -2    1    3    3    0  502  0.43051593593E+01  0.25802421494E+02  0.45707758599E+03  0.45782553332E+03  0.00000000000E+00 0.  1.
<mgrwt>
<rscale>  0 0.84809729E+02</rscale>
<asrwt>0</asrwt>
<pdfrwt beam="2">  1        1 0.54035586E-03 0.84809729E+02</pdfrwt>
<pdfrwt beam="1">  1       -1 0.78763459E-01 0.84809729E+02</pdfrwt>
<totfact> 0.56014649E+04</totfact>
</mgrwt>
</event>
<event>
 5    1  0.4006808E+001  0.9319587E+02  0.7546771E-02  0.1295292E+00
         -1   -1    0    0    0  501 -0.00000000000E+00  0.00000000000E+00  0.15948241397E+02  0.15948241397E+02  0.00000000000E+00 0.  1.
          1   -1    0    0  501    0  0.00000000000E+00 -0.00000000000E+00 -0.13615091625E+03  0.13615091625E+03  0.00000000000E+00 0. -1.
         23    2    1    2    0    0  0.00000000000E+00  0.00000000000E+00 -0.12020267485E+03  0.15209915764E+03  0.93195872844E+02 0.  0.
          2    1    3    3  502    0 -0.20893613753E+02  0.25108218684E+02 -0.11433809380E+03  0.11891242758E+03  0.00000000000E+00 0. -1.
         -2    1    3    3    0  502  0.20893613753E+02 -0.25108218684E+02 -0.58645810540E+01  0.33186730060E+02  0.00000000000E+00 0.  1.
<mgrwt>
<rscale>  0 0.93195873E+02</rscale>
<asrwt>0</asrwt>
<pdfrwt beam="2">  1        1 0.20946294E-01 0.93195873E+02</pdfrwt>
<pdfrwt beam="1">  1       -1 0.24535757E-02 0.93195873E+02</pdfrwt>
<totfact> 0.10382614E+05</totfact>
</mgrwt>
</event>
<event>
 5    1  0.4006808E+001  0.8701826E+02  0.7546771E-02  0.1310237E+00
          1   -1    0    0  501    0  0.00000000000E+00  0.00000000000E+00  0.34908051982E+02  0.34908051982E+02  0.00000000000E+00 0. -1.
         -1   -1    0    0    0  501 -0.00000000000E+00 -0.00000000000E+00 -0.54229449790E+02  0.54229449790E+02  0.00000000000E+00 0.  1.
         23    2    1    2    0    0  0.00000000000E+00  0.00000000000E+00 -0.19321397808E+02  0.89137501772E+02  0.87018261353E+02 0.  0.
          2    1    3    3  502    0  0.18400794350E+02  0.32369956099E+02  0.13396167956E+02  0.39570956603E+02  0.00000000000E+00 0. -1.
         -2    1    3    3    0  502 -0.18400794350E+02 -0.32369956099E+02 -0.32717565763E+02  0.49566545170E+02  0.00000000000E+00 0.  1.
<mgrwt>
<rscale>  0 0.87018261E+02</rscale>
<asrwt>0</asrwt>
<pdfrwt beam="1">  1        1 0.53704695E-02 0.87018261E+02</pdfrwt>
<pdfrwt beam="2">  1       -1 0.83429923E-02 0.87018261E+02</pdfrwt>
<totfact> 0.10133282E+05</totfact>
</mgrwt>
</event>
<event>
 5    1  0.4006808E+001  0.9204495E+02  0.7546771E-02  0.1297974E+00
         -2   -1    0    0    0  501 -0.00000000000E+00  0.00000000000E+00  0.34002250413E+03  0.34002250413E+03  0.00000000000E+00 0.  1.
          2   -1    0    0  501    0  0.00000000000E+00 -0.00000000000E+00 -0.62291994873E+01  0.62291994873E+01  0.00000000000E+00 0. -1.
         23    2    1    2    0    0  0.00000000000E+00  0.00000000000E+00  0.33379330464E+03  0.34625170362E+03  0.92044945725E+02 0.  0.
          2    1    3    3  502    0 -0.67901412810E+01  0.45338625647E+02  0.15167612267E+03  0.15845296836E+03  0.00000000000E+00 0. -1.
         -2    1    3    3    0  502  0.67901412810E+01 -0.45338625647E+02  0.18211718198E+03  0.18779873526E+03  0.00000000000E+00 0.  1.
<mgrwt>
<rscale>  0 0.92044946E+02</rscale>
<asrwt>0</asrwt>
<pdfrwt beam="2">  1        2 0.95833865E-03 0.92044946E+02</pdfrwt>
<pdfrwt beam="1">  1       -2 0.52311140E-01 0.92044946E+02</pdfrwt>
<totfact> 0.46247341E+04</totfact>
</mgrwt>
</event>
<event>
 5    1  0.4006808E+001  0.9215391E+02  0.7546771E-02  0.1297718E+00
         -1   -1    0    0    0  501 -0.00000000000E+00  0.00000000000E+00  0.39190634000E+01  0.39190634000E+01  0.00000000000E+00 0.  1.
          1   -1    0    0  501    0  0.00000000000E+00 -0.00000000000E+00 -0.54173293029E+03  0.54173293029E+03  0.00000000000E+00 0. -1.
         23    2    1    2    0    0  0.00000000000E+00  0.00000000000E+00 -0.53781386689E+03  0.54565199369E+03  0.92153908212E+02 0.  0.
          2    1    3    3  502    0 -0.19667173123E+02  0.37957388463E+02 -0.37069546588E+03  0.37315236762E+03  0.00000000000E+00 0. -1.
         -2    1    3    3    0  502  0.19667173123E+02 -0.37957388463E+02 -0.16711840101E+03  0.17249962607E+03  0.00000000000E+00 0.  1.
<mgrwt>
<rscale>  0 0.92153908E+02</rscale>
<asrwt>0</asrwt>
<pdfrwt beam="2">  1        1 0.83343505E-01 0.92153908E+02</pdfrwt>
<pdfrwt beam="1">  1       -1 0.60293300E-03 0.92153908E+02</pdfrwt>
<totfact> 0.13655014E+05</totfact>
</mgrwt>
</event>
<event>
 5    1  0.4006808E+001  0.1082490E+03  0.7546771E-02  0.1263847E+00
          1   -1    0    0  501    0  0.00000000000E+00  0.00000000000E+00  0.34467276198E+02  0.34467276198E+02  0.00000000000E+00 0. -1.
         -1   -1    0    0    0  501 -0.00000000000E+00 -0.00000000000E+00 -0.84992510662E+02  0.84992510662E+02  0.00000000000E+00 0.  1.
         23    2    1    2    0    0  0.00000000000E+00  0.00000000000E+00 -0.50525234464E+02  0.11945978686E+03  0.10824897856E+03 0.  0.
          2    1    3    3  502    0 -0.24713923522E+02 -0.47442193118E+02 -0.34357535499E+02  0.63576567612E+02  0.00000000000E+00 0.  1.
         -2    1    3    3    0  502  0.24713923522E+02  0.47442193118E+02 -0.16167698965E+02  0.55883219248E+02  0.00000000000E+00 0. -1.
<mgrwt>
<rscale>  0 0.10824898E+03</rscale>
<asrwt>0</asrwt>
<pdfrwt beam="1">  1        1 0.53026579E-02 0.10824898E+03</pdfrwt>
<pdfrwt beam="2">  1       -1 0.13075771E-01 0.10824898E+03</pdfrwt>
<totfact> 0.53906047E+04</totfact>
</mgrwt>
</event>
<event>
 5    1  0.4006808E+001  0.9421228E+02  0.7546771E-02  0.1292960E+00
          2   -1    0    0  501    0  0.00000000000E+00  0.00000000000E+00  0.25153490011E+02  0.25153490011E+02  0.00000000000E+00 0.  1.
         -2   -1    0    0    0  501 -0.00000000000E+00 -0.00000000000E+00 -0.88217917069E+02  0.88217917069E+02  0.00000000000E+00 0. -1.
         23    2    1    2    0    0  0.00000000000E+00  0.00000000000E+00 -0.63064427059E+02  0.11337140708E+03  0.94212281488E+02 0.  0.
          2    1    3    3  502    0 -0.73746183596E+01  0.24274823529E+02 -0.79294232378E+02  0.83253992948E+02  0.00000000000E+00 0. -1.
         -2    1    3    3    0  502  0.73746183596E+01 -0.24274823529E+02  0.16229805320E+02  0.30117414132E+02  0.00000000000E+00 0.  1.
<mgrwt>
<rscale>  0 0.94212281E+02</rscale>
<asrwt>0</asrwt>
<pdfrwt beam="1">  1        2 0.38697676E-02 0.94212281E+02</pdfrwt>
<pdfrwt beam="2">  1       -2 0.13571987E-01 0.94212281E+02</pdfrwt>
<totfact> 0.76338667E+04</totfact>
</mgrwt>
</event>
<event>
 5    1  0.4006808E+001  0.8862335E+02  0.7546771E-02  0.1306220E+00
         -1   -1    0    0    0  501 -0.00000000000E+00  0.00000000000E+00  0.65067702547E+02  0.65067702547E+02  0.00000000000E+00 0.  1.
          1   -1    0    0  501    0  0.00000000000E+00 -0.00000000000E+00 -0.30176636657E+02  0.30176636657E+02  0.00000000000E+00 0. -1.
         23    2    1    2    0    0  0.00000000000E+00  0.00000000000E+00  0.34891065890E+02  0.95244339204E+02  0.88623347214E+02 0.  0.
          2    1    3    3  502    0  0.11946964654E+02 -0.21304968488E+02 -0.22288097443E+02  0.33066462381E+02  0.00000000000E+00 0. -1.
         -2    1    3    3    0  502 -0.11946964654E+02  0.21304968488E+02  0.57179163333E+02  0.62177876823E+02  0.00000000000E+00 0.  1.
<mgrwt>
<rscale>  0 0.88623347E+02</rscale>
<asrwt>0</asrwt>
<pdfrwt beam="2">  1        1 0.46425595E-02 0.88623347E+02</pdfrwt>
<pdfrwt beam="1">  1       -1 0.10010416E-01 0.88623347E+02</pdfrwt>
<totfact> 0.94109168E+04</totfact>
</mgrwt>
</event>
<event>
 5    1  0.4006808E+001  0.9119464E+02  0.7546771E-02  0.1299984E+00
          4   -1    0    0  501    0  0.00000000000E+00  0.00000000000E+00  0.37089688578E+02  0.37089688578E+02  0.00000000000E+00 0. -1.
         -4   -1    0    0    0  501 -0.00000000000E+00 -0.00000000000E+00 -0.56056428873E+02  0.56056428873E+02  0.00000000000E+00 0.  1.
         23    2    1    2    0    0  0.00000000000E+00  0.00000000000E+00 -0.18966740295E+02  0.93146117451E+02  0.91194637775E+02 0.  0.
          2    1    3    3  502    0  0.31403838740E+02 -0.33058157244E+02 -0.97586590176E+01  0.46629114014E+02  0.00000000000E+00 0. -1.
         -2    1    3    3    0  502 -0.31403838740E+02  0.33058157244E+02 -0.92080812773E+01  0.46517003437E+02  0.00000000000E+00 0.  1.
<mgrwt>
<rscale>  0 0.91194638E+02</rscale>
<asrwt>0</asrwt>
<pdfrwt beam="1">  1        4 0.57061060E-02 0.91194638E+02</pdfrwt>
<pdfrwt beam="2">  1       -4 0.86240659E-02 0.91194638E+02</pdfrwt>
<totfact> 0.26875851E+04</totfact>
</mgrwt>
</event>
<event>
 5    1  0.4006808E+001  0.8958895E+02  0.7546771E-02  0.1303850E+00
         -2   -1    0    0    0  501 -0.00000000000E+00  0.00000000000E+00  0.18406877301E+01  0.18406877301E+01  0.00000000000E+00 0.  1.
          2   -1    0    0  501    0  0.00000000000E+00 -0.00000000000E+00 -0.10901062426E+04  0.10901062426E+04  0.00000000000E+00 0. -1.
         23    2    1    2    0    0  0.00000000000E+00  0.00000000000E+00 -0.10882655549E+04  0.10919469303E+04  0.89588954347E+02 0.  0.
          2    1    3    3  502    0  0.23302925797E+02 -0.34383068033E+01 -0.10085251050E+04  0.10088001466E+04  0.00000000000E+00 0. -1.
         -2    1    3    3    0  502 -0.23302925797E+02  0.34383068033E+01 -0.79740449901E+02  0.83146783791E+02  0.00000000000E+00 0.  1.
<mgrwt>
<rscale>  0 0.89588954E+02</rscale>
<asrwt>0</asrwt>
<pdfrwt beam="2">  1        2 0.16770854E+00 0.89588954E+02</pdfrwt>
<pdfrwt beam="1">  1       -2 0.28318292E-03 0.89588954E+02</pdfrwt>
<totfact> 0.26208750E+05</totfact>
</mgrwt>
</event>
<event>
 5    1  0.4006808E+001  0.9201096E+02  0.7546771E-02  0.1298054E+00
          1   -1    0    0  501    0  0.00000000000E+00  0.00000000000E+00  0.80626767731E+03  0.80626767731E+03  0.00000000000E+00 0. -1.
         -1   -1    0    0    0  501 -0.00000000000E+00 -0.00000000000E+00 -0.26250639782E+01  0.26250639782E+01  0.00000000000E+00 0.  1.
         23    2    1    2    0    0  0.00000000000E+00  0.00000000000E+00  0.80364261334E+03  0.80889274129E+03  0.92010961010E+02 0.  0.
          2    1    3    3  502    0 -0.20232037729E+02 -0.35134264485E+02  0.59296862844E+03  0.59435304845E+03  0.00000000000E+00 0. -1.
         -2    1    3    3    0  502  0.20232037729E+02  0.35134264485E+02  0.21067398490E+03  0.21453969284E+03  0.00000000000E+00 0.  1.
<mgrwt>
<rscale>  0 0.92010961E+02</rscale>
<asrwt>0</asrwt>
<pdfrwt beam="1">  1        1 0.12404098E+00 0.92010961E+02</pdfrwt>
<pdfrwt beam="2">  1       -1 0.40385664E-03 0.92010961E+02</pdfrwt>
<totfact> 0.13783903E+05</totfact>
</mgrwt>
</event>
<event>
 5    1  0.4006808E+001  0.9144921E+02  0.7546771E-02  0.1299380E+00
         -3   -1    0    0    0  501 -0.00000000000E+00  0.00000000000E+00  0.12193833379E+02  0.12193833379E+02  0.00000000000E+00 0.  1.
          3   -1    0    0  501    0  0.00000000000E+00 -0.00000000000E+00 -0.17145875781E+03  0.17145875781E+03  0.00000000000E+00 0. -1.
         23    2    1    2    0    0  0.00000000000E+00  0.00000000000E+00 -0.15926492443E+03  0.18365259119E+03  0.91449210474E+02 0.  0.
          2    1    3    3  502    0  0.37728825875E+02 -0.56063955440E+01 -0.28992632642E+02  0.47911050087E+02  0.00000000000E+00 0. -1.
         -2    1    3    3    0  502 -0.37728825875E+02  0.56063955440E+01 -0.13027229179E+03  0.13574154110E+03  0.00000000000E+00 0.  1.
<mgrwt>
<rscale>  0 0.91449210E+02</rscale>
<asrwt>0</asrwt>
<pdfrwt beam="2">  1        3 0.26378268E-01 0.91449210E+02</pdfrwt>
<pdfrwt beam="1">  1       -3 0.18759745E-02 0.91449210E+02</pdfrwt>
<totfact> 0.29130025E+04</totfact>
</mgrwt>
</event>
<event>
 5    1  0.4006808E+001  0.9074178E+02  0.7546771E-02  0.1301065E+00
          2   -1    0    0  501    0  0.00000000000E+00  0.00000000000E+00  0.41117574504E+01  0.41117574504E+01  0.00000000000E+00 0. -1.
         -2   -1    0    0    0  501 -0.00000000000E+00 -0.00000000000E+00 -0.50064175488E+03  0.50064175488E+03  0.00000000000E+00 0.  1.
         23    2    1    2    0    0  0.00000000000E+00  0.00000000000E+00 -0.49652999743E+03  0.50475351233E+03  0.90741775728E+02 0.  0.
          2    1    3    3  502    0  0.26498022221E+02  0.27609381982E+02 -0.11268370532E+03  0.11900437219E+03  0.00000000000E+00 0. -1.
         -2    1    3    3    0  502 -0.26498022221E+02 -0.27609381982E+02 -0.38384629210E+03  0.38574914014E+03  0.00000000000E+00 0.  1.
<mgrwt>
<rscale>  0 0.90741776E+02</rscale>
<asrwt>0</asrwt>
<pdfrwt beam="1">  1        2 0.63257833E-03 0.90741776E+02</pdfrwt>
<pdfrwt beam="2">  1       -2 0.77021777E-01 0.90741776E+02</pdfrwt>
<totfact> 0.36720405E+04</totfact>
</mgrwt>
</event>
<event>
 5    1  0.4006808E+001  0.8791201E+02  0.7546771E-02  0.1307988E+00
          2   -1    0    0  501    0  0.00000000000E+00  0.00000000000E+00  0.35165189502E+03  0.35165189502E+03  0.00000000000E+00 0. -1.
         -2   -1    0    0    0  501 -0.00000000000E+00 -0.00000000000E+00 -0.54944407190E+01  0.54944407190E+01  0.00000000000E+00 0.  1.
         23    2    1    2    0    0  0.00000000000E+00  0.00000000000E+00  0.34615745430E+03  0.35714633574E+03  0.87912012625E+02 0.  0.
          2    1    3    3  502    0 -0.25379499453E+01 -0.38998805539E+02  0.25481386939E+03  0.25779343679E+03  0.00000000000E+00 0. -1.
         -2    1    3    3    0  502  0.25379499453E+01  0.38998805539E+02  0.91343584915E+02  0.99352898944E+02  0.00000000000E+00 0.  1.
<mgrwt>
<rscale>  0 0.87912013E+02</rscale>
<asrwt>0</asrwt>
<pdfrwt beam="1">  1        2 0.54100274E-01 0.87912013E+02</pdfrwt>
<pdfrwt beam="2">  1       -2 0.84529885E-03 0.87912013E+02</pdfrwt>
<totfact> 0.20988316E+05</totfact>
</mgrwt>
</event>
<event>
 5    1  0.4006808E+001  0.9180694E+02  0.7546771E-02  0.1298534E+00
          2   -1    0    0  501    0  0.00000000000E+00  0.00000000000E+00  0.65025873416E+03  0.65025873416E+03  0.00000000000E+00 0. -1.
         -2   -1    0    0    0  501 -0.00000000000E+00 -0.00000000000E+00 -0.32404467079E+01  0.32404467079E+01  0.00000000000E+00 0.  1.
         23    2    1    2    0    0  0.00000000000E+00  0.00000000000E+00  0.64701828745E+03  0.65349918087E+03  0.91806944714E+02 0.  0.
          2    1    3    3  502    0 -0.28505097952E+02  0.35949769050E+02  0.31294571667E+03  0.31629092318E+03  0.00000000000E+00 0. -1.
         -2    1    3    3    0  502  0.28505097952E+02 -0.35949769050E+02  0.33407257079E+03  0.33720825769E+03  0.00000000000E+00 0.  1.
<mgrwt>
<rscale>  0 0.91806945E+02</rscale>
<asrwt>0</asrwt>
<pdfrwt beam="1">  1        2 0.10003970E+00 0.91806945E+02</pdfrwt>
<pdfrwt beam="2">  1       -2 0.49853078E-03 0.91806945E+02</pdfrwt>
<totfact> 0.22868133E+05</totfact>
</mgrwt>
</event>
<event>
 5    1  0.4006808E+001  0.9081911E+02  0.7546771E-02  0.1300880E+00
          2   -1    0    0  501    0  0.00000000000E+00  0.00000000000E+00  0.46085701027E+03  0.46085701027E+03  0.00000000000E+00 0. -1.
         -2   -1    0    0    0  501 -0.00000000000E+00 -0.00000000000E+00 -0.44743333494E+01  0.44743333494E+01  0.00000000000E+00 0.  1.
         23    2    1    2    0    0  0.00000000000E+00  0.00000000000E+00  0.45638267692E+03  0.46533134362E+03  0.90819114516E+02 0.  0.
          2    1    3    3  502    0  0.45297976947E+01  0.25999917147E+02  0.41752724518E+03  0.41836050868E+03  0.00000000000E+00 0. -1.
         -2    1    3    3    0  502 -0.45297976947E+01 -0.25999917147E+02  0.38855431742E+02  0.46970834937E+02  0.00000000000E+00 0.  1.
<mgrwt>
<rscale>  0 0.90819115E+02</rscale>
<asrwt>0</asrwt>
<pdfrwt beam="1">  1        2 0.70901041E-01 0.90819115E+02</pdfrwt>
<pdfrwt beam="2">  1       -2 0.68835934E-03 0.90819115E+02</pdfrwt>
<totfact> 0.21193334E+05</totfact>
</mgrwt>
</event>
<event>
 5    1  0.4006808E+001  0.9323978E+02  0.7546771E-02  0.1295190E+00
         -4   -1    0    0    0  501 -0.00000000000E+00  0.00000000000E+00  0.30579522203E+03  0.30579522203E+03  0.00000000000E+00 0.  1.
          4   -1    0    0  501    0  0.00000000000E+00 -0.00000000000E+00 -0.71074171933E+01  0.71074171933E+01  0.00000000000E+00 0. -1.
         23    2    1    2    0    0  0.00000000000E+00  0.00000000000E+00  0.29868780484E+03  0.31290263922E+03  0.93239781610E+02 0.  0.
          2    1    3    3  502    0 -0.32336024560E+02  0.29842628699E+02  0.20103044085E+03  0.20578979353E+03  0.00000000000E+00 0. -1.
         -2    1    3    3    0  502  0.32336024560E+02 -0.29842628699E+02  0.97657363986E+02  0.10711284569E+03  0.00000000000E+00 0.  1.
<mgrwt>
<rscale>  0 0.93239782E+02</rscale>
<asrwt>0</asrwt>
<pdfrwt beam="2">  1        4 0.10934490E-02 0.93239782E+02</pdfrwt>
<pdfrwt beam="1">  1       -4 0.47045409E-01 0.93239782E+02</pdfrwt>
<totfact> 0.16424735E+04</totfact>
</mgrwt>
</event>
<event>
 5    1  0.4006808E+001  0.8974853E+02  0.7546771E-02  0.1303462E+00
          3   -1    0    0  501    0  0.00000000000E+00  0.00000000000E+00  0.11176107241E+01  0.11176107241E+01  0.00000000000E+00 0. -1.
         -3   -1    0    0    0  501 -0.00000000000E+00 -0.00000000000E+00 -0.18017899901E+04  0.18017899901E+04  0.00000000000E+00 0.  1.
         23    2    1    2    0    0  0.00000000000E+00  0.00000000000E+00 -0.18006723793E+04  0.18029076008E+04  0.89748533480E+02 0.  0.
          2    1    3    3  502    0 -0.32360415054E+01  0.37021484812E+02 -0.39506611294E+03  0.39681015095E+03  0.00000000000E+00 0. -1.
         -2    1    3    3    0  502  0.32360415054E+01 -0.37021484812E+02 -0.14056062664E+04  0.14060974498E+04  0.00000000000E+00 0.  1.
<mgrwt>
<rscale>  0 0.89748533E+02</rscale>
<asrwt>0</asrwt>
<pdfrwt beam="1">  1        3 0.17194040E-03 0.89748533E+02</pdfrwt>
<pdfrwt beam="2">  1       -3 0.27719799E+00 0.89748533E+02</pdfrwt>
<totfact> 0.46483472E+03</totfact>
</mgrwt>
</event>
<event>
 5    1  0.4006808E+001  0.8644799E+02  0.7546771E-02  0.1311689E+00
         -1   -1    0    0    0  501 -0.00000000000E+00  0.00000000000E+00  0.56200532643E+02  0.56200532643E+02  0.00000000000E+00 0.  1.
          1   -1    0    0  501    0  0.00000000000E+00 -0.00000000000E+00 -0.33243699205E+02  0.33243699205E+02  0.00000000000E+00 0. -1.
         23    2    1    2    0    0  0.00000000000E+00  0.00000000000E+00  0.22956833439E+02  0.89444231848E+02  0.86447986728E+02 0.  0.
          2    1    3    3  502    0  0.42486664214E+02  0.48593410404E+00  0.19688218898E+02  0.46829250809E+02  0.00000000000E+00 0. -1.
         -2    1    3    3    0  502 -0.42486664214E+02 -0.48593410404E+00  0.32686145405E+01  0.42614981039E+02  0.00000000000E+00 0.  1.
<mgrwt>
<rscale>  0 0.86447987E+02</rscale>
<asrwt>0</asrwt>
<pdfrwt beam="2">  1        1 0.51144153E-02 0.86447987E+02</pdfrwt>
<pdfrwt beam="1">  1       -1 0.86462358E-02 0.86447987E+02</pdfrwt>
<totfact> 0.10248480E+05</totfact>
</mgrwt>
</event>
<event>
 5    1  0.4006808E+001  0.8927311E+02  0.7546771E-02  0.1304622E+00
         -1   -1    0    0    0  501 -0.00000000000E+00  0.00000000000E+00  0.69466601529E+01  0.69466601529E+01  0.00000000000E+00 0.  1.
          1   -1    0    0  501    0  0.00000000000E+00 -0.00000000000E+00 -0.28681726038E+03  0.28681726038E+03  0.00000000000E+00 0. -1.
         23    2    1    2    0    0  0.00000000000E+00  0.00000000000E+00 -0.27987060023E+03  0.29376392054E+03  0.89273109812E+02 0.  0.
          2    1    3    3  502    0  0.32403136625E+02 -0.21025087967E+02 -0.21354556358E+03  0.21701088754E+03  0.00000000000E+00 0. -1.
         -2    1    3    3    0  502 -0.32403136625E+02  0.21025087967E+02 -0.66325036651E+02  0.76753032994E+02  0.00000000000E+00 0.  1.
<mgrwt>
<rscale>  0 0.89273110E+02</rscale>
<asrwt>0</asrwt>
<pdfrwt beam="2">  1        1 0.44125726E-01 0.89273110E+02</pdfrwt>
<pdfrwt beam="1">  1       -1 0.10687171E-02 0.89273110E+02</pdfrwt>
<totfact> 0.13436093E+05</totfact>
</mgrwt>
</event>
<event>
 5    1  0.4006808E+001  0.8801451E+02  0.7546771E-02  0.1307732E+00
         -1   -1    0    0    0  501 -0.00000000000E+00  0.00000000000E+00  0.72567174260E+01  0.72567174260E+01  0.00000000000E+00 0.  1.
          1   -1    0    0  501    0  0.00000000000E+00 -0.00000000000E+00 -0.26687530345E+03  0.26687530345E+03  0.00000000000E+00 0. -1.
         23    2    1    2    0    0  0.00000000000E+00  0.00000000000E+00 -0.25961858602E+03  0.27413202088E+03  0.88014513919E+02 0.  0.
          2    1    3    3  502    0 -0.26474752694E+02  0.31721682107E+02 -0.17698950979E+03  0.18174835411E+03  0.00000000000E+00 0. -1.
         -2    1    3    3    0  502  0.26474752694E+02 -0.31721682107E+02 -0.82629076236E+02  0.92383666768E+02  0.00000000000E+00 0.  1.
<mgrwt>
<rscale>  0 0.88014514E+02</rscale>
<asrwt>0</asrwt>
<pdfrwt beam="2">  1        1 0.41057735E-01 0.88014514E+02</pdfrwt>
<pdfrwt beam="1">  1       -1 0.11164182E-02 0.88014514E+02</pdfrwt>
<totfact> 0.13760033E+05</totfact>
</mgrwt>
</event>
<event>
 5    1  0.4006808E+001  0.8980090E+02  0.7546771E-02  0.1303335E+00
         -2   -1    0    0    0  501 -0.00000000000E+00  0.00000000000E+00  0.81435138943E+02  0.81435138943E+02  0.00000000000E+00 0.  1.
          2   -1    0    0  501    0  0.00000000000E+00 -0.00000000000E+00 -0.24756518822E+02  0.24756518822E+02  0.00000000000E+00 0. -1.
         23    2    1    2    0    0  0.00000000000E+00  0.00000000000E+00  0.56678620121E+02  0.10619165777E+03  0.89800903114E+02 0.  0.
          2    1    3    3  502    0  0.19619123490E+02 -0.88096761666E+01 -0.18269663553E+02  0.28218805911E+02  0.00000000000E+00 0. -1.
         -2    1    3    3    0  502 -0.19619123490E+02  0.88096761666E+01  0.74948283674E+02  0.77972851855E+02  0.00000000000E+00 0.  1.
<mgrwt>
<rscale>  0 0.89800903E+02</rscale>
<asrwt>0</asrwt>
<pdfrwt beam="2">  1        2 0.38086952E-02 0.89800903E+02</pdfrwt>
<pdfrwt beam="1">  1       -2 0.12528483E-01 0.89800903E+02</pdfrwt>
<totfact> 0.87885277E+04</totfact>
</mgrwt>
</event>
<event>
 5    1  0.4006808E+001  0.9198191E+02  0.7546771E-02  0.1298122E+00
          2   -1    0    0  501    0  0.00000000000E+00  0.00000000000E+00  0.49966569116E+03  0.49966569116E+03  0.00000000000E+00 0. -1.
         -2   -1    0    0    0  501 -0.00000000000E+00 -0.00000000000E+00 -0.42331660541E+01  0.42331660541E+01  0.00000000000E+00 0.  1.
         23    2    1    2    0    0  0.00000000000E+00  0.00000000000E+00  0.49543252511E+03  0.50389885722E+03  0.91981907835E+02 0.  0.
          2    1    3    3  502    0  0.18477845130E+02  0.18239499388E+02  0.45567714517E+03  0.45641622531E+03  0.00000000000E+00 0. -1.
         -2    1    3    3    0  502 -0.18477845130E+02 -0.18239499388E+02  0.39755379946E+02  0.47482631911E+02  0.00000000000E+00 0.  1.
<mgrwt>
<rscale>  0 0.91981908E+02</rscale>
<asrwt>0</asrwt>
<pdfrwt beam="1">  1        2 0.76871598E-01 0.91981908E+02</pdfrwt>
<pdfrwt beam="2">  1       -2 0.65125671E-03 0.91981908E+02</pdfrwt>
<totfact> 0.21049077E+05</totfact>
</mgrwt>
</event>
<event>
 5    1  0.4006808E+001  0.9092360E+02  0.7546771E-02  0.1300630E+00
          2   -1    0    0  501    0  0.00000000000E+00  0.00000000000E+00  0.72042628713E+02  0.72042628713E+02  0.00000000000E+00 0. -1.
         -2   -1    0    0    0  501 -0.00000000000E+00 -0.00000000000E+00 -0.28688224275E+02  0.28688224275E+02  0.00000000000E+00 0.  1.
         23    2    1    2    0    0  0.00000000000E+00  0.00000000000E+00  0.43354404438E+02  0.10073085299E+03  0.90923596275E+02 0.  0.
          2    1    3    3  502    0 -0.40201924956E+02 -0.95413751147E+01  0.67034846837E+00  0.41324108899E+02  0.00000000000E+00 0.  1.
         -2    1    3    3    0  502  0.40201924956E+02  0.95413751147E+01  0.42684055970E+02  0.59406744089E+02  0.00000000000E+00 0. -1.
<mgrwt>
<rscale>  0 0.90923596E+02</rscale>
<asrwt>0</asrwt>
<pdfrwt beam="1">  1        2 0.11083481E-01 0.90923596E+02</pdfrwt>
<pdfrwt beam="2">  1       -2 0.44135730E-02 0.90923596E+02</pdfrwt>
<totfact> 0.11237718E+05</totfact>
</mgrwt>
</event>
<event>
 5    1  0.4006808E+001  0.8435046E+02  0.7546771E-02  0.1317140E+00
         -1   -1    0    0    0  501 -0.00000000000E+00  0.00000000000E+00  0.22046118880E+01  0.22046118880E+01  0.00000000000E+00 0.  1.
          1   -1    0    0  501    0  0.00000000000E+00 -0.00000000000E+00 -0.80683144244E+03  0.80683144244E+03  0.00000000000E+00 0. -1.
         23    2    1    2    0    0  0.00000000000E+00  0.00000000000E+00 -0.80462683055E+03  0.80903605433E+03  0.84350463891E+02 0.  0.
          2    1    3    3  502    0 -0.32282026653E+02 -0.27052894258E+02 -0.38138344644E+03  0.38370212607E+03  0.00000000000E+00 0. -1.
         -2    1    3    3    0  502  0.32282026653E+02  0.27052894258E+02 -0.42324338411E+03  0.42533392826E+03  0.00000000000E+00 0.  1.
<mgrwt>
<rscale>  0 0.84350464E+02</rscale>
<asrwt>0</asrwt>
<pdfrwt beam="2">  1        1 0.12412787E+00 0.84350464E+02</pdfrwt>
<pdfrwt beam="1">  1       -1 0.33917117E-03 0.84350464E+02</pdfrwt>
<totfact> 0.17330777E+05</totfact>
</mgrwt>
</event>
<event>
 5    1  0.4006808E+001  0.8755563E+02  0.7546771E-02  0.1308881E+00
          2   -1    0    0  501    0  0.00000000000E+00  0.00000000000E+00  0.28817338999E+02  0.28817338999E+02  0.00000000000E+00 0.  1.
         -2   -1    0    0    0  501 -0.00000000000E+00 -0.00000000000E+00 -0.66505004591E+02  0.66505004591E+02  0.00000000000E+00 0. -1.
         23    2    1    2    0    0  0.00000000000E+00  0.00000000000E+00 -0.37687665592E+02  0.95322343590E+02  0.87555634026E+02 0.  0.
          2    1    3    3  502    0 -0.16770134978E+02 -0.36302237635E+02 -0.38240143073E+02  0.55329905356E+02  0.00000000000E+00 0. -1.
         -2    1    3    3    0  502  0.16770134978E+02  0.36302237635E+02  0.55247748114E+00  0.39992438234E+02  0.00000000000E+00 0.  1.
<mgrwt>
<rscale>  0 0.87555634E+02</rscale>
<asrwt>0</asrwt>
<pdfrwt beam="1">  1        2 0.44334369E-02 0.87555634E+02</pdfrwt>
<pdfrwt beam="2">  1       -2 0.10231539E-01 0.87555634E+02</pdfrwt>
<totfact> 0.98676782E+04</totfact>
</mgrwt>
</event>
<event>
 5    1  0.4006808E+001  0.9162132E+02  0.7546771E-02  0.1298972E+00
          2   -1    0    0  501    0  0.00000000000E+00  0.00000000000E+00  0.19477794158E+02  0.19477794158E+02  0.00000000000E+00 0. -1.
         -2   -1    0    0    0  501 -0.00000000000E+00 -0.00000000000E+00 -0.10774405832E+03  0.10774405832E+03  0.00000000000E+00 0.  1.
         23    2    1    2    0    0  0.00000000000E+00  0.00000000000E+00 -0.88266264166E+02  0.12722185248E+03  0.91621320441E+02 0.  0.
          2    1    3    3  502    0 -0.39555510870E+02 -0.12546691121E+02 -0.17187926177E+02  0.44916396834E+02  0.00000000000E+00 0. -1.
         -2    1    3    3    0  502  0.39555510870E+02  0.12546691121E+02 -0.71078337989E+02  0.82305455649E+02  0.00000000000E+00 0.  1.
<mgrwt>
<rscale>  0 0.91621320E+02</rscale>
<asrwt>0</asrwt>
<pdfrwt beam="1">  1        2 0.29965837E-02 0.91621320E+02</pdfrwt>
<pdfrwt beam="2">  1       -2 0.16576009E-01 0.91621320E+02</pdfrwt>
<totfact> 0.77080285E+04</totfact>
</mgrwt>
</event>
<event>
 5    1  0.4006808E+001  0.9087072E+02  0.7546771E-02  0.1300757E+00
          2   -1    0    0  501    0  0.00000000000E+00  0.00000000000E+00  0.38481624765E+03  0.38481624765E+03  0.00000000000E+00 0. -1.
         -2   -1    0    0    0  501 -0.00000000000E+00 -0.00000000000E+00 -0.53645651195E+01  0.53645651195E+01  0.00000000000E+00 0.  1.
         23    2    1    2    0    0  0.00000000000E+00  0.00000000000E+00  0.37945168254E+03  0.39018081277E+03  0.90870717387E+02 0.  0.
          2    1    3    3  502    0  0.27411470651E+02 -0.33865901999E+02  0.24506156066E+03  0.24890451293E+03  0.00000000000E+00 0. -1.
         -2    1    3    3    0  502 -0.27411470651E+02  0.33865901999E+02  0.13439012187E+03  0.14127629985E+03  0.00000000000E+00 0.  1.
<mgrwt>
<rscale>  0 0.90870717E+02</rscale>
<asrwt>0</asrwt>
<pdfrwt beam="1">  1        2 0.59202478E-01 0.90870717E+02</pdfrwt>
<pdfrwt beam="2">  1       -2 0.82531801E-03 0.90870717E+02</pdfrwt>
<totfact> 0.19863399E+05</totfact>
</mgrwt>
</event>
<event>
 5    1  0.4006808E+001  0.8714036E+02  0.7546771E-02  0.1309928E+00
         -2   -1    0    0    0  501 -0.00000000000E+00  0.00000000000E+00  0.22523249258E+03  0.22523249258E+03  0.00000000000E+00 0.  1.
          2   -1    0    0  501    0  0.00000000000E+00 -0.00000000000E+00 -0.84284496796E+01  0.84284496796E+01  0.00000000000E+00 0. -1.
         23    2    1    2    0    0  0.00000000000E+00  0.00000000000E+00  0.21680404290E+03  0.23366094226E+03  0.87140363321E+02 0.  0.
          2    1    3    3  502    0 -0.43252162944E+02  0.44827148834E+01  0.10105059464E+03  0.11000939510E+03  0.00000000000E+00 0. -1.
         -2    1    3    3    0  502  0.43252162944E+02 -0.44827148834E+01  0.11575344825E+03  0.12365154716E+03  0.00000000000E+00 0.  1.
<mgrwt>
<rscale>  0 0.87140363E+02</rscale>
<asrwt>0</asrwt>
<pdfrwt beam="2">  1        2 0.12966847E-02 0.87140363E+02</pdfrwt>
<pdfrwt beam="1">  1       -2 0.34651148E-01 0.87140363E+02</pdfrwt>
<totfact> 0.66329978E+04</totfact>
</mgrwt>
</event>
<event>
 5    1  0.4006808E+001  0.9270052E+02  0.7546771E-02  0.1296441E+00
         -1   -1    0    0    0  501 -0.00000000000E+00  0.00000000000E+00  0.92414515109E+01  0.92414515109E+01  0.00000000000E+00 0.  1.
          1   -1    0    0  501    0  0.00000000000E+00 -0.00000000000E+00 -0.23246852596E+03  0.23246852596E+03  0.00000000000E+00 0. -1.
         23    2    1    2    0    0  0.00000000000E+00  0.00000000000E+00 -0.22322707445E+03  0.24170997747E+03  0.92700520181E+02 0.  0.
          2    1    3    3  502    0 -0.22581389223E+02  0.28951767018E+01 -0.21688538843E+03  0.21807698847E+03  0.00000000000E+00 0. -1.
         -2    1    3    3    0  502  0.22581389223E+02 -0.28951767018E+01 -0.63416860188E+01  0.23632988997E+02  0.00000000000E+00 0.  1.
<mgrwt>
<rscale>  0 0.92700520E+02</rscale>
<asrwt>0</asrwt>
<pdfrwt beam="2">  1        1 0.35764387E-01 0.92700520E+02</pdfrwt>
<pdfrwt beam="1">  1       -1 0.14217618E-02 0.92700520E+02</pdfrwt>
<totfact> 0.11663346E+05</totfact>
</mgrwt>
</event>
<event>
 5    1  0.4006808E+001  0.9201846E+02  0.7546771E-02  0.1298036E+00
          2   -1    0    0  501    0  0.00000000000E+00  0.00000000000E+00  0.48607370579E+03  0.48607370579E+03  0.00000000000E+00 0. -1.
         -2   -1    0    0    0  501 -0.00000000000E+00 -0.00000000000E+00 -0.43549966716E+01  0.43549966716E+01  0.00000000000E+00 0.  1.
         23    2    1    2    0    0  0.00000000000E+00  0.00000000000E+00  0.48171870911E+03  0.49042870246E+03  0.92018462731E+02 0.  0.
          2    1    3    3  502    0  0.26379030615E+02  0.10377194239E+02  0.43400482327E+03  0.43492956446E+03  0.00000000000E+00 0. -1.
         -2    1    3    3    0  502 -0.26379030615E+02 -0.10377194239E+02  0.47713885843E+02  0.55499138000E+02  0.00000000000E+00 0.  1.
<mgrwt>
<rscale>  0 0.92018463E+02</rscale>
<asrwt>0</asrwt>
<pdfrwt beam="1">  1        2 0.74780527E-01 0.92018463E+02</pdfrwt>
<pdfrwt beam="2">  1       -2 0.66999987E-03 0.92018463E+02</pdfrwt>
<totfact> 0.20837574E+05</totfact>
</mgrwt>
</event>
<event>
 5    1  0.4006808E+001  0.9217341E+02  0.7546771E-02  0.1297672E+00
         -1   -1    0    0    0  501 -0.00000000000E+00  0.00000000000E+00  0.30505805050E+03  0.30505805050E+03  0.00000000000E+00 0.  1.
          1   -1    0    0  501    0  0.00000000000E+00 -0.00000000000E+00 -0.69625573555E+01  0.69625573555E+01  0.00000000000E+00 0. -1.
         23    2    1    2    0    0  0.00000000000E+00  0.00000000000E+00  0.29809549314E+03  0.31202060785E+03  0.92173405565E+02 0.  0.
          2    1    3    3  502    0 -0.20310320558E+02 -0.33264535146E+02  0.23230764199E+03  0.23555440762E+03  0.00000000000E+00 0.  1.
         -2    1    3    3    0  502  0.20310320558E+02  0.33264535146E+02  0.65787851146E+02  0.76466200233E+02  0.00000000000E+00 0. -1.
<mgrwt>
<rscale>  0 0.92173406E+02</rscale>
<asrwt>0</asrwt>
<pdfrwt beam="2">  1        1 0.10711629E-02 0.92173406E+02</pdfrwt>
<pdfrwt beam="1">  1       -1 0.46931997E-01 0.92173406E+02</pdfrwt>
<totfact> 0.58497216E+04</totfact>
</mgrwt>
</event>
<event>
 5    1  0.4006808E+001  0.9043106E+02  0.7546771E-02  0.1301811E+00
          2   -1    0    0  501    0  0.00000000000E+00  0.00000000000E+00  0.66744821482E+03  0.66744821482E+03  0.00000000000E+00 0. -1.
         -2   -1    0    0    0  501 -0.00000000000E+00 -0.00000000000E+00 -0.30630754625E+01  0.30630754625E+01  0.00000000000E+00 0.  1.
         23    2    1    2    0    0  0.00000000000E+00  0.00000000000E+00  0.66438513936E+03  0.67051129029E+03  0.90431062126E+02 0.  0.
          2    1    3    3  502    0 -0.35168903902E+02  0.18950517719E+02  0.48921269491E+03  0.49084115025E+03  0.00000000000E+00 0. -1.
         -2    1    3    3    0  502  0.35168903902E+02 -0.18950517719E+02  0.17517244446E+03  0.17967014003E+03  0.00000000000E+00 0.  1.
<mgrwt>
<rscale>  0 0.90431062E+02</rscale>
<asrwt>0</asrwt>
<pdfrwt beam="1">  1        2 0.10268422E+00 0.90431062E+02</pdfrwt>
<pdfrwt beam="2">  1       -2 0.47124291E-03 0.90431062E+02</pdfrwt>
<totfact> 0.23956334E+05</totfact>
</mgrwt>
</event>
<event>
 5    1  0.4006808E+001  0.9057391E+02  0.7546771E-02  0.1301468E+00
         -1   -1    0    0    0  501 -0.00000000000E+00  0.00000000000E+00  0.81369255848E+00  0.81369255848E+00  0.00000000000E+00 0.  1.
          1   -1    0    0  501    0  0.00000000000E+00 -0.00000000000E+00 -0.25204952031E+04  0.25204952031E+04  0.00000000000E+00 0. -1.
         23    2    1    2    0    0  0.00000000000E+00  0.00000000000E+00 -0.25196815105E+04  0.25213088956E+04  0.90573907731E+02 0.  0.
          2    1    3    3  502    0  0.30781408184E+02 -0.28656801774E+02 -0.17274704494E+04  0.17279823092E+04  0.00000000000E+00 0. -1.
         -2    1    3    3    0  502 -0.30781408184E+02  0.28656801774E+02 -0.79221106106E+03  0.79332658638E+03  0.00000000000E+00 0.  1.
<mgrwt>
<rscale>  0 0.90573908E+02</rscale>
<asrwt>0</asrwt>
<pdfrwt beam="2">  1        1 0.38776850E+00 0.90573908E+02</pdfrwt>
<pdfrwt beam="1">  1       -1 0.12518347E-03 0.90573908E+02</pdfrwt>
<totfact> 0.52230107E+04</totfact>
</mgrwt>
</event>
<event>
 5    1  0.4006808E+001  0.9041927E+02  0.7546771E-02  0.1301840E+00
         -2   -1    0    0    0  501 -0.00000000000E+00  0.00000000000E+00  0.49726008565E+01  0.49726008565E+01  0.00000000000E+00 0.  1.
          2   -1    0    0  501    0  0.00000000000E+00 -0.00000000000E+00 -0.41103463239E+03  0.41103463239E+03  0.00000000000E+00 0. -1.
         23    2    1    2    0    0  0.00000000000E+00  0.00000000000E+00 -0.40606203153E+03  0.41600723325E+03  0.90419271510E+02 0.  0.
          2    1    3    3  502    0 -0.52128805273E+01  0.30712966835E+02 -0.35377185609E+03  0.35514079830E+03  0.00000000000E+00 0. -1.
         -2    1    3    3    0  502  0.52128805273E+01 -0.30712966835E+02 -0.52290175440E+02  0.60866434944E+02  0.00000000000E+00 0.  1.
<mgrwt>
<rscale>  0 0.90419272E+02</rscale>
<asrwt>0</asrwt>
<pdfrwt beam="2">  1        2 0.63236108E-01 0.90419272E+02</pdfrwt>
<pdfrwt beam="1">  1       -2 0.76501539E-03 0.90419272E+02</pdfrwt>
<totfact> 0.20607784E+05</totfact>
</mgrwt>
</event>
<event>
 5    1  0.4006808E+001  0.8996149E+02  0.7546771E-02  0.1302945E+00
         -4   -1    0    0    0  501 -0.00000000000E+00  0.00000000000E+00  0.47773983411E+03  0.47773983411E+03  0.00000000000E+00 0.  1.
          4   -1    0    0  501    0  0.00000000000E+00 -0.00000000000E+00 -0.42350817860E+01  0.42350817860E+01  0.00000000000E+00 0. -1.
         23    2    1    2    0    0  0.00000000000E+00  0.00000000000E+00  0.47350475232E+03  0.48197491589E+03  0.89961486646E+02 0.  0.
          2    1    3    3  502    0  0.19098578909E+02 -0.38997014055E+02  0.29963126587E+03  0.30276132234E+03  0.00000000000E+00 0. -1.
         -2    1    3    3    0  502 -0.19098578909E+02  0.38997014055E+02  0.17387348645E+03  0.17921359355E+03  0.00000000000E+00 0.  1.
<mgrwt>
<rscale>  0 0.89961487E+02</rscale>
<asrwt>0</asrwt>
<pdfrwt beam="2">  1        4 0.65155142E-03 0.89961487E+02</pdfrwt>
<pdfrwt beam="1">  1       -4 0.73498393E-01 0.89961487E+02</pdfrwt>
<totfact> 0.13892746E+04</totfact>
</mgrwt>
</event>
<event>
 5    1  0.4006808E+001  0.9372785E+02  0.7546771E-02  0.1294067E+00
          2   -1    0    0  501    0  0.00000000000E+00  0.00000000000E+00  0.44614706428E+04  0.44614706428E+04  0.00000000000E+00 0. -1.
         -2   -1    0    0    0  501 -0.00000000000E+00 -0.00000000000E+00 -0.49226538885E+00  0.49226538885E+00  0.00000000000E+00 0.  1.
         23    2    1    2    0    0  0.00000000000E+00  0.00000000000E+00  0.44609783774E+04  0.44619629082E+04  0.93727852442E+02 0.  0.
          2    1    3    3  502    0  0.19665303549E+02 -0.41396680116E+02  0.26964844529E+04  0.26968738966E+04  0.00000000000E+00 0. -1.
         -2    1    3    3    0  502 -0.19665303549E+02  0.41396680116E+02  0.17644939245E+04  0.17650890116E+04  0.00000000000E+00 0.  1.
<mgrwt>
<rscale>  0 0.93727852E+02</rscale>
<asrwt>0</asrwt>
<pdfrwt beam="1">  1        2 0.68634772E+00 0.93727852E+02</pdfrwt>
<pdfrwt beam="2">  1       -2 0.75736710E-04 0.93727852E+02</pdfrwt>
<totfact> 0.15747476E+04</totfact>
</mgrwt>
</event>
<event>
 5    1  0.4006808E+001  0.9110422E+02  0.7546771E-02  0.1300199E+00
         -1   -1    0    0    0  501 -0.00000000000E+00  0.00000000000E+00  0.96924276366E+00  0.96924276366E+00  0.00000000000E+00 0.  1.
          1   -1    0    0  501    0  0.00000000000E+00 -0.00000000000E+00 -0.21408412248E+04  0.21408412248E+04  0.00000000000E+00 0. -1.
         23    2    1    2    0    0  0.00000000000E+00  0.00000000000E+00 -0.21398719820E+04  0.21418104676E+04  0.91104223070E+02 0.  0.
          2    1    3    3  502    0  0.40725564069E+02  0.11489064571E+02 -0.67345152559E+03  0.67477961401E+03  0.00000000000E+00 0. -1.
         -2    1    3    3    0  502 -0.40725564069E+02 -0.11489064571E+02 -0.14664204564E+04  0.14670308535E+04  0.00000000000E+00 0.  1.
<mgrwt>
<rscale>  0 0.91104223E+02</rscale>
<asrwt>0</asrwt>
<pdfrwt beam="2">  1        1 0.32935729E+00 0.91104223E+02</pdfrwt>
<pdfrwt beam="1">  1       -1 0.14911558E-03 0.91104223E+02</pdfrwt>
<totfact> 0.71606764E+04</totfact>
</mgrwt>
</event>
<event>
 5    1  0.4006808E+001  0.8239977E+02  0.7546771E-02  0.1322376E+00
          1   -1    0    0  501    0  0.00000000000E+00  0.00000000000E+00  0.21232340218E+02  0.21232340218E+02  0.00000000000E+00 0. -1.
         -1   -1    0    0    0  501 -0.00000000000E+00 -0.00000000000E+00 -0.79945522223E+02  0.79945522223E+02  0.00000000000E+00 0.  1.
         23    2    1    2    0    0  0.00000000000E+00  0.00000000000E+00 -0.58713182005E+02  0.10117786244E+03  0.82399770066E+02 0.  0.
          2    1    3    3  502    0 -0.26563135553E+02 -0.68909717037E+01  0.83767110205E+01  0.28692419712E+02  0.00000000000E+00 0. -1.
         -2    1    3    3    0  502  0.26563135553E+02  0.68909717037E+01 -0.67089893025E+02  0.72485442729E+02  0.00000000000E+00 0.  1.
<mgrwt>
<rscale>  0 0.82399770E+02</rscale>
<asrwt>0</asrwt>
<pdfrwt beam="1">  1        1 0.32665139E-02 0.82399770E+02</pdfrwt>
<pdfrwt beam="2">  1       -1 0.12299311E-01 0.82399770E+02</pdfrwt>
<totfact> 0.10964339E+05</totfact>
</mgrwt>
</event>
<event>
 5    1  0.4006808E+001  0.9394497E+02  0.7546771E-02  0.1293570E+00
         -1   -1    0    0    0  501 -0.00000000000E+00  0.00000000000E+00  0.16285991502E+02  0.16285991502E+02  0.00000000000E+00 0.  1.
          1   -1    0    0  501    0  0.00000000000E+00 -0.00000000000E+00 -0.13547927363E+03  0.13547927363E+03  0.00000000000E+00 0. -1.
         23    2    1    2    0    0  0.00000000000E+00  0.00000000000E+00 -0.11919328213E+03  0.15176526514E+03  0.93944968978E+02 0.  0.
          2    1    3    3  502    0  0.22232114666E+02 -0.39503798065E+02 -0.79487091231E+02  0.91504178355E+02  0.00000000000E+00 0. -1.
         -2    1    3    3    0  502 -0.22232114666E+02  0.39503798065E+02 -0.39706190901E+02  0.60261086780E+02  0.00000000000E+00 0.  1.
<mgrwt>
<rscale>  0 0.93944969E+02</rscale>
<asrwt>0</asrwt>
<pdfrwt beam="2">  1        1 0.20842965E-01 0.93944969E+02</pdfrwt>
<pdfrwt beam="1">  1       -1 0.25055371E-02 0.93944969E+02</pdfrwt>
<totfact> 0.10150317E+05</totfact>
</mgrwt>
</event>
<event>
 5    1  0.4006808E+001  0.9140802E+02  0.7546771E-02  0.1299477E+00
         -2   -1    0    0    0  501 -0.00000000000E+00  0.00000000000E+00  0.28236266770E+02  0.28236266770E+02  0.00000000000E+00 0.  1.
          2   -1    0    0  501    0  0.00000000000E+00 -0.00000000000E+00 -0.73977789283E+02  0.73977789283E+02  0.00000000000E+00 0. -1.
         23    2    1    2    0    0  0.00000000000E+00  0.00000000000E+00 -0.45741522512E+02  0.10221405605E+03  0.91408021382E+02 0.  0.
          2    1    3    3  502    0 -0.43201676435E+01  0.45231093630E+02 -0.17353865818E+02  0.48638177785E+02  0.00000000000E+00 0. -1.
         -2    1    3    3    0  502  0.43201676435E+01 -0.45231093630E+02 -0.28387656695E+02  0.53575878267E+02  0.00000000000E+00 0.  1.
<mgrwt>
<rscale>  0 0.91408021E+02</rscale>
<asrwt>0</asrwt>
<pdfrwt beam="2">  1        2 0.11381198E-01 0.91408021E+02</pdfrwt>
<pdfrwt beam="1">  1       -2 0.43440412E-02 0.91408021E+02</pdfrwt>
<totfact> 0.11154568E+05</totfact>
</mgrwt>
</event>
<event>
 5    1  0.4006808E+001  0.9089634E+02  0.7546771E-02  0.1300695E+00
          3   -1    0    0  501    0  0.00000000000E+00  0.00000000000E+00  0.48216292200E+03  0.48216292200E+03  0.00000000000E+00 0. -1.
         -3   -1    0    0    0  501 -0.00000000000E+00 -0.00000000000E+00 -0.42838971040E+01  0.42838971040E+01  0.00000000000E+00 0.  1.
         23    2    1    2    0    0  0.00000000000E+00  0.00000000000E+00  0.47787902489E+03  0.48644681910E+03  0.90896344155E+02 0.  0.
          2    1    3    3  502    0 -0.46065816073E+01  0.27018254207E+02  0.43295710480E+03  0.43382376751E+03  0.00000000000E+00 0. -1.
         -2    1    3    3    0  502  0.46065816073E+01 -0.27018254207E+02  0.44921920090E+02  0.52623051594E+02  0.00000000000E+00 0.  1.
<mgrwt>
<rscale>  0 0.90896344E+02</rscale>
<asrwt>0</asrwt>
<pdfrwt beam="1">  1        3 0.74178868E-01 0.90896344E+02</pdfrwt>
<pdfrwt beam="2">  1       -3 0.65906148E-03 0.90896344E+02</pdfrwt>
<totfact> 0.18395434E+04</totfact>
</mgrwt>
</event>
<event>
 5    1  0.4006808E+001  0.9103317E+02  0.7546771E-02  0.1300369E+00
         -2   -1    0    0    0  501 -0.00000000000E+00  0.00000000000E+00  0.89311441493E+00  0.89311441493E+00  0.00000000000E+00 0.  1.
          2   -1    0    0  501    0  0.00000000000E+00 -0.00000000000E+00 -0.23197024620E+04  0.23197024620E+04  0.00000000000E+00 0. -1.
         23    2    1    2    0    0  0.00000000000E+00  0.00000000000E+00 -0.23188093475E+04  0.23205955764E+04  0.91033174329E+02 0.  0.
          2    1    3    3  502    0 -0.19947714200E+02  0.38667996357E+02 -0.15001127259E+04  0.15007435876E+04  0.00000000000E+00 0. -1.
         -2    1    3    3    0  502  0.19947714200E+02 -0.38667996357E+02 -0.81869662162E+03  0.81985198877E+03  0.00000000000E+00 0.  1.
<mgrwt>
<rscale>  0 0.91033174E+02</rscale>
<asrwt>0</asrwt>
<pdfrwt beam="2">  1        2 0.35687365E+00 0.91033174E+02</pdfrwt>
<pdfrwt beam="1">  1       -2 0.13740362E-03 0.91033174E+02</pdfrwt>
<totfact> 0.16691588E+05</totfact>
</mgrwt>
</event>
<event>
 5    1  0.4006808E+001  0.9430129E+02  0.7546771E-02  0.1292758E+00
          1   -1    0    0  501    0  0.00000000000E+00  0.00000000000E+00  0.26226643230E+03  0.26226643230E+03  0.00000000000E+00 0. -1.
         -1   -1    0    0    0  501 -0.00000000000E+00 -0.00000000000E+00 -0.84768123669E+01  0.84768123669E+01  0.00000000000E+00 0.  1.
         23    2    1    2    0    0  0.00000000000E+00  0.00000000000E+00  0.25378961993E+03  0.27074324467E+03  0.94301290272E+02 0.  0.
          2    1    3    3  502    0 -0.32647337616E+02  0.11895818636E+02  0.21840074602E+03  0.22114756390E+03  0.00000000000E+00 0. -1.
         -2    1    3    3    0  502  0.32647337616E+02 -0.11895818636E+02  0.35388873913E+02  0.49595680772E+02  0.00000000000E+00 0.  1.
<mgrwt>
<rscale>  0 0.94301290E+02</rscale>
<asrwt>0</asrwt>
<pdfrwt beam="1">  1        1 0.40348676E-01 0.94301290E+02</pdfrwt>
<pdfrwt beam="2">  1       -1 0.13041252E-02 0.94301290E+02</pdfrwt>
<totfact> 0.11406887E+05</totfact>
</mgrwt>
</event>
<event>
 5    1  0.4006808E+001  0.9111788E+02  0.7546771E-02  0.1300167E+00
          1   -1    0    0  501    0  0.00000000000E+00  0.00000000000E+00  0.15309896976E+04  0.15309896976E+04  0.00000000000E+00 0. -1.
         -1   -1    0    0    0  501 -0.00000000000E+00 -0.00000000000E+00 -0.13557355096E+01  0.13557355096E+01  0.00000000000E+00 0.  1.
         23    2    1    2    0    0  0.00000000000E+00  0.00000000000E+00  0.15296339621E+04  0.15323454331E+04  0.91117881842E+02 0.  0.
          2    1    3    3  502    0 -0.23331649437E+02 -0.29534181320E+02  0.33310878973E+03  0.33522842888E+03  0.00000000000E+00 0.  1.
         -2    1    3    3    0  502  0.23331649437E+02  0.29534181320E+02  0.11965251724E+04  0.11971170042E+04  0.00000000000E+00 0. -1.
<mgrwt>
<rscale>  0 0.91117882E+02</rscale>
<asrwt>0</asrwt>
<pdfrwt beam="1">  1        1 0.23553549E+00 0.91117882E+02</pdfrwt>
<pdfrwt beam="2">  1       -1 0.20857592E-03 0.91117882E+02</pdfrwt>
<totfact> 0.10881918E+05</totfact>
</mgrwt>
</event>
<event>
 5    1  0.4006808E+001  0.9099360E+02  0.7546771E-02  0.1300463E+00
          1   -1    0    0  501    0  0.00000000000E+00  0.00000000000E+00  0.25454564254E+03  0.25454564254E+03  0.00000000000E+00 0. -1.
         -1   -1    0    0    0  501 -0.00000000000E+00 -0.00000000000E+00 -0.81319746704E+01  0.81319746704E+01  0.00000000000E+00 0.  1.
         23    2    1    2    0    0  0.00000000000E+00  0.00000000000E+00  0.24641366787E+03  0.26267761721E+03  0.90993597964E+02 0.  0.
          2    1    3    3  502    0  0.29951076628E+02  0.34174572706E+02  0.11675807932E+03  0.12528933513E+03  0.00000000000E+00 0. -1.
         -2    1    3    3    0  502 -0.29951076628E+02 -0.34174572706E+02  0.12965558856E+03  0.13738828209E+03  0.00000000000E+00 0.  1.
<mgrwt>
<rscale>  0 0.90993598E+02</rscale>
<asrwt>0</asrwt>
<pdfrwt beam="1">  1        1 0.39160862E-01 0.90993598E+02</pdfrwt>
<pdfrwt beam="2">  1       -1 0.12510732E-02 0.90993598E+02</pdfrwt>
<totfact> 0.12477323E+05</totfact>
</mgrwt>
</event>
<event>
 5    1  0.4006808E+001  0.8203871E+02  0.7546771E-02  0.1323363E+00
          1   -1    0    0  501    0  0.00000000000E+00  0.00000000000E+00  0.14275656098E+04  0.14275656098E+04  0.00000000000E+00 0. -1.
         -1   -1    0    0    0  501 -0.00000000000E+00 -0.00000000000E+00 -0.11786410274E+01  0.11786410274E+01  0.00000000000E+00 0.  1.
         23    2    1    2    0    0  0.00000000000E+00  0.00000000000E+00  0.14263869688E+04  0.14287442508E+04  0.82038707864E+02 0.  0.
          2    1    3    3  502    0  0.21291754288E+02 -0.33722307923E+02  0.54610046703E+03  0.54755479447E+03  0.00000000000E+00 0.  1.
         -2    1    3    3    0  502 -0.21291754288E+02  0.33722307923E+02  0.88028650172E+03  0.88118945634E+03  0.00000000000E+00 0. -1.
<mgrwt>
<rscale>  0 0.82038708E+02</rscale>
<asrwt>0</asrwt>
<pdfrwt beam="1">  1        1 0.21962409E+00 0.82038708E+02</pdfrwt>
<pdfrwt beam="2">  1       -1 0.18133053E-03 0.82038708E+02</pdfrwt>
<totfact> 0.15165664E+05</totfact>
</mgrwt>
</event>
<event>
 5    1  0.4006808E+001  0.9169263E+02  0.7546771E-02  0.1298804E+00
          1   -1    0    0  501    0  0.00000000000E+00  0.00000000000E+00  0.54636405447E+01  0.54636405447E+01  0.00000000000E+00 0. -1.
         -1   -1    0    0    0  501 -0.00000000000E+00 -0.00000000000E+00 -0.38470401123E+03  0.38470401123E+03  0.00000000000E+00 0.  1.
         23    2    1    2    0    0  0.00000000000E+00  0.00000000000E+00 -0.37924037068E+03  0.39016765177E+03  0.91692626387E+02 0.  0.
          2    1    3    3  502    0 -0.32719629969E+02  0.20968085098E+02 -0.86118086830E+02  0.94480472359E+02  0.00000000000E+00 0. -1.
         -2    1    3    3    0  502  0.32719629969E+02 -0.20968085098E+02 -0.29312228385E+03  0.29568717941E+03  0.00000000000E+00 0.  1.
<mgrwt>
<rscale>  0 0.91692626E+02</rscale>
<asrwt>0</asrwt>
<pdfrwt beam="1">  1        1 0.84055992E-03 0.91692626E+02</pdfrwt>
<pdfrwt beam="2">  1       -1 0.59185244E-01 0.91692626E+02</pdfrwt>
<totfact> 0.53534209E+04</totfact>
</mgrwt>
</event>
<event>
 5    1  0.4006808E+001  0.9042661E+02  0.7546771E-02  0.1301822E+00
          2   -1    0    0  501    0  0.00000000000E+00  0.00000000000E+00  0.22338007188E+04  0.22338007188E+04  0.00000000000E+00 0. -1.
         -2   -1    0    0    0  501 -0.00000000000E+00 -0.00000000000E+00 -0.91514106154E+00  0.91514106154E+00  0.00000000000E+00 0.  1.
         23    2    1    2    0    0  0.00000000000E+00  0.00000000000E+00  0.22328855777E+04  0.22347158598E+04  0.90426605842E+02 0.  0.
          2    1    3    3  502    0  0.10442559438E+02 -0.43794959842E+02  0.10139590347E+04  0.10149581122E+04  0.00000000000E+00 0. -1.
         -2    1    3    3    0  502 -0.10442559438E+02  0.43794959842E+02  0.12189265431E+04  0.12197577476E+04  0.00000000000E+00 0.  1.
<mgrwt>
<rscale>  0 0.90426606E+02</rscale>
<asrwt>0</asrwt>
<pdfrwt beam="1">  1        2 0.34365728E+00 0.90426606E+02</pdfrwt>
<pdfrwt beam="2">  1       -2 0.14079272E-03 0.90426606E+02</pdfrwt>
<totfact> 0.17847258E+05</totfact>
</mgrwt>
</event>
<event>
 5    1  0.4006808E+001  0.9065198E+02  0.7546771E-02  0.1301280E+00
          2   -1    0    0  501    0  0.00000000000E+00  0.00000000000E+00  0.46975919272E+03  0.46975919272E+03  0.00000000000E+00 0. -1.
         -2   -1    0    0    0  501 -0.00000000000E+00 -0.00000000000E+00 -0.43734008296E+01  0.43734008296E+01  0.00000000000E+00 0.  1.
         23    2    1    2    0    0  0.00000000000E+00  0.00000000000E+00  0.46538579189E+03  0.47413259355E+03  0.90651977213E+02 0.  0.
          2    1    3    3  502    0 -0.30777028603E+02 -0.30297559181E+02  0.16073603476E+03  0.16643689631E+03  0.00000000000E+00 0. -1.
         -2    1    3    3    0  502  0.30777028603E+02  0.30297559181E+02  0.30464975713E+03  0.30769569724E+03  0.00000000000E+00 0.  1.
<mgrwt>
<rscale>  0 0.90651977E+02</rscale>
<asrwt>0</asrwt>
<pdfrwt beam="1">  1        2 0.72270605E-01 0.90651977E+02</pdfrwt>
<pdfrwt beam="2">  1       -2 0.67283127E-03 0.90651977E+02</pdfrwt>
<totfact> 0.21434840E+05</totfact>
</mgrwt>
</event>
<event>
 5    1  0.4006808E+001  0.9071614E+02  0.7546771E-02  0.1301127E+00
         -2   -1    0    0    0  501 -0.00000000000E+00  0.00000000000E+00  0.16898844868E+03  0.16898844868E+03  0.00000000000E+00 0.  1.
          2   -1    0    0  501    0  0.00000000000E+00 -0.00000000000E+00 -0.12174526337E+02  0.12174526337E+02  0.00000000000E+00 0. -1.
         23    2    1    2    0    0  0.00000000000E+00  0.00000000000E+00  0.15681392235E+03  0.18116297502E+03  0.90716135702E+02 0.  0.
          2    1    3    3  502    0 -0.19947270057E+02 -0.88097644009E+01 -0.10198972060E+01  0.21829927206E+02  0.00000000000E+00 0. -1.
         -2    1    3    3    0  502  0.19947270057E+02  0.88097644009E+01  0.15783381955E+03  0.15933304781E+03  0.00000000000E+00 0.  1.
<mgrwt>
<rscale>  0 0.90716136E+02</rscale>
<asrwt>0</asrwt>
<pdfrwt beam="2">  1        2 0.18730042E-02 0.90716136E+02</pdfrwt>
<pdfrwt beam="1">  1       -2 0.25998221E-01 0.90716136E+02</pdfrwt>
<totfact> 0.67654154E+04</totfact>
</mgrwt>
</event>
<event>
 5    1  0.4006808E+001  0.8776597E+02  0.7546771E-02  0.1308354E+00
          4   -1    0    0  501    0  0.00000000000E+00  0.00000000000E+00  0.43833909367E+03  0.43833909367E+03  0.00000000000E+00 0. -1.
         -4   -1    0    0    0  501 -0.00000000000E+00 -0.00000000000E+00 -0.43932120156E+01  0.43932120156E+01  0.00000000000E+00 0.  1.
         23    2    1    2    0    0  0.00000000000E+00  0.00000000000E+00  0.43394588166E+03  0.44273230569E+03  0.87765974574E+02 0.  0.
          2    1    3    3  502    0  0.35555694490E+02 -0.37399867335E+01  0.34533662823E+03  0.34718234648E+03  0.00000000000E+00 0. -1.
         -2    1    3    3    0  502 -0.35555694490E+02  0.37399867335E+01  0.88609253429E+02  0.95549959208E+02  0.00000000000E+00 0.  1.
<mgrwt>
<rscale>  0 0.87765975E+02</rscale>
<asrwt>0</asrwt>
<pdfrwt beam="1">  1        4 0.67436749E-01 0.87765975E+02</pdfrwt>
<pdfrwt beam="2">  1       -4 0.67587912E-03 0.87765975E+02</pdfrwt>
<totfact> 0.15699722E+04</totfact>
</mgrwt>
</event>
<event>
 5    1  0.4006808E+001  0.9140712E+02  0.7546771E-02  0.1299479E+00
          1   -1    0    0  501    0  0.00000000000E+00  0.00000000000E+00  0.88735506439E+02  0.88735506439E+02  0.00000000000E+00 0. -1.
         -1   -1    0    0    0  501 -0.00000000000E+00 -0.00000000000E+00 -0.23539792193E+02  0.23539792193E+02  0.00000000000E+00 0.  1.
         23    2    1    2    0    0  0.00000000000E+00  0.00000000000E+00  0.65195714245E+02  0.11227529863E+03  0.91407119673E+02 0.  0.
          2    1    3    3  502    0 -0.44863329226E+01  0.44641074430E+02  0.43296243124E+02  0.62349958926E+02  0.00000000000E+00 0. -1.
         -2    1    3    3    0  502  0.44863329226E+01 -0.44641074430E+02  0.21899471122E+02  0.49925339706E+02  0.00000000000E+00 0.  1.
<mgrwt>
<rscale>  0 0.91407120E+02</rscale>
<asrwt>0</asrwt>
<pdfrwt beam="1">  1        1 0.13651616E-01 0.91407120E+02</pdfrwt>
<pdfrwt beam="2">  1       -1 0.36215065E-02 0.91407120E+02</pdfrwt>
<totfact> 0.10172028E+05</totfact>
</mgrwt>
</event>
<event>
 5    1  0.4006808E+001  0.9140561E+02  0.7546771E-02  0.1299483E+00
          1   -1    0    0  501    0  0.00000000000E+00  0.00000000000E+00  0.14877393522E+03  0.14877393522E+03  0.00000000000E+00 0. -1.
         -1   -1    0    0    0  501 -0.00000000000E+00 -0.00000000000E+00 -0.14039732442E+02  0.14039732442E+02  0.00000000000E+00 0.  1.
         23    2    1    2    0    0  0.00000000000E+00  0.00000000000E+00  0.13473420278E+03  0.16281366766E+03  0.91405606936E+02 0.  0.
          2    1    3    3  502    0  0.16752154098E+02  0.42336031923E+02  0.74441037240E+02  0.87260771778E+02  0.00000000000E+00 0. -1.
         -2    1    3    3    0  502 -0.16752154098E+02 -0.42336031923E+02  0.60293165540E+02  0.75552895886E+02  0.00000000000E+00 0.  1.
<mgrwt>
<rscale>  0 0.91405607E+02</rscale>
<asrwt>0</asrwt>
<pdfrwt beam="1">  1        1 0.22888297E-01 0.91405607E+02</pdfrwt>
<pdfrwt beam="2">  1       -1 0.21599589E-02 0.91405607E+02</pdfrwt>
<totfact> 0.11120851E+05</totfact>
</mgrwt>
</event>
<event>
 5    1  0.4006808E+001  0.8356887E+02  0.7546771E-02  0.1319218E+00
         -1   -1    0    0    0  501 -0.00000000000E+00  0.00000000000E+00  0.17231922435E+03  0.17231922435E+03  0.00000000000E+00 0.  1.
          1   -1    0    0  501    0  0.00000000000E+00 -0.00000000000E+00 -0.10132004363E+02  0.10132004363E+02  0.00000000000E+00 0. -1.
         23    2    1    2    0    0  0.00000000000E+00  0.00000000000E+00  0.16218721998E+03  0.18245122871E+03  0.83568872983E+02 0.  0.
          2    1    3    3  502    0 -0.29150659875E+01  0.41671736800E+02  0.79013360864E+02  0.89376408815E+02  0.00000000000E+00 0. -1.
         -2    1    3    3    0  502  0.29150659875E+01 -0.41671736800E+02  0.83173859118E+02  0.93074819893E+02  0.00000000000E+00 0.  1.
<mgrwt>
<rscale>  0 0.83568873E+02</rscale>
<asrwt>0</asrwt>
<pdfrwt beam="2">  1        1 0.15587700E-02 0.83568873E+02</pdfrwt>
<pdfrwt beam="1">  1       -1 0.26510648E-01 0.83568873E+02</pdfrwt>
<totfact> 0.90607822E+04</totfact>
</mgrwt>
</event>
<event>
 5    1  0.4006808E+001  0.9073360E+02  0.7546771E-02  0.1301085E+00
         -2   -1    0    0    0  501 -0.00000000000E+00  0.00000000000E+00  0.54921501602E+01  0.54921501602E+01  0.00000000000E+00 0. -1.
          2   -1    0    0  501    0  0.00000000000E+00 -0.00000000000E+00 -0.37474333061E+03  0.37474333061E+03  0.00000000000E+00 0.  1.
         23    2    1    2    0    0  0.00000000000E+00  0.00000000000E+00 -0.36925118045E+03  0.38023548077E+03  0.90733602226E+02 0.  0.
          2    1    3    3  502    0  0.35185120620E+02  0.63132548712E+01 -0.67564009707E+02  0.76437852585E+02  0.00000000000E+00 0. -1.
         -2    1    3    3    0  502 -0.35185120620E+02 -0.63132548712E+01 -0.30168717074E+03  0.30379762818E+03  0.00000000000E+00 0.  1.
<mgrwt>
<rscale>  0 0.90733602E+02</rscale>
<asrwt>0</asrwt>
<pdfrwt beam="2">  1        2 0.57652830E-01 0.90733602E+02</pdfrwt>
<pdfrwt beam="1">  1       -2 0.84494603E-03 0.90733602E+02</pdfrwt>
<totfact> 0.19752509E+05</totfact>
</mgrwt>
</event>
<event>
 5    1  0.4006808E+001  0.9628889E+02  0.7546771E-02  0.1288299E+00
          2   -1    0    0  501    0  0.00000000000E+00  0.00000000000E+00  0.51261363649E+01  0.51261363649E+01  0.00000000000E+00 0. -1.
         -2   -1    0    0    0  501 -0.00000000000E+00 -0.00000000000E+00 -0.45217051038E+03  0.45217051038E+03  0.00000000000E+00 0.  1.
         23    2    1    2    0    0  0.00000000000E+00  0.00000000000E+00 -0.44704437401E+03  0.45729664674E+03  0.96288892327E+02 0.  0.
          2    1    3    3  502    0  0.34797963065E+02 -0.86456063683E+01 -0.70936854131E+02  0.79483847522E+02  0.00000000000E+00 0. -1.
         -2    1    3    3    0  502 -0.34797963065E+02  0.86456063683E+01 -0.37610751988E+03  0.37781279922E+03  0.00000000000E+00 0.  1.
<mgrwt>
<rscale>  0 0.96288892E+02</rscale>
<asrwt>0</asrwt>
<pdfrwt beam="1">  1        2 0.78863615E-03 0.96288892E+02</pdfrwt>
<pdfrwt beam="2">  1       -2 0.69564713E-01 0.96288892E+02</pdfrwt>
<totfact> 0.33997909E+04</totfact>
</mgrwt>
</event>
<event>
 5    1  0.4006808E+001  0.9282836E+02  0.7546771E-02  0.1296143E+00
          1   -1    0    0  501    0  0.00000000000E+00  0.00000000000E+00  0.13400243772E+04  0.13400243772E+04  0.00000000000E+00 0. -1.
         -1   -1    0    0    0  501 -0.00000000000E+00 -0.00000000000E+00 -0.16076395346E+01  0.16076395346E+01  0.00000000000E+00 0.  1.
         23    2    1    2    0    0  0.00000000000E+00  0.00000000000E+00  0.13384167377E+04  0.13416320167E+04  0.92828361314E+02 0.  0.
          2    1    3    3  502    0 -0.35376429629E+02 -0.19074522150E+02  0.10047340434E+04  0.10055375811E+04  0.00000000000E+00 0. -1.
         -2    1    3    3    0  502  0.35376429629E+02  0.19074522150E+02  0.33368269429E+03  0.33609443559E+03  0.00000000000E+00 0.  1.
<mgrwt>
<rscale>  0 0.92828361E+02</rscale>
<asrwt>0</asrwt>
<pdfrwt beam="1">  1        1 0.20615670E+00 0.92828361E+02</pdfrwt>
<pdfrwt beam="2">  1       -1 0.24733023E-03 0.92828361E+02</pdfrwt>
<totfact> 0.11429153E+05</totfact>
</mgrwt>
</event>
<event>
 5    1  0.4006808E+001  0.9123024E+02  0.7546771E-02  0.1299900E+00
          2   -1    0    0  501    0  0.00000000000E+00  0.00000000000E+00  0.18196467995E+04  0.18196467995E+04  0.00000000000E+00 0. -1.
         -2   -1    0    0    0  501 -0.00000000000E+00 -0.00000000000E+00 -0.11434852664E+01  0.11434852664E+01  0.00000000000E+00 0.  1.
         23    2    1    2    0    0  0.00000000000E+00  0.00000000000E+00  0.18185033142E+04  0.18207902848E+04  0.91230242907E+02 0.  0.
          2    1    3    3  502    0 -0.32858613386E+01  0.25142848992E+02  0.16660274811E+04  0.16662204319E+04  0.00000000000E+00 0. -1.
         -2    1    3    3    0  502  0.32858613386E+01 -0.25142848992E+02  0.15247583312E+03  0.15456985290E+03  0.00000000000E+00 0.  1.
<mgrwt>
<rscale>  0 0.91230243E+02</rscale>
<asrwt>0</asrwt>
<pdfrwt beam="1">  1        2 0.27994334E+00 0.91230243E+02</pdfrwt>
<pdfrwt beam="2">  1       -2 0.17592227E-03 0.91230243E+02</pdfrwt>
<totfact> 0.21236754E+05</totfact>
</mgrwt>
</event>
<event>
 5    1  0.4006808E+001  0.9027598E+02  0.7546771E-02  0.1302185E+00
         -3   -1    0    0    0  501 -0.00000000000E+00  0.00000000000E+00  0.37999967005E+02  0.37999967005E+02  0.00000000000E+00 0.  1.
          3   -1    0    0  501    0  0.00000000000E+00 -0.00000000000E+00 -0.53616834897E+02  0.53616834897E+02  0.00000000000E+00 0. -1.
         23    2    1    2    0    0  0.00000000000E+00  0.00000000000E+00 -0.15616867892E+02  0.91616801901E+02  0.90275975918E+02 0.  0.
          2    1    3    3  502    0  0.14866385883E+02 -0.33753179436E+02 -0.34217061265E+02  0.50309977468E+02  0.00000000000E+00 0. -1.
         -2    1    3    3    0  502 -0.14866385883E+02  0.33753179436E+02  0.18600193373E+02  0.41306824433E+02  0.00000000000E+00 0.  1.
<mgrwt>
<rscale>  0 0.90275976E+02</rscale>
<asrwt>0</asrwt>
<pdfrwt beam="2">  1        3 0.82487439E-02 0.90275976E+02</pdfrwt>
<pdfrwt beam="1">  1       -3 0.58461487E-02 0.90275976E+02</pdfrwt>
<totfact> 0.36271296E+04</totfact>
</mgrwt>
</event>
<event>
 5    1  0.4006808E+001  0.8374641E+02  0.7546771E-02  0.1318744E+00
          1   -1    0    0  501    0  0.00000000000E+00  0.00000000000E+00  0.74781767263E+03  0.74781767263E+03  0.00000000000E+00 0. -1.
         -1   -1    0    0    0  501 -0.00000000000E+00 -0.00000000000E+00 -0.23446425335E+01  0.23446425335E+01  0.00000000000E+00 0.  1.
         23    2    1    2    0    0  0.00000000000E+00  0.00000000000E+00  0.74547303009E+03  0.75016231516E+03  0.83746405835E+02 0.  0.
          2    1    3    3  502    0  0.28744249324E+02  0.20225676588E+02  0.57661768155E+03  0.57768785736E+03  0.00000000000E+00 0. -1.
         -2    1    3    3    0  502 -0.28744249324E+02 -0.20225676588E+02  0.16885534854E+03  0.17247445780E+03  0.00000000000E+00 0.  1.
<mgrwt>
<rscale>  0 0.83746406E+02</rscale>
<asrwt>0</asrwt>
<pdfrwt beam="1">  1        1 0.11504868E+00 0.83746406E+02</pdfrwt>
<pdfrwt beam="2">  1       -1 0.36071483E-03 0.83746406E+02</pdfrwt>
<totfact> 0.17753069E+05</totfact>
</mgrwt>
</event>
<event>
 5    1  0.4006808E+001  0.1187833E+03  0.7546771E-02  0.1245118E+00
          2   -1    0    0  501    0  0.00000000000E+00  0.00000000000E+00  0.53623441774E+03  0.53623441774E+03  0.00000000000E+00 0. -1.
         -2   -1    0    0    0  501 -0.00000000000E+00 -0.00000000000E+00 -0.65780363382E+01  0.65780363382E+01  0.00000000000E+00 0.  1.
         23    2    1    2    0    0  0.00000000000E+00  0.00000000000E+00  0.52965638140E+03  0.54281245408E+03  0.11878332350E+03 0.  0.
          2    1    3    3  502    0 -0.17706200283E+02 -0.55005986032E+02  0.32751928093E+03  0.33257788172E+03  0.00000000000E+00 0. -1.
         -2    1    3    3    0  502  0.17706200283E+02  0.55005986032E+02  0.20213710047E+03  0.21023457236E+03  0.00000000000E+00 0.  1.
<mgrwt>
<rscale>  0 0.11878332E+03</rscale>
<asrwt>0</asrwt>
<pdfrwt beam="1">  1        2 0.82497568E-01 0.11878332E+03</pdfrwt>
<pdfrwt beam="2">  1       -2 0.10120060E-02 0.11878332E+03</pdfrwt>
<totfact> 0.10841858E+05</totfact>
</mgrwt>
</event>
<event>
 5    1  0.4006808E+001  0.8939214E+02  0.7546771E-02  0.1304330E+00
          2   -1    0    0  501    0  0.00000000000E+00  0.00000000000E+00  0.74435297905E+03  0.74435297905E+03  0.00000000000E+00 0. -1.
         -2   -1    0    0    0  501 -0.00000000000E+00 -0.00000000000E+00 -0.26838595276E+01  0.26838595276E+01  0.00000000000E+00 0.  1.
         23    2    1    2    0    0  0.00000000000E+00  0.00000000000E+00  0.74166911952E+03  0.74703683857E+03  0.89392143608E+02 0.  0.
          2    1    3    3  502    0 -0.26353227694E+02  0.10202428543E+02  0.66022263542E+03  0.66082714115E+03  0.00000000000E+00 0. -1.
         -2    1    3    3    0  502  0.26353227694E+02 -0.10202428543E+02  0.81446484100E+02  0.86209697426E+02  0.00000000000E+00 0.  1.
<mgrwt>
<rscale>  0 0.89392144E+02</rscale>
<asrwt>0</asrwt>
<pdfrwt beam="1">  1        2 0.11451568E+00 0.89392144E+02</pdfrwt>
<pdfrwt beam="2">  1       -2 0.41290206E-03 0.89392144E+02</pdfrwt>
<totfact> 0.25322766E+05</totfact>
</mgrwt>
</event>
<event>
 5    1  0.4006808E+001  0.9048856E+02  0.7546771E-02  0.1301673E+00
         -1   -1    0    0    0  501 -0.00000000000E+00  0.00000000000E+00  0.12529312000E+03  0.12529312000E+03  0.00000000000E+00 0.  1.
          1   -1    0    0  501    0  0.00000000000E+00 -0.00000000000E+00 -0.16338045756E+02  0.16338045756E+02  0.00000000000E+00 0. -1.
         23    2    1    2    0    0  0.00000000000E+00  0.00000000000E+00  0.10895507424E+03  0.14163116575E+03  0.90488556788E+02 0.  0.
          2    1    3    3  502    0  0.28381868970E+01  0.23014346484E+02 -0.63299654025E+01  0.24037136080E+02  0.00000000000E+00 0. -1.
         -2    1    3    3    0  502 -0.28381868970E+01 -0.23014346484E+02  0.11528503964E+03  0.11759402967E+03  0.00000000000E+00 0.  1.
<mgrwt>
<rscale>  0 0.90488557E+02</rscale>
<asrwt>0</asrwt>
<pdfrwt beam="2">  1        1 0.25135456E-02 0.90488557E+02</pdfrwt>
<pdfrwt beam="1">  1       -1 0.19275864E-01 0.90488557E+02</pdfrwt>
<totfact> 0.79371222E+04</totfact>
</mgrwt>
</event>
<event>
 5    1  0.4006808E+001  0.9118130E+02  0.7546771E-02  0.1300016E+00
         -1   -1    0    0    0  501 -0.00000000000E+00  0.00000000000E+00  0.14696341334E+02  0.14696341334E+02  0.00000000000E+00 0.  1.
          1   -1    0    0  501    0  0.00000000000E+00 -0.00000000000E+00 -0.14143025484E+03  0.14143025484E+03  0.00000000000E+00 0. -1.
         23    2    1    2    0    0  0.00000000000E+00  0.00000000000E+00 -0.12673391350E+03  0.15612659617E+03  0.91181298521E+02 0.  0.
          2    1    3    3  502    0  0.40070867917E+02 -0.17023608327E+02 -0.86531929233E+02  0.96867189868E+02  0.00000000000E+00 0. -1.
         -2    1    3    3    0  502 -0.40070867917E+02  0.17023608327E+02 -0.40201984271E+02  0.59259406304E+02  0.00000000000E+00 0.  1.
<mgrwt>
<rscale>  0 0.91181299E+02</rscale>
<asrwt>0</asrwt>
<pdfrwt beam="2">  1        1 0.21758502E-01 0.91181299E+02</pdfrwt>
<pdfrwt beam="1">  1       -1 0.22609755E-02 0.91181299E+02</pdfrwt>
<totfact> 0.11091954E+05</totfact>
</mgrwt>
</event>
<event>
 5    1  0.4006808E+001  0.9099036E+02  0.7546771E-02  0.1300471E+00
          2   -1    0    0  501    0  0.00000000000E+00  0.00000000000E+00  0.14899189569E+03  0.14899189569E+03  0.00000000000E+00 0. -1.
         -2   -1    0    0    0  501 -0.00000000000E+00 -0.00000000000E+00 -0.13892107754E+02  0.13892107754E+02  0.00000000000E+00 0.  1.
         23    2    1    2    0    0  0.00000000000E+00  0.00000000000E+00  0.13509978794E+03  0.16288400345E+03  0.90990361454E+02 0.  0.
          2    1    3    3  502    0 -0.39003104029E+01  0.33823153821E+02  0.12156873639E+03  0.12624648836E+03  0.00000000000E+00 0. -1.
         -2    1    3    3    0  502  0.39003104029E+01 -0.33823153821E+02  0.13531051546E+02  0.36637515084E+02  0.00000000000E+00 0.  1.
<mgrwt>
<rscale>  0 0.90990361E+02</rscale>
<asrwt>0</asrwt>
<pdfrwt beam="1">  1        2 0.22921829E-01 0.90990361E+02</pdfrwt>
<pdfrwt beam="2">  1       -2 0.21372475E-02 0.90990361E+02</pdfrwt>
<totfact> 0.14026732E+05</totfact>
</mgrwt>
</event>
<event>
 5    1  0.4006808E+001  0.9179961E+02  0.7546771E-02  0.1298551E+00
         -1   -1    0    0    0  501 -0.00000000000E+00  0.00000000000E+00  0.52200325378E+01  0.52200325378E+01  0.00000000000E+00 0.  1.
          1   -1    0    0  501    0  0.00000000000E+00 -0.00000000000E+00 -0.40359747872E+03  0.40359747872E+03  0.00000000000E+00 0. -1.
         23    2    1    2    0    0  0.00000000000E+00  0.00000000000E+00 -0.39837744618E+03  0.40881751126E+03  0.91799607213E+02 0.  0.
          2    1    3    3  502    0 -0.78358657988E+01 -0.37464038687E+02 -0.31201260443E+03  0.31435142804E+03  0.00000000000E+00 0. -1.
         -2    1    3    3    0  502  0.78358657988E+01  0.37464038687E+02 -0.86364841748E+02  0.94466083214E+02  0.00000000000E+00 0.  1.
<mgrwt>
<rscale>  0 0.91799607E+02</rscale>
<asrwt>0</asrwt>
<pdfrwt beam="2">  1        1 0.62091939E-01 0.91799607E+02</pdfrwt>
<pdfrwt beam="1">  1       -1 0.80308168E-03 0.91799607E+02</pdfrwt>
<totfact> 0.13266704E+05</totfact>
</mgrwt>
</event>
<event>
 5    1  0.4006808E+001  0.9022087E+02  0.7546771E-02  0.1302318E+00
         -4   -1    0    0    0  501 -0.00000000000E+00  0.00000000000E+00  0.40555784327E+03  0.40555784327E+03  0.00000000000E+00 0.  1.
          4   -1    0    0  501    0  0.00000000000E+00 -0.00000000000E+00 -0.50176602560E+01  0.50176602560E+01  0.00000000000E+00 0. -1.
         23    2    1    2    0    0  0.00000000000E+00  0.00000000000E+00  0.40054018301E+03  0.41057550352E+03  0.90220872788E+02 0.  0.
          2    1    3    3  502    0 -0.17827109281E+02 -0.40274300772E+02  0.15588507230E+03  0.16198759488E+03  0.00000000000E+00 0. -1.
         -2    1    3    3    0  502  0.17827109281E+02  0.40274300772E+02  0.24465511071E+03  0.24858790865E+03  0.00000000000E+00 0.  1.
<mgrwt>
<rscale>  0 0.90220873E+02</rscale>
<asrwt>0</asrwt>
<pdfrwt beam="2">  1        4 0.77194805E-03 0.90220873E+02</pdfrwt>
<pdfrwt beam="1">  1       -4 0.62393489E-01 0.90220873E+02</pdfrwt>
<totfact> 0.15326464E+04</totfact>
</mgrwt>
</event>
<event>
 5    1  0.4006808E+001  0.1070825E+03  0.7546771E-02  0.1266070E+00
          1   -1    0    0  501    0  0.00000000000E+00  0.00000000000E+00  0.30243096226E+02  0.30243096226E+02  0.00000000000E+00 0. -1.
         -1   -1    0    0    0  501 -0.00000000000E+00 -0.00000000000E+00 -0.94787487980E+02  0.94787487980E+02  0.00000000000E+00 0.  1.
         23    2    1    2    0    0  0.00000000000E+00  0.00000000000E+00 -0.64544391754E+02  0.12503058421E+03  0.10708253116E+03 0.  0.
          2    1    3    3  502    0 -0.22267654698E+02  0.25243177528E+02  0.16343013923E+02  0.37418719400E+02  0.00000000000E+00 0. -1.
         -2    1    3    3    0  502  0.22267654698E+02 -0.25243177528E+02 -0.80887405677E+02  0.87611864805E+02  0.00000000000E+00 0.  1.
<mgrwt>
<rscale>  0 0.10708253E+03</rscale>
<asrwt>0</asrwt>
<pdfrwt beam="1">  1        1 0.46527841E-02 0.10708253E+03</pdfrwt>
<pdfrwt beam="2">  1       -1 0.14582690E-01 0.10708253E+03</pdfrwt>
<totfact> 0.54291500E+04</totfact>
</mgrwt>
</event>
<event>
 5    1  0.4006808E+001  0.9204148E+02  0.7546771E-02  0.1297982E+00
          2   -1    0    0  501    0  0.00000000000E+00  0.00000000000E+00  0.77666451642E+03  0.77666451642E+03  0.00000000000E+00 0. -1.
         -2   -1    0    0    0  501 -0.00000000000E+00 -0.00000000000E+00 -0.27269284052E+01  0.27269284052E+01  0.00000000000E+00 0.  1.
         23    2    1    2    0    0  0.00000000000E+00  0.00000000000E+00  0.77393758801E+03  0.77939144482E+03  0.92041480456E+02 0.  0.
          2    1    3    3  502    0 -0.31504097302E+02 -0.33341859575E+02  0.35560262283E+03  0.35854903864E+03  0.00000000000E+00 0. -1.
         -2    1    3    3    0  502  0.31504097302E+02  0.33341859575E+02  0.41833496518E+03  0.42084240618E+03  0.00000000000E+00 0.  1.
<mgrwt>
<rscale>  0 0.92041480E+02</rscale>
<asrwt>0</asrwt>
<pdfrwt beam="1">  1        2 0.11948667E+00 0.92041480E+02</pdfrwt>
<pdfrwt beam="2">  1       -2 0.41952807E-03 0.92041480E+02</pdfrwt>
<totfact> 0.23646472E+05</totfact>
</mgrwt>
</event>
<event>
 5    1  0.4006808E+001  0.8561052E+02  0.7546771E-02  0.1313844E+00
          1   -1    0    0  501    0  0.00000000000E+00  0.00000000000E+00  0.43728390643E+03  0.43728390643E+03  0.00000000000E+00 0. -1.
         -1   -1    0    0    0  501 -0.00000000000E+00 -0.00000000000E+00 -0.41901612429E+01  0.41901612429E+01  0.00000000000E+00 0.  1.
         23    2    1    2    0    0  0.00000000000E+00  0.00000000000E+00  0.43309374518E+03  0.44147406767E+03  0.85610515168E+02 0.  0.
          2    1    3    3  502    0  0.39862536109E+02  0.14045006346E+02  0.18156961599E+03  0.18642373626E+03  0.00000000000E+00 0. -1.
         -2    1    3    3    0  502 -0.39862536109E+02 -0.14045006346E+02  0.25152412919E+03  0.25505033141E+03  0.00000000000E+00 0.  1.
<mgrwt>
<rscale>  0 0.85610515E+02</rscale>
<asrwt>0</asrwt>
<pdfrwt beam="1">  1        1 0.67274411E-01 0.85610515E+02</pdfrwt>
<pdfrwt beam="2">  1       -1 0.64464054E-03 0.85610515E+02</pdfrwt>
<totfact> 0.16157240E+05</totfact>
</mgrwt>
</event>
<event>
 5    1  0.4006808E+001  0.9149674E+02  0.7546771E-02  0.1299267E+00
         -3   -1    0    0    0  501 -0.00000000000E+00  0.00000000000E+00  0.69558105766E+03  0.69558105766E+03  0.00000000000E+00 0.  1.
          3   -1    0    0  501    0  0.00000000000E+00 -0.00000000000E+00 -0.30088702527E+01  0.30088702527E+01  0.00000000000E+00 0. -1.
         23    2    1    2    0    0  0.00000000000E+00  0.00000000000E+00  0.69257218741E+03  0.69858992791E+03  0.91496735521E+02 0.  0.
          2    1    3    3  502    0  0.10787640575E+01  0.34959299889E+02  0.12113416063E+03  0.12608251763E+03  0.00000000000E+00 0. -1.
         -2    1    3    3    0  502 -0.10787640575E+01 -0.34959299889E+02  0.57143802677E+03  0.57250741028E+03  0.00000000000E+00 0.  1.
<mgrwt>
<rscale>  0 0.91496736E+02</rscale>
<asrwt>0</asrwt>
<pdfrwt beam="2">  1        3 0.46290367E-03 0.91496736E+02</pdfrwt>
<pdfrwt beam="1">  1       -3 0.10701234E+00 0.91496736E+02</pdfrwt>
<totfact> 0.13782245E+04</totfact>
</mgrwt>
</event>
<event>
 5    1  0.4006808E+001  0.9173120E+02  0.7546771E-02  0.1298713E+00
         -2   -1    0    0    0  501 -0.00000000000E+00  0.00000000000E+00  0.37854913402E+02  0.37854913402E+02  0.00000000000E+00 0. -1.
          2   -1    0    0  501    0  0.00000000000E+00 -0.00000000000E+00 -0.55571474928E+02  0.55571474928E+02  0.00000000000E+00 0.  1.
         23    2    1    2    0    0  0.00000000000E+00  0.00000000000E+00 -0.17716561526E+02  0.93426388330E+02  0.91731202347E+02 0.  0.
          2    1    3    3  502    0  0.18792101072E+00  0.45599107467E+02 -0.38336066682E+01  0.45760359004E+02  0.00000000000E+00 0. -1.
         -2    1    3    3    0  502 -0.18792101072E+00 -0.45599107467E+02 -0.13882954858E+02  0.47666029326E+02  0.00000000000E+00 0.  1.
<mgrwt>
<rscale>  0 0.91731202E+02</rscale>
<asrwt>0</asrwt>
<pdfrwt beam="2">  1        2 0.85494577E-02 0.91731202E+02</pdfrwt>
<pdfrwt beam="1">  1       -2 0.58238328E-02 0.91731202E+02</pdfrwt>
<totfact> 0.10215212E+05</totfact>
</mgrwt>
</event>
<event>
 5    1  0.4006808E+001  0.8936134E+02  0.7546771E-02  0.1304406E+00
         -2   -1    0    0    0  501 -0.00000000000E+00  0.00000000000E+00  0.14783545168E+03  0.14783545168E+03  0.00000000000E+00 0.  1.
          2   -1    0    0  501    0  0.00000000000E+00 -0.00000000000E+00 -0.13503948348E+02  0.13503948348E+02  0.00000000000E+00 0. -1.
         23    2    1    2    0    0  0.00000000000E+00  0.00000000000E+00  0.13433150333E+03  0.16133940002E+03  0.89361340711E+02 0.  0.
          2    1    3    3  502    0  0.28554907141E+02  0.31806186844E+02  0.90660906429E+02  0.10023181230E+03  0.00000000000E+00 0.  1.
         -2    1    3    3    0  502 -0.28554907141E+02 -0.31806186844E+02  0.43670596900E+02  0.61107587720E+02  0.00000000000E+00 0. -1.
<mgrwt>
<rscale>  0 0.89361341E+02</rscale>
<asrwt>0</asrwt>
<pdfrwt beam="2">  1        2 0.20775306E-02 0.89361341E+02</pdfrwt>
<pdfrwt beam="1">  1       -2 0.22743914E-01 0.89361341E+02</pdfrwt>
<totfact> 0.73888726E+04</totfact>
</mgrwt>
</event>
<event>
 5    1  0.4006808E+001  0.8508910E+02  0.7546771E-02  0.1315200E+00
          3   -1    0    0  501    0  0.00000000000E+00  0.00000000000E+00  0.17047532984E+03  0.17047532984E+03  0.00000000000E+00 0. -1.
         -3   -1    0    0    0  501 -0.00000000000E+00 -0.00000000000E+00 -0.10617598965E+02  0.10617598965E+02  0.00000000000E+00 0.  1.
         23    2    1    2    0    0  0.00000000000E+00  0.00000000000E+00  0.15985773088E+03  0.18109292881E+03  0.85089098850E+02 0.  0.
          2    1    3    3  502    0 -0.41035299430E+02 -0.10861414873E+02  0.73844623840E+02  0.85175669076E+02  0.00000000000E+00 0. -1.
         -2    1    3    3    0  502  0.41035299430E+02  0.10861414873E+02  0.86013107039E+02  0.95917259734E+02  0.00000000000E+00 0.  1.
<mgrwt>
<rscale>  0 0.85089099E+02</rscale>
<asrwt>0</asrwt>
<pdfrwt beam="1">  1        3 0.26226972E-01 0.85089099E+02</pdfrwt>
<pdfrwt beam="2">  1       -3 0.16334769E-02 0.85089099E+02</pdfrwt>
<totfact> 0.35525950E+04</totfact>
</mgrwt>
</event>
<event>
 5    1  0.4006808E+001  0.9495100E+02  0.7546771E-02  0.1291286E+00
          3   -1    0    0  501    0  0.00000000000E+00  0.00000000000E+00  0.10695934995E+02  0.10695934995E+02  0.00000000000E+00 0. -1.
         -3   -1    0    0    0  501 -0.00000000000E+00 -0.00000000000E+00 -0.21072708575E+03  0.21072708575E+03  0.00000000000E+00 0.  1.
         23    2    1    2    0    0  0.00000000000E+00  0.00000000000E+00 -0.20003115075E+03  0.22142302074E+03  0.94951002330E+02 0.  0.
          2    1    3    3  502    0 -0.26306504482E+02  0.30177013669E+02 -0.40505105733E+02  0.56950398792E+02  0.00000000000E+00 0. -1.
         -2    1    3    3    0  502  0.26306504482E+02 -0.30177013669E+02 -0.15952604502E+03  0.16447262195E+03  0.00000000000E+00 0.  1.
<mgrwt>
<rscale>  0 0.94951002E+02</rscale>
<asrwt>0</asrwt>
<pdfrwt beam="1">  1        3 0.16455284E-02 0.94951002E+02</pdfrwt>
<pdfrwt beam="2">  1       -3 0.32419552E-01 0.94951002E+02</pdfrwt>
<totfact> 0.24575984E+04</totfact>
</mgrwt>
</event>
<event>
 5    1  0.4006808E+001  0.9022633E+02  0.7546771E-02  0.1302305E+00
          4   -1    0    0  501    0  0.00000000000E+00  0.00000000000E+00  0.42102620767E+03  0.42102620767E+03  0.00000000000E+00 0. -1.
         -4   -1    0    0    0  501 -0.00000000000E+00 -0.00000000000E+00 -0.48338979014E+01  0.48338979014E+01  0.00000000000E+00 0.  1.
         23    2    1    2    0    0  0.00000000000E+00  0.00000000000E+00  0.41619230977E+03  0.42586010557E+03  0.90226331006E+02 0.  0.
          2    1    3    3  502    0 -0.43180197381E+02  0.12546903877E+02  0.22527264303E+03  0.22971660354E+03  0.00000000000E+00 0. -1.
         -2    1    3    3    0  502  0.43180197381E+02 -0.12546903877E+02  0.19091966674E+03  0.19614350204E+03  0.00000000000E+00 0.  1.
<mgrwt>
<rscale>  0 0.90226331E+02</rscale>
<asrwt>0</asrwt>
<pdfrwt beam="1">  1        4 0.64773234E-01 0.90226331E+02</pdfrwt>
<pdfrwt beam="2">  1       -4 0.74367693E-03 0.90226331E+02</pdfrwt>
<totfact> 0.14972458E+04</totfact>
</mgrwt>
</event>
<event>
 5    1  0.4006808E+001  0.9027628E+02  0.7546771E-02  0.1302184E+00
         -1   -1    0    0    0  501 -0.00000000000E+00  0.00000000000E+00  0.47942746938E+02  0.47942746938E+02  0.00000000000E+00 0.  1.
          1   -1    0    0  501    0  0.00000000000E+00 -0.00000000000E+00 -0.42497604639E+02  0.42497604639E+02  0.00000000000E+00 0. -1.
         23    2    1    2    0    0  0.00000000000E+00  0.00000000000E+00  0.54451422988E+01  0.90440351577E+02  0.90276284918E+02 0.  0.
          2    1    3    3  502    0 -0.42143625784E+02  0.34153506832E+01 -0.13108111842E+02  0.44267057848E+02  0.00000000000E+00 0. -1.
         -2    1    3    3    0  502  0.42143625784E+02 -0.34153506832E+01  0.18553254141E+02  0.46173293728E+02  0.00000000000E+00 0.  1.
<mgrwt>
<rscale>  0 0.90276285E+02</rscale>
<asrwt>0</asrwt>
<pdfrwt beam="2">  1        1 0.65380930E-02 0.90276285E+02</pdfrwt>
<pdfrwt beam="1">  1       -1 0.73758072E-02 0.90276285E+02</pdfrwt>
<totfact> 0.94089252E+04</totfact>
</mgrwt>
</event>
<event>
 5    1  0.4006808E+001  0.9025435E+02  0.7546771E-02  0.1302237E+00
          2   -1    0    0  501    0  0.00000000000E+00  0.00000000000E+00  0.34673693635E+02  0.34673693635E+02  0.00000000000E+00 0.  1.
         -2   -1    0    0    0  501 -0.00000000000E+00 -0.00000000000E+00 -0.58732192820E+02  0.58732192820E+02  0.00000000000E+00 0. -1.
         23    2    1    2    0    0  0.00000000000E+00  0.00000000000E+00 -0.24058499185E+02  0.93405886455E+02  0.90254353033E+02 0.  0.
          2    1    3    3  502    0  0.30804112789E+02 -0.10807341455E+01 -0.46140772526E+02  0.55489028108E+02  0.00000000000E+00 0. -1.
         -2    1    3    3    0  502 -0.30804112789E+02  0.10807341455E+01  0.22082273341E+02  0.37916858347E+02  0.00000000000E+00 0.  1.
<mgrwt>
<rscale>  0 0.90254353E+02</rscale>
<asrwt>0</asrwt>
<pdfrwt beam="1">  1        2 0.53344145E-02 0.90254353E+02</pdfrwt>
<pdfrwt beam="2">  1       -2 0.90357219E-02 0.90254353E+02</pdfrwt>
<totfact> 0.94687390E+04</totfact>
</mgrwt>
</event>
<event>
 5    1  0.4006808E+001  0.9082532E+02  0.7546771E-02  0.1300865E+00
         -1   -1    0    0    0  501 -0.00000000000E+00  0.00000000000E+00  0.24057182253E+02  0.24057182253E+02  0.00000000000E+00 0.  1.
          1   -1    0    0  501    0  0.00000000000E+00 -0.00000000000E+00 -0.85725323674E+02  0.85725323674E+02  0.00000000000E+00 0. -1.
         23    2    1    2    0    0  0.00000000000E+00  0.00000000000E+00 -0.61668141421E+02  0.10978250593E+03  0.90825321037E+02 0.  0.
          2    1    3    3  502    0 -0.40524845419E+02 -0.19337718219E+02 -0.22627280501E+02  0.50281251625E+02  0.00000000000E+00 0. -1.
         -2    1    3    3    0  502  0.40524845419E+02  0.19337718219E+02 -0.39040860920E+02  0.59501254302E+02  0.00000000000E+00 0.  1.
<mgrwt>
<rscale>  0 0.90825321E+02</rscale>
<asrwt>0</asrwt>
<pdfrwt beam="2">  1        1 0.13188511E-01 0.90825321E+02</pdfrwt>
<pdfrwt beam="1">  1       -1 0.37011050E-02 0.90825321E+02</pdfrwt>
<totfact> 0.10294066E+05</totfact>
</mgrwt>
</event>
<event>
 5    1  0.4006808E+001  0.9225261E+02  0.7546771E-02  0.1297487E+00
         -1   -1    0    0    0  501 -0.00000000000E+00  0.00000000000E+00  0.10254828697E+02  0.10254828697E+02  0.00000000000E+00 0.  1.
          1   -1    0    0  501    0  0.00000000000E+00 -0.00000000000E+00 -0.20747649054E+03  0.20747649054E+03  0.00000000000E+00 0. -1.
         23    2    1    2    0    0  0.00000000000E+00  0.00000000000E+00 -0.19722166184E+03  0.21773131924E+03  0.92252606881E+02 0.  0.
          2    1    3    3  502    0  0.37490619144E+02  0.19486521882E+02 -0.54940466463E+02  0.69308916555E+02  0.00000000000E+00 0. -1.
         -2    1    3    3    0  502 -0.37490619144E+02 -0.19486521882E+02 -0.14228119538E+03  0.14842240268E+03  0.00000000000E+00 0.  1.
<mgrwt>
<rscale>  0 0.92252607E+02</rscale>
<asrwt>0</asrwt>
<pdfrwt beam="2">  1        1 0.31919457E-01 0.92252607E+02</pdfrwt>
<pdfrwt beam="1">  1       -1 0.15776661E-02 0.92252607E+02</pdfrwt>
<totfact> 0.11555753E+05</totfact>
</mgrwt>
</event>
<event>
 5    1  0.4006808E+001  0.6997740E+02  0.7546771E-02  0.1360170E+00
          1   -1    0    0  501    0  0.00000000000E+00  0.00000000000E+00  0.30783485539E+01  0.30783485539E+01  0.00000000000E+00 0. -1.
         -1   -1    0    0    0  501 -0.00000000000E+00 -0.00000000000E+00 -0.39768370819E+03  0.39768370819E+03  0.00000000000E+00 0.  1.
         23    2    1    2    0    0  0.00000000000E+00  0.00000000000E+00 -0.39460535964E+03  0.40076205675E+03  0.69977398295E+02 0.  0.
          2    1    3    3  502    0  0.34416809647E+02  0.15991211913E+01 -0.16240303045E+03  0.16601752399E+03  0.00000000000E+00 0. -1.
         -2    1    3    3    0  502 -0.34416809647E+02 -0.15991211913E+01 -0.23220232919E+03  0.23474453275E+03  0.00000000000E+00 0.  1.
<mgrwt>
<rscale>  0 0.69977398E+02</rscale>
<asrwt>0</asrwt>
<pdfrwt beam="1">  1        1 0.47359214E-03 0.69977398E+02</pdfrwt>
<pdfrwt beam="2">  1       -1 0.61182103E-01 0.69977398E+02</pdfrwt>
<totfact> 0.10612397E+05</totfact>
</mgrwt>
</event>
<event>
 5    1  0.4006808E+001  0.8770395E+02  0.7546771E-02  0.1308509E+00
         -1   -1    0    0    0  501 -0.00000000000E+00  0.00000000000E+00  0.13678991442E+01  0.13678991442E+01  0.00000000000E+00 0.  1.
          1   -1    0    0  501    0  0.00000000000E+00 -0.00000000000E+00 -0.14058022161E+04  0.14058022161E+04  0.00000000000E+00 0. -1.
         23    2    1    2    0    0  0.00000000000E+00  0.00000000000E+00 -0.14044343170E+04  0.14071701152E+04  0.87703948560E+02 0.  0.
          2    1    3    3  502    0 -0.78391627713E+01 -0.36253763184E+02 -0.32689551575E+03  0.32899310941E+03  0.00000000000E+00 0. -1.
         -2    1    3    3    0  502  0.78391627713E+01  0.36253763184E+02 -0.10775388012E+04  0.10781770058E+04  0.00000000000E+00 0.  1.
<mgrwt>
<rscale>  0 0.87703949E+02</rscale>
<asrwt>0</asrwt>
<pdfrwt beam="2">  1        1 0.21627608E+00 0.87703949E+02</pdfrwt>
<pdfrwt beam="1">  1       -1 0.21044717E-03 0.87703949E+02</pdfrwt>
<totfact> 0.12864495E+05</totfact>
</mgrwt>
</event>
<event>
 5    1  0.4006808E+001  0.8919319E+02  0.7546771E-02  0.1304817E+00
         -1   -1    0    0    0  501 -0.00000000000E+00  0.00000000000E+00  0.11273931640E+03  0.11273931640E+03  0.00000000000E+00 0.  1.
          1   -1    0    0  501    0  0.00000000000E+00 -0.00000000000E+00 -0.17641194118E+02  0.17641194118E+02  0.00000000000E+00 0. -1.
         23    2    1    2    0    0  0.00000000000E+00  0.00000000000E+00  0.95098122287E+02  0.13038051052E+03  0.89193187306E+02 0.  0.
          2    1    3    3  502    0 -0.39232562978E+02  0.19989701588E+02  0.37205094112E+02  0.57645478533E+02  0.00000000000E+00 0. -1.
         -2    1    3    3    0  502  0.39232562978E+02 -0.19989701588E+02  0.57893028175E+02  0.72735031990E+02  0.00000000000E+00 0.  1.
<mgrwt>
<rscale>  0 0.89193187E+02</rscale>
<asrwt>0</asrwt>
<pdfrwt beam="2">  1        1 0.27140299E-02 0.89193187E+02</pdfrwt>
<pdfrwt beam="1">  1       -1 0.17344510E-01 0.89193187E+02</pdfrwt>
<totfact> 0.84163042E+04</totfact>
</mgrwt>
</event>
<event>
 5    1  0.4006808E+001  0.9109944E+02  0.7546771E-02  0.1300211E+00
         -1   -1    0    0    0  501 -0.00000000000E+00  0.00000000000E+00  0.37048983723E+01  0.37048983723E+01  0.00000000000E+00 0.  1.
          1   -1    0    0  501    0  0.00000000000E+00 -0.00000000000E+00 -0.56000918427E+03  0.56000918427E+03  0.00000000000E+00 0. -1.
         23    2    1    2    0    0  0.00000000000E+00  0.00000000000E+00 -0.55630428590E+03  0.56371408264E+03  0.91099442705E+02 0.  0.
          2    1    3    3  502    0  0.10480092292E+02 -0.38630204892E+02 -0.41268053074E+03  0.41461710712E+03  0.00000000000E+00 0. -1.
         -2    1    3    3    0  502 -0.10480092292E+02  0.38630204892E+02 -0.14362375516E+03  0.14909697552E+03  0.00000000000E+00 0.  1.
<mgrwt>
<rscale>  0 0.91099443E+02</rscale>
<asrwt>0</asrwt>
<pdfrwt beam="2">  1        1 0.86155242E-01 0.91099443E+02</pdfrwt>
<pdfrwt beam="1">  1       -1 0.56998448E-03 0.91099443E+02</pdfrwt>
<totfact> 0.14119964E+05</totfact>
</mgrwt>
</event>
<event>
 5    1  0.4006808E+001  0.9776523E+02  0.7546771E-02  0.1285067E+00
         -2   -1    0    0    0  501 -0.00000000000E+00  0.00000000000E+00  0.75321282285E+03  0.75321282285E+03  0.00000000000E+00 0.  1.
          2   -1    0    0  501    0  0.00000000000E+00 -0.00000000000E+00 -0.31724232607E+01  0.31724232607E+01  0.00000000000E+00 0. -1.
         23    2    1    2    0    0  0.00000000000E+00  0.00000000000E+00  0.75004039959E+03  0.75638524611E+03  0.97765226527E+02 0.  0.
          2    1    3    3  502    0  0.42077804422E+02  0.16196198812E+02  0.22890997672E+03  0.23330802798E+03  0.00000000000E+00 0. -1.
         -2    1    3    3    0  502 -0.42077804422E+02 -0.16196198812E+02  0.52113042287E+03  0.52307721813E+03  0.00000000000E+00 0.  1.
<mgrwt>
<rscale>  0 0.97765227E+02</rscale>
<asrwt>0</asrwt>
<pdfrwt beam="2">  1        2 0.48806571E-03 0.97765227E+02</pdfrwt>
<pdfrwt beam="1">  1       -2 0.11587875E+00 0.97765227E+02</pdfrwt>
<totfact> 0.21123126E+04</totfact>
</mgrwt>
</event>
<event>
 5    1  0.4006808E+001  0.9373383E+02  0.7546771E-02  0.1294054E+00
         -2   -1    0    0    0  501 -0.00000000000E+00  0.00000000000E+00  0.70574528862E+01  0.70574528862E+01  0.00000000000E+00 0.  1.
          2   -1    0    0  501    0  0.00000000000E+00 -0.00000000000E+00 -0.31123237530E+03  0.31123237530E+03  0.00000000000E+00 0. -1.
         23    2    1    2    0    0  0.00000000000E+00  0.00000000000E+00 -0.30417492242E+03  0.31828982819E+03  0.93733832214E+02 0.  0.
          2    1    3    3  502    0 -0.89019934922E+01  0.35272716723E+02 -0.25242370340E+03  0.25503163739E+03  0.00000000000E+00 0. -1.
         -2    1    3    3    0  502  0.89019934922E+01 -0.35272716723E+02 -0.51751219021E+02  0.63258190800E+02  0.00000000000E+00 0.  1.
<mgrwt>
<rscale>  0 0.93733832E+02</rscale>
<asrwt>0</asrwt>
<pdfrwt beam="2">  1        2 0.47881908E-01 0.93733832E+02</pdfrwt>
<pdfrwt beam="1">  1       -2 0.10857619E-02 0.93733832E+02</pdfrwt>
<totfact> 0.16915847E+05</totfact>
</mgrwt>
</event>
<event>
 5    1  0.4006808E+001  0.8221172E+02  0.7546771E-02  0.1322890E+00
         -2   -1    0    0    0  501 -0.00000000000E+00  0.00000000000E+00  0.26949636445E+01  0.26949636445E+01  0.00000000000E+00 0.  1.
          2   -1    0    0  501    0  0.00000000000E+00 -0.00000000000E+00 -0.62698124681E+03  0.62698124681E+03  0.00000000000E+00 0. -1.
         23    2    1    2    0    0  0.00000000000E+00  0.00000000000E+00 -0.62428628316E+03  0.62967621045E+03  0.82211718530E+02 0.  0.
          2    1    3    3  502    0  0.16358100715E+02  0.31207970422E+02 -0.47428807931E+03  0.47559510832E+03  0.00000000000E+00 0. -1.
         -2    1    3    3    0  502 -0.16358100715E+02 -0.31207970422E+02 -0.14999820385E+03  0.15408110214E+03  0.00000000000E+00 0.  1.
<mgrwt>
<rscale>  0 0.82211719E+02</rscale>
<asrwt>0</asrwt>
<pdfrwt beam="2">  1        2 0.96458673E-01 0.82211719E+02</pdfrwt>
<pdfrwt beam="1">  1       -2 0.41460971E-03 0.82211719E+02</pdfrwt>
<totfact> 0.30267093E+05</totfact>
</mgrwt>
</event>
<event>
 5    1  0.4006808E+001  0.9552101E+02  0.7546771E-02  0.1290007E+00
         -2   -1    0    0    0  501 -0.00000000000E+00  0.00000000000E+00  0.98248090525E+01  0.98248090525E+01  0.00000000000E+00 0.  1.
          2   -1    0    0  501    0  0.00000000000E+00 -0.00000000000E+00 -0.23217407375E+03  0.23217407375E+03  0.00000000000E+00 0. -1.
         23    2    1    2    0    0  0.00000000000E+00  0.00000000000E+00 -0.22234926470E+03  0.24199888280E+03  0.95521012170E+02 0.  0.
          2    1    3    3  502    0 -0.16364679621E+02  0.44784496532E+02 -0.11816445104E+03  0.12742170677E+03  0.00000000000E+00 0. -1.
         -2    1    3    3    0  502  0.16364679621E+02 -0.44784496532E+02 -0.10418481366E+03  0.11457717603E+03  0.00000000000E+00 0.  1.
<mgrwt>
<rscale>  0 0.95521012E+02</rscale>
<asrwt>0</asrwt>
<pdfrwt beam="2">  1        2 0.35719084E-01 0.95521012E+02</pdfrwt>
<pdfrwt beam="1">  1       -2 0.15115093E-02 0.95521012E+02</pdfrwt>
<totfact> 0.14410464E+05</totfact>
</mgrwt>
</event>
<event>
 5    1  0.4006808E+001  0.9929677E+02  0.7546771E-02  0.1281782E+00
         -1   -1    0    0    0  501 -0.00000000000E+00  0.00000000000E+00  0.48818602137E+01  0.48818602137E+01  0.00000000000E+00 0.  1.
          1   -1    0    0  501    0  0.00000000000E+00 -0.00000000000E+00 -0.50492268041E+03  0.50492268041E+03  0.00000000000E+00 0. -1.
         23    2    1    2    0    0  0.00000000000E+00  0.00000000000E+00 -0.50004082020E+03  0.50980454063E+03  0.99296766201E+02 0.  0.
          2    1    3    3  502    0 -0.21889932844E+02  0.80592815034E+01 -0.47503686404E+03  0.47560923390E+03  0.00000000000E+00 0. -1.
         -2    1    3    3    0  502  0.21889932844E+02 -0.80592815034E+01 -0.25003956162E+02  0.34195306725E+02  0.00000000000E+00 0.  1.
<mgrwt>
<rscale>  0 0.99296766E+02</rscale>
<asrwt>0</asrwt>
<pdfrwt beam="2">  1        1 0.77680388E-01 0.99296766E+02</pdfrwt>
<pdfrwt beam="1">  1       -1 0.75105566E-03 0.99296766E+02</pdfrwt>
<totfact> 0.11110281E+05</totfact>
</mgrwt>
</event>
<event>
 5    1  0.4006808E+001  0.9077023E+02  0.7546771E-02  0.1300997E+00
         -1   -1    0    0    0  501 -0.00000000000E+00  0.00000000000E+00  0.36453667907E+01  0.36453667907E+01  0.00000000000E+00 0.  1.
          1   -1    0    0  501    0  0.00000000000E+00 -0.00000000000E+00 -0.56504834469E+03  0.56504834469E+03  0.00000000000E+00 0. -1.
         23    2    1    2    0    0  0.00000000000E+00  0.00000000000E+00 -0.56140297790E+03  0.56869371149E+03  0.90770225755E+02 0.  0.
          2    1    3    3  502    0 -0.25151828336E+02 -0.27111063494E+02 -0.44553513430E+03  0.44706731051E+03  0.00000000000E+00 0. -1.
         -2    1    3    3    0  502  0.25151828336E+02  0.27111063494E+02 -0.11586784361E+03  0.12162640098E+03  0.00000000000E+00 0.  1.
<mgrwt>
<rscale>  0 0.90770226E+02</rscale>
<asrwt>0</asrwt>
<pdfrwt beam="2">  1        1 0.86930479E-01 0.90770226E+02</pdfrwt>
<pdfrwt beam="1">  1       -1 0.56082589E-03 0.90770226E+02</pdfrwt>
<totfact> 0.14266488E+05</totfact>
</mgrwt>
</event>
<event>
 5    1  0.4006808E+001  0.9145689E+02  0.7546771E-02  0.1299361E+00
         -3   -1    0    0    0  501 -0.00000000000E+00  0.00000000000E+00  0.18189448911E+03  0.18189448911E+03  0.00000000000E+00 0.  1.
          3   -1    0    0  501    0  0.00000000000E+00 -0.00000000000E+00 -0.11496174782E+02  0.11496174782E+02  0.00000000000E+00 0. -1.
         23    2    1    2    0    0  0.00000000000E+00  0.00000000000E+00  0.17039831433E+03  0.19339066390E+03  0.91456893427E+02 0.  0.
          2    1    3    3  502    0 -0.11212222922E+02  0.37561903289E+02  0.13499145012E+03  0.14056778481E+03  0.00000000000E+00 0.  1.
         -2    1    3    3    0  502  0.11212222922E+02 -0.37561903289E+02  0.35406864214E+02  0.52822879087E+02  0.00000000000E+00 0. -1.
<mgrwt>
<rscale>  0 0.91456893E+02</rscale>
<asrwt>0</asrwt>
<pdfrwt beam="2">  1        3 0.17686424E-02 0.91456893E+02</pdfrwt>
<pdfrwt beam="1">  1       -3 0.27983766E-01 0.91456893E+02</pdfrwt>
<totfact> 0.28604865E+04</totfact>
</mgrwt>
</event>
<event>
 5    1  0.4006808E+001  0.9234923E+02  0.7546771E-02  0.1297260E+00
         -3   -1    0    0    0  501 -0.00000000000E+00  0.00000000000E+00  0.86473187806E+03  0.86473187806E+03  0.00000000000E+00 0.  1.
          3   -1    0    0  501    0  0.00000000000E+00 -0.00000000000E+00 -0.24656142522E+01  0.24656142522E+01  0.00000000000E+00 0. -1.
         23    2    1    2    0    0  0.00000000000E+00  0.00000000000E+00  0.86226626381E+03  0.86719749231E+03  0.92349233735E+02 0.  0.
          2    1    3    3  502    0  0.35495619739E+02 -0.27438246018E+02  0.53369900848E+03  0.53558139252E+03  0.00000000000E+00 0.  1.
         -2    1    3    3    0  502 -0.35495619739E+02  0.27438246018E+02  0.32856725533E+03  0.33161609979E+03  0.00000000000E+00 0. -1.
<mgrwt>
<rscale>  0 0.92349234E+02</rscale>
<asrwt>0</asrwt>
<pdfrwt beam="2">  1        3 0.37932596E-03 0.92349234E+02</pdfrwt>
<pdfrwt beam="1">  1       -3 0.13303543E+00 0.92349234E+02</pdfrwt>
<totfact> 0.11104865E+04</totfact>
</mgrwt>
</event>
<event>
 5    1  0.4006808E+001  0.9018496E+02  0.7546771E-02  0.1302404E+00
         -3   -1    0    0    0  501 -0.00000000000E+00  0.00000000000E+00  0.10770369531E+03  0.10770369531E+03  0.00000000000E+00 0.  1.
          3   -1    0    0  501    0  0.00000000000E+00 -0.00000000000E+00 -0.18878941431E+02  0.18878941431E+02  0.00000000000E+00 0. -1.
         23    2    1    2    0    0  0.00000000000E+00  0.00000000000E+00  0.88824753877E+02  0.12658263674E+03  0.90184960067E+02 0.  0.
          2    1    3    3  502    0 -0.24362547500E+02  0.34202483697E+02  0.21349559186E+02  0.47107826199E+02  0.00000000000E+00 0. -1.
         -2    1    3    3    0  502  0.24362547500E+02 -0.34202483697E+02  0.67475194691E+02  0.79474810539E+02  0.00000000000E+00 0.  1.
<mgrwt>
<rscale>  0 0.90184960E+02</rscale>
<asrwt>0</asrwt>
<pdfrwt beam="2">  1        3 0.29044526E-02 0.90184960E+02</pdfrwt>
<pdfrwt beam="1">  1       -3 0.16569799E-01 0.90184960E+02</pdfrwt>
<totfact> 0.33790336E+04</totfact>
</mgrwt>
</event>
<event>
 5    1  0.4006808E+001  0.9053994E+02  0.7546771E-02  0.1301549E+00
         -3   -1    0    0    0  501 -0.00000000000E+00  0.00000000000E+00  0.81655756551E+03  0.81655756551E+03  0.00000000000E+00 0.  1.
          3   -1    0    0  501    0  0.00000000000E+00 -0.00000000000E+00 -0.25097683089E+01  0.25097683089E+01  0.00000000000E+00 0. -1.
         23    2    1    2    0    0  0.00000000000E+00  0.00000000000E+00  0.81404779720E+03  0.81906733382E+03  0.90539942574E+02 0.  0.
          2    1    3    3  502    0 -0.55243670610E+01 -0.40755544084E+02  0.23589545825E+03  0.23945396264E+03  0.00000000000E+00 0. -1.
         -2    1    3    3    0  502  0.55243670610E+01  0.40755544084E+02  0.57815233895E+03  0.57961337117E+03  0.00000000000E+00 0.  1.
<mgrwt>
<rscale>  0 0.90539943E+02</rscale>
<asrwt>0</asrwt>
<pdfrwt beam="2">  1        3 0.38611885E-03 0.90539943E+02</pdfrwt>
<pdfrwt beam="1">  1       -3 0.12562403E+00 0.90539943E+02</pdfrwt>
<totfact> 0.12340884E+04</totfact>
</mgrwt>
</event>
<event>
 5    1  0.4006808E+001  0.9187050E+02  0.7546771E-02  0.1298384E+00
          2   -1    0    0  501    0  0.00000000000E+00  0.00000000000E+00  0.12726470833E+03  0.12726470833E+03  0.00000000000E+00 0.  1.
         -2   -1    0    0    0  501 -0.00000000000E+00 -0.00000000000E+00 -0.16579985891E+02  0.16579985891E+02  0.00000000000E+00 0. -1.
         23    2    1    2    0    0  0.00000000000E+00  0.00000000000E+00  0.11068472244E+03  0.14384469422E+03  0.91870497302E+02 0.  0.
          2    1    3    3  502    0 -0.37317797648E+02  0.18372278453E+02  0.24825081778E+02  0.48440100352E+02  0.00000000000E+00 0.  1.
         -2    1    3    3    0  502  0.37317797648E+02 -0.18372278453E+02  0.85859640665E+02  0.95404593873E+02  0.00000000000E+00 0. -1.
<mgrwt>
<rscale>  0 0.91870497E+02</rscale>
<asrwt>0</asrwt>
<pdfrwt beam="1">  1        2 0.19579185E-01 0.91870497E+02</pdfrwt>
<pdfrwt beam="2">  1       -2 0.25507671E-02 0.91870497E+02</pdfrwt>
<totfact> 0.12964389E+05</totfact>
</mgrwt>
</event>
<event>
 5    1  0.4006808E+001  0.9125730E+02  0.7546771E-02  0.1299835E+00
         -2   -1    0    0    0  501 -0.00000000000E+00  0.00000000000E+00  0.50239322770E+01  0.50239322770E+01  0.00000000000E+00 0. -1.
          2   -1    0    0  501    0  0.00000000000E+00 -0.00000000000E+00 -0.41441115366E+03  0.41441115366E+03  0.00000000000E+00 0.  1.
         23    2    1    2    0    0  0.00000000000E+00  0.00000000000E+00 -0.40938722139E+03  0.41943508594E+03  0.91257297151E+02 0.  0.
          2    1    3    3  502    0  0.29015510740E+02  0.29748705280E+02 -0.11808415676E+03  0.12518287984E+03  0.00000000000E+00 0. -1.
         -2    1    3    3    0  502 -0.29015510740E+02 -0.29748705280E+02 -0.29130306463E+03  0.29425220610E+03  0.00000000000E+00 0.  1.
<mgrwt>
<rscale>  0 0.91257297E+02</rscale>
<asrwt>0</asrwt>
<pdfrwt beam="2">  1        2 0.63755590E-01 0.91257297E+02</pdfrwt>
<pdfrwt beam="1">  1       -2 0.77291233E-03 0.91257297E+02</pdfrwt>
<totfact> 0.20168046E+05</totfact>
</mgrwt>
</event>
<event>
 5    1  0.4006808E+001  0.9354547E+02  0.7546771E-02  0.1294486E+00
         -1   -1    0    0    0  501 -0.00000000000E+00  0.00000000000E+00  0.11395075779E+04  0.11395075779E+04  0.00000000000E+00 0.  1.
          1   -1    0    0  501    0  0.00000000000E+00 -0.00000000000E+00 -0.19198545128E+01  0.19198545128E+01  0.00000000000E+00 0. -1.
         23    2    1    2    0    0  0.00000000000E+00  0.00000000000E+00  0.11375877234E+04  0.11414274324E+04  0.93545470565E+02 0.  0.
          2    1    3    3  502    0 -0.17094081176E+02  0.35121314278E+02  0.25485422473E+03  0.25783015765E+03  0.00000000000E+00 0. -1.
         -2    1    3    3    0  502  0.17094081176E+02 -0.35121314278E+02  0.88273349863E+03  0.88359727474E+03  0.00000000000E+00 0.  1.
<mgrwt>
<rscale>  0 0.93545471E+02</rscale>
<asrwt>0</asrwt>
<pdfrwt beam="2">  1        1 0.29536314E-03 0.93545471E+02</pdfrwt>
<pdfrwt beam="1">  1       -1 0.17530832E+00 0.93545471E+02</pdfrwt>
<totfact> 0.20228876E+04</totfact>
</mgrwt>
</event>
<event>
 5    1  0.4006808E+001  0.9084348E+02  0.7546771E-02  0.1300822E+00
          1   -1    0    0  501    0  0.00000000000E+00  0.00000000000E+00  0.35429541631E+02  0.35429541631E+02  0.00000000000E+00 0. -1.
         -1   -1    0    0    0  501 -0.00000000000E+00 -0.00000000000E+00 -0.58232040362E+02  0.58232040362E+02  0.00000000000E+00 0.  1.
         23    2    1    2    0    0  0.00000000000E+00  0.00000000000E+00 -0.22802498731E+02  0.93661581994E+02  0.90843480741E+02 0.  0.
          2    1    3    3  502    0 -0.19393489519E+02 -0.12198426957E+02  0.29035637962E+02  0.36986177524E+02  0.00000000000E+00 0. -1.
         -2    1    3    3    0  502  0.19393489519E+02  0.12198426957E+02 -0.51838136693E+02  0.56675404470E+02  0.00000000000E+00 0.  1.
<mgrwt>
<rscale>  0 0.90843481E+02</rscale>
<asrwt>0</asrwt>
<pdfrwt beam="1">  1        1 0.54506987E-02 0.90843481E+02</pdfrwt>
<pdfrwt beam="2">  1       -1 0.89587754E-02 0.90843481E+02</pdfrwt>
<totfact> 0.89923560E+04</totfact>
</mgrwt>
</event>
<event>
 5    1  0.4006808E+001  0.9384908E+02  0.7546771E-02  0.1293789E+00
          2   -1    0    0  501    0  0.00000000000E+00  0.00000000000E+00  0.22050280915E+03  0.22050280915E+03  0.00000000000E+00 0. -1.
         -2   -1    0    0    0  501 -0.00000000000E+00 -0.00000000000E+00 -0.99858693850E+01  0.99858693850E+01  0.00000000000E+00 0.  1.
         23    2    1    2    0    0  0.00000000000E+00  0.00000000000E+00  0.21051693976E+03  0.23048867853E+03  0.93849075673E+02 0.  0.
          2    1    3    3  502    0 -0.30066458474E+02 -0.21271731393E+02  0.17666852921E+03  0.18046674956E+03  0.00000000000E+00 0. -1.
         -2    1    3    3    0  502  0.30066458474E+02  0.21271731393E+02  0.33848410549E+02  0.50021928974E+02  0.00000000000E+00 0.  1.
<mgrwt>
<rscale>  0 0.93849076E+02</rscale>
<asrwt>0</asrwt>
<pdfrwt beam="1">  1        2 0.33923505E-01 0.93849076E+02</pdfrwt>
<pdfrwt beam="2">  1       -2 0.15362878E-02 0.93849076E+02</pdfrwt>
<totfact> 0.14828113E+05</totfact>
</mgrwt>
</event>
<event>
 5    1  0.4006808E+001  0.9069607E+02  0.7546771E-02  0.1301175E+00
         -4   -1    0    0    0  501 -0.00000000000E+00  0.00000000000E+00  0.22503773511E+02  0.22503773511E+02  0.00000000000E+00 0. -1.
          4   -1    0    0  501    0  0.00000000000E+00 -0.00000000000E+00 -0.91382195404E+02  0.91382195404E+02  0.00000000000E+00 0.  1.
         23    2    1    2    0    0  0.00000000000E+00  0.00000000000E+00 -0.68878421893E+02  0.11388596892E+03  0.90696068896E+02 0.  0.
          2    1    3    3  502    0  0.23962102932E+02 -0.13710382108E+02  0.10735678453E+02  0.29621136817E+02  0.00000000000E+00 0. -1.
         -2    1    3    3    0  502 -0.23962102932E+02  0.13710382108E+02 -0.79614100347E+02  0.84264832098E+02  0.00000000000E+00 0.  1.
<mgrwt>
<rscale>  0 0.90696069E+02</rscale>
<asrwt>0</asrwt>
<pdfrwt beam="2">  1        4 0.14058799E-01 0.90696069E+02</pdfrwt>
<pdfrwt beam="1">  1       -4 0.34621190E-02 0.90696069E+02</pdfrwt>
<totfact> 0.25992658E+04</totfact>
</mgrwt>
</event>
<event>
 5    1  0.4006808E+001  0.9157889E+02  0.7546771E-02  0.1299073E+00
         -1   -1    0    0    0  501 -0.00000000000E+00  0.00000000000E+00  0.79483043032E+01  0.79483043032E+01  0.00000000000E+00 0.  1.
          1   -1    0    0  501    0  0.00000000000E+00 -0.00000000000E+00 -0.26378875543E+03  0.26378875543E+03  0.00000000000E+00 0. -1.
         23    2    1    2    0    0  0.00000000000E+00  0.00000000000E+00 -0.25584045113E+03  0.27173705973E+03  0.91578890579E+02 0.  0.
          2    1    3    3  502    0 -0.24339332085E+02  0.41067697645E+01 -0.24235764665E+03  0.24361136577E+03  0.00000000000E+00 0. -1.
         -2    1    3    3    0  502  0.24339332085E+02 -0.41067697645E+01 -0.13482804480E+02  0.28125693963E+02  0.00000000000E+00 0.  1.
<mgrwt>
<rscale>  0 0.91578891E+02</rscale>
<asrwt>0</asrwt>
<pdfrwt beam="2">  1        1 0.40582889E-01 0.91578891E+02</pdfrwt>
<pdfrwt beam="1">  1       -1 0.12228159E-02 0.91578891E+02</pdfrwt>
<totfact> 0.12351254E+05</totfact>
</mgrwt>
</event>
<event>
 5    1  0.4006808E+001  0.9349123E+02  0.7546771E-02  0.1294611E+00
         -1   -1    0    0    0  501 -0.00000000000E+00  0.00000000000E+00  0.10996796061E+02  0.10996796061E+02  0.00000000000E+00 0.  1.
          1   -1    0    0  501    0  0.00000000000E+00 -0.00000000000E+00 -0.19870812644E+03  0.19870812644E+03  0.00000000000E+00 0. -1.
         23    2    1    2    0    0  0.00000000000E+00  0.00000000000E+00 -0.18771133038E+03  0.20970492250E+03  0.93491234715E+02 0.  0.
          2    1    3    3  502    0 -0.85869835581E+01  0.19275223237E+02 -0.18741726843E+03  0.18860143961E+03  0.00000000000E+00 0. -1.
         -2    1    3    3    0  502  0.85869835581E+01 -0.19275223237E+02 -0.29406194360E+00  0.21103482885E+02  0.00000000000E+00 0.  1.
<mgrwt>
<rscale>  0 0.93491235E+02</rscale>
<asrwt>0</asrwt>
<pdfrwt beam="2">  1        1 0.30570479E-01 0.93491235E+02</pdfrwt>
<pdfrwt beam="1">  1       -1 0.16918149E-02 0.93491235E+02</pdfrwt>
<totfact> 0.11055214E+05</totfact>
</mgrwt>
</event>
<event>
 5    1  0.4006808E+001  0.9354652E+02  0.7546771E-02  0.1294484E+00
         -1   -1    0    0    0  501 -0.00000000000E+00  0.00000000000E+00  0.43206579966E+01  0.43206579966E+01  0.00000000000E+00 0.  1.
          1   -1    0    0  501    0  0.00000000000E+00 -0.00000000000E+00 -0.50634366904E+03  0.50634366904E+03  0.00000000000E+00 0. -1.
         23    2    1    2    0    0  0.00000000000E+00  0.00000000000E+00 -0.50202301104E+03  0.51066432703E+03  0.93546519393E+02 0.  0.
          2    1    3    3  502    0 -0.22294407409E+02  0.26749283364E+02 -0.42148180935E+03  0.42291781752E+03  0.00000000000E+00 0. -1.
         -2    1    3    3    0  502  0.22294407409E+02 -0.26749283364E+02 -0.80541201687E+02  0.87746509511E+02  0.00000000000E+00 0.  1.
<mgrwt>
<rscale>  0 0.93546519E+02</rscale>
<asrwt>0</asrwt>
<pdfrwt beam="2">  1        1 0.77899069E-01 0.93546519E+02</pdfrwt>
<pdfrwt beam="1">  1       -1 0.66471625E-03 0.93546519E+02</pdfrwt>
<totfact> 0.13028856E+05</totfact>
</mgrwt>
</event>
<event>
 5    1  0.4006808E+001  0.9236105E+02  0.7546771E-02  0.1297233E+00
         -2   -1    0    0    0  501 -0.00000000000E+00  0.00000000000E+00  0.19051832569E+03  0.19051832569E+03  0.00000000000E+00 0.  1.
          2   -1    0    0  501    0  0.00000000000E+00 -0.00000000000E+00 -0.11193889674E+02  0.11193889674E+02  0.00000000000E+00 0. -1.
         23    2    1    2    0    0  0.00000000000E+00  0.00000000000E+00  0.17932443601E+03  0.20171221536E+03  0.92361054964E+02 0.  0.
          2    1    3    3  502    0  0.24869644492E+02 -0.18065705136E+02  0.14394301869E+02  0.33942080748E+02  0.00000000000E+00 0. -1.
         -2    1    3    3    0  502 -0.24869644492E+02  0.18065705136E+02  0.16493013414E+03  0.16777013461E+03  0.00000000000E+00 0.  1.
<mgrwt>
<rscale>  0 0.92361055E+02</rscale>
<asrwt>0</asrwt>
<pdfrwt beam="2">  1        2 0.17221370E-02 0.92361055E+02</pdfrwt>
<pdfrwt beam="1">  1       -2 0.29310509E-01 0.92361055E+02</pdfrwt>
<totfact> 0.61561849E+04</totfact>
</mgrwt>
</event>
<event>
 5    1  0.4006808E+001  0.8636761E+02  0.7546771E-02  0.1311894E+00
         -2   -1    0    0    0  501 -0.00000000000E+00  0.00000000000E+00  0.14321873018E+03  0.14321873018E+03  0.00000000000E+00 0. -1.
          2   -1    0    0  501    0  0.00000000000E+00 -0.00000000000E+00 -0.13020931082E+02  0.13020931082E+02  0.00000000000E+00 0.  1.
         23    2    1    2    0    0  0.00000000000E+00  0.00000000000E+00  0.13019779910E+03  0.15623966126E+03  0.86367614654E+02 0.  0.
          2    1    3    3  502    0  0.31454322271E+02 -0.95815107102E+01  0.14457626692E+02  0.35919391790E+02  0.00000000000E+00 0.  1.
         -2    1    3    3    0  502 -0.31454322271E+02  0.95815107102E+01  0.11574017241E+03  0.12032026947E+03  0.00000000000E+00 0. -1.
<mgrwt>
<rscale>  0 0.86367615E+02</rscale>
<asrwt>0</asrwt>
<pdfrwt beam="2">  1        2 0.20032203E-02 0.86367615E+02</pdfrwt>
<pdfrwt beam="1">  1       -2 0.22033650E-01 0.86367615E+02</pdfrwt>
<totfact> 0.81441478E+04</totfact>
</mgrwt>
</event>
<event>
 5    1  0.4006808E+001  0.9091997E+02  0.7546771E-02  0.1300639E+00
          2   -1    0    0  501    0  0.00000000000E+00  0.00000000000E+00  0.14722909100E+02  0.14722909100E+02  0.00000000000E+00 0. -1.
         -2   -1    0    0    0  501 -0.00000000000E+00 -0.00000000000E+00 -0.14036697747E+03  0.14036697747E+03  0.00000000000E+00 0.  1.
         23    2    1    2    0    0  0.00000000000E+00  0.00000000000E+00 -0.12564406837E+03  0.15508988657E+03  0.90919970303E+02 0.  0.
          2    1    3    3  502    0 -0.21651661223E+02 -0.34645553491E+02 -0.28813058940E+02  0.49993011271E+02  0.00000000000E+00 0. -1.
         -2    1    3    3    0  502  0.21651661223E+02  0.34645553491E+02 -0.96831009433E+02  0.10509687530E+03  0.00000000000E+00 0.  1.
<mgrwt>
<rscale>  0 0.90919970E+02</rscale>
<asrwt>0</asrwt>
<pdfrwt beam="1">  1        2 0.22650630E-02 0.90919970E+02</pdfrwt>
<pdfrwt beam="2">  1       -2 0.21594919E-01 0.90919970E+02</pdfrwt>
<totfact> 0.72045630E+04</totfact>
</mgrwt>
</event>
<event>
 5    1  0.4006808E+001  0.9187374E+02  0.7546771E-02  0.1298377E+00
         -2   -1    0    0    0  501 -0.00000000000E+00  0.00000000000E+00  0.82776907847E+00  0.82776907847E+00  0.00000000000E+00 0.  1.
          2   -1    0    0  501    0  0.00000000000E+00 -0.00000000000E+00 -0.25492567555E+04  0.25492567555E+04  0.00000000000E+00 0. -1.
         23    2    1    2    0    0  0.00000000000E+00  0.00000000000E+00 -0.25484289864E+04  0.25500845246E+04  0.91873737603E+02 0.  0.
          2    1    3    3  502    0 -0.33422749896E+02 -0.14794100987E+02 -0.20465462219E+04  0.20468725862E+04  0.00000000000E+00 0. -1.
         -2    1    3    3    0  502  0.33422749896E+02  0.14794100987E+02 -0.50188276453E+03  0.50321193842E+03  0.00000000000E+00 0.  1.
<mgrwt>
<rscale>  0 0.91873738E+02</rscale>
<asrwt>0</asrwt>
<pdfrwt beam="2">  1        2 0.39220079E+00 0.91873738E+02</pdfrwt>
<pdfrwt beam="1">  1       -2 0.12734667E-03 0.91873738E+02</pdfrwt>
<totfact> 0.14086849E+05</totfact>
</mgrwt>
</event>
<event>
 5    1  0.4006808E+001  0.8539320E+02  0.7546771E-02  0.1314407E+00
         -2   -1    0    0    0  501 -0.00000000000E+00  0.00000000000E+00  0.40422805504E+03  0.40422805504E+03  0.00000000000E+00 0.  1.
          2   -1    0    0  501    0  0.00000000000E+00 -0.00000000000E+00 -0.45098296307E+01  0.45098296307E+01  0.00000000000E+00 0. -1.
         23    2    1    2    0    0  0.00000000000E+00  0.00000000000E+00  0.39971822541E+03  0.40873788467E+03  0.85393200202E+02 0.  0.
          2    1    3    3  502    0 -0.41830612295E+02 -0.40334606509E+01  0.16374350048E+03  0.16905029689E+03  0.00000000000E+00 0.  1.
         -2    1    3    3    0  502  0.41830612295E+02  0.40334606509E+01  0.23597472493E+03  0.23968758778E+03  0.00000000000E+00 0. -1.
<mgrwt>
<rscale>  0 0.85393200E+02</rscale>
<asrwt>0</asrwt>
<pdfrwt beam="2">  1        2 0.69382026E-03 0.85393200E+02</pdfrwt>
<pdfrwt beam="1">  1       -2 0.62188903E-01 0.85393200E+02</pdfrwt>
<totfact> 0.50194155E+04</totfact>
</mgrwt>
</event>
<event>
 5    1  0.4006808E+001  0.1082109E+03  0.7546771E-02  0.1263919E+00
         -2   -1    0    0    0  501 -0.00000000000E+00  0.00000000000E+00  0.45695616626E+01  0.45695616626E+01  0.00000000000E+00 0.  1.
          2   -1    0    0  501    0  0.00000000000E+00 -0.00000000000E+00 -0.64063055153E+03  0.64063055153E+03  0.00000000000E+00 0. -1.
         23    2    1    2    0    0  0.00000000000E+00  0.00000000000E+00 -0.63606098987E+03  0.64520011320E+03  0.10821092012E+03 0.  0.
          2    1    3    3  502    0 -0.46375406694E+02  0.18044218069E+01 -0.48385324221E+03  0.48607395968E+03  0.00000000000E+00 0. -1.
         -2    1    3    3    0  502  0.46375406694E+02 -0.18044218069E+01 -0.15220774766E+03  0.15912615352E+03  0.00000000000E+00 0.  1.
<mgrwt>
<rscale>  0 0.10821092E+03</rscale>
<asrwt>0</asrwt>
<pdfrwt beam="2">  1        2 0.98558580E-01 0.10821092E+03</pdfrwt>
<pdfrwt beam="1">  1       -2 0.70300925E-03 0.10821092E+03</pdfrwt>
<totfact> 0.14701433E+05</totfact>
</mgrwt>
</event>
<event>
 5    1  0.4006808E+001  0.8623277E+02  0.7546771E-02  0.1312240E+00
         -2   -1    0    0    0  501 -0.00000000000E+00  0.00000000000E+00  0.19301052944E+02  0.19301052944E+02  0.00000000000E+00 0.  1.
          2   -1    0    0  501    0  0.00000000000E+00 -0.00000000000E+00 -0.96317154360E+02  0.96317154360E+02  0.00000000000E+00 0. -1.
         23    2    1    2    0    0  0.00000000000E+00  0.00000000000E+00 -0.77016101416E+02  0.11561820730E+03  0.86232766295E+02 0.  0.
          2    1    3    3  502    0  0.38695318354E+02 -0.32771329310E+00 -0.64003377300E+02  0.74792161115E+02  0.00000000000E+00 0. -1.
         -2    1    3    3    0  502 -0.38695318354E+02  0.32771329310E+00 -0.13012724116E+02  0.40826046189E+02  0.00000000000E+00 0.  1.
<mgrwt>
<rscale>  0 0.86232766E+02</rscale>
<asrwt>0</asrwt>
<pdfrwt beam="2">  1        2 0.14818024E-01 0.86232766E+02</pdfrwt>
<pdfrwt beam="1">  1       -2 0.29693927E-02 0.86232766E+02</pdfrwt>
<totfact> 0.14133664E+05</totfact>
</mgrwt>
</event>
<event>
 5    1  0.4006808E+001  0.9136210E+02  0.7546771E-02  0.1299586E+00
         -2   -1    0    0    0  501 -0.00000000000E+00  0.00000000000E+00  0.39110277380E+01  0.39110277380E+01  0.00000000000E+00 0. -1.
          2   -1    0    0  501    0  0.00000000000E+00 -0.00000000000E+00 -0.53355753522E+03  0.53355753522E+03  0.00000000000E+00 0.  1.
         23    2    1    2    0    0  0.00000000000E+00  0.00000000000E+00 -0.52964650748E+03  0.53746856295E+03  0.91362099802E+02 0.  0.
          2    1    3    3  502    0 -0.18263744218E+02 -0.29568680213E+02 -0.90420417297E+02  0.96869618904E+02  0.00000000000E+00 0. -1.
         -2    1    3    3    0  502  0.18263744218E+02  0.29568680213E+02 -0.43922609018E+03  0.44059894405E+03  0.00000000000E+00 0.  1.
<mgrwt>
<rscale>  0 0.91362100E+02</rscale>
<asrwt>0</asrwt>
<pdfrwt beam="2">  1        2 0.82085778E-01 0.91362100E+02</pdfrwt>
<pdfrwt beam="1">  1       -2 0.60169655E-03 0.91362100E+02</pdfrwt>
<totfact> 0.21882362E+05</totfact>
</mgrwt>
</event>
<event>
 5    1  0.4006808E+001  0.9202467E+02  0.7546771E-02  0.1298021E+00
         -2   -1    0    0    0  501 -0.00000000000E+00  0.00000000000E+00  0.12167664932E+03  0.12167664932E+03  0.00000000000E+00 0.  1.
          2   -1    0    0  501    0  0.00000000000E+00 -0.00000000000E+00 -0.17399680107E+02  0.17399680107E+02  0.00000000000E+00 0. -1.
         23    2    1    2    0    0  0.00000000000E+00  0.00000000000E+00  0.10427696922E+03  0.13907632943E+03  0.92024665709E+02 0.  0.
          2    1    3    3  502    0  0.16237931670E+02  0.23053210089E+02 -0.28114240443E+01  0.28337696192E+02  0.00000000000E+00 0. -1.
         -2    1    3    3    0  502 -0.16237931670E+02 -0.23053210089E+02  0.10708839326E+03  0.11073863324E+03  0.00000000000E+00 0.  1.
<mgrwt>
<rscale>  0 0.92024666E+02</rscale>
<asrwt>0</asrwt>
<pdfrwt beam="2">  1        2 0.26768739E-02 0.92024666E+02</pdfrwt>
<pdfrwt beam="1">  1       -2 0.18719484E-01 0.92024666E+02</pdfrwt>
<totfact> 0.73351514E+04</totfact>
</mgrwt>
</event>
<event>
 5    1  0.4006808E+001  0.9213167E+02  0.7546771E-02  0.1297770E+00
          1   -1    0    0  501    0  0.00000000000E+00  0.00000000000E+00  0.88557024526E+02  0.88557024526E+02  0.00000000000E+00 0. -1.
         -1   -1    0    0    0  501 -0.00000000000E+00 -0.00000000000E+00 -0.23962653735E+02  0.23962653735E+02  0.00000000000E+00 0.  1.
         23    2    1    2    0    0  0.00000000000E+00  0.00000000000E+00  0.64594370791E+02  0.11251967826E+03  0.92131673480E+02 0.  0.
          2    1    3    3  502    0  0.68684312906E+01  0.41785697845E+02  0.54444077025E+02  0.68973744395E+02  0.00000000000E+00 0. -1.
         -2    1    3    3    0  502 -0.68684312906E+01 -0.41785697845E+02  0.10150293766E+02  0.43545933867E+02  0.00000000000E+00 0.  1.
<mgrwt>
<rscale>  0 0.92131673E+02</rscale>
<asrwt>0</asrwt>
<pdfrwt beam="1">  1        1 0.13624157E-01 0.92131673E+02</pdfrwt>
<pdfrwt beam="2">  1       -1 0.36865622E-02 0.92131673E+02</pdfrwt>
<totfact> 0.99510239E+04</totfact>
</mgrwt>
</event>
<event>
 5    1  0.4006808E+001  0.9103079E+02  0.7546771E-02  0.1300375E+00
         -2   -1    0    0    0  501 -0.00000000000E+00  0.00000000000E+00  0.21966365293E+01  0.21966365293E+01  0.00000000000E+00 0.  1.
          2   -1    0    0  501    0  0.00000000000E+00 -0.00000000000E+00 -0.94310143191E+03  0.94310143191E+03  0.00000000000E+00 0. -1.
         23    2    1    2    0    0  0.00000000000E+00  0.00000000000E+00 -0.94090479538E+03  0.94529806844E+03  0.91030787236E+02 0.  0.
          2    1    3    3  502    0 -0.45226137191E+02 -0.26738389944E+01 -0.42507117525E+03  0.42747872103E+03  0.00000000000E+00 0. -1.
         -2    1    3    3    0  502  0.45226137191E+02  0.26738389944E+01 -0.51583362012E+03  0.51781934741E+03  0.00000000000E+00 0.  1.
<mgrwt>
<rscale>  0 0.91030787E+02</rscale>
<asrwt>0</asrwt>
<pdfrwt beam="2">  1        2 0.14509282E+00 0.91030787E+02</pdfrwt>
<pdfrwt beam="1">  1       -2 0.33794340E-03 0.91030787E+02</pdfrwt>
<totfact> 0.25013561E+05</totfact>
</mgrwt>
</event>
<event>
 5    1  0.4006808E+001  0.9226763E+02  0.7546771E-02  0.1297451E+00
          1   -1    0    0  501    0  0.00000000000E+00  0.00000000000E+00  0.16641046780E+02  0.16641046780E+02  0.00000000000E+00 0. -1.
         -1   -1    0    0    0  501 -0.00000000000E+00 -0.00000000000E+00 -0.12789633362E+03  0.12789633362E+03  0.00000000000E+00 0.  1.
         23    2    1    2    0    0  0.00000000000E+00  0.00000000000E+00 -0.11125528684E+03  0.14453738040E+03  0.92267629659E+02 0.  0.
          2    1    3    3  502    0 -0.12447440234E+02  0.44217302773E+02 -0.48941005048E+02  0.67121759572E+02  0.00000000000E+00 0. -1.
         -2    1    3    3    0  502  0.12447440234E+02 -0.44217302773E+02 -0.62314281793E+02  0.77415620829E+02  0.00000000000E+00 0.  1.
<mgrwt>
<rscale>  0 0.92267630E+02</rscale>
<asrwt>0</asrwt>
<pdfrwt beam="1">  1        1 0.25601611E-02 0.92267630E+02</pdfrwt>
<pdfrwt beam="2">  1       -1 0.19676359E-01 0.92267630E+02</pdfrwt>
<totfact> 0.75142273E+04</totfact>
</mgrwt>
</event>
<event>
 5    1  0.4006808E+001  0.9227588E+02  0.7546771E-02  0.1297432E+00
         -1   -1    0    0    0  501 -0.00000000000E+00  0.00000000000E+00  0.19132148651E+01  0.19132148651E+01  0.00000000000E+00 0.  1.
          1   -1    0    0  501    0  0.00000000000E+00 -0.00000000000E+00 -0.11126349257E+04  0.11126349257E+04  0.00000000000E+00 0. -1.
         23    2    1    2    0    0  0.00000000000E+00  0.00000000000E+00 -0.11107217109E+04  0.11145481406E+04  0.92275883727E+02 0.  0.
          2    1    3    3  502    0 -0.92991861649E+01 -0.40522091617E+02 -0.31373333498E+03  0.31647609744E+03  0.00000000000E+00 0. -1.
         -2    1    3    3    0  502  0.92991861649E+01  0.40522091617E+02 -0.79698837589E+03  0.79807204316E+03  0.00000000000E+00 0.  1.
<mgrwt>
<rscale>  0 0.92275884E+02</rscale>
<asrwt>0</asrwt>
<pdfrwt beam="2">  1        1 0.17117452E+00 0.92275884E+02</pdfrwt>
<pdfrwt beam="1">  1       -1 0.29434089E-03 0.92275884E+02</pdfrwt>
<totfact> 0.12734135E+05</totfact>
</mgrwt>
</event>
<event>
 5    1  0.4006808E+001  0.9353638E+02  0.7546771E-02  0.1294507E+00
          1   -1    0    0  501    0  0.00000000000E+00  0.00000000000E+00  0.71563807018E+03  0.71563807018E+03  0.00000000000E+00 0. -1.
         -1   -1    0    0    0  501 -0.00000000000E+00 -0.00000000000E+00 -0.30563824031E+01  0.30563824031E+01  0.00000000000E+00 0.  1.
         23    2    1    2    0    0  0.00000000000E+00  0.00000000000E+00  0.71258168777E+03  0.71869445258E+03  0.93536380188E+02 0.  0.
          2    1    3    3  502    0  0.16569770816E+02  0.25589205175E+02  0.62880345103E+03  0.62954201190E+03  0.00000000000E+00 0. -1.
         -2    1    3    3    0  502 -0.16569770816E+02 -0.25589205175E+02  0.83778236746E+02  0.89152440677E+02  0.00000000000E+00 0.  1.
<mgrwt>
<rscale>  0 0.93536380E+02</rscale>
<asrwt>0</asrwt>
<pdfrwt beam="1">  1        1 0.11009803E+00 0.93536380E+02</pdfrwt>
<pdfrwt beam="2">  1       -1 0.47021325E-03 0.93536380E+02</pdfrwt>
<totfact> 0.13282997E+05</totfact>
</mgrwt>
</event>
<event>
 5    1  0.4006808E+001  0.1021558E+03  0.7546771E-02  0.1275827E+00
          2   -1    0    0  501    0  0.00000000000E+00  0.00000000000E+00  0.15075781833E+04  0.15075781833E+04  0.00000000000E+00 0. -1.
         -2   -1    0    0    0  501 -0.00000000000E+00 -0.00000000000E+00 -0.17305576375E+01  0.17305576375E+01  0.00000000000E+00 0.  1.
         23    2    1    2    0    0  0.00000000000E+00  0.00000000000E+00  0.15058476257E+04  0.15093087409E+04  0.10215578181E+03 0.  0.
          2    1    3    3  502    0 -0.41091370215E+02 -0.18376429960E+02  0.11095875085E+04  0.11105001724E+04  0.00000000000E+00 0. -1.
         -2    1    3    3    0  502  0.41091370215E+02  0.18376429960E+02  0.39626011716E+03  0.39880856853E+03  0.00000000000E+00 0.  1.
<mgrwt>
<rscale>  0 0.10215578E+03</rscale>
<asrwt>0</asrwt>
<pdfrwt beam="1">  1        2 0.23193406E+00 0.10215578E+03</pdfrwt>
<pdfrwt beam="2">  1       -2 0.26624084E-03 0.10215578E+03</pdfrwt>
<totfact> 0.17425719E+05</totfact>
</mgrwt>
</event>
<event>
 5    1  0.4006808E+001  0.8938522E+02  0.7546771E-02  0.1304347E+00
          2   -1    0    0  501    0  0.00000000000E+00  0.00000000000E+00  0.49833538492E+03  0.49833538492E+03  0.00000000000E+00 0.  1.
         -2   -1    0    0    0  501 -0.00000000000E+00 -0.00000000000E+00 -0.40082032264E+01  0.40082032264E+01  0.00000000000E+00 0. -1.
         23    2    1    2    0    0  0.00000000000E+00  0.00000000000E+00  0.49432718169E+03  0.50234358815E+03  0.89385222440E+02 0.  0.
          2    1    3    3  502    0 -0.39846548786E+02  0.17881948747E+02  0.19387204080E+03  0.19873067138E+03  0.00000000000E+00 0. -1.
         -2    1    3    3    0  502  0.39846548786E+02 -0.17881948747E+02  0.30045514089E+03  0.30361291677E+03  0.00000000000E+00 0.  1.
<mgrwt>
<rscale>  0 0.89385222E+02</rscale>
<asrwt>0</asrwt>
<pdfrwt beam="1">  1        2 0.76666933E-01 0.89385222E+02</pdfrwt>
<pdfrwt beam="2">  1       -2 0.61664705E-03 0.89385222E+02</pdfrwt>
<totfact> 0.22685548E+05</totfact>
</mgrwt>
</event>
<event>
 5    1  0.4006808E+001  0.9298953E+02  0.7546771E-02  0.1295769E+00
          2   -1    0    0  501    0  0.00000000000E+00  0.00000000000E+00  0.35310845487E+03  0.35310845487E+03  0.00000000000E+00 0. -1.
         -2   -1    0    0    0  501 -0.00000000000E+00 -0.00000000000E+00 -0.61220942031E+01  0.61220942031E+01  0.00000000000E+00 0.  1.
         23    2    1    2    0    0  0.00000000000E+00  0.00000000000E+00  0.34698636067E+03  0.35923054907E+03  0.92989531123E+02 0.  0.
          2    1    3    3  502    0  0.42448856862E+02 -0.12534686918E+02  0.22849895460E+03  0.23274620529E+03  0.00000000000E+00 0. -1.
         -2    1    3    3    0  502 -0.42448856862E+02  0.12534686918E+02  0.11848740607E+03  0.12648434378E+03  0.00000000000E+00 0.  1.
<mgrwt>
<rscale>  0 0.92989531E+02</rscale>
<asrwt>0</asrwt>
<pdfrwt beam="1">  1        2 0.54324362E-01 0.92989531E+02</pdfrwt>
<pdfrwt beam="2">  1       -2 0.94186092E-03 0.92989531E+02</pdfrwt>
<totfact> 0.18106218E+05</totfact>
</mgrwt>
</event>
<event>
 5    1  0.4006808E+001  0.8835849E+02  0.7546771E-02  0.1306876E+00
         -1   -1    0    0    0  501 -0.00000000000E+00  0.00000000000E+00  0.95612889135E+01  0.95612889135E+01  0.00000000000E+00 0.  1.
          1   -1    0    0  501    0  0.00000000000E+00 -0.00000000000E+00 -0.20413623070E+03  0.20413623070E+03  0.00000000000E+00 0. -1.
         23    2    1    2    0    0  0.00000000000E+00  0.00000000000E+00 -0.19457494178E+03  0.21369751961E+03  0.88358485261E+02 0.  0.
          2    1    3    3  502    0  0.21580094761E+01 -0.27853410498E+02 -0.14513847933E+02  0.31482078443E+02  0.00000000000E+00 0.  1.
         -2    1    3    3    0  502 -0.21580094761E+01  0.27853410498E+02 -0.18006109385E+03  0.18221544117E+03  0.00000000000E+00 0. -1.
<mgrwt>
<rscale>  0 0.88358485E+02</rscale>
<asrwt>0</asrwt>
<pdfrwt beam="2">  1        1 0.31405575E-01 0.88358485E+02</pdfrwt>
<pdfrwt beam="1">  1       -1 0.14709675E-02 0.88358485E+02</pdfrwt>
<totfact> 0.12929148E+05</totfact>
</mgrwt>
</event>
<event>
 5    1  0.4006808E+001  0.9058814E+02  0.7546771E-02  0.1301434E+00
          2   -1    0    0  501    0  0.00000000000E+00  0.00000000000E+00  0.11785354879E+02  0.11785354879E+02  0.00000000000E+00 0. -1.
         -2   -1    0    0    0  501 -0.00000000000E+00 -0.00000000000E+00 -0.17407647115E+03  0.17407647115E+03  0.00000000000E+00 0.  1.
         23    2    1    2    0    0  0.00000000000E+00  0.00000000000E+00 -0.16229111627E+03  0.18586182603E+03  0.90588144670E+02 0.  0.
          2    1    3    3  502    0 -0.81958754395E+01  0.25643937947E+02 -0.64118550148E+01  0.27674822716E+02  0.00000000000E+00 0. -1.
         -2    1    3    3    0  502  0.81958754395E+01 -0.25643937947E+02 -0.15587926126E+03  0.15818700332E+03  0.00000000000E+00 0.  1.
<mgrwt>
<rscale>  0 0.90588145E+02</rscale>
<asrwt>0</asrwt>
<pdfrwt beam="1">  1        2 0.18131317E-02 0.90588145E+02</pdfrwt>
<pdfrwt beam="2">  1       -2 0.26780994E-01 0.90588145E+02</pdfrwt>
<totfact> 0.67110378E+04</totfact>
</mgrwt>
</event>
<event>
 5    1  0.4006808E+001  0.8797258E+02  0.7546771E-02  0.1307837E+00
          3   -1    0    0  501    0  0.00000000000E+00  0.00000000000E+00  0.14674608470E+03  0.14674608470E+03  0.00000000000E+00 0. -1.
         -3   -1    0    0    0  501 -0.00000000000E+00 -0.00000000000E+00 -0.13184634578E+02  0.13184634578E+02  0.00000000000E+00 0.  1.
         23    2    1    2    0    0  0.00000000000E+00  0.00000000000E+00  0.13356145012E+03  0.15993071927E+03  0.87972575328E+02 0.  0.
          2    1    3    3  502    0 -0.38634131769E+02 -0.84701460618E+01  0.10177135195E+03  0.10918675556E+03  0.00000000000E+00 0. -1.
         -2    1    3    3    0  502  0.38634131769E+02  0.84701460618E+01  0.31790098165E+02  0.50743963712E+02  0.00000000000E+00 0.  1.
<mgrwt>
<rscale>  0 0.87972575E+02</rscale>
<asrwt>0</asrwt>
<pdfrwt beam="1">  1        3 0.22576320E-01 0.87972575E+02</pdfrwt>
<pdfrwt beam="2">  1       -3 0.20284054E-02 0.87972575E+02</pdfrwt>
<totfact> 0.33820507E+04</totfact>
</mgrwt>
</event>
<event>
 5    1  0.4006808E+001  0.9199561E+02  0.7546771E-02  0.1298090E+00
          1   -1    0    0  501    0  0.00000000000E+00  0.00000000000E+00  0.21094480599E+01  0.21094480599E+01  0.00000000000E+00 0. -1.
         -1   -1    0    0    0  501 -0.00000000000E+00 -0.00000000000E+00 -0.10030103694E+04  0.10030103694E+04  0.00000000000E+00 0.  1.
         23    2    1    2    0    0  0.00000000000E+00  0.00000000000E+00 -0.10009009214E+04  0.10051198175E+04  0.91995614633E+02 0.  0.
          2    1    3    3  502    0  0.13726604683E+02  0.39581749499E+02 -0.29295818569E+03  0.29593856310E+03  0.00000000000E+00 0. -1.
         -2    1    3    3    0  502 -0.13726604683E+02 -0.39581749499E+02 -0.70794273570E+03  0.70918125440E+03  0.00000000000E+00 0.  1.
<mgrwt>
<rscale>  0 0.91995615E+02</rscale>
<asrwt>0</asrwt>
<pdfrwt beam="1">  1        1 0.32453003E-03 0.91995615E+02</pdfrwt>
<pdfrwt beam="2">  1       -1 0.15430950E+00 0.91995615E+02</pdfrwt>
<totfact> 0.24959145E+04</totfact>
</mgrwt>
</event>
<event>
 5    1  0.4006808E+001  0.9255357E+02  0.7546771E-02  0.1296783E+00
          1   -1    0    0  501    0  0.00000000000E+00  0.00000000000E+00  0.96413942650E+02  0.96413942650E+02  0.00000000000E+00 0. -1.
         -1   -1    0    0    0  501 -0.00000000000E+00 -0.00000000000E+00 -0.22211942489E+02  0.22211942489E+02  0.00000000000E+00 0.  1.
         23    2    1    2    0    0  0.00000000000E+00  0.00000000000E+00  0.74202000161E+02  0.11862588514E+03  0.92553572578E+02 0.  0.
          2    1    3    3  502    0  0.24429006351E+02 -0.26409361869E+02  0.74409475038E+02  0.82649868246E+02  0.00000000000E+00 0. -1.
         -2    1    3    3    0  502 -0.24429006351E+02  0.26409361869E+02 -0.20747487745E+00  0.35976016892E+02  0.00000000000E+00 0.  1.
<mgrwt>
<rscale>  0 0.92553573E+02</rscale>
<asrwt>0</asrwt>
<pdfrwt beam="1">  1        1 0.14832914E-01 0.92553573E+02</pdfrwt>
<pdfrwt beam="2">  1       -1 0.34172220E-02 0.92553573E+02</pdfrwt>
<totfact> 0.99653988E+04</totfact>
</mgrwt>
</event>
<event>
 5    1  0.4006808E+001  0.8976011E+02  0.7546771E-02  0.1303434E+00
          2   -1    0    0  501    0  0.00000000000E+00  0.00000000000E+00  0.10695236360E+04  0.10695236360E+04  0.00000000000E+00 0. -1.
         -2   -1    0    0    0  501 -0.00000000000E+00 -0.00000000000E+00 -0.18832862676E+01  0.18832862676E+01  0.00000000000E+00 0.  1.
         23    2    1    2    0    0  0.00000000000E+00  0.00000000000E+00  0.10676403497E+04  0.10714069223E+04  0.89760106430E+02 0.  0.
          2    1    3    3  502    0 -0.36632625035E+02 -0.20664108435E+02  0.72075426480E+03  0.72198037703E+03  0.00000000000E+00 0. -1.
         -2    1    3    3    0  502  0.36632625035E+02  0.20664108435E+02  0.34688608493E+03  0.34942654524E+03  0.00000000000E+00 0.  1.
<mgrwt>
<rscale>  0 0.89760106E+02</rscale>
<asrwt>0</asrwt>
<pdfrwt beam="1">  1        2 0.16454161E+00 0.89760106E+02</pdfrwt>
<pdfrwt beam="2">  1       -2 0.28973720E-03 0.89760106E+02</pdfrwt>
<totfact> 0.26085230E+05</totfact>
</mgrwt>
</event>
<event>
 5    1  0.4006808E+001  0.9112790E+02  0.7546771E-02  0.1300143E+00
         -3   -1    0    0    0  501 -0.00000000000E+00  0.00000000000E+00  0.32978671280E+03  0.32978671280E+03  0.00000000000E+00 0.  1.
          3   -1    0    0  501    0  0.00000000000E+00 -0.00000000000E+00 -0.62952002768E+01  0.62952002768E+01  0.00000000000E+00 0. -1.
         23    2    1    2    0    0  0.00000000000E+00  0.00000000000E+00  0.32349151252E+03  0.33608191308E+03  0.91127897061E+02 0.  0.
          2    1    3    3  502    0 -0.68614947356E+01  0.41692803026E+02  0.22462667832E+03  0.22856621480E+03  0.00000000000E+00 0. -1.
         -2    1    3    3    0  502  0.68614947356E+01 -0.41692803026E+02  0.98864834200E+02  0.10751569827E+03  0.00000000000E+00 0.  1.
<mgrwt>
<rscale>  0 0.91127897E+02</rscale>
<asrwt>0</asrwt>
<pdfrwt beam="2">  1        3 0.96849261E-03 0.91127897E+02</pdfrwt>
<pdfrwt beam="1">  1       -3 0.50736404E-01 0.91127897E+02</pdfrwt>
<totfact> 0.22721744E+04</totfact>
</mgrwt>
</event>
<event>
 5    1  0.4006808E+001  0.9030103E+02  0.7546771E-02  0.1302124E+00
         -1   -1    0    0    0  501 -0.00000000000E+00  0.00000000000E+00  0.14850136284E+02  0.14850136284E+02  0.00000000000E+00 0.  1.
          1   -1    0    0  501    0  0.00000000000E+00 -0.00000000000E+00 -0.13727611391E+03  0.13727611391E+03  0.00000000000E+00 0. -1.
         23    2    1    2    0    0  0.00000000000E+00  0.00000000000E+00 -0.12242597763E+03  0.15212625019E+03  0.90301029896E+02 0.  0.
          2    1    3    3  502    0  0.33168000737E+02 -0.28369828731E+02 -0.80685577845E+02  0.91733995483E+02  0.00000000000E+00 0. -1.
         -2    1    3    3    0  502 -0.33168000737E+02  0.28369828731E+02 -0.41740399780E+02  0.60392254710E+02  0.00000000000E+00 0.  1.
<mgrwt>
<rscale>  0 0.90301030E+02</rscale>
<asrwt>0</asrwt>
<pdfrwt beam="2">  1        1 0.21119402E-01 0.90301030E+02</pdfrwt>
<pdfrwt beam="1">  1       -1 0.22846364E-02 0.90301030E+02</pdfrwt>
<totfact> 0.11325106E+05</totfact>
</mgrwt>
</event>
<event>
 5    1  0.4006808E+001  0.9079153E+02  0.7546771E-02  0.1300946E+00
          2   -1    0    0  501    0  0.00000000000E+00  0.00000000000E+00  0.27374815693E+03  0.27374815693E+03  0.00000000000E+00 0. -1.
         -2   -1    0    0    0  501 -0.00000000000E+00 -0.00000000000E+00 -0.75279973467E+01  0.75279973467E+01  0.00000000000E+00 0.  1.
         23    2    1    2    0    0  0.00000000000E+00  0.00000000000E+00  0.26622015959E+03  0.28127615428E+03  0.90791528218E+02 0.  0.
          2    1    3    3  502    0 -0.11260397802E+02  0.23292236474E+02  0.24867379074E+03  0.25001595757E+03  0.00000000000E+00 0. -1.
         -2    1    3    3    0  502  0.11260397802E+02 -0.23292236474E+02  0.17546368846E+02  0.31260196709E+02  0.00000000000E+00 0.  1.
<mgrwt>
<rscale>  0 0.90791528E+02</rscale>
<asrwt>0</asrwt>
<pdfrwt beam="1">  1        2 0.42115093E-01 0.90791528E+02</pdfrwt>
<pdfrwt beam="2">  1       -2 0.11581536E-02 0.90791528E+02</pdfrwt>
<totfact> 0.17560334E+05</totfact>
</mgrwt>
</event>
<event>
 5    1  0.4006808E+001  0.9194705E+02  0.7546771E-02  0.1298204E+00
         -1   -1    0    0    0  501 -0.00000000000E+00  0.00000000000E+00  0.21835636283E+01  0.21835636283E+01  0.00000000000E+00 0.  1.
          1   -1    0    0  501    0  0.00000000000E+00 -0.00000000000E+00 -0.96794289901E+03  0.96794289901E+03  0.00000000000E+00 0. -1.
         23    2    1    2    0    0  0.00000000000E+00  0.00000000000E+00 -0.96575933538E+03  0.97012646264E+03  0.91947047990E+02 0.  0.
          2    1    3    3  502    0 -0.36332486594E+02  0.22504633817E+02 -0.30411797121E+03  0.30710624960E+03  0.00000000000E+00 0. -1.
         -2    1    3    3    0  502  0.36332486594E+02 -0.22504633817E+02 -0.66164136416E+03  0.66302021304E+03  0.00000000000E+00 0.  1.
<mgrwt>
<rscale>  0 0.91947048E+02</rscale>
<asrwt>0</asrwt>
<pdfrwt beam="2">  1        1 0.14891431E+00 0.91947048E+02</pdfrwt>
<pdfrwt beam="1">  1       -1 0.33593283E-03 0.91947048E+02</pdfrwt>
<totfact> 0.13411273E+05</totfact>
</mgrwt>
</event>
<event>
 5    1  0.4006808E+001  0.8840372E+02  0.7546771E-02  0.1306764E+00
         -2   -1    0    0    0  501 -0.00000000000E+00  0.00000000000E+00  0.75521800234E+00  0.75521800234E+00  0.00000000000E+00 0.  1.
          2   -1    0    0  501    0  0.00000000000E+00 -0.00000000000E+00 -0.25870733611E+04  0.25870733611E+04  0.00000000000E+00 0. -1.
         23    2    1    2    0    0  0.00000000000E+00  0.00000000000E+00 -0.25863181431E+04  0.25878285791E+04  0.88403718828E+02 0.  0.
          2    1    3    3  502    0 -0.37056473942E+02  0.88207723987E+01 -0.63675758948E+03  0.63789592886E+03  0.00000000000E+00 0. -1.
         -2    1    3    3    0  502  0.37056473942E+02 -0.88207723987E+01 -0.19495605536E+04  0.19499326502E+04  0.00000000000E+00 0.  1.
<mgrwt>
<rscale>  0 0.88403719E+02</rscale>
<asrwt>0</asrwt>
<pdfrwt beam="2">  1        2 0.39801264E+00 0.88403719E+02</pdfrwt>
<pdfrwt beam="1">  1       -2 0.11618699E-03 0.88403719E+02</pdfrwt>
<totfact> 0.15206070E+05</totfact>
</mgrwt>
</event>
<event>
 5    1  0.4006808E+001  0.9387091E+02  0.7546771E-02  0.1293740E+00
          1   -1    0    0  501    0  0.00000000000E+00  0.00000000000E+00  0.34471424630E+03  0.34471424630E+03  0.00000000000E+00 0. -1.
         -1   -1    0    0    0  501 -0.00000000000E+00 -0.00000000000E+00 -0.63906181534E+01  0.63906181534E+01  0.00000000000E+00 0.  1.
         23    2    1    2    0    0  0.00000000000E+00  0.00000000000E+00  0.33832362814E+03  0.35110486445E+03  0.93870913922E+02 0.  0.
          2    1    3    3  502    0  0.19564276755E+02 -0.50922892904E+01  0.32759517918E+03  0.32821836292E+03  0.00000000000E+00 0. -1.
         -2    1    3    3    0  502 -0.19564276755E+02  0.50922892904E+01  0.10728448962E+02  0.22886501530E+02  0.00000000000E+00 0.  1.
<mgrwt>
<rscale>  0 0.93870914E+02</rscale>
<asrwt>0</asrwt>
<pdfrwt beam="1">  1        1 0.53032946E-01 0.93870914E+02</pdfrwt>
<pdfrwt beam="2">  1       -1 0.98317230E-03 0.93870914E+02</pdfrwt>
<totfact> 0.12165592E+05</totfact>
</mgrwt>
</event>
<event>
 5    1  0.4006808E+001  0.8994190E+02  0.7546771E-02  0.1302992E+00
          1   -1    0    0  501    0  0.00000000000E+00  0.00000000000E+00  0.39508455794E+02  0.39508455794E+02  0.00000000000E+00 0. -1.
         -1   -1    0    0    0  501 -0.00000000000E+00 -0.00000000000E+00 -0.51188693301E+02  0.51188693301E+02  0.00000000000E+00 0.  1.
         23    2    1    2    0    0  0.00000000000E+00  0.00000000000E+00 -0.11680237508E+02  0.90697149095E+02  0.89941897388E+02 0.  0.
          2    1    3    3  502    0 -0.11530964855E+02  0.38683680123E+02  0.14150472456E+02  0.42774129203E+02  0.00000000000E+00 0. -1.
         -2    1    3    3    0  502  0.11530964855E+02 -0.38683680123E+02 -0.25830709964E+02  0.47923019892E+02  0.00000000000E+00 0.  1.
<mgrwt>
<rscale>  0 0.89941897E+02</rscale>
<asrwt>0</asrwt>
<pdfrwt beam="1">  1        1 0.60782240E-02 0.89941897E+02</pdfrwt>
<pdfrwt beam="2">  1       -1 0.78751836E-02 0.89941897E+02</pdfrwt>
<totfact> 0.94042527E+04</totfact>
</mgrwt>
</event>
<event>
 5    1  0.4006808E+001  0.9289815E+02  0.7546771E-02  0.1295981E+00
          1   -1    0    0  501    0  0.00000000000E+00  0.00000000000E+00  0.25223052990E+03  0.25223052990E+03  0.00000000000E+00 0. -1.
         -1   -1    0    0    0  501 -0.00000000000E+00 -0.00000000000E+00 -0.85537491331E+01  0.85537491331E+01  0.00000000000E+00 0.  1.
         23    2    1    2    0    0  0.00000000000E+00  0.00000000000E+00  0.24367678077E+03  0.26078427903E+03  0.92898152328E+02 0.  0.
          2    1    3    3  502    0 -0.23196213442E+02 -0.39308899292E+02  0.14602973319E+03  0.15299652564E+03  0.00000000000E+00 0. -1.
         -2    1    3    3    0  502  0.23196213442E+02  0.39308899292E+02  0.97647047578E+02  0.10778775340E+03  0.00000000000E+00 0.  1.
<mgrwt>
<rscale>  0 0.92898152E+02</rscale>
<asrwt>0</asrwt>
<pdfrwt beam="1">  1        1 0.38804691E-01 0.92898152E+02</pdfrwt>
<pdfrwt beam="2">  1       -1 0.13159616E-02 0.92898152E+02</pdfrwt>
<totfact> 0.11783731E+05</totfact>
</mgrwt>
</event>
<event>
 5    1  0.4006808E+001  0.9238930E+02  0.7546771E-02  0.1297167E+00
         -2   -1    0    0    0  501 -0.00000000000E+00  0.00000000000E+00  0.12832093810E+02  0.12832093810E+02  0.00000000000E+00 0.  1.
          2   -1    0    0  501    0  0.00000000000E+00 -0.00000000000E+00 -0.16629754841E+03  0.16629754841E+03  0.00000000000E+00 0. -1.
         23    2    1    2    0    0  0.00000000000E+00  0.00000000000E+00 -0.15346545460E+03  0.17912964222E+03  0.92389301145E+02 0.  0.
          2    1    3    3  502    0 -0.64319401292E+01 -0.19304947328E+02 -0.15714025895E+03  0.15845223831E+03  0.00000000000E+00 0. -1.
         -2    1    3    3    0  502  0.64319401292E+01  0.19304947328E+02  0.36748043489E+01  0.20677403903E+02  0.00000000000E+00 0.  1.
<mgrwt>
<rscale>  0 0.92389301E+02</rscale>
<asrwt>0</asrwt>
<pdfrwt beam="2">  1        2 0.25584235E-01 0.92389301E+02</pdfrwt>
<pdfrwt beam="1">  1       -2 0.19741685E-02 0.92389301E+02</pdfrwt>
<totfact> 0.13976706E+05</totfact>
</mgrwt>
</event>
<event>
 5    1  0.4006808E+001  0.9119591E+02  0.7546771E-02  0.1299981E+00
         -1   -1    0    0    0  501 -0.00000000000E+00  0.00000000000E+00  0.25737569510E+01  0.25737569510E+01  0.00000000000E+00 0.  1.
          1   -1    0    0  501    0  0.00000000000E+00 -0.00000000000E+00 -0.80783600303E+03  0.80783600303E+03  0.00000000000E+00 0. -1.
         23    2    1    2    0    0  0.00000000000E+00  0.00000000000E+00 -0.80526224608E+03  0.81040975998E+03  0.91195910612E+02 0.  0.
          2    1    3    3  502    0 -0.20452166003E+02 -0.16988394738E+02 -0.73182380442E+03  0.73230661432E+03  0.00000000000E+00 0. -1.
         -2    1    3    3    0  502  0.20452166003E+02  0.16988394738E+02 -0.73438441654E+02  0.78103145664E+02  0.00000000000E+00 0.  1.
<mgrwt>
<rscale>  0 0.91195911E+02</rscale>
<asrwt>0</asrwt>
<pdfrwt beam="2">  1        1 0.12428230E+00 0.91195911E+02</pdfrwt>
<pdfrwt beam="1">  1       -1 0.39596312E-03 0.91195911E+02</pdfrwt>
<totfact> 0.14109609E+05</totfact>
</mgrwt>
</event>
<event>
 5    1  0.4006808E+001  0.9154733E+02  0.7546771E-02  0.1299147E+00
         -1   -1    0    0    0  501 -0.00000000000E+00  0.00000000000E+00  0.11482794048E+01  0.11482794048E+01  0.00000000000E+00 0.  1.
          1   -1    0    0  501    0  0.00000000000E+00 -0.00000000000E+00 -0.18246675982E+04  0.18246675982E+04  0.00000000000E+00 0. -1.
         23    2    1    2    0    0  0.00000000000E+00  0.00000000000E+00 -0.18235193188E+04  0.18258158776E+04  0.91547325981E+02 0.  0.
          2    1    3    3  502    0 -0.83710295842E+00 -0.25425158608E+02 -0.16707022267E+04  0.16708958884E+04  0.00000000000E+00 0. -1.
         -2    1    3    3    0  502  0.83710295842E+00  0.25425158608E+02 -0.15281709206E+03  0.15491998921E+03  0.00000000000E+00 0.  1.
<mgrwt>
<rscale>  0 0.91547326E+02</rscale>
<asrwt>0</asrwt>
<pdfrwt beam="2">  1        1 0.28071868E+00 0.91547326E+02</pdfrwt>
<pdfrwt beam="1">  1       -1 0.17665800E-03 0.91547326E+02</pdfrwt>
<totfact> 0.89480391E+04</totfact>
</mgrwt>
</event>
<event>
 5    1  0.4006808E+001  0.8964251E+02  0.7546771E-02  0.1303720E+00
          2   -1    0    0  501    0  0.00000000000E+00  0.00000000000E+00  0.88630470785E+03  0.88630470785E+03  0.00000000000E+00 0. -1.
         -2   -1    0    0    0  501 -0.00000000000E+00 -0.00000000000E+00 -0.22666525297E+01  0.22666525297E+01  0.00000000000E+00 0.  1.
         23    2    1    2    0    0  0.00000000000E+00  0.00000000000E+00  0.88403805532E+03  0.88857136038E+03  0.89642507956E+02 0.  0.
          2    1    3    3  502    0  0.30999268207E+02  0.16695113252E+02  0.71694504458E+03  0.71780908213E+03  0.00000000000E+00 0. -1.
         -2    1    3    3    0  502 -0.30999268207E+02 -0.16695113252E+02  0.16709301074E+03  0.17076227825E+03  0.00000000000E+00 0.  1.
<mgrwt>
<rscale>  0 0.89642508E+02</rscale>
<asrwt>0</asrwt>
<pdfrwt beam="1">  1        2 0.13635429E+00 0.89642508E+02</pdfrwt>
<pdfrwt beam="2">  1       -2 0.34871648E-03 0.89642508E+02</pdfrwt>
<totfact> 0.25880143E+05</totfact>
</mgrwt>
</event>
<event>
 5    1  0.4006808E+001  0.9031188E+02  0.7546771E-02  0.1302098E+00
          2   -1    0    0  501    0  0.00000000000E+00  0.00000000000E+00  0.86725646193E+02  0.86725646193E+02  0.00000000000E+00 0. -1.
         -2   -1    0    0    0  501 -0.00000000000E+00 -0.00000000000E+00 -0.23511601177E+02  0.23511601177E+02  0.00000000000E+00 0.  1.
         23    2    1    2    0    0  0.00000000000E+00  0.00000000000E+00  0.63214045016E+02  0.11023724737E+03  0.90311877515E+02 0.  0.
          2    1    3    3  502    0 -0.22782768927E+02  0.96684939080E+01  0.77709376628E+02  0.81555389463E+02  0.00000000000E+00 0. -1.
         -2    1    3    3    0  502  0.22782768927E+02 -0.96684939080E+01 -0.14495331612E+02  0.28681857907E+02  0.00000000000E+00 0.  1.
<mgrwt>
<rscale>  0 0.90311878E+02</rscale>
<asrwt>0</asrwt>
<pdfrwt beam="1">  1        2 0.13342407E-01 0.90311878E+02</pdfrwt>
<pdfrwt beam="2">  1       -2 0.36171695E-02 0.90311878E+02</pdfrwt>
<totfact> 0.12070981E+05</totfact>
</mgrwt>
</event>
<event>
 5    1  0.4006808E+001  0.9040141E+02  0.7546771E-02  0.1301883E+00
         -1   -1    0    0    0  501 -0.00000000000E+00  0.00000000000E+00  0.49184551090E+00  0.49184551090E+00  0.00000000000E+00 0.  1.
          1   -1    0    0  501    0  0.00000000000E+00 -0.00000000000E+00 -0.41539539931E+04  0.41539539931E+04  0.00000000000E+00 0. -1.
         23    2    1    2    0    0  0.00000000000E+00  0.00000000000E+00 -0.41534621476E+04  0.41544458386E+04  0.90401407599E+02 0.  0.
          2    1    3    3  502    0 -0.20793354475E+02  0.39272906929E+02 -0.16967178638E+04  0.16972996890E+04  0.00000000000E+00 0. -1.
         -2    1    3    3    0  502  0.20793354475E+02 -0.39272906929E+02 -0.24567442838E+04  0.24571461497E+04  0.00000000000E+00 0.  1.
<mgrwt>
<rscale>  0 0.90401408E+02</rscale>
<asrwt>0</asrwt>
<pdfrwt beam="2">  1        1 0.63907182E+00 0.90401408E+02</pdfrwt>
<pdfrwt beam="1">  1       -1 0.75668306E-04 0.90401408E+02</pdfrwt>
<totfact> 0.68174347E+03</totfact>
</mgrwt>
</event>
<event>
 5    1  0.4006808E+001  0.8988399E+02  0.7546771E-02  0.1303133E+00
          2   -1    0    0  501    0  0.00000000000E+00  0.00000000000E+00  0.49976555648E+03  0.49976555648E+03  0.00000000000E+00 0. -1.
         -2   -1    0    0    0  501 -0.00000000000E+00 -0.00000000000E+00 -0.40414612132E+01  0.40414612132E+01  0.00000000000E+00 0.  1.
         23    2    1    2    0    0  0.00000000000E+00  0.00000000000E+00  0.49572409527E+03  0.50380701770E+03  0.89883994398E+02 0.  0.
          2    1    3    3  502    0 -0.23953490693E+02  0.22714298632E+02  0.41880083094E+03  0.42009980370E+03  0.00000000000E+00 0. -1.
         -2    1    3    3    0  502  0.23953490693E+02 -0.22714298632E+02  0.76923264335E+02  0.83707213994E+02  0.00000000000E+00 0.  1.
<mgrwt>
<rscale>  0 0.89883994E+02</rscale>
<asrwt>0</asrwt>
<pdfrwt beam="1">  1        2 0.76886960E-01 0.89883994E+02</pdfrwt>
<pdfrwt beam="2">  1       -2 0.62176366E-03 0.89883994E+02</pdfrwt>
<totfact> 0.22375433E+05</totfact>
</mgrwt>
</event>
<event>
 5    1  0.4006808E+001  0.9189116E+02  0.7546771E-02  0.1298336E+00
          2   -1    0    0  501    0  0.00000000000E+00  0.00000000000E+00  0.31495471388E+03  0.31495471388E+03  0.00000000000E+00 0. -1.
         -2   -1    0    0    0  501 -0.00000000000E+00 -0.00000000000E+00 -0.67025395821E+01  0.67025395821E+01  0.00000000000E+00 0.  1.
         23    2    1    2    0    0  0.00000000000E+00  0.00000000000E+00  0.30825217430E+03  0.32165725346E+03  0.91891162499E+02 0.  0.
          2    1    3    3  502    0 -0.20115776803E+00 -0.42467142557E+02  0.21550802461E+03  0.21965246944E+03  0.00000000000E+00 0. -1.
         -2    1    3    3    0  502  0.20115776803E+00  0.42467142557E+02  0.92744149690E+02  0.10200478402E+03  0.00000000000E+00 0.  1.
<mgrwt>
<rscale>  0 0.91891162E+02</rscale>
<asrwt>0</asrwt>
<pdfrwt beam="1">  1        2 0.48454560E-01 0.91891162E+02</pdfrwt>
<pdfrwt beam="2">  1       -2 0.10311602E-02 0.91891162E+02</pdfrwt>
<totfact> 0.17916848E+05</totfact>
</mgrwt>
</event>
<event>
 5    1  0.4006808E+001  0.8911366E+02  0.7546771E-02  0.1305012E+00
         -1   -1    0    0    0  501 -0.00000000000E+00  0.00000000000E+00  0.73326016411E+03  0.73326016411E+03  0.00000000000E+00 0.  1.
          1   -1    0    0  501    0  0.00000000000E+00 -0.00000000000E+00 -0.27075124421E+01  0.27075124421E+01  0.00000000000E+00 0. -1.
         23    2    1    2    0    0  0.00000000000E+00  0.00000000000E+00  0.73055265167E+03  0.73596767656E+03  0.89113658160E+02 0.  0.
          2    1    3    3  502    0 -0.36870799457E+02  0.23509239332E+02  0.29463099511E+03  0.29785829427E+03  0.00000000000E+00 0. -1.
         -2    1    3    3    0  502  0.36870799457E+02 -0.23509239332E+02  0.43592165656E+03  0.43810938228E+03  0.00000000000E+00 0.  1.
<mgrwt>
<rscale>  0 0.89113658E+02</rscale>
<asrwt>0</asrwt>
<pdfrwt beam="2">  1        1 0.41654096E-03 0.89113658E+02</pdfrwt>
<pdfrwt beam="1">  1       -1 0.11280910E+00 0.89113658E+02</pdfrwt>
<totfact> 0.37583482E+04</totfact>
</mgrwt>
</event>
<event>
 5    1  0.4006808E+001  0.9128561E+02  0.7546771E-02  0.1299768E+00
         -2   -1    0    0    0  501 -0.00000000000E+00  0.00000000000E+00  0.14916539025E+01  0.14916539025E+01  0.00000000000E+00 0. -1.
          2   -1    0    0  501    0  0.00000000000E+00 -0.00000000000E+00 -0.13966147307E+04  0.13966147307E+04  0.00000000000E+00 0.  1.
         23    2    1    2    0    0  0.00000000000E+00  0.00000000000E+00 -0.13951230768E+04  0.13981063846E+04  0.91285613617E+02 0.  0.
          2    1    3    3  502    0  0.27407749312E+02 -0.57331321733E+01 -0.14551214215E+03  0.14818177026E+03  0.00000000000E+00 0. -1.
         -2    1    3    3    0  502 -0.27407749312E+02  0.57331321733E+01 -0.12496109347E+04  0.12499246144E+04  0.00000000000E+00 0.  1.
<mgrwt>
<rscale>  0 0.91285614E+02</rscale>
<asrwt>0</asrwt>
<pdfrwt beam="2">  1        2 0.21486400E+00 0.91285614E+02</pdfrwt>
<pdfrwt beam="1">  1       -2 0.22948501E-03 0.91285614E+02</pdfrwt>
<totfact> 0.24080644E+05</totfact>
</mgrwt>
</event>
<event>
 5    1  0.4006808E+001  0.9162145E+02  0.7546771E-02  0.1298972E+00
         -1   -1    0    0    0  501 -0.00000000000E+00  0.00000000000E+00  0.36243034030E+01  0.36243034030E+01  0.00000000000E+00 0.  1.
          1   -1    0    0  501    0  0.00000000000E+00 -0.00000000000E+00 -0.57904168052E+03  0.57904168052E+03  0.00000000000E+00 0. -1.
         23    2    1    2    0    0  0.00000000000E+00  0.00000000000E+00 -0.57541737712E+03  0.58266598392E+03  0.91621454544E+02 0.  0.
          2    1    3    3  502    0  0.37741283444E+02  0.23185007917E+02 -0.36205593747E+03  0.36475533022E+03  0.00000000000E+00 0. -1.
         -2    1    3    3    0  502 -0.37741283444E+02 -0.23185007917E+02 -0.21336143965E+03  0.21791065370E+03  0.00000000000E+00 0.  1.
<mgrwt>
<rscale>  0 0.91621455E+02</rscale>
<asrwt>0</asrwt>
<pdfrwt beam="2">  1        1 0.89083266E-01 0.91621455E+02</pdfrwt>
<pdfrwt beam="1">  1       -1 0.55758557E-03 0.91621455E+02</pdfrwt>
<totfact> 0.13944513E+05</totfact>
</mgrwt>
</event>
<event>
 5    1  0.4006808E+001  0.9080861E+02  0.7546771E-02  0.1300905E+00
         -1   -1    0    0    0  501 -0.00000000000E+00  0.00000000000E+00  0.11579523148E+01  0.11579523148E+01  0.00000000000E+00 0.  1.
          1   -1    0    0  501    0  0.00000000000E+00 -0.00000000000E+00 -0.17803417428E+04  0.17803417428E+04  0.00000000000E+00 0. -1.
         23    2    1    2    0    0  0.00000000000E+00  0.00000000000E+00 -0.17791837905E+04  0.17814996952E+04  0.90808608453E+02 0.  0.
          2    1    3    3  502    0 -0.13913631853E+02  0.23775403178E+02 -0.15976674271E+04  0.15979048991E+04  0.00000000000E+00 0. -1.
         -2    1    3    3    0  502  0.13913631853E+02 -0.23775403178E+02 -0.18151636340E+03  0.18359479603E+03  0.00000000000E+00 0.  1.
<mgrwt>
<rscale>  0 0.90808608E+02</rscale>
<asrwt>0</asrwt>
<pdfrwt beam="2">  1        1 0.27390140E+00 0.90808608E+02</pdfrwt>
<pdfrwt beam="1">  1       -1 0.17814478E-03 0.90808608E+02</pdfrwt>
<totfact> 0.94203430E+04</totfact>
</mgrwt>
</event>
<event>
 5    1  0.4006808E+001  0.8983390E+02  0.7546771E-02  0.1303254E+00
          2   -1    0    0  501    0  0.00000000000E+00  0.00000000000E+00  0.15395446933E+04  0.15395446933E+04  0.00000000000E+00 0. -1.
         -2   -1    0    0    0  501 -0.00000000000E+00 -0.00000000000E+00 -0.13104733461E+01  0.13104733461E+01  0.00000000000E+00 0.  1.
         23    2    1    2    0    0  0.00000000000E+00  0.00000000000E+00  0.15382342200E+04  0.15408551667E+04  0.89833897517E+02 0.  0.
          2    1    3    3  502    0 -0.28477888372E+02 -0.18514909292E+02  0.12732130116E+04  0.12736660335E+04  0.00000000000E+00 0. -1.
         -2    1    3    3    0  502  0.28477888372E+02  0.18514909292E+02  0.26502120834E+03  0.26718913313E+03  0.00000000000E+00 0.  1.
<mgrwt>
<rscale>  0 0.89833898E+02</rscale>
<asrwt>0</asrwt>
<pdfrwt beam="1">  1        2 0.23685158E+00 0.89833898E+02</pdfrwt>
<pdfrwt beam="2">  1       -2 0.20161251E-03 0.89833898E+02</pdfrwt>
<totfact> 0.24284627E+05</totfact>
</mgrwt>
</event>
<event>
 5    1  0.4006808E+001  0.9072795E+02  0.7546771E-02  0.1301098E+00
         -1   -1    0    0    0  501 -0.00000000000E+00  0.00000000000E+00  0.74780179815E+02  0.74780179815E+02  0.00000000000E+00 0.  1.
          1   -1    0    0  501    0  0.00000000000E+00 -0.00000000000E+00 -0.27519192303E+02  0.27519192303E+02  0.00000000000E+00 0. -1.
         23    2    1    2    0    0  0.00000000000E+00  0.00000000000E+00  0.47260987512E+02  0.10229937212E+03  0.90727948259E+02 0.  0.
          2    1    3    3  502    0 -0.45026503693E+02 -0.53904564843E+01  0.22274117802E+02  0.50523057902E+02  0.00000000000E+00 0. -1.
         -2    1    3    3    0  502  0.45026503693E+02  0.53904564843E+01  0.24986869709E+02  0.51776314216E+02  0.00000000000E+00 0.  1.
<mgrwt>
<rscale>  0 0.90727948E+02</rscale>
<asrwt>0</asrwt>
<pdfrwt beam="2">  1        1 0.42337219E-02 0.90727948E+02</pdfrwt>
<pdfrwt beam="1">  1       -1 0.11504643E-01 0.90727948E+02</pdfrwt>
<totfact> 0.86696155E+04</totfact>
</mgrwt>
</event>
<event>
 5    1  0.4006808E+001  0.9010161E+02  0.7546771E-02  0.1302606E+00
         -3   -1    0    0    0  501 -0.00000000000E+00  0.00000000000E+00  0.11983605868E+02  0.11983605868E+02  0.00000000000E+00 0.  1.
          3   -1    0    0  501    0  0.00000000000E+00 -0.00000000000E+00 -0.16936263561E+03  0.16936263561E+03  0.00000000000E+00 0. -1.
         23    2    1    2    0    0  0.00000000000E+00  0.00000000000E+00 -0.15737902975E+03  0.18134624148E+03  0.90101610949E+02 0.  0.
          2    1    3    3  502    0 -0.20611903973E+02  0.32258060518E+02 -0.12649417421E+03  0.13215978648E+03  0.00000000000E+00 0. -1.
         -2    1    3    3    0  502  0.20611903973E+02 -0.32258060518E+02 -0.30884855532E+02  0.49186454995E+02  0.00000000000E+00 0.  1.
<mgrwt>
<rscale>  0 0.90101611E+02</rscale>
<asrwt>0</asrwt>
<pdfrwt beam="2">  1        3 0.26055790E-01 0.90101611E+02</pdfrwt>
<pdfrwt beam="1">  1       -3 0.18436317E-02 0.90101611E+02</pdfrwt>
<totfact> 0.30450567E+04</totfact>
</mgrwt>
</event>
<event>
 5    1  0.4006808E+001  0.8650527E+02  0.7546771E-02  0.1311542E+00
         -4   -1    0    0    0  501 -0.00000000000E+00  0.00000000000E+00  0.40555721630E+02  0.40555721630E+02  0.00000000000E+00 0.  1.
          4   -1    0    0  501    0  0.00000000000E+00 -0.00000000000E+00 -0.46128892712E+02  0.46128892712E+02  0.00000000000E+00 0. -1.
         23    2    1    2    0    0  0.00000000000E+00  0.00000000000E+00 -0.55731710819E+01  0.86684614343E+02  0.86505272254E+02 0.  0.
          2    1    3    3  502    0  0.16762920056E+02  0.37076047103E+02 -0.17485389669E+02  0.44287330123E+02  0.00000000000E+00 0. -1.
         -2    1    3    3    0  502 -0.16762920056E+02 -0.37076047103E+02  0.11912218587E+02  0.42397284220E+02  0.00000000000E+00 0.  1.
<mgrwt>
<rscale>  0 0.86505272E+02</rscale>
<asrwt>0</asrwt>
<pdfrwt beam="2">  1        4 0.70967527E-02 0.86505272E+02</pdfrwt>
<pdfrwt beam="1">  1       -4 0.62393418E-02 0.86505272E+02</pdfrwt>
<totfact> 0.31480139E+04</totfact>
</mgrwt>
</event>
<event>
 5    1  0.4006808E+001  0.9199824E+02  0.7546771E-02  0.1298084E+00
          1   -1    0    0  501    0  0.00000000000E+00  0.00000000000E+00  0.78547176840E+01  0.78547176840E+01  0.00000000000E+00 0. -1.
         -1   -1    0    0    0  501 -0.00000000000E+00 -0.00000000000E+00 -0.26938190651E+03  0.26938190651E+03  0.00000000000E+00 0.  1.
         23    2    1    2    0    0  0.00000000000E+00  0.00000000000E+00 -0.26152718883E+03  0.27723662419E+03  0.91998235305E+02 0.  0.
          2    1    3    3  502    0  0.41580392471E+02 -0.60893175797E+01 -0.74393432647E+02  0.85442329367E+02  0.00000000000E+00 0. -1.
         -2    1    3    3    0  502 -0.41580392471E+02  0.60893175797E+01 -0.18713375618E+03  0.19179429483E+03  0.00000000000E+00 0.  1.
<mgrwt>
<rscale>  0 0.91998235E+02</rscale>
<asrwt>0</asrwt>
<pdfrwt beam="1">  1        1 0.12084180E-02 0.91998235E+02</pdfrwt>
<pdfrwt beam="2">  1       -1 0.41443373E-01 0.91998235E+02</pdfrwt>
<totfact> 0.61632346E+04</totfact>
</mgrwt>
</event>
<event>
 5    1  0.4006808E+001  0.7930912E+02  0.7546771E-02  0.1331024E+00
         -2   -1    0    0    0  501 -0.00000000000E+00  0.00000000000E+00  0.60465386599E+03  0.60465386599E+03  0.00000000000E+00 0.  1.
          2   -1    0    0  501    0  0.00000000000E+00 -0.00000000000E+00 -0.26006351853E+01  0.26006351853E+01  0.00000000000E+00 0. -1.
         23    2    1    2    0    0  0.00000000000E+00  0.00000000000E+00  0.60205323081E+03  0.60725450118E+03  0.79309119748E+02 0.  0.
          2    1    3    3  502    0 -0.12098141015E+02  0.24940499677E+02  0.51814675011E+03  0.51888770287E+03  0.00000000000E+00 0.  1.
         -2    1    3    3    0  502  0.12098141015E+02 -0.24940499677E+02  0.83906480698E+02  0.88366798308E+02  0.00000000000E+00 0. -1.
<mgrwt>
<rscale>  0 0.79309120E+02</rscale>
<asrwt>0</asrwt>
<pdfrwt beam="2">  1        2 0.40009820E-03 0.79309120E+02</pdfrwt>
<pdfrwt beam="1">  1       -2 0.93023559E-01 0.79309120E+02</pdfrwt>
<totfact> 0.44499585E+04</totfact>
</mgrwt>
</event>
<event>
 5    1  0.4006808E+001  0.9536920E+02  0.7546771E-02  0.1290347E+00
         -2   -1    0    0    0  501 -0.00000000000E+00  0.00000000000E+00  0.21043431556E+02  0.21043431556E+02  0.00000000000E+00 0.  1.
          2   -1    0    0  501    0  0.00000000000E+00 -0.00000000000E+00 -0.10805372021E+03  0.10805372021E+03  0.00000000000E+00 0. -1.
         23    2    1    2    0    0  0.00000000000E+00  0.00000000000E+00 -0.87010288657E+02  0.12909715177E+03  0.95369199760E+02 0.  0.
          2    1    3    3  502    0  0.12508888917E+02  0.32927428740E+02 -0.87014903675E+02  0.93873752066E+02  0.00000000000E+00 0. -1.
         -2    1    3    3    0  502 -0.12508888917E+02 -0.32927428740E+02  0.46150177539E-02  0.35223399704E+02  0.00000000000E+00 0.  1.
<mgrwt>
<rscale>  0 0.95369200E+02</rscale>
<asrwt>0</asrwt>
<pdfrwt beam="2">  1        2 0.16623649E-01 0.95369200E+02</pdfrwt>
<pdfrwt beam="1">  1       -2 0.32374511E-02 0.95369200E+02</pdfrwt>
<totfact> 0.11099681E+05</totfact>
</mgrwt>
</event>
<event>
 4    1  0.4006808E+001  0.4492597E+02  0.7546771E-02  0.1474804E+00
         -4   -1    0    0    0  501 -0.00000000000E+00  0.00000000000E+00  0.40089688957E+01  0.40089688957E+01  0.00000000000E+00 0.  1.
          4   -1    0    0  501    0  0.00000000000E+00 -0.00000000000E+00 -0.12586420361E+03  0.12586420361E+03  0.00000000000E+00 0. -1.
          2    1    1    2  502    0  0.19539790068E+02 -0.62077149017E+01 -0.87461333281E+02  0.89832198791E+02  0.00000000000E+00 0. -1.
         -2    1    1    2    0  502 -0.19539790068E+02  0.62077149017E+01 -0.34393901430E+02  0.40040973712E+02  0.00000000000E+00 0.  1.
<mgrwt>
<rscale>  0 0.44925969E+02</rscale>
<asrwt>0</asrwt>
<pdfrwt beam="2">  1        4 0.19363726E-01 0.44925969E+02</pdfrwt>
<pdfrwt beam="1">  1       -4 0.61676435E-03 0.44925969E+02</pdfrwt>
<totfact> 0.15079179E+05</totfact>
</mgrwt>
</event>
<event>
 5    1  0.4006808E+001  0.8657021E+02  0.7546771E-02  0.1311377E+00
          2   -1    0    0  501    0  0.00000000000E+00  0.00000000000E+00  0.24508015882E+04  0.24508015882E+04  0.00000000000E+00 0. -1.
         -2   -1    0    0    0  501 -0.00000000000E+00 -0.00000000000E+00 -0.76448475498E+00  0.76448475498E+00  0.00000000000E+00 0.  1.
         23    2    1    2    0    0  0.00000000000E+00  0.00000000000E+00  0.24500371034E+04  0.24515660729E+04  0.86570213160E+02 0.  0.
          2    1    3    3  502    0  0.34849852400E+02  0.15473738868E+02  0.64489622451E+03  0.64602251446E+03  0.00000000000E+00 0. -1.
         -2    1    3    3    0  502 -0.34849852400E+02 -0.15473738868E+02  0.18051408789E+04  0.18055435585E+04  0.00000000000E+00 0.  1.
<mgrwt>
<rscale>  0 0.86570213E+02</rscale>
<asrwt>0</asrwt>
<pdfrwt beam="1">  1        2 0.37704011E+00 0.86570213E+02</pdfrwt>
<pdfrwt beam="2">  1       -2 0.11761500E-03 0.86570213E+02</pdfrwt>
<totfact> 0.17594996E+05</totfact>
</mgrwt>
</event>
<event>
 5    1  0.4006808E+001  0.9175315E+02  0.7546771E-02  0.1298661E+00
          2   -1    0    0  501    0  0.00000000000E+00  0.00000000000E+00  0.14766647535E+03  0.14766647535E+03  0.00000000000E+00 0. -1.
         -2   -1    0    0    0  501 -0.00000000000E+00 -0.00000000000E+00 -0.14252795607E+02  0.14252795607E+02  0.00000000000E+00 0.  1.
         23    2    1    2    0    0  0.00000000000E+00  0.00000000000E+00  0.13341367975E+03  0.16191927096E+03  0.91753149074E+02 0.  0.
          2    1    3    3  502    0 -0.42992870149E+02  0.15885205530E+02  0.70206811607E+02  0.83843443598E+02  0.00000000000E+00 0. -1.
         -2    1    3    3    0  502  0.42992870149E+02 -0.15885205530E+02  0.63206868138E+02  0.78075827362E+02  0.00000000000E+00 0.  1.
<mgrwt>
<rscale>  0 0.91753149E+02</rscale>
<asrwt>0</asrwt>
<pdfrwt beam="1">  1        2 0.22717918E-01 0.91753149E+02</pdfrwt>
<pdfrwt beam="2">  1       -2 0.21927379E-02 0.91753149E+02</pdfrwt>
<totfact> 0.13670521E+05</totfact>
</mgrwt>
</event>
<event>
 5    1  0.4006808E+001  0.9222381E+02  0.7546771E-02  0.1297554E+00
         -1   -1    0    0    0  501 -0.00000000000E+00  0.00000000000E+00  0.34405483019E+03  0.34405483019E+03  0.00000000000E+00 0.  1.
          1   -1    0    0  501    0  0.00000000000E+00 -0.00000000000E+00 -0.61801419186E+01  0.61801419186E+01  0.00000000000E+00 0. -1.
         23    2    1    2    0    0  0.00000000000E+00  0.00000000000E+00  0.33787468828E+03  0.35023497211E+03  0.92223807737E+02 0.  0.
          2    1    3    3  502    0  0.37997501560E+02  0.17294615835E+01  0.69942341135E+02  0.79616155682E+02  0.00000000000E+00 0. -1.
         -2    1    3    3    0  502 -0.37997501560E+02 -0.17294615835E+01  0.26793234714E+03  0.27061881643E+03  0.00000000000E+00 0.  1.
<mgrwt>
<rscale>  0 0.92223808E+02</rscale>
<asrwt>0</asrwt>
<pdfrwt beam="2">  1        1 0.95079133E-03 0.92223808E+02</pdfrwt>
<pdfrwt beam="1">  1       -1 0.52931497E-01 0.92223808E+02</pdfrwt>
<totfact> 0.55535017E+04</totfact>
</mgrwt>
</event>
<event>
 5    1  0.4006808E+001  0.9151021E+02  0.7546771E-02  0.1299235E+00
         -2   -1    0    0    0  501 -0.00000000000E+00  0.00000000000E+00  0.35564350331E+03  0.35564350331E+03  0.00000000000E+00 0.  1.
          2   -1    0    0  501    0  0.00000000000E+00 -0.00000000000E+00 -0.58865954348E+01  0.58865954348E+01  0.00000000000E+00 0. -1.
         23    2    1    2    0    0  0.00000000000E+00  0.00000000000E+00  0.34975690788E+03  0.36153009875E+03  0.91510205399E+02 0.  0.
          2    1    3    3  502    0  0.27770502866E+02 -0.53317784550E+01  0.32768202144E+02  0.43282603465E+02  0.00000000000E+00 0. -1.
         -2    1    3    3    0  502 -0.27770502866E+02  0.53317784550E+01  0.31698870573E+03  0.31824749528E+03  0.00000000000E+00 0.  1.
<mgrwt>
<rscale>  0 0.91510205E+02</rscale>
<asrwt>0</asrwt>
<pdfrwt beam="2">  1        2 0.90563035E-03 0.91510205E+02</pdfrwt>
<pdfrwt beam="1">  1       -2 0.54714368E-01 0.91510205E+02</pdfrwt>
<totfact> 0.45660310E+04</totfact>
</mgrwt>
</event>
<event>
 5    1  0.4006808E+001  0.9109085E+02  0.7546771E-02  0.1300231E+00
         -3   -1    0    0    0  501 -0.00000000000E+00  0.00000000000E+00  0.71120837340E+01  0.71120837340E+01  0.00000000000E+00 0.  1.
          3   -1    0    0  501    0  0.00000000000E+00 -0.00000000000E+00 -0.29167060711E+03  0.29167060711E+03  0.00000000000E+00 0. -1.
         23    2    1    2    0    0  0.00000000000E+00  0.00000000000E+00 -0.28455852337E+03  0.29878269084E+03  0.91090850923E+02 0.  0.
          2    1    3    3  502    0  0.27013771659E+02 -0.84478391883E+01 -0.25932131725E+03  0.26086137204E+03  0.00000000000E+00 0. -1.
         -2    1    3    3    0  502 -0.27013771659E+02  0.84478391883E+01 -0.25237206126E+02  0.37921318796E+02  0.00000000000E+00 0.  1.
<mgrwt>
<rscale>  0 0.91090851E+02</rscale>
<asrwt>0</asrwt>
<pdfrwt beam="2">  1        3 0.44872405E-01 0.91090851E+02</pdfrwt>
<pdfrwt beam="1">  1       -3 0.10941666E-02 0.91090851E+02</pdfrwt>
<totfact> 0.24139537E+04</totfact>
</mgrwt>
</event>
<event>
 5    1  0.4006808E+001  0.9086257E+02  0.7546771E-02  0.1300776E+00
         -1   -1    0    0    0  501 -0.00000000000E+00  0.00000000000E+00  0.93744675775E+01  0.93744675775E+01  0.00000000000E+00 0.  1.
          1   -1    0    0  501    0  0.00000000000E+00 -0.00000000000E+00 -0.22017267040E+03  0.22017267040E+03  0.00000000000E+00 0. -1.
         23    2    1    2    0    0  0.00000000000E+00  0.00000000000E+00 -0.21079820283E+03  0.22954713798E+03  0.90862567874E+02 0.  0.
          2    1    3    3  502    0 -0.28407388875E+02  0.18778553340E+02 -0.18137296490E+03  0.18454204454E+03  0.00000000000E+00 0. -1.
         -2    1    3    3    0  502  0.28407388875E+02 -0.18778553340E+02 -0.29425237927E+02  0.45005093437E+02  0.00000000000E+00 0.  1.
<mgrwt>
<rscale>  0 0.90862568E+02</rscale>
<asrwt>0</asrwt>
<pdfrwt beam="2">  1        1 0.33872721E-01 0.90862568E+02</pdfrwt>
<pdfrwt beam="1">  1       -1 0.14422257E-02 0.90862568E+02</pdfrwt>
<totfact> 0.12176190E+05</totfact>
</mgrwt>
</event>
<event>
 5    1  0.4006808E+001  0.9731381E+02  0.7546771E-02  0.1286048E+00
          1   -1    0    0  501    0  0.00000000000E+00  0.00000000000E+00  0.38168212181E+03  0.38168212181E+03  0.00000000000E+00 0. -1.
         -1   -1    0    0    0  501 -0.00000000000E+00 -0.00000000000E+00 -0.62027910589E+01  0.62027910589E+01  0.00000000000E+00 0.  1.
         23    2    1    2    0    0  0.00000000000E+00  0.00000000000E+00  0.37547933075E+03  0.38788491287E+03  0.97313810993E+02 0.  0.
          2    1    3    3  502    0 -0.42836593209E+02  0.16965419821E+02  0.25009034473E+03  0.25429899669E+03  0.00000000000E+00 0. -1.
         -2    1    3    3    0  502  0.42836593209E+02 -0.16965419821E+02  0.12538898602E+03  0.13358591618E+03  0.00000000000E+00 0.  1.
<mgrwt>
<rscale>  0 0.97313811E+02</rscale>
<asrwt>0</asrwt>
<pdfrwt beam="1">  1        1 0.58720308E-01 0.97313811E+02</pdfrwt>
<pdfrwt beam="2">  1       -1 0.95427585E-03 0.97313811E+02</pdfrwt>
<totfact> 0.11249954E+05</totfact>
</mgrwt>
</event>
<event>
 5    1  0.4006808E+001  0.9417841E+02  0.7546771E-02  0.1293037E+00
          2   -1    0    0  501    0  0.00000000000E+00  0.00000000000E+00  0.14138912618E+04  0.14138912618E+04  0.00000000000E+00 0. -1.
         -2   -1    0    0    0  501 -0.00000000000E+00 -0.00000000000E+00 -0.15682913340E+01  0.15682913340E+01  0.00000000000E+00 0.  1.
         23    2    1    2    0    0  0.00000000000E+00  0.00000000000E+00  0.14123229704E+04  0.14154595531E+04  0.94178413939E+02 0.  0.
          2    1    3    3  502    0  0.10699516702E+02  0.25085562202E+02  0.12920896881E+03  0.13205575606E+03  0.00000000000E+00 0.  1.
         -2    1    3    3    0  502 -0.10699516702E+02 -0.25085562202E+02  0.12831140016E+04  0.12834037970E+04  0.00000000000E+00 0. -1.
<mgrwt>
<rscale>  0 0.94178414E+02</rscale>
<asrwt>0</asrwt>
<pdfrwt beam="1">  1        2 0.21752071E+00 0.94178414E+02</pdfrwt>
<pdfrwt beam="2">  1       -2 0.24127672E-03 0.94178414E+02</pdfrwt>
<totfact> 0.22099777E+05</totfact>
</mgrwt>
</event>
<event>
 5    1  0.4006808E+001  0.7796215E+02  0.7546771E-02  0.1334936E+00
          2   -1    0    0  501    0  0.00000000000E+00  0.00000000000E+00  0.18017477259E+04  0.18017477259E+04  0.00000000000E+00 0. -1.
         -2   -1    0    0    0  501 -0.00000000000E+00 -0.00000000000E+00 -0.84336115441E+00  0.84336115441E+00  0.00000000000E+00 0.  1.
         23    2    1    2    0    0  0.00000000000E+00  0.00000000000E+00  0.18009043647E+04  0.18025910870E+04  0.77962145739E+02 0.  0.
          2    1    3    3  502    0  0.57108503421E+01  0.21960472040E+02  0.16333110981E+04  0.16334687078E+04  0.00000000000E+00 0. -1.
         -2    1    3    3    0  502 -0.57108503421E+01 -0.21960472040E+02  0.16759326660E+03  0.16912237922E+03  0.00000000000E+00 0.  1.
<mgrwt>
<rscale>  0 0.77962146E+02</rscale>
<asrwt>0</asrwt>
<pdfrwt beam="1">  1        2 0.27718888E+00 0.77962146E+02</pdfrwt>
<pdfrwt beam="2">  1       -2 0.12974931E-03 0.77962146E+02</pdfrwt>
<totfact> 0.32280171E+05</totfact>
</mgrwt>
</event>
<event>
 5    1  0.4006808E+001  0.9292099E+02  0.7546771E-02  0.1295928E+00
          2   -1    0    0  501    0  0.00000000000E+00  0.00000000000E+00  0.33825914105E+03  0.33825914105E+03  0.00000000000E+00 0. -1.
         -2   -1    0    0    0  501 -0.00000000000E+00 -0.00000000000E+00 -0.63814323031E+01  0.63814323031E+01  0.00000000000E+00 0.  1.
         23    2    1    2    0    0  0.00000000000E+00  0.00000000000E+00  0.33187770875E+03  0.34464057336E+03  0.92920994604E+02 0.  0.
          2    1    3    3  502    0  0.31288643216E+02 -0.30894480308E+02  0.11028836954E+03  0.11873067238E+03  0.00000000000E+00 0.  1.
         -2    1    3    3    0  502 -0.31288643216E+02  0.30894480308E+02  0.22158933921E+03  0.22590990098E+03  0.00000000000E+00 0. -1.
<mgrwt>
<rscale>  0 0.92920995E+02</rscale>
<asrwt>0</asrwt>
<pdfrwt beam="1">  1        2 0.52039854E-01 0.92920995E+02</pdfrwt>
<pdfrwt beam="2">  1       -2 0.98175908E-03 0.92920995E+02</pdfrwt>
<totfact> 0.17857523E+05</totfact>
</mgrwt>
</event>
<event>
 5    1  0.4006808E+001  0.9157996E+02  0.7546771E-02  0.1299070E+00
         -2   -1    0    0    0  501 -0.00000000000E+00  0.00000000000E+00  0.11680442183E+03  0.11680442183E+03  0.00000000000E+00 0.  1.
          2   -1    0    0  501    0  0.00000000000E+00 -0.00000000000E+00 -0.17950708721E+02  0.17950708721E+02  0.00000000000E+00 0. -1.
         23    2    1    2    0    0  0.00000000000E+00  0.00000000000E+00  0.98853713105E+02  0.13475513055E+03  0.91579957492E+02 0.  0.
          2    1    3    3  502    0 -0.17547026628E+02  0.30175962575E+02  0.58204485097E+01  0.35388762082E+02  0.00000000000E+00 0. -1.
         -2    1    3    3    0  502  0.17547026628E+02 -0.30175962575E+02  0.93033264595E+02  0.99366368466E+02  0.00000000000E+00 0.  1.
<mgrwt>
<rscale>  0 0.91579957E+02</rscale>
<asrwt>0</asrwt>
<pdfrwt beam="2">  1        2 0.27616476E-02 0.91579957E+02</pdfrwt>
<pdfrwt beam="1">  1       -2 0.17969911E-01 0.91579957E+02</pdfrwt>
<totfact> 0.75236139E+04</totfact>
</mgrwt>
</event>
<event>
 5    1  0.4006808E+001  0.9017736E+02  0.7546771E-02  0.1302423E+00
         -3   -1    0    0    0  501 -0.00000000000E+00  0.00000000000E+00  0.17622522855E+01  0.17622522855E+01  0.00000000000E+00 0. -1.
          3   -1    0    0  501    0  0.00000000000E+00 -0.00000000000E+00 -0.11536309914E+04  0.11536309914E+04  0.00000000000E+00 0.  1.
         23    2    1    2    0    0  0.00000000000E+00  0.00000000000E+00 -0.11518687391E+04  0.11553932437E+04  0.90177355276E+02 0.  0.
          2    1    3    3  502    0  0.19832874165E+02 -0.27248389039E+02 -0.95970346904E+03  0.96029504116E+03  0.00000000000E+00 0.  1.
         -2    1    3    3    0  502 -0.19832874165E+02  0.27248389039E+02 -0.19216527005E+03  0.19509820249E+03  0.00000000000E+00 0. -1.
<mgrwt>
<rscale>  0 0.90177355E+02</rscale>
<asrwt>0</asrwt>
<pdfrwt beam="2">  1        3 0.17748229E+00 0.90177355E+02</pdfrwt>
<pdfrwt beam="1">  1       -3 0.27111481E-03 0.90177355E+02</pdfrwt>
<totfact> 0.88183263E+03</totfact>
</mgrwt>
</event>
<event>
 5    1  0.4006808E+001  0.8982377E+02  0.7546771E-02  0.1303279E+00
          1   -1    0    0  501    0  0.00000000000E+00  0.00000000000E+00  0.28680339664E+03  0.28680339664E+03  0.00000000000E+00 0. -1.
         -1   -1    0    0    0  501 -0.00000000000E+00 -0.00000000000E+00 -0.70329617960E+01  0.70329617960E+01  0.00000000000E+00 0.  1.
         23    2    1    2    0    0  0.00000000000E+00  0.00000000000E+00  0.27977043484E+03  0.29383635844E+03  0.89823768158E+02 0.  0.
          2    1    3    3  502    0  0.44067038785E+01 -0.22779410789E+02  0.26568000066E+03  0.26669117598E+03  0.00000000000E+00 0. -1.
         -2    1    3    3    0  502 -0.44067038785E+01  0.22779410789E+02  0.14090434179E+02  0.27145182451E+02  0.00000000000E+00 0.  1.
<mgrwt>
<rscale>  0 0.89823768E+02</rscale>
<asrwt>0</asrwt>
<pdfrwt beam="1">  1        1 0.44123590E-01 0.89823768E+02</pdfrwt>
<pdfrwt beam="2">  1       -1 0.10819943E-02 0.89823768E+02</pdfrwt>
<totfact> 0.13218017E+05</totfact>
</mgrwt>
</event>
<event>
 5    1  0.4006808E+001  0.8702259E+02  0.7546771E-02  0.1310226E+00
          1   -1    0    0  501    0  0.00000000000E+00  0.00000000000E+00  0.29840865418E+02  0.29840865418E+02  0.00000000000E+00 0. -1.
         -1   -1    0    0    0  501 -0.00000000000E+00 -0.00000000000E+00 -0.63444295534E+02  0.63444295534E+02  0.00000000000E+00 0.  1.
         23    2    1    2    0    0  0.00000000000E+00  0.00000000000E+00 -0.33603430116E+02  0.93285160952E+02  0.87022587517E+02 0.  0.
          2    1    3    3  502    0  0.29637367064E+02  0.27842740259E+02 -0.20733204124E+00  0.40664907453E+02  0.00000000000E+00 0. -1.
         -2    1    3    3    0  502 -0.29637367064E+02 -0.27842740259E+02 -0.33396098074E+02  0.52620253498E+02  0.00000000000E+00 0.  1.
<mgrwt>
<rscale>  0 0.87022588E+02</rscale>
<asrwt>0</asrwt>
<pdfrwt beam="1">  1        1 0.45909024E-02 0.87022588E+02</pdfrwt>
<pdfrwt beam="2">  1       -1 0.97606607E-02 0.87022588E+02</pdfrwt>
<totfact> 0.98952336E+04</totfact>
</mgrwt>
</event>
<event>
 5    1  0.4006808E+001  0.1237842E+03  0.7546771E-02  0.1236982E+00
          3   -1    0    0  501    0  0.00000000000E+00  0.00000000000E+00  0.39249655066E+02  0.39249655066E+02  0.00000000000E+00 0. -1.
         -3   -1    0    0    0  501 -0.00000000000E+00 -0.00000000000E+00 -0.97596517576E+02  0.97596517576E+02  0.00000000000E+00 0.  1.
         23    2    1    2    0    0  0.00000000000E+00  0.00000000000E+00 -0.58346862509E+02  0.13684617264E+03  0.12378416135E+03 0.  0.
          2    1    3    3  502    0  0.29571144244E+02  0.52187545495E+02 -0.12311507027E+02  0.61233697275E+02  0.00000000000E+00 0. -1.
         -2    1    3    3    0  502 -0.29571144244E+02 -0.52187545495E+02 -0.46035355482E+02  0.75612475367E+02  0.00000000000E+00 0.  1.
<mgrwt>
<rscale>  0 0.12378416E+03</rscale>
<asrwt>0</asrwt>
<pdfrwt beam="1">  1        3 0.60384086E-02 0.12378416E+03</pdfrwt>
<pdfrwt beam="2">  1       -3 0.15014849E-01 0.12378416E+03</pdfrwt>
<totfact> 0.13800793E+04</totfact>
</mgrwt>
</event>
<event>
 5    1  0.4006808E+001  0.9232855E+02  0.7546771E-02  0.1297309E+00
          1   -1    0    0  501    0  0.00000000000E+00  0.00000000000E+00  0.85458936099E+03  0.85458936099E+03  0.00000000000E+00 0. -1.
         -1   -1    0    0    0  501 -0.00000000000E+00 -0.00000000000E+00 -0.24937593674E+01  0.24937593674E+01  0.00000000000E+00 0.  1.
         23    2    1    2    0    0  0.00000000000E+00  0.00000000000E+00  0.85209560162E+03  0.85708312036E+03  0.92328548657E+02 0.  0.
          2    1    3    3  502    0 -0.27111843645E+02  0.37124112965E+02  0.38678578243E+03  0.38950801445E+03  0.00000000000E+00 0. -1.
         -2    1    3    3    0  502  0.27111843645E+02 -0.37124112965E+02  0.46530981919E+03  0.46757510591E+03  0.00000000000E+00 0.  1.
<mgrwt>
<rscale>  0 0.92328549E+02</rscale>
<asrwt>0</asrwt>
<pdfrwt beam="1">  1        1 0.13147505E+00 0.92328549E+02</pdfrwt>
<pdfrwt beam="2">  1       -1 0.38365597E-03 0.92328549E+02</pdfrwt>
<totfact> 0.13569845E+05</totfact>
</mgrwt>
</event>
<event>
 4    1  0.4006808E+001  0.1642750E+03  0.7546771E-02  0.1183953E+00
         -2   -1    0    0    0  501 -0.00000000000E+00  0.00000000000E+00  0.99083957256E+01  0.99083957256E+01  0.00000000000E+00 0.  1.
          2   -1    0    0  501    0  0.00000000000E+00 -0.00000000000E+00 -0.68089457159E+03  0.68089457159E+03  0.00000000000E+00 0. -1.
          2    1    1    2  502    0  0.44886617701E+02 -0.21455494993E+02 -0.60659984368E+02  0.78452408616E+02  0.00000000000E+00 0.  1.
         -2    1    1    2    0  502 -0.44886617701E+02  0.21455494993E+02 -0.61032619150E+03  0.61235055870E+03  0.00000000000E+00 0. -1.
<mgrwt>
<rscale>  0 0.16427505E+03</rscale>
<asrwt>0</asrwt>
<pdfrwt beam="2">  1        2 0.10475302E+00 0.16427505E+03</pdfrwt>
<pdfrwt beam="1">  1       -2 0.15243685E-02 0.16427505E+03</pdfrwt>
<totfact> 0.47546361E+04</totfact>
</mgrwt>
</event>
<event>
 5    1  0.4006808E+001  0.9029360E+02  0.7546771E-02  0.1302142E+00
          2   -1    0    0  501    0  0.00000000000E+00  0.00000000000E+00  0.18307019410E+03  0.18307019410E+03  0.00000000000E+00 0. -1.
         -2   -1    0    0    0  501 -0.00000000000E+00 -0.00000000000E+00 -0.11133618781E+02  0.11133618781E+02  0.00000000000E+00 0.  1.
         23    2    1    2    0    0  0.00000000000E+00  0.00000000000E+00  0.17193657531E+03  0.19420381288E+03  0.90293604451E+02 0.  0.
          2    1    3    3  502    0  0.16098207143E+02  0.37856351667E+02  0.45962292576E+02  0.61682963398E+02  0.00000000000E+00 0.  1.
         -2    1    3    3    0  502 -0.16098207143E+02 -0.37856351667E+02  0.12597428274E+03  0.13252084948E+03  0.00000000000E+00 0. -1.
<mgrwt>
<rscale>  0 0.90293604E+02</rscale>
<asrwt>0</asrwt>
<pdfrwt beam="1">  1        2 0.28164643E-01 0.90293604E+02</pdfrwt>
<pdfrwt beam="2">  1       -2 0.17128646E-02 0.90293604E+02</pdfrwt>
<totfact> 0.15382881E+05</totfact>
</mgrwt>
</event>
<event>
 5    1  0.4006808E+001  0.8943976E+02  0.7546771E-02  0.1304214E+00
         -2   -1    0    0    0  501 -0.00000000000E+00  0.00000000000E+00  0.38300111783E+01  0.38300111783E+01  0.00000000000E+00 0.  1.
          2   -1    0    0  501    0  0.00000000000E+00 -0.00000000000E+00 -0.52215717272E+03  0.52215717272E+03  0.00000000000E+00 0. -1.
         23    2    1    2    0    0  0.00000000000E+00  0.00000000000E+00 -0.51832716154E+03  0.52598718390E+03  0.89439763156E+02 0.  0.
          2    1    3    3  502    0 -0.10448641035E+02 -0.20165403065E+02 -0.48571606141E+03  0.48624675823E+03  0.00000000000E+00 0. -1.
         -2    1    3    3    0  502  0.10448641035E+02  0.20165403065E+02 -0.32611100129E+02  0.39740425663E+02  0.00000000000E+00 0.  1.
<mgrwt>
<rscale>  0 0.89439763E+02</rscale>
<asrwt>0</asrwt>
<pdfrwt beam="2">  1        2 0.80331889E-01 0.89439763E+02</pdfrwt>
<pdfrwt beam="1">  1       -2 0.58923237E-03 0.89439763E+02</pdfrwt>
<totfact> 0.22990514E+05</totfact>
</mgrwt>
</event>
<event>
 5    1  0.4006808E+001  0.9151168E+02  0.7546771E-02  0.1299232E+00
         -3   -1    0    0    0  501 -0.00000000000E+00  0.00000000000E+00  0.13167966710E+02  0.13167966710E+02  0.00000000000E+00 0.  1.
          3   -1    0    0  501    0  0.00000000000E+00 -0.00000000000E+00 -0.15899164619E+03  0.15899164619E+03  0.00000000000E+00 0. -1.
         23    2    1    2    0    0  0.00000000000E+00  0.00000000000E+00 -0.14582367948E+03  0.17215961290E+03  0.91511675850E+02 0.  0.
          2    1    3    3  502    0  0.46116322636E+01 -0.43188626346E+02 -0.99983542285E+02  0.10901024413E+03  0.00000000000E+00 0. -1.
         -2    1    3    3    0  502 -0.46116322636E+01  0.43188626346E+02 -0.45840137191E+02  0.63149368765E+02  0.00000000000E+00 0.  1.
<mgrwt>
<rscale>  0 0.91511676E+02</rscale>
<asrwt>0</asrwt>
<pdfrwt beam="2">  1        3 0.24460254E-01 0.91511676E+02</pdfrwt>
<pdfrwt beam="1">  1       -3 0.20258410E-02 0.91511676E+02</pdfrwt>
<totfact> 0.29707564E+04</totfact>
</mgrwt>
</event>
<event>
 5    1  0.4006808E+001  0.9185072E+02  0.7546771E-02  0.1298431E+00
          1   -1    0    0  501    0  0.00000000000E+00  0.00000000000E+00  0.40495798316E+03  0.40495798316E+03  0.00000000000E+00 0. -1.
         -1   -1    0    0    0  501 -0.00000000000E+00 -0.00000000000E+00 -0.52082900656E+01  0.52082900656E+01  0.00000000000E+00 0.  1.
         23    2    1    2    0    0  0.00000000000E+00  0.00000000000E+00  0.39974969310E+03  0.41016627323E+03  0.91850718902E+02 0.  0.
          2    1    3    3  502    0 -0.12884787170E+02  0.20127054728E+02  0.37500411800E+03  0.37576482618E+03  0.00000000000E+00 0. -1.
         -2    1    3    3    0  502  0.12884787170E+02 -0.20127054728E+02  0.24745575091E+02  0.34401447049E+02  0.00000000000E+00 0.  1.
<mgrwt>
<rscale>  0 0.91850719E+02</rscale>
<asrwt>0</asrwt>
<pdfrwt beam="1">  1        1 0.62301204E-01 0.91850719E+02</pdfrwt>
<pdfrwt beam="2">  1       -1 0.80127571E-03 0.91850719E+02</pdfrwt>
<totfact> 0.13254325E+05</totfact>
</mgrwt>
</event>
<event>
 5    1  0.4006808E+001  0.8927411E+02  0.7546771E-02  0.1304619E+00
          2   -1    0    0  501    0  0.00000000000E+00  0.00000000000E+00  0.56201070971E+03  0.56201070971E+03  0.00000000000E+00 0. -1.
         -2   -1    0    0    0  501 -0.00000000000E+00 -0.00000000000E+00 -0.35452471745E+01  0.35452471745E+01  0.00000000000E+00 0.  1.
         23    2    1    2    0    0  0.00000000000E+00  0.00000000000E+00  0.55846546253E+03  0.56555595688E+03  0.89274114515E+02 0.  0.
          2    1    3    3  502    0 -0.15914124162E+02  0.19176527399E+02  0.51384078757E+03  0.51444470404E+03  0.00000000000E+00 0. -1.
         -2    1    3    3    0  502  0.15914124162E+02 -0.19176527399E+02  0.44624674967E+02  0.51111252840E+02  0.00000000000E+00 0.  1.
<mgrwt>
<rscale>  0 0.89274115E+02</rscale>
<asrwt>0</asrwt>
<pdfrwt beam="1">  1        2 0.86463116E-01 0.89274115E+02</pdfrwt>
<pdfrwt beam="2">  1       -2 0.54542309E-03 0.89274115E+02</pdfrwt>
<totfact> 0.23633076E+05</totfact>
</mgrwt>
</event>
<event>
 5    1  0.4006808E+001  0.9639329E+02  0.7546771E-02  0.1288069E+00
         -1   -1    0    0    0  501 -0.00000000000E+00  0.00000000000E+00  0.77014350996E+01  0.77014350996E+01  0.00000000000E+00 0.  1.
          1   -1    0    0  501    0  0.00000000000E+00 -0.00000000000E+00 -0.30162126168E+03  0.30162126168E+03  0.00000000000E+00 0. -1.
         23    2    1    2    0    0  0.00000000000E+00  0.00000000000E+00 -0.29391982658E+03  0.30932269678E+03  0.96393289632E+02 0.  0.
          2    1    3    3  502    0 -0.39364098029E+01 -0.19818861098E+02 -0.28737309126E+03  0.28808258565E+03  0.00000000000E+00 0. -1.
         -2    1    3    3    0  502  0.39364098029E+01  0.19818861098E+02 -0.65467353256E+01  0.21240111130E+02  0.00000000000E+00 0.  1.
<mgrwt>
<rscale>  0 0.96393290E+02</rscale>
<asrwt>0</asrwt>
<pdfrwt beam="2">  1        1 0.46403262E-01 0.96393290E+02</pdfrwt>
<pdfrwt beam="1">  1       -1 0.11848364E-02 0.96393290E+02</pdfrwt>
<totfact> 0.11052844E+05</totfact>
</mgrwt>
</event>
<event>
 5    1  0.4006808E+001  0.9620761E+02  0.7546771E-02  0.1288479E+00
          1   -1    0    0  501    0  0.00000000000E+00  0.00000000000E+00  0.13653381919E+03  0.13653381919E+03  0.00000000000E+00 0. -1.
         -1   -1    0    0    0  501 -0.00000000000E+00 -0.00000000000E+00 -0.16948007195E+02  0.16948007195E+02  0.00000000000E+00 0.  1.
         23    2    1    2    0    0  0.00000000000E+00  0.00000000000E+00  0.11958581199E+03  0.15348182638E+03  0.96207611965E+02 0.  0.
          2    1    3    3  502    0 -0.43285822958E+02  0.12008533252E+02  0.87244855294E+02  0.98130179432E+02  0.00000000000E+00 0. -1.
         -2    1    3    3    0  502  0.43285822958E+02 -0.12008533252E+02  0.32340956698E+02  0.55351646951E+02  0.00000000000E+00 0.  1.
<mgrwt>
<rscale>  0 0.96207612E+02</rscale>
<asrwt>0</asrwt>
<pdfrwt beam="1">  1        1 0.21005202E-01 0.96207612E+02</pdfrwt>
<pdfrwt beam="2">  1       -1 0.26073858E-02 0.96207612E+02</pdfrwt>
<totfact> 0.95277172E+04</totfact>
</mgrwt>
</event>
<event>
 5    1  0.4006808E+001  0.9238231E+02  0.7546771E-02  0.1297183E+00
          1   -1    0    0  501    0  0.00000000000E+00  0.00000000000E+00  0.12175522760E+04  0.12175522760E+04  0.00000000000E+00 0. -1.
         -1   -1    0    0    0  501 -0.00000000000E+00 -0.00000000000E+00 -0.17523869937E+01  0.17523869937E+01  0.00000000000E+00 0.  1.
         23    2    1    2    0    0  0.00000000000E+00  0.00000000000E+00  0.12157998890E+04  0.12193046630E+04  0.92382309402E+02 0.  0.
          2    1    3    3  502    0  0.27900689042E+02 -0.35490929767E+02  0.73692682175E+03  0.73830833339E+03  0.00000000000E+00 0. -1.
         -2    1    3    3    0  502 -0.27900689042E+02  0.35490929767E+02  0.47887306727E+03  0.48099632962E+03  0.00000000000E+00 0.  1.
<mgrwt>
<rscale>  0 0.92382309E+02</rscale>
<asrwt>0</asrwt>
<pdfrwt beam="1">  1        1 0.18731506E+00 0.92382309E+02</pdfrwt>
<pdfrwt beam="2">  1       -1 0.26959897E-03 0.92382309E+02</pdfrwt>
<totfact> 0.12210048E+05</totfact>
</mgrwt>
</event>
<event>
 5    1  0.4006808E+001  0.9154112E+02  0.7546771E-02  0.1299162E+00
          2   -1    0    0  501    0  0.00000000000E+00  0.00000000000E+00  0.35473593868E+04  0.35473593868E+04  0.00000000000E+00 0. -1.
         -2   -1    0    0    0  501 -0.00000000000E+00 -0.00000000000E+00 -0.59056435091E+00  0.59056435091E+00  0.00000000000E+00 0.  1.
         23    2    1    2    0    0  0.00000000000E+00  0.00000000000E+00  0.35467688224E+04  0.35479499511E+04  0.91541116308E+02 0.  0.
          2    1    3    3  502    0  0.76000285768E+01 -0.40696495672E+02  0.10168796162E+04  0.10177220244E+04  0.00000000000E+00 0.  1.
         -2    1    3    3    0  502 -0.76000285768E+01  0.40696495672E+02  0.25298892063E+04  0.25302279267E+04  0.00000000000E+00 0. -1.
<mgrwt>
<rscale>  0 0.91541116E+02</rscale>
<asrwt>0</asrwt>
<pdfrwt beam="1">  1        2 0.54573054E+00 0.91541116E+02</pdfrwt>
<pdfrwt beam="2">  1       -2 0.90858894E-04 0.91541116E+02</pdfrwt>
<totfact> 0.59241337E+04</totfact>
</mgrwt>
</event>
<event>
 5    1  0.4006808E+001  0.9024458E+02  0.7546771E-02  0.1302260E+00
          1   -1    0    0  501    0  0.00000000000E+00  0.00000000000E+00  0.61526284733E+01  0.61526284733E+01  0.00000000000E+00 0. -1.
         -1   -1    0    0    0  501 -0.00000000000E+00 -0.00000000000E+00 -0.33091893788E+03  0.33091893788E+03  0.00000000000E+00 0.  1.
         23    2    1    2    0    0  0.00000000000E+00  0.00000000000E+00 -0.32476630941E+03  0.33707156636E+03  0.90244584981E+02 0.  0.
          2    1    3    3  502    0  0.13169085897E+02  0.19541467780E+02 -0.18656096274E+02  0.30055676910E+02  0.00000000000E+00 0. -1.
         -2    1    3    3    0  502 -0.13169085897E+02 -0.19541467780E+02 -0.30611021314E+03  0.30701588945E+03  0.00000000000E+00 0.  1.
<mgrwt>
<rscale>  0 0.90244585E+02</rscale>
<asrwt>0</asrwt>
<pdfrwt beam="1">  1        1 0.94655797E-03 0.90244585E+02</pdfrwt>
<pdfrwt beam="2">  1       -1 0.50910620E-01 0.90244585E+02</pdfrwt>
<totfact> 0.59782440E+04</totfact>
</mgrwt>
</event>
<event>
 5    1  0.4006808E+001  0.9105015E+02  0.7546771E-02  0.1300328E+00
         -2   -1    0    0    0  501 -0.00000000000E+00  0.00000000000E+00  0.84558527492E+01  0.84558527492E+01  0.00000000000E+00 0.  1.
          2   -1    0    0  501    0  0.00000000000E+00 -0.00000000000E+00 -0.24510032665E+03  0.24510032665E+03  0.00000000000E+00 0. -1.
         23    2    1    2    0    0  0.00000000000E+00  0.00000000000E+00 -0.23664447390E+03  0.25355617940E+03  0.91050145984E+02 0.  0.
          2    1    3    3  502    0 -0.17719954342E+02 -0.17063544479E+02 -0.22499744770E+03  0.22633827075E+03  0.00000000000E+00 0. -1.
         -2    1    3    3    0  502  0.17719954342E+02  0.17063544479E+02 -0.11647026196E+02  0.27217908650E+02  0.00000000000E+00 0.  1.
<mgrwt>
<rscale>  0 0.91050146E+02</rscale>
<asrwt>0</asrwt>
<pdfrwt beam="2">  1        2 0.37707745E-01 0.91050146E+02</pdfrwt>
<pdfrwt beam="1">  1       -2 0.13009003E-02 0.91050146E+02</pdfrwt>
<totfact> 0.16725846E+05</totfact>
</mgrwt>
</event>
<event>
 5    1  0.4006808E+001  0.9174642E+02  0.7546771E-02  0.1298677E+00
         -2   -1    0    0    0  501 -0.00000000000E+00  0.00000000000E+00  0.42343229625E+01  0.42343229625E+01  0.00000000000E+00 0.  1.
          2   -1    0    0  501    0  0.00000000000E+00 -0.00000000000E+00 -0.49697471298E+03  0.49697471298E+03  0.00000000000E+00 0. -1.
         23    2    1    2    0    0  0.00000000000E+00  0.00000000000E+00 -0.49274039002E+03  0.50120903594E+03  0.91746420942E+02 0.  0.
          2    1    3    3  502    0 -0.27972764425E+02 -0.36039809695E+02 -0.22016609451E+03  0.22484317336E+03  0.00000000000E+00 0. -1.
         -2    1    3    3    0  502  0.27972764425E+02  0.36039809695E+02 -0.27257429551E+03  0.27636586259E+03  0.00000000000E+00 0.  1.
<mgrwt>
<rscale>  0 0.91746421E+02</rscale>
<asrwt>0</asrwt>
<pdfrwt beam="2">  1        2 0.76457668E-01 0.91746421E+02</pdfrwt>
<pdfrwt beam="1">  1       -2 0.65143413E-03 0.91746421E+02</pdfrwt>
<totfact> 0.21155295E+05</totfact>
</mgrwt>
</event>
<event>
 5    1  0.4006808E+001  0.9423691E+02  0.7546771E-02  0.1292904E+00
          1   -1    0    0  501    0  0.00000000000E+00  0.00000000000E+00  0.82716391064E+03  0.82716391064E+03  0.00000000000E+00 0. -1.
         -1   -1    0    0    0  501 -0.00000000000E+00 -0.00000000000E+00 -0.26840491811E+01  0.26840491811E+01  0.00000000000E+00 0.  1.
         23    2    1    2    0    0  0.00000000000E+00  0.00000000000E+00  0.82447986145E+03  0.82984795982E+03  0.94236906082E+02 0.  0.
          2    1    3    3  502    0 -0.45751222734E+02  0.76071916996E+01  0.48544342933E+03  0.48765394167E+03  0.00000000000E+00 0. -1.
         -2    1    3    3    0  502  0.45751222734E+02 -0.76071916996E+01  0.33903643213E+03  0.34219401815E+03  0.00000000000E+00 0.  1.
<mgrwt>
<rscale>  0 0.94236906E+02</rscale>
<asrwt>0</asrwt>
<pdfrwt beam="1">  1        1 0.12725578E+00 0.94236906E+02</pdfrwt>
<pdfrwt beam="2">  1       -1 0.41293130E-03 0.94236906E+02</pdfrwt>
<totfact> 0.12904733E+05</totfact>
</mgrwt>
</event>
<event>
 5    1  0.4006808E+001  0.9278825E+02  0.7546771E-02  0.1296237E+00
         -4   -1    0    0    0  501 -0.00000000000E+00  0.00000000000E+00  0.37514254653E+03  0.37514254653E+03  0.00000000000E+00 0.  1.
          4   -1    0    0  501    0  0.00000000000E+00 -0.00000000000E+00 -0.57375923268E+01  0.57375923268E+01  0.00000000000E+00 0. -1.
         23    2    1    2    0    0  0.00000000000E+00  0.00000000000E+00  0.36940495421E+03  0.38088013886E+03  0.92788253490E+02 0.  0.
          2    1    3    3  502    0  0.23717186139E+02 -0.16107790342E+02  0.34977426091E+02  0.45225945695E+02  0.00000000000E+00 0. -1.
         -2    1    3    3    0  502 -0.23717186139E+02  0.16107790342E+02  0.33442752812E+03  0.33565419317E+03  0.00000000000E+00 0.  1.
<mgrwt>
<rscale>  0 0.92788253E+02</rscale>
<asrwt>0</asrwt>
<pdfrwt beam="2">  1        4 0.88270680E-03 0.92788253E+02</pdfrwt>
<pdfrwt beam="1">  1       -4 0.57714219E-01 0.92788253E+02</pdfrwt>
<totfact> 0.14898646E+04</totfact>
</mgrwt>
</event>
<event>
 5    1  0.4006808E+001  0.9044467E+02  0.7546771E-02  0.1301778E+00
          2   -1    0    0  501    0  0.00000000000E+00  0.00000000000E+00  0.36207528923E+03  0.36207528923E+03  0.00000000000E+00 0. -1.
         -2   -1    0    0    0  501 -0.00000000000E+00 -0.00000000000E+00 -0.56481616588E+01  0.56481616588E+01  0.00000000000E+00 0.  1.
         23    2    1    2    0    0  0.00000000000E+00  0.00000000000E+00  0.35642712757E+03  0.36772345089E+03  0.90444674055E+02 0.  0.
          2    1    3    3  502    0  0.23834921499E+02 -0.26887508841E+02  0.28985598063E+03  0.29207453008E+03  0.00000000000E+00 0. -1.
         -2    1    3    3    0  502 -0.23834921499E+02  0.26887508841E+02  0.66571146947E+02  0.75648920815E+02  0.00000000000E+00 0.  1.
<mgrwt>
<rscale>  0 0.90444674E+02</rscale>
<asrwt>0</asrwt>
<pdfrwt beam="1">  1        2 0.55703872E-01 0.90444674E+02</pdfrwt>
<pdfrwt beam="2">  1       -2 0.86894823E-03 0.90444674E+02</pdfrwt>
<totfact> 0.19673518E+05</totfact>
</mgrwt>
</event>
<event>
 5    1  0.4006808E+001  0.9335020E+02  0.7546771E-02  0.1294936E+00
          1   -1    0    0  501    0  0.00000000000E+00  0.00000000000E+00  0.11353113832E+04  0.11353113832E+04  0.00000000000E+00 0. -1.
         -1   -1    0    0    0  501 -0.00000000000E+00 -0.00000000000E+00 -0.19189139578E+01  0.19189139578E+01  0.00000000000E+00 0.  1.
         23    2    1    2    0    0  0.00000000000E+00  0.00000000000E+00  0.11333924693E+04  0.11372302972E+04  0.93350197851E+02 0.  0.
          2    1    3    3  502    0  0.30823531323E+02  0.13035065343E+02  0.17033488620E+03  0.17359140666E+03  0.00000000000E+00 0.  1.
         -2    1    3    3    0  502 -0.30823531323E+02 -0.13035065343E+02  0.96305758308E+03  0.96363889053E+03  0.00000000000E+00 0. -1.
<mgrwt>
<rscale>  0 0.93350198E+02</rscale>
<asrwt>0</asrwt>
<pdfrwt beam="1">  1        1 0.17466275E+00 0.93350198E+02</pdfrwt>
<pdfrwt beam="2">  1       -1 0.29521844E-03 0.93350198E+02</pdfrwt>
<totfact> 0.12252956E+05</totfact>
</mgrwt>
</event>
<event>
 5    1  0.4006808E+001  0.9320100E+02  0.7546771E-02  0.1295280E+00
          2   -1    0    0  501    0  0.00000000000E+00  0.00000000000E+00  0.12788628230E+02  0.12788628230E+02  0.00000000000E+00 0. -1.
         -2   -1    0    0    0  501 -0.00000000000E+00 -0.00000000000E+00 -0.16980761235E+03  0.16980761235E+03  0.00000000000E+00 0.  1.
         23    2    1    2    0    0  0.00000000000E+00  0.00000000000E+00 -0.15701898412E+03  0.18259624058E+03  0.93200996236E+02 0.  0.
          2    1    3    3  502    0  0.22640739269E+02  0.24141035730E+02 -0.14278130407E+03  0.14656702724E+03  0.00000000000E+00 0. -1.
         -2    1    3    3    0  502 -0.22640739269E+02 -0.24141035730E+02 -0.14237680045E+02  0.36029213339E+02  0.00000000000E+00 0.  1.
<mgrwt>
<rscale>  0 0.93200996E+02</rscale>
<asrwt>0</asrwt>
<pdfrwt beam="1">  1        2 0.19674813E-02 0.93200996E+02</pdfrwt>
<pdfrwt beam="2">  1       -2 0.26124248E-01 0.93200996E+02</pdfrwt>
<totfact> 0.63040885E+04</totfact>
</mgrwt>
</event>
<event>
 5    1  0.4006808E+001  0.9095827E+02  0.7546771E-02  0.1300548E+00
         -2   -1    0    0    0  501 -0.00000000000E+00  0.00000000000E+00  0.48962008368E+02  0.48962008368E+02  0.00000000000E+00 0.  1.
          2   -1    0    0  501    0  0.00000000000E+00 -0.00000000000E+00 -0.42244014821E+02  0.42244014821E+02  0.00000000000E+00 0. -1.
         23    2    1    2    0    0  0.00000000000E+00  0.00000000000E+00  0.67179935475E+01  0.91206023189E+02  0.90958271908E+02 0.  0.
          2    1    3    3  502    0 -0.33209191689E+02  0.44243312127E+01 -0.27480697097E+02  0.43331441613E+02  0.00000000000E+00 0. -1.
         -2    1    3    3    0  502  0.33209191689E+02 -0.44243312127E+01  0.34198690644E+02  0.47874581576E+02  0.00000000000E+00 0.  1.
<mgrwt>
<rscale>  0 0.90958272E+02</rscale>
<asrwt>0</asrwt>
<pdfrwt beam="2">  1        2 0.64990792E-02 0.90958272E+02</pdfrwt>
<pdfrwt beam="1">  1       -2 0.75326167E-02 0.90958272E+02</pdfrwt>
<totfact> 0.97417770E+04</totfact>
</mgrwt>
</event>
<event>
 5    1  0.4006808E+001  0.1005269E+03  0.7546771E-02  0.1279192E+00
          1   -1    0    0  501    0  0.00000000000E+00  0.00000000000E+00  0.93307474127E+02  0.93307474127E+02  0.00000000000E+00 0. -1.
         -1   -1    0    0    0  501 -0.00000000000E+00 -0.00000000000E+00 -0.27076244668E+02  0.27076244668E+02  0.00000000000E+00 0.  1.
         23    2    1    2    0    0  0.00000000000E+00  0.00000000000E+00  0.66231229459E+02  0.12038371879E+03  0.10052693169E+03 0.  0.
          2    1    3    3  502    0 -0.22609782993E+02  0.44434349750E+02  0.40765017212E+02  0.64400313299E+02  0.00000000000E+00 0.  1.
         -2    1    3    3    0  502  0.22609782993E+02 -0.44434349750E+02  0.25466212247E+02  0.55983405495E+02  0.00000000000E+00 0. -1.
<mgrwt>
<rscale>  0 0.10052693E+03</rscale>
<asrwt>0</asrwt>
<pdfrwt beam="1">  1        1 0.14354996E-01 0.10052693E+03</pdfrwt>
<pdfrwt beam="2">  1       -1 0.41655761E-02 0.10052693E+03</pdfrwt>
<totfact> 0.78942267E+04</totfact>
</mgrwt>
</event>
<event>
 5    1  0.4006808E+001  0.9050015E+02  0.7546771E-02  0.1301645E+00
          4   -1    0    0  501    0  0.00000000000E+00  0.00000000000E+00  0.73881497756E+01  0.73881497756E+01  0.00000000000E+00 0.  1.
         -4   -1    0    0    0  501 -0.00000000000E+00 -0.00000000000E+00 -0.27714234649E+03  0.27714234649E+03  0.00000000000E+00 0. -1.
         23    2    1    2    0    0  0.00000000000E+00  0.00000000000E+00 -0.26975419671E+03  0.28453049626E+03  0.90500147292E+02 0.  0.
          2    1    3    3  502    0  0.20338958773E+02  0.11077494584E+02 -0.25709599462E+03  0.25813704612E+03  0.00000000000E+00 0. -1.
         -2    1    3    3    0  502 -0.20338958773E+02 -0.11077494584E+02 -0.12658202091E+02  0.26393450142E+02  0.00000000000E+00 0.  1.
<mgrwt>
<rscale>  0 0.90500147E+02</rscale>
<asrwt>0</asrwt>
<pdfrwt beam="1">  1        4 0.11366384E-02 0.90500147E+02</pdfrwt>
<pdfrwt beam="2">  1       -4 0.42637286E-01 0.90500147E+02</pdfrwt>
<totfact> 0.18668545E+04</totfact>
</mgrwt>
</event>
<event>
 5    1  0.4006808E+001  0.1117866E+03  0.7546771E-02  0.1257297E+00
         -2   -1    0    0    0  501 -0.00000000000E+00  0.00000000000E+00  0.15441815750E+01  0.15441815750E+01  0.00000000000E+00 0.  1.
          2   -1    0    0  501    0  0.00000000000E+00 -0.00000000000E+00 -0.20231169862E+04  0.20231169862E+04  0.00000000000E+00 0. -1.
         23    2    1    2    0    0  0.00000000000E+00  0.00000000000E+00 -0.20215728046E+04  0.20246611677E+04  0.11178658192E+03 0.  0.
          2    1    3    3  502    0 -0.62874242196E+01  0.49970662258E+02 -0.57179879059E+03  0.57401259195E+03  0.00000000000E+00 0. -1.
         -2    1    3    3    0  502  0.62874242196E+01 -0.49970662258E+02 -0.14497740140E+04  0.14506485758E+04  0.00000000000E+00 0.  1.
<mgrwt>
<rscale>  0 0.11178658E+03</rscale>
<asrwt>0</asrwt>
<pdfrwt beam="2">  1        2 0.31124877E+00 0.11178658E+03</pdfrwt>
<pdfrwt beam="1">  1       -2 0.23756640E-03 0.11178658E+03</pdfrwt>
<totfact> 0.11300438E+05</totfact>
</mgrwt>
</event>
<event>
 5    1  0.4006808E+001  0.9075205E+02  0.7546771E-02  0.1301041E+00
         -2   -1    0    0    0  501 -0.00000000000E+00  0.00000000000E+00  0.56469751332E+02  0.56469751332E+02  0.00000000000E+00 0.  1.
          2   -1    0    0  501    0  0.00000000000E+00 -0.00000000000E+00 -0.36461713041E+02  0.36461713041E+02  0.00000000000E+00 0. -1.
         23    2    1    2    0    0  0.00000000000E+00  0.00000000000E+00  0.20008038291E+02  0.92931464374E+02  0.90752054932E+02 0.  0.
          2    1    3    3  502    0 -0.40521959810E+02 -0.24851675686E+01 -0.10750382145E+02  0.41997333260E+02  0.00000000000E+00 0. -1.
         -2    1    3    3    0  502  0.40521959810E+02  0.24851675686E+01  0.30758420436E+02  0.50934131114E+02  0.00000000000E+00 0.  1.
<mgrwt>
<rscale>  0 0.90752055E+02</rscale>
<asrwt>0</asrwt>
<pdfrwt beam="2">  1        2 0.56094943E-02 0.90752055E+02</pdfrwt>
<pdfrwt beam="1">  1       -2 0.86876541E-02 0.90752055E+02</pdfrwt>
<totfact> 0.94401672E+04</totfact>
</mgrwt>
</event>
<event>
 5    1  0.4006808E+001  0.9035953E+02  0.7546771E-02  0.1301983E+00
          2   -1    0    0  501    0  0.00000000000E+00  0.00000000000E+00  0.35366527399E+03  0.35366527399E+03  0.00000000000E+00 0. -1.
         -2   -1    0    0    0  501 -0.00000000000E+00 -0.00000000000E+00 -0.57715908250E+01  0.57715908250E+01  0.00000000000E+00 0.  1.
         23    2    1    2    0    0  0.00000000000E+00  0.00000000000E+00  0.34789368317E+03  0.35943686482E+03  0.90359531882E+02 0.  0.
          2    1    3    3  502    0 -0.21604797307E+02  0.26676532073E+02  0.29079056271E+03  0.29280976076E+03  0.00000000000E+00 0. -1.
         -2    1    3    3    0  502  0.21604797307E+02 -0.26676532073E+02  0.57103120452E+02  0.66627104061E+02  0.00000000000E+00 0.  1.
<mgrwt>
<rscale>  0 0.90359532E+02</rscale>
<asrwt>0</asrwt>
<pdfrwt beam="1">  1        2 0.54410025E-01 0.90359532E+02</pdfrwt>
<pdfrwt beam="2">  1       -2 0.88793733E-03 0.90359532E+02</pdfrwt>
<totfact> 0.19554690E+05</totfact>
</mgrwt>
</event>
<event>
 5    1  0.4006808E+001  0.6947234E+02  0.7546771E-02  0.1361897E+00
         -2   -1    0    0    0  501 -0.00000000000E+00  0.00000000000E+00  0.12115364939E+02  0.12115364939E+02  0.00000000000E+00 0.  1.
          2   -1    0    0  501    0  0.00000000000E+00 -0.00000000000E+00 -0.99592653031E+02  0.99592653031E+02  0.00000000000E+00 0. -1.
         23    2    1    2    0    0  0.00000000000E+00  0.00000000000E+00 -0.87477288092E+02  0.11170801797E+03  0.69472335120E+02 0.  0.
          2    1    3    3  502    0 -0.21168716634E+02 -0.21089695265E+01 -0.87892573533E+02  0.90430452828E+02  0.00000000000E+00 0. -1.
         -2    1    3    3    0  502  0.21168716634E+02  0.21089695265E+01  0.41528544129E+00  0.21277565143E+02  0.00000000000E+00 0.  1.
<mgrwt>
<rscale>  0 0.69472335E+02</rscale>
<asrwt>0</asrwt>
<pdfrwt beam="2">  1        2 0.15321946E-01 0.69472335E+02</pdfrwt>
<pdfrwt beam="1">  1       -2 0.18639023E-02 0.69472335E+02</pdfrwt>
<totfact> 0.25519413E+05</totfact>
</mgrwt>
</event>
<event>
 5    1  0.4006808E+001  0.9067233E+02  0.7546771E-02  0.1301232E+00
          2   -1    0    0  501    0  0.00000000000E+00  0.00000000000E+00  0.11120097566E+03  0.11120097566E+03  0.00000000000E+00 0. -1.
         -2   -1    0    0    0  501 -0.00000000000E+00 -0.00000000000E+00 -0.18483359724E+02  0.18483359724E+02  0.00000000000E+00 0.  1.
         23    2    1    2    0    0  0.00000000000E+00  0.00000000000E+00  0.92717615941E+02  0.12968433539E+03  0.90672325102E+02 0.  0.
          2    1    3    3  502    0 -0.15481663626E+02  0.16141820537E+02  0.10276096960E+03  0.10516680632E+03  0.00000000000E+00 0. -1.
         -2    1    3    3    0  502  0.15481663626E+02 -0.16141820537E+02 -0.10043353658E+02  0.24517529067E+02  0.00000000000E+00 0.  1.
<mgrwt>
<rscale>  0 0.90672325E+02</rscale>
<asrwt>0</asrwt>
<pdfrwt beam="1">  1        2 0.17107842E-01 0.90672325E+02</pdfrwt>
<pdfrwt beam="2">  1       -2 0.28435939E-02 0.90672325E+02</pdfrwt>
<totfact> 0.12870968E+05</totfact>
</mgrwt>
</event>
<event>
 5    1  0.4006808E+001  0.9309205E+02  0.7546771E-02  0.1295532E+00
          3   -1    0    0  501    0  0.00000000000E+00  0.00000000000E+00  0.81371247921E+01  0.81371247921E+01  0.00000000000E+00 0. -1.
         -3   -1    0    0    0  501 -0.00000000000E+00 -0.00000000000E+00 -0.26625280876E+03  0.26625280876E+03  0.00000000000E+00 0.  1.
         23    2    1    2    0    0  0.00000000000E+00  0.00000000000E+00 -0.25811568397E+03  0.27438993355E+03  0.93092047590E+02 0.  0.
          2    1    3    3  502    0 -0.12076885733E+02 -0.43433429877E+02 -0.94910137918E+02  0.10507258577E+03  0.00000000000E+00 0. -1.
         -2    1    3    3    0  502  0.12076885733E+02  0.43433429877E+02 -0.16320554605E+03  0.16931734779E+03  0.00000000000E+00 0.  1.
<mgrwt>
<rscale>  0 0.93092048E+02</rscale>
<asrwt>0</asrwt>
<pdfrwt beam="1">  1        3 0.12518651E-02 0.93092048E+02</pdfrwt>
<pdfrwt beam="2">  1       -3 0.40961978E-01 0.93092048E+02</pdfrwt>
<totfact> 0.23686916E+04</totfact>
</mgrwt>
</event>
<event>
 5    1  0.4006808E+001  0.8759604E+02  0.7546771E-02  0.1308780E+00
         -1   -1    0    0    0  501 -0.00000000000E+00  0.00000000000E+00  0.18851657024E+01  0.18851657024E+01  0.00000000000E+00 0.  1.
          1   -1    0    0  501    0  0.00000000000E+00 -0.00000000000E+00 -0.10175586661E+04  0.10175586661E+04  0.00000000000E+00 0. -1.
         23    2    1    2    0    0  0.00000000000E+00  0.00000000000E+00 -0.10156735004E+04  0.10194438318E+04  0.87596043234E+02 0.  0.
          2    1    3    3  502    0  0.43312053097E+02 -0.64981485979E+01 -0.50403307993E+03  0.50593231320E+03  0.00000000000E+00 0.  1.
         -2    1    3    3    0  502 -0.43312053097E+02  0.64981485979E+01 -0.51164042051E+03  0.51351151865E+03  0.00000000000E+00 0. -1.
<mgrwt>
<rscale>  0 0.87596043E+02</rscale>
<asrwt>0</asrwt>
<pdfrwt beam="2">  1        1 0.15654771E+00 0.87596043E+02</pdfrwt>
<pdfrwt beam="1">  1       -1 0.29002508E-03 0.87596043E+02</pdfrwt>
<totfact> 0.15046213E+05</totfact>
</mgrwt>
</event>
<event>
 5    1  0.4006808E+001  0.9329521E+02  0.7546771E-02  0.1295063E+00
          1   -1    0    0  501    0  0.00000000000E+00  0.00000000000E+00  0.34031973179E+03  0.34031973179E+03  0.00000000000E+00 0.  1.
         -1   -1    0    0    0  501 -0.00000000000E+00 -0.00000000000E+00 -0.63939846154E+01  0.63939846154E+01  0.00000000000E+00 0. -1.
         23    2    1    2    0    0  0.00000000000E+00  0.00000000000E+00  0.33392574717E+03  0.34671371640E+03  0.93295211653E+02 0.  0.
          2    1    3    3  502    0  0.65774238548E+01  0.42219361680E+02  0.23651465492E+03  0.24034333566E+03  0.00000000000E+00 0. -1.
         -2    1    3    3    0  502 -0.65774238548E+01 -0.42219361680E+02  0.97411092255E+02  0.10637038074E+03  0.00000000000E+00 0.  1.
<mgrwt>
<rscale>  0 0.93295212E+02</rscale>
<asrwt>0</asrwt>
<pdfrwt beam="1">  1        1 0.52356868E-01 0.93295212E+02</pdfrwt>
<pdfrwt beam="2">  1       -1 0.98369021E-03 0.93295212E+02</pdfrwt>
<totfact> 0.12338153E+05</totfact>
</mgrwt>
</event>
<event>
 5    1  0.4006808E+001  0.9394485E+02  0.7546771E-02  0.1293570E+00
          1   -1    0    0  501    0  0.00000000000E+00  0.00000000000E+00  0.10514617590E+02  0.10514617590E+02  0.00000000000E+00 0. -1.
         -1   -1    0    0    0  501 -0.00000000000E+00 -0.00000000000E+00 -0.20984204273E+03  0.20984204273E+03  0.00000000000E+00 0.  1.
         23    2    1    2    0    0  0.00000000000E+00  0.00000000000E+00 -0.19932742514E+03  0.22035666032E+03  0.93944852626E+02 0.  0.
          2    1    3    3  502    0  0.37334423645E+02 -0.22378140570E+02 -0.58247604269E+02  0.72714673673E+02  0.00000000000E+00 0. -1.
         -2    1    3    3    0  502 -0.37334423645E+02  0.22378140570E+02 -0.14107982087E+03  0.14764198665E+03  0.00000000000E+00 0.  1.
<mgrwt>
<rscale>  0 0.93944853E+02</rscale>
<asrwt>0</asrwt>
<pdfrwt beam="1">  1        1 0.16176335E-02 0.93944853E+02</pdfrwt>
<pdfrwt beam="2">  1       -1 0.32283390E-01 0.93944853E+02</pdfrwt>
<totfact> 0.63317590E+04</totfact>
</mgrwt>
</event>
<event>
 5    1  0.4006808E+001  0.9142684E+02  0.7546771E-02  0.1299433E+00
         -1   -1    0    0    0  501 -0.00000000000E+00  0.00000000000E+00  0.12820637137E+03  0.12820637137E+03  0.00000000000E+00 0.  1.
          1   -1    0    0  501    0  0.00000000000E+00 -0.00000000000E+00 -0.16299633857E+02  0.16299633857E+02  0.00000000000E+00 0. -1.
         23    2    1    2    0    0  0.00000000000E+00  0.00000000000E+00  0.11190673751E+03  0.14450600523E+03  0.91426843137E+02 0.  0.
          2    1    3    3  502    0  0.21459575109E+02 -0.16676826262E+02 -0.21436478184E+01  0.27262155528E+02  0.00000000000E+00 0. -1.
         -2    1    3    3    0  502 -0.21459575109E+02  0.16676826262E+02  0.11405038533E+03  0.11724384970E+03  0.00000000000E+00 0.  1.
<mgrwt>
<rscale>  0 0.91426843E+02</rscale>
<asrwt>0</asrwt>
<pdfrwt beam="2">  1        1 0.25076361E-02 0.91426843E+02</pdfrwt>
<pdfrwt beam="1">  1       -1 0.19724057E-01 0.91426843E+02</pdfrwt>
<totfact> 0.76906676E+04</totfact>
</mgrwt>
</event>
<event>
 5    1  0.4006808E+001  0.9198067E+02  0.7546771E-02  0.1298125E+00
          1   -1    0    0  501    0  0.00000000000E+00  0.00000000000E+00  0.10653465244E+02  0.10653465244E+02  0.00000000000E+00 0. -1.
         -1   -1    0    0    0  501 -0.00000000000E+00 -0.00000000000E+00 -0.19853736639E+03  0.19853736639E+03  0.00000000000E+00 0.  1.
         23    2    1    2    0    0  0.00000000000E+00  0.00000000000E+00 -0.18788390114E+03  0.20919083163E+03  0.91980670415E+02 0.  0.
          2    1    3    3  502    0  0.41657426802E+02  0.13186656243E+02 -0.61309095129E+02  0.75286348405E+02  0.00000000000E+00 0. -1.
         -2    1    3    3    0  502 -0.41657426802E+02 -0.13186656243E+02 -0.12657480601E+03  0.13390448323E+03  0.00000000000E+00 0.  1.
<mgrwt>
<rscale>  0 0.91980670E+02</rscale>
<asrwt>0</asrwt>
<pdfrwt beam="1">  1        1 0.16389946E-02 0.91980670E+02</pdfrwt>
<pdfrwt beam="2">  1       -1 0.30544211E-01 0.91980670E+02</pdfrwt>
<totfact> 0.67995575E+04</totfact>
</mgrwt>
</event>
<event>
 5    1  0.4006808E+001  0.8988726E+02  0.7546771E-02  0.1303125E+00
         -2   -1    0    0    0  501 -0.00000000000E+00  0.00000000000E+00  0.30519245828E+01  0.30519245828E+01  0.00000000000E+00 0.  1.
          2   -1    0    0  501    0  0.00000000000E+00 -0.00000000000E+00 -0.66185440990E+03  0.66185440990E+03  0.00000000000E+00 0. -1.
         23    2    1    2    0    0  0.00000000000E+00  0.00000000000E+00 -0.65880248532E+03  0.66490633448E+03  0.89887257023E+02 0.  0.
          2    1    3    3  502    0  0.19842043260E+02  0.31605257542E+02 -0.51467360268E+03  0.51602472449E+03  0.00000000000E+00 0. -1.
         -2    1    3    3    0  502 -0.19842043260E+02 -0.31605257542E+02 -0.14412888264E+03  0.14888161000E+03  0.00000000000E+00 0.  1.
<mgrwt>
<rscale>  0 0.89887257E+02</rscale>
<asrwt>0</asrwt>
<pdfrwt beam="2">  1        2 0.10182382E+00 0.89887257E+02</pdfrwt>
<pdfrwt beam="1">  1       -2 0.46952655E-03 0.89887257E+02</pdfrwt>
<totfact> 0.24288728E+05</totfact>
</mgrwt>
</event>
<event>
 5    1  0.4006808E+001  0.9196477E+02  0.7546771E-02  0.1298162E+00
          1   -1    0    0  501    0  0.00000000000E+00  0.00000000000E+00  0.30483258337E+03  0.30483258337E+03  0.00000000000E+00 0. -1.
         -1   -1    0    0    0  501 -0.00000000000E+00 -0.00000000000E+00 -0.69361997461E+01  0.69361997461E+01  0.00000000000E+00 0.  1.
         23    2    1    2    0    0  0.00000000000E+00  0.00000000000E+00  0.29789638362E+03  0.31176878311E+03  0.91964769066E+02 0.  0.
          2    1    3    3  502    0  0.28186500672E+02  0.11646104057E+02  0.26561205330E+03  0.26735720192E+03  0.00000000000E+00 0. -1.
         -2    1    3    3    0  502 -0.28186500672E+02 -0.11646104057E+02  0.32284330318E+02  0.44411581191E+02  0.00000000000E+00 0.  1.
<mgrwt>
<rscale>  0 0.91964769E+02</rscale>
<asrwt>0</asrwt>
<pdfrwt beam="1">  1        1 0.46897310E-01 0.91964769E+02</pdfrwt>
<pdfrwt beam="2">  1       -1 0.10671079E-02 0.91964769E+02</pdfrwt>
<totfact> 0.12559647E+05</totfact>
</mgrwt>
</event>
<event>
 5    1  0.4006808E+001  0.9141670E+02  0.7546771E-02  0.1299457E+00
          2   -1    0    0  501    0  0.00000000000E+00  0.00000000000E+00  0.14176942696E+04  0.14176942696E+04  0.00000000000E+00 0. -1.
         -2   -1    0    0    0  501 -0.00000000000E+00 -0.00000000000E+00 -0.14736979263E+01  0.14736979263E+01  0.00000000000E+00 0.  1.
         23    2    1    2    0    0  0.00000000000E+00  0.00000000000E+00  0.14162205717E+04  0.14191679675E+04  0.91416696620E+02 0.  0.
          2    1    3    3  502    0  0.37583974650E+02  0.83639268244E+00  0.11117381231E+04  0.11123735474E+04  0.00000000000E+00 0. -1.
         -2    1    3    3    0  502 -0.37583974650E+02 -0.83639268244E+00  0.30448244861E+03  0.30679442011E+03  0.00000000000E+00 0.  1.
<mgrwt>
<rscale>  0 0.91416697E+02</rscale>
<asrwt>0</asrwt>
<pdfrwt beam="1">  1        2 0.21810572E+00 0.91416697E+02</pdfrwt>
<pdfrwt beam="2">  1       -2 0.22672389E-03 0.91416697E+02</pdfrwt>
<totfact> 0.23885775E+05</totfact>
</mgrwt>
</event>
<event>
 5    1  0.4006808E+001  0.9085824E+02  0.7546771E-02  0.1300787E+00
          1   -1    0    0  501    0  0.00000000000E+00  0.00000000000E+00  0.60193367821E+02  0.60193367821E+02  0.00000000000E+00 0. -1.
         -1   -1    0    0    0  501 -0.00000000000E+00 -0.00000000000E+00 -0.34286254799E+02  0.34286254799E+02  0.00000000000E+00 0.  1.
         23    2    1    2    0    0  0.00000000000E+00  0.00000000000E+00  0.25907113021E+02  0.94479622620E+02  0.90858244454E+02 0.  0.
          2    1    3    3  502    0 -0.93581564539E+01  0.22883436495E+02  0.52585338285E+02  0.58107181661E+02  0.00000000000E+00 0. -1.
         -2    1    3    3    0  502  0.93581564539E+01 -0.22883436495E+02 -0.26678225264E+02  0.36372440959E+02  0.00000000000E+00 0.  1.
<mgrwt>
<rscale>  0 0.90858244E+02</rscale>
<asrwt>0</asrwt>
<pdfrwt beam="1">  1        1 0.92605181E-02 0.90858244E+02</pdfrwt>
<pdfrwt beam="2">  1       -1 0.52748084E-02 0.90858244E+02</pdfrwt>
<totfact> 0.97358473E+04</totfact>
</mgrwt>
</event>
<event>
 5    1  0.4006808E+001  0.7641256E+02  0.7546771E-02  0.1339552E+00
          2   -1    0    0  501    0  0.00000000000E+00  0.00000000000E+00  0.33814962436E+02  0.33814962436E+02  0.00000000000E+00 0. -1.
         -2   -1    0    0    0  501 -0.00000000000E+00 -0.00000000000E+00 -0.43167863691E+02  0.43167863691E+02  0.00000000000E+00 0.  1.
         23    2    1    2    0    0  0.00000000000E+00  0.00000000000E+00 -0.93529012543E+01  0.76982826127E+02  0.76412556276E+02 0.  0.
          2    1    3    3  502    0 -0.61618924057E+01 -0.37548600520E+02 -0.12078839724E+01  0.38070005289E+02  0.00000000000E+00 0.  1.
         -2    1    3    3    0  502  0.61618924057E+01  0.37548600520E+02 -0.81450172819E+01  0.38912820838E+02  0.00000000000E+00 0. -1.
<mgrwt>
<rscale>  0 0.76412556E+02</rscale>
<asrwt>0</asrwt>
<pdfrwt beam="1">  1        2 0.52023019E-02 0.76412556E+02</pdfrwt>
<pdfrwt beam="2">  1       -2 0.66412098E-02 0.76412556E+02</pdfrwt>
<totfact> 0.15179072E+05</totfact>
</mgrwt>
</event>
<event>
 5    1  0.4006808E+001  0.9073370E+02  0.7546771E-02  0.1301085E+00
          2   -1    0    0  501    0  0.00000000000E+00  0.00000000000E+00  0.97048841927E+02  0.97048841927E+02  0.00000000000E+00 0. -1.
         -2   -1    0    0    0  501 -0.00000000000E+00 -0.00000000000E+00 -0.21207371987E+02  0.21207371987E+02  0.00000000000E+00 0.  1.
         23    2    1    2    0    0  0.00000000000E+00  0.00000000000E+00  0.75841469940E+02  0.11825621391E+03  0.90733695872E+02 0.  0.
          2    1    3    3  502    0 -0.16430145764E+02 -0.37863671000E+02  0.13379850746E+02  0.43389257627E+02  0.00000000000E+00 0.  1.
         -2    1    3    3    0  502  0.16430145764E+02  0.37863671000E+02  0.62461619194E+02  0.74866956287E+02  0.00000000000E+00 0. -1.
<mgrwt>
<rscale>  0 0.90733696E+02</rscale>
<asrwt>0</asrwt>
<pdfrwt beam="1">  1        2 0.14930591E-01 0.90733696E+02</pdfrwt>
<pdfrwt beam="2">  1       -2 0.32626727E-02 0.90733696E+02</pdfrwt>
<totfact> 0.12320926E+05</totfact>
</mgrwt>
</event>
<event>
 5    1  0.4006808E+001  0.9783468E+02  0.7546771E-02  0.1284916E+00
         -1   -1    0    0    0  501 -0.00000000000E+00  0.00000000000E+00  0.11865214957E+01  0.11865214957E+01  0.00000000000E+00 0.  1.
          1   -1    0    0  501    0  0.00000000000E+00 -0.00000000000E+00 -0.20167408236E+04  0.20167408236E+04  0.00000000000E+00 0. -1.
         23    2    1    2    0    0  0.00000000000E+00  0.00000000000E+00 -0.20155543021E+04  0.20179273451E+04  0.97834683799E+02 0.  0.
          2    1    3    3  502    0 -0.46897282872E+01  0.43896757448E+02 -0.14423854730E+04  0.14430609036E+04  0.00000000000E+00 0. -1.
         -2    1    3    3    0  502  0.46897282872E+01 -0.43896757448E+02 -0.57316882908E+03  0.57486644144E+03  0.00000000000E+00 0.  1.
<mgrwt>
<rscale>  0 0.97834684E+02</rscale>
<asrwt>0</asrwt>
<pdfrwt beam="2">  1        1 0.31026644E+00 0.97834684E+02</pdfrwt>
<pdfrwt beam="1">  1       -1 0.18254258E-03 0.97834684E+02</pdfrwt>
<totfact> 0.65256708E+04</totfact>
</mgrwt>
</event>
<event>
 5    1  0.4006808E+001  0.9276475E+02  0.7546771E-02  0.1296291E+00
          1   -1    0    0  501    0  0.00000000000E+00  0.00000000000E+00  0.52993208988E+03  0.52993208988E+03  0.00000000000E+00 0. -1.
         -1   -1    0    0    0  501 -0.00000000000E+00 -0.00000000000E+00 -0.40596232816E+01  0.40596232816E+01  0.00000000000E+00 0.  1.
         23    2    1    2    0    0  0.00000000000E+00  0.00000000000E+00  0.52587246660E+03  0.53399171316E+03  0.92764748687E+02 0.  0.
          2    1    3    3  502    0  0.37564120987E+02  0.17669840381E+02  0.14384142979E+03  0.14971186783E+03  0.00000000000E+00 0. -1.
         -2    1    3    3    0  502 -0.37564120987E+02 -0.17669840381E+02  0.38203103681E+03  0.38427984533E+03  0.00000000000E+00 0.  1.
<mgrwt>
<rscale>  0 0.92764749E+02</rscale>
<asrwt>0</asrwt>
<pdfrwt beam="1">  1        1 0.81527959E-01 0.92764749E+02</pdfrwt>
<pdfrwt beam="2">  1       -1 0.62455785E-03 0.92764749E+02</pdfrwt>
<totfact> 0.13388624E+05</totfact>
</mgrwt>
</event>
<event>
 5    1  0.4006808E+001  0.9227117E+02  0.7546771E-02  0.1297443E+00
         -1   -1    0    0    0  501 -0.00000000000E+00  0.00000000000E+00  0.19896715075E+01  0.19896715075E+01  0.00000000000E+00 0.  1.
          1   -1    0    0  501    0  0.00000000000E+00 -0.00000000000E+00 -0.10697706417E+04  0.10697706417E+04  0.00000000000E+00 0. -1.
         23    2    1    2    0    0  0.00000000000E+00  0.00000000000E+00 -0.10677809702E+04  0.10717603133E+04  0.92271169179E+02 0.  0.
          2    1    3    3  502    0 -0.24985593710E+02  0.22142153752E+02 -0.90375034219E+03  0.90436675960E+03  0.00000000000E+00 0. -1.
         -2    1    3    3    0  502  0.24985593710E+02 -0.22142153752E+02 -0.16403062805E+03  0.16739355365E+03  0.00000000000E+00 0.  1.
<mgrwt>
<rscale>  0 0.92271169E+02</rscale>
<asrwt>0</asrwt>
<pdfrwt beam="2">  1        1 0.16458054E+00 0.92271169E+02</pdfrwt>
<pdfrwt beam="1">  1       -1 0.30610249E-03 0.92271169E+02</pdfrwt>
<totfact> 0.12915341E+05</totfact>
</mgrwt>
</event>
<event>
 5    1  0.4006808E+001  0.9107174E+02  0.7546771E-02  0.1300277E+00
          1   -1    0    0  501    0  0.00000000000E+00  0.00000000000E+00  0.13256308235E+04  0.13256308235E+04  0.00000000000E+00 0. -1.
         -1   -1    0    0    0  501 -0.00000000000E+00 -0.00000000000E+00 -0.15641728029E+01  0.15641728029E+01  0.00000000000E+00 0.  1.
         23    2    1    2    0    0  0.00000000000E+00  0.00000000000E+00  0.13240666507E+04  0.13271949963E+04  0.91071744922E+02 0.  0.
          2    1    3    3  502    0  0.11316366972E+02 -0.26112789187E+02  0.11800599300E+04  0.11804030567E+04  0.00000000000E+00 0. -1.
         -2    1    3    3    0  502 -0.11316366972E+02  0.26112789187E+02  0.14400672065E+03  0.14679193954E+03  0.00000000000E+00 0.  1.
<mgrwt>
<rscale>  0 0.91071745E+02</rscale>
<asrwt>0</asrwt>
<pdfrwt beam="1">  1        1 0.20394231E+00 0.91071745E+02</pdfrwt>
<pdfrwt beam="2">  1       -1 0.24064303E-03 0.91071745E+02</pdfrwt>
<totfact> 0.12102598E+05</totfact>
</mgrwt>
</event>
<event>
 5    1  0.4006808E+001  0.9385591E+02  0.7546771E-02  0.1293774E+00
          1   -1    0    0  501    0  0.00000000000E+00  0.00000000000E+00  0.10303651145E+04  0.10303651145E+04  0.00000000000E+00 0. -1.
         -1   -1    0    0    0  501 -0.00000000000E+00 -0.00000000000E+00 -0.21373325289E+01  0.21373325289E+01  0.00000000000E+00 0.  1.
         23    2    1    2    0    0  0.00000000000E+00  0.00000000000E+00  0.10282277820E+04  0.10325024470E+04  0.93855908196E+02 0.  0.
          2    1    3    3  502    0  0.20648780678E+02  0.55848240684E+01  0.97361459230E+03  0.97384954523E+03  0.00000000000E+00 0. -1.
         -2    1    3    3    0  502 -0.20648780678E+02 -0.55848240684E+01  0.54613189653E+02  0.58652901782E+02  0.00000000000E+00 0.  1.
<mgrwt>
<rscale>  0 0.93855908E+02</rscale>
<asrwt>0</asrwt>
<pdfrwt beam="1">  1        1 0.15851731E+00 0.93855908E+02</pdfrwt>
<pdfrwt beam="2">  1       -1 0.32882121E-03 0.93855908E+02</pdfrwt>
<totfact> 0.12492563E+05</totfact>
</mgrwt>
</event>
<event>
 5    1  0.4006808E+001  0.9820799E+02  0.7546771E-02  0.1284110E+00
          2   -1    0    0  501    0  0.00000000000E+00  0.00000000000E+00  0.14906122593E+04  0.14906122593E+04  0.00000000000E+00 0.  1.
         -2   -1    0    0    0  501 -0.00000000000E+00 -0.00000000000E+00 -0.16175919260E+01  0.16175919260E+01  0.00000000000E+00 0. -1.
         23    2    1    2    0    0  0.00000000000E+00  0.00000000000E+00  0.14889946673E+04  0.14922298512E+04  0.98207990620E+02 0.  0.
          2    1    3    3  502    0  0.15243383848E+02  0.37864195493E+02  0.11592690094E+04  0.11599873681E+04  0.00000000000E+00 0.  1.
         -2    1    3    3    0  502 -0.15243383848E+02 -0.37864195493E+02  0.32972565796E+03  0.33224248309E+03  0.00000000000E+00 0. -1.
<mgrwt>
<rscale>  0 0.98207991E+02</rscale>
<asrwt>0</asrwt>
<pdfrwt beam="1">  1        2 0.22932386E+00 0.98207991E+02</pdfrwt>
<pdfrwt beam="2">  1       -2 0.24886149E-03 0.98207991E+02</pdfrwt>
<totfact> 0.19434182E+05</totfact>
</mgrwt>
</event>
<event>
 5    1  0.4006808E+001  0.9348814E+02  0.7546771E-02  0.1294618E+00
         -2   -1    0    0    0  501 -0.00000000000E+00  0.00000000000E+00  0.12542158482E+01  0.12542158482E+01  0.00000000000E+00 0.  1.
          2   -1    0    0  501    0  0.00000000000E+00 -0.00000000000E+00 -0.17421306396E+04  0.17421306396E+04  0.00000000000E+00 0. -1.
         23    2    1    2    0    0  0.00000000000E+00  0.00000000000E+00 -0.17408764237E+04  0.17433848554E+04  0.93488135242E+02 0.  0.
          2    1    3    3  502    0 -0.42065681378E+02 -0.13691615266E+02 -0.11520358037E+04  0.11528848490E+04  0.00000000000E+00 0. -1.
         -2    1    3    3    0  502  0.42065681378E+02  0.13691615266E+02 -0.58884061997E+03  0.59050000644E+03  0.00000000000E+00 0.  1.
<mgrwt>
<rscale>  0 0.93488135E+02</rscale>
<asrwt>0</asrwt>
<pdfrwt beam="2">  1        2 0.26802182E+00 0.93488135E+02</pdfrwt>
<pdfrwt beam="1">  1       -2 0.19295505E-03 0.93488135E+02</pdfrwt>
<totfact> 0.20500486E+05</totfact>
</mgrwt>
</event>
<event>
 5    1  0.4006808E+001  0.8101186E+02  0.7546771E-02  0.1326204E+00
          2   -1    0    0  501    0  0.00000000000E+00  0.00000000000E+00  0.18527166424E+04  0.18527166424E+04  0.00000000000E+00 0. -1.
         -2   -1    0    0    0  501 -0.00000000000E+00 -0.00000000000E+00 -0.88558093066E+00  0.88558093066E+00  0.00000000000E+00 0.  1.
         23    2    1    2    0    0  0.00000000000E+00  0.00000000000E+00  0.18518310615E+04  0.18536022233E+04  0.81011864030E+02 0.  0.
          2    1    3    3  502    0  0.22669033303E+02  0.10526651653E+02  0.16552424848E+04  0.16554311761E+04  0.00000000000E+00 0. -1.
         -2    1    3    3    0  502 -0.22669033303E+02 -0.10526651653E+02  0.19658857670E+03  0.19817104722E+03  0.00000000000E+00 0.  1.
<mgrwt>
<rscale>  0 0.81011864E+02</rscale>
<asrwt>0</asrwt>
<pdfrwt beam="1">  1        2 0.28503023E+00 0.81011864E+02</pdfrwt>
<pdfrwt beam="2">  1       -2 0.13624470E-03 0.81011864E+02</pdfrwt>
<totfact> 0.28629691E+05</totfact>
</mgrwt>
</event>
<event>
 5    1  0.4006808E+001  0.8683088E+02  0.7546771E-02  0.1310713E+00
          2   -1    0    0  501    0  0.00000000000E+00  0.00000000000E+00  0.42069025761E+02  0.42069025761E+02  0.00000000000E+00 0. -1.
         -2   -1    0    0    0  501 -0.00000000000E+00 -0.00000000000E+00 -0.44804944852E+02  0.44804944852E+02  0.00000000000E+00 0.  1.
         23    2    1    2    0    0  0.00000000000E+00  0.00000000000E+00 -0.27359190910E+01  0.86873970614E+02  0.86830878822E+02 0.  0.
          2    1    3    3  502    0  0.32168608783E+02 -0.18972869290E+02  0.20781482827E+02  0.42739433649E+02  0.00000000000E+00 0. -1.
         -2    1    3    3    0  502 -0.32168608783E+02  0.18972869290E+02 -0.23517401918E+02  0.44134536965E+02  0.00000000000E+00 0.  1.
<mgrwt>
<rscale>  0 0.86830879E+02</rscale>
<asrwt>0</asrwt>
<pdfrwt beam="1">  1        2 0.64721578E-02 0.86830879E+02</pdfrwt>
<pdfrwt beam="2">  1       -2 0.68930685E-02 0.86830879E+02</pdfrwt>
<totfact> 0.11117708E+05</totfact>
</mgrwt>
</event>
<event>
 5    1  0.4006808E+001  0.9251820E+02  0.7546771E-02  0.1296866E+00
         -2   -1    0    0    0  501 -0.00000000000E+00  0.00000000000E+00  0.13413409325E+02  0.13413409325E+02  0.00000000000E+00 0.  1.
          2   -1    0    0  501    0  0.00000000000E+00 -0.00000000000E+00 -0.15953470430E+03  0.15953470430E+03  0.00000000000E+00 0. -1.
         23    2    1    2    0    0  0.00000000000E+00  0.00000000000E+00 -0.14612129498E+03  0.17294811363E+03  0.92518199082E+02 0.  0.
          2    1    3    3  502    0 -0.45002792645E+02  0.52956346316E+01 -0.90457499476E+02  0.10117239892E+03  0.00000000000E+00 0. -1.
         -2    1    3    3    0  502  0.45002792645E+02 -0.52956346316E+01 -0.55663795503E+02  0.71775714708E+02  0.00000000000E+00 0.  1.
<mgrwt>
<rscale>  0 0.92518199E+02</rscale>
<asrwt>0</asrwt>
<pdfrwt beam="2">  1        2 0.24543800E-01 0.92518199E+02</pdfrwt>
<pdfrwt beam="1">  1       -2 0.20636015E-02 0.92518199E+02</pdfrwt>
<totfact> 0.13724391E+05</totfact>
</mgrwt>
</event>
<event>
 5    1  0.4006808E+001  0.6876915E+02  0.7546771E-02  0.1364329E+00
          4   -1    0    0  501    0  0.00000000000E+00  0.00000000000E+00  0.22848904727E+03  0.22848904727E+03  0.00000000000E+00 0. -1.
         -4   -1    0    0    0  501 -0.00000000000E+00 -0.00000000000E+00 -0.51744237720E+01  0.51744237720E+01  0.00000000000E+00 0.  1.
         23    2    1    2    0    0  0.00000000000E+00  0.00000000000E+00  0.22331462350E+03  0.23366347104E+03  0.68769154650E+02 0.  0.
          2    1    3    3  502    0 -0.27358150753E+02 -0.20561203192E+02  0.12296113114E+03  0.12763491396E+03  0.00000000000E+00 0.  1.
         -2    1    3    3    0  502  0.27358150753E+02  0.20561203192E+02  0.10035349235E+03  0.10602855708E+03  0.00000000000E+00 0. -1.
<mgrwt>
<rscale>  0 0.68769155E+02</rscale>
<asrwt>0</asrwt>
<pdfrwt beam="1">  1        4 0.35152153E-01 0.68769155E+02</pdfrwt>
<pdfrwt beam="2">  1       -4 0.79606537E-03 0.68769155E+02</pdfrwt>
<totfact> 0.41929478E+04</totfact>
</mgrwt>
</event>
<event>
 5    1  0.4006808E+001  0.9304150E+02  0.7546771E-02  0.1295649E+00
         -1   -1    0    0    0  501 -0.00000000000E+00  0.00000000000E+00  0.79292398850E+00  0.79292398850E+00  0.00000000000E+00 0.  1.
          1   -1    0    0  501    0  0.00000000000E+00 -0.00000000000E+00 -0.27293666981E+04  0.27293666981E+04  0.00000000000E+00 0. -1.
         23    2    1    2    0    0  0.00000000000E+00  0.00000000000E+00 -0.27285737741E+04  0.27301596221E+04  0.93041503176E+02 0.  0.
          2    1    3    3  502    0 -0.29756304577E+01  0.44957649391E+02 -0.10244398154E+04  0.10254301439E+04  0.00000000000E+00 0. -1.
         -2    1    3    3    0  502  0.29756304577E+01 -0.44957649391E+02 -0.17041339587E+04  0.17047294782E+04  0.00000000000E+00 0.  1.
<mgrwt>
<rscale>  0 0.93041503E+02</rscale>
<asrwt>0</asrwt>
<pdfrwt beam="2">  1        1 0.41990279E+00 0.93041503E+02</pdfrwt>
<pdfrwt beam="1">  1       -1 0.12198824E-03 0.93041503E+02</pdfrwt>
<totfact> 0.39658776E+04</totfact>
</mgrwt>
</event>
<event>
 5    1  0.4006808E+001  0.9262389E+02  0.7546771E-02  0.1296619E+00
          2   -1    0    0  501    0  0.00000000000E+00  0.00000000000E+00  0.46868806051E+03  0.46868806051E+03  0.00000000000E+00 0.  1.
         -2   -1    0    0    0  501 -0.00000000000E+00 -0.00000000000E+00 -0.45761698694E+01  0.45761698694E+01  0.00000000000E+00 0. -1.
         23    2    1    2    0    0  0.00000000000E+00  0.00000000000E+00  0.46411189064E+03  0.47326423038E+03  0.92623888510E+02 0.  0.
          2    1    3    3  502    0 -0.26527213259E+02 -0.17462487897E+02  0.59828916628E+02  0.67735742350E+02  0.00000000000E+00 0. -1.
         -2    1    3    3    0  502  0.26527213259E+02  0.17462487897E+02  0.40428297402E+03  0.40552848803E+03  0.00000000000E+00 0.  1.
<mgrwt>
<rscale>  0 0.92623889E+02</rscale>
<asrwt>0</asrwt>
<pdfrwt beam="1">  1        2 0.72105818E-01 0.92623889E+02</pdfrwt>
<pdfrwt beam="2">  1       -2 0.70402650E-03 0.92623889E+02</pdfrwt>
<totfact> 0.20230719E+05</totfact>
</mgrwt>
</event>
<event>
 5    1  0.4006808E+001  0.9684885E+02  0.7546771E-02  0.1287065E+00
         -1   -1    0    0    0  501 -0.00000000000E+00  0.00000000000E+00  0.92582323853E+01  0.92582323853E+01  0.00000000000E+00 0.  1.
          1   -1    0    0  501    0  0.00000000000E+00 -0.00000000000E+00 -0.25327997034E+03  0.25327997034E+03  0.00000000000E+00 0. -1.
         23    2    1    2    0    0  0.00000000000E+00  0.00000000000E+00 -0.24402173796E+03  0.26253820273E+03  0.96848847675E+02 0.  0.
          2    1    3    3  502    0 -0.39408636634E+02 -0.16559591841E+02 -0.60334034719E+02  0.73942250904E+02  0.00000000000E+00 0.  1.
         -2    1    3    3    0  502  0.39408636634E+02  0.16559591841E+02 -0.18368770324E+03  0.18859595182E+03  0.00000000000E+00 0. -1.
<mgrwt>
<rscale>  0 0.96848848E+02</rscale>
<asrwt>0</asrwt>
<pdfrwt beam="2">  1        1 0.38966155E-01 0.96848848E+02</pdfrwt>
<pdfrwt beam="1">  1       -1 0.14243433E-02 0.96848848E+02</pdfrwt>
<totfact> 0.10546169E+05</totfact>
</mgrwt>
</event>
<event>
 5    1  0.4006808E+001  0.8054311E+02  0.7546771E-02  0.1327517E+00
          1   -1    0    0  501    0  0.00000000000E+00  0.00000000000E+00  0.31303501855E+03  0.31303501855E+03  0.00000000000E+00 0. -1.
         -1   -1    0    0    0  501 -0.00000000000E+00 -0.00000000000E+00 -0.51808838108E+01  0.51808838108E+01  0.00000000000E+00 0.  1.
         23    2    1    2    0    0  0.00000000000E+00  0.00000000000E+00  0.30785413474E+03  0.31821590236E+03  0.80543107956E+02 0.  0.
          2    1    3    3  502    0  0.30192823948E+02 -0.19161624624E+02  0.22710084647E+03  0.22989904077E+03  0.00000000000E+00 0. -1.
         -2    1    3    3    0  502 -0.30192823948E+02  0.19161624624E+02  0.80753288265E+02  0.88316861594E+02  0.00000000000E+00 0.  1.
<mgrwt>
<rscale>  0 0.80543108E+02</rscale>
<asrwt>0</asrwt>
<pdfrwt beam="1">  1        1 0.48159219E-01 0.80543108E+02</pdfrwt>
<pdfrwt beam="2">  1       -1 0.79705929E-03 0.80543108E+02</pdfrwt>
<totfact> 0.17929809E+05</totfact>
</mgrwt>
</event>
<event>
 5    1  0.4006808E+001  0.9124316E+02  0.7546771E-02  0.1299869E+00
          1   -1    0    0  501    0  0.00000000000E+00  0.00000000000E+00  0.71651477326E+03  0.71651477326E+03  0.00000000000E+00 0. -1.
         -1   -1    0    0    0  501 -0.00000000000E+00 -0.00000000000E+00 -0.29047952152E+01  0.29047952152E+01  0.00000000000E+00 0.  1.
         23    2    1    2    0    0  0.00000000000E+00  0.00000000000E+00  0.71360997805E+03  0.71941956848E+03  0.91243162702E+02 0.  0.
          2    1    3    3  502    0 -0.27359960179E+01  0.38038026417E+02  0.55422851709E+03  0.55553904119E+03  0.00000000000E+00 0. -1.
         -2    1    3    3    0  502  0.27359960179E+01 -0.38038026417E+02  0.15938146096E+03  0.16388052729E+03  0.00000000000E+00 0.  1.
<mgrwt>
<rscale>  0 0.91243163E+02</rscale>
<asrwt>0</asrwt>
<pdfrwt beam="1">  1        1 0.11023290E+00 0.91243163E+02</pdfrwt>
<pdfrwt beam="2">  1       -1 0.44689214E-03 0.91243163E+02</pdfrwt>
<totfact> 0.14185198E+05</totfact>
</mgrwt>
</event>
<event>
 5    1  0.4006808E+001  0.9064148E+02  0.7546771E-02  0.1301306E+00
         -2   -1    0    0    0  501 -0.00000000000E+00  0.00000000000E+00  0.10553005606E+02  0.10553005606E+02  0.00000000000E+00 0.  1.
          2   -1    0    0  501    0  0.00000000000E+00 -0.00000000000E+00 -0.19463361442E+03  0.19463361442E+03  0.00000000000E+00 0. -1.
         23    2    1    2    0    0  0.00000000000E+00  0.00000000000E+00 -0.18408060881E+03  0.20518662003E+03  0.90641483307E+02 0.  0.
          2    1    3    3  502    0 -0.35885658255E+02  0.22235304447E+02 -0.12935939858E+03  0.13607366840E+03  0.00000000000E+00 0. -1.
         -2    1    3    3    0  502  0.35885658255E+02 -0.22235304447E+02 -0.54721210236E+02  0.69112951622E+02  0.00000000000E+00 0.  1.
<mgrwt>
<rscale>  0 0.90641483E+02</rscale>
<asrwt>0</asrwt>
<pdfrwt beam="2">  1        2 0.29943633E-01 0.90641483E+02</pdfrwt>
<pdfrwt beam="1">  1       -2 0.16235393E-02 0.90641483E+02</pdfrwt>
<totfact> 0.15561671E+05</totfact>
</mgrwt>
</event>
<event>
 5    1  0.4006808E+001  0.9186602E+02  0.7546771E-02  0.1298395E+00
          3   -1    0    0  501    0  0.00000000000E+00  0.00000000000E+00  0.20529963802E+03  0.20529963802E+03  0.00000000000E+00 0. -1.
         -3   -1    0    0    0  501 -0.00000000000E+00 -0.00000000000E+00 -0.10276888384E+02  0.10276888384E+02  0.00000000000E+00 0.  1.
         23    2    1    2    0    0  0.00000000000E+00  0.00000000000E+00  0.19502274964E+03  0.21557652641E+03  0.91866021254E+02 0.  0.
          2    1    3    3  502    0  0.27780717954E+02 -0.20343996723E+02  0.16885059593E+03  0.17232576777E+03  0.00000000000E+00 0. -1.
         -2    1    3    3    0  502 -0.27780717954E+02  0.20343996723E+02  0.26172153711E+02  0.43250758636E+02  0.00000000000E+00 0.  1.
<mgrwt>
<rscale>  0 0.91866021E+02</rscale>
<asrwt>0</asrwt>
<pdfrwt beam="1">  1        3 0.31584557E-01 0.91866021E+02</pdfrwt>
<pdfrwt beam="2">  1       -3 0.15810599E-02 0.91866021E+02</pdfrwt>
<totfact> 0.27154963E+04</totfact>
</mgrwt>
</event>
<event>
 5    1  0.4006808E+001  0.9614550E+02  0.7546771E-02  0.1288617E+00
         -4   -1    0    0    0  501 -0.00000000000E+00  0.00000000000E+00  0.22436375085E+01  0.22436375085E+01  0.00000000000E+00 0.  1.
          4   -1    0    0  501    0  0.00000000000E+00 -0.00000000000E+00 -0.10300189071E+04  0.10300189071E+04  0.00000000000E+00 0. -1.
         23    2    1    2    0    0  0.00000000000E+00  0.00000000000E+00 -0.10277752696E+04  0.10322625446E+04  0.96145495046E+02 0.  0.
          2    1    3    3  502    0 -0.45386670668E+02  0.70840821657E+01 -0.66604833910E+03  0.66763052964E+03  0.00000000000E+00 0. -1.
         -2    1    3    3    0  502  0.45386670668E+02 -0.70840821657E+01 -0.36172693050E+03  0.36463201497E+03  0.00000000000E+00 0.  1.
<mgrwt>
<rscale>  0 0.96145495E+02</rscale>
<asrwt>0</asrwt>
<pdfrwt beam="2">  1        4 0.15846428E+00 0.96145495E+02</pdfrwt>
<pdfrwt beam="1">  1       -4 0.34517535E-03 0.96145495E+02</pdfrwt>
<totfact> 0.59773826E+03</totfact>
</mgrwt>
</event>
<event>
 5    1  0.4006808E+001  0.9230784E+02  0.7546771E-02  0.1297357E+00
         -4   -1    0    0    0  501 -0.00000000000E+00  0.00000000000E+00  0.21397148211E+03  0.21397148211E+03  0.00000000000E+00 0.  1.
          4   -1    0    0  501    0  0.00000000000E+00 -0.00000000000E+00 -0.99554593122E+01  0.99554593122E+01  0.00000000000E+00 0. -1.
         23    2    1    2    0    0  0.00000000000E+00  0.00000000000E+00  0.20401602280E+03  0.22392694142E+03  0.92307841142E+02 0.  0.
          2    1    3    3  502    0 -0.11743414565E+02  0.44575039627E+02  0.10761510246E+03  0.11707199589E+03  0.00000000000E+00 0. -1.
         -2    1    3    3    0  502  0.11743414565E+02 -0.44575039627E+02  0.96400920335E+02  0.10685494553E+03  0.00000000000E+00 0.  1.
<mgrwt>
<rscale>  0 0.92307841E+02</rscale>
<asrwt>0</asrwt>
<pdfrwt beam="2">  1        4 0.15316093E-02 0.92307841E+02</pdfrwt>
<pdfrwt beam="1">  1       -4 0.32918686E-01 0.92307841E+02</pdfrwt>
<totfact> 0.19763059E+04</totfact>
</mgrwt>
</event>
<event>
 5    1  0.4006808E+001  0.9173826E+02  0.7546771E-02  0.1298696E+00
         -2   -1    0    0    0  501 -0.00000000000E+00  0.00000000000E+00  0.63950562699E+02  0.63950562699E+02  0.00000000000E+00 0.  1.
          2   -1    0    0  501    0  0.00000000000E+00 -0.00000000000E+00 -0.32900057898E+02  0.32900057898E+02  0.00000000000E+00 0. -1.
         23    2    1    2    0    0  0.00000000000E+00  0.00000000000E+00  0.31050504801E+02  0.96850620597E+02  0.91738262801E+02 0.  0.
          2    1    3    3  502    0  0.44256766579E+02 -0.35304240995E+01  0.27693718458E+02  0.52326545122E+02  0.00000000000E+00 0. -1.
         -2    1    3    3    0  502 -0.44256766579E+02  0.35304240995E+01  0.33567863430E+01  0.44524075475E+02  0.00000000000E+00 0.  1.
<mgrwt>
<rscale>  0 0.91738263E+02</rscale>
<asrwt>0</asrwt>
<pdfrwt beam="2">  1        2 0.50615474E-02 0.91738263E+02</pdfrwt>
<pdfrwt beam="1">  1       -2 0.98385481E-02 0.91738263E+02</pdfrwt>
<totfact> 0.89029399E+04</totfact>
</mgrwt>
</event>
<event>
 5    1  0.4006808E+001  0.9132959E+02  0.7546771E-02  0.1299663E+00
         -2   -1    0    0    0  501 -0.00000000000E+00  0.00000000000E+00  0.63871813952E+01  0.63871813952E+01  0.00000000000E+00 0. -1.
          2   -1    0    0  501    0  0.00000000000E+00 -0.00000000000E+00 -0.32647788632E+03  0.32647788632E+03  0.00000000000E+00 0.  1.
         23    2    1    2    0    0  0.00000000000E+00  0.00000000000E+00 -0.32009070492E+03  0.33286506771E+03  0.91329589542E+02 0.  0.
          2    1    3    3  502    0 -0.27592655994E+02 -0.19276816321E+02 -0.47572194232E+02  0.58275758050E+02  0.00000000000E+00 0. -1.
         -2    1    3    3    0  502  0.27592655994E+02  0.19276816321E+02 -0.27251851069E+03  0.27458930966E+03  0.00000000000E+00 0.  1.
<mgrwt>
<rscale>  0 0.91329590E+02</rscale>
<asrwt>0</asrwt>
<pdfrwt beam="2">  1        2 0.50227350E-01 0.91329590E+02</pdfrwt>
<pdfrwt beam="1">  1       -2 0.98264362E-03 0.91329590E+02</pdfrwt>
<totfact> 0.18456458E+05</totfact>
</mgrwt>
</event>
<event>
 5    1  0.4006808E+001  0.9151934E+02  0.7546771E-02  0.1299214E+00
         -1   -1    0    0    0  501 -0.00000000000E+00  0.00000000000E+00  0.60953827325E+01  0.60953827325E+01  0.00000000000E+00 0.  1.
          1   -1    0    0  501    0  0.00000000000E+00 -0.00000000000E+00 -0.34353009811E+03  0.34353009811E+03  0.00000000000E+00 0. -1.
         23    2    1    2    0    0  0.00000000000E+00  0.00000000000E+00 -0.33743471538E+03  0.34962548084E+03  0.91519340647E+02 0.  0.
          2    1    3    3  502    0  0.17770352315E+02 -0.40502458643E+02 -0.21354825465E+03  0.21808047056E+03  0.00000000000E+00 0. -1.
         -2    1    3    3    0  502 -0.17770352315E+02  0.40502458643E+02 -0.12388646073E+03  0.13154501028E+03  0.00000000000E+00 0.  1.
<mgrwt>
<rscale>  0 0.91519341E+02</rscale>
<asrwt>0</asrwt>
<pdfrwt beam="2">  1        1 0.52850775E-01 0.91519341E+02</pdfrwt>
<pdfrwt beam="1">  1       -1 0.93775135E-03 0.91519341E+02</pdfrwt>
<totfact> 0.13008694E+05</totfact>
</mgrwt>
</event>
<event>
 5    1  0.4006808E+001  0.8863332E+02  0.7546771E-02  0.1306195E+00
          2   -1    0    0  501    0  0.00000000000E+00  0.00000000000E+00  0.14221541480E+04  0.14221541480E+04  0.00000000000E+00 0. -1.
         -2   -1    0    0    0  501 -0.00000000000E+00 -0.00000000000E+00 -0.13809799067E+01  0.13809799067E+01  0.00000000000E+00 0.  1.
         23    2    1    2    0    0  0.00000000000E+00  0.00000000000E+00  0.14207731681E+04  0.14235351279E+04  0.88633318849E+02 0.  0.
          2    1    3    3  502    0  0.92888830867E+01 -0.32958008816E+02  0.11622255012E+04  0.11627298178E+04  0.00000000000E+00 0. -1.
         -2    1    3    3    0  502 -0.92888830867E+01  0.32958008816E+02  0.25854766688E+03  0.26080531004E+03  0.00000000000E+00 0.  1.
<mgrwt>
<rscale>  0 0.88633319E+02</rscale>
<asrwt>0</asrwt>
<pdfrwt beam="1">  1        2 0.21879177E+00 0.88633319E+02</pdfrwt>
<pdfrwt beam="2">  1       -2 0.21245959E-03 0.88633319E+02</pdfrwt>
<totfact> 0.25886020E+05</totfact>
</mgrwt>
</event>
<event>
 5    1  0.4006808E+001  0.9071244E+02  0.7546771E-02  0.1301136E+00
         -4   -1    0    0    0  501 -0.00000000000E+00  0.00000000000E+00  0.17232886421E+02  0.17232886421E+02  0.00000000000E+00 0.  1.
          4   -1    0    0  501    0  0.00000000000E+00 -0.00000000000E+00 -0.11937563342E+03  0.11937563342E+03  0.00000000000E+00 0. -1.
         23    2    1    2    0    0  0.00000000000E+00  0.00000000000E+00 -0.10214274699E+03  0.13660851984E+03  0.90712440870E+02 0.  0.
          2    1    3    3  502    0 -0.46892261354E+01 -0.34073672360E+02 -0.95597205877E+02  0.10159640624E+03  0.00000000000E+00 0. -1.
         -2    1    3    3    0  502  0.46892261354E+01  0.34073672360E+02 -0.65455411178E+01  0.35012113595E+02  0.00000000000E+00 0.  1.
<mgrwt>
<rscale>  0 0.90712441E+02</rscale>
<asrwt>0</asrwt>
<pdfrwt beam="2">  1        4 0.18365483E-01 0.90712441E+02</pdfrwt>
<pdfrwt beam="1">  1       -4 0.26512132E-02 0.90712441E+02</pdfrwt>
<totfact> 0.24700726E+04</totfact>
</mgrwt>
</event>
<event>
 5    1  0.4006808E+001  0.9218950E+02  0.7546771E-02  0.1297634E+00
         -2   -1    0    0    0  501 -0.00000000000E+00  0.00000000000E+00  0.95011338365E+01  0.95011338365E+01  0.00000000000E+00 0.  1.
          2   -1    0    0  501    0  0.00000000000E+00 -0.00000000000E+00 -0.22362866825E+03  0.22362866825E+03  0.00000000000E+00 0. -1.
         23    2    1    2    0    0  0.00000000000E+00  0.00000000000E+00 -0.21412753441E+03  0.23312980208E+03  0.92189498462E+02 0.  0.
          2    1    3    3  502    0 -0.40918740808E+01  0.34097740492E+02 -0.18481499829E+03  0.18797867680E+03  0.00000000000E+00 0. -1.
         -2    1    3    3    0  502  0.40918740808E+01 -0.34097740492E+02 -0.29312536121E+02  0.45151125279E+02  0.00000000000E+00 0.  1.
<mgrwt>
<rscale>  0 0.92189498E+02</rscale>
<asrwt>0</asrwt>
<pdfrwt beam="2">  1        2 0.34404412E-01 0.92189498E+02</pdfrwt>
<pdfrwt beam="1">  1       -2 0.14617128E-02 0.92189498E+02</pdfrwt>
<totfact> 0.15638911E+05</totfact>
</mgrwt>
</event>
<event>
 5    1  0.4006808E+001  0.9105164E+02  0.7546771E-02  0.1300325E+00
          3   -1    0    0  501    0  0.00000000000E+00  0.00000000000E+00  0.24618912332E+02  0.24618912332E+02  0.00000000000E+00 0. -1.
         -3   -1    0    0    0  501 -0.00000000000E+00 -0.00000000000E+00 -0.84187326449E+02  0.84187326449E+02  0.00000000000E+00 0.  1.
         23    2    1    2    0    0  0.00000000000E+00  0.00000000000E+00 -0.59568414118E+02  0.10880623878E+03  0.91051642693E+02 0.  0.
          2    1    3    3  502    0  0.25989661990E+02 -0.37244323672E+02 -0.26005635584E+02  0.52334455747E+02  0.00000000000E+00 0. -1.
         -2    1    3    3    0  502 -0.25989661990E+02  0.37244323672E+02 -0.33562778533E+02  0.56471783034E+02  0.00000000000E+00 0.  1.
<mgrwt>
<rscale>  0 0.91051643E+02</rscale>
<asrwt>0</asrwt>
<pdfrwt beam="1">  1        3 0.37875250E-02 0.91051643E+02</pdfrwt>
<pdfrwt beam="2">  1       -3 0.12951896E-01 0.91051643E+02</pdfrwt>
<totfact> 0.34159356E+04</totfact>
</mgrwt>
</event>
<event>
 5    1  0.4006808E+001  0.8977440E+02  0.7546771E-02  0.1303399E+00
          3   -1    0    0  501    0  0.00000000000E+00  0.00000000000E+00  0.10283419134E+03  0.10283419134E+03  0.00000000000E+00 0. -1.
         -3   -1    0    0    0  501 -0.00000000000E+00 -0.00000000000E+00 -0.19593294634E+02  0.19593294634E+02  0.00000000000E+00 0.  1.
         23    2    1    2    0    0  0.00000000000E+00  0.00000000000E+00  0.83240896709E+02  0.12242748598E+03  0.89774397451E+02 0.  0.
          2    1    3    3  502    0 -0.19171940465E+02 -0.22706725220E+02  0.87497179161E+02  0.92406249965E+02  0.00000000000E+00 0. -1.
         -2    1    3    3    0  502  0.19171940465E+02  0.22706725220E+02 -0.42562824514E+01  0.30021236012E+02  0.00000000000E+00 0.  1.
<mgrwt>
<rscale>  0 0.89774397E+02</rscale>
<asrwt>0</asrwt>
<pdfrwt beam="1">  1        3 0.15820645E-01 0.89774397E+02</pdfrwt>
<pdfrwt beam="2">  1       -3 0.30143531E-02 0.89774397E+02</pdfrwt>
<totfact> 0.34499838E+04</totfact>
</mgrwt>
</event>
<event>
 5    1  0.4006808E+001  0.8934098E+02  0.7546771E-02  0.1304455E+00
          1   -1    0    0  501    0  0.00000000000E+00  0.00000000000E+00  0.18924760225E+02  0.18924760225E+02  0.00000000000E+00 0. -1.
         -1   -1    0    0    0  501 -0.00000000000E+00 -0.00000000000E+00 -0.10544137698E+03  0.10544137698E+03  0.00000000000E+00 0.  1.
         23    2    1    2    0    0  0.00000000000E+00  0.00000000000E+00 -0.86516616754E+02  0.12436613720E+03  0.89340982246E+02 0.  0.
          2    1    3    3  502    0  0.26030307475E+02  0.16833121634E+02  0.15152141865E+01  0.31035894786E+02  0.00000000000E+00 0. -1.
         -2    1    3    3    0  502 -0.26030307475E+02 -0.16833121634E+02 -0.88031830940E+02  0.93330242418E+02  0.00000000000E+00 0.  1.
<mgrwt>
<rscale>  0 0.89340982E+02</rscale>
<asrwt>0</asrwt>
<pdfrwt beam="1">  1        1 0.29115016E-02 0.89340982E+02</pdfrwt>
<pdfrwt beam="2">  1       -1 0.16221750E-01 0.89340982E+02</pdfrwt>
<totfact> 0.84894935E+04</totfact>
</mgrwt>
</event>
<event>
 5    1  0.4006808E+001  0.9095332E+02  0.7546771E-02  0.1300559E+00
          1   -1    0    0  501    0  0.00000000000E+00  0.00000000000E+00  0.25192108922E+01  0.25192108922E+01  0.00000000000E+00 0. -1.
         -1   -1    0    0    0  501 -0.00000000000E+00 -0.00000000000E+00 -0.82094229249E+03  0.82094229249E+03  0.00000000000E+00 0.  1.
         23    2    1    2    0    0  0.00000000000E+00  0.00000000000E+00 -0.81842308160E+03  0.82346150339E+03  0.90953323525E+02 0.  0.
          2    1    3    3  502    0 -0.16264828344E+02  0.19768065448E+02 -0.68908406816E+02  0.73509792426E+02  0.00000000000E+00 0. -1.
         -2    1    3    3    0  502  0.16264828344E+02 -0.19768065448E+02 -0.74951467478E+03  0.74995171096E+03  0.00000000000E+00 0.  1.
<mgrwt>
<rscale>  0 0.90953324E+02</rscale>
<asrwt>0</asrwt>
<pdfrwt beam="1">  1        1 0.38757099E-03 0.90953324E+02</pdfrwt>
<pdfrwt beam="2">  1       -1 0.12629879E+00 0.90953324E+02</pdfrwt>
<totfact> 0.32041493E+04</totfact>
</mgrwt>
</event>
<event>
 5    1  0.4006808E+001  0.9302381E+02  0.7546771E-02  0.1295690E+00
          2   -1    0    0  501    0  0.00000000000E+00  0.00000000000E+00  0.99053883828E+03  0.99053883828E+03  0.00000000000E+00 0. -1.
         -2   -1    0    0    0  501 -0.00000000000E+00 -0.00000000000E+00 -0.21840207140E+01  0.21840207140E+01  0.00000000000E+00 0.  1.
         23    2    1    2    0    0  0.00000000000E+00  0.00000000000E+00  0.98835481757E+03  0.99272285900E+03  0.93023810733E+02 0.  0.
          2    1    3    3  502    0 -0.44359363777E+02  0.10216668169E+02  0.39225066262E+03  0.39488316727E+03  0.00000000000E+00 0.  1.
         -2    1    3    3    0  502  0.44359363777E+02 -0.10216668169E+02  0.59610415495E+03  0.59783969173E+03  0.00000000000E+00 0. -1.
<mgrwt>
<rscale>  0 0.93023811E+02</rscale>
<asrwt>0</asrwt>
<pdfrwt beam="1">  1        2 0.15239023E+00 0.93023811E+02</pdfrwt>
<pdfrwt beam="2">  1       -2 0.33600398E-03 0.93023811E+02</pdfrwt>
<totfact> 0.23703589E+05</totfact>
</mgrwt>
</event>
<event>
 5    1  0.4006808E+001  0.9326409E+02  0.7546771E-02  0.1295134E+00
         -1   -1    0    0    0  501 -0.00000000000E+00  0.00000000000E+00  0.10536085387E+02  0.10536085387E+02  0.00000000000E+00 0.  1.
          1   -1    0    0  501    0  0.00000000000E+00 -0.00000000000E+00 -0.20639046044E+03  0.20639046044E+03  0.00000000000E+00 0. -1.
         23    2    1    2    0    0  0.00000000000E+00  0.00000000000E+00 -0.19585437505E+03  0.21692654582E+03  0.93264087713E+02 0.  0.
          2    1    3    3  502    0 -0.24000634185E+02  0.33928292621E+02 -0.14712439317E+03  0.15288147876E+03  0.00000000000E+00 0. -1.
         -2    1    3    3    0  502  0.24000634185E+02 -0.33928292621E+02 -0.48729981877E+02  0.64045067064E+02  0.00000000000E+00 0.  1.
<mgrwt>
<rscale>  0 0.93264088E+02</rscale>
<asrwt>0</asrwt>
<pdfrwt beam="2">  1        1 0.31752377E-01 0.93264088E+02</pdfrwt>
<pdfrwt beam="1">  1       -1 0.16209363E-02 0.93264088E+02</pdfrwt>
<totfact> 0.11210558E+05</totfact>
</mgrwt>
</event>
<event>
 5    1  0.4006808E+001  0.9285507E+02  0.7546771E-02  0.1296081E+00
         -1   -1    0    0    0  501 -0.00000000000E+00  0.00000000000E+00  0.25868662940E+02  0.25868662940E+02  0.00000000000E+00 0.  1.
          1   -1    0    0  501    0  0.00000000000E+00 -0.00000000000E+00 -0.83325368023E+02  0.83325368023E+02  0.00000000000E+00 0. -1.
         23    2    1    2    0    0  0.00000000000E+00  0.00000000000E+00 -0.57456705083E+02  0.10919403096E+03  0.92855066846E+02 0.  0.
          2    1    3    3  502    0 -0.44245364008E+02  0.97009638758E+01 -0.16749984619E+02  0.48294129261E+02  0.00000000000E+00 0. -1.
         -2    1    3    3    0  502  0.44245364008E+02 -0.97009638758E+01 -0.40706720464E+02  0.60899901702E+02  0.00000000000E+00 0.  1.
<mgrwt>
<rscale>  0 0.92855067E+02</rscale>
<asrwt>0</asrwt>
<pdfrwt beam="2">  1        1 0.12819287E-01 0.92855067E+02</pdfrwt>
<pdfrwt beam="1">  1       -1 0.39797943E-02 0.92855067E+02</pdfrwt>
<totfact> 0.96441350E+04</totfact>
</mgrwt>
</event>
<event>
 5    1  0.4006808E+001  0.9021951E+02  0.7546771E-02  0.1302321E+00
         -3   -1    0    0    0  501 -0.00000000000E+00  0.00000000000E+00  0.60725247624E+02  0.60725247624E+02  0.00000000000E+00 0.  1.
          3   -1    0    0  501    0  0.00000000000E+00 -0.00000000000E+00 -0.33509782995E+02  0.33509782995E+02  0.00000000000E+00 0. -1.
         23    2    1    2    0    0  0.00000000000E+00  0.00000000000E+00  0.27215464629E+02  0.94235030619E+02  0.90219507207E+02 0.  0.
          2    1    3    3  502    0  0.27748121900E+02 -0.13809708630E+02 -0.20626394864E+02  0.37230558504E+02  0.00000000000E+00 0. -1.
         -2    1    3    3    0  502 -0.27748121900E+02  0.13809708630E+02  0.47841859492E+02  0.57004472115E+02  0.00000000000E+00 0.  1.
<mgrwt>
<rscale>  0 0.90219507E+02</rscale>
<asrwt>0</asrwt>
<pdfrwt beam="2">  1        3 0.51553512E-02 0.90219507E+02</pdfrwt>
<pdfrwt beam="1">  1       -3 0.93423458E-02 0.90219507E+02</pdfrwt>
<totfact> 0.36127274E+04</totfact>
</mgrwt>
</event>
<event>
 5    1  0.4006808E+001  0.9097079E+02  0.7546771E-02  0.1300518E+00
         -3   -1    0    0    0  501 -0.00000000000E+00  0.00000000000E+00  0.10768773640E+02  0.10768773640E+02  0.00000000000E+00 0.  1.
          3   -1    0    0  501    0  0.00000000000E+00 -0.00000000000E+00 -0.19212225483E+03  0.19212225483E+03  0.00000000000E+00 0. -1.
         23    2    1    2    0    0  0.00000000000E+00  0.00000000000E+00 -0.18135348119E+03  0.20289102847E+03  0.90970788135E+02 0.  0.
          2    1    3    3  502    0 -0.33906005712E+02  0.29992990166E+02 -0.10058192781E+03  0.11029923338E+03  0.00000000000E+00 0. -1.
         -2    1    3    3    0  502  0.33906005712E+02 -0.29992990166E+02 -0.80771553376E+02  0.92591795085E+02  0.00000000000E+00 0.  1.
<mgrwt>
<rscale>  0 0.90970788E+02</rscale>
<asrwt>0</asrwt>
<pdfrwt beam="2">  1        3 0.29557268E-01 0.90970788E+02</pdfrwt>
<pdfrwt beam="1">  1       -3 0.16567345E-02 0.90970788E+02</pdfrwt>
<totfact> 0.28523394E+04</totfact>
</mgrwt>
</event>
<event>
 5    1  0.4006808E+001  0.9605844E+02  0.7546771E-02  0.1288810E+00
         -3   -1    0    0    0  501 -0.00000000000E+00  0.00000000000E+00  0.48248803898E+02  0.48248803898E+02  0.00000000000E+00 0.  1.
          3   -1    0    0  501    0  0.00000000000E+00 -0.00000000000E+00 -0.47810634598E+02  0.47810634598E+02  0.00000000000E+00 0. -1.
         23    2    1    2    0    0  0.00000000000E+00  0.00000000000E+00  0.43816930019E+00  0.96059438496E+02  0.96058439150E+02 0.  0.
          2    1    3    3  502    0  0.52162913919E+01 -0.36966187054E+02 -0.29998728818E+02  0.47891882526E+02  0.00000000000E+00 0. -1.
         -2    1    3    3    0  502 -0.52162913919E+01  0.36966187054E+02  0.30436898118E+02  0.48167555971E+02  0.00000000000E+00 0.  1.
<mgrwt>
<rscale>  0 0.96058439E+02</rscale>
<asrwt>0</asrwt>
<pdfrwt beam="2">  1        3 0.73554822E-02 0.96058439E+02</pdfrwt>
<pdfrwt beam="1">  1       -3 0.74228929E-02 0.96058439E+02</pdfrwt>
<totfact> 0.30317321E+04</totfact>
</mgrwt>
</event>
<event>
 5    1  0.4006808E+001  0.9207731E+02  0.7546771E-02  0.1297898E+00
         -2   -1    0    0    0  501 -0.00000000000E+00  0.00000000000E+00  0.47388143953E+02  0.47388143953E+02  0.00000000000E+00 0.  1.
          2   -1    0    0  501    0  0.00000000000E+00 -0.00000000000E+00 -0.44727597110E+02  0.44727597110E+02  0.00000000000E+00 0. -1.
         23    2    1    2    0    0  0.00000000000E+00  0.00000000000E+00  0.26605468436E+01  0.92115741063E+02  0.92077311223E+02 0.  0.
          2    1    3    3  502    0 -0.30348955729E+02 -0.31714175707E+02  0.15218061224E+02  0.46458986666E+02  0.00000000000E+00 0. -1.
         -2    1    3    3    0  502  0.30348955729E+02  0.31714175707E+02 -0.12557514380E+02  0.45656754397E+02  0.00000000000E+00 0.  1.
<mgrwt>
<rscale>  0 0.92077311E+02</rscale>
<asrwt>0</asrwt>
<pdfrwt beam="2">  1        2 0.68811688E-02 0.92077311E+02</pdfrwt>
<pdfrwt beam="1">  1       -2 0.72904836E-02 0.92077311E+02</pdfrwt>
<totfact> 0.95448464E+04</totfact>
</mgrwt>
</event>
<event>
 5    1  0.4006808E+001  0.9213662E+02  0.7546771E-02  0.1297759E+00
          2   -1    0    0  501    0  0.00000000000E+00  0.00000000000E+00  0.58269127942E+03  0.58269127942E+03  0.00000000000E+00 0. -1.
         -2   -1    0    0    0  501 -0.00000000000E+00 -0.00000000000E+00 -0.36422189408E+01  0.36422189408E+01  0.00000000000E+00 0.  1.
         23    2    1    2    0    0  0.00000000000E+00  0.00000000000E+00  0.57904906048E+03  0.58633349836E+03  0.92136620614E+02 0.  0.
          2    1    3    3  502    0 -0.16407204914E+02 -0.32631895622E+02  0.46819181266E+03  0.46961432094E+03  0.00000000000E+00 0. -1.
         -2    1    3    3    0  502  0.16407204914E+02  0.32631895622E+02  0.11085724781E+03  0.11671917742E+03  0.00000000000E+00 0.  1.
<mgrwt>
<rscale>  0 0.92136621E+02</rscale>
<asrwt>0</asrwt>
<pdfrwt beam="1">  1        2 0.89644738E-01 0.92136621E+02</pdfrwt>
<pdfrwt beam="2">  1       -2 0.56034184E-03 0.92136621E+02</pdfrwt>
<totfact> 0.21976979E+05</totfact>
</mgrwt>
</event>
<event>
 5    1  0.4006808E+001  0.8963430E+02  0.7546771E-02  0.1303740E+00
          3   -1    0    0  501    0  0.00000000000E+00  0.00000000000E+00  0.35317877475E+01  0.35317877475E+01  0.00000000000E+00 0. -1.
         -3   -1    0    0    0  501 -0.00000000000E+00 -0.00000000000E+00 -0.56871394475E+03  0.56871394475E+03  0.00000000000E+00 0.  1.
         23    2    1    2    0    0  0.00000000000E+00  0.00000000000E+00 -0.56518215700E+03  0.57224573250E+03  0.89634300173E+02 0.  0.
          2    1    3    3  502    0  0.29892292253E+02 -0.30713719934E+02 -0.19893694121E+03  0.20350132262E+03  0.00000000000E+00 0. -1.
         -2    1    3    3    0  502 -0.29892292253E+02  0.30713719934E+02 -0.36624521579E+03  0.36874440988E+03  0.00000000000E+00 0.  1.
<mgrwt>
<rscale>  0 0.89634300E+02</rscale>
<asrwt>0</asrwt>
<pdfrwt beam="1">  1        3 0.54335182E-03 0.89634300E+02</pdfrwt>
<pdfrwt beam="2">  1       -3 0.87494476E-01 0.89634300E+02</pdfrwt>
<totfact> 0.17019965E+04</totfact>
</mgrwt>
</event>
<event>
 5    1  0.4006808E+001  0.9115164E+02  0.7546771E-02  0.1300087E+00
          1   -1    0    0  501    0  0.00000000000E+00  0.00000000000E+00  0.66832875852E+03  0.66832875852E+03  0.00000000000E+00 0. -1.
         -1   -1    0    0    0  501 -0.00000000000E+00 -0.00000000000E+00 -0.31079846180E+01  0.31079846180E+01  0.00000000000E+00 0.  1.
         23    2    1    2    0    0  0.00000000000E+00  0.00000000000E+00  0.66522077391E+03  0.67143674314E+03  0.91151642909E+02 0.  0.
          2    1    3    3  502    0  0.21843213520E+02 -0.38705900310E+02  0.25825866166E+03  0.26205497327E+03  0.00000000000E+00 0.  1.
         -2    1    3    3    0  502 -0.21843213520E+02  0.38705900310E+02  0.40696211225E+03  0.40938176987E+03  0.00000000000E+00 0. -1.
<mgrwt>
<rscale>  0 0.91151643E+02</rscale>
<asrwt>0</asrwt>
<pdfrwt beam="1">  1        1 0.10281969E+00 0.91151643E+02</pdfrwt>
<pdfrwt beam="2">  1       -1 0.47815201E-03 0.91151643E+02</pdfrwt>
<totfact> 0.14226424E+05</totfact>
</mgrwt>
</event>
<event>
 5    1  0.4006808E+001  0.9630213E+02  0.7546771E-02  0.1288270E+00
          2   -1    0    0  501    0  0.00000000000E+00  0.00000000000E+00  0.12753303546E+03  0.12753303546E+03  0.00000000000E+00 0. -1.
         -2   -1    0    0    0  501 -0.00000000000E+00 -0.00000000000E+00 -0.18179798194E+02  0.18179798194E+02  0.00000000000E+00 0.  1.
         23    2    1    2    0    0  0.00000000000E+00  0.00000000000E+00  0.10935323726E+03  0.14571283365E+03  0.96302125578E+02 0.  0.
          2    1    3    3  502    0  0.29275326128E+02  0.24076169403E+02  0.99608174633E+02  0.10657624082E+03  0.00000000000E+00 0. -1.
         -2    1    3    3    0  502 -0.29275326128E+02 -0.24076169403E+02  0.97450626300E+01  0.39136592834E+02  0.00000000000E+00 0.  1.
<mgrwt>
<rscale>  0 0.96302126E+02</rscale>
<asrwt>0</asrwt>
<pdfrwt beam="1">  1        2 0.19620466E-01 0.96302126E+02</pdfrwt>
<pdfrwt beam="2">  1       -2 0.27968921E-02 0.96302126E+02</pdfrwt>
<totfact> 0.11401268E+05</totfact>
</mgrwt>
</event>
<event>
 5    1  0.4006808E+001  0.9300757E+02  0.7546771E-02  0.1295728E+00
         -3   -1    0    0    0  501 -0.00000000000E+00  0.00000000000E+00  0.83842003217E+01  0.83842003217E+01  0.00000000000E+00 0.  1.
          3   -1    0    0  501    0  0.00000000000E+00 -0.00000000000E+00 -0.25793777681E+03  0.25793777681E+03  0.00000000000E+00 0. -1.
         23    2    1    2    0    0  0.00000000000E+00  0.00000000000E+00 -0.24955357649E+03  0.26632197713E+03  0.93007569398E+02 0.  0.
          2    1    3    3  502    0  0.29421515801E+02 -0.43475320846E+01 -0.22408145996E+02  0.37237771607E+02  0.00000000000E+00 0.  1.
         -2    1    3    3    0  502 -0.29421515801E+02  0.43475320846E+01 -0.22714543049E+03  0.22908420553E+03  0.00000000000E+00 0. -1.
<mgrwt>
<rscale>  0 0.93007569E+02</rscale>
<asrwt>0</asrwt>
<pdfrwt beam="2">  1        3 0.39682732E-01 0.93007569E+02</pdfrwt>
<pdfrwt beam="1">  1       -3 0.12898771E-02 0.93007569E+02</pdfrwt>
<totfact> 0.24070973E+04</totfact>
</mgrwt>
</event>
<event>
 5    1  0.4006808E+001  0.8949548E+02  0.7546771E-02  0.1304078E+00
          3   -1    0    0  501    0  0.00000000000E+00  0.00000000000E+00  0.17754249890E+02  0.17754249890E+02  0.00000000000E+00 0. -1.
         -3   -1    0    0    0  501 -0.00000000000E+00 -0.00000000000E+00 -0.11278202052E+03  0.11278202052E+03  0.00000000000E+00 0.  1.
         23    2    1    2    0    0  0.00000000000E+00  0.00000000000E+00 -0.95027770634E+02  0.13053627041E+03  0.89495478668E+02 0.  0.
          2    1    3    3  502    0  0.19656077050E+02  0.38566067266E+02 -0.30969628445E+02  0.53224250068E+02  0.00000000000E+00 0. -1.
         -2    1    3    3    0  502 -0.19656077050E+02 -0.38566067266E+02 -0.64058142188E+02  0.77312020346E+02  0.00000000000E+00 0.  1.
<mgrwt>
<rscale>  0 0.89495479E+02</rscale>
<asrwt>0</asrwt>
<pdfrwt beam="1">  1        3 0.27314231E-02 0.89495479E+02</pdfrwt>
<pdfrwt beam="2">  1       -3 0.17351080E-01 0.89495479E+02</pdfrwt>
<totfact> 0.34223158E+04</totfact>
</mgrwt>
</event>
<event>
 5    1  0.4006808E+001  0.9046571E+02  0.7546771E-02  0.1301728E+00
         -1   -1    0    0    0  501 -0.00000000000E+00  0.00000000000E+00  0.11956723985E+01  0.11956723985E+01  0.00000000000E+00 0.  1.
          1   -1    0    0  501    0  0.00000000000E+00 -0.00000000000E+00 -0.17111804202E+04  0.17111804202E+04  0.00000000000E+00 0. -1.
         23    2    1    2    0    0  0.00000000000E+00  0.00000000000E+00 -0.17099847478E+04  0.17123760926E+04  0.90465710570E+02 0.  0.
          2    1    3    3  502    0  0.67705065779E+01  0.41200003199E+02 -0.11843318041E+04  0.11850675518E+04  0.00000000000E+00 0. -1.
         -2    1    3    3    0  502 -0.67705065779E+01 -0.41200003199E+02 -0.52565294366E+03  0.52730854080E+03  0.00000000000E+00 0.  1.
<mgrwt>
<rscale>  0 0.90465711E+02</rscale>
<asrwt>0</asrwt>
<pdfrwt beam="2">  1        1 0.26325794E+00 0.90465711E+02</pdfrwt>
<pdfrwt beam="1">  1       -1 0.18395001E-03 0.90465711E+02</pdfrwt>
<totfact> 0.99548433E+04</totfact>
</mgrwt>
</event>
<event>
 5    1  0.4006808E+001  0.9258249E+02  0.7546771E-02  0.1296716E+00
          2   -1    0    0  501    0  0.00000000000E+00  0.00000000000E+00  0.70487288758E+03  0.70487288758E+03  0.00000000000E+00 0. -1.
         -2   -1    0    0    0  501 -0.00000000000E+00 -0.00000000000E+00 -0.30400933522E+01  0.30400933522E+01  0.00000000000E+00 0.  1.
         23    2    1    2    0    0  0.00000000000E+00  0.00000000000E+00  0.70183279422E+03  0.70791298093E+03  0.92582490346E+02 0.  0.
          2    1    3    3  502    0 -0.23609573507E+02  0.84933663575E+01  0.64836905865E+03  0.64885436382E+03  0.00000000000E+00 0. -1.
         -2    1    3    3    0  502  0.23609573507E+02 -0.84933663575E+01  0.53463735577E+02  0.59058617111E+02  0.00000000000E+00 0.  1.
<mgrwt>
<rscale>  0 0.92582490E+02</rscale>
<asrwt>0</asrwt>
<pdfrwt beam="1">  1        2 0.10844185E+00 0.92582490E+02</pdfrwt>
<pdfrwt beam="2">  1       -2 0.46770723E-03 0.92582490E+02</pdfrwt>
<totfact> 0.22812106E+05</totfact>
</mgrwt>
</event>
<event>
 5    1  0.4006808E+001  0.8944729E+02  0.7546771E-02  0.1304196E+00
         -1   -1    0    0    0  501 -0.00000000000E+00  0.00000000000E+00  0.31055877968E+02  0.31055877968E+02  0.00000000000E+00 0.  1.
          1   -1    0    0  501    0  0.00000000000E+00 -0.00000000000E+00 -0.64406634984E+02  0.64406634984E+02  0.00000000000E+00 0. -1.
         23    2    1    2    0    0  0.00000000000E+00  0.00000000000E+00 -0.33350757016E+02  0.95462512953E+02  0.89447293898E+02 0.  0.
          2    1    3    3  502    0 -0.17570998696E+02 -0.19549251736E+02 -0.55292847547E+02  0.61222644736E+02  0.00000000000E+00 0. -1.
         -2    1    3    3    0  502  0.17570998696E+02  0.19549251736E+02  0.21942090531E+02  0.34239868217E+02  0.00000000000E+00 0.  1.
<mgrwt>
<rscale>  0 0.89447294E+02</rscale>
<asrwt>0</asrwt>
<pdfrwt beam="2">  1        1 0.99087131E-02 0.89447294E+02</pdfrwt>
<pdfrwt beam="1">  1       -1 0.47778274E-02 0.89447294E+02</pdfrwt>
<totfact> 0.10270237E+05</totfact>
</mgrwt>
</event>
<event>
 5    1  0.4006808E+001  0.1005521E+03  0.7546771E-02  0.1279139E+00
         -2   -1    0    0    0  501 -0.00000000000E+00  0.00000000000E+00  0.93953734394E+01  0.93953734394E+01  0.00000000000E+00 0.  1.
          2   -1    0    0  501    0  0.00000000000E+00 -0.00000000000E+00 -0.26903447365E+03  0.26903447365E+03  0.00000000000E+00 0. -1.
         23    2    1    2    0    0  0.00000000000E+00  0.00000000000E+00 -0.25963910022E+03  0.27842984709E+03  0.10055206309E+03 0.  0.
          2    1    3    3  502    0  0.97794152528E+01  0.37007385796E+02 -0.22007811219E+03  0.22338209201E+03  0.00000000000E+00 0. -1.
         -2    1    3    3    0  502 -0.97794152528E+01 -0.37007385796E+02 -0.39560988026E+02  0.55047755083E+02  0.00000000000E+00 0.  1.
<mgrwt>
<rscale>  0 0.10055206E+03</rscale>
<asrwt>0</asrwt>
<pdfrwt beam="2">  1        2 0.41389921E-01 0.10055206E+03</pdfrwt>
<pdfrwt beam="1">  1       -2 0.14454420E-02 0.10055206E+03</pdfrwt>
<totfact> 0.13257361E+05</totfact>
</mgrwt>
</event>
<event>
 5    1  0.4006808E+001  0.9143548E+02  0.7546771E-02  0.1299412E+00
          4   -1    0    0  501    0  0.00000000000E+00  0.00000000000E+00  0.23321065012E+02  0.23321065012E+02  0.00000000000E+00 0.  1.
         -4   -1    0    0    0  501 -0.00000000000E+00 -0.00000000000E+00 -0.89623331624E+02  0.89623331624E+02  0.00000000000E+00 0. -1.
         23    2    1    2    0    0  0.00000000000E+00  0.00000000000E+00 -0.66302266612E+02  0.11294439664E+03  0.91435475466E+02 0.  0.
          2    1    3    3  502    0 -0.59950648533E+01 -0.25093936968E+02  0.13469252581E+02  0.29104419600E+02  0.00000000000E+00 0.  1.
         -2    1    3    3    0  502  0.59950648533E+01  0.25093936968E+02 -0.79771519193E+02  0.83839977036E+02  0.00000000000E+00 0. -1.
<mgrwt>
<rscale>  0 0.91435475E+02</rscale>
<asrwt>0</asrwt>
<pdfrwt beam="1">  1        4 0.35878562E-02 0.91435475E+02</pdfrwt>
<pdfrwt beam="2">  1       -4 0.13788205E-01 0.91435475E+02</pdfrwt>
<totfact> 0.25482802E+04</totfact>
</mgrwt>
</event>
<event>
 5    1  0.4006808E+001  0.8348214E+02  0.7546771E-02  0.1319450E+00
          2   -1    0    0  501    0  0.00000000000E+00  0.00000000000E+00  0.36333486667E+03  0.36333486667E+03  0.00000000000E+00 0. -1.
         -2   -1    0    0    0  501 -0.00000000000E+00 -0.00000000000E+00 -0.47953474603E+01  0.47953474603E+01  0.00000000000E+00 0.  1.
         23    2    1    2    0    0  0.00000000000E+00  0.00000000000E+00  0.35853951921E+03  0.36813021413E+03  0.83482140129E+02 0.  0.
          2    1    3    3  502    0 -0.41311335970E+02  0.50669743185E+01  0.19322572408E+03  0.19765748444E+03  0.00000000000E+00 0. -1.
         -2    1    3    3    0  502  0.41311335970E+02 -0.50669743185E+01  0.16531379514E+03  0.17047272970E+03  0.00000000000E+00 0.  1.
<mgrwt>
<rscale>  0 0.83482140E+02</rscale>
<asrwt>0</asrwt>
<pdfrwt beam="1">  1        2 0.55897650E-01 0.83482140E+02</pdfrwt>
<pdfrwt beam="2">  1       -2 0.73774605E-03 0.83482140E+02</pdfrwt>
<totfact> 0.24345512E+05</totfact>
</mgrwt>
</event>
<event>
 5    1  0.4006808E+001  0.8905514E+02  0.7546771E-02  0.1305156E+00
         -1   -1    0    0    0  501 -0.00000000000E+00  0.00000000000E+00  0.46441892475E+01  0.46441892475E+01  0.00000000000E+00 0.  1.
          1   -1    0    0  501    0  0.00000000000E+00 -0.00000000000E+00 -0.42692151462E+03  0.42692151462E+03  0.00000000000E+00 0. -1.
         23    2    1    2    0    0  0.00000000000E+00  0.00000000000E+00 -0.42227732537E+03  0.43156570387E+03  0.89055135904E+02 0.  0.
          2    1    3    3  502    0 -0.31855441831E+02 -0.20022733752E+02 -0.32653423871E+03  0.32869482517E+03  0.00000000000E+00 0. -1.
         -2    1    3    3    0  502  0.31855441831E+02  0.20022733752E+02 -0.95743086663E+02  0.10287087870E+03  0.00000000000E+00 0.  1.
<mgrwt>
<rscale>  0 0.89055136E+02</rscale>
<asrwt>0</asrwt>
<pdfrwt beam="2">  1        1 0.65680230E-01 0.89055136E+02</pdfrwt>
<pdfrwt beam="1">  1       -1 0.71449068E-03 0.89055136E+02</pdfrwt>
<totfact> 0.14506457E+05</totfact>
</mgrwt>
</event>
<event>
 5    1  0.4006808E+001  0.8933989E+02  0.7546771E-02  0.1304458E+00
         -2   -1    0    0    0  501 -0.00000000000E+00  0.00000000000E+00  0.87613342607E+00  0.87613342607E+00  0.00000000000E+00 0.  1.
          2   -1    0    0  501    0  0.00000000000E+00 -0.00000000000E+00 -0.22775113830E+04  0.22775113830E+04  0.00000000000E+00 0. -1.
         23    2    1    2    0    0  0.00000000000E+00  0.00000000000E+00 -0.22766352496E+04  0.22783875165E+04  0.89339886969E+02 0.  0.
          2    1    3    3  502    0  0.12652943161E+01  0.43756510893E+02 -0.13652331756E+04  0.13659347924E+04  0.00000000000E+00 0. -1.
         -2    1    3    3    0  502 -0.12652943161E+01 -0.43756510893E+02 -0.91140207398E+03  0.91245272407E+03  0.00000000000E+00 0.  1.
<mgrwt>
<rscale>  0 0.89339887E+02</rscale>
<asrwt>0</asrwt>
<pdfrwt beam="2">  1        2 0.35038487E+00 0.89339887E+02</pdfrwt>
<pdfrwt beam="1">  1       -2 0.13479033E-03 0.89339887E+02</pdfrwt>
<totfact> 0.17978333E+05</totfact>
</mgrwt>
</event>
<event>
 5    1  0.4006808E+001  0.8207158E+02  0.7546771E-02  0.1323273E+00
         -2   -1    0    0    0  501 -0.00000000000E+00  0.00000000000E+00  0.32880942693E+03  0.32880942693E+03  0.00000000000E+00 0.  1.
          2   -1    0    0  501    0  0.00000000000E+00 -0.00000000000E+00 -0.51213127777E+01  0.51213127777E+01  0.00000000000E+00 0. -1.
         23    2    1    2    0    0  0.00000000000E+00  0.00000000000E+00  0.32368811415E+03  0.33393073971E+03  0.82071576555E+02 0.  0.
          2    1    3    3  502    0  0.11430503544E+02  0.30998414201E+02  0.62814914244E+02  0.70973738423E+02  0.00000000000E+00 0. -1.
         -2    1    3    3    0  502 -0.11430503544E+02 -0.30998414201E+02  0.26087319991E+03  0.26295700129E+03  0.00000000000E+00 0.  1.
<mgrwt>
<rscale>  0 0.82071577E+02</rscale>
<asrwt>0</asrwt>
<pdfrwt beam="2">  1        2 0.78789453E-03 0.82071577E+02</pdfrwt>
<pdfrwt beam="1">  1       -2 0.50586049E-01 0.82071577E+02</pdfrwt>
<totfact> 0.63378259E+04</totfact>
</mgrwt>
</event>
<event>
 5    1  0.4006808E+001  0.9774469E+02  0.7546771E-02  0.1285111E+00
         -1   -1    0    0    0  501 -0.00000000000E+00  0.00000000000E+00  0.34137710350E+02  0.34137710350E+02  0.00000000000E+00 0. -1.
          1   -1    0    0  501    0  0.00000000000E+00 -0.00000000000E+00 -0.69966791642E+02  0.69966791642E+02  0.00000000000E+00 0.  1.
         23    2    1    2    0    0  0.00000000000E+00  0.00000000000E+00 -0.35829081292E+02  0.10410450199E+03  0.97744689209E+02 0.  0.
          2    1    3    3  502    0  0.43903718316E+02  0.13741180768E+01 -0.40734831865E+02  0.59906186739E+02  0.00000000000E+00 0. -1.
         -2    1    3    3    0  502 -0.43903718316E+02 -0.13741180768E+01  0.49057505728E+01  0.44198315253E+02  0.00000000000E+00 0.  1.
<mgrwt>
<rscale>  0 0.97744689E+02</rscale>
<asrwt>0</asrwt>
<pdfrwt beam="2">  1        1 0.10764122E-01 0.97744689E+02</pdfrwt>
<pdfrwt beam="1">  1       -1 0.52519555E-02 0.97744689E+02</pdfrwt>
<totfact> 0.81347268E+04</totfact>
</mgrwt>
</event>
<event>
 5    1  0.4006808E+001  0.9218787E+02  0.7546771E-02  0.1297638E+00
         -2   -1    0    0    0  501 -0.00000000000E+00  0.00000000000E+00  0.11750559351E+04  0.11750559351E+04  0.00000000000E+00 0.  1.
          2   -1    0    0  501    0  0.00000000000E+00 -0.00000000000E+00 -0.18081275045E+01  0.18081275045E+01  0.00000000000E+00 0. -1.
         23    2    1    2    0    0  0.00000000000E+00  0.00000000000E+00  0.11732478076E+04  0.11768640626E+04  0.92187872425E+02 0.  0.
          2    1    3    3  502    0  0.11648091064E-01  0.41333103081E+02  0.32617843638E+03  0.32878685786E+03  0.00000000000E+00 0. -1.
         -2    1    3    3    0  502 -0.11648091064E-01 -0.41333103081E+02  0.84706937119E+03  0.84807720471E+03  0.00000000000E+00 0.  1.
<mgrwt>
<rscale>  0 0.92187872E+02</rscale>
<asrwt>0</asrwt>
<pdfrwt beam="2">  1        2 0.27817440E-03 0.92187872E+02</pdfrwt>
<pdfrwt beam="1">  1       -2 0.18077723E+00 0.92187872E+02</pdfrwt>
<totfact> 0.14848259E+04</totfact>
</mgrwt>
</event>
<event>
 5    1  0.4006808E+001  0.8654771E+02  0.7546771E-02  0.1311434E+00
          2   -1    0    0  501    0  0.00000000000E+00  0.00000000000E+00  0.13390000641E+03  0.13390000641E+03  0.00000000000E+00 0.  1.
         -2   -1    0    0    0  501 -0.00000000000E+00 -0.00000000000E+00 -0.13985262145E+02  0.13985262145E+02  0.00000000000E+00 0. -1.
         23    2    1    2    0    0  0.00000000000E+00  0.00000000000E+00  0.11991474426E+03  0.14788526855E+03  0.86547713797E+02 0.  0.
          2    1    3    3  502    0  0.64001786451E+01 -0.41289086275E+02  0.40710567395E+02  0.58336105713E+02  0.00000000000E+00 0. -1.
         -2    1    3    3    0  502 -0.64001786451E+01  0.41289086275E+02  0.79204176870E+02  0.89549162842E+02  0.00000000000E+00 0.  1.
<mgrwt>
<rscale>  0 0.86547714E+02</rscale>
<asrwt>0</asrwt>
<pdfrwt beam="1">  1        2 0.20600000E-01 0.86547714E+02</pdfrwt>
<pdfrwt beam="2">  1       -2 0.21515789E-02 0.86547714E+02</pdfrwt>
<totfact> 0.15501614E+05</totfact>
</mgrwt>
</event>
<event>
 5    1  0.4006808E+001  0.9210313E+02  0.7546771E-02  0.1297837E+00
          3   -1    0    0  501    0  0.00000000000E+00  0.00000000000E+00  0.11407493436E+02  0.11407493436E+02  0.00000000000E+00 0. -1.
         -3   -1    0    0    0  501 -0.00000000000E+00 -0.00000000000E+00 -0.18590819490E+03  0.18590819490E+03  0.00000000000E+00 0.  1.
         23    2    1    2    0    0  0.00000000000E+00  0.00000000000E+00 -0.17450070146E+03  0.19731568833E+03  0.92103127264E+02 0.  0.
          2    1    3    3  502    0 -0.14700736436E+02  0.14444760901E+02  0.97595265022E+00  0.20632868264E+02  0.00000000000E+00 0. -1.
         -2    1    3    3    0  502  0.14700736436E+02 -0.14444760901E+02 -0.17547665411E+03  0.17668282007E+03  0.00000000000E+00 0.  1.
<mgrwt>
<rscale>  0 0.92103127E+02</rscale>
<asrwt>0</asrwt>
<pdfrwt beam="1">  1        3 0.17549991E-02 0.92103127E+02</pdfrwt>
<pdfrwt beam="2">  1       -3 0.28601259E-01 0.92103127E+02</pdfrwt>
<totfact> 0.27864729E+04</totfact>
</mgrwt>
</event>
<event>
 5    1  0.4006808E+001  0.8974320E+02  0.7546771E-02  0.1303475E+00
         -4   -1    0    0    0  501 -0.00000000000E+00  0.00000000000E+00  0.10282811836E+02  0.10282811836E+02  0.00000000000E+00 0.  1.
          4   -1    0    0  501    0  0.00000000000E+00 -0.00000000000E+00 -0.19580834218E+03  0.19580834218E+03  0.00000000000E+00 0. -1.
         23    2    1    2    0    0  0.00000000000E+00  0.00000000000E+00 -0.18552553034E+03  0.20609115401E+03  0.89743196699E+02 0.  0.
          2    1    3    3  502    0 -0.11202463228E+02  0.42440201034E+02 -0.11415735178E+03  0.12230521988E+03  0.00000000000E+00 0. -1.
         -2    1    3    3    0  502  0.11202463228E+02 -0.42440201034E+02 -0.71368178566E+02  0.83785934130E+02  0.00000000000E+00 0.  1.
<mgrwt>
<rscale>  0 0.89743197E+02</rscale>
<asrwt>0</asrwt>
<pdfrwt beam="2">  1        4 0.30124360E-01 0.89743197E+02</pdfrwt>
<pdfrwt beam="1">  1       -4 0.15819711E-02 0.89743197E+02</pdfrwt>
<totfact> 0.22047410E+04</totfact>
</mgrwt>
</event>
<event>
 5    1  0.4006808E+001  0.9279601E+02  0.7546771E-02  0.1296219E+00
          3   -1    0    0  501    0  0.00000000000E+00  0.00000000000E+00  0.14629740770E+02  0.14629740770E+02  0.00000000000E+00 0. -1.
         -3   -1    0    0    0  501 -0.00000000000E+00 -0.00000000000E+00 -0.14715059109E+03  0.14715059109E+03  0.00000000000E+00 0.  1.
         23    2    1    2    0    0  0.00000000000E+00  0.00000000000E+00 -0.13252085032E+03  0.16178033186E+03  0.92796012884E+02 0.  0.
          2    1    3    3  502    0 -0.41723875155E+02 -0.20295150036E+02 -0.66240636773E+02  0.80873956457E+02  0.00000000000E+00 0. -1.
         -2    1    3    3    0  502  0.41723875155E+02  0.20295150036E+02 -0.66280213545E+02  0.80906375401E+02  0.00000000000E+00 0.  1.
<mgrwt>
<rscale>  0 0.92796013E+02</rscale>
<asrwt>0</asrwt>
<pdfrwt beam="1">  1        3 0.22507293E-02 0.92796013E+02</pdfrwt>
<pdfrwt beam="2">  1       -3 0.22638552E-01 0.92796013E+02</pdfrwt>
<totfact> 0.29175344E+04</totfact>
</mgrwt>
</event>
<event>
 5    1  0.4006808E+001  0.1015342E+03  0.7546771E-02  0.1277102E+00
         -1   -1    0    0    0  501 -0.00000000000E+00  0.00000000000E+00  0.34159652937E+01  0.34159652937E+01  0.00000000000E+00 0.  1.
          1   -1    0    0  501    0  0.00000000000E+00 -0.00000000000E+00 -0.75448592580E+03  0.75448592580E+03  0.00000000000E+00 0. -1.
         23    2    1    2    0    0  0.00000000000E+00  0.00000000000E+00 -0.75106996051E+03  0.75790189110E+03  0.10153418611E+03 0.  0.
          2    1    3    3  502    0 -0.33828021174E+02  0.31933126820E+02 -0.52727526465E+03  0.52932340239E+03  0.00000000000E+00 0. -1.
         -2    1    3    3    0  502  0.33828021174E+02 -0.31933126820E+02 -0.22379469586E+03  0.22857848871E+03  0.00000000000E+00 0.  1.
<mgrwt>
<rscale>  0 0.10153419E+03</rscale>
<asrwt>0</asrwt>
<pdfrwt beam="2">  1        1 0.11607478E+00 0.10153419E+03</pdfrwt>
<pdfrwt beam="1">  1       -1 0.52553301E-03 0.10153419E+03</pdfrwt>
<totfact> 0.10657941E+05</totfact>
</mgrwt>
</event>
<event>
 5    1  0.4006808E+001  0.9097416E+02  0.7546771E-02  0.1300510E+00
          1   -1    0    0  501    0  0.00000000000E+00  0.00000000000E+00  0.97515385612E+01  0.97515385612E+01  0.00000000000E+00 0. -1.
         -1   -1    0    0    0  501 -0.00000000000E+00 -0.00000000000E+00 -0.21217928637E+03  0.21217928637E+03  0.00000000000E+00 0.  1.
         23    2    1    2    0    0  0.00000000000E+00  0.00000000000E+00 -0.20242774781E+03  0.22193082493E+03  0.90974161011E+02 0.  0.
          2    1    3    3  502    0 -0.44346483923E+02  0.60040532243E+00 -0.76563721619E+02  0.88481492930E+02  0.00000000000E+00 0. -1.
         -2    1    3    3    0  502  0.44346483923E+02 -0.60040532243E+00 -0.12586402619E+03  0.13344933200E+03  0.00000000000E+00 0.  1.
<mgrwt>
<rscale>  0 0.90974161E+02</rscale>
<asrwt>0</asrwt>
<pdfrwt beam="1">  1        1 0.15002367E-02 0.90974161E+02</pdfrwt>
<pdfrwt beam="2">  1       -1 0.32642967E-01 0.90974161E+02</pdfrwt>
<totfact> 0.68632270E+04</totfact>
</mgrwt>
</event>
<event>
 5    1  0.4006808E+001  0.9103702E+02  0.7546771E-02  0.1300360E+00
          2   -1    0    0  501    0  0.00000000000E+00  0.00000000000E+00  0.65821309011E+01  0.65821309011E+01  0.00000000000E+00 0. -1.
         -2   -1    0    0    0  501 -0.00000000000E+00 -0.00000000000E+00 -0.31478178026E+03  0.31478178026E+03  0.00000000000E+00 0.  1.
         23    2    1    2    0    0  0.00000000000E+00  0.00000000000E+00 -0.30819964936E+03  0.32136391116E+03  0.91037022863E+02 0.  0.
          2    1    3    3  502    0  0.15575523443E+02  0.36251631048E+02 -0.73978348162E+02  0.83842552925E+02  0.00000000000E+00 0. -1.
         -2    1    3    3    0  502 -0.15575523443E+02 -0.36251631048E+02 -0.23422130120E+03  0.23752135824E+03  0.00000000000E+00 0.  1.
<mgrwt>
<rscale>  0 0.91037023E+02</rscale>
<asrwt>0</asrwt>
<pdfrwt beam="1">  1        2 0.10126354E-02 0.91037023E+02</pdfrwt>
<pdfrwt beam="2">  1       -2 0.48427972E-01 0.91037023E+02</pdfrwt>
<totfact> 0.49815882E+04</totfact>
</mgrwt>
</event>
<event>
 5    1  0.4006808E+001  0.6974090E+02  0.7546771E-02  0.1360976E+00
          2   -1    0    0  501    0  0.00000000000E+00  0.00000000000E+00  0.13907718466E+04  0.13907718466E+04  0.00000000000E+00 0. -1.
         -2   -1    0    0    0  501 -0.00000000000E+00 -0.00000000000E+00 -0.87429740596E+00  0.87429740596E+00  0.00000000000E+00 0.  1.
         23    2    1    2    0    0  0.00000000000E+00  0.00000000000E+00  0.13898975492E+04  0.13916461440E+04  0.69740898124E+02 0.  0.
          2    1    3    3  502    0  0.16215696407E+02  0.29789107334E+02  0.53331902036E+03  0.53439640456E+03  0.00000000000E+00 0. -1.
         -2    1    3    3    0  502 -0.16215696407E+02 -0.29789107334E+02  0.85657852886E+03  0.85724973947E+03  0.00000000000E+00 0.  1.
<mgrwt>
<rscale>  0 0.69740898E+02</rscale>
<asrwt>0</asrwt>
<pdfrwt beam="1">  1        2 0.21396313E+00 0.69740898E+02</pdfrwt>
<pdfrwt beam="2">  1       -2 0.13450841E-03 0.69740898E+02</pdfrwt>
<totfact> 0.48534139E+05</totfact>
</mgrwt>
</event>
<event>
 5    1  0.4006808E+001  0.8914887E+02  0.7546771E-02  0.1304926E+00
          3   -1    0    0  501    0  0.00000000000E+00  0.00000000000E+00  0.13373755159E+03  0.13373755159E+03  0.00000000000E+00 0. -1.
         -3   -1    0    0    0  501 -0.00000000000E+00 -0.00000000000E+00 -0.14856562789E+02  0.14856562789E+02  0.00000000000E+00 0.  1.
         23    2    1    2    0    0  0.00000000000E+00  0.00000000000E+00  0.11888098880E+03  0.14859411438E+03  0.89148871723E+02 0.  0.
          2    1    3    3  502    0  0.11655775870E+02 -0.18647873503E+02 -0.51852712904E+01  0.22593966798E+02  0.00000000000E+00 0.  1.
         -2    1    3    3    0  502 -0.11655775870E+02  0.18647873503E+02  0.12406626009E+03  0.12600014758E+03  0.00000000000E+00 0. -1.
<mgrwt>
<rscale>  0 0.89148872E+02</rscale>
<asrwt>0</asrwt>
<pdfrwt beam="1">  1        3 0.20575007E-01 0.89148872E+02</pdfrwt>
<pdfrwt beam="2">  1       -3 0.22856251E-02 0.89148872E+02</pdfrwt>
<totfact> 0.33359586E+04</totfact>
</mgrwt>
</event>
<event>
 5    1  0.4006808E+001  0.9042774E+02  0.7546771E-02  0.1301819E+00
          2   -1    0    0  501    0  0.00000000000E+00  0.00000000000E+00  0.15403069770E+03  0.15403069770E+03  0.00000000000E+00 0. -1.
         -2   -1    0    0    0  501 -0.00000000000E+00 -0.00000000000E+00 -0.13271990754E+02  0.13271990754E+02  0.00000000000E+00 0.  1.
         23    2    1    2    0    0  0.00000000000E+00  0.00000000000E+00  0.14075870694E+03  0.16730268845E+03  0.90427739012E+02 0.  0.
          2    1    3    3  502    0 -0.66940909115E+01 -0.44114094142E+02  0.83902980570E+02  0.95029333911E+02  0.00000000000E+00 0. -1.
         -2    1    3    3    0  502  0.66940909115E+01  0.44114094142E+02  0.56855726372E+02  0.72273354539E+02  0.00000000000E+00 0.  1.
<mgrwt>
<rscale>  0 0.90427739E+02</rscale>
<asrwt>0</asrwt>
<pdfrwt beam="1">  1        2 0.23697029E-01 0.90427739E+02</pdfrwt>
<pdfrwt beam="2">  1       -2 0.20418448E-02 0.90427739E+02</pdfrwt>
<totfact> 0.14426902E+05</totfact>
</mgrwt>
</event>
<event>
 5    1  0.4006808E+001  0.9440942E+02  0.7546771E-02  0.1292512E+00
          1   -1    0    0  501    0  0.00000000000E+00  0.00000000000E+00  0.54951673018E+02  0.54951673018E+02  0.00000000000E+00 0. -1.
         -1   -1    0    0    0  501 -0.00000000000E+00 -0.00000000000E+00 -0.40549895541E+02  0.40549895541E+02  0.00000000000E+00 0.  1.
         23    2    1    2    0    0  0.00000000000E+00  0.00000000000E+00  0.14401777477E+02  0.95501568559E+02  0.94409419036E+02 0.  0.
          2    1    3    3  502    0  0.94246432675E+00  0.45823983684E+02  0.18625739347E+02  0.49473668611E+02  0.00000000000E+00 0. -1.
         -2    1    3    3    0  502 -0.94246432675E+00 -0.45823983684E+02 -0.42239618699E+01  0.46027899947E+02  0.00000000000E+00 0.  1.
<mgrwt>
<rscale>  0 0.94409419E+02</rscale>
<asrwt>0</asrwt>
<pdfrwt beam="1">  1        1 0.84541035E-02 0.94409419E+02</pdfrwt>
<pdfrwt beam="2">  1       -1 0.62384455E-02 0.94409419E+02</pdfrwt>
<totfact> 0.86282199E+04</totfact>
</mgrwt>
</event>
<event>
 5    1  0.4006808E+001  0.9117192E+02  0.7546771E-02  0.1300038E+00
         -4   -1    0    0    0  501 -0.00000000000E+00  0.00000000000E+00  0.24017969470E+01  0.24017969470E+01  0.00000000000E+00 0.  1.
          4   -1    0    0  501    0  0.00000000000E+00 -0.00000000000E+00 -0.86521875027E+03  0.86521875027E+03  0.00000000000E+00 0. -1.
         23    2    1    2    0    0  0.00000000000E+00  0.00000000000E+00 -0.86281695332E+03  0.86762054721E+03  0.91171920082E+02 0.  0.
          2    1    3    3  502    0  0.30828446628E+02  0.16906092931E+02 -0.15529257874E+03  0.15922309541E+03  0.00000000000E+00 0.  1.
         -2    1    3    3    0  502 -0.30828446628E+02 -0.16906092931E+02 -0.70752437458E+03  0.70839745181E+03  0.00000000000E+00 0. -1.
<mgrwt>
<rscale>  0 0.91171920E+02</rscale>
<asrwt>0</asrwt>
<pdfrwt beam="2">  1        4 0.13311033E+00 0.91171920E+02</pdfrwt>
<pdfrwt beam="1">  1       -4 0.36950790E-03 0.91171920E+02</pdfrwt>
<totfact> 0.82423133E+03</totfact>
</mgrwt>
</event>
<event>
 5    1  0.4006808E+001  0.8655462E+02  0.7546771E-02  0.1311416E+00
          2   -1    0    0  501    0  0.00000000000E+00  0.00000000000E+00  0.11780354594E+01  0.11780354594E+01  0.00000000000E+00 0. -1.
         -2   -1    0    0    0  501 -0.00000000000E+00 -0.00000000000E+00 -0.15898720144E+04  0.15898720144E+04  0.00000000000E+00 0.  1.
         23    2    1    2    0    0  0.00000000000E+00  0.00000000000E+00 -0.15886939789E+04  0.15910500499E+04  0.86554621111E+02 0.  0.
          2    1    3    3  502    0  0.13355273579E+02 -0.23471072613E+02 -0.17269956102E+03  0.17479814919E+03  0.00000000000E+00 0. -1.
         -2    1    3    3    0  502 -0.13355273579E+02  0.23471072613E+02 -0.14159944179E+04  0.14162519007E+04  0.00000000000E+00 0.  1.
<mgrwt>
<rscale>  0 0.86554621E+02</rscale>
<asrwt>0</asrwt>
<pdfrwt beam="1">  1        2 0.18123655E-03 0.86554621E+02</pdfrwt>
<pdfrwt beam="2">  1       -2 0.24459526E+00 0.86554621E+02</pdfrwt>
<totfact> 0.10961236E+04</totfact>
</mgrwt>
</event>
<event>
 5    1  0.4006808E+001  0.1121663E+03  0.7546771E-02  0.1256610E+00
         -1   -1    0    0    0  501 -0.00000000000E+00  0.00000000000E+00  0.63136193085E+01  0.63136193085E+01  0.00000000000E+00 0.  1.
          1   -1    0    0  501    0  0.00000000000E+00 -0.00000000000E+00 -0.49817979610E+03  0.49817979610E+03  0.00000000000E+00 0. -1.
         23    2    1    2    0    0  0.00000000000E+00  0.00000000000E+00 -0.49186617679E+03  0.50449341541E+03  0.11216626195E+03 0.  0.
          2    1    3    3  502    0  0.55899949656E+02  0.14174849372E+01 -0.26528061341E+03  0.27110997304E+03  0.00000000000E+00 0. -1.
         -2    1    3    3    0  502 -0.55899949656E+02 -0.14174849372E+01 -0.22658556339E+03  0.23338344237E+03  0.00000000000E+00 0.  1.
<mgrwt>
<rscale>  0 0.11216626E+03</rscale>
<asrwt>0</asrwt>
<pdfrwt beam="2">  1        1 0.76643089E-01 0.11216626E+03</pdfrwt>
<pdfrwt beam="1">  1       -1 0.97132550E-03 0.11216626E+03</pdfrwt>
<totfact> 0.79936395E+04</totfact>
</mgrwt>
</event>
<event>
 5    1  0.4006808E+001  0.1037739E+03  0.7546771E-02  0.1272554E+00
         -1   -1    0    0    0  501 -0.00000000000E+00  0.00000000000E+00  0.67529879471E+03  0.67529879471E+03  0.00000000000E+00 0.  1.
          1   -1    0    0  501    0  0.00000000000E+00 -0.00000000000E+00 -0.39867604479E+01  0.39867604479E+01  0.00000000000E+00 0. -1.
         23    2    1    2    0    0  0.00000000000E+00  0.00000000000E+00  0.67131203426E+03  0.67928555516E+03  0.10377387967E+03 0.  0.
          2    1    3    3  502    0  0.48967684393E+02 -0.61681349250E+01  0.23084624955E+03  0.23606327740E+03  0.00000000000E+00 0. -1.
         -2    1    3    3    0  502 -0.48967684393E+02  0.61681349250E+01  0.44046578471E+03  0.44322227776E+03  0.00000000000E+00 0.  1.
<mgrwt>
<rscale>  0 0.10377388E+03</rscale>
<asrwt>0</asrwt>
<pdfrwt beam="2">  1        1 0.61334830E-03 0.10377388E+03</pdfrwt>
<pdfrwt beam="1">  1       -1 0.10389203E+00 0.10377388E+03</pdfrwt>
<totfact> 0.26980242E+04</totfact>
</mgrwt>
</event>
<event>
 5    1  0.4006808E+001  0.9262411E+02  0.7546771E-02  0.1296619E+00
          2   -1    0    0  501    0  0.00000000000E+00  0.00000000000E+00  0.35128305283E+04  0.35128305283E+04  0.00000000000E+00 0. -1.
         -2   -1    0    0    0  501 -0.00000000000E+00 -0.00000000000E+00 -0.61056360970E+00  0.61056360970E+00  0.00000000000E+00 0.  1.
         23    2    1    2    0    0  0.00000000000E+00  0.00000000000E+00  0.35122199647E+04  0.35134410919E+04  0.92624111064E+02 0.  0.
          2    1    3    3  502    0 -0.36228729840E+02  0.19674691623E+02  0.25564644309E+04  0.25567968243E+04  0.00000000000E+00 0. -1.
         -2    1    3    3    0  502  0.36228729840E+02 -0.19674691623E+02  0.95575553377E+03  0.95664426758E+03  0.00000000000E+00 0.  1.
<mgrwt>
<rscale>  0 0.92624111E+02</rscale>
<asrwt>0</asrwt>
<pdfrwt beam="1">  1        2 0.54041928E+00 0.92624111E+02</pdfrwt>
<pdfrwt beam="2">  1       -2 0.93935676E-04 0.92624111E+02</pdfrwt>
<totfact> 0.59603344E+04</totfact>
</mgrwt>
</event>
<event>
 5    1  0.4006808E+001  0.8680964E+02  0.7546771E-02  0.1310767E+00
          2   -1    0    0  501    0  0.00000000000E+00  0.00000000000E+00  0.83273359076E+03  0.83273359076E+03  0.00000000000E+00 0. -1.
         -2   -1    0    0    0  501 -0.00000000000E+00 -0.00000000000E+00 -0.22624023973E+01  0.22624023973E+01  0.00000000000E+00 0.  1.
         23    2    1    2    0    0  0.00000000000E+00  0.00000000000E+00  0.83047118836E+03  0.83499599315E+03  0.86809641677E+02 0.  0.
          2    1    3    3  502    0  0.22831019745E+02 -0.33780476036E+02  0.55842263206E+03  0.55990911050E+03  0.00000000000E+00 0. -1.
         -2    1    3    3    0  502 -0.22831019745E+02  0.33780476036E+02  0.27204855630E+03  0.27508688265E+03  0.00000000000E+00 0.  1.
<mgrwt>
<rscale>  0 0.86809642E+02</rscale>
<asrwt>0</asrwt>
<pdfrwt beam="1">  1        2 0.12811262E+00 0.86809642E+02</pdfrwt>
<pdfrwt beam="2">  1       -2 0.34806257E-03 0.86809642E+02</pdfrwt>
<totfact> 0.27914626E+05</totfact>
</mgrwt>
</event>
<event>
 5    1  0.4006808E+001  0.9080334E+02  0.7546771E-02  0.1300918E+00
          2   -1    0    0  501    0  0.00000000000E+00  0.00000000000E+00  0.25212814500E+03  0.25212814500E+03  0.00000000000E+00 0. -1.
         -2   -1    0    0    0  501 -0.00000000000E+00 -0.00000000000E+00 -0.81756498625E+01  0.81756498625E+01  0.00000000000E+00 0.  1.
         23    2    1    2    0    0  0.00000000000E+00  0.00000000000E+00  0.24395249514E+03  0.26030379486E+03  0.90803335489E+02 0.  0.
          2    1    3    3  502    0  0.10132230867E+02  0.41312978041E+02  0.76479355848E+02  0.87512948344E+02  0.00000000000E+00 0. -1.
         -2    1    3    3    0  502 -0.10132230867E+02 -0.41312978041E+02  0.16747313929E+03  0.17279084652E+03  0.00000000000E+00 0.  1.
<mgrwt>
<rscale>  0 0.90803335E+02</rscale>
<asrwt>0</asrwt>
<pdfrwt beam="1">  1        2 0.38788939E-01 0.90803335E+02</pdfrwt>
<pdfrwt beam="2">  1       -2 0.12577925E-02 0.90803335E+02</pdfrwt>
<totfact> 0.17024816E+05</totfact>
</mgrwt>
</event>
<event>
 5    1  0.4006808E+001  0.8061844E+02  0.7546771E-02  0.1327306E+00
          1   -1    0    0  501    0  0.00000000000E+00  0.00000000000E+00  0.31869348022E+04  0.31869348022E+04  0.00000000000E+00 0.  1.
         -1   -1    0    0    0  501 -0.00000000000E+00 -0.00000000000E+00 -0.50984198249E+00  0.50984198249E+00  0.00000000000E+00 0. -1.
         23    2    1    2    0    0  0.00000000000E+00  0.00000000000E+00  0.31864249602E+04  0.31874446441E+04  0.80618438526E+02 0.  0.
          2    1    3    3  502    0 -0.87057667336E+01  0.38763787990E+02  0.18625650869E+04  0.18629887613E+04  0.00000000000E+00 0. -1.
         -2    1    3    3    0  502  0.87057667336E+01 -0.38763787990E+02  0.13238598733E+04  0.13244558829E+04  0.00000000000E+00 0.  1.
<mgrwt>
<rscale>  0 0.80618439E+02</rscale>
<asrwt>0</asrwt>
<pdfrwt beam="1">  1        1 0.49028171E+00 0.80618439E+02</pdfrwt>
<pdfrwt beam="2">  1       -1 0.78439780E-04 0.80618439E+02</pdfrwt>
<totfact> 0.35312820E+04</totfact>
</mgrwt>
</event>
<event>
 5    1  0.4006808E+001  0.9065473E+02  0.7546771E-02  0.1301274E+00
         -1   -1    0    0    0  501 -0.00000000000E+00  0.00000000000E+00  0.34694532648E+01  0.34694532648E+01  0.00000000000E+00 0.  1.
          1   -1    0    0  501    0  0.00000000000E+00 -0.00000000000E+00 -0.59218839362E+03  0.59218839362E+03  0.00000000000E+00 0. -1.
         23    2    1    2    0    0  0.00000000000E+00  0.00000000000E+00 -0.58871894035E+03  0.59565784688E+03  0.90654728627E+02 0.  0.
          2    1    3    3  502    0  0.36379424180E+02 -0.21483831394E+02 -0.18648267415E+03  0.19120880020E+03  0.00000000000E+00 0.  1.
         -2    1    3    3    0  502 -0.36379424180E+02  0.21483831394E+02 -0.40223626621E+03  0.40444904669E+03  0.00000000000E+00 0. -1.
<mgrwt>
<rscale>  0 0.90654729E+02</rscale>
<asrwt>0</asrwt>
<pdfrwt beam="2">  1        1 0.91105912E-01 0.90654729E+02</pdfrwt>
<pdfrwt beam="1">  1       -1 0.53376201E-03 0.90654729E+02</pdfrwt>
<totfact> 0.14363789E+05</totfact>
</mgrwt>
</event>
<event>
 5    1  0.4006808E+001  0.9041517E+02  0.7546771E-02  0.1301849E+00
         -2   -1    0    0    0  501 -0.00000000000E+00  0.00000000000E+00  0.60925754311E+02  0.60925754311E+02  0.00000000000E+00 0.  1.
          2   -1    0    0  501    0  0.00000000000E+00 -0.00000000000E+00 -0.33544532537E+02  0.33544532537E+02  0.00000000000E+00 0. -1.
         23    2    1    2    0    0  0.00000000000E+00  0.00000000000E+00  0.27381221774E+02  0.94470286847E+02  0.90415174563E+02 0.  0.
          2    1    3    3  502    0  0.22995772744E+02  0.28544285446E+02 -0.13956365513E+02  0.39221957295E+02  0.00000000000E+00 0. -1.
         -2    1    3    3    0  502 -0.22995772744E+02 -0.28544285446E+02  0.41337587287E+02  0.55248329553E+02  0.00000000000E+00 0.  1.
<mgrwt>
<rscale>  0 0.90415175E+02</rscale>
<asrwt>0</asrwt>
<pdfrwt beam="2">  1        2 0.51606973E-02 0.90415175E+02</pdfrwt>
<pdfrwt beam="1">  1       -2 0.93731930E-02 0.90415175E+02</pdfrwt>
<totfact> 0.93389221E+04</totfact>
</mgrwt>
</event>
<event>
 5    1  0.4006808E+001  0.9214318E+02  0.7546771E-02  0.1297743E+00
         -3   -1    0    0    0  501 -0.00000000000E+00  0.00000000000E+00  0.33276071954E+01  0.33276071954E+01  0.00000000000E+00 0.  1.
          3   -1    0    0  501    0  0.00000000000E+00 -0.00000000000E+00 -0.63787321443E+03  0.63787321443E+03  0.00000000000E+00 0. -1.
         23    2    1    2    0    0  0.00000000000E+00  0.00000000000E+00 -0.63454560723E+03  0.64120082162E+03  0.92143182017E+02 0.  0.
          2    1    3    3  502    0 -0.35449572343E+01 -0.45896699850E+02 -0.30422127305E+03  0.30768434597E+03  0.00000000000E+00 0. -1.
         -2    1    3    3    0  502  0.35449572343E+01  0.45896699850E+02 -0.33032433418E+03  0.33351647565E+03  0.00000000000E+00 0.  1.
<mgrwt>
<rscale>  0 0.92143182E+02</rscale>
<asrwt>0</asrwt>
<pdfrwt beam="2">  1        3 0.98134248E-01 0.92143182E+02</pdfrwt>
<pdfrwt beam="1">  1       -3 0.51194005E-03 0.92143182E+02</pdfrwt>
<totfact> 0.14530324E+04</totfact>
</mgrwt>
</event>
<event>
 5    1  0.4006808E+001  0.9130022E+02  0.7546771E-02  0.1299733E+00
         -2   -1    0    0    0  501 -0.00000000000E+00  0.00000000000E+00  0.19690899921E+02  0.19690899921E+02  0.00000000000E+00 0.  1.
          2   -1    0    0  501    0  0.00000000000E+00 -0.00000000000E+00 -0.10583225634E+03  0.10583225634E+03  0.00000000000E+00 0. -1.
         23    2    1    2    0    0  0.00000000000E+00  0.00000000000E+00 -0.86141356421E+02  0.12552315626E+03  0.91300216167E+02 0.  0.
          2    1    3    3  502    0  0.15366840425E+01  0.29124986926E+02  0.52115702019E+01  0.29627465724E+02  0.00000000000E+00 0.  1.
         -2    1    3    3    0  502 -0.15366840425E+01 -0.29124986926E+02 -0.91352926623E+02  0.95895690539E+02  0.00000000000E+00 0. -1.
<mgrwt>
<rscale>  0 0.91300216E+02</rscale>
<asrwt>0</asrwt>
<pdfrwt beam="2">  1        2 0.16281885E-01 0.91300216E+02</pdfrwt>
<pdfrwt beam="1">  1       -2 0.30293692E-02 0.91300216E+02</pdfrwt>
<totfact> 0.12436597E+05</totfact>
</mgrwt>
</event>
<event>
 5    1  0.4006808E+001  0.9025316E+02  0.7546771E-02  0.1302240E+00
         -2   -1    0    0    0  501 -0.00000000000E+00  0.00000000000E+00  0.18117132460E+01  0.18117132460E+01  0.00000000000E+00 0.  1.
          2   -1    0    0  501    0  0.00000000000E+00 -0.00000000000E+00 -0.11240234019E+04  0.11240234019E+04  0.00000000000E+00 0. -1.
         23    2    1    2    0    0  0.00000000000E+00  0.00000000000E+00 -0.11222116886E+04  0.11258351151E+04  0.90253156975E+02 0.  0.
          2    1    3    3  502    0 -0.15880686403E+02 -0.30244355956E+02 -0.19327775743E+03  0.19627330125E+03  0.00000000000E+00 0. -1.
         -2    1    3    3    0  502  0.15880686403E+02  0.30244355956E+02 -0.92893393119E+03  0.92956181385E+03  0.00000000000E+00 0.  1.
<mgrwt>
<rscale>  0 0.90253157E+02</rscale>
<asrwt>0</asrwt>
<pdfrwt beam="2">  1        2 0.17292649E+00 0.90253157E+02</pdfrwt>
<pdfrwt beam="1">  1       -2 0.27872541E-03 0.90253157E+02</pdfrwt>
<totfact> 0.25676206E+05</totfact>
</mgrwt>
</event>
<event>
 5    1  0.4006808E+001  0.9122653E+02  0.7546771E-02  0.1299908E+00
          2   -1    0    0  501    0  0.00000000000E+00  0.00000000000E+00  0.13168174055E+04  0.13168174055E+04  0.00000000000E+00 0.  1.
         -2   -1    0    0    0  501 -0.00000000000E+00 -0.00000000000E+00 -0.15799987034E+01  0.15799987034E+01  0.00000000000E+00 0. -1.
         23    2    1    2    0    0  0.00000000000E+00  0.00000000000E+00  0.13152374068E+04  0.13183974042E+04  0.91226526697E+02 0.  0.
          2    1    3    3  502    0 -0.27934126698E+02  0.26412751796E+02  0.30284837126E+03  0.30527870032E+03  0.00000000000E+00 0. -1.
         -2    1    3    3    0  502  0.27934126698E+02 -0.26412751796E+02  0.10123890355E+04  0.10131187039E+04  0.00000000000E+00 0.  1.
<mgrwt>
<rscale>  0 0.91226527E+02</rscale>
<asrwt>0</asrwt>
<pdfrwt beam="1">  1        2 0.20258642E+00 0.91226527E+02</pdfrwt>
<pdfrwt beam="2">  1       -2 0.24307778E-03 0.91226527E+02</pdfrwt>
<totfact> 0.24470726E+05</totfact>
</mgrwt>
</event>
<event>
 5    1  0.4006808E+001  0.9056209E+02  0.7546771E-02  0.1301496E+00
         -2   -1    0    0    0  501 -0.00000000000E+00  0.00000000000E+00  0.22754148432E+01  0.22754148432E+01  0.00000000000E+00 0. -1.
          2   -1    0    0  501    0  0.00000000000E+00 -0.00000000000E+00 -0.90109849936E+03  0.90109849936E+03  0.00000000000E+00 0.  1.
         23    2    1    2    0    0  0.00000000000E+00  0.00000000000E+00 -0.89882308452E+03  0.90337391420E+03  0.90562087003E+02 0.  0.
          2    1    3    3  502    0 -0.36189630634E+02 -0.17046433211E+02 -0.66104138459E+03  0.66225069452E+03  0.00000000000E+00 0. -1.
         -2    1    3    3    0  502  0.36189630634E+02  0.17046433211E+02 -0.23778169993E+03  0.24112321968E+03  0.00000000000E+00 0.  1.
<mgrwt>
<rscale>  0 0.90562087E+02</rscale>
<asrwt>0</asrwt>
<pdfrwt beam="2">  1        2 0.13863076E+00 0.90562087E+02</pdfrwt>
<pdfrwt beam="1">  1       -2 0.35006326E-03 0.90562087E+02</pdfrwt>
<totfact> 0.25243195E+05</totfact>
</mgrwt>
</event>
<event>
 5    1  0.4006808E+001  0.9194778E+02  0.7546771E-02  0.1298202E+00
          1   -1    0    0  501    0  0.00000000000E+00  0.00000000000E+00  0.20862696005E+02  0.20862696005E+02  0.00000000000E+00 0. -1.
         -1   -1    0    0    0  501 -0.00000000000E+00 -0.00000000000E+00 -0.10130994161E+03  0.10130994161E+03  0.00000000000E+00 0.  1.
         23    2    1    2    0    0  0.00000000000E+00  0.00000000000E+00 -0.80447245601E+02  0.12217263761E+03  0.91947778961E+02 0.  0.
          2    1    3    3  502    0 -0.28096690481E+02 -0.12613166107E+02 -0.85577148469E+02  0.90950339830E+02  0.00000000000E+00 0.  1.
         -2    1    3    3    0  502  0.28096690481E+02  0.12613166107E+02  0.51299028677E+01  0.31222297780E+02  0.00000000000E+00 0. -1.
<mgrwt>
<rscale>  0 0.91947779E+02</rscale>
<asrwt>0</asrwt>
<pdfrwt beam="1">  1        1 0.32096455E-02 0.91947779E+02</pdfrwt>
<pdfrwt beam="2">  1       -1 0.15586145E-01 0.91947779E+02</pdfrwt>
<totfact> 0.79429641E+04</totfact>
</mgrwt>
</event>
<event>
 5    1  0.4006808E+001  0.9168242E+02  0.7546771E-02  0.1298828E+00
         -1   -1    0    0    0  501 -0.00000000000E+00  0.00000000000E+00  0.46806824267E+01  0.46806824267E+01  0.00000000000E+00 0.  1.
          1   -1    0    0  501    0  0.00000000000E+00 -0.00000000000E+00 -0.44895512458E+03  0.44895512458E+03  0.00000000000E+00 0. -1.
         23    2    1    2    0    0  0.00000000000E+00  0.00000000000E+00 -0.44427444215E+03  0.45363580701E+03  0.91682416242E+02 0.  0.
          2    1    3    3  502    0  0.18856121988E+02  0.35861380608E+02 -0.32823768593E+03  0.33072884727E+03  0.00000000000E+00 0. -1.
         -2    1    3    3    0  502 -0.18856121988E+02 -0.35861380608E+02 -0.11603675622E+03  0.12290695973E+03  0.00000000000E+00 0.  1.
<mgrwt>
<rscale>  0 0.91682416E+02</rscale>
<asrwt>0</asrwt>
<pdfrwt beam="2">  1        1 0.69070014E-01 0.91682416E+02</pdfrwt>
<pdfrwt beam="1">  1       -1 0.72010505E-03 0.91682416E+02</pdfrwt>
<totfact> 0.13531108E+05</totfact>
</mgrwt>
</event>
<event>
 5    1  0.4006808E+001  0.7868603E+02  0.7546771E-02  0.1332822E+00
          2   -1    0    0  501    0  0.00000000000E+00  0.00000000000E+00  0.63055082753E+02  0.63055082753E+02  0.00000000000E+00 0.  1.
         -2   -1    0    0    0  501 -0.00000000000E+00 -0.00000000000E+00 -0.24547944778E+02  0.24547944778E+02  0.00000000000E+00 0. -1.
         23    2    1    2    0    0  0.00000000000E+00  0.00000000000E+00  0.38507137975E+02  0.87603027532E+02  0.78686026445E+02 0.  0.
          2    1    3    3  502    0  0.30394582740E+02 -0.48766595168E+01  0.46530234814E+02  0.55791354346E+02  0.00000000000E+00 0.  1.
         -2    1    3    3    0  502 -0.30394582740E+02  0.48766595168E+01 -0.80230968389E+01  0.31811673185E+02  0.00000000000E+00 0. -1.
<mgrwt>
<rscale>  0 0.78686026E+02</rscale>
<asrwt>0</asrwt>
<pdfrwt beam="1">  1        2 0.97007819E-02 0.78686026E+02</pdfrwt>
<pdfrwt beam="2">  1       -2 0.37766069E-02 0.78686026E+02</pdfrwt>
<totfact> 0.16182365E+05</totfact>
</mgrwt>
</event>
<event>
 5    1  0.4006808E+001  0.9045611E+02  0.7546771E-02  0.1301751E+00
         -1   -1    0    0    0  501 -0.00000000000E+00  0.00000000000E+00  0.26689579409E+01  0.26689579409E+01  0.00000000000E+00 0.  1.
          1   -1    0    0  501    0  0.00000000000E+00 -0.00000000000E+00 -0.76643284869E+03  0.76643284869E+03  0.00000000000E+00 0. -1.
         23    2    1    2    0    0  0.00000000000E+00  0.00000000000E+00 -0.76376389075E+03  0.76910180663E+03  0.90456111738E+02 0.  0.
          2    1    3    3  502    0 -0.34017087109E+02  0.29513620635E+02 -0.41730887593E+03  0.41973195488E+03  0.00000000000E+00 0. -1.
         -2    1    3    3    0  502  0.34017087109E+02 -0.29513620635E+02 -0.34645501483E+03  0.34936985176E+03  0.00000000000E+00 0.  1.
<mgrwt>
<rscale>  0 0.90456112E+02</rscale>
<asrwt>0</asrwt>
<pdfrwt beam="2">  1        1 0.11791292E+00 0.90456112E+02</pdfrwt>
<pdfrwt beam="1">  1       -1 0.41060830E-03 0.90456112E+02</pdfrwt>
<totfact> 0.14474914E+05</totfact>
</mgrwt>
</event>
<event>
 5    1  0.4006808E+001  0.9062646E+02  0.7546771E-02  0.1301342E+00
         -3   -1    0    0    0  501 -0.00000000000E+00  0.00000000000E+00  0.81791773663E+03  0.81791773663E+03  0.00000000000E+00 0.  1.
          3   -1    0    0  501    0  0.00000000000E+00 -0.00000000000E+00 -0.25103855535E+01  0.25103855535E+01  0.00000000000E+00 0. -1.
         23    2    1    2    0    0  0.00000000000E+00  0.00000000000E+00  0.81540735107E+03  0.82042812218E+03  0.90626461256E+02 0.  0.
          2    1    3    3  502    0 -0.41330360137E+01  0.37336435508E+02  0.17828973199E+03  0.18220406125E+03  0.00000000000E+00 0. -1.
         -2    1    3    3    0  502  0.41330360137E+01 -0.37336435508E+02  0.63711761908E+03  0.63822406093E+03  0.00000000000E+00 0.  1.
<mgrwt>
<rscale>  0 0.90626461E+02</rscale>
<asrwt>0</asrwt>
<pdfrwt beam="2">  1        3 0.38621381E-03 0.90626461E+02</pdfrwt>
<pdfrwt beam="1">  1       -3 0.12583329E+00 0.90626461E+02</pdfrwt>
<totfact> 0.12290975E+04</totfact>
</mgrwt>
</event>
<event>
 5    1  0.4006808E+001  0.9104869E+02  0.7546771E-02  0.1300332E+00
          3   -1    0    0  501    0  0.00000000000E+00  0.00000000000E+00  0.87059221927E+02  0.87059221927E+02  0.00000000000E+00 0. -1.
         -3   -1    0    0    0  501 -0.00000000000E+00 -0.00000000000E+00 -0.23805241407E+02  0.23805241407E+02  0.00000000000E+00 0.  1.
         23    2    1    2    0    0  0.00000000000E+00  0.00000000000E+00  0.63253980520E+02  0.11086446333E+03  0.91048685760E+02 0.  0.
          2    1    3    3  502    0  0.67464460764E+01 -0.40547094486E+02  0.78009151070E+01  0.41838208404E+02  0.00000000000E+00 0. -1.
         -2    1    3    3    0  502 -0.67464460764E+01  0.40547094486E+02  0.55453065413E+02  0.69026254930E+02  0.00000000000E+00 0.  1.
<mgrwt>
<rscale>  0 0.91048686E+02</rscale>
<asrwt>0</asrwt>
<pdfrwt beam="1">  1        3 0.13393726E-01 0.91048686E+02</pdfrwt>
<pdfrwt beam="2">  1       -3 0.36623449E-02 0.91048686E+02</pdfrwt>
<totfact> 0.34013166E+04</totfact>
</mgrwt>
</event>
<event>
 5    1  0.4006808E+001  0.9065153E+02  0.7546771E-02  0.1301282E+00
         -1   -1    0    0    0  501 -0.00000000000E+00  0.00000000000E+00  0.14537524775E+01  0.14537524775E+01  0.00000000000E+00 0.  1.
          1   -1    0    0  501    0  0.00000000000E+00 -0.00000000000E+00 -0.14131877206E+04  0.14131877206E+04  0.00000000000E+00 0. -1.
         23    2    1    2    0    0  0.00000000000E+00  0.00000000000E+00 -0.14117339681E+04  0.14146414731E+04  0.90651533908E+02 0.  0.
          2    1    3    3  502    0 -0.10020822002E+01 -0.42169164254E+02 -0.44699700530E+03  0.44898281184E+03  0.00000000000E+00 0.  1.
         -2    1    3    3    0  502  0.10020822002E+01  0.42169164254E+02 -0.96473696282E+03  0.96565866124E+03  0.00000000000E+00 0. -1.
<mgrwt>
<rscale>  0 0.90651534E+02</rscale>
<asrwt>0</asrwt>
<pdfrwt beam="2">  1        1 0.21741420E+00 0.90651534E+02</pdfrwt>
<pdfrwt beam="1">  1       -1 0.22365351E-03 0.90651534E+02</pdfrwt>
<totfact> 0.11744771E+05</totfact>
</mgrwt>
</event>
<event>
 5    1  0.4006808E+001  0.9252409E+02  0.7546771E-02  0.1296852E+00
          1   -1    0    0  501    0  0.00000000000E+00  0.00000000000E+00  0.54649501540E+03  0.54649501540E+03  0.00000000000E+00 0. -1.
         -1   -1    0    0    0  501 -0.00000000000E+00 -0.00000000000E+00 -0.39161869172E+01  0.39161869172E+01  0.00000000000E+00 0.  1.
         23    2    1    2    0    0  0.00000000000E+00  0.00000000000E+00  0.54257882848E+03  0.55041120232E+03  0.92524086153E+02 0.  0.
          2    1    3    3  502    0  0.34145394427E+02  0.21123600909E+02  0.40799144976E+03  0.40996236115E+03  0.00000000000E+00 0.  1.
         -2    1    3    3    0  502 -0.34145394427E+02 -0.21123600909E+02  0.13458737872E+03  0.14044884117E+03  0.00000000000E+00 0. -1.
<mgrwt>
<rscale>  0 0.92524086E+02</rscale>
<asrwt>0</asrwt>
<pdfrwt beam="1">  1        1 0.84076096E-01 0.92524086E+02</pdfrwt>
<pdfrwt beam="2">  1       -1 0.60249073E-03 0.92524086E+02</pdfrwt>
<totfact> 0.13521703E+05</totfact>
</mgrwt>
</event>
<event>
 5    1  0.4006808E+001  0.9064699E+02  0.7546771E-02  0.1301292E+00
          1   -1    0    0  501    0  0.00000000000E+00  0.00000000000E+00  0.11485442952E+03  0.11485442952E+03  0.00000000000E+00 0. -1.
         -1   -1    0    0    0  501 -0.00000000000E+00 -0.00000000000E+00 -0.17885414000E+02  0.17885414000E+02  0.00000000000E+00 0.  1.
         23    2    1    2    0    0  0.00000000000E+00  0.00000000000E+00  0.96969015516E+02  0.13273984352E+03  0.90646986087E+02 0.  0.
          2    1    3    3  502    0 -0.21538781290E+02 -0.13574479710E+02  0.10339378847E+03  0.10648221022E+03  0.00000000000E+00 0. -1.
         -2    1    3    3    0  502  0.21538781290E+02  0.13574479710E+02 -0.64247729549E+01  0.26257633297E+02  0.00000000000E+00 0.  1.
<mgrwt>
<rscale>  0 0.90646986E+02</rscale>
<asrwt>0</asrwt>
<pdfrwt beam="1">  1        1 0.17669912E-01 0.90646986E+02</pdfrwt>
<pdfrwt beam="2">  1       -1 0.27516022E-02 0.90646986E+02</pdfrwt>
<totfact> 0.10863017E+05</totfact>
</mgrwt>
</event>
<event>
 5    1  0.4006808E+001  0.9156424E+02  0.7546771E-02  0.1299107E+00
          1   -1    0    0  501    0  0.00000000000E+00  0.00000000000E+00  0.84236612624E+03  0.84236612624E+03  0.00000000000E+00 0. -1.
         -1   -1    0    0    0  501 -0.00000000000E+00 -0.00000000000E+00 -0.24882324385E+01  0.24882324385E+01  0.00000000000E+00 0.  1.
         23    2    1    2    0    0  0.00000000000E+00  0.00000000000E+00  0.83987789380E+03  0.84485435867E+03  0.91564244558E+02 0.  0.
          2    1    3    3  502    0 -0.35444633702E+02 -0.28489646621E+02  0.37109672599E+03  0.37387265488E+03  0.00000000000E+00 0. -1.
         -2    1    3    3    0  502  0.35444633702E+02  0.28489646621E+02  0.46878116780E+03  0.47098170380E+03  0.00000000000E+00 0.  1.
<mgrwt>
<rscale>  0 0.91564245E+02</rscale>
<asrwt>0</asrwt>
<pdfrwt beam="1">  1        1 0.12959456E+00 0.91564245E+02</pdfrwt>
<pdfrwt beam="2">  1       -1 0.38280566E-03 0.91564245E+02</pdfrwt>
<totfact> 0.13897117E+05</totfact>
</mgrwt>
</event>
<event>
 5    1  0.4006808E+001  0.9081981E+02  0.7546771E-02  0.1300878E+00
          1   -1    0    0  501    0  0.00000000000E+00  0.00000000000E+00  0.54396603781E+02  0.54396603781E+02  0.00000000000E+00 0. -1.
         -1   -1    0    0    0  501 -0.00000000000E+00 -0.00000000000E+00 -0.37907872459E+02  0.37907872459E+02  0.00000000000E+00 0.  1.
         23    2    1    2    0    0  0.00000000000E+00  0.00000000000E+00  0.16488731322E+02  0.92304476240E+02  0.90819811018E+02 0.  0.
          2    1    3    3  502    0  0.39369693149E+01  0.33384644997E+02 -0.22783793613E+02  0.40609549374E+02  0.00000000000E+00 0. -1.
         -2    1    3    3    0  502 -0.39369693149E+01 -0.33384644997E+02  0.39272524935E+02  0.51694926866E+02  0.00000000000E+00 0.  1.
<mgrwt>
<rscale>  0 0.90819811E+02</rscale>
<asrwt>0</asrwt>
<pdfrwt beam="1">  1        1 0.83687083E-02 0.90819811E+02</pdfrwt>
<pdfrwt beam="2">  1       -1 0.58319803E-02 0.90819811E+02</pdfrwt>
<totfact> 0.96000303E+04</totfact>
</mgrwt>
</event>
<event>
 5    1  0.4006808E+001  0.8687995E+02  0.7546771E-02  0.1310588E+00
          1   -1    0    0  501    0  0.00000000000E+00  0.00000000000E+00  0.73852259372E+01  0.73852259372E+01  0.00000000000E+00 0. -1.
         -1   -1    0    0    0  501 -0.00000000000E+00 -0.00000000000E+00 -0.25551436582E+03  0.25551436582E+03  0.00000000000E+00 0.  1.
         23    2    1    2    0    0  0.00000000000E+00  0.00000000000E+00 -0.24812913988E+03  0.26289959176E+03  0.86879947554E+02 0.  0.
          2    1    3    3  502    0  0.12217901071E+02  0.36361869958E+02 -0.62377841356E+02  0.73228804344E+02  0.00000000000E+00 0. -1.
         -2    1    3    3    0  502 -0.12217901071E+02 -0.36361869958E+02 -0.18575129852E+03  0.18967078741E+03  0.00000000000E+00 0.  1.
<mgrwt>
<rscale>  0 0.86879948E+02</rscale>
<asrwt>0</asrwt>
<pdfrwt beam="1">  1        1 0.11361885E-02 0.86879948E+02</pdfrwt>
<pdfrwt beam="2">  1       -1 0.39309905E-01 0.86879948E+02</pdfrwt>
<totfact> 0.72901574E+04</totfact>
</mgrwt>
</event>
<event>
 5    1  0.4006808E+001  0.9033428E+02  0.7546771E-02  0.1302044E+00
          1   -1    0    0  501    0  0.00000000000E+00  0.00000000000E+00  0.12919006449E+04  0.12919006449E+04  0.00000000000E+00 0. -1.
         -1   -1    0    0    0  501 -0.00000000000E+00 -0.00000000000E+00 -0.15791233759E+01  0.15791233759E+01  0.00000000000E+00 0.  1.
         23    2    1    2    0    0  0.00000000000E+00  0.00000000000E+00  0.12903215215E+04  0.12934797682E+04  0.90334279376E+02 0.  0.
          2    1    3    3  502    0 -0.87918855315E+01  0.38386230239E+02  0.32843629746E+03  0.33078875648E+03  0.00000000000E+00 0.  1.
         -2    1    3    3    0  502  0.87918855315E+01 -0.38386230239E+02  0.96188522402E+03  0.96269101175E+03  0.00000000000E+00 0. -1.
<mgrwt>
<rscale>  0 0.90334279E+02</rscale>
<asrwt>0</asrwt>
<pdfrwt beam="1">  1        1 0.19875310E+00 0.90334279E+02</pdfrwt>
<pdfrwt beam="2">  1       -1 0.24294309E-03 0.90334279E+02</pdfrwt>
<totfact> 0.12555469E+05</totfact>
</mgrwt>
</event>
<event>
 5    1  0.4006808E+001  0.8961788E+02  0.7546771E-02  0.1303780E+00
          2   -1    0    0  501    0  0.00000000000E+00  0.00000000000E+00  0.11368852523E+02  0.11368852523E+02  0.00000000000E+00 0. -1.
         -2   -1    0    0    0  501 -0.00000000000E+00 -0.00000000000E+00 -0.17660896245E+03  0.17660896245E+03  0.00000000000E+00 0.  1.
         23    2    1    2    0    0  0.00000000000E+00  0.00000000000E+00 -0.16524010993E+03  0.18797781498E+03  0.89617883223E+02 0.  0.
          2    1    3    3  502    0 -0.21242875050E+02  0.30325639015E+02 -0.29682948695E+02  0.47455047838E+02  0.00000000000E+00 0. -1.
         -2    1    3    3    0  502  0.21242875050E+02 -0.30325639015E+02 -0.13555716123E+03  0.14052276714E+03  0.00000000000E+00 0.  1.
<mgrwt>
<rscale>  0 0.89617883E+02</rscale>
<asrwt>0</asrwt>
<pdfrwt beam="1">  1        2 0.17490541E-02 0.89617883E+02</pdfrwt>
<pdfrwt beam="2">  1       -2 0.27170612E-01 0.89617883E+02</pdfrwt>
<totfact> 0.68577180E+04</totfact>
</mgrwt>
</event>
<event>
 5    1  0.4006808E+001  0.9245116E+02  0.7546771E-02  0.1297022E+00
         -2   -1    0    0    0  501 -0.00000000000E+00  0.00000000000E+00  0.17984138696E+03  0.17984138696E+03  0.00000000000E+00 0.  1.
          2   -1    0    0  501    0  0.00000000000E+00 -0.00000000000E+00 -0.11881604711E+02  0.11881604711E+02  0.00000000000E+00 0. -1.
         23    2    1    2    0    0  0.00000000000E+00  0.00000000000E+00  0.16795978225E+03  0.19172299167E+03  0.92451160525E+02 0.  0.
          2    1    3    3  502    0 -0.34128894004E+02  0.92236429179E+01  0.22219401246E+02  0.41755943126E+02  0.00000000000E+00 0. -1.
         -2    1    3    3    0  502  0.34128894004E+02 -0.92236429179E+01  0.14574038100E+03  0.14996704854E+03  0.00000000000E+00 0.  1.
<mgrwt>
<rscale>  0 0.92451161E+02</rscale>
<asrwt>0</asrwt>
<pdfrwt beam="2">  1        2 0.18279393E-02 0.92451161E+02</pdfrwt>
<pdfrwt beam="1">  1       -2 0.27667904E-01 0.92451161E+02</pdfrwt>
<totfact> 0.62892207E+04</totfact>
</mgrwt>
</event>
<event>
 5    1  0.4006808E+001  0.9287821E+02  0.7546771E-02  0.1296028E+00
         -2   -1    0    0    0  501 -0.00000000000E+00  0.00000000000E+00  0.17983160802E+02  0.17983160802E+02  0.00000000000E+00 0. -1.
          2   -1    0    0  501    0  0.00000000000E+00 -0.00000000000E+00 -0.11992275886E+03  0.11992275886E+03  0.00000000000E+00 0.  1.
         23    2    1    2    0    0  0.00000000000E+00  0.00000000000E+00 -0.10193959806E+03  0.13790591967E+03  0.92878205333E+02 0.  0.
          2    1    3    3  502    0 -0.32183906478E+02 -0.30277127692E+02 -0.29758298069E+02  0.53273488730E+02  0.00000000000E+00 0. -1.
         -2    1    3    3    0  502  0.32183906478E+02  0.30277127692E+02 -0.72181299993E+02  0.84632430937E+02  0.00000000000E+00 0.  1.
<mgrwt>
<rscale>  0 0.92878205E+02</rscale>
<asrwt>0</asrwt>
<pdfrwt beam="2">  1        2 0.18449656E-01 0.92878205E+02</pdfrwt>
<pdfrwt beam="1">  1       -2 0.27666401E-02 0.92878205E+02</pdfrwt>
<totfact> 0.12342422E+05</totfact>
</mgrwt>
</event>
<event>
 5    1  0.4006808E+001  0.8947368E+02  0.7546771E-02  0.1304131E+00
         -2   -1    0    0    0  501 -0.00000000000E+00  0.00000000000E+00  0.32409702859E+03  0.32409702859E+03  0.00000000000E+00 0.  1.
          2   -1    0    0  501    0  0.00000000000E+00 -0.00000000000E+00 -0.61752642092E+01  0.61752642092E+01  0.00000000000E+00 0. -1.
         23    2    1    2    0    0  0.00000000000E+00  0.00000000000E+00  0.31792176438E+03  0.33027229280E+03  0.89473678386E+02 0.  0.
          2    1    3    3  502    0 -0.19702764356E+02  0.11819649423E+02  0.17267610211E+02  0.28741492622E+02  0.00000000000E+00 0. -1.
         -2    1    3    3    0  502  0.19702764356E+02 -0.11819649423E+02  0.30065415417E+03  0.30153080018E+03  0.00000000000E+00 0.  1.
<mgrwt>
<rscale>  0 0.89473678E+02</rscale>
<asrwt>0</asrwt>
<pdfrwt beam="2">  1        2 0.95004090E-03 0.89473678E+02</pdfrwt>
<pdfrwt beam="1">  1       -2 0.49861068E-01 0.89473678E+02</pdfrwt>
<totfact> 0.51205929E+04</totfact>
</mgrwt>
</event>
<event>
 5    1  0.4006808E+001  0.9252345E+02  0.7546771E-02  0.1296853E+00
         -1   -1    0    0    0  501 -0.00000000000E+00  0.00000000000E+00  0.35256798961E+03  0.35256798961E+03  0.00000000000E+00 0.  1.
          1   -1    0    0  501    0  0.00000000000E+00 -0.00000000000E+00 -0.60701684427E+01  0.60701684427E+01  0.00000000000E+00 0. -1.
         23    2    1    2    0    0  0.00000000000E+00  0.00000000000E+00  0.34649782117E+03  0.35863815805E+03  0.92523447503E+02 0.  0.
          2    1    3    3  502    0 -0.41367876067E+02  0.11532043074E+02  0.23992133865E+03  0.24373456449E+03  0.00000000000E+00 0.  1.
         -2    1    3    3    0  502  0.41367876067E+02 -0.11532043074E+02  0.10657648252E+03  0.11490359356E+03  0.00000000000E+00 0. -1.
<mgrwt>
<rscale>  0 0.92523448E+02</rscale>
<asrwt>0</asrwt>
<pdfrwt beam="2">  1        1 0.93387234E-03 0.92523448E+02</pdfrwt>
<pdfrwt beam="1">  1       -1 0.54241213E-01 0.92523448E+02</pdfrwt>
<totfact> 0.54467126E+04</totfact>
</mgrwt>
</event>
<event>
 5    1  0.4006808E+001  0.9203760E+02  0.7546771E-02  0.1297991E+00
         -1   -1    0    0    0  501 -0.00000000000E+00  0.00000000000E+00  0.18386398077E+03  0.18386398077E+03  0.00000000000E+00 0.  1.
          1   -1    0    0  501    0  0.00000000000E+00 -0.00000000000E+00 -0.11517916472E+02  0.11517916472E+02  0.00000000000E+00 0. -1.
         23    2    1    2    0    0  0.00000000000E+00  0.00000000000E+00  0.17234606429E+03  0.19538189724E+03  0.92037600417E+02 0.  0.
          2    1    3    3  502    0 -0.21391192401E+02 -0.81169057162E+01  0.14114649397E+01  0.22922903482E+02  0.00000000000E+00 0. -1.
         -2    1    3    3    0  502  0.21391192401E+02  0.81169057162E+01  0.17093459936E+03  0.17245899376E+03  0.00000000000E+00 0.  1.
<mgrwt>
<rscale>  0 0.92037600E+02</rscale>
<asrwt>0</asrwt>
<pdfrwt beam="2">  1        1 0.17719873E-02 0.92037600E+02</pdfrwt>
<pdfrwt beam="1">  1       -1 0.28286764E-01 0.92037600E+02</pdfrwt>
<totfact> 0.69345898E+04</totfact>
</mgrwt>
</event>
<event>
 5    1  0.4006808E+001  0.9705675E+02  0.7546771E-02  0.1286610E+00
          1   -1    0    0  501    0  0.00000000000E+00  0.00000000000E+00  0.70922276269E+01  0.70922276269E+01  0.00000000000E+00 0. -1.
         -1   -1    0    0    0  501 -0.00000000000E+00 -0.00000000000E+00 -0.33205407887E+03  0.33205407887E+03  0.00000000000E+00 0.  1.
         23    2    1    2    0    0  0.00000000000E+00  0.00000000000E+00 -0.32496185125E+03  0.33914630650E+03  0.97056748592E+02 0.  0.
          2    1    3    3  502    0  0.38614671646E+02  0.23375107101E+01 -0.60100267443E+02  0.71474463757E+02  0.00000000000E+00 0. -1.
         -2    1    3    3    0  502 -0.38614671646E+02 -0.23375107101E+01 -0.26486158380E+03  0.26767184274E+03  0.00000000000E+00 0.  1.
<mgrwt>
<rscale>  0 0.97056749E+02</rscale>
<asrwt>0</asrwt>
<pdfrwt beam="1">  1        1 0.10911123E-02 0.97056749E+02</pdfrwt>
<pdfrwt beam="2">  1       -1 0.51085225E-01 0.97056749E+02</pdfrwt>
<totfact> 0.49322500E+04</totfact>
</mgrwt>
</event>
<event>
 5    1  0.4006808E+001  0.8968039E+02  0.7546771E-02  0.1303628E+00
         -2   -1    0    0    0  501 -0.00000000000E+00  0.00000000000E+00  0.31015790205E+01  0.31015790205E+01  0.00000000000E+00 0. -1.
          2   -1    0    0  501    0  0.00000000000E+00 -0.00000000000E+00 -0.64826434105E+03  0.64826434105E+03  0.00000000000E+00 0.  1.
         23    2    1    2    0    0  0.00000000000E+00  0.00000000000E+00 -0.64516276203E+03  0.65136592008E+03  0.89680389829E+02 0.  0.
          2    1    3    3  502    0  0.38513556482E+01  0.44070768013E+02 -0.26941722113E+03  0.27302509880E+03  0.00000000000E+00 0. -1.
         -2    1    3    3    0  502 -0.38513556482E+01 -0.44070768013E+02 -0.37574554090E+03  0.37834082127E+03  0.00000000000E+00 0.  1.
<mgrwt>
<rscale>  0 0.89680390E+02</rscale>
<asrwt>0</asrwt>
<pdfrwt beam="2">  1        2 0.99733003E-01 0.89680390E+02</pdfrwt>
<pdfrwt beam="1">  1       -2 0.47716587E-03 0.89680390E+02</pdfrwt>
<totfact> 0.24307111E+05</totfact>
</mgrwt>
</event>
<event>
 5    1  0.4006808E+001  0.9148488E+02  0.7546771E-02  0.1299295E+00
         -1   -1    0    0    0  501 -0.00000000000E+00  0.00000000000E+00  0.25340687218E+01  0.25340687218E+01  0.00000000000E+00 0.  1.
          1   -1    0    0  501    0  0.00000000000E+00 -0.00000000000E+00 -0.82569623991E+03  0.82569623991E+03  0.00000000000E+00 0. -1.
         23    2    1    2    0    0  0.00000000000E+00  0.00000000000E+00 -0.82316217119E+03  0.82823030864E+03  0.91484884332E+02 0.  0.
          2    1    3    3  502    0 -0.11744682970E+02  0.33654382314E+02 -0.67111198332E+03  0.67205792100E+03  0.00000000000E+00 0. -1.
         -2    1    3    3    0  502  0.11744682970E+02 -0.33654382314E+02 -0.15205018787E+03  0.15617238763E+03  0.00000000000E+00 0.  1.
<mgrwt>
<rscale>  0 0.91484884E+02</rscale>
<asrwt>0</asrwt>
<pdfrwt beam="2">  1        1 0.12703024E+00 0.91484884E+02</pdfrwt>
<pdfrwt beam="1">  1       -1 0.38985656E-03 0.91484884E+02</pdfrwt>
<totfact> 0.13961185E+05</totfact>
</mgrwt>
</event>
<event>
 5    1  0.4006808E+001  0.9100993E+02  0.7546771E-02  0.1300424E+00
          2   -1    0    0  501    0  0.00000000000E+00  0.00000000000E+00  0.78597572428E+03  0.78597572428E+03  0.00000000000E+00 0. -1.
         -2   -1    0    0    0  501 -0.00000000000E+00 -0.00000000000E+00 -0.26345619160E+01  0.26345619160E+01  0.00000000000E+00 0.  1.
         23    2    1    2    0    0  0.00000000000E+00  0.00000000000E+00  0.78334116237E+03  0.78861028620E+03  0.91009927152E+02 0.  0.
          2    1    3    3  502    0 -0.38726973995E+02  0.14609308121E+02  0.55550547963E+03  0.55704537364E+03  0.00000000000E+00 0. -1.
         -2    1    3    3    0  502  0.38726973995E+02 -0.14609308121E+02  0.22783568274E+03  0.23156491255E+03  0.00000000000E+00 0.  1.
<mgrwt>
<rscale>  0 0.91009927E+02</rscale>
<asrwt>0</asrwt>
<pdfrwt beam="1">  1        2 0.12091916E+00 0.91009927E+02</pdfrwt>
<pdfrwt beam="2">  1       -2 0.40531784E-03 0.91009927E+02</pdfrwt>
<totfact> 0.24414165E+05</totfact>
</mgrwt>
</event>
<event>
 5    1  0.4006808E+001  0.9856472E+02  0.7546771E-02  0.1283343E+00
         -1   -1    0    0    0  501 -0.00000000000E+00  0.00000000000E+00  0.20102045642E+02  0.20102045642E+02  0.00000000000E+00 0.  1.
          1   -1    0    0  501    0  0.00000000000E+00 -0.00000000000E+00 -0.12082109400E+03  0.12082109400E+03  0.00000000000E+00 0. -1.
         23    2    1    2    0    0  0.00000000000E+00  0.00000000000E+00 -0.10071904836E+03  0.14092313965E+03  0.98564722820E+02 0.  0.
          2    1    3    3  502    0 -0.38946071752E+02 -0.21465611625E+02 -0.80728962821E+02  0.92166883562E+02  0.00000000000E+00 0. -1.
         -2    1    3    3    0  502  0.38946071752E+02  0.21465611625E+02 -0.19990085542E+02  0.48756256084E+02  0.00000000000E+00 0.  1.
<mgrwt>
<rscale>  0 0.98564723E+02</rscale>
<asrwt>0</asrwt>
<pdfrwt beam="2">  1        1 0.18587861E-01 0.98564723E+02</pdfrwt>
<pdfrwt beam="1">  1       -1 0.30926224E-02 0.98564723E+02</pdfrwt>
<totfact> 0.87220441E+04</totfact>
</mgrwt>
</event>
<event>
 5    1  0.4006808E+001  0.6637971E+02  0.7546771E-02  0.1372855E+00
         -2   -1    0    0    0  501 -0.00000000000E+00  0.00000000000E+00  0.17549167589E+01  0.17549167589E+01  0.00000000000E+00 0.  1.
          2   -1    0    0  501    0  0.00000000000E+00 -0.00000000000E+00 -0.62770288610E+03  0.62770288610E+03  0.00000000000E+00 0. -1.
         23    2    1    2    0    0  0.00000000000E+00  0.00000000000E+00 -0.62594796934E+03  0.62945780286E+03  0.66379705164E+02 0.  0.
          2    1    3    3  502    0  0.36406950140E+01 -0.23394576544E+02 -0.53353671005E+03  0.53406177718E+03  0.00000000000E+00 0. -1.
         -2    1    3    3    0  502 -0.36406950140E+01  0.23394576544E+02 -0.92411259286E+02  0.95396025676E+02  0.00000000000E+00 0.  1.
<mgrwt>
<rscale>  0 0.66379705E+02</rscale>
<asrwt>0</asrwt>
<pdfrwt beam="2">  1        2 0.96569805E-01 0.66379705E+02</pdfrwt>
<pdfrwt beam="1">  1       -2 0.26998683E-03 0.66379705E+02</pdfrwt>
<totfact> 0.52604713E+05</totfact>
</mgrwt>
</event>
<event>
 5    1  0.4006808E+001  0.9137755E+02  0.7546771E-02  0.1299550E+00
          2   -1    0    0  501    0  0.00000000000E+00  0.00000000000E+00  0.20674538052E+02  0.20674538052E+02  0.00000000000E+00 0. -1.
         -2   -1    0    0    0  501 -0.00000000000E+00 -0.00000000000E+00 -0.10096788239E+03  0.10096788239E+03  0.00000000000E+00 0.  1.
         23    2    1    2    0    0  0.00000000000E+00  0.00000000000E+00 -0.80293344335E+02  0.12164242044E+03  0.91377553622E+02 0.  0.
          2    1    3    3  502    0 -0.34708704070E+02 -0.28979480502E+02 -0.48871907465E+02  0.66580535952E+02  0.00000000000E+00 0. -1.
         -2    1    3    3    0  502  0.34708704070E+02  0.28979480502E+02 -0.31421436869E+02  0.55061884488E+02  0.00000000000E+00 0.  1.
<mgrwt>
<rscale>  0 0.91377554E+02</rscale>
<asrwt>0</asrwt>
<pdfrwt beam="1">  1        2 0.31806982E-02 0.91377554E+02</pdfrwt>
<pdfrwt beam="2">  1       -2 0.15533520E-01 0.91377554E+02</pdfrwt>
<totfact> 0.79141877E+04</totfact>
</mgrwt>
</event>
<event>
 5    1  0.4006808E+001  0.9074290E+02  0.7546771E-02  0.1301063E+00
         -1   -1    0    0    0  501 -0.00000000000E+00  0.00000000000E+00  0.62309217457E+01  0.62309217457E+01  0.00000000000E+00 0.  1.
          1   -1    0    0  501    0  0.00000000000E+00 -0.00000000000E+00 -0.33037944211E+03  0.33037944211E+03  0.00000000000E+00 0. -1.
         23    2    1    2    0    0  0.00000000000E+00  0.00000000000E+00 -0.32414852036E+03  0.33661036385E+03  0.90742899450E+02 0.  0.
          2    1    3    3  502    0  0.18989964364E+02 -0.24211617524E+02 -0.28575949823E+03  0.28741139852E+03  0.00000000000E+00 0. -1.
         -2    1    3    3    0  502 -0.18989964364E+02  0.24211617524E+02 -0.38389022128E+02  0.49198965331E+02  0.00000000000E+00 0.  1.
<mgrwt>
<rscale>  0 0.90742899E+02</rscale>
<asrwt>0</asrwt>
<pdfrwt beam="2">  1        1 0.50827617E-01 0.90742899E+02</pdfrwt>
<pdfrwt beam="1">  1       -1 0.95860315E-03 0.90742899E+02</pdfrwt>
<totfact> 0.13212670E+05</totfact>
</mgrwt>
</event>
<event>
 5    1  0.4006808E+001  0.9071343E+02  0.7546771E-02  0.1301133E+00
          1   -1    0    0  501    0  0.00000000000E+00  0.00000000000E+00  0.59860838667E+02  0.59860838667E+02  0.00000000000E+00 0. -1.
         -1   -1    0    0    0  501 -0.00000000000E+00 -0.00000000000E+00 -0.34366904165E+02  0.34366904165E+02  0.00000000000E+00 0.  1.
         23    2    1    2    0    0  0.00000000000E+00  0.00000000000E+00  0.25493934503E+02  0.94227742832E+02  0.90713432428E+02 0.  0.
          2    1    3    3  502    0 -0.22503719659E+01  0.26981607311E+02  0.50545721388E+02  0.57340572526E+02  0.00000000000E+00 0. -1.
         -2    1    3    3    0  502  0.22503719659E+01 -0.26981607311E+02 -0.25051786885E+02  0.36887170306E+02  0.00000000000E+00 0.  1.
<mgrwt>
<rscale>  0 0.90713432E+02</rscale>
<asrwt>0</asrwt>
<pdfrwt beam="1">  1        1 0.92093598E-02 0.90713432E+02</pdfrwt>
<pdfrwt beam="2">  1       -1 0.52872160E-02 0.90713432E+02</pdfrwt>
<totfact> 0.97707748E+04</totfact>
</mgrwt>
</event>
<event>
 5    1  0.4006808E+001  0.9165700E+02  0.7546771E-02  0.1298888E+00
         -3   -1    0    0    0  501 -0.00000000000E+00  0.00000000000E+00  0.17743822649E+03  0.17743822649E+03  0.00000000000E+00 0.  1.
          3   -1    0    0  501    0  0.00000000000E+00 -0.00000000000E+00 -0.11836521358E+02  0.11836521358E+02  0.00000000000E+00 0. -1.
         23    2    1    2    0    0  0.00000000000E+00  0.00000000000E+00  0.16560170513E+03  0.18927474784E+03  0.91656998805E+02 0.  0.
          2    1    3    3  502    0 -0.34556964875E+02  0.29838995721E+02  0.90983667695E+02  0.10179674491E+03  0.00000000000E+00 0. -1.
         -2    1    3    3    0  502  0.34556964875E+02 -0.29838995721E+02  0.74618037433E+02  0.87478002934E+02  0.00000000000E+00 0.  1.
<mgrwt>
<rscale>  0 0.91656999E+02</rscale>
<asrwt>0</asrwt>
<pdfrwt beam="2">  1        3 0.18210034E-02 0.91656999E+02</pdfrwt>
<pdfrwt beam="1">  1       -3 0.27298187E-01 0.91656999E+02</pdfrwt>
<totfact> 0.28652162E+04</totfact>
</mgrwt>
</event>
<event>
 5    1  0.4006808E+001  0.9560071E+02  0.7546771E-02  0.1289829E+00
          1   -1    0    0  501    0  0.00000000000E+00  0.00000000000E+00  0.18090968557E+04  0.18090968557E+04  0.00000000000E+00 0. -1.
         -1   -1    0    0    0  501 -0.00000000000E+00 -0.00000000000E+00 -0.12629914110E+01  0.12629914110E+01  0.00000000000E+00 0.  1.
         23    2    1    2    0    0  0.00000000000E+00  0.00000000000E+00  0.18078338643E+04  0.18103598471E+04  0.95600706909E+02 0.  0.
          2    1    3    3  502    0  0.13814482671E+02  0.37980937944E+02  0.13872595456E+04  0.13878481324E+04  0.00000000000E+00 0. -1.
         -2    1    3    3    0  502 -0.13814482671E+02 -0.37980937944E+02  0.42057431864E+03  0.42251171472E+03  0.00000000000E+00 0.  1.
<mgrwt>
<rscale>  0 0.95600707E+02</rscale>
<asrwt>0</asrwt>
<pdfrwt beam="1">  1        1 0.27832052E+00 0.95600707E+02</pdfrwt>
<pdfrwt beam="2">  1       -1 0.19430782E-03 0.95600707E+02</pdfrwt>
<totfact> 0.80600195E+04</totfact>
</mgrwt>
</event>
<event>
 5    1  0.4006808E+001  0.9231682E+02  0.7546771E-02  0.1297336E+00
         -2   -1    0    0    0  501 -0.00000000000E+00  0.00000000000E+00  0.23481130920E+01  0.23481130920E+01  0.00000000000E+00 0.  1.
          2   -1    0    0  501    0  0.00000000000E+00 -0.00000000000E+00 -0.90736629635E+03  0.90736629635E+03  0.00000000000E+00 0. -1.
         23    2    1    2    0    0  0.00000000000E+00  0.00000000000E+00 -0.90501818325E+03  0.90971440944E+03  0.92316817096E+02 0.  0.
          2    1    3    3  502    0 -0.14712008721E+02 -0.43553429328E+02 -0.41157618523E+03  0.41413560661E+03  0.00000000000E+00 0. -1.
         -2    1    3    3    0  502  0.14712008721E+02  0.43553429328E+02 -0.49344199802E+03  0.49557880283E+03  0.00000000000E+00 0.  1.
<mgrwt>
<rscale>  0 0.92316817E+02</rscale>
<asrwt>0</asrwt>
<pdfrwt beam="2">  1        2 0.13959479E+00 0.92316817E+02</pdfrwt>
<pdfrwt beam="1">  1       -2 0.36124824E-03 0.92316817E+02</pdfrwt>
<totfact> 0.24016853E+05</totfact>
</mgrwt>
</event>
<event>
 5    1  0.4006808E+001  0.9293426E+02  0.7546771E-02  0.1295898E+00
         -2   -1    0    0    0  501 -0.00000000000E+00  0.00000000000E+00  0.30817879097E+01  0.30817879097E+01  0.00000000000E+00 0.  1.
          2   -1    0    0  501    0  0.00000000000E+00 -0.00000000000E+00 -0.70063041019E+03  0.70063041019E+03  0.00000000000E+00 0. -1.
         23    2    1    2    0    0  0.00000000000E+00  0.00000000000E+00 -0.69754862228E+03  0.70371219810E+03  0.92934263376E+02 0.  0.
          2    1    3    3  502    0  0.43706405381E+02 -0.15741948261E+02 -0.35684325681E+03  0.35985437157E+03  0.00000000000E+00 0. -1.
         -2    1    3    3    0  502 -0.43706405381E+02  0.15741948261E+02 -0.34070536547E+03  0.34385782653E+03  0.00000000000E+00 0.  1.
<mgrwt>
<rscale>  0 0.92934263E+02</rscale>
<asrwt>0</asrwt>
<pdfrwt beam="2">  1        2 0.10778935E+00 0.92934263E+02</pdfrwt>
<pdfrwt beam="1">  1       -2 0.47412096E-03 0.92934263E+02</pdfrwt>
<totfact> 0.22553034E+05</totfact>
</mgrwt>
</event>
<event>
 5    1  0.4006808E+001  0.9248541E+02  0.7546771E-02  0.1296942E+00
          2   -1    0    0  501    0  0.00000000000E+00  0.00000000000E+00  0.19692327359E+01  0.19692327359E+01  0.00000000000E+00 0. -1.
         -2   -1    0    0    0  501 -0.00000000000E+00 -0.00000000000E+00 -0.10858990153E+04  0.10858990153E+04  0.00000000000E+00 0.  1.
         23    2    1    2    0    0  0.00000000000E+00  0.00000000000E+00 -0.10839297826E+04  0.10878682481E+04  0.92485412663E+02 0.  0.
          2    1    3    3  502    0 -0.40613663657E+02 -0.20784118756E+01 -0.28302792348E+03  0.28593459906E+03  0.00000000000E+00 0. -1.
         -2    1    3    3    0  502  0.40613663657E+02  0.20784118756E+01 -0.80090185912E+03  0.80193364900E+03  0.00000000000E+00 0.  1.
<mgrwt>
<rscale>  0 0.92485413E+02</rscale>
<asrwt>0</asrwt>
<pdfrwt beam="1">  1        2 0.30295852E-03 0.92485413E+02</pdfrwt>
<pdfrwt beam="2">  1       -2 0.16706159E+00 0.92485413E+02</pdfrwt>
<totfact> 0.16296099E+04</totfact>
</mgrwt>
</event>
<event>
 5    1  0.4006808E+001  0.9093844E+02  0.7546771E-02  0.1300595E+00
         -1   -1    0    0    0  501 -0.00000000000E+00  0.00000000000E+00  0.55503301073E+02  0.55503301073E+02  0.00000000000E+00 0.  1.
          1   -1    0    0  501    0  0.00000000000E+00 -0.00000000000E+00 -0.37249135945E+02  0.37249135945E+02  0.00000000000E+00 0. -1.
         23    2    1    2    0    0  0.00000000000E+00  0.00000000000E+00  0.18254165128E+02  0.92752437017E+02  0.90938440871E+02 0.  0.
          2    1    3    3  502    0 -0.28141778840E+02  0.35164482848E+02  0.27616427491E+01  0.45123466632E+02  0.00000000000E+00 0. -1.
         -2    1    3    3    0  502  0.28141778840E+02 -0.35164482848E+02  0.15492522379E+02  0.47628970385E+02  0.00000000000E+00 0.  1.
<mgrwt>
<rscale>  0 0.90938441E+02</rscale>
<asrwt>0</asrwt>
<pdfrwt beam="2">  1        1 0.57306363E-02 0.90938441E+02</pdfrwt>
<pdfrwt beam="1">  1       -1 0.85389694E-02 0.90938441E+02</pdfrwt>
<totfact> 0.90350602E+04</totfact>
</mgrwt>
</event>
<event>
 5    1  0.4006808E+001  0.9079128E+02  0.7546771E-02  0.1300947E+00
          4   -1    0    0  501    0  0.00000000000E+00  0.00000000000E+00  0.14159017346E+03  0.14159017346E+03  0.00000000000E+00 0. -1.
         -4   -1    0    0    0  501 -0.00000000000E+00 -0.00000000000E+00 -0.14554428043E+02  0.14554428043E+02  0.00000000000E+00 0.  1.
         23    2    1    2    0    0  0.00000000000E+00  0.00000000000E+00  0.12703574541E+03  0.15614460150E+03  0.90791276919E+02 0.  0.
          2    1    3    3  502    0 -0.22228077855E+02 -0.38885321125E+02  0.76226901539E+02  0.88412081541E+02  0.00000000000E+00 0. -1.
         -2    1    3    3    0  502  0.22228077855E+02  0.38885321125E+02  0.50808843876E+02  0.67732519960E+02  0.00000000000E+00 0.  1.
<mgrwt>
<rscale>  0 0.90791277E+02</rscale>
<asrwt>0</asrwt>
<pdfrwt beam="1">  1        4 0.21783103E-01 0.90791277E+02</pdfrwt>
<pdfrwt beam="2">  1       -4 0.22391429E-02 0.90791277E+02</pdfrwt>
<totfact> 0.23636034E+04</totfact>
</mgrwt>
</event>
<event>
 5    1  0.4006808E+001  0.8981657E+02  0.7546771E-02  0.1303296E+00
         -1   -1    0    0    0  501 -0.00000000000E+00  0.00000000000E+00  0.27451529315E+01  0.27451529315E+01  0.00000000000E+00 0.  1.
          1   -1    0    0  501    0  0.00000000000E+00 -0.00000000000E+00 -0.73466007321E+03  0.73466007321E+03  0.00000000000E+00 0. -1.
         23    2    1    2    0    0  0.00000000000E+00  0.00000000000E+00 -0.73191492028E+03  0.73740522615E+03  0.89816574275E+02 0.  0.
          2    1    3    3  502    0  0.20586862090E+02 -0.28450956908E+02 -0.59576445442E+03  0.59679859332E+03  0.00000000000E+00 0. -1.
         -2    1    3    3    0  502 -0.20586862090E+02  0.28450956908E+02 -0.13615046587E+03  0.14060663283E+03  0.00000000000E+00 0.  1.
<mgrwt>
<rscale>  0 0.89816574E+02</rscale>
<asrwt>0</asrwt>
<pdfrwt beam="2">  1        1 0.11302482E+00 0.89816574E+02</pdfrwt>
<pdfrwt beam="1">  1       -1 0.42233051E-03 0.89816574E+02</pdfrwt>
<totfact> 0.14777999E+05</totfact>
</mgrwt>
</event>
<event>
 5    1  0.4006808E+001  0.9004316E+02  0.7546771E-02  0.1302747E+00
         -1   -1    0    0    0  501 -0.00000000000E+00  0.00000000000E+00  0.84723849180E+02  0.84723849180E+02  0.00000000000E+00 0.  1.
          1   -1    0    0  501    0  0.00000000000E+00 -0.00000000000E+00 -0.23924109064E+02  0.23924109064E+02  0.00000000000E+00 0. -1.
         23    2    1    2    0    0  0.00000000000E+00  0.00000000000E+00  0.60799740116E+02  0.10864795824E+03  0.90043158720E+02 0.  0.
          2    1    3    3  502    0  0.24322638156E+02  0.37363162983E+02  0.22831179112E+02  0.50088515796E+02  0.00000000000E+00 0. -1.
         -2    1    3    3    0  502 -0.24322638156E+02 -0.37363162983E+02  0.37968561004E+02  0.58559442447E+02  0.00000000000E+00 0.  1.
<mgrwt>
<rscale>  0 0.90043159E+02</rscale>
<asrwt>0</asrwt>
<pdfrwt beam="2">  1        1 0.36806322E-02 0.90043159E+02</pdfrwt>
<pdfrwt beam="1">  1       -1 0.13034438E-01 0.90043159E+02</pdfrwt>
<totfact> 0.86554612E+04</totfact>
</mgrwt>
</event>
<event>
 5    1  0.4006808E+001  0.9038047E+02  0.7546771E-02  0.1301933E+00
         -2   -1    0    0    0  501 -0.00000000000E+00  0.00000000000E+00  0.10591271766E+01  0.10591271766E+01  0.00000000000E+00 0.  1.
          2   -1    0    0  501    0  0.00000000000E+00 -0.00000000000E+00 -0.19281511276E+04  0.19281511276E+04  0.00000000000E+00 0. -1.
         23    2    1    2    0    0  0.00000000000E+00  0.00000000000E+00 -0.19270920005E+04  0.19292102548E+04  0.90380468240E+02 0.  0.
          2    1    3    3  502    0 -0.35663938230E+02 -0.92452088810E+01 -0.15221143826E+04  0.15225602071E+04  0.00000000000E+00 0. -1.
         -2    1    3    3    0  502  0.35663938230E+02  0.92452088810E+01 -0.40497761784E+03  0.40665004774E+03  0.00000000000E+00 0.  1.
<mgrwt>
<rscale>  0 0.90380468E+02</rscale>
<asrwt>0</asrwt>
<pdfrwt beam="2">  1        2 0.29663644E+00 0.90380468E+02</pdfrwt>
<pdfrwt beam="1">  1       -2 0.16294385E-03 0.90380468E+02</pdfrwt>
<totfact> 0.20807526E+05</totfact>
</mgrwt>
</event>
<event>
 5    1  0.4006808E+001  0.9071988E+02  0.7546771E-02  0.1301118E+00
          2   -1    0    0  501    0  0.00000000000E+00  0.00000000000E+00  0.61510688470E+02  0.61510688470E+02  0.00000000000E+00 0. -1.
         -2   -1    0    0    0  501 -0.00000000000E+00 -0.00000000000E+00 -0.33449860565E+02  0.33449860565E+02  0.00000000000E+00 0.  1.
         23    2    1    2    0    0  0.00000000000E+00  0.00000000000E+00  0.28060827905E+02  0.94960549036E+02  0.90719875498E+02 0.  0.
          2    1    3    3  502    0  0.23920709732E+02  0.36234378381E+02  0.27774033245E+02  0.51541511944E+02  0.00000000000E+00 0. -1.
         -2    1    3    3    0  502 -0.23920709732E+02 -0.36234378381E+02  0.28679465965E+00  0.43419037092E+02  0.00000000000E+00 0.  1.
<mgrwt>
<rscale>  0 0.90719875E+02</rscale>
<asrwt>0</asrwt>
<pdfrwt beam="1">  1        2 0.94631828E-02 0.90719875E+02</pdfrwt>
<pdfrwt beam="2">  1       -2 0.51461324E-02 0.90719875E+02</pdfrwt>
<totfact> 0.10830175E+05</totfact>
</mgrwt>
</event>
<event>
 5    1  0.4006808E+001  0.9049443E+02  0.7546771E-02  0.1301659E+00
         -3   -1    0    0    0  501 -0.00000000000E+00  0.00000000000E+00  0.19180020934E+02  0.19180020934E+02  0.00000000000E+00 0. -1.
          3   -1    0    0  501    0  0.00000000000E+00 -0.00000000000E+00 -0.10674182831E+03  0.10674182831E+03  0.00000000000E+00 0.  1.
         23    2    1    2    0    0  0.00000000000E+00  0.00000000000E+00 -0.87561807379E+02  0.12592184925E+03  0.90494430803E+02 0.  0.
          2    1    3    3  502    0 -0.16818070703E+02 -0.33784626001E+02 -0.78514110998E+02  0.87113225644E+02  0.00000000000E+00 0. -1.
         -2    1    3    3    0  502  0.16818070703E+02  0.33784626001E+02 -0.90476963805E+01  0.38808623603E+02  0.00000000000E+00 0.  1.
<mgrwt>
<rscale>  0 0.90494431E+02</rscale>
<asrwt>0</asrwt>
<pdfrwt beam="2">  1        3 0.16421820E-01 0.90494431E+02</pdfrwt>
<pdfrwt beam="1">  1       -3 0.29507725E-02 0.90494431E+02</pdfrwt>
<totfact> 0.33521779E+04</totfact>
</mgrwt>
</event>
<event>
 5    1  0.4006808E+001  0.8855018E+02  0.7546771E-02  0.1306401E+00
         -1   -1    0    0    0  501 -0.00000000000E+00  0.00000000000E+00  0.64476394026E+02  0.64476394026E+02  0.00000000000E+00 0.  1.
          1   -1    0    0  501    0  0.00000000000E+00 -0.00000000000E+00 -0.30403121600E+02  0.30403121600E+02  0.00000000000E+00 0. -1.
         23    2    1    2    0    0  0.00000000000E+00  0.00000000000E+00  0.34073272426E+02  0.94879515626E+02  0.88550181206E+02 0.  0.
          2    1    3    3  502    0  0.11471205602E+02  0.21854918995E+02 -0.22347374233E+02  0.33296113547E+02  0.00000000000E+00 0. -1.
         -2    1    3    3    0  502 -0.11471205602E+02 -0.21854918995E+02  0.56420646659E+02  0.61583402079E+02  0.00000000000E+00 0.  1.
<mgrwt>
<rscale>  0 0.88550181E+02</rscale>
<asrwt>0</asrwt>
<pdfrwt beam="2">  1        1 0.46774033E-02 0.88550181E+02</pdfrwt>
<pdfrwt beam="1">  1       -1 0.99194452E-02 0.88550181E+02</pdfrwt>
<totfact> 0.94441054E+04</totfact>
</mgrwt>
</event>
<event>
 5    1  0.4006808E+001  0.8089368E+02  0.7546771E-02  0.1326534E+00
         -1   -1    0    0    0  501 -0.00000000000E+00  0.00000000000E+00  0.17268059827E+01  0.17268059827E+01  0.00000000000E+00 0.  1.
          1   -1    0    0  501    0  0.00000000000E+00 -0.00000000000E+00 -0.94738302714E+03  0.94738302714E+03  0.00000000000E+00 0. -1.
         23    2    1    2    0    0  0.00000000000E+00  0.00000000000E+00 -0.94565622115E+03  0.94910983312E+03  0.80893675382E+02 0.  0.
          2    1    3    3  502    0 -0.86591251945E+01  0.38638301226E+02 -0.37604283399E+03  0.37812182133E+03  0.00000000000E+00 0.  1.
         -2    1    3    3    0  502  0.86591251945E+01 -0.38638301226E+02 -0.56961338717E+03  0.57098801179E+03  0.00000000000E+00 0. -1.
<mgrwt>
<rscale>  0 0.80893675E+02</rscale>
<asrwt>0</asrwt>
<pdfrwt beam="2">  1        1 0.14575102E+00 0.80893675E+02</pdfrwt>
<pdfrwt beam="1">  1       -1 0.26566285E-03 0.80893675E+02</pdfrwt>
<totfact> 0.18872126E+05</totfact>
</mgrwt>
</event>
<event>
 5    1  0.4006808E+001  0.8917304E+02  0.7546771E-02  0.1304867E+00
          2   -1    0    0  501    0  0.00000000000E+00  0.00000000000E+00  0.27135737504E+03  0.27135737504E+03  0.00000000000E+00 0. -1.
         -2   -1    0    0    0  501 -0.00000000000E+00 -0.00000000000E+00 -0.73259769396E+01  0.73259769396E+01  0.00000000000E+00 0.  1.
         23    2    1    2    0    0  0.00000000000E+00  0.00000000000E+00  0.26403139810E+03  0.27868335198E+03  0.89173042382E+02 0.  0.
          2    1    3    3  502    0 -0.24810617876E+02  0.11025075140E+02  0.24254517704E+03  0.24405999662E+03  0.00000000000E+00 0. -1.
         -2    1    3    3    0  502  0.24810617876E+02 -0.11025075140E+02  0.21486221054E+02  0.34623355360E+02  0.00000000000E+00 0.  1.
<mgrwt>
<rscale>  0 0.89173042E+02</rscale>
<asrwt>0</asrwt>
<pdfrwt beam="1">  1        2 0.41747281E-01 0.89173042E+02</pdfrwt>
<pdfrwt beam="2">  1       -2 0.11270736E-02 0.89173042E+02</pdfrwt>
<totfact> 0.18363321E+05</totfact>
</mgrwt>
</event>
<event>
 5    1  0.4006808E+001  0.9062312E+02  0.7546771E-02  0.1301350E+00
         -1   -1    0    0    0  501 -0.00000000000E+00  0.00000000000E+00  0.22266252490E+02  0.22266252490E+02  0.00000000000E+00 0.  1.
          1   -1    0    0  501    0  0.00000000000E+00 -0.00000000000E+00 -0.92208483292E+02  0.92208483292E+02  0.00000000000E+00 0. -1.
         23    2    1    2    0    0  0.00000000000E+00  0.00000000000E+00 -0.69942230802E+02  0.11447473578E+03  0.90623117817E+02 0.  0.
          2    1    3    3  502    0 -0.96383404306E+01  0.40973576429E+02 -0.13780812162E+02  0.44290431873E+02  0.00000000000E+00 0. -1.
         -2    1    3    3    0  502  0.96383404306E+01 -0.40973576429E+02 -0.56161418640E+02  0.70184303910E+02  0.00000000000E+00 0.  1.
<mgrwt>
<rscale>  0 0.90623118E+02</rscale>
<asrwt>0</asrwt>
<pdfrwt beam="2">  1        1 0.14185921E-01 0.90623118E+02</pdfrwt>
<pdfrwt beam="1">  1       -1 0.34255773E-02 0.90623118E+02</pdfrwt>
<totfact> 0.10479433E+05</totfact>
</mgrwt>
</event>
<event>
 5    1  0.4006808E+001  0.8543128E+02  0.7546771E-02  0.1314309E+00
          1   -1    0    0  501    0  0.00000000000E+00  0.00000000000E+00  0.89306066858E+02  0.89306066858E+02  0.00000000000E+00 0. -1.
         -1   -1    0    0    0  501 -0.00000000000E+00 -0.00000000000E+00 -0.20431153465E+02  0.20431153465E+02  0.00000000000E+00 0.  1.
         23    2    1    2    0    0  0.00000000000E+00  0.00000000000E+00  0.68874913392E+02  0.10973722032E+03  0.85431281328E+02 0.  0.
          2    1    3    3  502    0  0.42620727911E+02  0.28416958255E+01  0.34237326548E+02  0.54743001489E+02  0.00000000000E+00 0. -1.
         -2    1    3    3    0  502 -0.42620727911E+02 -0.28416958255E+01  0.34637586844E+02  0.54994218834E+02  0.00000000000E+00 0.  1.
<mgrwt>
<rscale>  0 0.85431281E+02</rscale>
<asrwt>0</asrwt>
<pdfrwt beam="1">  1        1 0.13739395E-01 0.85431281E+02</pdfrwt>
<pdfrwt beam="2">  1       -1 0.31432544E-02 0.85431281E+02</pdfrwt>
<totfact> 0.12240105E+05</totfact>
</mgrwt>
</event>
<event>
 5    1  0.4006808E+001  0.8530559E+02  0.7546771E-02  0.1314635E+00
         -1   -1    0    0    0  501 -0.00000000000E+00  0.00000000000E+00  0.16661287113E+01  0.16661287113E+01  0.00000000000E+00 0.  1.
          1   -1    0    0  501    0  0.00000000000E+00 -0.00000000000E+00 -0.10919089870E+04  0.10919089870E+04  0.00000000000E+00 0. -1.
         23    2    1    2    0    0  0.00000000000E+00  0.00000000000E+00 -0.10902428583E+04  0.10935751157E+04  0.85305589813E+02 0.  0.
          2    1    3    3  502    0 -0.39697197334E+02  0.83554658378E+01 -0.71401787303E+03  0.71516935357E+03  0.00000000000E+00 0. -1.
         -2    1    3    3    0  502  0.39697197334E+02 -0.83554658378E+01 -0.37622498523E+03  0.37840576211E+03  0.00000000000E+00 0.  1.
<mgrwt>
<rscale>  0 0.85305590E+02</rscale>
<asrwt>0</asrwt>
<pdfrwt beam="2">  1        1 0.16798602E+00 0.85305590E+02</pdfrwt>
<pdfrwt beam="1">  1       -1 0.25632746E-03 0.85305590E+02</pdfrwt>
<totfact> 0.15773496E+05</totfact>
</mgrwt>
</event>
<event>
 5    1  0.4006808E+001  0.9135311E+02  0.7546771E-02  0.1299608E+00
          2   -1    0    0  501    0  0.00000000000E+00  0.00000000000E+00  0.38759546714E+03  0.38759546714E+03  0.00000000000E+00 0. -1.
         -2   -1    0    0    0  501 -0.00000000000E+00 -0.00000000000E+00 -0.53827972535E+01  0.53827972535E+01  0.00000000000E+00 0.  1.
         23    2    1    2    0    0  0.00000000000E+00  0.00000000000E+00  0.38221266989E+03  0.39297826440E+03  0.91353113050E+02 0.  0.
          2    1    3    3  502    0  0.39306871482E+02 -0.23164169208E+02  0.18174181399E+03  0.18738115122E+03  0.00000000000E+00 0. -1.
         -2    1    3    3    0  502 -0.39306871482E+02  0.23164169208E+02  0.20047085590E+03  0.20559711318E+03  0.00000000000E+00 0.  1.
<mgrwt>
<rscale>  0 0.91353113E+02</rscale>
<asrwt>0</asrwt>
<pdfrwt beam="1">  1        2 0.59630050E-01 0.91353113E+02</pdfrwt>
<pdfrwt beam="2">  1       -2 0.82812296E-03 0.91353113E+02</pdfrwt>
<totfact> 0.19636896E+05</totfact>
</mgrwt>
</event>
<event>
 5    1  0.4006808E+001  0.9148634E+02  0.7546771E-02  0.1299292E+00
          2   -1    0    0  501    0  0.00000000000E+00  0.00000000000E+00  0.23853806291E+03  0.23853806291E+03  0.00000000000E+00 0. -1.
         -2   -1    0    0    0  501 -0.00000000000E+00 -0.00000000000E+00 -0.87719225935E+01  0.87719225935E+01  0.00000000000E+00 0.  1.
         23    2    1    2    0    0  0.00000000000E+00  0.00000000000E+00  0.22976614031E+03  0.24730998550E+03  0.91486336104E+02 0.  0.
          2    1    3    3  502    0  0.30243644483E+02  0.31649161886E+02  0.15075483089E+03  0.15698205795E+03  0.00000000000E+00 0. -1.
         -2    1    3    3    0  502 -0.30243644483E+02 -0.31649161886E+02  0.79011309420E+02  0.90327927553E+02  0.00000000000E+00 0.  1.
<mgrwt>
<rscale>  0 0.91486336E+02</rscale>
<asrwt>0</asrwt>
<pdfrwt beam="1">  1        2 0.36698159E-01 0.91486336E+02</pdfrwt>
<pdfrwt beam="2">  1       -2 0.13495267E-02 0.91486336E+02</pdfrwt>
<totfact> 0.16348125E+05</totfact>
</mgrwt>
</event>
<event>
 5    1  0.4006808E+001  0.9345489E+02  0.7546771E-02  0.1294694E+00
          1   -1    0    0  501    0  0.00000000000E+00  0.00000000000E+00  0.17675813864E+04  0.17675813864E+04  0.00000000000E+00 0. -1.
         -1   -1    0    0    0  501 -0.00000000000E+00 -0.00000000000E+00 -0.12352777484E+01  0.12352777484E+01  0.00000000000E+00 0.  1.
         23    2    1    2    0    0  0.00000000000E+00  0.00000000000E+00  0.17663461086E+04  0.17688166641E+04  0.93454886552E+02 0.  0.
          2    1    3    3  502    0  0.15459718818E+02  0.26520844965E+02  0.15499544364E+04  0.15502584021E+04  0.00000000000E+00 0. -1.
         -2    1    3    3    0  502 -0.15459718818E+02 -0.26520844965E+02  0.21639167218E+03  0.21855826206E+03  0.00000000000E+00 0.  1.
<mgrwt>
<rscale>  0 0.93454887E+02</rscale>
<asrwt>0</asrwt>
<pdfrwt beam="1">  1        1 0.27193357E+00 0.93454887E+02</pdfrwt>
<pdfrwt beam="2">  1       -1 0.19004415E-03 0.93454887E+02</pdfrwt>
<totfact> 0.88035246E+04</totfact>
</mgrwt>
</event>
<event>
 5    1  0.4006808E+001  0.9079792E+02  0.7546771E-02  0.1300931E+00
          1   -1    0    0  501    0  0.00000000000E+00  0.00000000000E+00  0.13603613686E+03  0.13603613686E+03  0.00000000000E+00 0. -1.
         -1   -1    0    0    0  501 -0.00000000000E+00 -0.00000000000E+00 -0.15150867337E+02  0.15150867337E+02  0.00000000000E+00 0.  1.
         23    2    1    2    0    0  0.00000000000E+00  0.00000000000E+00  0.12088526953E+03  0.15118700420E+03  0.90797917657E+02 0.  0.
          2    1    3    3  502    0  0.29318992900E+01 -0.41768727466E+02  0.31227822630E+02  0.52234084024E+02  0.00000000000E+00 0.  1.
         -2    1    3    3    0  502 -0.29318992900E+01  0.41768727466E+02  0.89657446896E+02  0.98952920176E+02  0.00000000000E+00 0. -1.
<mgrwt>
<rscale>  0 0.90797918E+02</rscale>
<asrwt>0</asrwt>
<pdfrwt beam="1">  1        1 0.20928636E-01 0.90797918E+02</pdfrwt>
<pdfrwt beam="2">  1       -1 0.23309028E-02 0.90797918E+02</pdfrwt>
<totfact> 0.11140450E+05</totfact>
</mgrwt>
</event>
<event>
 5    1  0.4006808E+001  0.9420461E+02  0.7546771E-02  0.1292978E+00
         -1   -1    0    0    0  501 -0.00000000000E+00  0.00000000000E+00  0.37443269456E+02  0.37443269456E+02  0.00000000000E+00 0.  1.
          1   -1    0    0  501    0  0.00000000000E+00 -0.00000000000E+00 -0.59253026209E+02  0.59253026209E+02  0.00000000000E+00 0. -1.
         23    2    1    2    0    0  0.00000000000E+00  0.00000000000E+00 -0.21809756753E+02  0.96696295665E+02  0.94204607667E+02 0.  0.
          2    1    3    3  502    0 -0.22825064114E+02  0.27124618200E+02 -0.42739693316E+02  0.55528459812E+02  0.00000000000E+00 0. -1.
         -2    1    3    3    0  502  0.22825064114E+02 -0.27124618200E+02  0.20929936562E+02  0.41167835853E+02  0.00000000000E+00 0.  1.
<mgrwt>
<rscale>  0 0.94204608E+02</rscale>
<asrwt>0</asrwt>
<pdfrwt beam="2">  1        1 0.91158502E-02 0.94204608E+02</pdfrwt>
<pdfrwt beam="1">  1       -1 0.57605030E-02 0.94204608E+02</pdfrwt>
<totfact> 0.87825150E+04</totfact>
</mgrwt>
</event>
<event>
 5    1  0.4006808E+001  0.9055028E+02  0.7546771E-02  0.1301525E+00
         -1   -1    0    0    0  501 -0.00000000000E+00  0.00000000000E+00  0.17080551880E+03  0.17080551880E+03  0.00000000000E+00 0. -1.
          1   -1    0    0  501    0  0.00000000000E+00 -0.00000000000E+00 -0.12001006854E+02  0.12001006854E+02  0.00000000000E+00 0.  1.
         23    2    1    2    0    0  0.00000000000E+00  0.00000000000E+00  0.15880451195E+03  0.18280652565E+03  0.90550277788E+02 0.  0.
          2    1    3    3  502    0  0.24965232195E+02  0.11871327926E+02  0.15178962144E+03  0.15428635851E+03  0.00000000000E+00 0. -1.
         -2    1    3    3    0  502 -0.24965232195E+02 -0.11871327926E+02  0.70148905092E+01  0.28520167148E+02  0.00000000000E+00 0.  1.
<mgrwt>
<rscale>  0 0.90550278E+02</rscale>
<asrwt>0</asrwt>
<pdfrwt beam="2">  1        1 0.18463089E-02 0.90550278E+02</pdfrwt>
<pdfrwt beam="1">  1       -1 0.26277770E-01 0.90550278E+02</pdfrwt>
<totfact> 0.73760861E+04</totfact>
</mgrwt>
</event>
<event>
 5    1  0.4006808E+001  0.9396523E+02  0.7546771E-02  0.1293524E+00
         -1   -1    0    0    0  501 -0.00000000000E+00  0.00000000000E+00  0.20989761600E+03  0.20989761600E+03  0.00000000000E+00 0.  1.
          1   -1    0    0  501    0  0.00000000000E+00 -0.00000000000E+00 -0.10516394656E+02  0.10516394656E+02  0.00000000000E+00 0. -1.
         23    2    1    2    0    0  0.00000000000E+00  0.00000000000E+00  0.19938122134E+03  0.22041401065E+03  0.93965231169E+02 0.  0.
          2    1    3    3  502    0  0.17946496010E+02  0.31106746345E+02  0.28632630369E+02  0.45929662627E+02  0.00000000000E+00 0. -1.
         -2    1    3    3    0  502 -0.17946496010E+02 -0.31106746345E+02  0.17074859097E+03  0.17448434803E+03  0.00000000000E+00 0.  1.
<mgrwt>
<rscale>  0 0.93965231E+02</rscale>
<asrwt>0</asrwt>
<pdfrwt beam="2">  1        1 0.16179070E-02 0.93965231E+02</pdfrwt>
<pdfrwt beam="1">  1       -1 0.32291938E-01 0.93965231E+02</pdfrwt>
<totfact> 0.63276733E+04</totfact>
</mgrwt>
</event>
<event>
 5    1  0.4006808E+001  0.7283118E+02  0.7546771E-02  0.1350722E+00
          2   -1    0    0  501    0  0.00000000000E+00  0.00000000000E+00  0.11372073792E+03  0.11372073792E+03  0.00000000000E+00 0. -1.
         -2   -1    0    0    0  501 -0.00000000000E+00 -0.00000000000E+00 -0.11660980519E+02  0.11660980519E+02  0.00000000000E+00 0.  1.
         23    2    1    2    0    0  0.00000000000E+00  0.00000000000E+00  0.10205975740E+03  0.12538171844E+03  0.72831183145E+02 0.  0.
          2    1    3    3  502    0 -0.18267827236E+02  0.28710895253E+02  0.73347975722E+02  0.80857619063E+02  0.00000000000E+00 0. -1.
         -2    1    3    3    0  502  0.18267827236E+02 -0.28710895253E+02  0.28711781681E+02  0.44524099378E+02  0.00000000000E+00 0.  1.
<mgrwt>
<rscale>  0 0.72831183E+02</rscale>
<asrwt>0</asrwt>
<pdfrwt beam="1">  1        2 0.17495497E-01 0.72831183E+02</pdfrwt>
<pdfrwt beam="2">  1       -2 0.17939971E-02 0.72831183E+02</pdfrwt>
<totfact> 0.23394391E+05</totfact>
</mgrwt>
</event>
<event>
 5    1  0.4006808E+001  0.9041699E+02  0.7546771E-02  0.1301845E+00
         -3   -1    0    0    0  501 -0.00000000000E+00  0.00000000000E+00  0.81554831336E+02  0.81554831336E+02  0.00000000000E+00 0.  1.
          3   -1    0    0  501    0  0.00000000000E+00 -0.00000000000E+00 -0.25060536560E+02  0.25060536560E+02  0.00000000000E+00 0. -1.
         23    2    1    2    0    0  0.00000000000E+00  0.00000000000E+00  0.56494294776E+02  0.10661536790E+03  0.90416985845E+02 0.  0.
          2    1    3    3  502    0 -0.27343259654E+02  0.21268139118E+02 -0.60055481570E+01  0.35157562468E+02  0.00000000000E+00 0. -1.
         -2    1    3    3    0  502  0.27343259654E+02 -0.21268139118E+02  0.62499842933E+02  0.71457805428E+02  0.00000000000E+00 0.  1.
<mgrwt>
<rscale>  0 0.90416986E+02</rscale>
<asrwt>0</asrwt>
<pdfrwt beam="2">  1        3 0.38554672E-02 0.90416986E+02</pdfrwt>
<pdfrwt beam="1">  1       -3 0.12546897E-01 0.90416986E+02</pdfrwt>
<totfact> 0.34974781E+04</totfact>
</mgrwt>
</event>
<event>
 5    1  0.4006808E+001  0.8913617E+02  0.7546771E-02  0.1304957E+00
          2   -1    0    0  501    0  0.00000000000E+00  0.00000000000E+00  0.13485801259E+03  0.13485801259E+03  0.00000000000E+00 0. -1.
         -2   -1    0    0    0  501 -0.00000000000E+00 -0.00000000000E+00 -0.14728930905E+02  0.14728930905E+02  0.00000000000E+00 0.  1.
         23    2    1    2    0    0  0.00000000000E+00  0.00000000000E+00  0.12012908168E+03  0.14958694349E+03  0.89136173338E+02 0.  0.
          2    1    3    3  502    0 -0.86573761698E+01 -0.42865963586E+02  0.45640610765E+02  0.63210017777E+02  0.00000000000E+00 0.  1.
         -2    1    3    3    0  502  0.86573761698E+01  0.42865963586E+02  0.74488470916E+02  0.86376925714E+02  0.00000000000E+00 0. -1.
<mgrwt>
<rscale>  0 0.89136173E+02</rscale>
<asrwt>0</asrwt>
<pdfrwt beam="1">  1        2 0.20747386E-01 0.89136173E+02</pdfrwt>
<pdfrwt beam="2">  1       -2 0.22659895E-02 0.89136173E+02</pdfrwt>
<totfact> 0.14346015E+05</totfact>
</mgrwt>
</event>
<event>
 5    1  0.4006808E+001  0.9193622E+02  0.7546771E-02  0.1298229E+00
          1   -1    0    0  501    0  0.00000000000E+00  0.00000000000E+00  0.16094673903E+03  0.16094673903E+03  0.00000000000E+00 0. -1.
         -1   -1    0    0    0  501 -0.00000000000E+00 -0.00000000000E+00 -0.13128984398E+02  0.13128984398E+02  0.00000000000E+00 0.  1.
         23    2    1    2    0    0  0.00000000000E+00  0.00000000000E+00  0.14781775464E+03  0.17407572343E+03  0.91936221929E+02 0.  0.
          2    1    3    3  502    0  0.21362581166E+02 -0.11526129900E+02  0.14782232754E+03  0.14980204292E+03  0.00000000000E+00 0. -1.
         -2    1    3    3    0  502 -0.21362581166E+02  0.11526129900E+02 -0.45729036210E-02  0.24273680509E+02  0.00000000000E+00 0.  1.
<mgrwt>
<rscale>  0 0.91936222E+02</rscale>
<asrwt>0</asrwt>
<pdfrwt beam="1">  1        1 0.24761035E-01 0.91936222E+02</pdfrwt>
<pdfrwt beam="2">  1       -1 0.20198439E-02 0.91936222E+02</pdfrwt>
<totfact> 0.11109185E+05</totfact>
</mgrwt>
</event>
<event>
 5    1  0.4006808E+001  0.9260861E+02  0.7546771E-02  0.1296655E+00
          1   -1    0    0  501    0  0.00000000000E+00  0.00000000000E+00  0.18394056382E+02  0.18394056382E+02  0.00000000000E+00 0. -1.
         -1   -1    0    0    0  501 -0.00000000000E+00 -0.00000000000E+00 -0.11656421366E+03  0.11656421366E+03  0.00000000000E+00 0.  1.
         23    2    1    2    0    0  0.00000000000E+00  0.00000000000E+00 -0.98170157281E+02  0.13495827004E+03  0.92608611224E+02 0.  0.
          2    1    3    3  502    0 -0.62346040467E+01 -0.39369845636E+02 -0.14746205899E+02  0.42500654365E+02  0.00000000000E+00 0. -1.
         -2    1    3    3    0  502  0.62346040467E+01  0.39369845636E+02 -0.83423951381E+02  0.92457615679E+02  0.00000000000E+00 0.  1.
<mgrwt>
<rscale>  0 0.92608611E+02</rscale>
<asrwt>0</asrwt>
<pdfrwt beam="1">  1        1 0.28298549E-02 0.92608611E+02</pdfrwt>
<pdfrwt beam="2">  1       -1 0.17932956E-01 0.92608611E+02</pdfrwt>
<totfact> 0.75874106E+04</totfact>
</mgrwt>
</event>
<event>
 5    1  0.4006808E+001  0.9694011E+02  0.7546771E-02  0.1286865E+00
          1   -1    0    0  501    0  0.00000000000E+00  0.00000000000E+00  0.99637825901E+02  0.99637825901E+02  0.00000000000E+00 0. -1.
         -1   -1    0    0    0  501 -0.00000000000E+00 -0.00000000000E+00 -0.23578856591E+02  0.23578856591E+02  0.00000000000E+00 0.  1.
         23    2    1    2    0    0  0.00000000000E+00  0.00000000000E+00  0.76058969310E+02  0.12321668249E+03  0.96940105384E+02 0.  0.
          2    1    3    3  502    0 -0.39484082017E+02 -0.99864695795E+01  0.71432583846E+02  0.82227345466E+02  0.00000000000E+00 0. -1.
         -2    1    3    3    0  502  0.39484082017E+02  0.99864695795E+01  0.46263854643E+01  0.40989337026E+02  0.00000000000E+00 0.  1.
<mgrwt>
<rscale>  0 0.96940105E+02</rscale>
<asrwt>0</asrwt>
<pdfrwt beam="1">  1        1 0.15328896E-01 0.96940105E+02</pdfrwt>
<pdfrwt beam="2">  1       -1 0.36275165E-02 0.96940105E+02</pdfrwt>
<totfact> 0.88254098E+04</totfact>
</mgrwt>
</event>
<event>
 5    1  0.4006808E+001  0.8969524E+02  0.7546771E-02  0.1303591E+00
          1   -1    0    0  501    0  0.00000000000E+00  0.00000000000E+00  0.24813447767E+02  0.24813447767E+02  0.00000000000E+00 0. -1.
         -1   -1    0    0    0  501 -0.00000000000E+00 -0.00000000000E+00 -0.81057225033E+02  0.81057225033E+02  0.00000000000E+00 0.  1.
         23    2    1    2    0    0  0.00000000000E+00  0.00000000000E+00 -0.56243777266E+02  0.10587067280E+03  0.89695244456E+02 0.  0.
          2    1    3    3  502    0 -0.54761820632E+01 -0.36444939295E+02  0.20423099359E+01  0.36910610942E+02  0.00000000000E+00 0. -1.
         -2    1    3    3    0  502  0.54761820632E+01  0.36444939295E+02 -0.58286087202E+02  0.68960061858E+02  0.00000000000E+00 0.  1.
<mgrwt>
<rscale>  0 0.89695244E+02</rscale>
<asrwt>0</asrwt>
<pdfrwt beam="1">  1        1 0.38174535E-02 0.89695244E+02</pdfrwt>
<pdfrwt beam="2">  1       -1 0.12470342E-01 0.89695244E+02</pdfrwt>
<totfact> 0.88077548E+04</totfact>
</mgrwt>
</event>
<event>
 5    1  0.4006808E+001  0.9170267E+02  0.7546771E-02  0.1298780E+00
          1   -1    0    0  501    0  0.00000000000E+00  0.00000000000E+00  0.98364702842E+03  0.98364702842E+03  0.00000000000E+00 0. -1.
         -1   -1    0    0    0  501 -0.00000000000E+00 -0.00000000000E+00 -0.21372958576E+01  0.21372958576E+01  0.00000000000E+00 0.  1.
         23    2    1    2    0    0  0.00000000000E+00  0.00000000000E+00  0.98150973256E+03  0.98578432428E+03  0.91702665593E+02 0.  0.
          2    1    3    3  502    0 -0.26549432395E+02  0.12795249107E+02  0.86833942681E+03  0.86883942757E+03  0.00000000000E+00 0. -1.
         -2    1    3    3    0  502  0.26549432395E+02 -0.12795249107E+02  0.11317030576E+03  0.11694489670E+03  0.00000000000E+00 0.  1.
<mgrwt>
<rscale>  0 0.91702666E+02</rscale>
<asrwt>0</asrwt>
<pdfrwt beam="1">  1        1 0.15132995E+00 0.91702666E+02</pdfrwt>
<pdfrwt beam="2">  1       -1 0.32881553E-03 0.91702666E+02</pdfrwt>
<totfact> 0.13453374E+05</totfact>
</mgrwt>
</event>
<event>
 5    1  0.4006808E+001  0.9702929E+02  0.7546771E-02  0.1286670E+00
          3   -1    0    0  501    0  0.00000000000E+00  0.00000000000E+00  0.17461708213E+02  0.17461708213E+02  0.00000000000E+00 0. -1.
         -3   -1    0    0    0  501 -0.00000000000E+00 -0.00000000000E+00 -0.13479041849E+03  0.13479041849E+03  0.00000000000E+00 0.  1.
         23    2    1    2    0    0  0.00000000000E+00  0.00000000000E+00 -0.11732871027E+03  0.15225212670E+03  0.97029293671E+02 0.  0.
          2    1    3    3  502    0  0.32996371017E+02 -0.43355035147E+01 -0.32733351861E+01  0.33440571381E+02  0.00000000000E+00 0. -1.
         -2    1    3    3    0  502 -0.32996371017E+02  0.43355035147E+01 -0.11405537509E+03  0.11881155532E+03  0.00000000000E+00 0.  1.
<mgrwt>
<rscale>  0 0.97029294E+02</rscale>
<asrwt>0</asrwt>
<pdfrwt beam="1">  1        3 0.26864165E-02 0.97029294E+02</pdfrwt>
<pdfrwt beam="2">  1       -3 0.20736988E-01 0.97029294E+02</pdfrwt>
<totfact> 0.26316728E+04</totfact>
</mgrwt>
</event>
<event>
 5    1  0.4006808E+001  0.7763788E+02  0.7546771E-02  0.1335892E+00
         -1   -1    0    0    0  501 -0.00000000000E+00  0.00000000000E+00  0.27139088570E+03  0.27139088570E+03  0.00000000000E+00 0.  1.
          1   -1    0    0  501    0  0.00000000000E+00 -0.00000000000E+00 -0.55525451778E+01  0.55525451778E+01  0.00000000000E+00 0. -1.
         23    2    1    2    0    0  0.00000000000E+00  0.00000000000E+00  0.26583834053E+03  0.27694343088E+03  0.77637881314E+02 0.  0.
          2    1    3    3  502    0 -0.13163405041E+02  0.31903433764E+02  0.69528189918E+02  0.77622635304E+02  0.00000000000E+00 0. -1.
         -2    1    3    3    0  502  0.13163405041E+02 -0.31903433764E+02  0.19631015061E+03  0.19932079558E+03  0.00000000000E+00 0.  1.
<mgrwt>
<rscale>  0 0.77637881E+02</rscale>
<asrwt>0</asrwt>
<pdfrwt beam="2">  1        1 0.85423793E-03 0.77637881E+02</pdfrwt>
<pdfrwt beam="1">  1       -1 0.41752434E-01 0.77637881E+02</pdfrwt>
<totfact> 0.95538757E+04</totfact>
</mgrwt>
</event>
<event>
 5    1  0.4006808E+001  0.9175534E+02  0.7546771E-02  0.1298656E+00
         -4   -1    0    0    0  501 -0.00000000000E+00  0.00000000000E+00  0.35585834427E+02  0.35585834427E+02  0.00000000000E+00 0.  1.
          4   -1    0    0  501    0  0.00000000000E+00 -0.00000000000E+00 -0.59146018079E+02  0.59146018079E+02  0.00000000000E+00 0. -1.
         23    2    1    2    0    0  0.00000000000E+00  0.00000000000E+00 -0.23560183653E+02  0.94731852506E+02  0.91755335679E+02 0.  0.
          2    1    3    3  502    0  0.33853732752E+02  0.49901520952E+01  0.19769069235E+02  0.39519526030E+02  0.00000000000E+00 0.  1.
         -2    1    3    3    0  502 -0.33853732752E+02 -0.49901520952E+01 -0.43329252887E+02  0.55212326477E+02  0.00000000000E+00 0. -1.
<mgrwt>
<rscale>  0 0.91755336E+02</rscale>
<asrwt>0</asrwt>
<pdfrwt beam="2">  1        4 0.90993873E-02 0.91755336E+02</pdfrwt>
<pdfrwt beam="1">  1       -4 0.54747438E-02 0.91755336E+02</pdfrwt>
<totfact> 0.26332212E+04</totfact>
</mgrwt>
</event>
<event>
 5    1  0.4006808E+001  0.9282243E+02  0.7546771E-02  0.1296157E+00
          4   -1    0    0  501    0  0.00000000000E+00  0.00000000000E+00  0.81995835400E+02  0.81995835400E+02  0.00000000000E+00 0. -1.
         -4   -1    0    0    0  501 -0.00000000000E+00 -0.00000000000E+00 -0.26269639137E+02  0.26269639137E+02  0.00000000000E+00 0.  1.
         23    2    1    2    0    0  0.00000000000E+00  0.00000000000E+00  0.55726196264E+02  0.10826547454E+03  0.92822432777E+02 0.  0.
          2    1    3    3  502    0 -0.15026829239E+02 -0.43909771263E+02  0.28279408405E+02  0.54347019690E+02  0.00000000000E+00 0.  1.
         -2    1    3    3    0  502  0.15026829239E+02  0.43909771263E+02  0.27446787858E+02  0.53918454847E+02  0.00000000000E+00 0. -1.
<mgrwt>
<rscale>  0 0.92822433E+02</rscale>
<asrwt>0</asrwt>
<pdfrwt beam="1">  1        4 0.12614744E-01 0.92822433E+02</pdfrwt>
<pdfrwt beam="2">  1       -4 0.40414830E-02 0.92822433E+02</pdfrwt>
<totfact> 0.24725690E+04</totfact>
</mgrwt>
</event>
<event>
 5    1  0.4006808E+001  0.9098084E+02  0.7546771E-02  0.1300494E+00
          1   -1    0    0  501    0  0.00000000000E+00  0.00000000000E+00  0.81747614493E+02  0.81747614493E+02  0.00000000000E+00 0. -1.
         -1   -1    0    0    0  501 -0.00000000000E+00 -0.00000000000E+00 -0.25314232421E+02  0.25314232421E+02  0.00000000000E+00 0.  1.
         23    2    1    2    0    0  0.00000000000E+00  0.00000000000E+00  0.56433382072E+02  0.10706184691E+03  0.90980835634E+02 0.  0.
          2    1    3    3  502    0 -0.36768886424E+02 -0.25363975861E+02  0.38346043926E+02  0.58870207789E+02  0.00000000000E+00 0. -1.
         -2    1    3    3    0  502  0.36768886424E+02  0.25363975861E+02  0.18087338146E+02  0.48191639125E+02  0.00000000000E+00 0.  1.
<mgrwt>
<rscale>  0 0.90980836E+02</rscale>
<asrwt>0</asrwt>
<pdfrwt beam="1">  1        1 0.12576556E-01 0.90980836E+02</pdfrwt>
<pdfrwt beam="2">  1       -1 0.38944973E-02 0.90980836E+02</pdfrwt>
<totfact> 0.10168781E+05</totfact>
</mgrwt>
</event>
<event>
 5    1  0.4006808E+001  0.9081259E+02  0.7546771E-02  0.1300896E+00
          2   -1    0    0  501    0  0.00000000000E+00  0.00000000000E+00  0.53062801899E+03  0.53062801899E+03  0.00000000000E+00 0.  1.
         -2   -1    0    0    0  501 -0.00000000000E+00 -0.00000000000E+00 -0.38854559631E+01  0.38854559631E+01  0.00000000000E+00 0. -1.
         23    2    1    2    0    0  0.00000000000E+00  0.00000000000E+00  0.52674256303E+03  0.53451347496E+03  0.90812593853E+02 0.  0.
          2    1    3    3  502    0 -0.31694969670E+02  0.19732393869E+02  0.11126973975E+03  0.11736649204E+03  0.00000000000E+00 0. -1.
         -2    1    3    3    0  502  0.31694969670E+02 -0.19732393869E+02  0.41547282328E+03  0.41714698292E+03  0.00000000000E+00 0.  1.
<mgrwt>
<rscale>  0 0.90812594E+02</rscale>
<asrwt>0</asrwt>
<pdfrwt beam="1">  1        2 0.81635022E-01 0.90812594E+02</pdfrwt>
<pdfrwt beam="2">  1       -2 0.59776288E-03 0.90812594E+02</pdfrwt>
<totfact> 0.22196064E+05</totfact>
</mgrwt>
</event>
<event>
 5    1  0.4006808E+001  0.9046040E+02  0.7546771E-02  0.1301741E+00
         -2   -1    0    0    0  501 -0.00000000000E+00  0.00000000000E+00  0.14344119518E+01  0.14344119518E+01  0.00000000000E+00 0.  1.
          2   -1    0    0  501    0  0.00000000000E+00 -0.00000000000E+00 -0.14262089353E+04  0.14262089353E+04  0.00000000000E+00 0. -1.
         23    2    1    2    0    0  0.00000000000E+00  0.00000000000E+00 -0.14247745233E+04  0.14276433472E+04  0.90460403328E+02 0.  0.
          2    1    3    3  502    0  0.26615091956E+02  0.20266615859E+02 -0.11928108224E+04  0.11932798318E+04  0.00000000000E+00 0. -1.
         -2    1    3    3    0  502 -0.26615091956E+02 -0.20266615859E+02 -0.23196370088E+03  0.23436351543E+03  0.00000000000E+00 0.  1.
<mgrwt>
<rscale>  0 0.90460403E+02</rscale>
<asrwt>0</asrwt>
<pdfrwt beam="2">  1        2 0.21941731E+00 0.90460403E+02</pdfrwt>
<pdfrwt beam="1">  1       -2 0.22067821E-03 0.90460403E+02</pdfrwt>
<totfact> 0.24511890E+05</totfact>
</mgrwt>
</event>
<event>
 5    1  0.4006808E+001  0.8009683E+02  0.7546771E-02  0.1328777E+00
         -2   -1    0    0    0  501 -0.00000000000E+00  0.00000000000E+00  0.20142017228E+01  0.20142017228E+01  0.00000000000E+00 0.  1.
          2   -1    0    0  501    0  0.00000000000E+00 -0.00000000000E+00 -0.79628339804E+03  0.79628339804E+03  0.00000000000E+00 0. -1.
         23    2    1    2    0    0  0.00000000000E+00  0.00000000000E+00 -0.79426919632E+03  0.79829759976E+03  0.80096826209E+02 0.  0.
          2    1    3    3  502    0  0.41165660478E+01 -0.39189186585E+02 -0.46840625349E+03  0.47006080114E+03  0.00000000000E+00 0. -1.
         -2    1    3    3    0  502 -0.41165660478E+01  0.39189186585E+02 -0.32586294282E+03  0.32823679862E+03  0.00000000000E+00 0.  1.
<mgrwt>
<rscale>  0 0.80096826E+02</rscale>
<asrwt>0</asrwt>
<pdfrwt beam="2">  1        2 0.12250530E+00 0.80096826E+02</pdfrwt>
<pdfrwt beam="1">  1       -2 0.30987677E-03 0.80096826E+02</pdfrwt>
<totfact> 0.34188511E+05</totfact>
</mgrwt>
</event>
<event>
 5    1  0.4006808E+001  0.9263786E+02  0.7546771E-02  0.1296587E+00
          1   -1    0    0  501    0  0.00000000000E+00  0.00000000000E+00  0.64635343029E+03  0.64635343029E+03  0.00000000000E+00 0. -1.
         -1   -1    0    0    0  501 -0.00000000000E+00 -0.00000000000E+00 -0.33193032952E+01  0.33193032952E+01  0.00000000000E+00 0.  1.
         23    2    1    2    0    0  0.00000000000E+00  0.00000000000E+00  0.64303412700E+03  0.64967273359E+03  0.92637855567E+02 0.  0.
          2    1    3    3  502    0  0.41712085699E+02 -0.17568442296E+02  0.39055001009E+03  0.39316390811E+03  0.00000000000E+00 0. -1.
         -2    1    3    3    0  502 -0.41712085699E+02  0.17568442296E+02  0.25248411691E+03  0.25650882548E+03  0.00000000000E+00 0.  1.
<mgrwt>
<rscale>  0 0.92637856E+02</rscale>
<asrwt>0</asrwt>
<pdfrwt beam="1">  1        1 0.99438889E-01 0.92637856E+02</pdfrwt>
<pdfrwt beam="2">  1       -1 0.51066256E-03 0.92637856E+02</pdfrwt>
<totfact> 0.13620328E+05</totfact>
</mgrwt>
</event>
<event>
 5    1  0.4006808E+001  0.9155513E+02  0.7546771E-02  0.1299129E+00
         -3   -1    0    0    0  501 -0.00000000000E+00  0.00000000000E+00  0.29295524391E+02  0.29295524391E+02  0.00000000000E+00 0.  1.
          3   -1    0    0  501    0  0.00000000000E+00 -0.00000000000E+00 -0.71532615779E+02  0.71532615779E+02  0.00000000000E+00 0. -1.
         23    2    1    2    0    0  0.00000000000E+00  0.00000000000E+00 -0.42237091388E+02  0.10082814017E+03  0.91555130721E+02 0.  0.
          2    1    3    3  502    0 -0.35093140171E+02 -0.24082640061E+02 -0.25566624352E+01  0.42638463412E+02  0.00000000000E+00 0. -1.
         -2    1    3    3    0  502  0.35093140171E+02  0.24082640061E+02 -0.39680428953E+02  0.58189676758E+02  0.00000000000E+00 0.  1.
<mgrwt>
<rscale>  0 0.91555131E+02</rscale>
<asrwt>0</asrwt>
<pdfrwt beam="2">  1        3 0.11005018E-01 0.91555131E+02</pdfrwt>
<pdfrwt beam="1">  1       -3 0.45070038E-02 0.91555131E+02</pdfrwt>
<totfact> 0.34221184E+04</totfact>
</mgrwt>
</event>
<event>
 5    1  0.4006808E+001  0.9134929E+02  0.7546771E-02  0.1299617E+00
         -2   -1    0    0    0  501 -0.00000000000E+00  0.00000000000E+00  0.32595322780E+03  0.32595322780E+03  0.00000000000E+00 0.  1.
          2   -1    0    0  501    0  0.00000000000E+00 -0.00000000000E+00 -0.64002223812E+01  0.64002223812E+01  0.00000000000E+00 0. -1.
         23    2    1    2    0    0  0.00000000000E+00  0.00000000000E+00  0.31955300541E+03  0.33235345018E+03  0.91349288859E+02 0.  0.
          2    1    3    3  502    0 -0.11513717730E+02 -0.42208733507E+02  0.20749617450E+03  0.21205849503E+03  0.00000000000E+00 0.  1.
         -2    1    3    3    0  502  0.11513717730E+02  0.42208733507E+02  0.11205683091E+03  0.12029495515E+03  0.00000000000E+00 0. -1.
<mgrwt>
<rscale>  0 0.91349289E+02</rscale>
<asrwt>0</asrwt>
<pdfrwt beam="2">  1        2 0.98464985E-03 0.91349289E+02</pdfrwt>
<pdfrwt beam="1">  1       -2 0.50146638E-01 0.91349289E+02</pdfrwt>
<totfact> 0.48377376E+04</totfact>
</mgrwt>
</event>
<event>
 5    1  0.4006808E+001  0.9090985E+02  0.7546771E-02  0.1300663E+00
         -2   -1    0    0    0  501 -0.00000000000E+00  0.00000000000E+00  0.47619239658E+01  0.47619239658E+01  0.00000000000E+00 0.  1.
          2   -1    0    0  501    0  0.00000000000E+00 -0.00000000000E+00 -0.43388975322E+03  0.43388975322E+03  0.00000000000E+00 0. -1.
         23    2    1    2    0    0  0.00000000000E+00  0.00000000000E+00 -0.42912782926E+03  0.43865167719E+03  0.90909845768E+02 0.  0.
          2    1    3    3  502    0  0.28000250909E+02  0.88871177259E+01 -0.38193085688E+03  0.38305896981E+03  0.00000000000E+00 0. -1.
         -2    1    3    3    0  502 -0.28000250909E+02 -0.88871177259E+01 -0.47196972375E+02  0.55592707380E+02  0.00000000000E+00 0.  1.
<mgrwt>
<rscale>  0 0.90909846E+02</rscale>
<asrwt>0</asrwt>
<pdfrwt beam="2">  1        2 0.66752280E-01 0.90909846E+02</pdfrwt>
<pdfrwt beam="1">  1       -2 0.73260357E-03 0.90909846E+02</pdfrwt>
<totfact> 0.20704073E+05</totfact>
</mgrwt>
</event>
<event>
 5    1  0.4006808E+001  0.9037946E+02  0.7546771E-02  0.1301935E+00
         -2   -1    0    0    0  501 -0.00000000000E+00  0.00000000000E+00  0.28880571885E+01  0.28880571885E+01  0.00000000000E+00 0.  1.
          2   -1    0    0  501    0  0.00000000000E+00 -0.00000000000E+00 -0.70708832119E+03  0.70708832119E+03  0.00000000000E+00 0. -1.
         23    2    1    2    0    0  0.00000000000E+00  0.00000000000E+00 -0.70420026400E+03  0.70997637838E+03  0.90379455828E+02 0.  0.
          2    1    3    3  502    0  0.34828792680E+02 -0.24619244971E+02 -0.46939719964E+03  0.47133096975E+03  0.00000000000E+00 0.  1.
         -2    1    3    3    0  502 -0.34828792680E+02  0.24619244971E+02 -0.23480306437E+03  0.23864540863E+03  0.00000000000E+00 0. -1.
<mgrwt>
<rscale>  0 0.90379456E+02</rscale>
<asrwt>0</asrwt>
<pdfrwt beam="2">  1        2 0.10878296E+00 0.90379456E+02</pdfrwt>
<pdfrwt beam="1">  1       -2 0.44431593E-03 0.90379456E+02</pdfrwt>
<totfact> 0.24326343E+05</totfact>
</mgrwt>
</event>
<event>
 5    1  0.4006808E+001  0.8699657E+02  0.7546771E-02  0.1310292E+00
          2   -1    0    0  501    0  0.00000000000E+00  0.00000000000E+00  0.78519693813E+01  0.78519693813E+01  0.00000000000E+00 0. -1.
         -2   -1    0    0    0  501 -0.00000000000E+00 -0.00000000000E+00 -0.24097148584E+03  0.24097148584E+03  0.00000000000E+00 0.  1.
         23    2    1    2    0    0  0.00000000000E+00  0.00000000000E+00 -0.23311951646E+03  0.24882345522E+03  0.86996568405E+02 0.  0.
          2    1    3    3  502    0 -0.17489711825E+01  0.33629160331E+02 -0.37808305598E+02  0.50630497696E+02  0.00000000000E+00 0. -1.
         -2    1    3    3    0  502  0.17489711825E+01 -0.33629160331E+02 -0.19531121086E+03  0.19819295752E+03  0.00000000000E+00 0.  1.
<mgrwt>
<rscale>  0 0.86996568E+02</rscale>
<asrwt>0</asrwt>
<pdfrwt beam="1">  1        2 0.12079954E-02 0.86996568E+02</pdfrwt>
<pdfrwt beam="2">  1       -2 0.37072534E-01 0.86996568E+02</pdfrwt>
<totfact> 0.64509829E+04</totfact>
</mgrwt>
</event>
<event>
 5    1  0.4006808E+001  0.8921868E+02  0.7546771E-02  0.1304755E+00
          1   -1    0    0  501    0  0.00000000000E+00  0.00000000000E+00  0.14811472052E+01  0.14811472052E+01  0.00000000000E+00 0. -1.
         -1   -1    0    0    0  501 -0.00000000000E+00 -0.00000000000E+00 -0.13435485706E+04  0.13435485706E+04  0.00000000000E+00 0.  1.
         23    2    1    2    0    0  0.00000000000E+00  0.00000000000E+00 -0.13420674234E+04  0.13450297178E+04  0.89218679894E+02 0.  0.
          2    1    3    3  502    0 -0.43808944413E+02 -0.39752431674E+01 -0.55926319237E+03  0.56099050305E+03  0.00000000000E+00 0. -1.
         -2    1    3    3    0  502  0.43808944413E+02  0.39752431674E+01 -0.78280423106E+03  0.78403921479E+03  0.00000000000E+00 0.  1.
<mgrwt>
<rscale>  0 0.89218680E+02</rscale>
<asrwt>0</asrwt>
<pdfrwt beam="1">  1        1 0.22786834E-03 0.89218680E+02</pdfrwt>
<pdfrwt beam="2">  1       -1 0.20670020E+00 0.89218680E+02</pdfrwt>
<totfact> 0.17809590E+04</totfact>
</mgrwt>
</event>
<event>
 5    1  0.4006808E+001  0.9199913E+02  0.7546771E-02  0.1298081E+00
          3   -1    0    0  501    0  0.00000000000E+00  0.00000000000E+00  0.20656736962E+02  0.20656736962E+02  0.00000000000E+00 0. -1.
         -3   -1    0    0    0  501 -0.00000000000E+00 -0.00000000000E+00 -0.10243436992E+03  0.10243436992E+03  0.00000000000E+00 0.  1.
         23    2    1    2    0    0  0.00000000000E+00  0.00000000000E+00 -0.81777632957E+02  0.12309110688E+03  0.91999126851E+02 0.  0.
          2    1    3    3  502    0 -0.18689239073E+02 -0.40273090759E+02 -0.56986106403E+02  0.72240056890E+02  0.00000000000E+00 0. -1.
         -2    1    3    3    0  502  0.18689239073E+02  0.40273090759E+02 -0.24791526553E+02  0.50851049992E+02  0.00000000000E+00 0.  1.
<mgrwt>
<rscale>  0 0.91999127E+02</rscale>
<asrwt>0</asrwt>
<pdfrwt beam="1">  1        3 0.31779595E-02 0.91999127E+02</pdfrwt>
<pdfrwt beam="2">  1       -3 0.15759134E-01 0.91999127E+02</pdfrwt>
<totfact> 0.32240575E+04</totfact>
</mgrwt>
</event>
<event>
 5    1  0.4006808E+001  0.9213888E+02  0.7546771E-02  0.1297753E+00
          3   -1    0    0  501    0  0.00000000000E+00  0.00000000000E+00  0.52105805039E+03  0.52105805039E+03  0.00000000000E+00 0. -1.
         -3   -1    0    0    0  501 -0.00000000000E+00 -0.00000000000E+00 -0.40732374777E+01  0.40732374777E+01  0.00000000000E+00 0.  1.
         23    2    1    2    0    0  0.00000000000E+00  0.00000000000E+00  0.51698481292E+03  0.52513128787E+03  0.92138877331E+02 0.  0.
          2    1    3    3  502    0 -0.22132526208E+02 -0.22230486421E+01  0.48842426776E+03  0.48893052267E+03  0.00000000000E+00 0. -1.
         -2    1    3    3    0  502  0.22132526208E+02  0.22230486421E+01  0.28560545159E+02  0.36200765205E+02  0.00000000000E+00 0.  1.
<mgrwt>
<rscale>  0 0.92138877E+02</rscale>
<asrwt>0</asrwt>
<pdfrwt beam="1">  1        3 0.80162724E-01 0.92138877E+02</pdfrwt>
<pdfrwt beam="2">  1       -3 0.62665233E-03 0.92138877E+02</pdfrwt>
<totfact> 0.16841057E+04</totfact>
</mgrwt>
</event>
<event>
 5    1  0.4006808E+001  0.9125395E+02  0.7546771E-02  0.1299843E+00
         -2   -1    0    0    0  501 -0.00000000000E+00  0.00000000000E+00  0.58968583700E+01  0.58968583700E+01  0.00000000000E+00 0.  1.
          2   -1    0    0  501    0  0.00000000000E+00 -0.00000000000E+00 -0.35303899237E+03  0.35303899237E+03  0.00000000000E+00 0. -1.
         23    2    1    2    0    0  0.00000000000E+00  0.00000000000E+00 -0.34714213400E+03  0.35893585074E+03  0.91253951961E+02 0.  0.
          2    1    3    3  502    0  0.33733486461E+02 -0.27992693900E+01 -0.53230612965E+02  0.63081551776E+02  0.00000000000E+00 0. -1.
         -2    1    3    3    0  502 -0.33733486461E+02  0.27992693900E+01 -0.29391152104E+03  0.29585429897E+03  0.00000000000E+00 0.  1.
<mgrwt>
<rscale>  0 0.91253952E+02</rscale>
<asrwt>0</asrwt>
<pdfrwt beam="2">  1        2 0.54313699E-01 0.91253952E+02</pdfrwt>
<pdfrwt beam="1">  1       -2 0.90720885E-03 0.91253952E+02</pdfrwt>
<totfact> 0.19037032E+05</totfact>
</mgrwt>
</event>
<event>
 5    1  0.4006808E+001  0.9312814E+02  0.7546771E-02  0.1295448E+00
         -2   -1    0    0    0  501 -0.00000000000E+00  0.00000000000E+00  0.65524766444E+01  0.65524766444E+01  0.00000000000E+00 0.  1.
          2   -1    0    0  501    0  0.00000000000E+00 -0.00000000000E+00 -0.33089973775E+03  0.33089973775E+03  0.00000000000E+00 0. -1.
         23    2    1    2    0    0  0.00000000000E+00  0.00000000000E+00 -0.32434726110E+03  0.33745221439E+03  0.93128144044E+02 0.  0.
          2    1    3    3  502    0 -0.43081452514E+02  0.10249223517E+02 -0.11002070225E+03  0.11859853733E+03  0.00000000000E+00 0. -1.
         -2    1    3    3    0  502  0.43081452514E+02 -0.10249223517E+02 -0.21432655886E+03  0.21885367707E+03  0.00000000000E+00 0.  1.
<mgrwt>
<rscale>  0 0.93128144E+02</rscale>
<asrwt>0</asrwt>
<pdfrwt beam="2">  1        2 0.50907662E-01 0.93128144E+02</pdfrwt>
<pdfrwt beam="1">  1       -2 0.10080731E-02 0.93128144E+02</pdfrwt>
<totfact> 0.17607946E+05</totfact>
</mgrwt>
</event>
<event>
 5    1  0.4006808E+001  0.9133096E+02  0.7546771E-02  0.1299660E+00
         -3   -1    0    0    0  501 -0.00000000000E+00  0.00000000000E+00  0.66240627767E+03  0.66240627767E+03  0.00000000000E+00 0.  1.
          3   -1    0    0  501    0  0.00000000000E+00 -0.00000000000E+00 -0.31481226862E+01  0.31481226862E+01  0.00000000000E+00 0. -1.
         23    2    1    2    0    0  0.00000000000E+00  0.00000000000E+00  0.65925815498E+03  0.66555440035E+03  0.91330963647E+02 0.  0.
          2    1    3    3  502    0  0.40896063413E+02  0.10246219090E+02  0.45749194038E+03  0.45943046103E+03  0.00000000000E+00 0.  1.
         -2    1    3    3    0  502 -0.40896063413E+02 -0.10246219090E+02  0.20176621460E+03  0.20612393932E+03  0.00000000000E+00 0. -1.
<mgrwt>
<rscale>  0 0.91330964E+02</rscale>
<asrwt>0</asrwt>
<pdfrwt beam="2">  1        3 0.48432709E-03 0.91330964E+02</pdfrwt>
<pdfrwt beam="1">  1       -3 0.10190855E+00 0.91330964E+02</pdfrwt>
<totfact> 0.14412487E+04</totfact>
</mgrwt>
</event>
<event>
 5    1  0.4006808E+001  0.9920638E+02  0.7546771E-02  0.1281974E+00
          1   -1    0    0  501    0  0.00000000000E+00  0.00000000000E+00  0.43800304372E+03  0.43800304372E+03  0.00000000000E+00 0. -1.
         -1   -1    0    0    0  501 -0.00000000000E+00 -0.00000000000E+00 -0.56174871210E+01  0.56174871210E+01  0.00000000000E+00 0.  1.
         23    2    1    2    0    0  0.00000000000E+00  0.00000000000E+00  0.43238555660E+03  0.44362053085E+03  0.99206379978E+02 0.  0.
          2    1    3    3  502    0  0.42475753839E+02 -0.99000627137E+01  0.32184930725E+03  0.32479097507E+03  0.00000000000E+00 0. -1.
         -2    1    3    3    0  502 -0.42475753839E+02  0.99000627137E+01  0.11053624935E+03  0.11882955578E+03  0.00000000000E+00 0.  1.
<mgrwt>
<rscale>  0 0.99206380E+02</rscale>
<asrwt>0</asrwt>
<pdfrwt beam="1">  1        1 0.67385057E-01 0.99206380E+02</pdfrwt>
<pdfrwt beam="2">  1       -1 0.86422913E-03 0.99206380E+02</pdfrwt>
<totfact> 0.10925981E+05</totfact>
</mgrwt>
</event>
<event>
 5    1  0.4006808E+001  0.9095786E+02  0.7546771E-02  0.1300549E+00
          1   -1    0    0  501    0  0.00000000000E+00  0.00000000000E+00  0.12407695475E+04  0.12407695475E+04  0.00000000000E+00 0. -1.
         -1   -1    0    0    0  501 -0.00000000000E+00 -0.00000000000E+00 -0.16669761015E+01  0.16669761015E+01  0.00000000000E+00 0.  1.
         23    2    1    2    0    0  0.00000000000E+00  0.00000000000E+00  0.12391025714E+04  0.12424365236E+04  0.90957862403E+02 0.  0.
          2    1    3    3  502    0 -0.25091223256E+02  0.28577904546E+02  0.96023593898E+03  0.96098872242E+03  0.00000000000E+00 0. -1.
         -2    1    3    3    0  502  0.25091223256E+02 -0.28577904546E+02  0.27886663244E+03  0.28144780120E+03  0.00000000000E+00 0.  1.
<mgrwt>
<rscale>  0 0.90957862E+02</rscale>
<asrwt>0</asrwt>
<pdfrwt beam="1">  1        1 0.19088688E+00 0.90957862E+02</pdfrwt>
<pdfrwt beam="2">  1       -1 0.25645885E-03 0.90957862E+02</pdfrwt>
<totfact> 0.12602360E+05</totfact>
</mgrwt>
</event>
<event>
 5    1  0.4006808E+001  0.9105387E+02  0.7546771E-02  0.1300319E+00
         -4   -1    0    0    0  501 -0.00000000000E+00  0.00000000000E+00  0.10978626502E+03  0.10978626502E+03  0.00000000000E+00 0.  1.
          4   -1    0    0  501    0  0.00000000000E+00 -0.00000000000E+00 -0.18879428264E+02  0.18879428264E+02  0.00000000000E+00 0. -1.
         23    2    1    2    0    0  0.00000000000E+00  0.00000000000E+00  0.90906836759E+02  0.12866569329E+03  0.91053872294E+02 0.  0.
          2    1    3    3  502    0 -0.39360306416E+02  0.21111134166E+02  0.32990457617E+02  0.55527326613E+02  0.00000000000E+00 0. -1.
         -2    1    3    3    0  502  0.39360306416E+02 -0.21111134166E+02  0.57916379142E+02  0.73138366675E+02  0.00000000000E+00 0.  1.
<mgrwt>
<rscale>  0 0.91053872E+02</rscale>
<asrwt>0</asrwt>
<pdfrwt beam="2">  1        4 0.29045275E-02 0.91053872E+02</pdfrwt>
<pdfrwt beam="1">  1       -4 0.16890194E-01 0.91053872E+02</pdfrwt>
<totfact> 0.24881187E+04</totfact>
</mgrwt>
</event>
<event>
 5    1  0.4006808E+001  0.9003557E+02  0.7546771E-02  0.1302766E+00
         -4   -1    0    0    0  501 -0.00000000000E+00  0.00000000000E+00  0.21722054738E+03  0.21722054738E+03  0.00000000000E+00 0.  1.
          4   -1    0    0  501    0  0.00000000000E+00 -0.00000000000E+00 -0.93296937044E+01  0.93296937044E+01  0.00000000000E+00 0. -1.
         23    2    1    2    0    0  0.00000000000E+00  0.00000000000E+00  0.20789085367E+03  0.22655024108E+03  0.90035574599E+02 0.  0.
          2    1    3    3  502    0 -0.40806418784E+02 -0.11545641834E+02  0.65939893026E+02  0.78399841528E+02  0.00000000000E+00 0. -1.
         -2    1    3    3    0  502  0.40806418784E+02  0.11545641834E+02  0.14195096065E+03  0.14815039955E+03  0.00000000000E+00 0.  1.
<mgrwt>
<rscale>  0 0.90035575E+02</rscale>
<asrwt>0</asrwt>
<pdfrwt beam="2">  1        4 0.14353377E-02 0.90035575E+02</pdfrwt>
<pdfrwt beam="1">  1       -4 0.33418542E-01 0.90035575E+02</pdfrwt>
<totfact> 0.21019921E+04</totfact>
</mgrwt>
</event>
<event>
 5    1  0.4006808E+001  0.9340173E+02  0.7546771E-02  0.1294817E+00
          1   -1    0    0  501    0  0.00000000000E+00  0.00000000000E+00  0.16884754723E+04  0.16884754723E+04  0.00000000000E+00 0. -1.
         -1   -1    0    0    0  501 -0.00000000000E+00 -0.00000000000E+00 -0.12916805362E+01  0.12916805362E+01  0.00000000000E+00 0.  1.
         23    2    1    2    0    0  0.00000000000E+00  0.00000000000E+00  0.16871837918E+04  0.16897671528E+04  0.93401732393E+02 0.  0.
          2    1    3    3  502    0  0.24240976813E+02  0.28312743238E+02  0.13526433962E+04  0.13531568252E+04  0.00000000000E+00 0. -1.
         -2    1    3    3    0  502 -0.24240976813E+02 -0.28312743238E+02  0.33454039559E+03  0.33661032763E+03  0.00000000000E+00 0.  1.
<mgrwt>
<rscale>  0 0.93401732E+02</rscale>
<asrwt>0</asrwt>
<pdfrwt beam="1">  1        1 0.25976369E+00 0.93401732E+02</pdfrwt>
<pdfrwt beam="2">  1       -1 0.19872143E-03 0.93401732E+02</pdfrwt>
<totfact> 0.92789775E+04</totfact>
</mgrwt>
</event>
<event>
 5    1  0.4006808E+001  0.9166812E+02  0.7546771E-02  0.1298862E+00
         -2   -1    0    0    0  501 -0.00000000000E+00  0.00000000000E+00  0.35101327332E+03  0.35101327332E+03  0.00000000000E+00 0.  1.
          2   -1    0    0  501    0  0.00000000000E+00 -0.00000000000E+00 -0.59848474227E+01  0.59848474227E+01  0.00000000000E+00 0. -1.
         23    2    1    2    0    0  0.00000000000E+00  0.00000000000E+00  0.34502842590E+03  0.35699812074E+03  0.91668116249E+02 0.  0.
          2    1    3    3  502    0  0.11426637670E+00  0.27111921344E+02  0.31643513544E+03  0.31759449661E+03  0.00000000000E+00 0.  1.
         -2    1    3    3    0  502 -0.11426637670E+00 -0.27111921344E+02  0.28593290462E+02  0.39403624138E+02  0.00000000000E+00 0. -1.
<mgrwt>
<rscale>  0 0.91668116E+02</rscale>
<asrwt>0</asrwt>
<pdfrwt beam="2">  1        2 0.92074603E-03 0.91668116E+02</pdfrwt>
<pdfrwt beam="1">  1       -2 0.54002026E-01 0.91668116E+02</pdfrwt>
<totfact> 0.45831721E+04</totfact>
</mgrwt>
</event>
<event>
 5    1  0.4006808E+001  0.9079722E+02  0.7546771E-02  0.1300933E+00
          1   -1    0    0  501    0  0.00000000000E+00  0.00000000000E+00  0.93483575649E+03  0.93483575649E+03  0.00000000000E+00 0. -1.
         -1   -1    0    0    0  501 -0.00000000000E+00 -0.00000000000E+00 -0.22047014685E+01  0.22047014685E+01  0.00000000000E+00 0.  1.
         23    2    1    2    0    0  0.00000000000E+00  0.00000000000E+00  0.93263105502E+03  0.93704045796E+03  0.90797219453E+02 0.  0.
          2    1    3    3  502    0  0.42216718606E+02  0.15953082440E+01  0.63784037959E+03  0.63923794175E+03  0.00000000000E+00 0. -1.
         -2    1    3    3    0  502 -0.42216718606E+02 -0.15953082440E+01  0.29479067544E+03  0.29780251621E+03  0.00000000000E+00 0.  1.
<mgrwt>
<rscale>  0 0.90797219E+02</rscale>
<asrwt>0</asrwt>
<pdfrwt beam="1">  1        1 0.14382057E+00 0.90797219E+02</pdfrwt>
<pdfrwt beam="2">  1       -1 0.33918559E-03 0.90797219E+02</pdfrwt>
<totfact> 0.13971465E+05</totfact>
</mgrwt>
</event>
<event>
 5    1  0.4006808E+001  0.9031482E+02  0.7546771E-02  0.1302091E+00
          1   -1    0    0  501    0  0.00000000000E+00  0.00000000000E+00  0.20013979646E+02  0.20013979646E+02  0.00000000000E+00 0. -1.
         -1   -1    0    0    0  501 -0.00000000000E+00 -0.00000000000E+00 -0.10188837380E+03  0.10188837380E+03  0.00000000000E+00 0.  1.
         23    2    1    2    0    0  0.00000000000E+00  0.00000000000E+00 -0.81874394153E+02  0.12190235345E+03  0.90314823576E+02 0.  0.
          2    1    3    3  502    0  0.36621550727E+02  0.16591375089E+02 -0.13184171333E+02  0.42311157851E+02  0.00000000000E+00 0. -1.
         -2    1    3    3    0  502 -0.36621550727E+02 -0.16591375089E+02 -0.68690222821E+02  0.79591195594E+02  0.00000000000E+00 0.  1.
<mgrwt>
<rscale>  0 0.90314824E+02</rscale>
<asrwt>0</asrwt>
<pdfrwt beam="1">  1        1 0.30790738E-02 0.90314824E+02</pdfrwt>
<pdfrwt beam="2">  1       -1 0.15675135E-01 0.90314824E+02</pdfrwt>
<totfact> 0.83093899E+04</totfact>
</mgrwt>
</event>
<event>
 5    1  0.4006808E+001  0.9065348E+02  0.7546771E-02  0.1301277E+00
          1   -1    0    0  501    0  0.00000000000E+00  0.00000000000E+00  0.58548430148E+02  0.58548430148E+02  0.00000000000E+00 0. -1.
         -1   -1    0    0    0  501 -0.00000000000E+00 -0.00000000000E+00 -0.35090834992E+02  0.35090834992E+02  0.00000000000E+00 0.  1.
         23    2    1    2    0    0  0.00000000000E+00  0.00000000000E+00  0.23457595156E+02  0.93639265140E+02  0.90653478728E+02 0.  0.
          2    1    3    3  502    0 -0.11343944123E+02  0.26528630014E+02  0.47838157578E+02  0.55865397153E+02  0.00000000000E+00 0. -1.
         -2    1    3    3    0  502  0.11343944123E+02 -0.26528630014E+02 -0.24380562422E+02  0.37773867987E+02  0.00000000000E+00 0.  1.
<mgrwt>
<rscale>  0 0.90653479E+02</rscale>
<asrwt>0</asrwt>
<pdfrwt beam="1">  1        1 0.90074508E-02 0.90653479E+02</pdfrwt>
<pdfrwt beam="2">  1       -1 0.53985900E-02 0.90653479E+02</pdfrwt>
<totfact> 0.97560671E+04</totfact>
</mgrwt>
</event>
<event>
 5    1  0.4006808E+001  0.9097447E+02  0.7546771E-02  0.1300509E+00
          1   -1    0    0  501    0  0.00000000000E+00  0.00000000000E+00  0.57028877206E+01  0.57028877206E+01  0.00000000000E+00 0. -1.
         -1   -1    0    0    0  501 -0.00000000000E+00 -0.00000000000E+00 -0.36281420892E+03  0.36281420892E+03  0.00000000000E+00 0.  1.
         23    2    1    2    0    0  0.00000000000E+00  0.00000000000E+00 -0.35711132120E+03  0.36851709664E+03  0.90974473275E+02 0.  0.
          2    1    3    3  502    0 -0.38914493687E+02 -0.23411965141E+02 -0.18898651659E+03  0.19436656447E+03  0.00000000000E+00 0.  1.
         -2    1    3    3    0  502  0.38914493687E+02  0.23411965141E+02 -0.16812480460E+03  0.17415053216E+03  0.00000000000E+00 0. -1.
<mgrwt>
<rscale>  0 0.90974473E+02</rscale>
<asrwt>0</asrwt>
<pdfrwt beam="1">  1        1 0.87736730E-03 0.90974473E+02</pdfrwt>
<pdfrwt beam="2">  1       -1 0.55817573E-01 0.90974473E+02</pdfrwt>
<totfact> 0.56191409E+04</totfact>
</mgrwt>
</event>
<event>
 5    1  0.4006808E+001  0.8486642E+02  0.7546771E-02  0.1315782E+00
         -1   -1    0    0    0  501 -0.00000000000E+00  0.00000000000E+00  0.43803562070E+01  0.43803562070E+01  0.00000000000E+00 0.  1.
          1   -1    0    0  501    0  0.00000000000E+00 -0.00000000000E+00 -0.41105729093E+03  0.41105729093E+03  0.00000000000E+00 0. -1.
         23    2    1    2    0    0  0.00000000000E+00  0.00000000000E+00 -0.40667693473E+03  0.41543764714E+03  0.84866421057E+02 0.  0.
          2    1    3    3  502    0 -0.16983853133E+02  0.37925341144E+02 -0.16128689712E+03  0.16655403313E+03  0.00000000000E+00 0.  1.
         -2    1    3    3    0  502  0.16983853133E+02 -0.37925341144E+02 -0.24539003760E+03  0.24888361401E+03  0.00000000000E+00 0. -1.
<mgrwt>
<rscale>  0 0.84866421E+02</rscale>
<asrwt>0</asrwt>
<pdfrwt beam="2">  1        1 0.63239583E-01 0.84866421E+02</pdfrwt>
<pdfrwt beam="1">  1       -1 0.67390096E-03 0.84866421E+02</pdfrwt>
<totfact> 0.16378027E+05</totfact>
</mgrwt>
</event>
<event>
 5    1  0.4006808E+001  0.9217695E+02  0.7546771E-02  0.1297664E+00
         -1   -1    0    0    0  501 -0.00000000000E+00  0.00000000000E+00  0.53925182463E+01  0.53925182463E+01  0.00000000000E+00 0.  1.
          1   -1    0    0  501    0  0.00000000000E+00 -0.00000000000E+00 -0.39390644635E+03  0.39390644635E+03  0.00000000000E+00 0. -1.
         23    2    1    2    0    0  0.00000000000E+00  0.00000000000E+00 -0.38851392811E+03  0.39929896460E+03  0.92176953720E+02 0.  0.
          2    1    3    3  502    0 -0.44657717007E+02  0.51135111343E+01 -0.23836727432E+03  0.24256837624E+03  0.00000000000E+00 0. -1.
         -2    1    3    3    0  502  0.44657717007E+02 -0.51135111343E+01 -0.15014665378E+03  0.15673058836E+03  0.00000000000E+00 0.  1.
<mgrwt>
<rscale>  0 0.92176954E+02</rscale>
<asrwt>0</asrwt>
<pdfrwt beam="2">  1        1 0.60601017E-01 0.92176954E+02</pdfrwt>
<pdfrwt beam="1">  1       -1 0.82961784E-03 0.92176954E+02</pdfrwt>
<totfact> 0.13070431E+05</totfact>
</mgrwt>
</event>
<event>
 5    1  0.4006808E+001  0.8998860E+02  0.7546771E-02  0.1302879E+00
         -1   -1    0    0    0  501 -0.00000000000E+00  0.00000000000E+00  0.42310096948E+02  0.42310096948E+02  0.00000000000E+00 0.  1.
          1   -1    0    0  501    0  0.00000000000E+00 -0.00000000000E+00 -0.47848788101E+02  0.47848788101E+02  0.00000000000E+00 0. -1.
         23    2    1    2    0    0  0.00000000000E+00  0.00000000000E+00 -0.55386911523E+01  0.90158885049E+02  0.89988596242E+02 0.  0.
          2    1    3    3  502    0 -0.33382170866E+02 -0.61891536667E-01 -0.32994524567E+02  0.46936252659E+02  0.00000000000E+00 0. -1.
         -2    1    3    3    0  502  0.33382170866E+02  0.61891536667E-01  0.27455833414E+02  0.43222632390E+02  0.00000000000E+00 0.  1.
<mgrwt>
<rscale>  0 0.89988596E+02</rscale>
<asrwt>0</asrwt>
<pdfrwt beam="2">  1        1 0.73613520E-02 0.89988596E+02</pdfrwt>
<pdfrwt beam="1">  1       -1 0.65092457E-02 0.89988596E+02</pdfrwt>
<totfact> 0.96626355E+04</totfact>
</mgrwt>
</event>
<event>
 5    1  0.4006808E+001  0.9267672E+02  0.7546771E-02  0.1296496E+00
         -2   -1    0    0    0  501 -0.00000000000E+00  0.00000000000E+00  0.12818121833E+03  0.12818121833E+03  0.00000000000E+00 0. -1.
          2   -1    0    0  501    0  0.00000000000E+00 -0.00000000000E+00 -0.16751624770E+02  0.16751624770E+02  0.00000000000E+00 0.  1.
         23    2    1    2    0    0  0.00000000000E+00  0.00000000000E+00  0.11142959355E+03  0.14493284310E+03  0.92676721392E+02 0.  0.
          2    1    3    3  502    0  0.10505000082E+02 -0.25434765272E+02  0.11401868442E+03  0.11729255180E+03  0.00000000000E+00 0. -1.
         -2    1    3    3    0  502 -0.10505000082E+02  0.25434765272E+02 -0.25890908677E+01  0.27640291292E+02  0.00000000000E+00 0.  1.
<mgrwt>
<rscale>  0 0.92676721E+02</rscale>
<asrwt>0</asrwt>
<pdfrwt beam="2">  1        2 0.25771731E-02 0.92676721E+02</pdfrwt>
<pdfrwt beam="1">  1       -2 0.19720187E-01 0.92676721E+02</pdfrwt>
<totfact> 0.70824948E+04</totfact>
</mgrwt>
</event>
<event>
 5    1  0.4006808E+001  0.9120619E+02  0.7546771E-02  0.1299957E+00
          3   -1    0    0  501    0  0.00000000000E+00  0.00000000000E+00  0.43822708495E+01  0.43822708495E+01  0.00000000000E+00 0. -1.
         -3   -1    0    0    0  501 -0.00000000000E+00 -0.00000000000E+00 -0.47455809317E+03  0.47455809317E+03  0.00000000000E+00 0.  1.
         23    2    1    2    0    0  0.00000000000E+00  0.00000000000E+00 -0.47017582232E+03  0.47894036402E+03  0.91206186151E+02 0.  0.
          2    1    3    3  502    0  0.15439957185E+02 -0.39813400939E+02 -0.15104553416E+03  0.15696576876E+03  0.00000000000E+00 0. -1.
         -2    1    3    3    0  502 -0.15439957185E+02  0.39813400939E+02 -0.31913028815E+03  0.32197459526E+03  0.00000000000E+00 0.  1.
<mgrwt>
<rscale>  0 0.91206186E+02</rscale>
<asrwt>0</asrwt>
<pdfrwt beam="1">  1        3 0.67419540E-03 0.91206186E+02</pdfrwt>
<pdfrwt beam="2">  1       -3 0.73008950E-01 0.91206186E+02</pdfrwt>
<totfact> 0.18397651E+04</totfact>
</mgrwt>
</event>
<event>
 5    1  0.4006808E+001  0.8954122E+02  0.7546771E-02  0.1303967E+00
          1   -1    0    0  501    0  0.00000000000E+00  0.00000000000E+00  0.18301961587E+03  0.18301961587E+03  0.00000000000E+00 0. -1.
         -1   -1    0    0    0  501 -0.00000000000E+00 -0.00000000000E+00 -0.10951873509E+02  0.10951873509E+02  0.00000000000E+00 0.  1.
         23    2    1    2    0    0  0.00000000000E+00  0.00000000000E+00  0.17206774236E+03  0.19397148938E+03  0.89541223639E+02 0.  0.
          2    1    3    3  502    0  0.37674536724E+02 -0.24181656647E+02  0.87189226767E+02  0.98010634626E+02  0.00000000000E+00 0. -1.
         -2    1    3    3    0  502 -0.37674536724E+02  0.24181656647E+02  0.84878515589E+02  0.95960854749E+02  0.00000000000E+00 0.  1.
<mgrwt>
<rscale>  0 0.89541224E+02</rscale>
<asrwt>0</asrwt>
<pdfrwt beam="1">  1        1 0.28156862E-01 0.89541224E+02</pdfrwt>
<pdfrwt beam="2">  1       -1 0.16849038E-02 0.89541224E+02</pdfrwt>
<totfact> 0.12218639E+05</totfact>
</mgrwt>
</event>
<event>
 5    1  0.4006808E+001  0.9274662E+02  0.7546771E-02  0.1296333E+00
         -4   -1    0    0    0  501 -0.00000000000E+00  0.00000000000E+00  0.38199130604E+03  0.38199130604E+03  0.00000000000E+00 0.  1.
          4   -1    0    0  501    0  0.00000000000E+00 -0.00000000000E+00 -0.56296673363E+01  0.56296673363E+01  0.00000000000E+00 0. -1.
         23    2    1    2    0    0  0.00000000000E+00  0.00000000000E+00  0.37636163870E+03  0.38762097337E+03  0.92746622113E+02 0.  0.
          2    1    3    3  502    0  0.20164263457E+02  0.26232712912E+02  0.52385171597E+02  0.61959333040E+02  0.00000000000E+00 0. -1.
         -2    1    3    3    0  502 -0.20164263457E+02 -0.26232712912E+02  0.32397646710E+03  0.32566164033E+03  0.00000000000E+00 0.  1.
<mgrwt>
<rscale>  0 0.92746622E+02</rscale>
<asrwt>0</asrwt>
<pdfrwt beam="2">  1        4 0.86610296E-03 0.92746622E+02</pdfrwt>
<pdfrwt beam="1">  1       -4 0.58767873E-01 0.92746622E+02</pdfrwt>
<totfact> 0.14759916E+04</totfact>
</mgrwt>
</event>
<event>
 5    1  0.4006808E+001  0.9002551E+02  0.7546771E-02  0.1302790E+00
          1   -1    0    0  501    0  0.00000000000E+00  0.00000000000E+00  0.38233416960E+03  0.38233416960E+03  0.00000000000E+00 0. -1.
         -1   -1    0    0    0  501 -0.00000000000E+00 -0.00000000000E+00 -0.52994168547E+01  0.52994168547E+01  0.00000000000E+00 0.  1.
         23    2    1    2    0    0  0.00000000000E+00  0.00000000000E+00  0.37703475275E+03  0.38763358645E+03  0.90025510662E+02 0.  0.
          2    1    3    3  502    0  0.11592567404E+02  0.35664136647E+02  0.81318049027E+02  0.89548553084E+02  0.00000000000E+00 0.  1.
         -2    1    3    3    0  502 -0.11592567404E+02 -0.35664136647E+02  0.29571670372E+03  0.29808503337E+03  0.00000000000E+00 0. -1.
<mgrwt>
<rscale>  0 0.90025511E+02</rscale>
<asrwt>0</asrwt>
<pdfrwt beam="1">  1        1 0.58820620E-01 0.90025511E+02</pdfrwt>
<pdfrwt beam="2">  1       -1 0.81529520E-03 0.90025511E+02</pdfrwt>
<totfact> 0.13846972E+05</totfact>
</mgrwt>
</event>
<event>
 5    1  0.4006808E+001  0.8144662E+02  0.7546771E-02  0.1324996E+00
          3   -1    0    0  501    0  0.00000000000E+00  0.00000000000E+00  0.38583103060E+03  0.38583103060E+03  0.00000000000E+00 0. -1.
         -3   -1    0    0    0  501 -0.00000000000E+00 -0.00000000000E+00 -0.42982231504E+01  0.42982231504E+01  0.00000000000E+00 0.  1.
         23    2    1    2    0    0  0.00000000000E+00  0.00000000000E+00  0.38153280745E+03  0.39012925375E+03  0.81446617312E+02 0.  0.
          2    1    3    3  502    0  0.19668001514E+02  0.35654052557E+02  0.18794835053E+03  0.19230866911E+03  0.00000000000E+00 0.  1.
         -2    1    3    3    0  502 -0.19668001514E+02 -0.35654052557E+02  0.19358445692E+03  0.19782058464E+03  0.00000000000E+00 0. -1.
<mgrwt>
<rscale>  0 0.81446617E+02</rscale>
<asrwt>0</asrwt>
<pdfrwt beam="1">  1        3 0.59358593E-01 0.81446617E+02</pdfrwt>
<pdfrwt beam="2">  1       -3 0.66126540E-03 0.81446617E+02</pdfrwt>
<totfact> 0.28226278E+04</totfact>
</mgrwt>
</event>
<event>
 5    1  0.4006808E+001  0.9166956E+02  0.7546771E-02  0.1298858E+00
          2   -1    0    0  501    0  0.00000000000E+00  0.00000000000E+00  0.13319830619E+02  0.13319830619E+02  0.00000000000E+00 0. -1.
         -2   -1    0    0    0  501 -0.00000000000E+00 -0.00000000000E+00 -0.15772177184E+03  0.15772177184E+03  0.00000000000E+00 0.  1.
         23    2    1    2    0    0  0.00000000000E+00  0.00000000000E+00 -0.14440194122E+03  0.17104160246E+03  0.91669564980E+02 0.  0.
          2    1    3    3  502    0  0.20251119073E+01 -0.30746657929E+02 -0.88892820622E+01  0.32069882875E+02  0.00000000000E+00 0. -1.
         -2    1    3    3    0  502 -0.20251119073E+01  0.30746657929E+02 -0.13551265916E+03  0.13897171958E+03  0.00000000000E+00 0.  1.
<mgrwt>
<rscale>  0 0.91669565E+02</rscale>
<asrwt>0</asrwt>
<pdfrwt beam="1">  1        2 0.20492045E-02 0.91669565E+02</pdfrwt>
<pdfrwt beam="2">  1       -2 0.24264890E-01 0.91669565E+02</pdfrwt>
<totfact> 0.67641988E+04</totfact>
</mgrwt>
</event>
<event>
 5    1  0.4006808E+001  0.9144251E+02  0.7546771E-02  0.1299396E+00
         -2   -1    0    0    0  501 -0.00000000000E+00  0.00000000000E+00  0.31541293430E+01  0.31541293430E+01  0.00000000000E+00 0.  1.
          2   -1    0    0  501    0  0.00000000000E+00 -0.00000000000E+00 -0.66276074987E+03  0.66276074987E+03  0.00000000000E+00 0. -1.
         23    2    1    2    0    0  0.00000000000E+00  0.00000000000E+00 -0.65960662053E+03  0.66591487922E+03  0.91442509339E+02 0.  0.
          2    1    3    3  502    0  0.30506654845E+02  0.10717217775E+02 -0.94400432265E+02  0.99784549699E+02  0.00000000000E+00 0.  1.
         -2    1    3    3    0  502 -0.30506654845E+02 -0.10717217775E+02 -0.56520618826E+03  0.56613032952E+03  0.00000000000E+00 0. -1.
<mgrwt>
<rscale>  0 0.91442509E+02</rscale>
<asrwt>0</asrwt>
<pdfrwt beam="2">  1        2 0.10196337E+00 0.91442509E+02</pdfrwt>
<pdfrwt beam="1">  1       -2 0.48524983E-03 0.91442509E+02</pdfrwt>
<totfact> 0.23222502E+05</totfact>
</mgrwt>
</event>
<event>
 5    1  0.4006808E+001  0.9010755E+02  0.7546771E-02  0.1302591E+00
          1   -1    0    0  501    0  0.00000000000E+00  0.00000000000E+00  0.27301608227E+02  0.27301608227E+02  0.00000000000E+00 0. -1.
         -1   -1    0    0    0  501 -0.00000000000E+00 -0.00000000000E+00 -0.74348835063E+02  0.74348835063E+02  0.00000000000E+00 0.  1.
         23    2    1    2    0    0  0.00000000000E+00  0.00000000000E+00 -0.47047226836E+02  0.10165044329E+03  0.90107552780E+02 0.  0.
          2    1    3    3  502    0  0.21944291949E+02  0.22406065252E+02  0.12965868516E+02  0.33936668304E+02  0.00000000000E+00 0. -1.
         -2    1    3    3    0  502 -0.21944291949E+02 -0.22406065252E+02 -0.60013095351E+02  0.67713774986E+02  0.00000000000E+00 0.  1.
<mgrwt>
<rscale>  0 0.90107553E+02</rscale>
<asrwt>0</asrwt>
<pdfrwt beam="1">  1        1 0.42002473E-02 0.90107553E+02</pdfrwt>
<pdfrwt beam="2">  1       -1 0.11438283E-01 0.90107553E+02</pdfrwt>
<totfact> 0.88311048E+04</totfact>
</mgrwt>
</event>
<event>
 5    1  0.4006808E+001  0.9058490E+02  0.7546771E-02  0.1301441E+00
         -3   -1    0    0    0  501 -0.00000000000E+00  0.00000000000E+00  0.13721413457E+03  0.13721413457E+03  0.00000000000E+00 0.  1.
          3   -1    0    0  501    0  0.00000000000E+00 -0.00000000000E+00 -0.14950399997E+02  0.14950399997E+02  0.00000000000E+00 0. -1.
         23    2    1    2    0    0  0.00000000000E+00  0.00000000000E+00  0.12226373457E+03  0.15216453457E+03  0.90584903754E+02 0.  0.
          2    1    3    3  502    0  0.92415275455E+01  0.27432068763E+02  0.11964781976E+03  0.12309965476E+03  0.00000000000E+00 0.  1.
         -2    1    3    3    0  502 -0.92415275455E+01 -0.27432068763E+02  0.26159148129E+01  0.29064879809E+02  0.00000000000E+00 0. -1.
<mgrwt>
<rscale>  0 0.90584904E+02</rscale>
<asrwt>0</asrwt>
<pdfrwt beam="2">  1        3 0.23000616E-02 0.90584904E+02</pdfrwt>
<pdfrwt beam="1">  1       -3 0.21109866E-01 0.90584904E+02</pdfrwt>
<totfact> 0.31730121E+04</totfact>
</mgrwt>
</event>
<event>
 5    1  0.4006808E+001  0.9260463E+02  0.7546771E-02  0.1296664E+00
         -2   -1    0    0    0  501 -0.00000000000E+00  0.00000000000E+00  0.14516818108E+01  0.14516818108E+01  0.00000000000E+00 0.  1.
          2   -1    0    0  501    0  0.00000000000E+00 -0.00000000000E+00 -0.14768418530E+04  0.14768418530E+04  0.00000000000E+00 0. -1.
         23    2    1    2    0    0  0.00000000000E+00  0.00000000000E+00 -0.14753901712E+04  0.14782935349E+04  0.92604631752E+02 0.  0.
          2    1    3    3  502    0 -0.27478838602E+02  0.11474378828E+02 -0.13037031822E+04  0.13040432260E+04  0.00000000000E+00 0. -1.
         -2    1    3    3    0  502  0.27478838602E+02 -0.11474378828E+02 -0.17168698903E+03  0.17425030887E+03  0.00000000000E+00 0.  1.
<mgrwt>
<rscale>  0 0.92604632E+02</rscale>
<asrwt>0</asrwt>
<pdfrwt beam="2">  1        2 0.22720594E+00 0.92604632E+02</pdfrwt>
<pdfrwt beam="1">  1       -2 0.22333615E-03 0.92604632E+02</pdfrwt>
<totfact> 0.22779285E+05</totfact>
</mgrwt>
</event>
<event>
 5    1  0.4006808E+001  0.9236358E+02  0.7546771E-02  0.1297227E+00
          1   -1    0    0  501    0  0.00000000000E+00  0.00000000000E+00  0.41805312721E+02  0.41805312721E+02  0.00000000000E+00 0. -1.
         -1   -1    0    0    0  501 -0.00000000000E+00 -0.00000000000E+00 -0.51016431917E+02  0.51016431917E+02  0.00000000000E+00 0.  1.
         23    2    1    2    0    0  0.00000000000E+00  0.00000000000E+00 -0.92111191958E+01  0.92821744638E+02  0.92363583521E+02 0.  0.
          2    1    3    3  502    0 -0.91953108870E+01 -0.42901686805E+02 -0.19087085017E+02  0.47847939218E+02  0.00000000000E+00 0.  1.
         -2    1    3    3    0  502  0.91953108870E+01  0.42901686805E+02  0.98759658210E+01  0.44973805419E+02  0.00000000000E+00 0. -1.
<mgrwt>
<rscale>  0 0.92363584E+02</rscale>
<asrwt>0</asrwt>
<pdfrwt beam="1">  1        1 0.64315866E-02 0.92363584E+02</pdfrwt>
<pdfrwt beam="2">  1       -1 0.78486818E-02 0.92363584E+02</pdfrwt>
<totfact> 0.87998922E+04</totfact>
</mgrwt>
</event>
<event>
 5    1  0.4006808E+001  0.9009373E+02  0.7546771E-02  0.1302625E+00
          2   -1    0    0  501    0  0.00000000000E+00  0.00000000000E+00  0.31579841758E+03  0.31579841758E+03  0.00000000000E+00 0. -1.
         -2   -1    0    0    0  501 -0.00000000000E+00 -0.00000000000E+00 -0.64256819646E+01  0.64256819646E+01  0.00000000000E+00 0.  1.
         23    2    1    2    0    0  0.00000000000E+00  0.00000000000E+00  0.30937273561E+03  0.32222409954E+03  0.90093733329E+02 0.  0.
          2    1    3    3  502    0 -0.12529291538E+02 -0.26008067671E+02  0.27836534390E+03  0.27985829882E+03  0.00000000000E+00 0. -1.
         -2    1    3    3    0  502  0.12529291538E+02  0.26008067671E+02  0.31007391709E+02  0.42365800725E+02  0.00000000000E+00 0.  1.
<mgrwt>
<rscale>  0 0.90093733E+02</rscale>
<asrwt>0</asrwt>
<pdfrwt beam="1">  1        2 0.48584360E-01 0.90093733E+02</pdfrwt>
<pdfrwt beam="2">  1       -2 0.98856670E-03 0.90093733E+02</pdfrwt>
<totfact> 0.18904095E+05</totfact>
</mgrwt>
</event>
<event>
 5    1  0.4006808E+001  0.9882947E+02  0.7546771E-02  0.1282777E+00
         -2   -1    0    0    0  501 -0.00000000000E+00  0.00000000000E+00  0.18941994603E+02  0.18941994603E+02  0.00000000000E+00 0.  1.
          2   -1    0    0  501    0  0.00000000000E+00 -0.00000000000E+00 -0.12891018369E+03  0.12891018369E+03  0.00000000000E+00 0. -1.
         23    2    1    2    0    0  0.00000000000E+00  0.00000000000E+00 -0.10996818909E+03  0.14785217829E+03  0.98829469364E+02 0.  0.
          2    1    3    3  502    0  0.90950181022E+01  0.28631250293E+02 -0.11368025478E+03  0.11758260150E+03  0.00000000000E+00 0. -1.
         -2    1    3    3    0  502 -0.90950181022E+01 -0.28631250293E+02  0.37120656948E+01  0.30269576795E+02  0.00000000000E+00 0.  1.
<mgrwt>
<rscale>  0 0.98829469E+02</rscale>
<asrwt>0</asrwt>
<pdfrwt beam="2">  1        2 0.19832336E-01 0.98829469E+02</pdfrwt>
<pdfrwt beam="1">  1       -2 0.29141530E-02 0.98829469E+02</pdfrwt>
<totfact> 0.10654114E+05</totfact>
</mgrwt>
</event>
<event>
 5    1  0.4006808E+001  0.8981504E+02  0.7546771E-02  0.1303300E+00
          1   -1    0    0  501    0  0.00000000000E+00  0.00000000000E+00  0.14841765956E+04  0.14841765956E+04  0.00000000000E+00 0. -1.
         -1   -1    0    0    0  501 -0.00000000000E+00 -0.00000000000E+00 -0.13587906448E+01  0.13587906448E+01  0.00000000000E+00 0.  1.
         23    2    1    2    0    0  0.00000000000E+00  0.00000000000E+00  0.14828178050E+04  0.14855353863E+04  0.89815038237E+02 0.  0.
          2    1    3    3  502    0 -0.30126036726E+02  0.21861326993E+02  0.11569498714E+04  0.11575484874E+04  0.00000000000E+00 0. -1.
         -2    1    3    3    0  502  0.30126036726E+02 -0.21861326993E+02  0.32586793362E+03  0.32798689893E+03  0.00000000000E+00 0.  1.
<mgrwt>
<rscale>  0 0.89815038E+02</rscale>
<asrwt>0</asrwt>
<pdfrwt beam="1">  1        1 0.22833356E+00 0.89815038E+02</pdfrwt>
<pdfrwt beam="2">  1       -1 0.20904590E-03 0.89815038E+02</pdfrwt>
<totfact> 0.11599185E+05</totfact>
</mgrwt>
</event>
<event>
 5    1  0.4006808E+001  0.8968738E+02  0.7546771E-02  0.1303611E+00
          1   -1    0    0  501    0  0.00000000000E+00  0.00000000000E+00  0.17805872855E+01  0.17805872855E+01  0.00000000000E+00 0. -1.
         -1   -1    0    0    0  501 -0.00000000000E+00 -0.00000000000E+00 -0.11293783503E+04  0.11293783503E+04  0.00000000000E+00 0.  1.
         23    2    1    2    0    0  0.00000000000E+00  0.00000000000E+00 -0.11275977630E+04  0.11311589376E+04  0.89687384422E+02 0.  0.
          2    1    3    3  502    0  0.24693750670E+02  0.64287224408E+01 -0.98708576859E+02  0.10195338611E+03  0.00000000000E+00 0. -1.
         -2    1    3    3    0  502 -0.24693750670E+02 -0.64287224408E+01 -0.10288891862E+04  0.10292055515E+04  0.00000000000E+00 0.  1.
<mgrwt>
<rscale>  0 0.89687384E+02</rscale>
<asrwt>0</asrwt>
<pdfrwt beam="1">  1        1 0.27393616E-03 0.89687384E+02</pdfrwt>
<pdfrwt beam="2">  1       -1 0.17375073E+00 0.89687384E+02</pdfrwt>
<totfact> 0.22884117E+04</totfact>
</mgrwt>
</event>
<event>
 5    1  0.4006808E+001  0.7826857E+02  0.7546771E-02  0.1334038E+00
          1   -1    0    0  501    0  0.00000000000E+00  0.00000000000E+00  0.87516363882E+03  0.87516363882E+03  0.00000000000E+00 0. -1.
         -1   -1    0    0    0  501 -0.00000000000E+00 -0.00000000000E+00 -0.17499495907E+01  0.17499495907E+01  0.00000000000E+00 0.  1.
         23    2    1    2    0    0  0.00000000000E+00  0.00000000000E+00  0.87341368923E+03  0.87691358842E+03  0.78268569722E+02 0.  0.
          2    1    3    3  502    0 -0.19383805908E+02  0.11937923432E+02  0.79334427041E+03  0.79367082429E+03  0.00000000000E+00 0. -1.
         -2    1    3    3    0  502  0.19383805908E+02 -0.11937923432E+02  0.80069418826E+02  0.83242764120E+02  0.00000000000E+00 0.  1.
<mgrwt>
<rscale>  0 0.78268570E+02</rscale>
<asrwt>0</asrwt>
<pdfrwt beam="1">  1        1 0.13464021E+00 0.78268570E+02</pdfrwt>
<pdfrwt beam="2">  1       -1 0.26922371E-03 0.78268570E+02</pdfrwt>
<totfact> 0.20868140E+05</totfact>
</mgrwt>
</event>
<event>
 5    1  0.4006808E+001  0.8908754E+02  0.7546771E-02  0.1305077E+00
         -1   -1    0    0    0  501 -0.00000000000E+00  0.00000000000E+00  0.85515438667E+02  0.85515438667E+02  0.00000000000E+00 0.  1.
          1   -1    0    0  501    0  0.00000000000E+00 -0.00000000000E+00 -0.23202214219E+02  0.23202214219E+02  0.00000000000E+00 0. -1.
         23    2    1    2    0    0  0.00000000000E+00  0.00000000000E+00  0.62313224448E+02  0.10871765289E+03  0.89087541823E+02 0.  0.
          2    1    3    3  502    0 -0.24089345692E+02 -0.16006813478E+02 -0.10184730893E+02  0.30663388543E+02  0.00000000000E+00 0. -1.
         -2    1    3    3    0  502  0.24089345692E+02  0.16006813478E+02  0.72497955340E+02  0.78054264343E+02  0.00000000000E+00 0.  1.
<mgrwt>
<rscale>  0 0.89087542E+02</rscale>
<asrwt>0</asrwt>
<pdfrwt beam="2">  1        1 0.35695715E-02 0.89087542E+02</pdfrwt>
<pdfrwt beam="1">  1       -1 0.13156221E-01 0.89087542E+02</pdfrwt>
<totfact> 0.88809776E+04</totfact>
</mgrwt>
</event>
<event>
 5    1  0.4006808E+001  0.8915412E+02  0.7546771E-02  0.1304913E+00
          2   -1    0    0  501    0  0.00000000000E+00  0.00000000000E+00  0.98394250135E+03  0.98394250135E+03  0.00000000000E+00 0. -1.
         -2   -1    0    0    0  501 -0.00000000000E+00 -0.00000000000E+00 -0.20195431847E+01  0.20195431847E+01  0.00000000000E+00 0.  1.
         23    2    1    2    0    0  0.00000000000E+00  0.00000000000E+00  0.98192295816E+03  0.98596204453E+03  0.89154122120E+02 0.  0.
          2    1    3    3  502    0 -0.25084906729E+02 -0.32948099610E+02  0.67344778328E+03  0.67471975413E+03  0.00000000000E+00 0. -1.
         -2    1    3    3    0  502  0.25084906729E+02  0.32948099610E+02  0.30847517489E+03  0.31124229040E+03  0.00000000000E+00 0.  1.
<mgrwt>
<rscale>  0 0.89154122E+02</rscale>
<asrwt>0</asrwt>
<pdfrwt beam="1">  1        2 0.15137539E+00 0.89154122E+02</pdfrwt>
<pdfrwt beam="2">  1       -2 0.31069974E-03 0.89154122E+02</pdfrwt>
<totfact> 0.26499871E+05</totfact>
</mgrwt>
</event>
<event>
 5    1  0.4006808E+001  0.9087082E+02  0.7546771E-02  0.1300756E+00
         -2   -1    0    0    0  501 -0.00000000000E+00  0.00000000000E+00  0.20959432530E+01  0.20959432530E+01  0.00000000000E+00 0.  1.
          2   -1    0    0  501    0  0.00000000000E+00 -0.00000000000E+00 -0.98493903509E+03  0.98493903509E+03  0.00000000000E+00 0. -1.
         23    2    1    2    0    0  0.00000000000E+00  0.00000000000E+00 -0.98284309184E+03  0.98703497835E+03  0.90870816552E+02 0.  0.
          2    1    3    3  502    0  0.14201890214E+02  0.36714316152E+02 -0.73785675613E+03  0.73890610179E+03  0.00000000000E+00 0. -1.
         -2    1    3    3    0  502 -0.14201890214E+02 -0.36714316152E+02 -0.24498633571E+03  0.24812887656E+03  0.00000000000E+00 0.  1.
<mgrwt>
<rscale>  0 0.90870817E+02</rscale>
<asrwt>0</asrwt>
<pdfrwt beam="2">  1        2 0.15152934E+00 0.90870817E+02</pdfrwt>
<pdfrwt beam="1">  1       -2 0.32245226E-03 0.90870817E+02</pdfrwt>
<totfact> 0.25204967E+05</totfact>
</mgrwt>
</event>
<event>
 5    1  0.4006808E+001  0.9104530E+02  0.7546771E-02  0.1300340E+00
          2   -1    0    0  501    0  0.00000000000E+00  0.00000000000E+00  0.19081099303E+02  0.19081099303E+02  0.00000000000E+00 0. -1.
         -2   -1    0    0    0  501 -0.00000000000E+00 -0.00000000000E+00 -0.10860545436E+03  0.10860545436E+03  0.00000000000E+00 0.  1.
         23    2    1    2    0    0  0.00000000000E+00  0.00000000000E+00 -0.89524355058E+02  0.12768655367E+03  0.91045295531E+02 0.  0.
          2    1    3    3  502    0 -0.29246120362E+00 -0.45376654051E+02 -0.49854675957E+02  0.67413759584E+02  0.00000000000E+00 0. -1.
         -2    1    3    3    0  502  0.29246120362E+00  0.45376654051E+02 -0.39669679101E+02  0.60272794081E+02  0.00000000000E+00 0.  1.
<mgrwt>
<rscale>  0 0.91045296E+02</rscale>
<asrwt>0</asrwt>
<pdfrwt beam="1">  1        2 0.29355537E-02 0.91045296E+02</pdfrwt>
<pdfrwt beam="2">  1       -2 0.16708532E-01 0.91045296E+02</pdfrwt>
<totfact> 0.78113492E+04</totfact>
</mgrwt>
</event>
<event>
 5    1  0.4006808E+001  0.9421707E+02  0.7546771E-02  0.1292949E+00
         -2   -1    0    0    0  501 -0.00000000000E+00  0.00000000000E+00  0.14788248858E+01  0.14788248858E+01  0.00000000000E+00 0.  1.
          2   -1    0    0  501    0  0.00000000000E+00 -0.00000000000E+00 -0.15006606008E+04  0.15006606008E+04  0.00000000000E+00 0. -1.
         23    2    1    2    0    0  0.00000000000E+00  0.00000000000E+00 -0.14991817759E+04  0.15021394257E+04  0.94217073646E+02 0.  0.
          2    1    3    3  502    0 -0.18650217640E+02 -0.96284005469E+01 -0.14219932692E+04  0.14221481619E+04  0.00000000000E+00 0. -1.
         -2    1    3    3    0  502  0.18650217640E+02  0.96284005469E+01 -0.77188506735E+02  0.79991263817E+02  0.00000000000E+00 0.  1.
<mgrwt>
<rscale>  0 0.94217074E+02</rscale>
<asrwt>0</asrwt>
<pdfrwt beam="2">  1        2 0.23086997E+00 0.94217074E+02</pdfrwt>
<pdfrwt beam="1">  1       -2 0.22751240E-03 0.94217074E+02</pdfrwt>
<totfact> 0.21636646E+05</totfact>
</mgrwt>
</event>
<event>
 5    1  0.4006808E+001  0.9016978E+02  0.7546771E-02  0.1302441E+00
         -2   -1    0    0    0  501 -0.00000000000E+00  0.00000000000E+00  0.19823528590E+01  0.19823528590E+01  0.00000000000E+00 0.  1.
          2   -1    0    0  501    0  0.00000000000E+00 -0.00000000000E+00 -0.10253709840E+04  0.10253709840E+04  0.00000000000E+00 0. -1.
         23    2    1    2    0    0  0.00000000000E+00  0.00000000000E+00 -0.10233886311E+04  0.10273533368E+04  0.90169775459E+02 0.  0.
          2    1    3    3  502    0  0.27128636135E+02 -0.26029212556E+02 -0.79520001905E+03  0.79608828223E+03  0.00000000000E+00 0. -1.
         -2    1    3    3    0  502 -0.27128636135E+02  0.26029212556E+02 -0.22818861205E+03  0.23126505459E+03  0.00000000000E+00 0.  1.
<mgrwt>
<rscale>  0 0.90169775E+02</rscale>
<asrwt>0</asrwt>
<pdfrwt beam="2">  1        2 0.15774984E+00 0.90169775E+02</pdfrwt>
<pdfrwt beam="1">  1       -2 0.30497647E-03 0.90169775E+02</pdfrwt>
<totfact> 0.25765053E+05</totfact>
</mgrwt>
</event>
<event>
 5    1  0.4006808E+001  0.9117539E+02  0.7546771E-02  0.1300030E+00
          2   -1    0    0  501    0  0.00000000000E+00  0.00000000000E+00  0.87535228611E+03  0.87535228611E+03  0.00000000000E+00 0. -1.
         -2   -1    0    0    0  501 -0.00000000000E+00 -0.00000000000E+00 -0.23741730263E+01  0.23741730263E+01  0.00000000000E+00 0.  1.
         23    2    1    2    0    0  0.00000000000E+00  0.00000000000E+00  0.87297811308E+03  0.87772645914E+03  0.91175386727E+02 0.  0.
          2    1    3    3  502    0 -0.25586436336E+01 -0.43369911553E+02  0.56944404282E+03  0.57109895271E+03  0.00000000000E+00 0. -1.
         -2    1    3    3    0  502  0.25586436336E+01  0.43369911553E+02  0.30353407027E+03  0.30662750643E+03  0.00000000000E+00 0.  1.
<mgrwt>
<rscale>  0 0.91175387E+02</rscale>
<asrwt>0</asrwt>
<pdfrwt beam="1">  1        2 0.13466933E+00 0.91175387E+02</pdfrwt>
<pdfrwt beam="2">  1       -2 0.36525809E-03 0.91175387E+02</pdfrwt>
<totfact> 0.24712351E+05</totfact>
</mgrwt>
</event>
<event>
 5    1  0.4006808E+001  0.9070037E+02  0.7546771E-02  0.1301164E+00
         -2   -1    0    0    0  501 -0.00000000000E+00  0.00000000000E+00  0.53796430755E+01  0.53796430755E+01  0.00000000000E+00 0.  1.
          2   -1    0    0  501    0  0.00000000000E+00 -0.00000000000E+00 -0.38230030243E+03  0.38230030243E+03  0.00000000000E+00 0. -1.
         23    2    1    2    0    0  0.00000000000E+00  0.00000000000E+00 -0.37692065936E+03  0.38767994551E+03  0.90700367690E+02 0.  0.
          2    1    3    3  502    0 -0.45337539318E+02  0.29616634082E+00 -0.18406177510E+03  0.18956349131E+03  0.00000000000E+00 0.  1.
         -2    1    3    3    0  502  0.45337539318E+02 -0.29616634082E+00 -0.19285888426E+03  0.19811645420E+03  0.00000000000E+00 0. -1.
<mgrwt>
<rscale>  0 0.90700368E+02</rscale>
<asrwt>0</asrwt>
<pdfrwt beam="2">  1        2 0.58815438E-01 0.90700368E+02</pdfrwt>
<pdfrwt beam="1">  1       -2 0.82763730E-03 0.90700368E+02</pdfrwt>
<totfact> 0.19915303E+05</totfact>
</mgrwt>
</event>
<event>
 5    1  0.4006808E+001  0.9058867E+02  0.7546771E-02  0.1301432E+00
          2   -1    0    0  501    0  0.00000000000E+00  0.00000000000E+00  0.55361659652E+03  0.55361659652E+03  0.00000000000E+00 0. -1.
         -2   -1    0    0    0  501 -0.00000000000E+00 -0.00000000000E+00 -0.37057722220E+01  0.37057722220E+01  0.00000000000E+00 0.  1.
         23    2    1    2    0    0  0.00000000000E+00  0.00000000000E+00  0.54991082430E+03  0.55732236874E+03  0.90588674900E+02 0.  0.
          2    1    3    3  502    0  0.10624245858E+02 -0.21464262411E+02  0.51147548189E+03  0.51203589497E+03  0.00000000000E+00 0. -1.
         -2    1    3    3    0  502 -0.10624245858E+02  0.21464262411E+02  0.38435342409E+02  0.45286473775E+02  0.00000000000E+00 0.  1.
<mgrwt>
<rscale>  0 0.90588675E+02</rscale>
<asrwt>0</asrwt>
<pdfrwt beam="1">  1        2 0.85171718E-01 0.90588675E+02</pdfrwt>
<pdfrwt beam="2">  1       -2 0.57011924E-03 0.90588675E+02</pdfrwt>
<totfact> 0.22635746E+05</totfact>
</mgrwt>
</event>
<event>
 5    1  0.4006808E+001  0.9365531E+02  0.7546771E-02  0.1294234E+00
         -1   -1    0    0    0  501 -0.00000000000E+00  0.00000000000E+00  0.14452137193E+01  0.14452137193E+01  0.00000000000E+00 0.  1.
          1   -1    0    0  501    0  0.00000000000E+00 -0.00000000000E+00 -0.15173044585E+04  0.15173044585E+04  0.00000000000E+00 0. -1.
         23    2    1    2    0    0  0.00000000000E+00  0.00000000000E+00 -0.15158592448E+04  0.15187496722E+04  0.93655308867E+02 0.  0.
          2    1    3    3  502    0 -0.12348849547E+02  0.24818421911E+02 -0.13699514242E+04  0.13702318610E+04  0.00000000000E+00 0. -1.
         -2    1    3    3    0  502  0.12348849547E+02 -0.24818421911E+02 -0.14590782054E+03  0.14851781121E+03  0.00000000000E+00 0.  1.
<mgrwt>
<rscale>  0 0.93655309E+02</rscale>
<asrwt>0</asrwt>
<pdfrwt beam="2">  1        1 0.23343241E+00 0.93655309E+02</pdfrwt>
<pdfrwt beam="1">  1       -1 0.22233966E-03 0.93655309E+02</pdfrwt>
<totfact> 0.10195233E+05</totfact>
</mgrwt>
</event>
<event>
 5    1  0.4006808E+001  0.8809236E+02  0.7546771E-02  0.1307538E+00
          2   -1    0    0  501    0  0.00000000000E+00  0.00000000000E+00  0.52422342522E+03  0.52422342522E+03  0.00000000000E+00 0. -1.
         -2   -1    0    0    0  501 -0.00000000000E+00 -0.00000000000E+00 -0.37008384128E+01  0.37008384128E+01  0.00000000000E+00 0.  1.
         23    2    1    2    0    0  0.00000000000E+00  0.00000000000E+00  0.52052258680E+03  0.52792426363E+03  0.88092364911E+02 0.  0.
          2    1    3    3  502    0  0.39312246941E+02 -0.10304984986E+02  0.36203757442E+03  0.36431147493E+03  0.00000000000E+00 0. -1.
         -2    1    3    3    0  502 -0.39312246941E+02  0.10304984986E+02  0.15848501238E+03  0.16361278870E+03  0.00000000000E+00 0.  1.
<mgrwt>
<rscale>  0 0.88092365E+02</rscale>
<asrwt>0</asrwt>
<pdfrwt beam="1">  1        2 0.80649699E-01 0.88092365E+02</pdfrwt>
<pdfrwt beam="2">  1       -2 0.56936017E-03 0.88092365E+02</pdfrwt>
<totfact> 0.23959218E+05</totfact>
</mgrwt>
</event>
<event>
 5    1  0.4006808E+001  0.9106316E+02  0.7546771E-02  0.1300297E+00
          2   -1    0    0  501    0  0.00000000000E+00  0.00000000000E+00  0.22322392068E+03  0.22322392068E+03  0.00000000000E+00 0. -1.
         -2   -1    0    0    0  501 -0.00000000000E+00 -0.00000000000E+00 -0.92871978843E+01  0.92871978843E+01  0.00000000000E+00 0.  1.
         23    2    1    2    0    0  0.00000000000E+00  0.00000000000E+00  0.21393672280E+03  0.23251111857E+03  0.91063158827E+02 0.  0.
          2    1    3    3  502    0 -0.90172999289E+01  0.38072052586E+02  0.16642954703E+03  0.17096662543E+03  0.00000000000E+00 0. -1.
         -2    1    3    3    0  502  0.90172999289E+01 -0.38072052586E+02  0.47507175769E+02  0.61544493138E+02  0.00000000000E+00 0.  1.
<mgrwt>
<rscale>  0 0.91063159E+02</rscale>
<asrwt>0</asrwt>
<pdfrwt beam="1">  1        2 0.34342138E-01 0.91063159E+02</pdfrwt>
<pdfrwt beam="2">  1       -2 0.14287998E-02 0.91063159E+02</pdfrwt>
<totfact> 0.16153693E+05</totfact>
</mgrwt>
</event>
<event>
 5    1  0.4006808E+001  0.9137486E+02  0.7546771E-02  0.1299556E+00
          3   -1    0    0  501    0  0.00000000000E+00  0.00000000000E+00  0.21281860844E+03  0.21281860844E+03  0.00000000000E+00 0. -1.
         -3   -1    0    0    0  501 -0.00000000000E+00 -0.00000000000E+00 -0.98080765234E+01  0.98080765234E+01  0.00000000000E+00 0.  1.
         23    2    1    2    0    0  0.00000000000E+00  0.00000000000E+00  0.20301053191E+03  0.22262668496E+03  0.91374858624E+02 0.  0.
          2    1    3    3  502    0 -0.10631926540E+02 -0.40966799573E+02  0.14342460754E+03  0.14953907375E+03  0.00000000000E+00 0. -1.
         -2    1    3    3    0  502  0.10631926540E+02  0.40966799573E+02  0.59585924369E+02  0.73087611208E+02  0.00000000000E+00 0.  1.
<mgrwt>
<rscale>  0 0.91374859E+02</rscale>
<asrwt>0</asrwt>
<pdfrwt beam="1">  1        3 0.32741321E-01 0.91374859E+02</pdfrwt>
<pdfrwt beam="2">  1       -3 0.15089350E-02 0.91374859E+02</pdfrwt>
<totfact> 0.27209827E+04</totfact>
</mgrwt>
</event>
<event>
 5    1  0.4006808E+001  0.9273334E+02  0.7546771E-02  0.1296364E+00
         -1   -1    0    0    0  501 -0.00000000000E+00  0.00000000000E+00  0.10089775366E+01  0.10089775366E+01  0.00000000000E+00 0.  1.
          1   -1    0    0  501    0  0.00000000000E+00 -0.00000000000E+00 -0.21307390959E+04  0.21307390959E+04  0.00000000000E+00 0. -1.
         23    2    1    2    0    0  0.00000000000E+00  0.00000000000E+00 -0.21297301184E+04  0.21317480734E+04  0.92733335628E+02 0.  0.
          2    1    3    3  502    0 -0.39293093313E+02  0.94883452497E+01 -0.15869959605E+04  0.15875106785E+04  0.00000000000E+00 0. -1.
         -2    1    3    3    0  502  0.39293093313E+02 -0.94883452497E+01 -0.54273415789E+03  0.54423739491E+03  0.00000000000E+00 0.  1.
<mgrwt>
<rscale>  0 0.92733336E+02</rscale>
<asrwt>0</asrwt>
<pdfrwt beam="2">  1        1 0.32780298E+00 0.92733336E+02</pdfrwt>
<pdfrwt beam="1">  1       -1 0.15522875E-03 0.92733336E+02</pdfrwt>
<totfact> 0.68867041E+04</totfact>
</mgrwt>
</event>
<event>
 5    1  0.4006808E+001  0.9008288E+02  0.7546771E-02  0.1302651E+00
         -2   -1    0    0    0  501 -0.00000000000E+00  0.00000000000E+00  0.32616112658E+01  0.32616112658E+01  0.00000000000E+00 0.  1.
          2   -1    0    0  501    0  0.00000000000E+00 -0.00000000000E+00 -0.62200281622E+03  0.62200281622E+03  0.00000000000E+00 0. -1.
         23    2    1    2    0    0  0.00000000000E+00  0.00000000000E+00 -0.61874120495E+03  0.62526442749E+03  0.90082881675E+02 0.  0.
          2    1    3    3  502    0  0.44668719923E+02 -0.44003866226E+01 -0.33540944944E+03  0.33839940413E+03  0.00000000000E+00 0. -1.
         -2    1    3    3    0  502 -0.44668719923E+02  0.44003866226E+01 -0.28333175551E+03  0.28686502335E+03  0.00000000000E+00 0.  1.
<mgrwt>
<rscale>  0 0.90082882E+02</rscale>
<asrwt>0</asrwt>
<pdfrwt beam="2">  1        2 0.95692675E-01 0.90082882E+02</pdfrwt>
<pdfrwt beam="1">  1       -2 0.50178669E-03 0.90082882E+02</pdfrwt>
<totfact> 0.23759065E+05</totfact>
</mgrwt>
</event>
<event>
 5    1  0.4006808E+001  0.9771506E+02  0.7546771E-02  0.1285176E+00
         -1   -1    0    0    0  501 -0.00000000000E+00  0.00000000000E+00  0.29573752443E+02  0.29573752443E+02  0.00000000000E+00 0.  1.
          1   -1    0    0  501    0  0.00000000000E+00 -0.00000000000E+00 -0.80715431023E+02  0.80715431023E+02  0.00000000000E+00 0. -1.
         23    2    1    2    0    0  0.00000000000E+00  0.00000000000E+00 -0.51141678579E+02  0.11028918347E+03  0.97715058726E+02 0.  0.
          2    1    3    3  502    0 -0.25539474096E+02  0.14661585600E+02 -0.69572505555E+02  0.75548397459E+02  0.00000000000E+00 0. -1.
         -2    1    3    3    0  502  0.25539474096E+02 -0.14661585600E+02  0.18430826976E+02  0.34740786007E+02  0.00000000000E+00 0.  1.
<mgrwt>
<rscale>  0 0.97715059E+02</rscale>
<asrwt>0</asrwt>
<pdfrwt beam="2">  1        1 0.12417758E-01 0.97715059E+02</pdfrwt>
<pdfrwt beam="1">  1       -1 0.45498082E-02 0.97715059E+02</pdfrwt>
<totfact> 0.83335972E+04</totfact>
</mgrwt>
</event>
<event>
 5    1  0.4006808E+001  0.9165755E+02  0.7546771E-02  0.1298887E+00
          4   -1    0    0  501    0  0.00000000000E+00  0.00000000000E+00  0.62569743630E+03  0.62569743630E+03  0.00000000000E+00 0. -1.
         -4   -1    0    0    0  501 -0.00000000000E+00 -0.00000000000E+00 -0.33566969840E+01  0.33566969840E+01  0.00000000000E+00 0.  1.
         23    2    1    2    0    0  0.00000000000E+00  0.00000000000E+00  0.62234073931E+03  0.62905413328E+03  0.91657551730E+02 0.  0.
          2    1    3    3  502    0  0.16185160078E+02  0.33681065566E+02  0.49325622501E+03  0.49466966462E+03  0.00000000000E+00 0. -1.
         -2    1    3    3    0  502 -0.16185160078E+02 -0.33681065566E+02  0.12908451431E+03  0.13438446866E+03  0.00000000000E+00 0.  1.
<mgrwt>
<rscale>  0 0.91657552E+02</rscale>
<asrwt>0</asrwt>
<pdfrwt beam="1">  1        4 0.96261051E-01 0.91657552E+02</pdfrwt>
<pdfrwt beam="2">  1       -4 0.51641542E-03 0.91657552E+02</pdfrwt>
<totfact> 0.10834366E+04</totfact>
</mgrwt>
</event>
<event>
 5    1  0.4006808E+001  0.8208774E+02  0.7546771E-02  0.1323229E+00
          2   -1    0    0  501    0  0.00000000000E+00  0.00000000000E+00  0.73727816600E+03  0.73727816600E+03  0.00000000000E+00 0. -1.
         -2   -1    0    0    0  501 -0.00000000000E+00 -0.00000000000E+00 -0.22848899290E+01  0.22848899290E+01  0.00000000000E+00 0.  1.
         23    2    1    2    0    0  0.00000000000E+00  0.00000000000E+00  0.73499327608E+03  0.73956305593E+03  0.82087744673E+02 0.  0.
          2    1    3    3  502    0  0.12313618012E+02 -0.38992385604E+02  0.33555683283E+03  0.33803907967E+03  0.00000000000E+00 0. -1.
         -2    1    3    3    0  502 -0.12313618012E+02  0.38992385604E+02  0.39943644324E+03  0.40152397626E+03  0.00000000000E+00 0.  1.
<mgrwt>
<rscale>  0 0.82087745E+02</rscale>
<asrwt>0</asrwt>
<pdfrwt beam="1">  1        2 0.11342722E+00 0.82087745E+02</pdfrwt>
<pdfrwt beam="2">  1       -2 0.35152212E-03 0.82087745E+02</pdfrwt>
<totfact> 0.31595618E+05</totfact>
</mgrwt>
</event>
<event>
 5    1  0.4006808E+001  0.9085492E+02  0.7546771E-02  0.1300794E+00
         -3   -1    0    0    0  501 -0.00000000000E+00  0.00000000000E+00  0.12146700217E+03  0.12146700217E+03  0.00000000000E+00 0.  1.
          3   -1    0    0  501    0  0.00000000000E+00 -0.00000000000E+00 -0.16989423222E+02  0.16989423222E+02  0.00000000000E+00 0. -1.
         23    2    1    2    0    0  0.00000000000E+00  0.00000000000E+00  0.10447757895E+03  0.13845642539E+03  0.90854924080E+02 0.  0.
          2    1    3    3  502    0 -0.60066048314E+01 -0.22098504623E+02 -0.75495593809E+01  0.24112632686E+02  0.00000000000E+00 0. -1.
         -2    1    3    3    0  502  0.60066048314E+01  0.22098504623E+02  0.11202713833E+03  0.11434379271E+03  0.00000000000E+00 0.  1.
<mgrwt>
<rscale>  0 0.90854924E+02</rscale>
<asrwt>0</asrwt>
<pdfrwt beam="2">  1        3 0.26137575E-02 0.90854924E+02</pdfrwt>
<pdfrwt beam="1">  1       -3 0.18687231E-01 0.90854924E+02</pdfrwt>
<totfact> 0.32338306E+04</totfact>
</mgrwt>
</event>
<event>
 5    1  0.4006808E+001  0.9046929E+02  0.7546771E-02  0.1301719E+00
          2   -1    0    0  501    0  0.00000000000E+00  0.00000000000E+00  0.10574545221E+03  0.10574545221E+03  0.00000000000E+00 0. -1.
         -2   -1    0    0    0  501 -0.00000000000E+00 -0.00000000000E+00 -0.19349985949E+02  0.19349985949E+02  0.00000000000E+00 0.  1.
         23    2    1    2    0    0  0.00000000000E+00  0.00000000000E+00  0.86395466265E+02  0.12509543816E+03  0.90469287928E+02 0.  0.
          2    1    3    3  502    0  0.43463677527E+02 -0.78861843926E+00  0.60493575936E+02  0.74492858132E+02  0.00000000000E+00 0. -1.
         -2    1    3    3    0  502 -0.43463677527E+02  0.78861843926E+00  0.25901890329E+02  0.50602580031E+02  0.00000000000E+00 0.  1.
<mgrwt>
<rscale>  0 0.90469288E+02</rscale>
<asrwt>0</asrwt>
<pdfrwt beam="1">  1        2 0.16268531E-01 0.90469288E+02</pdfrwt>
<pdfrwt beam="2">  1       -2 0.29769210E-02 0.90469288E+02</pdfrwt>
<totfact> 0.12749406E+05</totfact>
</mgrwt>
</event>
<event>
 5    1  0.4006808E+001  0.8674918E+02  0.7546771E-02  0.1310921E+00
          1   -1    0    0  501    0  0.00000000000E+00  0.00000000000E+00  0.17766849846E+02  0.17766849846E+02  0.00000000000E+00 0. -1.
         -1   -1    0    0    0  501 -0.00000000000E+00 -0.00000000000E+00 -0.10589131201E+03  0.10589131201E+03  0.00000000000E+00 0.  1.
         23    2    1    2    0    0  0.00000000000E+00  0.00000000000E+00 -0.88124462162E+02  0.12365816185E+03  0.86749179604E+02 0.  0.
          2    1    3    3  502    0 -0.19739681294E+02 -0.38157778235E+02 -0.35547046381E+02  0.55760770832E+02  0.00000000000E+00 0. -1.
         -2    1    3    3    0  502  0.19739681294E+02  0.38157778235E+02 -0.52577415781E+02  0.67897391022E+02  0.00000000000E+00 0.  1.
<mgrwt>
<rscale>  0 0.86749180E+02</rscale>
<asrwt>0</asrwt>
<pdfrwt beam="1">  1        1 0.27333615E-02 0.86749180E+02</pdfrwt>
<pdfrwt beam="2">  1       -1 0.16290971E-01 0.86749180E+02</pdfrwt>
<totfact> 0.91500799E+04</totfact>
</mgrwt>
</event>
<event>
 5    1  0.4006808E+001  0.9171581E+02  0.7546771E-02  0.1298749E+00
         -1   -1    0    0    0  501 -0.00000000000E+00  0.00000000000E+00  0.56424317140E+02  0.56424317140E+02  0.00000000000E+00 0.  1.
          1   -1    0    0  501    0  0.00000000000E+00 -0.00000000000E+00 -0.37270229748E+02  0.37270229748E+02  0.00000000000E+00 0. -1.
         23    2    1    2    0    0  0.00000000000E+00  0.00000000000E+00  0.19154087392E+02  0.93694546887E+02  0.91715805904E+02 0.  0.
          2    1    3    3  502    0  0.21363091657E+02  0.89113404261E+01 -0.30864330981E+02  0.38579795233E+02  0.00000000000E+00 0. -1.
         -2    1    3    3    0  502 -0.21363091657E+02 -0.89113404261E+01  0.50018418373E+02  0.55114751654E+02  0.00000000000E+00 0.  1.
<mgrwt>
<rscale>  0 0.91715806E+02</rscale>
<asrwt>0</asrwt>
<pdfrwt beam="2">  1        1 0.57338815E-02 0.91715806E+02</pdfrwt>
<pdfrwt beam="1">  1       -1 0.86806642E-02 0.91715806E+02</pdfrwt>
<totfact> 0.88201737E+04</totfact>
</mgrwt>
</event>
<event>
 5    1  0.4006808E+001  0.9522662E+02  0.7546771E-02  0.1290666E+00
          1   -1    0    0  501    0  0.00000000000E+00  0.00000000000E+00  0.16095666628E+04  0.16095666628E+04  0.00000000000E+00 0. -1.
         -1   -1    0    0    0  501 -0.00000000000E+00 -0.00000000000E+00 -0.14084705805E+01  0.14084705805E+01  0.00000000000E+00 0.  1.
         23    2    1    2    0    0  0.00000000000E+00  0.00000000000E+00  0.16081581922E+04  0.16109751333E+04  0.95226620055E+02 0.  0.
          2    1    3    3  502    0 -0.35378107731E+02  0.16478911201E+02  0.12654781851E+04  0.12660798561E+04  0.00000000000E+00 0. -1.
         -2    1    3    3    0  502  0.35378107731E+02 -0.16478911201E+02  0.34268000710E+03  0.34489527727E+03  0.00000000000E+00 0.  1.
<mgrwt>
<rscale>  0 0.95226620E+02</rscale>
<asrwt>0</asrwt>
<pdfrwt beam="1">  1        1 0.24762417E+00 0.95226620E+02</pdfrwt>
<pdfrwt beam="2">  1       -1 0.21668907E-03 0.95226620E+02</pdfrwt>
<totfact> 0.92504366E+04</totfact>
</mgrwt>
</event>
<event>
 5    1  0.4006808E+001  0.9207068E+02  0.7546771E-02  0.1297913E+00
         -1   -1    0    0    0  501 -0.00000000000E+00  0.00000000000E+00  0.15855682728E+03  0.15855682728E+03  0.00000000000E+00 0.  1.
          1   -1    0    0  501    0  0.00000000000E+00 -0.00000000000E+00 -0.13365887343E+02  0.13365887343E+02  0.00000000000E+00 0. -1.
         23    2    1    2    0    0  0.00000000000E+00  0.00000000000E+00  0.14519093994E+03  0.17192271462E+03  0.92070683518E+02 0.  0.
          2    1    3    3  502    0 -0.24394915681E+02 -0.36133287259E+02  0.44991993601E+02  0.62649867099E+02  0.00000000000E+00 0. -1.
         -2    1    3    3    0  502  0.24394915681E+02  0.36133287259E+02  0.10019894634E+03  0.10927284752E+03  0.00000000000E+00 0.  1.
<mgrwt>
<rscale>  0 0.92070684E+02</rscale>
<asrwt>0</asrwt>
<pdfrwt beam="2">  1        1 0.20562905E-02 0.92070684E+02</pdfrwt>
<pdfrwt beam="1">  1       -1 0.24393357E-01 0.92070684E+02</pdfrwt>
<totfact> 0.71956893E+04</totfact>
</mgrwt>
</event>
<event>
 5    1  0.4006808E+001  0.8938626E+02  0.7546771E-02  0.1304345E+00
          1   -1    0    0  501    0  0.00000000000E+00  0.00000000000E+00  0.47707372132E+01  0.47707372132E+01  0.00000000000E+00 0. -1.
         -1   -1    0    0    0  501 -0.00000000000E+00 -0.00000000000E+00 -0.41869331401E+03  0.41869331401E+03  0.00000000000E+00 0.  1.
         23    2    1    2    0    0  0.00000000000E+00  0.00000000000E+00 -0.41392257680E+03  0.42346405122E+03  0.89386257872E+02 0.  0.
          2    1    3    3  502    0  0.21231232574E+02 -0.68131538140E+00 -0.20673178953E+02  0.29641352116E+02  0.00000000000E+00 0. -1.
         -2    1    3    3    0  502 -0.21231232574E+02  0.68131538140E+00 -0.39324939784E+03  0.39382269911E+03  0.00000000000E+00 0.  1.
<mgrwt>
<rscale>  0 0.89386258E+02</rscale>
<asrwt>0</asrwt>
<pdfrwt beam="1">  1        1 0.73395971E-03 0.89386258E+02</pdfrwt>
<pdfrwt beam="2">  1       -1 0.64414344E-01 0.89386258E+02</pdfrwt>
<totfact> 0.54823557E+04</totfact>
</mgrwt>
</event>
<event>
 5    1  0.4006808E+001  0.8684009E+02  0.7546771E-02  0.1310689E+00
         -1   -1    0    0    0  501 -0.00000000000E+00  0.00000000000E+00  0.78413820985E+02  0.78413820985E+02  0.00000000000E+00 0.  1.
          1   -1    0    0  501    0  0.00000000000E+00 -0.00000000000E+00 -0.24042957010E+02  0.24042957010E+02  0.00000000000E+00 0. -1.
         23    2    1    2    0    0  0.00000000000E+00  0.00000000000E+00  0.54370863975E+02  0.10245677799E+03  0.86840085834E+02 0.  0.
          2    1    3    3  502    0 -0.12265160938E+02 -0.38619114192E+02  0.87773951048E+01  0.41459773499E+02  0.00000000000E+00 0. -1.
         -2    1    3    3    0  502  0.12265160938E+02  0.38619114192E+02  0.45593468870E+02  0.60997004495E+02  0.00000000000E+00 0.  1.
<mgrwt>
<rscale>  0 0.86840086E+02</rscale>
<asrwt>0</asrwt>
<pdfrwt beam="2">  1        1 0.36989165E-02 0.86840086E+02</pdfrwt>
<pdfrwt beam="1">  1       -1 0.12063665E-01 0.86840086E+02</pdfrwt>
<totfact> 0.96197416E+04</totfact>
</mgrwt>
</event>
<event>
 5    1  0.4006808E+001  0.9123149E+02  0.7546771E-02  0.1299897E+00
          1   -1    0    0  501    0  0.00000000000E+00  0.00000000000E+00  0.15290112791E+02  0.15290112791E+02  0.00000000000E+00 0. -1.
         -1   -1    0    0    0  501 -0.00000000000E+00 -0.00000000000E+00 -0.13608768420E+03  0.13608768420E+03  0.00000000000E+00 0.  1.
         23    2    1    2    0    0  0.00000000000E+00  0.00000000000E+00 -0.12079757141E+03  0.15137779699E+03  0.91231486689E+02 0.  0.
          2    1    3    3  502    0 -0.29276944657E+02 -0.34746275598E+02 -0.67108663526E+02  0.81043296310E+02  0.00000000000E+00 0. -1.
         -2    1    3    3    0  502  0.29276944657E+02  0.34746275598E+02 -0.53688907883E+02  0.70334500681E+02  0.00000000000E+00 0.  1.
<mgrwt>
<rscale>  0 0.91231487E+02</rscale>
<asrwt>0</asrwt>
<pdfrwt beam="1">  1        1 0.23523251E-02 0.91231487E+02</pdfrwt>
<pdfrwt beam="2">  1       -1 0.20936567E-01 0.91231487E+02</pdfrwt>
<totfact> 0.76341568E+04</totfact>
</mgrwt>
</event>
<event>
 5    1  0.4006808E+001  0.9058214E+02  0.7546771E-02  0.1301448E+00
          1   -1    0    0  501    0  0.00000000000E+00  0.00000000000E+00  0.62048538889E+03  0.62048538889E+03  0.00000000000E+00 0. -1.
         -1   -1    0    0    0  501 -0.00000000000E+00 -0.00000000000E+00 -0.33059295860E+01  0.33059295860E+01  0.00000000000E+00 0.  1.
         23    2    1    2    0    0  0.00000000000E+00  0.00000000000E+00  0.61717945931E+03  0.62379131848E+03  0.90582139626E+02 0.  0.
          2    1    3    3  502    0  0.20008416266E+02 -0.28635991674E+02  0.50709748199E+03  0.50829933404E+03  0.00000000000E+00 0.  1.
         -2    1    3    3    0  502 -0.20008416266E+02  0.28635991674E+02  0.11008197732E+03  0.11549198444E+03  0.00000000000E+00 0. -1.
<mgrwt>
<rscale>  0 0.90582140E+02</rscale>
<asrwt>0</asrwt>
<pdfrwt beam="1">  1        1 0.95459198E-01 0.90582140E+02</pdfrwt>
<pdfrwt beam="2">  1       -1 0.50860504E-03 0.90582140E+02</pdfrwt>
<totfact> 0.14431677E+05</totfact>
</mgrwt>
</event>
<event>
 5    1  0.4006808E+001  0.9238828E+02  0.7546771E-02  0.1297169E+00
          3   -1    0    0  501    0  0.00000000000E+00  0.00000000000E+00  0.74926941660E+01  0.74926941660E+01  0.00000000000E+00 0. -1.
         -3   -1    0    0    0  501 -0.00000000000E+00 -0.00000000000E+00 -0.28479723985E+03  0.28479723985E+03  0.00000000000E+00 0.  1.
         23    2    1    2    0    0  0.00000000000E+00  0.00000000000E+00 -0.27730454568E+03  0.29228993401E+03  0.92388281021E+02 0.  0.
          2    1    3    3  502    0 -0.24033210582E+02  0.42875944354E+01 -0.14583114366E+02  0.28436699905E+02  0.00000000000E+00 0. -1.
         -2    1    3    3    0  502  0.24033210582E+02 -0.42875944354E+01 -0.26272143131E+03  0.26385323411E+03  0.00000000000E+00 0.  1.
<mgrwt>
<rscale>  0 0.92388281E+02</rscale>
<asrwt>0</asrwt>
<pdfrwt beam="1">  1        3 0.11527220E-02 0.92388281E+02</pdfrwt>
<pdfrwt beam="2">  1       -3 0.43814966E-01 0.92388281E+02</pdfrwt>
<totfact> 0.23476705E+04</totfact>
</mgrwt>
</event>
<event>
 5    1  0.4006808E+001  0.9248078E+02  0.7546771E-02  0.1296953E+00
          3   -1    0    0  501    0  0.00000000000E+00  0.00000000000E+00  0.16196857994E+02  0.16196857994E+02  0.00000000000E+00 0. -1.
         -3   -1    0    0    0  501 -0.00000000000E+00 -0.00000000000E+00 -0.13201163064E+03  0.13201163064E+03  0.00000000000E+00 0.  1.
         23    2    1    2    0    0  0.00000000000E+00  0.00000000000E+00 -0.11581477265E+03  0.14820848864E+03  0.92480779301E+02 0.  0.
          2    1    3    3  502    0 -0.20950158724E+02 -0.10376450022E+02  0.60274728623E+01  0.24143535258E+02  0.00000000000E+00 0. -1.
         -2    1    3    3    0  502  0.20950158724E+02  0.10376450022E+02 -0.12184224551E+03  0.12406495338E+03  0.00000000000E+00 0.  1.
<mgrwt>
<rscale>  0 0.92480779E+02</rscale>
<asrwt>0</asrwt>
<pdfrwt beam="1">  1        3 0.24918243E-02 0.92480779E+02</pdfrwt>
<pdfrwt beam="2">  1       -3 0.20309482E-01 0.92480779E+02</pdfrwt>
<totfact> 0.30229934E+04</totfact>
</mgrwt>
</event>
<event>
 5    1  0.4006808E+001  0.9325239E+02  0.7546771E-02  0.1295161E+00
          4   -1    0    0  501    0  0.00000000000E+00  0.00000000000E+00  0.40147085767E+02  0.40147085767E+02  0.00000000000E+00 0. -1.
         -4   -1    0    0    0  501 -0.00000000000E+00 -0.00000000000E+00 -0.54150936260E+02  0.54150936260E+02  0.00000000000E+00 0.  1.
         23    2    1    2    0    0  0.00000000000E+00  0.00000000000E+00 -0.14003850494E+02  0.94298022027E+02  0.93252394766E+02 0.  0.
          2    1    3    3  502    0  0.62939452198E+01 -0.22347808907E+02 -0.47890002011E+02  0.53221148071E+02  0.00000000000E+00 0.  1.
         -2    1    3    3    0  502 -0.62939452198E+01  0.22347808907E+02  0.33886151517E+02  0.41076873956E+02  0.00000000000E+00 0. -1.
<mgrwt>
<rscale>  0 0.93252395E+02</rscale>
<asrwt>0</asrwt>
<pdfrwt beam="1">  1        4 0.61764748E-02 0.93252395E+02</pdfrwt>
<pdfrwt beam="2">  1       -4 0.83309132E-02 0.93252395E+02</pdfrwt>
<totfact> 0.25222914E+04</totfact>
</mgrwt>
</event>
<event>
 5    1  0.4006808E+001  0.9522034E+02  0.7546771E-02  0.1290681E+00
          2   -1    0    0  501    0  0.00000000000E+00  0.00000000000E+00  0.26580578578E+03  0.26580578578E+03  0.00000000000E+00 0. -1.
         -2   -1    0    0    0  501 -0.00000000000E+00 -0.00000000000E+00 -0.85277610006E+01  0.85277610006E+01  0.00000000000E+00 0.  1.
         23    2    1    2    0    0  0.00000000000E+00  0.00000000000E+00  0.25727802478E+03  0.27433354678E+03  0.95220338452E+02 0.  0.
          2    1    3    3  502    0  0.11176685052E+02  0.45390627627E+02  0.15464840815E+03  0.16155914555E+03  0.00000000000E+00 0. -1.
         -2    1    3    3    0  502 -0.11176685052E+02 -0.45390627627E+02  0.10262961663E+03  0.11277440124E+03  0.00000000000E+00 0.  1.
<mgrwt>
<rscale>  0 0.95220338E+02</rscale>
<asrwt>0</asrwt>
<pdfrwt beam="1">  1        2 0.40893191E-01 0.95220338E+02</pdfrwt>
<pdfrwt beam="2">  1       -2 0.13119634E-02 0.95220338E+02</pdfrwt>
<totfact> 0.15285857E+05</totfact>
</mgrwt>
</event>
<event>
 5    1  0.4006808E+001  0.9114796E+02  0.7546771E-02  0.1300095E+00
         -2   -1    0    0    0  501 -0.00000000000E+00  0.00000000000E+00  0.68828172182E+01  0.68828172182E+01  0.00000000000E+00 0.  1.
          2   -1    0    0  501    0  0.00000000000E+00 -0.00000000000E+00 -0.30176420471E+03  0.30176420471E+03  0.00000000000E+00 0. -1.
         23    2    1    2    0    0  0.00000000000E+00  0.00000000000E+00 -0.29488138749E+03  0.30864702193E+03  0.91147964630E+02 0.  0.
          2    1    3    3  502    0 -0.21427987518E+02  0.18490826732E+02 -0.26839646364E+03  0.26988466243E+03  0.00000000000E+00 0. -1.
         -2    1    3    3    0  502  0.21427987518E+02 -0.18490826732E+02 -0.26484923857E+02  0.38762359500E+02  0.00000000000E+00 0.  1.
<mgrwt>
<rscale>  0 0.91147965E+02</rscale>
<asrwt>0</asrwt>
<pdfrwt beam="2">  1        2 0.46425253E-01 0.91147965E+02</pdfrwt>
<pdfrwt beam="1">  1       -2 0.10588952E-02 0.91147965E+02</pdfrwt>
<totfact> 0.18020510E+05</totfact>
</mgrwt>
</event>
<event>
 5    1  0.4006808E+001  0.8880103E+02  0.7546771E-02  0.1305781E+00
          1   -1    0    0  501    0  0.00000000000E+00  0.00000000000E+00  0.16385526701E+02  0.16385526701E+02  0.00000000000E+00 0. -1.
         -1   -1    0    0    0  501 -0.00000000000E+00 -0.00000000000E+00 -0.12031383995E+03  0.12031383995E+03  0.00000000000E+00 0.  1.
         23    2    1    2    0    0  0.00000000000E+00  0.00000000000E+00 -0.10392831325E+03  0.13669936665E+03  0.88801027856E+02 0.  0.
          2    1    3    3  502    0  0.32671513676E+02  0.29784194093E+02 -0.58288708475E+02  0.73158045076E+02  0.00000000000E+00 0. -1.
         -2    1    3    3    0  502 -0.32671513676E+02 -0.29784194093E+02 -0.45639604778E+02  0.63541321579E+02  0.00000000000E+00 0.  1.
<mgrwt>
<rscale>  0 0.88801028E+02</rscale>
<asrwt>0</asrwt>
<pdfrwt beam="1">  1        1 0.25208502E-02 0.88801028E+02</pdfrwt>
<pdfrwt beam="2">  1       -1 0.18509822E-01 0.88801028E+02</pdfrwt>
<totfact> 0.84025434E+04</totfact>
</mgrwt>
</event>
<event>
 5    1  0.4006808E+001  0.9092252E+02  0.7546771E-02  0.1300633E+00
          2   -1    0    0  501    0  0.00000000000E+00  0.00000000000E+00  0.46986181442E+01  0.46986181442E+01  0.00000000000E+00 0. -1.
         -2   -1    0    0    0  501 -0.00000000000E+00 -0.00000000000E+00 -0.43985830567E+03  0.43985830567E+03  0.00000000000E+00 0.  1.
         23    2    1    2    0    0  0.00000000000E+00  0.00000000000E+00 -0.43515968753E+03  0.44455692382E+03  0.90922521212E+02 0.  0.
          2    1    3    3  502    0 -0.22851273041E+02  0.37125758755E+02 -0.15454187428E+03  0.16057301625E+03  0.00000000000E+00 0. -1.
         -2    1    3    3    0  502  0.22851273041E+02 -0.37125758755E+02 -0.28061781325E+03  0.28398390756E+03  0.00000000000E+00 0.  1.
<mgrwt>
<rscale>  0 0.90922521E+02</rscale>
<asrwt>0</asrwt>
<pdfrwt beam="1">  1        2 0.72286418E-03 0.90922521E+02</pdfrwt>
<pdfrwt beam="2">  1       -2 0.67670522E-01 0.90922521E+02</pdfrwt>
<totfact> 0.40246277E+04</totfact>
</mgrwt>
</event>
<event>
 5    1  0.4006808E+001  0.7562589E+02  0.7546771E-02  0.1341944E+00
          2   -1    0    0  501    0  0.00000000000E+00  0.00000000000E+00  0.11286592430E+04  0.11286592430E+04  0.00000000000E+00 0. -1.
         -2   -1    0    0    0  501 -0.00000000000E+00 -0.00000000000E+00 -0.12668296459E+01  0.12668296459E+01  0.00000000000E+00 0.  1.
         23    2    1    2    0    0  0.00000000000E+00  0.00000000000E+00  0.11273924133E+04  0.11299260726E+04  0.75625894749E+02 0.  0.
          2    1    3    3  502    0  0.19924112118E+02 -0.23911524488E+02  0.88452348892E+03  0.88507092016E+03  0.00000000000E+00 0. -1.
         -2    1    3    3    0  502 -0.19924112118E+02  0.23911524488E+02  0.24286892439E+03  0.24485515245E+03  0.00000000000E+00 0.  1.
<mgrwt>
<rscale>  0 0.75625895E+02</rscale>
<asrwt>0</asrwt>
<pdfrwt beam="1">  1        2 0.17363908E+00 0.75625895E+02</pdfrwt>
<pdfrwt beam="2">  1       -2 0.19489777E-03 0.75625895E+02</pdfrwt>
<totfact> 0.40700862E+05</totfact>
</mgrwt>
</event>
<event>
 5    1  0.4006808E+001  0.9203707E+02  0.7546771E-02  0.1297992E+00
          2   -1    0    0  501    0  0.00000000000E+00  0.00000000000E+00  0.39384275627E+01  0.39384275627E+01  0.00000000000E+00 0. -1.
         -2   -1    0    0    0  501 -0.00000000000E+00 -0.00000000000E+00 -0.53770334340E+03  0.53770334340E+03  0.00000000000E+00 0.  1.
         23    2    1    2    0    0  0.00000000000E+00  0.00000000000E+00 -0.53376491584E+03  0.54164177096E+03  0.92037072274E+02 0.  0.
          2    1    3    3  502    0 -0.68884527023E+01  0.18798706648E+02 -0.23035557196E+02  0.30520141670E+02  0.00000000000E+00 0. -1.
         -2    1    3    3    0  502  0.68884527023E+01 -0.18798706648E+02 -0.51072935864E+03  0.51112162929E+03  0.00000000000E+00 0.  1.
<mgrwt>
<rscale>  0 0.92037072E+02</rscale>
<asrwt>0</asrwt>
<pdfrwt beam="1">  1        2 0.60591222E-03 0.92037072E+02</pdfrwt>
<pdfrwt beam="2">  1       -2 0.82723552E-01 0.92037072E+02</pdfrwt>
<totfact> 0.33441287E+04</totfact>
</mgrwt>
</event>
<event>
 5    1  0.4006808E+001  0.8825617E+02  0.7546771E-02  0.1307130E+00
          1   -1    0    0  501    0  0.00000000000E+00  0.00000000000E+00  0.21416216187E+03  0.21416216187E+03  0.00000000000E+00 0. -1.
         -1   -1    0    0    0  501 -0.00000000000E+00 -0.00000000000E+00 -0.90925859551E+01  0.90925859551E+01  0.00000000000E+00 0.  1.
         23    2    1    2    0    0  0.00000000000E+00  0.00000000000E+00  0.20506957592E+03  0.22325474783E+03  0.88256169533E+02 0.  0.
          2    1    3    3  502    0 -0.37409571809E+02 -0.22839743022E+02  0.11547249780E+03  0.12351124512E+03  0.00000000000E+00 0. -1.
         -2    1    3    3    0  502  0.37409571809E+02  0.22839743022E+02  0.89597078120E+02  0.99743502705E+02  0.00000000000E+00 0.  1.
<mgrwt>
<rscale>  0 0.88256170E+02</rscale>
<asrwt>0</asrwt>
<pdfrwt beam="1">  1        1 0.32948021E-01 0.88256170E+02</pdfrwt>
<pdfrwt beam="2">  1       -1 0.13988595E-02 0.88256170E+02</pdfrwt>
<totfact> 0.13089875E+05</totfact>
</mgrwt>
</event>
<event>
 5    1  0.4006808E+001  0.9110442E+02  0.7546771E-02  0.1300199E+00
          2   -1    0    0  501    0  0.00000000000E+00  0.00000000000E+00  0.28161159335E+03  0.28161159335E+03  0.00000000000E+00 0. -1.
         -2   -1    0    0    0  501 -0.00000000000E+00 -0.00000000000E+00 -0.73683176799E+01  0.73683176799E+01  0.00000000000E+00 0.  1.
         23    2    1    2    0    0  0.00000000000E+00  0.00000000000E+00  0.27424327567E+03  0.28897991103E+03  0.91104416625E+02 0.  0.
          2    1    3    3  502    0 -0.42009244911E+02 -0.28664328914E+01  0.81997817955E+02  0.92177194820E+02  0.00000000000E+00 0. -1.
         -2    1    3    3    0  502  0.42009244911E+02  0.28664328914E+01  0.19224545771E+03  0.19680271621E+03  0.00000000000E+00 0.  1.
<mgrwt>
<rscale>  0 0.91104417E+02</rscale>
<asrwt>0</asrwt>
<pdfrwt beam="1">  1        2 0.43324852E-01 0.91104417E+02</pdfrwt>
<pdfrwt beam="2">  1       -2 0.11335876E-02 0.91104417E+02</pdfrwt>
<totfact> 0.17584560E+05</totfact>
</mgrwt>
</event>
<event>
 5    1  0.4006808E+001  0.9071669E+02  0.7546771E-02  0.1301125E+00
          1   -1    0    0  501    0  0.00000000000E+00  0.00000000000E+00  0.52420784344E+03  0.52420784344E+03  0.00000000000E+00 0. -1.
         -1   -1    0    0    0  501 -0.00000000000E+00 -0.00000000000E+00 -0.39247395349E+01  0.39247395349E+01  0.00000000000E+00 0.  1.
         23    2    1    2    0    0  0.00000000000E+00  0.00000000000E+00  0.52028310390E+03  0.52813258297E+03  0.90716685294E+02 0.  0.
          2    1    3    3  502    0  0.40720203064E+02  0.19915390227E+02  0.25071540480E+03  0.25478024239E+03  0.00000000000E+00 0. -1.
         -2    1    3    3    0  502 -0.40720203064E+02 -0.19915390227E+02  0.26956769910E+03  0.27335234059E+03  0.00000000000E+00 0.  1.
<mgrwt>
<rscale>  0 0.90716685E+02</rscale>
<asrwt>0</asrwt>
<pdfrwt beam="1">  1        1 0.80647305E-01 0.90716685E+02</pdfrwt>
<pdfrwt beam="2">  1       -1 0.60380650E-03 0.90716685E+02</pdfrwt>
<totfact> 0.14189008E+05</totfact>
</mgrwt>
</event>
<event>
 5    1  0.4006808E+001  0.9149974E+02  0.7546771E-02  0.1299260E+00
         -2   -1    0    0    0  501 -0.00000000000E+00  0.00000000000E+00  0.63587307894E+01  0.63587307894E+01  0.00000000000E+00 0.  1.
          2   -1    0    0  501    0  0.00000000000E+00 -0.00000000000E+00 -0.32916169849E+03  0.32916169849E+03  0.00000000000E+00 0. -1.
         23    2    1    2    0    0  0.00000000000E+00  0.00000000000E+00 -0.32280296770E+03  0.33552042928E+03  0.91499740477E+02 0.  0.
          2    1    3    3  502    0  0.13616519683E+02 -0.42952211467E+02 -0.19044846140E+03  0.19570620462E+03  0.00000000000E+00 0. -1.
         -2    1    3    3    0  502 -0.13616519683E+02  0.42952211467E+02 -0.13235450630E+03  0.13981422465E+03  0.00000000000E+00 0.  1.
<mgrwt>
<rscale>  0 0.91499740E+02</rscale>
<asrwt>0</asrwt>
<pdfrwt beam="2">  1        2 0.50640271E-01 0.91499740E+02</pdfrwt>
<pdfrwt beam="1">  1       -2 0.97826608E-03 0.91499740E+02</pdfrwt>
<totfact> 0.18420757E+05</totfact>
</mgrwt>
</event>
<event>
 5    1  0.4006808E+001  0.9692007E+02  0.7546771E-02  0.1286909E+00
         -4   -1    0    0    0  501 -0.00000000000E+00  0.00000000000E+00  0.18256555117E+03  0.18256555117E+03  0.00000000000E+00 0.  1.
          4   -1    0    0  501    0  0.00000000000E+00 -0.00000000000E+00 -0.12863187751E+02  0.12863187751E+02  0.00000000000E+00 0. -1.
         23    2    1    2    0    0  0.00000000000E+00  0.00000000000E+00  0.16970236342E+03  0.19542873892E+03  0.96920069368E+02 0.  0.
          2    1    3    3  502    0 -0.59750122149E+01  0.46661262393E+02  0.61388086634E+02  0.77339972586E+02  0.00000000000E+00 0. -1.
         -2    1    3    3    0  502  0.59750122149E+01 -0.46661262393E+02  0.10831427679E+03  0.11808876634E+03  0.00000000000E+00 0.  1.
<mgrwt>
<rscale>  0 0.96920069E+02</rscale>
<asrwt>0</asrwt>
<pdfrwt beam="2">  1        4 0.19789521E-02 0.96920069E+02</pdfrwt>
<pdfrwt beam="1">  1       -4 0.28087006E-01 0.96920069E+02</pdfrwt>
<totfact> 0.18305400E+04</totfact>
</mgrwt>
</event>
<event>
 5    1  0.4006808E+001  0.1035545E+03  0.7546771E-02  0.1272994E+00
          1   -1    0    0  501    0  0.00000000000E+00  0.00000000000E+00  0.14075945866E+03  0.14075945866E+03  0.00000000000E+00 0. -1.
         -1   -1    0    0    0  501 -0.00000000000E+00 -0.00000000000E+00 -0.19045846390E+02  0.19045846390E+02  0.00000000000E+00 0.  1.
         23    2    1    2    0    0  0.00000000000E+00  0.00000000000E+00  0.12171361227E+03  0.15980530505E+03  0.10355448860E+03 0.  0.
          2    1    3    3  502    0  0.29418391218E+02  0.28266508150E+02  0.11005672398E+03  0.11737512394E+03  0.00000000000E+00 0. -1.
         -2    1    3    3    0  502 -0.29418391218E+02 -0.28266508150E+02  0.11656888286E+02  0.42430181114E+02  0.00000000000E+00 0.  1.
<mgrwt>
<rscale>  0 0.10355449E+03</rscale>
<asrwt>0</asrwt>
<pdfrwt beam="1">  1        1 0.21655301E-01 0.10355449E+03</pdfrwt>
<pdfrwt beam="2">  1       -1 0.29301303E-02 0.10355449E+03</pdfrwt>
<totfact> 0.78362425E+04</totfact>
</mgrwt>
</event>
<event>
 5    1  0.4006808E+001  0.9140739E+02  0.7546771E-02  0.1299479E+00
          2   -1    0    0  501    0  0.00000000000E+00  0.00000000000E+00  0.90162634387E+02  0.90162634387E+02  0.00000000000E+00 0. -1.
         -2   -1    0    0    0  501 -0.00000000000E+00 -0.00000000000E+00 -0.23167330543E+02  0.23167330543E+02  0.00000000000E+00 0.  1.
         23    2    1    2    0    0  0.00000000000E+00  0.00000000000E+00  0.66995303844E+02  0.11332996493E+03  0.91407385991E+02 0.  0.
          2    1    3    3  502    0 -0.30008904936E+02  0.24507444719E+02  0.34415050797E+01  0.38897213002E+02  0.00000000000E+00 0.  1.
         -2    1    3    3    0  502  0.30008904936E+02 -0.24507444719E+02  0.63553798764E+02  0.74432751927E+02  0.00000000000E+00 0. -1.
<mgrwt>
<rscale>  0 0.91407386E+02</rscale>
<asrwt>0</asrwt>
<pdfrwt beam="1">  1        2 0.13871174E-01 0.91407386E+02</pdfrwt>
<pdfrwt beam="2">  1       -2 0.35642048E-02 0.91407386E+02</pdfrwt>
<totfact> 0.11809350E+05</totfact>
</mgrwt>
</event>
<event>
 5    1  0.4006808E+001  0.9666212E+02  0.7546771E-02  0.1287476E+00
         -2   -1    0    0    0  501 -0.00000000000E+00  0.00000000000E+00  0.19487306422E+01  0.19487306422E+01  0.00000000000E+00 0.  1.
          2   -1    0    0  501    0  0.00000000000E+00 -0.00000000000E+00 -0.11986732862E+04  0.11986732862E+04  0.00000000000E+00 0. -1.
         23    2    1    2    0    0  0.00000000000E+00  0.00000000000E+00 -0.11967245555E+04  0.12006220168E+04  0.96662120043E+02 0.  0.
          2    1    3    3  502    0 -0.24420911969E+02 -0.30318463635E+02 -0.95410551787E+03  0.95489943419E+03  0.00000000000E+00 0. -1.
         -2    1    3    3    0  502  0.24420911969E+02  0.30318463635E+02 -0.24261903766E+03  0.24572258263E+03  0.00000000000E+00 0.  1.
<mgrwt>
<rscale>  0 0.96662120E+02</rscale>
<asrwt>0</asrwt>
<pdfrwt beam="2">  1        2 0.18441135E+00 0.96662120E+02</pdfrwt>
<pdfrwt beam="1">  1       -2 0.29980459E-03 0.96662120E+02</pdfrwt>
<totfact> 0.21316564E+05</totfact>
</mgrwt>
</event>
<event>
 5    1  0.4006808E+001  0.8934668E+02  0.7546771E-02  0.1304442E+00
         -2   -1    0    0    0  501 -0.00000000000E+00  0.00000000000E+00  0.11023207249E+03  0.11023207249E+03  0.00000000000E+00 0.  1.
          2   -1    0    0  501    0  0.00000000000E+00 -0.00000000000E+00 -0.18104595826E+02  0.18104595826E+02  0.00000000000E+00 0. -1.
         23    2    1    2    0    0  0.00000000000E+00  0.00000000000E+00  0.92127476661E+02  0.12833666831E+03  0.89346675808E+02 0.  0.
          2    1    3    3  502    0  0.26897186150E+02  0.32889083292E+02  0.26235484508E+02  0.49934467755E+02  0.00000000000E+00 0. -1.
         -2    1    3    3    0  502 -0.26897186150E+02 -0.32889083292E+02  0.65891992153E+02  0.78402200559E+02  0.00000000000E+00 0.  1.
<mgrwt>
<rscale>  0 0.89346676E+02</rscale>
<asrwt>0</asrwt>
<pdfrwt beam="2">  1        2 0.27853225E-02 0.89346676E+02</pdfrwt>
<pdfrwt beam="1">  1       -2 0.16958780E-01 0.89346676E+02</pdfrwt>
<totfact> 0.81499544E+04</totfact>
</mgrwt>
</event>
<event>
 5    1  0.4006808E+001  0.8939294E+02  0.7546771E-02  0.1304328E+00
          1   -1    0    0  501    0  0.00000000000E+00  0.00000000000E+00  0.15661268377E+04  0.15661268377E+04  0.00000000000E+00 0. -1.
         -1   -1    0    0    0  501 -0.00000000000E+00 -0.00000000000E+00 -0.12756148412E+01  0.12756148412E+01  0.00000000000E+00 0.  1.
         23    2    1    2    0    0  0.00000000000E+00  0.00000000000E+00  0.15648512229E+04  0.15674024526E+04  0.89392944630E+02 0.  0.
          2    1    3    3  502    0  0.67778446617E+01 -0.38968891939E+02  0.11473913003E+04  0.11480728678E+04  0.00000000000E+00 0. -1.
         -2    1    3    3    0  502 -0.67778446617E+01  0.38968891939E+02  0.41745992254E+03  0.41932958475E+03  0.00000000000E+00 0.  1.
<mgrwt>
<rscale>  0 0.89392945E+02</rscale>
<asrwt>0</asrwt>
<pdfrwt beam="1">  1        1 0.24094105E+00 0.89392945E+02</pdfrwt>
<pdfrwt beam="2">  1       -1 0.19624969E-03 0.89392945E+02</pdfrwt>
<totfact> 0.11220614E+05</totfact>
</mgrwt>
</event>
<event>
 5    1  0.4006808E+001  0.9053567E+02  0.7546771E-02  0.1301560E+00
          2   -1    0    0  501    0  0.00000000000E+00  0.00000000000E+00  0.25197220767E+04  0.25197220767E+04  0.00000000000E+00 0. -1.
         -2   -1    0    0    0  501 -0.00000000000E+00 -0.00000000000E+00 -0.81325510993E+00  0.81325510993E+00  0.00000000000E+00 0.  1.
         23    2    1    2    0    0  0.00000000000E+00  0.00000000000E+00  0.25189088215E+04  0.25205353318E+04  0.90535669312E+02 0.  0.
          2    1    3    3  502    0  0.19102431698E+02  0.35486927730E+02  0.18333633241E+04  0.18338062338E+04  0.00000000000E+00 0. -1.
         -2    1    3    3    0  502 -0.19102431698E+02 -0.35486927730E+02  0.68554549741E+03  0.68672909794E+03  0.00000000000E+00 0.  1.
<mgrwt>
<rscale>  0 0.90535669E+02</rscale>
<asrwt>0</asrwt>
<pdfrwt beam="1">  1        2 0.38764330E+00 0.90535669E+02</pdfrwt>
<pdfrwt beam="2">  1       -2 0.12511819E-03 0.90535669E+02</pdfrwt>
<totfact> 0.14940267E+05</totfact>
</mgrwt>
</event>
<event>
 5    1  0.4006808E+001  0.8905473E+02  0.7546771E-02  0.1305157E+00
         -2   -1    0    0    0  501 -0.00000000000E+00  0.00000000000E+00  0.15945827054E+02  0.15945827054E+02  0.00000000000E+00 0.  1.
          2   -1    0    0  501    0  0.00000000000E+00 -0.00000000000E+00 -0.12433887317E+03  0.12433887317E+03  0.00000000000E+00 0. -1.
         23    2    1    2    0    0  0.00000000000E+00  0.00000000000E+00 -0.10839304612E+03  0.14028470023E+03  0.89054728515E+02 0.  0.
          2    1    3    3  502    0  0.13460951653E+02  0.29700155352E+02 -0.64322528838E+01  0.33236581119E+02  0.00000000000E+00 0.  1.
         -2    1    3    3    0  502 -0.13460951653E+02 -0.29700155352E+02 -0.10196079324E+03  0.10704811911E+03  0.00000000000E+00 0. -1.
<mgrwt>
<rscale>  0 0.89054729E+02</rscale>
<asrwt>0</asrwt>
<pdfrwt beam="2">  1        2 0.19129058E-01 0.89054729E+02</pdfrwt>
<pdfrwt beam="1">  1       -2 0.24532041E-02 0.89054729E+02</pdfrwt>
<totfact> 0.14006258E+05</totfact>
</mgrwt>
</event>
<event>
 5    1  0.4006808E+001  0.8968400E+02  0.7546771E-02  0.1303619E+00
         -1   -1    0    0    0  501 -0.00000000000E+00  0.00000000000E+00  0.37711520841E+01  0.37711520841E+01  0.00000000000E+00 0.  1.
          1   -1    0    0  501    0  0.00000000000E+00 -0.00000000000E+00 -0.53320712675E+03  0.53320712675E+03  0.00000000000E+00 0. -1.
         23    2    1    2    0    0  0.00000000000E+00  0.00000000000E+00 -0.52943597467E+03  0.53697827884E+03  0.89684004533E+02 0.  0.
          2    1    3    3  502    0  0.44411640446E+02 -0.37608081749E+01 -0.23522247974E+03  0.23940792063E+03  0.00000000000E+00 0. -1.
         -2    1    3    3    0  502 -0.44411640446E+02  0.37608081749E+01 -0.29421349493E+03  0.29757035821E+03  0.00000000000E+00 0.  1.
<mgrwt>
<rscale>  0 0.89684005E+02</rscale>
<asrwt>0</asrwt>
<pdfrwt beam="2">  1        1 0.82031849E-01 0.89684005E+02</pdfrwt>
<pdfrwt beam="1">  1       -1 0.58017736E-03 0.89684005E+02</pdfrwt>
<totfact> 0.14650747E+05</totfact>
</mgrwt>
</event>
<event>
 5    1  0.4006808E+001  0.9018927E+02  0.7546771E-02  0.1302394E+00
         -1   -1    0    0    0  501 -0.00000000000E+00  0.00000000000E+00  0.41356812126E+03  0.41356812126E+03  0.00000000000E+00 0.  1.
          1   -1    0    0  501    0  0.00000000000E+00 -0.00000000000E+00 -0.49170286360E+01  0.49170286360E+01  0.00000000000E+00 0. -1.
         23    2    1    2    0    0  0.00000000000E+00  0.00000000000E+00  0.40865109262E+03  0.41848514989E+03  0.90189274200E+02 0.  0.
          2    1    3    3  502    0  0.33153574946E+02  0.21597038805E+02  0.10395234509E+03  0.11122806151E+03  0.00000000000E+00 0. -1.
         -2    1    3    3    0  502 -0.33153574946E+02 -0.21597038805E+02  0.30469874753E+03  0.30725708838E+03  0.00000000000E+00 0.  1.
<mgrwt>
<rscale>  0 0.90189274E+02</rscale>
<asrwt>0</asrwt>
<pdfrwt beam="2">  1        1 0.75646627E-03 0.90189274E+02</pdfrwt>
<pdfrwt beam="1">  1       -1 0.63625837E-01 0.90189274E+02</pdfrwt>
<totfact> 0.53901614E+04</totfact>
</mgrwt>
</event>
<event>
 5    1  0.4006808E+001  0.8993712E+02  0.7546771E-02  0.1303004E+00
          1   -1    0    0  501    0  0.00000000000E+00  0.00000000000E+00  0.47602481438E+02  0.47602481438E+02  0.00000000000E+00 0. -1.
         -1   -1    0    0    0  501 -0.00000000000E+00 -0.00000000000E+00 -0.42480376160E+02  0.42480376160E+02  0.00000000000E+00 0.  1.
         23    2    1    2    0    0  0.00000000000E+00  0.00000000000E+00  0.51221052782E+01  0.90082857599E+02  0.89937118425E+02 0.  0.
          2    1    3    3  502    0  0.60046876232E+01 -0.28137435207E+02  0.37177145225E+02  0.47009697516E+02  0.00000000000E+00 0. -1.
         -2    1    3    3    0  502 -0.60046876232E+01  0.28137435207E+02 -0.32055039947E+02  0.43073160082E+02  0.00000000000E+00 0.  1.
<mgrwt>
<rscale>  0 0.89937118E+02</rscale>
<asrwt>0</asrwt>
<pdfrwt beam="1">  1        1 0.73234587E-02 0.89937118E+02</pdfrwt>
<pdfrwt beam="2">  1       -1 0.65354425E-02 0.89937118E+02</pdfrwt>
<totfact> 0.96706739E+04</totfact>
</mgrwt>
</event>
<event>
 5    1  0.4006808E+001  0.9171466E+02  0.7546771E-02  0.1298752E+00
          2   -1    0    0  501    0  0.00000000000E+00  0.00000000000E+00  0.27833921527E+02  0.27833921527E+02  0.00000000000E+00 0. -1.
         -2   -1    0    0    0  501 -0.00000000000E+00 -0.00000000000E+00 -0.75551508010E+02  0.75551508010E+02  0.00000000000E+00 0.  1.
         23    2    1    2    0    0  0.00000000000E+00  0.00000000000E+00 -0.47717586483E+02  0.10338542954E+03  0.91714660664E+02 0.  0.
          2    1    3    3  502    0 -0.37256484574E+02  0.25756029392E+02 -0.31946458904E+02  0.55425580100E+02  0.00000000000E+00 0. -1.
         -2    1    3    3    0  502  0.37256484574E+02 -0.25756029392E+02 -0.15771127579E+02  0.47959849437E+02  0.00000000000E+00 0.  1.
<mgrwt>
<rscale>  0 0.91714661E+02</rscale>
<asrwt>0</asrwt>
<pdfrwt beam="1">  1        2 0.42821418E-02 0.91714661E+02</pdfrwt>
<pdfrwt beam="2">  1       -2 0.11623309E-01 0.91714661E+02</pdfrwt>
<totfact> 0.85186906E+04</totfact>
</mgrwt>
</event>
<event>
 5    1  0.4006808E+001  0.9454717E+02  0.7546771E-02  0.1292199E+00
         -4   -1    0    0    0  501 -0.00000000000E+00  0.00000000000E+00  0.13915192646E+03  0.13915192646E+03  0.00000000000E+00 0.  1.
          4   -1    0    0  501    0  0.00000000000E+00 -0.00000000000E+00 -0.16060086605E+02  0.16060086605E+02  0.00000000000E+00 0. -1.
         23    2    1    2    0    0  0.00000000000E+00  0.00000000000E+00  0.12309183985E+03  0.15521201306E+03  0.94547173201E+02 0.  0.
          2    1    3    3  502    0  0.45220783374E+01  0.43327060234E+02  0.31404637210E+02  0.53702277226E+02  0.00000000000E+00 0. -1.
         -2    1    3    3    0  502 -0.45220783374E+01 -0.43327060234E+02  0.91687202640E+02  0.10150973583E+03  0.00000000000E+00 0.  1.
<mgrwt>
<rscale>  0 0.94547173E+02</rscale>
<asrwt>0</asrwt>
<pdfrwt beam="2">  1        4 0.24707826E-02 0.94547173E+02</pdfrwt>
<pdfrwt beam="1">  1       -4 0.21407988E-01 0.94547173E+02</pdfrwt>
<totfact> 0.21227973E+04</totfact>
</mgrwt>
</event>
<event>
 5    1  0.4006808E+001  0.9028591E+02  0.7546771E-02  0.1302161E+00
          1   -1    0    0  501    0  0.00000000000E+00  0.00000000000E+00  0.11847545586E+03  0.11847545586E+03  0.00000000000E+00 0. -1.
         -1   -1    0    0    0  501 -0.00000000000E+00 -0.00000000000E+00 -0.17200916863E+02  0.17200916863E+02  0.00000000000E+00 0.  1.
         23    2    1    2    0    0  0.00000000000E+00  0.00000000000E+00  0.10127453900E+03  0.13567637273E+03  0.90285911783E+02 0.  0.
          2    1    3    3  502    0 -0.29614392967E+02  0.11820039495E+01  0.10180725770E+03  0.10603361318E+03  0.00000000000E+00 0. -1.
         -2    1    3    3    0  502  0.29614392967E+02 -0.11820039495E+01 -0.53271870086E+00  0.29642759543E+02  0.00000000000E+00 0.  1.
<mgrwt>
<rscale>  0 0.90285912E+02</rscale>
<asrwt>0</asrwt>
<pdfrwt beam="1">  1        1 0.18226993E-01 0.90285912E+02</pdfrwt>
<pdfrwt beam="2">  1       -1 0.26462950E-02 0.90285912E+02</pdfrwt>
<totfact> 0.11039876E+05</totfact>
</mgrwt>
</event>
<event>
 5    1  0.4006808E+001  0.9240104E+02  0.7546771E-02  0.1297139E+00
         -2   -1    0    0    0  501 -0.00000000000E+00  0.00000000000E+00  0.40789305920E+01  0.40789305920E+01  0.00000000000E+00 0.  1.
          2   -1    0    0  501    0  0.00000000000E+00 -0.00000000000E+00 -0.52329603085E+03  0.52329603085E+03  0.00000000000E+00 0. -1.
         23    2    1    2    0    0  0.00000000000E+00  0.00000000000E+00 -0.51921710026E+03  0.52737496144E+03  0.92401043044E+02 0.  0.
          2    1    3    3  502    0 -0.12732613759E+00 -0.46176721624E+02 -0.26804006347E+03  0.27198856861E+03  0.00000000000E+00 0. -1.
         -2    1    3    3    0  502  0.12732613759E+00  0.46176721624E+02 -0.25117703679E+03  0.25538639283E+03  0.00000000000E+00 0.  1.
<mgrwt>
<rscale>  0 0.92401043E+02</rscale>
<asrwt>0</asrwt>
<pdfrwt beam="2">  1        2 0.80507030E-01 0.92401043E+02</pdfrwt>
<pdfrwt beam="1">  1       -2 0.62752819E-03 0.92401043E+02</pdfrwt>
<totfact> 0.21107715E+05</totfact>
</mgrwt>
</event>
<event>
 5    1  0.4006808E+001  0.9528083E+02  0.7546771E-02  0.1290545E+00
          1   -1    0    0  501    0  0.00000000000E+00  0.00000000000E+00  0.78313592204E+02  0.78313592204E+02  0.00000000000E+00 0. -1.
         -1   -1    0    0    0  501 -0.00000000000E+00 -0.00000000000E+00 -0.28981040065E+02  0.28981040065E+02  0.00000000000E+00 0.  1.
         23    2    1    2    0    0  0.00000000000E+00  0.00000000000E+00  0.49332552139E+02  0.10729463227E+03  0.95280834449E+02 0.  0.
          2    1    3    3  502    0  0.17876148545E+02  0.37131960774E+02  0.51581203413E+02  0.66022418490E+02  0.00000000000E+00 0. -1.
         -2    1    3    3    0  502 -0.17876148545E+02 -0.37131960774E+02 -0.22486512741E+01  0.41272213780E+02  0.00000000000E+00 0.  1.
<mgrwt>
<rscale>  0 0.95280834E+02</rscale>
<asrwt>0</asrwt>
<pdfrwt beam="1">  1        1 0.12048245E-01 0.95280834E+02</pdfrwt>
<pdfrwt beam="2">  1       -1 0.44586216E-02 0.95280834E+02</pdfrwt>
<totfact> 0.88926447E+04</totfact>
</mgrwt>
</event>
<event>
 5    1  0.4006808E+001  0.8995456E+02  0.7546771E-02  0.1302962E+00
          3   -1    0    0  501    0  0.00000000000E+00  0.00000000000E+00  0.14035833241E+02  0.14035833241E+02  0.00000000000E+00 0.  1.
         -3   -1    0    0    0  501 -0.00000000000E+00 -0.00000000000E+00 -0.14412794611E+03  0.14412794611E+03  0.00000000000E+00 0. -1.
         23    2    1    2    0    0  0.00000000000E+00  0.00000000000E+00 -0.13009211287E+03  0.15816377935E+03  0.89954562240E+02 0.  0.
          2    1    3    3  502    0  0.29190556629E+02 -0.23635483520E+02 -0.21540818616E+02  0.43298170217E+02  0.00000000000E+00 0.  1.
         -2    1    3    3    0  502 -0.29190556629E+02  0.23635483520E+02 -0.10855129426E+03  0.11486560914E+03  0.00000000000E+00 0. -1.
<mgrwt>
<rscale>  0 0.89954562E+02</rscale>
<asrwt>0</asrwt>
<pdfrwt beam="1">  1        3 0.21593591E-02 0.89954562E+02</pdfrwt>
<pdfrwt beam="2">  1       -3 0.22173529E-01 0.89954562E+02</pdfrwt>
<totfact> 0.31959721E+04</totfact>
</mgrwt>
</event>
<event>
 5    1  0.4006808E+001  0.8125079E+02  0.7546771E-02  0.1325539E+00
         -4   -1    0    0    0  501 -0.00000000000E+00  0.00000000000E+00  0.11537108784E+03  0.11537108784E+03  0.00000000000E+00 0.  1.
          4   -1    0    0  501    0  0.00000000000E+00 -0.00000000000E+00 -0.14305340083E+02  0.14305340083E+02  0.00000000000E+00 0. -1.
         23    2    1    2    0    0  0.00000000000E+00  0.00000000000E+00  0.10106574776E+03  0.12967642793E+03  0.81250788238E+02 0.  0.
          2    1    3    3  502    0 -0.32059243003E+02  0.24701105443E+02  0.56171749462E+02  0.69232977038E+02  0.00000000000E+00 0. -1.
         -2    1    3    3    0  502  0.32059243003E+02 -0.24701105443E+02  0.44893998298E+02  0.60443450887E+02  0.00000000000E+00 0.  1.
<mgrwt>
<rscale>  0 0.81250788E+02</rscale>
<asrwt>0</asrwt>
<pdfrwt beam="2">  1        4 0.22008216E-02 0.81250788E+02</pdfrwt>
<pdfrwt beam="1">  1       -4 0.17749398E-01 0.81250788E+02</pdfrwt>
<totfact> 0.33659374E+04</totfact>
</mgrwt>
</event>
<event>
 5    1  0.4006808E+001  0.9062936E+02  0.7546771E-02  0.1301335E+00
         -2   -1    0    0    0  501 -0.00000000000E+00  0.00000000000E+00  0.84871122867E+00  0.84871122867E+00  0.00000000000E+00 0.  1.
          2   -1    0    0  501    0  0.00000000000E+00 -0.00000000000E+00 -0.24194569902E+04  0.24194569902E+04  0.00000000000E+00 0. -1.
         23    2    1    2    0    0  0.00000000000E+00  0.00000000000E+00 -0.24186082789E+04  0.24203057014E+04  0.90629362015E+02 0.  0.
          2    1    3    3  502    0 -0.78106866486E+01 -0.44512010983E+02 -0.12982554944E+04  0.12990418218E+04  0.00000000000E+00 0.  1.
         -2    1    3    3    0  502  0.78106866486E+01  0.44512010983E+02 -0.11203527845E+04  0.11212638796E+04  0.00000000000E+00 0. -1.
<mgrwt>
<rscale>  0 0.90629362E+02</rscale>
<asrwt>0</asrwt>
<pdfrwt beam="2">  1        2 0.37221729E+00 0.90629362E+02</pdfrwt>
<pdfrwt beam="1">  1       -2 0.13057337E-03 0.90629362E+02</pdfrwt>
<totfact> 0.15895852E+05</totfact>
</mgrwt>
</event>
<event>
 5    1  0.4006808E+001  0.8099487E+02  0.7546771E-02  0.1326252E+00
         -4   -1    0    0    0  501 -0.00000000000E+00  0.00000000000E+00  0.23185068166E+02  0.23185068166E+02  0.00000000000E+00 0.  1.
          4   -1    0    0  501    0  0.00000000000E+00 -0.00000000000E+00 -0.70737008325E+02  0.70737008325E+02  0.00000000000E+00 0. -1.
         23    2    1    2    0    0  0.00000000000E+00  0.00000000000E+00 -0.47551940159E+02  0.93922076491E+02  0.80994872921E+02 0.  0.
          2    1    3    3  502    0 -0.22382957476E+02 -0.14384581542E+02 -0.59179637934E+02  0.64885611020E+02  0.00000000000E+00 0. -1.
         -2    1    3    3    0  502  0.22382957476E+02  0.14384581542E+02  0.11627697774E+02  0.29036465471E+02  0.00000000000E+00 0.  1.
<mgrwt>
<rscale>  0 0.80994873E+02</rscale>
<asrwt>0</asrwt>
<pdfrwt beam="2">  1        4 0.10882617E-01 0.80994873E+02</pdfrwt>
<pdfrwt beam="1">  1       -4 0.35669336E-02 0.80994873E+02</pdfrwt>
<totfact> 0.36894832E+04</totfact>
</mgrwt>
</event>
<event>
 5    1  0.4006808E+001  0.9137555E+02  0.7546771E-02  0.1299554E+00
          2   -1    0    0  501    0  0.00000000000E+00  0.00000000000E+00  0.10072691145E+04  0.10072691145E+04  0.00000000000E+00 0. -1.
         -2   -1    0    0    0  501 -0.00000000000E+00 -0.00000000000E+00 -0.20723090697E+01  0.20723090697E+01  0.00000000000E+00 0.  1.
         23    2    1    2    0    0  0.00000000000E+00  0.00000000000E+00  0.10051968054E+04  0.10093414235E+04  0.91375553000E+02 0.  0.
          2    1    3    3  502    0  0.92087302056E+01 -0.41102996111E+02  0.69805964453E+03  0.69932933895E+03  0.00000000000E+00 0.  1.
         -2    1    3    3    0  502 -0.92087302056E+01  0.41102996111E+02  0.30713716085E+03  0.31001208457E+03  0.00000000000E+00 0. -1.
<mgrwt>
<rscale>  0 0.91375553E+02</rscale>
<asrwt>0</asrwt>
<pdfrwt beam="1">  1        2 0.15496409E+00 0.91375553E+02</pdfrwt>
<pdfrwt beam="2">  1       -2 0.31881759E-03 0.91375553E+02</pdfrwt>
<totfact> 0.24865828E+05</totfact>
</mgrwt>
</event>
<event>
 5    1  0.4006808E+001  0.9155536E+02  0.7546771E-02  0.1299128E+00
          4   -1    0    0  501    0  0.00000000000E+00  0.00000000000E+00  0.11957682406E+03  0.11957682406E+03  0.00000000000E+00 0. -1.
         -4   -1    0    0    0  501 -0.00000000000E+00 -0.00000000000E+00 -0.17525099749E+02  0.17525099749E+02  0.00000000000E+00 0.  1.
         23    2    1    2    0    0  0.00000000000E+00  0.00000000000E+00  0.10205172432E+03  0.13710192381E+03  0.91555355264E+02 0.  0.
          2    1    3    3  502    0 -0.26702303586E+02 -0.25528009699E+02  0.10541266178E+02  0.38416280255E+02  0.00000000000E+00 0.  1.
         -2    1    3    3    0  502  0.26702303586E+02  0.25528009699E+02  0.91510458138E+02  0.98685643559E+02  0.00000000000E+00 0. -1.
<mgrwt>
<rscale>  0 0.91555355E+02</rscale>
<asrwt>0</asrwt>
<pdfrwt beam="1">  1        4 0.18396434E-01 0.91555355E+02</pdfrwt>
<pdfrwt beam="2">  1       -4 0.26961693E-02 0.91555355E+02</pdfrwt>
<totfact> 0.24066619E+04</totfact>
</mgrwt>
</event>
<event>
 5    1  0.4006808E+001  0.1132312E+03  0.7546771E-02  0.1254701E+00
         -1   -1    0    0    0  501 -0.00000000000E+00  0.00000000000E+00  0.53857892071E+01  0.53857892071E+01  0.00000000000E+00 0.  1.
          1   -1    0    0  501    0  0.00000000000E+00 -0.00000000000E+00 -0.59514487255E+03  0.59514487255E+03  0.00000000000E+00 0. -1.
         23    2    1    2    0    0  0.00000000000E+00  0.00000000000E+00 -0.58975908334E+03  0.60053066176E+03  0.11323117647E+03 0.  0.
          2    1    3    3  502    0  0.38386040697E+02  0.27840589163E+02 -0.45892558050E+03  0.46136891417E+03  0.00000000000E+00 0. -1.
         -2    1    3    3    0  502 -0.38386040697E+02 -0.27840589163E+02 -0.13083350285E+03  0.13916174759E+03  0.00000000000E+00 0.  1.
<mgrwt>
<rscale>  0 0.11323118E+03</rscale>
<asrwt>0</asrwt>
<pdfrwt beam="2">  1        1 0.91560742E-01 0.11323118E+03</pdfrwt>
<pdfrwt beam="1">  1       -1 0.82858302E-03 0.11323118E+03</pdfrwt>
<totfact> 0.79276013E+04</totfact>
</mgrwt>
</event>
<event>
 5    1  0.4006808E+001  0.8999412E+02  0.7546771E-02  0.1302866E+00
         -1   -1    0    0    0  501 -0.00000000000E+00  0.00000000000E+00  0.13952329004E+03  0.13952329004E+03  0.00000000000E+00 0.  1.
          1   -1    0    0  501    0  0.00000000000E+00 -0.00000000000E+00 -0.14511810208E+02  0.14511810208E+02  0.00000000000E+00 0. -1.
         23    2    1    2    0    0  0.00000000000E+00  0.00000000000E+00  0.12501147983E+03  0.15403510025E+03  0.89994122134E+02 0.  0.
          2    1    3    3  502    0 -0.37069939729E+02 -0.24240897898E+02  0.48927358016E+02  0.65997635752E+02  0.00000000000E+00 0. -1.
         -2    1    3    3    0  502  0.37069939729E+02  0.24240897898E+02  0.76084121812E+02  0.88037464493E+02  0.00000000000E+00 0.  1.
<mgrwt>
<rscale>  0 0.89994122E+02</rscale>
<asrwt>0</asrwt>
<pdfrwt beam="2">  1        1 0.22325863E-02 0.89994122E+02</pdfrwt>
<pdfrwt beam="1">  1       -1 0.21465121E-01 0.89994122E+02</pdfrwt>
<totfact> 0.78653208E+04</totfact>
</mgrwt>
</event>
<event>
 4    1  0.4006808E+001  0.1372363E+03  0.7546771E-02  0.1217097E+00
         -2   -1    0    0    0  501 -0.00000000000E+00  0.00000000000E+00  0.50225470361E+03  0.50225470361E+03  0.00000000000E+00 0.  1.
          2   -1    0    0  501    0  0.00000000000E+00 -0.00000000000E+00 -0.93746266489E+01  0.93746266489E+01  0.00000000000E+00 0. -1.
          2    1    1    2  502    0  0.39083191993E+02 -0.45681673712E+02  0.12312310572E+03  0.13701682514E+03  0.00000000000E+00 0. -1.
         -2    1    1    2    0  502 -0.39083191993E+02  0.45681673712E+02  0.36975697124E+03  0.37461250512E+03  0.00000000000E+00 0.  1.
<mgrwt>
<rscale>  0 0.13723630E+03</rscale>
<asrwt>0</asrwt>
<pdfrwt beam="2">  1        2 0.14422506E-02 0.13723630E+03</pdfrwt>
<pdfrwt beam="1">  1       -2 0.77269933E-01 0.13723630E+03</pdfrwt>
<totfact> 0.12396828E+04</totfact>
</mgrwt>
</event>
<event>
 5    1  0.4006808E+001  0.8894864E+02  0.7546771E-02  0.1305418E+00
          2   -1    0    0  501    0  0.00000000000E+00  0.00000000000E+00  0.14227232433E+02  0.14227232433E+02  0.00000000000E+00 0. -1.
         -2   -1    0    0    0  501 -0.00000000000E+00 -0.00000000000E+00 -0.13902669272E+03  0.13902669272E+03  0.00000000000E+00 0.  1.
         23    2    1    2    0    0  0.00000000000E+00  0.00000000000E+00 -0.12479946029E+03  0.15325392515E+03  0.88948638476E+02 0.  0.
          2    1    3    3  502    0  0.39519534236E+01 -0.40024573321E+02 -0.29691801344E+02  0.49991874064E+02  0.00000000000E+00 0. -1.
         -2    1    3    3    0  502 -0.39519534236E+01  0.40024573321E+02 -0.95107658943E+02  0.10326205109E+03  0.00000000000E+00 0.  1.
<mgrwt>
<rscale>  0 0.88948638E+02</rscale>
<asrwt>0</asrwt>
<pdfrwt beam="1">  1        2 0.21888050E-02 0.88948638E+02</pdfrwt>
<pdfrwt beam="2">  1       -2 0.21388722E-01 0.88948638E+02</pdfrwt>
<totfact> 0.76396778E+04</totfact>
</mgrwt>
</event>
<event>
 5    1  0.4006808E+001  0.9262254E+02  0.7546771E-02  0.1296622E+00
         -1   -1    0    0    0  501 -0.00000000000E+00  0.00000000000E+00  0.29324032159E+01  0.29324032159E+01  0.00000000000E+00 0.  1.
          1   -1    0    0  501    0  0.00000000000E+00 -0.00000000000E+00 -0.73139117037E+03  0.73139117037E+03  0.00000000000E+00 0. -1.
         23    2    1    2    0    0  0.00000000000E+00  0.00000000000E+00 -0.72845876715E+03  0.73432357358E+03  0.92622541967E+02 0.  0.
          2    1    3    3  502    0 -0.60704835040E+01  0.20499968752E+02 -0.68992352787E+03  0.69025471661E+03  0.00000000000E+00 0. -1.
         -2    1    3    3    0  502  0.60704835040E+01 -0.20499968752E+02 -0.38535239284E+02  0.44068856979E+02  0.00000000000E+00 0.  1.
<mgrwt>
<rscale>  0 0.92622542E+02</rscale>
<asrwt>0</asrwt>
<pdfrwt beam="2">  1        1 0.11252182E+00 0.92622542E+02</pdfrwt>
<pdfrwt beam="1">  1       -1 0.45113855E-03 0.92622542E+02</pdfrwt>
<totfact> 0.13625400E+05</totfact>
</mgrwt>
</event>
<event>
 5    1  0.4006808E+001  0.9079052E+02  0.7546771E-02  0.1300949E+00
          3   -1    0    0  501    0  0.00000000000E+00  0.00000000000E+00  0.95788521836E+01  0.95788521836E+01  0.00000000000E+00 0. -1.
         -3   -1    0    0    0  501 -0.00000000000E+00 -0.00000000000E+00 -0.21513326886E+03  0.21513326886E+03  0.00000000000E+00 0.  1.
         23    2    1    2    0    0  0.00000000000E+00  0.00000000000E+00 -0.20555441667E+03  0.22471212104E+03  0.90790523341E+02 0.  0.
          2    1    3    3  502    0 -0.13374692968E+02  0.35299623573E+02 -0.40369137450E+02  0.55268554304E+02  0.00000000000E+00 0. -1.
         -2    1    3    3    0  502  0.13374692968E+02 -0.35299623573E+02 -0.16518527922E+03  0.16944356674E+03  0.00000000000E+00 0.  1.
<mgrwt>
<rscale>  0 0.90790523E+02</rscale>
<asrwt>0</asrwt>
<pdfrwt beam="1">  1        3 0.14736697E-02 0.90790523E+02</pdfrwt>
<pdfrwt beam="2">  1       -3 0.33097424E-01 0.90790523E+02</pdfrwt>
<totfact> 0.27580246E+04</totfact>
</mgrwt>
</event>
<event>
 5    1  0.4006808E+001  0.9065163E+02  0.7546771E-02  0.1301281E+00
          4   -1    0    0  501    0  0.00000000000E+00  0.00000000000E+00  0.20249772183E+03  0.20249772183E+03  0.00000000000E+00 0. -1.
         -4   -1    0    0    0  501 -0.00000000000E+00 -0.00000000000E+00 -0.10145444682E+02  0.10145444682E+02  0.00000000000E+00 0.  1.
         23    2    1    2    0    0  0.00000000000E+00  0.00000000000E+00  0.19235227715E+03  0.21264316651E+03  0.90651628446E+02 0.  0.
          2    1    3    3  502    0 -0.38373304808E+02  0.86280702684E+01  0.14901862960E+03  0.15412172490E+03  0.00000000000E+00 0. -1.
         -2    1    3    3    0  502  0.38373304808E+02 -0.86280702684E+01  0.43333647551E+02  0.58521441614E+02  0.00000000000E+00 0.  1.
<mgrwt>
<rscale>  0 0.90651628E+02</rscale>
<asrwt>0</asrwt>
<pdfrwt beam="1">  1        4 0.31153493E-01 0.90651628E+02</pdfrwt>
<pdfrwt beam="2">  1       -4 0.15608378E-02 0.90651628E+02</pdfrwt>
<totfact> 0.21193912E+04</totfact>
</mgrwt>
</event>
<event>
 5    1  0.4006808E+001  0.9238537E+02  0.7546771E-02  0.1297176E+00
         -1   -1    0    0    0  501 -0.00000000000E+00  0.00000000000E+00  0.67759578617E+01  0.67759578617E+01  0.00000000000E+00 0.  1.
          1   -1    0    0  501    0  0.00000000000E+00 -0.00000000000E+00 -0.31490220735E+03  0.31490220735E+03  0.00000000000E+00 0. -1.
         23    2    1    2    0    0  0.00000000000E+00  0.00000000000E+00 -0.30812624949E+03  0.32167816522E+03  0.92385368703E+02 0.  0.
          2    1    3    3  502    0 -0.41660423846E+02 -0.13439747532E+02 -0.20541949201E+03  0.21003186765E+03  0.00000000000E+00 0. -1.
         -2    1    3    3    0  502  0.41660423846E+02  0.13439747532E+02 -0.10270675748E+03  0.11164629757E+03  0.00000000000E+00 0.  1.
<mgrwt>
<rscale>  0 0.92385369E+02</rscale>
<asrwt>0</asrwt>
<pdfrwt beam="2">  1        1 0.48446495E-01 0.92385369E+02</pdfrwt>
<pdfrwt beam="1">  1       -1 0.10424550E-02 0.92385369E+02</pdfrwt>
<totfact> 0.12484155E+05</totfact>
</mgrwt>
</event>
<event>
 5    1  0.4006808E+001  0.9915746E+02  0.7546771E-02  0.1282078E+00
          1   -1    0    0  501    0  0.00000000000E+00  0.00000000000E+00  0.11612742569E+03  0.11612742569E+03  0.00000000000E+00 0. -1.
         -1   -1    0    0    0  501 -0.00000000000E+00 -0.00000000000E+00 -0.21166839888E+02  0.21166839888E+02  0.00000000000E+00 0.  1.
         23    2    1    2    0    0  0.00000000000E+00  0.00000000000E+00  0.94960585798E+02  0.13729426557E+03  0.99157463181E+02 0.  0.
          2    1    3    3  502    0 -0.30133459067E+01  0.48286752775E+02  0.62480139495E+02  0.79021886705E+02  0.00000000000E+00 0. -1.
         -2    1    3    3    0  502  0.30133459067E+01 -0.48286752775E+02  0.32480446302E+02  0.58272378869E+02  0.00000000000E+00 0.  1.
<mgrwt>
<rscale>  0 0.99157463E+02</rscale>
<asrwt>0</asrwt>
<pdfrwt beam="1">  1        1 0.17865757E-01 0.99157463E+02</pdfrwt>
<pdfrwt beam="2">  1       -1 0.32564370E-02 0.99157463E+02</pdfrwt>
<totfact> 0.85190190E+04</totfact>
</mgrwt>
</event>
<event>
 5    1  0.4006808E+001  0.9309849E+02  0.7546771E-02  0.1295517E+00
         -2   -1    0    0    0  501 -0.00000000000E+00  0.00000000000E+00  0.34217360615E+02  0.34217360615E+02  0.00000000000E+00 0.  1.
          2   -1    0    0  501    0  0.00000000000E+00 -0.00000000000E+00 -0.63325524174E+02  0.63325524174E+02  0.00000000000E+00 0. -1.
         23    2    1    2    0    0  0.00000000000E+00  0.00000000000E+00 -0.29108163559E+02  0.97542884789E+02  0.93098491863E+02 0.  0.
          2    1    3    3  502    0  0.33696885959E+02 -0.10488489762E+02 -0.46356767556E+02  0.58261809439E+02  0.00000000000E+00 0. -1.
         -2    1    3    3    0  502 -0.33696885959E+02  0.10488489762E+02  0.17248603997E+02  0.39281075350E+02  0.00000000000E+00 0.  1.
<mgrwt>
<rscale>  0 0.93098492E+02</rscale>
<asrwt>0</asrwt>
<pdfrwt beam="2">  1        2 0.97423883E-02 0.93098492E+02</pdfrwt>
<pdfrwt beam="1">  1       -2 0.52642093E-02 0.93098492E+02</pdfrwt>
<totfact> 0.10147592E+05</totfact>
</mgrwt>
</event>
<event>
 5    1  0.4006808E+001  0.9062871E+02  0.7546771E-02  0.1301336E+00
         -2   -1    0    0    0  501 -0.00000000000E+00  0.00000000000E+00  0.30580204797E+01  0.30580204797E+01  0.00000000000E+00 0.  1.
          2   -1    0    0  501    0  0.00000000000E+00 -0.00000000000E+00 -0.67147713478E+03  0.67147713478E+03  0.00000000000E+00 0. -1.
         23    2    1    2    0    0  0.00000000000E+00  0.00000000000E+00 -0.66841911430E+03  0.67453515526E+03  0.90628711340E+02 0.  0.
          2    1    3    3  502    0  0.29290436335E+02 -0.32068474709E+01 -0.59043983432E+03  0.59117460321E+03  0.00000000000E+00 0. -1.
         -2    1    3    3    0  502 -0.29290436335E+02  0.32068474709E+01 -0.77979279983E+02  0.83360552050E+02  0.00000000000E+00 0.  1.
<mgrwt>
<rscale>  0 0.90628711E+02</rscale>
<asrwt>0</asrwt>
<pdfrwt beam="2">  1        2 0.10330413E+00 0.90628711E+02</pdfrwt>
<pdfrwt beam="1">  1       -2 0.47046489E-03 0.90628711E+02</pdfrwt>
<totfact> 0.23854566E+05</totfact>
</mgrwt>
</event>
<event>
 5    1  0.4006808E+001  0.9306505E+02  0.7546771E-02  0.1295595E+00
          1   -1    0    0  501    0  0.00000000000E+00  0.00000000000E+00  0.42825258555E+03  0.42825258555E+03  0.00000000000E+00 0. -1.
         -1   -1    0    0    0  501 -0.00000000000E+00 -0.00000000000E+00 -0.50560718170E+01  0.50560718170E+01  0.00000000000E+00 0.  1.
         23    2    1    2    0    0  0.00000000000E+00  0.00000000000E+00  0.42319651374E+03  0.43330865737E+03  0.93065048829E+02 0.  0.
          2    1    3    3  502    0 -0.26139911839E+02 -0.17860695000E+02  0.37037840753E+03  0.37172901983E+03  0.00000000000E+00 0. -1.
         -2    1    3    3    0  502  0.26139911839E+02  0.17860695000E+02  0.52818106206E+02  0.61579637544E+02  0.00000000000E+00 0.  1.
<mgrwt>
<rscale>  0 0.93065049E+02</rscale>
<asrwt>0</asrwt>
<pdfrwt beam="1">  1        1 0.65884985E-01 0.93065049E+02</pdfrwt>
<pdfrwt beam="2">  1       -1 0.77785754E-03 0.93065049E+02</pdfrwt>
<totfact> 0.12912737E+05</totfact>
</mgrwt>
</event>
<event>
 5    1  0.4006808E+001  0.8861296E+02  0.7546771E-02  0.1306246E+00
         -2   -1    0    0    0  501 -0.00000000000E+00  0.00000000000E+00  0.64821498480E+01  0.64821498480E+01  0.00000000000E+00 0.  1.
          2   -1    0    0  501    0  0.00000000000E+00 -0.00000000000E+00 -0.30284152541E+03  0.30284152541E+03  0.00000000000E+00 0. -1.
         23    2    1    2    0    0  0.00000000000E+00  0.00000000000E+00 -0.29635937556E+03  0.30932367526E+03  0.88612959501E+02 0.  0.
          2    1    3    3  502    0 -0.27794368517E+02  0.34460221804E+02 -0.15425630093E+03  0.16048376922E+03  0.00000000000E+00 0.  1.
         -2    1    3    3    0  502  0.27794368517E+02 -0.34460221804E+02 -0.14210307463E+03  0.14883990603E+03  0.00000000000E+00 0. -1.
<mgrwt>
<rscale>  0 0.88612960E+02</rscale>
<asrwt>0</asrwt>
<pdfrwt beam="2">  1        2 0.46590998E-01 0.88612960E+02</pdfrwt>
<pdfrwt beam="1">  1       -2 0.99725395E-03 0.88612960E+02</pdfrwt>
<totfact> 0.19451427E+05</totfact>
</mgrwt>
</event>
<event>
 5    1  0.4006808E+001  0.9171669E+02  0.7546771E-02  0.1298747E+00
         -4   -1    0    0    0  501 -0.00000000000E+00  0.00000000000E+00  0.43263056103E+01  0.43263056103E+01  0.00000000000E+00 0.  1.
          4   -1    0    0  501    0  0.00000000000E+00 -0.00000000000E+00 -0.48609326473E+03  0.48609326473E+03  0.00000000000E+00 0. -1.
         23    2    1    2    0    0  0.00000000000E+00  0.00000000000E+00 -0.48176695912E+03  0.49041957034E+03  0.91716694627E+02 0.  0.
          2    1    3    3  502    0 -0.61639620612E+01 -0.22897208925E+02 -0.45076782517E+03  0.45139108189E+03  0.00000000000E+00 0. -1.
         -2    1    3    3    0  502  0.61639620612E+01  0.22897208925E+02 -0.30999133955E+02  0.39028488451E+02  0.00000000000E+00 0.  1.
<mgrwt>
<rscale>  0 0.91716695E+02</rscale>
<asrwt>0</asrwt>
<pdfrwt beam="2">  1        4 0.74783551E-01 0.91716695E+02</pdfrwt>
<pdfrwt beam="1">  1       -4 0.66558573E-03 0.91716695E+02</pdfrwt>
<totfact> 0.13044397E+04</totfact>
</mgrwt>
</event>
<event>
 5    1  0.4006808E+001  0.8551138E+02  0.7546771E-02  0.1314101E+00
         -2   -1    0    0    0  501 -0.00000000000E+00  0.00000000000E+00  0.99310547228E+02  0.99310547228E+02  0.00000000000E+00 0.  1.
          2   -1    0    0  501    0  0.00000000000E+00 -0.00000000000E+00 -0.18407399281E+02  0.18407399281E+02  0.00000000000E+00 0. -1.
         23    2    1    2    0    0  0.00000000000E+00  0.00000000000E+00  0.80903147947E+02  0.11771794651E+03  0.85511376918E+02 0.  0.
          2    1    3    3  502    0  0.20659415062E+02  0.37257436775E+02  0.35465024967E+02  0.55431904366E+02  0.00000000000E+00 0.  1.
         -2    1    3    3    0  502 -0.20659415062E+02 -0.37257436775E+02  0.45438122980E+02  0.62286042142E+02  0.00000000000E+00 0. -1.
<mgrwt>
<rscale>  0 0.85511377E+02</rscale>
<asrwt>0</asrwt>
<pdfrwt beam="2">  1        2 0.28319076E-02 0.85511377E+02</pdfrwt>
<pdfrwt beam="1">  1       -2 0.15278545E-01 0.85511377E+02</pdfrwt>
<totfact> 0.93802265E+04</totfact>
</mgrwt>
</event>
<event>
 5    1  0.4006808E+001  0.9394751E+02  0.7546771E-02  0.1293564E+00
         -2   -1    0    0    0  501 -0.00000000000E+00  0.00000000000E+00  0.54850735921E+02  0.54850735921E+02  0.00000000000E+00 0.  1.
          2   -1    0    0  501    0  0.00000000000E+00 -0.00000000000E+00 -0.40227970166E+02  0.40227970166E+02  0.00000000000E+00 0. -1.
         23    2    1    2    0    0  0.00000000000E+00  0.00000000000E+00  0.14622765756E+02  0.95078706087E+02  0.93947512329E+02 0.  0.
          2    1    3    3  502    0 -0.44387709125E+02 -0.14860916346E+02  0.33375006864E+01  0.46928184141E+02  0.00000000000E+00 0. -1.
         -2    1    3    3    0  502  0.44387709125E+02  0.14860916346E+02  0.11285265069E+02  0.48150521946E+02  0.00000000000E+00 0.  1.
<mgrwt>
<rscale>  0 0.93947512E+02</rscale>
<asrwt>0</asrwt>
<pdfrwt beam="2">  1        2 0.61889185E-02 0.93947512E+02</pdfrwt>
<pdfrwt beam="1">  1       -2 0.84385748E-02 0.93947512E+02</pdfrwt>
<totfact> 0.87565910E+04</totfact>
</mgrwt>
</event>
<event>
 5    1  0.4006808E+001  0.9265343E+02  0.7546771E-02  0.1296550E+00
          2   -1    0    0  501    0  0.00000000000E+00  0.00000000000E+00  0.20068098191E+04  0.20068098191E+04  0.00000000000E+00 0. -1.
         -2   -1    0    0    0  501 -0.00000000000E+00 -0.00000000000E+00 -0.10694409209E+01  0.10694409209E+01  0.00000000000E+00 0.  1.
         23    2    1    2    0    0  0.00000000000E+00  0.00000000000E+00  0.20057403782E+04  0.20078792600E+04  0.92653430394E+02 0.  0.
          2    1    3    3  502    0  0.43394348236E+02 -0.92509792002E+01  0.12916008903E+04  0.12923627625E+04  0.00000000000E+00 0.  1.
         -2    1    3    3    0  502 -0.43394348236E+02  0.92509792002E+01  0.71413948783E+03  0.71551649747E+03  0.00000000000E+00 0. -1.
<mgrwt>
<rscale>  0 0.92653430E+02</rscale>
<asrwt>0</asrwt>
<pdfrwt beam="1">  1        2 0.30873696E+00 0.92653430E+02</pdfrwt>
<pdfrwt beam="2">  1       -2 0.16453098E-03 0.92653430E+02</pdfrwt>
<totfact> 0.18802481E+05</totfact>
</mgrwt>
</event>
<event>
 5    1  0.4006808E+001  0.9016144E+02  0.7546771E-02  0.1302461E+00
          1   -1    0    0  501    0  0.00000000000E+00  0.00000000000E+00  0.57702069231E+03  0.57702069231E+03  0.00000000000E+00 0. -1.
         -1   -1    0    0    0  501 -0.00000000000E+00 -0.00000000000E+00 -0.35220074903E+01  0.35220074903E+01  0.00000000000E+00 0.  1.
         23    2    1    2    0    0  0.00000000000E+00  0.00000000000E+00  0.57349868482E+03  0.58054269980E+03  0.90161437441E+02 0.  0.
          2    1    3    3  502    0 -0.18682288579E+02 -0.38545568282E+02  0.19626413108E+03  0.20088404090E+03  0.00000000000E+00 0. -1.
         -2    1    3    3    0  502  0.18682288579E+02  0.38545568282E+02  0.37723455374E+03  0.37965865890E+03  0.00000000000E+00 0.  1.
<mgrwt>
<rscale>  0 0.90161437E+02</rscale>
<asrwt>0</asrwt>
<pdfrwt beam="1">  1        1 0.88772339E-01 0.90161437E+02</pdfrwt>
<pdfrwt beam="2">  1       -1 0.54184777E-03 0.90161437E+02</pdfrwt>
<totfact> 0.14546333E+05</totfact>
</mgrwt>
</event>
<event>
 5    1  0.4006808E+001  0.8582850E+02  0.7546771E-02  0.1313280E+00
         -1   -1    0    0    0  501 -0.00000000000E+00  0.00000000000E+00  0.46673531586E+02  0.46673531586E+02  0.00000000000E+00 0.  1.
          1   -1    0    0  501    0  0.00000000000E+00 -0.00000000000E+00 -0.39457754594E+02  0.39457754594E+02  0.00000000000E+00 0. -1.
         23    2    1    2    0    0  0.00000000000E+00  0.00000000000E+00  0.72157769916E+01  0.86131286180E+02  0.85828497723E+02 0.  0.
          2    1    3    3  502    0 -0.26217313697E+02  0.21516840083E+02  0.29993435113E+02  0.45276131620E+02  0.00000000000E+00 0.  1.
         -2    1    3    3    0  502  0.26217313697E+02 -0.21516840083E+02 -0.22777658121E+02  0.40855154560E+02  0.00000000000E+00 0. -1.
<mgrwt>
<rscale>  0 0.85828498E+02</rscale>
<asrwt>0</asrwt>
<pdfrwt beam="2">  1        1 0.60704238E-02 0.85828498E+02</pdfrwt>
<pdfrwt beam="1">  1       -1 0.71805433E-02 0.85828498E+02</pdfrwt>
<totfact> 0.10722591E+05</totfact>
</mgrwt>
</event>
<event>
 5    1  0.4006808E+001  0.9079130E+02  0.7546771E-02  0.1300947E+00
         -4   -1    0    0    0  501 -0.00000000000E+00  0.00000000000E+00  0.17280619696E+02  0.17280619696E+02  0.00000000000E+00 0.  1.
          4   -1    0    0  501    0  0.00000000000E+00 -0.00000000000E+00 -0.11925296252E+03  0.11925296252E+03  0.00000000000E+00 0. -1.
         23    2    1    2    0    0  0.00000000000E+00  0.00000000000E+00 -0.10197234283E+03  0.13653358222E+03  0.90791301191E+02 0.  0.
          2    1    3    3  502    0 -0.22860323944E+02  0.39216002710E+02 -0.50196396966E+02  0.67676935124E+02  0.00000000000E+00 0. -1.
         -2    1    3    3    0  502  0.22860323944E+02 -0.39216002710E+02 -0.51775945863E+02  0.68856647096E+02  0.00000000000E+00 0.  1.
<mgrwt>
<rscale>  0 0.90791301E+02</rscale>
<asrwt>0</asrwt>
<pdfrwt beam="2">  1        4 0.18346609E-01 0.90791301E+02</pdfrwt>
<pdfrwt beam="1">  1       -4 0.26585570E-02 0.90791301E+02</pdfrwt>
<totfact> 0.24647114E+04</totfact>
</mgrwt>
</event>
<event>
 5    1  0.4006808E+001  0.9176806E+02  0.7546771E-02  0.1298626E+00
         -1   -1    0    0    0  501 -0.00000000000E+00  0.00000000000E+00  0.45246135109E+02  0.45246135109E+02  0.00000000000E+00 0.  1.
          1   -1    0    0  501    0  0.00000000000E+00 -0.00000000000E+00 -0.46530922763E+02  0.46530922763E+02  0.00000000000E+00 0. -1.
         23    2    1    2    0    0  0.00000000000E+00  0.00000000000E+00 -0.12847876535E+01  0.91777057872E+02  0.91768064556E+02 0.  0.
          2    1    3    3  502    0 -0.39651465013E+02  0.12288300786E+02 -0.20191774904E+02  0.46162200854E+02  0.00000000000E+00 0. -1.
         -2    1    3    3    0  502  0.39651465013E+02 -0.12288300786E+02  0.18906987251E+02  0.45614857018E+02  0.00000000000E+00 0.  1.
<mgrwt>
<rscale>  0 0.91768065E+02</rscale>
<asrwt>0</asrwt>
<pdfrwt beam="2">  1        1 0.71586035E-02 0.91768065E+02</pdfrwt>
<pdfrwt beam="1">  1       -1 0.69609438E-02 0.91768065E+02</pdfrwt>
<totfact> 0.91088514E+04</totfact>
</mgrwt>
</event>
<event>
 5    1  0.4006808E+001  0.9452881E+02  0.7546771E-02  0.1292241E+00
          2   -1    0    0  501    0  0.00000000000E+00  0.00000000000E+00  0.17281374214E+03  0.17281374214E+03  0.00000000000E+00 0.  1.
         -2   -1    0    0    0  501 -0.00000000000E+00 -0.00000000000E+00 -0.12926772647E+02  0.12926772647E+02  0.00000000000E+00 0. -1.
         23    2    1    2    0    0  0.00000000000E+00  0.00000000000E+00  0.15988696949E+03  0.18574051478E+03  0.94528809468E+02 0.  0.
          2    1    3    3  502    0  0.13225348777E+02 -0.30828231266E+02  0.14519558347E+02  0.36552801094E+02  0.00000000000E+00 0. -1.
         -2    1    3    3    0  502 -0.13225348777E+02  0.30828231266E+02  0.14536741114E+03  0.14918771369E+03  0.00000000000E+00 0.  1.
<mgrwt>
<rscale>  0 0.94528809E+02</rscale>
<asrwt>0</asrwt>
<pdfrwt beam="1">  1        2 0.26586728E-01 0.94528809E+02</pdfrwt>
<pdfrwt beam="2">  1       -2 0.19887344E-02 0.94528809E+02</pdfrwt>
<totfact> 0.13313162E+05</totfact>
</mgrwt>
</event>
<event>
 5    1  0.4006808E+001  0.8981888E+02  0.7546771E-02  0.1303291E+00
          1   -1    0    0  501    0  0.00000000000E+00  0.00000000000E+00  0.59767688042E+01  0.59767688042E+01  0.00000000000E+00 0. -1.
         -1   -1    0    0    0  501 -0.00000000000E+00 -0.00000000000E+00 -0.33744954086E+03  0.33744954086E+03  0.00000000000E+00 0.  1.
         23    2    1    2    0    0  0.00000000000E+00  0.00000000000E+00 -0.33147277205E+03  0.34342630966E+03  0.89818881952E+02 0.  0.
          2    1    3    3  502    0 -0.43604857523E+02  0.47230220892E+01 -0.12883031669E+03  0.13609166410E+03  0.00000000000E+00 0. -1.
         -2    1    3    3    0  502  0.43604857523E+02 -0.47230220892E+01 -0.20264245536E+03  0.20733464557E+03  0.00000000000E+00 0.  1.
<mgrwt>
<rscale>  0 0.89818882E+02</rscale>
<asrwt>0</asrwt>
<pdfrwt beam="1">  1        1 0.91950273E-03 0.89818882E+02</pdfrwt>
<pdfrwt beam="2">  1       -1 0.51915323E-01 0.89818882E+02</pdfrwt>
<totfact> 0.60018475E+04</totfact>
</mgrwt>
</event>
<event>
 5    1  0.4006808E+001  0.9119661E+02  0.7546771E-02  0.1299980E+00
         -2   -1    0    0    0  501 -0.00000000000E+00  0.00000000000E+00  0.24061443409E+02  0.24061443409E+02  0.00000000000E+00 0.  1.
          2   -1    0    0  501    0  0.00000000000E+00 -0.00000000000E+00 -0.86412323314E+02  0.86412323314E+02  0.00000000000E+00 0. -1.
         23    2    1    2    0    0  0.00000000000E+00  0.00000000000E+00 -0.62350879905E+02  0.11047376672E+03  0.91196605798E+02 0.  0.
          2    1    3    3  502    0 -0.25977885622E+02 -0.43665184064E+01 -0.76262358549E+02  0.80683730428E+02  0.00000000000E+00 0. -1.
         -2    1    3    3    0  502  0.25977885622E+02  0.43665184064E+01  0.13911478643E+02  0.29790036295E+02  0.00000000000E+00 0.  1.
<mgrwt>
<rscale>  0 0.91196606E+02</rscale>
<asrwt>0</asrwt>
<pdfrwt beam="2">  1        2 0.13294203E-01 0.91196606E+02</pdfrwt>
<pdfrwt beam="1">  1       -2 0.37017606E-02 0.91196606E+02</pdfrwt>
<totfact> 0.11737450E+05</totfact>
</mgrwt>
</event>
<event>
 5    1  0.4006808E+001  0.9039707E+02  0.7546771E-02  0.1301893E+00
          1   -1    0    0  501    0  0.00000000000E+00  0.00000000000E+00  0.19404361980E+04  0.19404361980E+04  0.00000000000E+00 0. -1.
         -1   -1    0    0    0  501 -0.00000000000E+00 -0.00000000000E+00 -0.10528084399E+01  0.10528084399E+01  0.00000000000E+00 0.  1.
         23    2    1    2    0    0  0.00000000000E+00  0.00000000000E+00  0.19393833896E+04  0.19414890065E+04  0.90397070892E+02 0.  0.
          2    1    3    3  502    0  0.18809328144E+02 -0.17488050767E+02  0.17684886291E+04  0.17686751126E+04  0.00000000000E+00 0. -1.
         -2    1    3    3    0  502 -0.18809328144E+02  0.17488050767E+02  0.17089476054E+03  0.17281389390E+03  0.00000000000E+00 0.  1.
<mgrwt>
<rscale>  0 0.90397071E+02</rscale>
<asrwt>0</asrwt>
<pdfrwt beam="1">  1        1 0.29852578E+00 0.90397071E+02</pdfrwt>
<pdfrwt beam="2">  1       -1 0.16197208E-03 0.90397071E+02</pdfrwt>
<totfact> 0.85259671E+04</totfact>
</mgrwt>
</event>
<event>
 5    1  0.4006808E+001  0.8506123E+02  0.7546771E-02  0.1315272E+00
          2   -1    0    0  501    0  0.00000000000E+00  0.00000000000E+00  0.10728126877E+04  0.10728126877E+04  0.00000000000E+00 0. -1.
         -2   -1    0    0    0  501 -0.00000000000E+00 -0.00000000000E+00 -0.16860850183E+01  0.16860850183E+01  0.00000000000E+00 0.  1.
         23    2    1    2    0    0  0.00000000000E+00  0.00000000000E+00  0.10711266027E+04  0.10744987727E+04  0.85061234418E+02 0.  0.
          2    1    3    3  502    0 -0.35985004160E+02  0.15329817739E+02  0.32459290599E+03  0.32694109325E+03  0.00000000000E+00 0. -1.
         -2    1    3    3    0  502  0.35985004160E+02 -0.15329817739E+02  0.74653369668E+03  0.74755767945E+03  0.00000000000E+00 0.  1.
<mgrwt>
<rscale>  0 0.85061234E+02</rscale>
<asrwt>0</asrwt>
<pdfrwt beam="1">  1        2 0.16504756E+00 0.85061234E+02</pdfrwt>
<pdfrwt beam="2">  1       -2 0.25939855E-03 0.85061234E+02</pdfrwt>
<totfact> 0.30033303E+05</totfact>
</mgrwt>
</event>
<event>
 5    1  0.4006808E+001  0.8883738E+02  0.7546771E-02  0.1305692E+00
         -1   -1    0    0    0  501 -0.00000000000E+00  0.00000000000E+00  0.18070620478E+02  0.18070620478E+02  0.00000000000E+00 0.  1.
          1   -1    0    0  501    0  0.00000000000E+00 -0.00000000000E+00 -0.10918384951E+03  0.10918384951E+03  0.00000000000E+00 0. -1.
         23    2    1    2    0    0  0.00000000000E+00  0.00000000000E+00 -0.91113229037E+02  0.12725446999E+03  0.88837377424E+02 0.  0.
          2    1    3    3  502    0 -0.31065154543E+02 -0.29599014796E+02 -0.62006298949E+02  0.75405083469E+02  0.00000000000E+00 0. -1.
         -2    1    3    3    0  502  0.31065154543E+02  0.29599014796E+02 -0.29106930088E+02  0.51849386523E+02  0.00000000000E+00 0.  1.
<mgrwt>
<rscale>  0 0.88837377E+02</rscale>
<asrwt>0</asrwt>
<pdfrwt beam="2">  1        1 0.16797516E-01 0.88837377E+02</pdfrwt>
<pdfrwt beam="1">  1       -1 0.27800954E-02 0.88837377E+02</pdfrwt>
<totfact> 0.11374895E+05</totfact>
</mgrwt>
</event>
<event>
 5    1  0.4006808E+001  0.9081818E+02  0.7546771E-02  0.1300882E+00
         -2   -1    0    0    0  501 -0.00000000000E+00  0.00000000000E+00  0.23401555450E+01  0.23401555450E+01  0.00000000000E+00 0.  1.
          2   -1    0    0  501    0  0.00000000000E+00 -0.00000000000E+00 -0.88113188979E+03  0.88113188979E+03  0.00000000000E+00 0. -1.
         23    2    1    2    0    0  0.00000000000E+00  0.00000000000E+00 -0.87879173425E+03  0.88347204534E+03  0.90818184914E+02 0.  0.
          2    1    3    3  502    0 -0.36550298787E+02 -0.13865484490E+02 -0.66415286125E+03  0.66530233661E+03  0.00000000000E+00 0. -1.
         -2    1    3    3    0  502  0.36550298787E+02  0.13865484490E+02 -0.21463887300E+03  0.21816970872E+03  0.00000000000E+00 0.  1.
<mgrwt>
<rscale>  0 0.90818185E+02</rscale>
<asrwt>0</asrwt>
<pdfrwt beam="2">  1        2 0.13555864E+00 0.90818185E+02</pdfrwt>
<pdfrwt beam="1">  1       -2 0.36002423E-03 0.90818185E+02</pdfrwt>
<totfact> 0.24989964E+05</totfact>
</mgrwt>
</event>
<event>
 5    1  0.4006808E+001  0.9183852E+02  0.7546771E-02  0.1298460E+00
          2   -1    0    0  501    0  0.00000000000E+00  0.00000000000E+00  0.15920056753E+03  0.15920056753E+03  0.00000000000E+00 0.  1.
         -2   -1    0    0    0  501 -0.00000000000E+00 -0.00000000000E+00 -0.13244792925E+02  0.13244792925E+02  0.00000000000E+00 0. -1.
         23    2    1    2    0    0  0.00000000000E+00  0.00000000000E+00  0.14595577461E+03  0.17244536046E+03  0.91838522430E+02 0.  0.
          2    1    3    3  502    0 -0.22671406118E+02 -0.15611472086E+02  0.39645455932E+01  0.27810579602E+02  0.00000000000E+00 0. -1.
         -2    1    3    3    0  502  0.22671406118E+02  0.15611472086E+02  0.14199122901E+03  0.14463478085E+03  0.00000000000E+00 0.  1.
<mgrwt>
<rscale>  0 0.91838522E+02</rscale>
<asrwt>0</asrwt>
<pdfrwt beam="1">  1        2 0.24492394E-01 0.91838522E+02</pdfrwt>
<pdfrwt beam="2">  1       -2 0.20376606E-02 0.91838522E+02</pdfrwt>
<totfact> 0.13991784E+05</totfact>
</mgrwt>
</event>
<event>
 5    1  0.4006808E+001  0.9088982E+02  0.7546771E-02  0.1300711E+00
          2   -1    0    0  501    0  0.00000000000E+00  0.00000000000E+00  0.22742616534E+03  0.22742616534E+03  0.00000000000E+00 0. -1.
         -2   -1    0    0    0  501 -0.00000000000E+00 -0.00000000000E+00 -0.90809247708E+01  0.90809247708E+01  0.00000000000E+00 0.  1.
         23    2    1    2    0    0  0.00000000000E+00  0.00000000000E+00  0.21834524057E+03  0.23650709011E+03  0.90889821176E+02 0.  0.
          2    1    3    3  502    0  0.35930831745E+02 -0.11353142743E+01  0.18151586030E+03  0.18504140388E+03  0.00000000000E+00 0. -1.
         -2    1    3    3    0  502 -0.35930831745E+02  0.11353142743E+01  0.36829380265E+02  0.51465686230E+02  0.00000000000E+00 0.  1.
<mgrwt>
<rscale>  0 0.90889821E+02</rscale>
<asrwt>0</asrwt>
<pdfrwt beam="1">  1        2 0.34988637E-01 0.90889821E+02</pdfrwt>
<pdfrwt beam="2">  1       -2 0.13970655E-02 0.90889821E+02</pdfrwt>
<totfact> 0.16347978E+05</totfact>
</mgrwt>
</event>
<event>
 5    1  0.4006808E+001  0.9203028E+02  0.7546771E-02  0.1298008E+00
         -1   -1    0    0    0  501 -0.00000000000E+00  0.00000000000E+00  0.13485638045E+01  0.13485638045E+01  0.00000000000E+00 0.  1.
          1   -1    0    0  501    0  0.00000000000E+00 -0.00000000000E+00 -0.15701095502E+04  0.15701095502E+04  0.00000000000E+00 0. -1.
         23    2    1    2    0    0  0.00000000000E+00  0.00000000000E+00 -0.15687609864E+04  0.15714581140E+04  0.92030275637E+02 0.  0.
          2    1    3    3  502    0 -0.18121089409E+02 -0.10578155823E+02 -0.14836657454E+04  0.14838141108E+04  0.00000000000E+00 0. -1.
         -2    1    3    3    0  502  0.18121089409E+02  0.10578155823E+02 -0.85095240991E+02  0.87644003225E+02  0.00000000000E+00 0.  1.
<mgrwt>
<rscale>  0 0.92030276E+02</rscale>
<asrwt>0</asrwt>
<pdfrwt beam="2">  1        1 0.24155431E+00 0.92030276E+02</pdfrwt>
<pdfrwt beam="1">  1       -1 0.20747222E-03 0.92030276E+02</pdfrwt>
<totfact> 0.10365246E+05</totfact>
</mgrwt>
</event>
<event>
 5    1  0.4006808E+001  0.9179659E+02  0.7546771E-02  0.1298558E+00
          2   -1    0    0  501    0  0.00000000000E+00  0.00000000000E+00  0.17345134934E+04  0.17345134934E+04  0.00000000000E+00 0. -1.
         -2   -1    0    0    0  501 -0.00000000000E+00 -0.00000000000E+00 -0.12145500939E+01  0.12145500939E+01  0.00000000000E+00 0.  1.
         23    2    1    2    0    0  0.00000000000E+00  0.00000000000E+00  0.17332989433E+04  0.17357280435E+04  0.91796590924E+02 0.  0.
          2    1    3    3  502    0 -0.20632113927E+02  0.33003710078E+02  0.40669493040E+03  0.40855317331E+03  0.00000000000E+00 0.  1.
         -2    1    3    3    0  502  0.20632113927E+02 -0.33003710078E+02  0.13266040129E+04  0.13271748702E+04  0.00000000000E+00 0. -1.
<mgrwt>
<rscale>  0 0.91796591E+02</rscale>
<asrwt>0</asrwt>
<pdfrwt beam="1">  1        2 0.26684625E+00 0.91796591E+02</pdfrwt>
<pdfrwt beam="2">  1       -2 0.18685525E-03 0.91796591E+02</pdfrwt>
<totfact> 0.21572590E+05</totfact>
</mgrwt>
</event>
<event>
 5    1  0.4006808E+001  0.9316746E+02  0.7546771E-02  0.1295358E+00
         -1   -1    0    0    0  501 -0.00000000000E+00  0.00000000000E+00  0.74959925876E+02  0.74959925876E+02  0.00000000000E+00 0.  1.
          1   -1    0    0  501    0  0.00000000000E+00 -0.00000000000E+00 -0.28949385506E+02  0.28949385506E+02  0.00000000000E+00 0. -1.
         23    2    1    2    0    0  0.00000000000E+00  0.00000000000E+00  0.46010540370E+02  0.10390931138E+03  0.93167457659E+02 0.  0.
          2    1    3    3  502    0 -0.14195388829E+02 -0.18164683662E+02 -0.22141211790E+02  0.31964011889E+02  0.00000000000E+00 0. -1.
         -2    1    3    3    0  502  0.14195388829E+02  0.18164683662E+02  0.68151752160E+02  0.71945299492E+02  0.00000000000E+00 0.  1.
<mgrwt>
<rscale>  0 0.93167458E+02</rscale>
<asrwt>0</asrwt>
<pdfrwt beam="2">  1        1 0.44537517E-02 0.93167458E+02</pdfrwt>
<pdfrwt beam="1">  1       -1 0.11532296E-01 0.93167458E+02</pdfrwt>
<totfact> 0.80976779E+04</totfact>
</mgrwt>
</event>
<event>
 5    1  0.4006808E+001  0.9274676E+02  0.7546771E-02  0.1296333E+00
         -1   -1    0    0    0  501 -0.00000000000E+00  0.00000000000E+00  0.36087224937E+02  0.36087224937E+02  0.00000000000E+00 0.  1.
          1   -1    0    0  501    0  0.00000000000E+00 -0.00000000000E+00 -0.59591461725E+02  0.59591461725E+02  0.00000000000E+00 0. -1.
         23    2    1    2    0    0  0.00000000000E+00  0.00000000000E+00 -0.23504236787E+02  0.95678686662E+02  0.92746762393E+02 0.  0.
          2    1    3    3  502    0 -0.35783108836E+02  0.42310192941E+01 -0.41866678982E+02  0.55237226679E+02  0.00000000000E+00 0. -1.
         -2    1    3    3    0  502  0.35783108836E+02 -0.42310192941E+01  0.18362442194E+02  0.40441459983E+02  0.00000000000E+00 0.  1.
<mgrwt>
<rscale>  0 0.92746762E+02</rscale>
<asrwt>0</asrwt>
<pdfrwt beam="2">  1        1 0.91679171E-02 0.92746762E+02</pdfrwt>
<pdfrwt beam="1">  1       -1 0.55518808E-02 0.92746762E+02</pdfrwt>
<totfact> 0.91808193E+04</totfact>
</mgrwt>
</event>
<event>
 5    1  0.4006808E+001  0.9383585E+02  0.7546771E-02  0.1293820E+00
         -4   -1    0    0    0  501 -0.00000000000E+00  0.00000000000E+00  0.14306013635E+02  0.14306013635E+02  0.00000000000E+00 0. -1.
          4   -1    0    0  501    0  0.00000000000E+00 -0.00000000000E+00 -0.15387177016E+03  0.15387177016E+03  0.00000000000E+00 0.  1.
         23    2    1    2    0    0  0.00000000000E+00  0.00000000000E+00 -0.13956575652E+03  0.16817778379E+03  0.93835849054E+02 0.  0.
          2    1    3    3  502    0  0.26345070483E+02 -0.32218475579E+02 -0.30960847154E+02  0.51871639302E+02  0.00000000000E+00 0. -1.
         -2    1    3    3    0  502 -0.26345070483E+02  0.32218475579E+02 -0.10860490937E+03  0.11630614449E+03  0.00000000000E+00 0.  1.
<mgrwt>
<rscale>  0 0.93835849E+02</rscale>
<asrwt>0</asrwt>
<pdfrwt beam="2">  1        4 0.23672582E-01 0.93835849E+02</pdfrwt>
<pdfrwt beam="1">  1       -4 0.22009250E-02 0.93835849E+02</pdfrwt>
<totfact> 0.21093103E+04</totfact>
</mgrwt>
</event>
<event>
 5    1  0.4006808E+001  0.9128869E+02  0.7546771E-02  0.1299761E+00
          1   -1    0    0  501    0  0.00000000000E+00  0.00000000000E+00  0.22947380398E+03  0.22947380398E+03  0.00000000000E+00 0. -1.
         -1   -1    0    0    0  501 -0.00000000000E+00 -0.00000000000E+00 -0.90790588147E+01  0.90790588147E+01  0.00000000000E+00 0.  1.
         23    2    1    2    0    0  0.00000000000E+00  0.00000000000E+00  0.22039474517E+03  0.23855286280E+03  0.91288688517E+02 0.  0.
          2    1    3    3  502    0  0.18328994699E+02 -0.39071268667E+02  0.14903527552E+03  0.15515807884E+03  0.00000000000E+00 0. -1.
         -2    1    3    3    0  502 -0.18328994699E+02  0.39071268667E+02  0.71359469654E+02  0.83394783957E+02  0.00000000000E+00 0.  1.
<mgrwt>
<rscale>  0 0.91288689E+02</rscale>
<asrwt>0</asrwt>
<pdfrwt beam="1">  1        1 0.35303658E-01 0.91288689E+02</pdfrwt>
<pdfrwt beam="2">  1       -1 0.13967785E-02 0.91288689E+02</pdfrwt>
<totfact> 0.12122192E+05</totfact>
</mgrwt>
</event>
<event>
 5    1  0.4006808E+001  0.8709626E+02  0.7546771E-02  0.1310040E+00
         -2   -1    0    0    0  501 -0.00000000000E+00  0.00000000000E+00  0.11764551182E+01  0.11764551182E+01  0.00000000000E+00 0.  1.
          2   -1    0    0  501    0  0.00000000000E+00 -0.00000000000E+00 -0.16119950640E+04  0.16119950640E+04  0.00000000000E+00 0. -1.
         23    2    1    2    0    0  0.00000000000E+00  0.00000000000E+00 -0.16108186089E+04  0.16131715192E+04  0.87096264984E+02 0.  0.
          2    1    3    3  502    0  0.40311637219E+02 -0.14415196896E+02 -0.95313527225E+03  0.95409625992E+03  0.00000000000E+00 0. -1.
         -2    1    3    3    0  502 -0.40311637219E+02  0.14415196896E+02 -0.65768333668E+03  0.65907525924E+03  0.00000000000E+00 0.  1.
<mgrwt>
<rscale>  0 0.87096265E+02</rscale>
<asrwt>0</asrwt>
<pdfrwt beam="2">  1        2 0.24800036E+00 0.87096265E+02</pdfrwt>
<pdfrwt beam="1">  1       -2 0.18099228E-03 0.87096265E+02</pdfrwt>
<totfact> 0.25800327E+05</totfact>
</mgrwt>
</event>
<event>
 5    1  0.4006808E+001  0.9369785E+02  0.7546771E-02  0.1294136E+00
         -1   -1    0    0    0  501 -0.00000000000E+00  0.00000000000E+00  0.21136000244E+02  0.21136000244E+02  0.00000000000E+00 0.  1.
          1   -1    0    0  501    0  0.00000000000E+00 -0.00000000000E+00 -0.10384281329E+03  0.10384281329E+03  0.00000000000E+00 0. -1.
         23    2    1    2    0    0  0.00000000000E+00  0.00000000000E+00 -0.82706813046E+02  0.12497881353E+03  0.93697849004E+02 0.  0.
          2    1    3    3  502    0  0.30975744959E+02 -0.77657708820E+01 -0.87075803573E+02  0.92746965132E+02  0.00000000000E+00 0. -1.
         -2    1    3    3    0  502 -0.30975744959E+02  0.77657708820E+01  0.43689905275E+01  0.32231848402E+02  0.00000000000E+00 0.  1.
<mgrwt>
<rscale>  0 0.93697849E+02</rscale>
<asrwt>0</asrwt>
<pdfrwt beam="2">  1        1 0.15975818E-01 0.93697849E+02</pdfrwt>
<pdfrwt beam="1">  1       -1 0.32516923E-02 0.93697849E+02</pdfrwt>
<totfact> 0.97568634E+04</totfact>
</mgrwt>
</event>
<event>
 5    1  0.4006808E+001  0.9205904E+02  0.7546771E-02  0.1297941E+00
         -3   -1    0    0    0  501 -0.00000000000E+00  0.00000000000E+00  0.10276978660E+02  0.10276978660E+02  0.00000000000E+00 0.  1.
          3   -1    0    0  501    0  0.00000000000E+00 -0.00000000000E+00 -0.20616145974E+03  0.20616145974E+03  0.00000000000E+00 0. -1.
         23    2    1    2    0    0  0.00000000000E+00  0.00000000000E+00 -0.19588448108E+03  0.21643843840E+03  0.92059044580E+02 0.  0.
          2    1    3    3  502    0  0.13356330750E+02 -0.21136898022E+02 -0.18880351284E+03  0.19045190072E+03  0.00000000000E+00 0. -1.
         -2    1    3    3    0  502 -0.13356330750E+02  0.21136898022E+02 -0.70809682389E+01  0.25986537674E+02  0.00000000000E+00 0.  1.
<mgrwt>
<rscale>  0 0.92059045E+02</rscale>
<asrwt>0</asrwt>
<pdfrwt beam="2">  1        3 0.31717150E-01 0.92059045E+02</pdfrwt>
<pdfrwt beam="1">  1       -3 0.15810735E-02 0.92059045E+02</pdfrwt>
<totfact> 0.26960155E+04</totfact>
</mgrwt>
</event>
<event>
 5    1  0.4006808E+001  0.9374511E+02  0.7546771E-02  0.1294028E+00
          2   -1    0    0  501    0  0.00000000000E+00  0.00000000000E+00  0.21952377313E+04  0.21952377313E+04  0.00000000000E+00 0. -1.
         -2   -1    0    0    0  501 -0.00000000000E+00 -0.00000000000E+00 -0.10008193341E+01  0.10008193341E+01  0.00000000000E+00 0.  1.
         23    2    1    2    0    0  0.00000000000E+00  0.00000000000E+00  0.21942369120E+04  0.21962385507E+04  0.93745108982E+02 0.  0.
          2    1    3    3  502    0 -0.40793859287E+02  0.61992307941E+01  0.57616427837E+03  0.57763989223E+03  0.00000000000E+00 0.  1.
         -2    1    3    3    0  502  0.40793859287E+02 -0.61992307941E+01  0.16180726336E+04  0.16185986584E+04  0.00000000000E+00 0. -1.
<mgrwt>
<rscale>  0 0.93745109E+02</rscale>
<asrwt>0</asrwt>
<pdfrwt beam="1">  1        2 0.33772503E+00 0.93745109E+02</pdfrwt>
<pdfrwt beam="2">  1       -2 0.15397396E-03 0.93745109E+02</pdfrwt>
<totfact> 0.16569649E+05</totfact>
</mgrwt>
</event>
<event>
 5    1  0.4006808E+001  0.9088520E+02  0.7546771E-02  0.1300722E+00
          4   -1    0    0  501    0  0.00000000000E+00  0.00000000000E+00  0.68821699205E+02  0.68821699205E+02  0.00000000000E+00 0. -1.
         -4   -1    0    0    0  501 -0.00000000000E+00 -0.00000000000E+00 -0.30005502533E+02  0.30005502533E+02  0.00000000000E+00 0.  1.
         23    2    1    2    0    0  0.00000000000E+00  0.00000000000E+00  0.38816196673E+02  0.98827201738E+02  0.90885195050E+02 0.  0.
          2    1    3    3  502    0  0.33893868646E+02 -0.43991914197E+01  0.51973101049E+02  0.62204103157E+02  0.00000000000E+00 0. -1.
         -2    1    3    3    0  502 -0.33893868646E+02  0.43991914197E+01 -0.13156904376E+02  0.36623098581E+02  0.00000000000E+00 0.  1.
<mgrwt>
<rscale>  0 0.90885195E+02</rscale>
<asrwt>0</asrwt>
<pdfrwt beam="1">  1        4 0.10587954E-01 0.90885195E+02</pdfrwt>
<pdfrwt beam="2">  1       -4 0.46162312E-02 0.90885195E+02</pdfrwt>
<totfact> 0.26762384E+04</totfact>
</mgrwt>
</event>
<event>
 5    1  0.4006808E+001  0.9224272E+02  0.7546771E-02  0.1297510E+00
          1   -1    0    0  501    0  0.00000000000E+00  0.00000000000E+00  0.16549929664E+04  0.16549929664E+04  0.00000000000E+00 0. -1.
         -1   -1    0    0    0  501 -0.00000000000E+00 -0.00000000000E+00 -0.12853106024E+01  0.12853106024E+01  0.00000000000E+00 0.  1.
         23    2    1    2    0    0  0.00000000000E+00  0.00000000000E+00  0.16537076558E+04  0.16562782770E+04  0.92242723435E+02 0.  0.
          2    1    3    3  502    0  0.20690809933E+02 -0.16106805260E+02  0.15081380399E+04  0.15083659656E+04  0.00000000000E+00 0. -1.
         -2    1    3    3    0  502 -0.20690809933E+02  0.16106805260E+02  0.14556961589E+03  0.14791231140E+03  0.00000000000E+00 0.  1.
<mgrwt>
<rscale>  0 0.92242723E+02</rscale>
<asrwt>0</asrwt>
<pdfrwt beam="1">  1        1 0.25461260E+00 0.92242723E+02</pdfrwt>
<pdfrwt beam="2">  1       -1 0.19774142E-03 0.92242723E+02</pdfrwt>
<totfact> 0.97934716E+04</totfact>
</mgrwt>
</event>
<event>
 5    1  0.4006808E+001  0.9102547E+02  0.7546771E-02  0.1300387E+00
          1   -1    0    0  501    0  0.00000000000E+00  0.00000000000E+00  0.30702194242E+02  0.30702194242E+02  0.00000000000E+00 0. -1.
         -1   -1    0    0    0  501 -0.00000000000E+00 -0.00000000000E+00 -0.67467785484E+02  0.67467785484E+02  0.00000000000E+00 0.  1.
         23    2    1    2    0    0  0.00000000000E+00  0.00000000000E+00 -0.36765591242E+02  0.98169979727E+02  0.91025470173E+02 0.  0.
          2    1    3    3  502    0 -0.41027595332E+02 -0.16493392038E+02 -0.30004160041E+02  0.53437301386E+02  0.00000000000E+00 0.  1.
         -2    1    3    3    0  502  0.41027595332E+02  0.16493392038E+02 -0.67614312004E+01  0.44732678341E+02  0.00000000000E+00 0. -1.
<mgrwt>
<rscale>  0 0.91025470E+02</rscale>
<asrwt>0</asrwt>
<pdfrwt beam="1">  1        1 0.47234146E-02 0.91025470E+02</pdfrwt>
<pdfrwt beam="2">  1       -1 0.10379659E-01 0.91025470E+02</pdfrwt>
<totfact> 0.87423372E+04</totfact>
</mgrwt>
</event>
<event>
 5    1  0.4006808E+001  0.8682982E+02  0.7546771E-02  0.1310716E+00
          2   -1    0    0  501    0  0.00000000000E+00  0.00000000000E+00  0.13108178210E+04  0.13108178210E+04  0.00000000000E+00 0. -1.
         -2   -1    0    0    0  501 -0.00000000000E+00 -0.00000000000E+00 -0.14379224677E+01  0.14379224677E+01  0.00000000000E+00 0.  1.
         23    2    1    2    0    0  0.00000000000E+00  0.00000000000E+00  0.13093798985E+04  0.13122557435E+04  0.86829819668E+02 0.  0.
          2    1    3    3  502    0 -0.32098315328E+02  0.28247982708E+02  0.54098660763E+03  0.54267371413E+03  0.00000000000E+00 0. -1.
         -2    1    3    3    0  502  0.32098315328E+02 -0.28247982708E+02  0.76839329091E+03  0.76958202935E+03  0.00000000000E+00 0.  1.
<mgrwt>
<rscale>  0 0.86829820E+02</rscale>
<asrwt>0</asrwt>
<pdfrwt beam="1">  1        2 0.20166332E+00 0.86829820E+02</pdfrwt>
<pdfrwt beam="2">  1       -2 0.22121989E-03 0.86829820E+02</pdfrwt>
<totfact> 0.27888470E+05</totfact>
</mgrwt>
</event>
<event>
 5    1  0.4006808E+001  0.9194280E+02  0.7546771E-02  0.1298214E+00
          2   -1    0    0  501    0  0.00000000000E+00  0.00000000000E+00  0.10458871376E+04  0.10458871376E+04  0.00000000000E+00 0. -1.
         -2   -1    0    0    0  501 -0.00000000000E+00 -0.00000000000E+00 -0.20206478474E+01  0.20206478474E+01  0.00000000000E+00 0.  1.
         23    2    1    2    0    0  0.00000000000E+00  0.00000000000E+00  0.10438664897E+04  0.10479077854E+04  0.91942799459E+02 0.  0.
          2    1    3    3  502    0 -0.40783663918E+02 -0.19849190815E+02  0.43658820831E+03  0.43893799249E+03  0.00000000000E+00 0. -1.
         -2    1    3    3    0  502  0.40783663918E+02  0.19849190815E+02  0.60727828140E+03  0.60896979291E+03  0.00000000000E+00 0.  1.
<mgrwt>
<rscale>  0 0.91942799E+02</rscale>
<asrwt>0</asrwt>
<pdfrwt beam="1">  1        2 0.16090528E+00 0.91942799E+02</pdfrwt>
<pdfrwt beam="2">  1       -2 0.31086973E-03 0.91942799E+02</pdfrwt>
<totfact> 0.24486196E+05</totfact>
</mgrwt>
</event>
<event>
 5    1  0.4006808E+001  0.9256326E+02  0.7546771E-02  0.1296760E+00
          1   -1    0    0  501    0  0.00000000000E+00  0.00000000000E+00  0.37039527972E+03  0.37039527972E+03  0.00000000000E+00 0. -1.
         -1   -1    0    0    0  501 -0.00000000000E+00 -0.00000000000E+00 -0.57829826887E+01  0.57829826887E+01  0.00000000000E+00 0.  1.
         23    2    1    2    0    0  0.00000000000E+00  0.00000000000E+00  0.36461229704E+03  0.37617826241E+03  0.92563264649E+02 0.  0.
          2    1    3    3  502    0 -0.28877276885E+02 -0.32915495880E+02  0.24322059855E+03  0.24713070741E+03  0.00000000000E+00 0. -1.
         -2    1    3    3    0  502  0.28877276885E+02  0.32915495880E+02  0.12139169849E+03  0.12904755500E+03  0.00000000000E+00 0.  1.
<mgrwt>
<rscale>  0 0.92563265E+02</rscale>
<asrwt>0</asrwt>
<pdfrwt beam="1">  1        1 0.56983871E-01 0.92563265E+02</pdfrwt>
<pdfrwt beam="2">  1       -1 0.88968993E-03 0.92563265E+02</pdfrwt>
<totfact> 0.12790887E+05</totfact>
</mgrwt>
</event>
<event>
 5    1  0.4006808E+001  0.9153911E+02  0.7546771E-02  0.1299167E+00
          1   -1    0    0  501    0  0.00000000000E+00  0.00000000000E+00  0.13719754753E+03  0.13719754753E+03  0.00000000000E+00 0. -1.
         -1   -1    0    0    0  501 -0.00000000000E+00 -0.00000000000E+00 -0.15268873721E+02  0.15268873721E+02  0.00000000000E+00 0.  1.
         23    2    1    2    0    0  0.00000000000E+00  0.00000000000E+00  0.12192867381E+03  0.15246642125E+03  0.91539107009E+02 0.  0.
          2    1    3    3  502    0  0.22061139437E+02  0.28827214481E+02  0.10739660749E+03  0.11336548623E+03  0.00000000000E+00 0. -1.
         -2    1    3    3    0  502 -0.22061139437E+02 -0.28827214481E+02  0.14532066321E+02  0.39100935021E+02  0.00000000000E+00 0.  1.
<mgrwt>
<rscale>  0 0.91539107E+02</rscale>
<asrwt>0</asrwt>
<pdfrwt beam="1">  1        1 0.21107314E-01 0.91539107E+02</pdfrwt>
<pdfrwt beam="2">  1       -1 0.23490576E-02 0.91539107E+02</pdfrwt>
<totfact> 0.10914873E+05</totfact>
</mgrwt>
</event>
<event>
 5    1  0.4006808E+001  0.9106558E+02  0.7546771E-02  0.1300292E+00
         -2   -1    0    0    0  501 -0.00000000000E+00  0.00000000000E+00  0.65332099911E+01  0.65332099911E+01  0.00000000000E+00 0.  1.
          2   -1    0    0  501    0  0.00000000000E+00 -0.00000000000E+00 -0.31733789968E+03  0.31733789968E+03  0.00000000000E+00 0. -1.
         23    2    1    2    0    0  0.00000000000E+00  0.00000000000E+00 -0.31080468969E+03  0.32387110967E+03  0.91065583769E+02 0.  0.
          2    1    3    3  502    0  0.18284350651E+01  0.40213580458E+02 -0.23107725521E+03  0.23455739831E+03  0.00000000000E+00 0. -1.
         -2    1    3    3    0  502 -0.18284350651E+01 -0.40213580458E+02 -0.79727434485E+02  0.89313711364E+02  0.00000000000E+00 0.  1.
<mgrwt>
<rscale>  0 0.91065584E+02</rscale>
<asrwt>0</asrwt>
<pdfrwt beam="2">  1        2 0.48821226E-01 0.91065584E+02</pdfrwt>
<pdfrwt beam="1">  1       -2 0.10051090E-02 0.91065584E+02</pdfrwt>
<totfact> 0.18404950E+05</totfact>
</mgrwt>
</event>
<event>
 5    1  0.4006808E+001  0.8956106E+02  0.7546771E-02  0.1303918E+00
         -1   -1    0    0    0  501 -0.00000000000E+00  0.00000000000E+00  0.49530049342E+02  0.49530049342E+02  0.00000000000E+00 0.  1.
          1   -1    0    0  501    0  0.00000000000E+00 -0.00000000000E+00 -0.40486445629E+02  0.40486445629E+02  0.00000000000E+00 0. -1.
         23    2    1    2    0    0  0.00000000000E+00  0.00000000000E+00  0.90436037127E+01  0.90016494971E+02  0.89561055145E+02 0.  0.
          2    1    3    3  502    0 -0.22961307038E+02  0.29575235018E+02 -0.20166895350E+02  0.42527871041E+02  0.00000000000E+00 0. -1.
         -2    1    3    3    0  502  0.22961307038E+02 -0.29575235018E+02  0.29210499063E+02  0.47488623930E+02  0.00000000000E+00 0.  1.
<mgrwt>
<rscale>  0 0.89561055E+02</rscale>
<asrwt>0</asrwt>
<pdfrwt beam="2">  1        1 0.62286839E-02 0.89561055E+02</pdfrwt>
<pdfrwt beam="1">  1       -1 0.76200076E-02 0.89561055E+02</pdfrwt>
<totfact> 0.95521544E+04</totfact>
</mgrwt>
</event>
<event>
 5    1  0.4006808E+001  0.9103942E+02  0.7546771E-02  0.1300354E+00
         -1   -1    0    0    0  501 -0.00000000000E+00  0.00000000000E+00  0.78447057445E+02  0.78447057445E+02  0.00000000000E+00 0.  1.
          1   -1    0    0  501    0  0.00000000000E+00 -0.00000000000E+00 -0.26413279069E+02  0.26413279069E+02  0.00000000000E+00 0. -1.
         23    2    1    2    0    0  0.00000000000E+00  0.00000000000E+00  0.52033778376E+02  0.10486033651E+03  0.91039420482E+02 0.  0.
          2    1    3    3  502    0 -0.32345870497E+02 -0.39501120615E+01 -0.10591640291E+02  0.34264289976E+02  0.00000000000E+00 0. -1.
         -2    1    3    3    0  502  0.32345870497E+02  0.39501120615E+01  0.62625418667E+02  0.70596046538E+02  0.00000000000E+00 0.  1.
<mgrwt>
<rscale>  0 0.91039420E+02</rscale>
<asrwt>0</asrwt>
<pdfrwt beam="2">  1        1 0.40635814E-02 0.91039420E+02</pdfrwt>
<pdfrwt beam="1">  1       -1 0.12068778E-01 0.91039420E+02</pdfrwt>
<totfact> 0.85259389E+04</totfact>
</mgrwt>
</event>
<event>
 5    1  0.4006808E+001  0.9048834E+02  0.7546771E-02  0.1301673E+00
          4   -1    0    0  501    0  0.00000000000E+00  0.00000000000E+00  0.21536005581E+02  0.21536005581E+02  0.00000000000E+00 0. -1.
         -4   -1    0    0    0  501 -0.00000000000E+00 -0.00000000000E+00 -0.95051754109E+02  0.95051754109E+02  0.00000000000E+00 0.  1.
         23    2    1    2    0    0  0.00000000000E+00  0.00000000000E+00 -0.73515748528E+02  0.11658775969E+03  0.90488344154E+02 0.  0.
          2    1    3    3  502    0 -0.19830110968E+02 -0.39710480115E+02 -0.25460804703E+02  0.51170383114E+02  0.00000000000E+00 0.  1.
         -2    1    3    3    0  502  0.19830110968E+02  0.39710480115E+02 -0.48054943825E+02  0.65417376575E+02  0.00000000000E+00 0. -1.
<mgrwt>
<rscale>  0 0.90488344E+02</rscale>
<asrwt>0</asrwt>
<pdfrwt beam="1">  1        4 0.33132317E-02 0.90488344E+02</pdfrwt>
<pdfrwt beam="2">  1       -4 0.14623347E-01 0.90488344E+02</pdfrwt>
<totfact> 0.25993885E+04</totfact>
</mgrwt>
</event>
<event>
 5    1  0.4006808E+001  0.9949770E+02  0.7546771E-02  0.1281356E+00
          1   -1    0    0  501    0  0.00000000000E+00  0.00000000000E+00  0.87519061249E+03  0.87519061249E+03  0.00000000000E+00 0. -1.
         -1   -1    0    0    0  501 -0.00000000000E+00 -0.00000000000E+00 -0.28278961155E+01  0.28278961155E+01  0.00000000000E+00 0.  1.
         23    2    1    2    0    0  0.00000000000E+00  0.00000000000E+00  0.87236271638E+03  0.87801850861E+03  0.99497701147E+02 0.  0.
          2    1    3    3  502    0  0.24176516435E+02 -0.23846804410E+02  0.75700712729E+03  0.75776841106E+03  0.00000000000E+00 0. -1.
         -2    1    3    3    0  502 -0.24176516435E+02  0.23846804410E+02  0.11535558908E+03  0.12025009755E+03  0.00000000000E+00 0.  1.
<mgrwt>
<rscale>  0 0.99497701E+02</rscale>
<asrwt>0</asrwt>
<pdfrwt beam="1">  1        1 0.13464449E+00 0.99497701E+02</pdfrwt>
<pdfrwt beam="2">  1       -1 0.43506164E-03 0.99497701E+02</pdfrwt>
<totfact> 0.11087817E+05</totfact>
</mgrwt>
</event>
<event>
 5    1  0.4006808E+001  0.8891743E+02  0.7546771E-02  0.1305495E+00
          1   -1    0    0  501    0  0.00000000000E+00  0.00000000000E+00  0.16747322370E+03  0.16747322370E+03  0.00000000000E+00 0. -1.
         -1   -1    0    0    0  501 -0.00000000000E+00 -0.00000000000E+00 -0.11802348074E+02  0.11802348074E+02  0.00000000000E+00 0.  1.
         23    2    1    2    0    0  0.00000000000E+00  0.00000000000E+00  0.15567087563E+03  0.17927557177E+03  0.88917428644E+02 0.  0.
          2    1    3    3  502    0  0.23173290675E+02 -0.26483026329E+02  0.23054602173E+02  0.42069784473E+02  0.00000000000E+00 0. -1.
         -2    1    3    3    0  502 -0.23173290675E+02  0.26483026329E+02  0.13261627345E+03  0.13720578730E+03  0.00000000000E+00 0.  1.
<mgrwt>
<rscale>  0 0.88917429E+02</rscale>
<asrwt>0</asrwt>
<pdfrwt beam="1">  1        1 0.25765110E-01 0.88917429E+02</pdfrwt>
<pdfrwt beam="2">  1       -1 0.18157460E-02 0.88917429E+02</pdfrwt>
<totfact> 0.12243059E+05</totfact>
</mgrwt>
</event>
<event>
 5    1  0.4006808E+001  0.9062653E+02  0.7546771E-02  0.1301342E+00
          1   -1    0    0  501    0  0.00000000000E+00  0.00000000000E+00  0.67366885949E+03  0.67366885949E+03  0.00000000000E+00 0. -1.
         -1   -1    0    0    0  501 -0.00000000000E+00 -0.00000000000E+00 -0.30479247061E+01  0.30479247061E+01  0.00000000000E+00 0.  1.
         23    2    1    2    0    0  0.00000000000E+00  0.00000000000E+00  0.67062093478E+03  0.67671678419E+03  0.90626529461E+02 0.  0.
          2    1    3    3  502    0 -0.92933131118E+01 -0.24180439335E+02  0.61292498414E+03  0.61347216359E+03  0.00000000000E+00 0. -1.
         -2    1    3    3    0  502  0.92933131118E+01  0.24180439335E+02  0.57695950638E+02  0.63244620602E+02  0.00000000000E+00 0.  1.
<mgrwt>
<rscale>  0 0.90626529E+02</rscale>
<asrwt>0</asrwt>
<pdfrwt beam="1">  1        1 0.10364124E+00 0.90626529E+02</pdfrwt>
<pdfrwt beam="2">  1       -1 0.46891203E-03 0.90626529E+02</pdfrwt>
<totfact> 0.14446747E+05</totfact>
</mgrwt>
</event>
<event>
 5    1  0.4006808E+001  0.9170930E+02  0.7546771E-02  0.1298764E+00
          2   -1    0    0  501    0  0.00000000000E+00  0.00000000000E+00  0.11740810580E+03  0.11740810580E+03  0.00000000000E+00 0. -1.
         -2   -1    0    0    0  501 -0.00000000000E+00 -0.00000000000E+00 -0.17908890514E+02  0.17908890514E+02  0.00000000000E+00 0.  1.
         23    2    1    2    0    0  0.00000000000E+00  0.00000000000E+00  0.99499215290E+02  0.13531699632E+03  0.91709299687E+02 0.  0.
          2    1    3    3  502    0  0.29186107003E+02  0.30091047624E+02  0.77169643922E+02  0.87820578068E+02  0.00000000000E+00 0. -1.
         -2    1    3    3    0  502 -0.29186107003E+02 -0.30091047624E+02  0.22329571368E+02  0.47496418250E+02  0.00000000000E+00 0.  1.
<mgrwt>
<rscale>  0 0.91709300E+02</rscale>
<asrwt>0</asrwt>
<pdfrwt beam="1">  1        2 0.18062785E-01 0.91709300E+02</pdfrwt>
<pdfrwt beam="2">  1       -2 0.27552140E-02 0.91709300E+02</pdfrwt>
<totfact> 0.12692103E+05</totfact>
</mgrwt>
</event>
<event>
 5    1  0.4006808E+001  0.9212846E+02  0.7546771E-02  0.1297778E+00
          2   -1    0    0  501    0  0.00000000000E+00  0.00000000000E+00  0.57841408648E+01  0.57841408648E+01  0.00000000000E+00 0. -1.
         -2   -1    0    0    0  501 -0.00000000000E+00 -0.00000000000E+00 -0.36685020335E+03  0.36685020335E+03  0.00000000000E+00 0.  1.
         23    2    1    2    0    0  0.00000000000E+00  0.00000000000E+00 -0.36106606248E+03  0.37263434421E+03  0.92128459282E+02 0.  0.
          2    1    3    3  502    0  0.39803370757E+02 -0.15688195145E+02 -0.11147765104E+03  0.11940558811E+03  0.00000000000E+00 0. -1.
         -2    1    3    3    0  502 -0.39803370757E+02  0.15688195145E+02 -0.24958841144E+03  0.25322875610E+03  0.00000000000E+00 0.  1.
<mgrwt>
<rscale>  0 0.92128459E+02</rscale>
<asrwt>0</asrwt>
<pdfrwt beam="1">  1        2 0.88986797E-03 0.92128459E+02</pdfrwt>
<pdfrwt beam="2">  1       -2 0.56438484E-01 0.92128459E+02</pdfrwt>
<totfact> 0.43997344E+04</totfact>
</mgrwt>
</event>
<event>
 5    1  0.4006808E+001  0.9234221E+02  0.7546771E-02  0.1297277E+00
          2   -1    0    0  501    0  0.00000000000E+00  0.00000000000E+00  0.39119734103E+03  0.39119734103E+03  0.00000000000E+00 0.  1.
         -2   -1    0    0    0  501 -0.00000000000E+00 -0.00000000000E+00 -0.54493493839E+01  0.54493493839E+01  0.00000000000E+00 0. -1.
         23    2    1    2    0    0  0.00000000000E+00  0.00000000000E+00  0.38574799165E+03  0.39664669042E+03  0.92342211135E+02 0.  0.
          2    1    3    3  502    0 -0.10152055961E+01  0.26505238862E+02  0.30543541332E+02  0.40453260024E+02  0.00000000000E+00 0. -1.
         -2    1    3    3    0  502  0.10152055961E+01 -0.26505238862E+02  0.35520445032E+03  0.35619343039E+03  0.00000000000E+00 0.  1.
<mgrwt>
<rscale>  0 0.92342211E+02</rscale>
<asrwt>0</asrwt>
<pdfrwt beam="1">  1        2 0.60184184E-01 0.92342211E+02</pdfrwt>
<pdfrwt beam="2">  1       -2 0.83836175E-03 0.92342211E+02</pdfrwt>
<totfact> 0.19146210E+05</totfact>
</mgrwt>
</event>
<event>
 5    1  0.4006808E+001  0.9332035E+02  0.7546771E-02  0.1295005E+00
          1   -1    0    0  501    0  0.00000000000E+00  0.00000000000E+00  0.58206479534E+03  0.58206479534E+03  0.00000000000E+00 0. -1.
         -1   -1    0    0    0  501 -0.00000000000E+00 -0.00000000000E+00 -0.37404285628E+01  0.37404285628E+01  0.00000000000E+00 0.  1.
         23    2    1    2    0    0  0.00000000000E+00  0.00000000000E+00  0.57832436677E+03  0.58580522390E+03  0.93320346889E+02 0.  0.
          2    1    3    3  502    0 -0.30210995717E+02  0.34870309311E+02  0.33289201453E+03  0.33607400386E+03  0.00000000000E+00 0. -1.
         -2    1    3    3    0  502  0.30210995717E+02 -0.34870309311E+02  0.24543235224E+03  0.24973122003E+03  0.00000000000E+00 0.  1.
<mgrwt>
<rscale>  0 0.93320347E+02</rscale>
<asrwt>0</asrwt>
<pdfrwt beam="1">  1        1 0.89548358E-01 0.93320347E+02</pdfrwt>
<pdfrwt beam="2">  1       -1 0.57545101E-03 0.93320347E+02</pdfrwt>
<totfact> 0.13286458E+05</totfact>
</mgrwt>
</event>
<event>
 5    1  0.4006808E+001  0.9124119E+02  0.7546771E-02  0.1299874E+00
         -1   -1    0    0    0  501 -0.00000000000E+00  0.00000000000E+00  0.23234510759E+03  0.23234510759E+03  0.00000000000E+00 0.  1.
          1   -1    0    0  501    0  0.00000000000E+00 -0.00000000000E+00 -0.89575319643E+01  0.89575319643E+01  0.00000000000E+00 0. -1.
         23    2    1    2    0    0  0.00000000000E+00  0.00000000000E+00  0.22338757563E+03  0.24130263955E+03  0.91241190873E+02 0.  0.
          2    1    3    3  502    0 -0.13265197204E+01 -0.35148466589E+02  0.18852875525E+03  0.19178181852E+03  0.00000000000E+00 0.  1.
         -2    1    3    3    0  502  0.13265197204E+01  0.35148466589E+02  0.34858820378E+02  0.49520821038E+02  0.00000000000E+00 0. -1.
<mgrwt>
<rscale>  0 0.91241191E+02</rscale>
<asrwt>0</asrwt>
<pdfrwt beam="2">  1        1 0.13780820E-02 0.91241191E+02</pdfrwt>
<pdfrwt beam="1">  1       -1 0.35745397E-01 0.91241191E+02</pdfrwt>
<totfact> 0.66224028E+04</totfact>
</mgrwt>
</event>
<event>
 4    1  0.4006808E+001  0.1299186E+03  0.7546771E-02  0.1227577E+00
          3   -1    0    0  501    0  0.00000000000E+00  0.00000000000E+00  0.57097178489E+03  0.57097178489E+03  0.00000000000E+00 0. -1.
         -3   -1    0    0    0  501 -0.00000000000E+00 -0.00000000000E+00 -0.73903989239E+01  0.73903989239E+01  0.00000000000E+00 0.  1.
          2    1    1    2  502    0  0.69866828362E+01  0.31953432943E+02  0.53163830061E+03  0.53264351896E+03  0.00000000000E+00 0. -1.
         -2    1    1    2    0  502 -0.69866828362E+01 -0.31953432943E+02  0.31943085353E+02  0.45718664851E+02  0.00000000000E+00 0.  1.
<mgrwt>
<rscale>  0 0.12991858E+03</rscale>
<asrwt>0</asrwt>
<pdfrwt beam="1">  1        3 0.87841778E-01 0.12991858E+03</pdfrwt>
<pdfrwt beam="2">  1       -3 0.11369849E-02 0.12991858E+03</pdfrwt>
<totfact> 0.61710576E+03</totfact>
</mgrwt>
</event>
<event>
 5    1  0.4006808E+001  0.9272222E+02  0.7546771E-02  0.1296390E+00
          2   -1    0    0  501    0  0.00000000000E+00  0.00000000000E+00  0.25491641383E+04  0.25491641383E+04  0.00000000000E+00 0. -1.
         -2   -1    0    0    0  501 -0.00000000000E+00 -0.00000000000E+00 -0.84315973748E+00  0.84315973748E+00  0.00000000000E+00 0.  1.
         23    2    1    2    0    0  0.00000000000E+00  0.00000000000E+00  0.25483209786E+04  0.25500072980E+04  0.92722220975E+02 0.  0.
          2    1    3    3  502    0 -0.45842181428E+02  0.55309887318E+01  0.11599208742E+04  0.11608395806E+04  0.00000000000E+00 0.  1.
         -2    1    3    3    0  502  0.45842181428E+02 -0.55309887318E+01  0.13884001044E+04  0.13891677175E+04  0.00000000000E+00 0. -1.
<mgrwt>
<rscale>  0 0.92722221E+02</rscale>
<asrwt>0</asrwt>
<pdfrwt beam="1">  1        2 0.39217293E+00 0.92722221E+02</pdfrwt>
<pdfrwt beam="2">  1       -2 0.12971892E-03 0.92722221E+02</pdfrwt>
<totfact> 0.13748709E+05</totfact>
</mgrwt>
</event>
<event>
 5    1  0.4006808E+001  0.9152288E+02  0.7546771E-02  0.1299205E+00
         -1   -1    0    0    0  501 -0.00000000000E+00  0.00000000000E+00  0.83309196011E+01  0.83309196011E+01  0.00000000000E+00 0.  1.
          1   -1    0    0  501    0  0.00000000000E+00 -0.00000000000E+00 -0.25136590985E+03  0.25136590985E+03  0.00000000000E+00 0. -1.
         23    2    1    2    0    0  0.00000000000E+00  0.00000000000E+00 -0.24303499025E+03  0.25969682945E+03  0.91522875511E+02 0.  0.
          2    1    3    3  502    0 -0.29369797488E+02 -0.34958423601E+02 -0.13023229284E+03  0.13800408140E+03  0.00000000000E+00 0. -1.
         -2    1    3    3    0  502  0.29369797488E+02  0.34958423601E+02 -0.11280269741E+03  0.12169274805E+03  0.00000000000E+00 0.  1.
<mgrwt>
<rscale>  0 0.91522876E+02</rscale>
<asrwt>0</asrwt>
<pdfrwt beam="2">  1        1 0.38671675E-01 0.91522876E+02</pdfrwt>
<pdfrwt beam="1">  1       -1 0.12816801E-02 0.91522876E+02</pdfrwt>
<totfact> 0.12255371E+05</totfact>
</mgrwt>
</event>
<event>
 5    1  0.4006808E+001  0.8699161E+02  0.7546771E-02  0.1310305E+00
         -2   -1    0    0    0  501 -0.00000000000E+00  0.00000000000E+00  0.74556600800E+01  0.74556600800E+01  0.00000000000E+00 0.  1.
          2   -1    0    0  501    0  0.00000000000E+00 -0.00000000000E+00 -0.25375150958E+03  0.25375150958E+03  0.00000000000E+00 0. -1.
         23    2    1    2    0    0  0.00000000000E+00  0.00000000000E+00 -0.24629584950E+03  0.26120716966E+03  0.86991608796E+02 0.  0.
          2    1    3    3  502    0  0.60179333798E+01 -0.19390226420E+02 -0.23865082631E+03  0.23951286667E+03  0.00000000000E+00 0. -1.
         -2    1    3    3    0  502 -0.60179333798E+01  0.19390226420E+02 -0.76450231978E+01  0.21694302996E+02  0.00000000000E+00 0.  1.
<mgrwt>
<rscale>  0 0.86991609E+02</rscale>
<asrwt>0</asrwt>
<pdfrwt beam="2">  1        2 0.39038700E-01 0.86991609E+02</pdfrwt>
<pdfrwt beam="1">  1       -2 0.11470244E-02 0.86991609E+02</pdfrwt>
<totfact> 0.19133735E+05</totfact>
</mgrwt>
</event>
<event>
 5    1  0.4006808E+001  0.9119792E+02  0.7546771E-02  0.1299976E+00
         -2   -1    0    0    0  501 -0.00000000000E+00  0.00000000000E+00  0.71419846198E+00  0.71419846198E+00  0.00000000000E+00 0.  1.
          2   -1    0    0  501    0  0.00000000000E+00 -0.00000000000E+00 -0.29113265333E+04  0.29113265333E+04  0.00000000000E+00 0. -1.
         23    2    1    2    0    0  0.00000000000E+00  0.00000000000E+00 -0.29106123348E+04  0.29120407317E+04  0.91197915160E+02 0.  0.
          2    1    3    3  502    0 -0.84513411792E+01  0.44477268844E+02 -0.16290657474E+04  0.16296947144E+04  0.00000000000E+00 0.  1.
         -2    1    3    3    0  502  0.84513411792E+01 -0.44477268844E+02 -0.12815465874E+04  0.12823460174E+04  0.00000000000E+00 0. -1.
<mgrwt>
<rscale>  0 0.91197915E+02</rscale>
<asrwt>0</asrwt>
<pdfrwt beam="2">  1        2 0.44789459E+00 0.91197915E+02</pdfrwt>
<pdfrwt beam="1">  1       -2 0.10987713E-03 0.91197915E+02</pdfrwt>
<totfact> 0.10967196E+05</totfact>
</mgrwt>
</event>
<event>
 5    1  0.4006808E+001  0.8811214E+02  0.7546771E-02  0.1307489E+00
         -2   -1    0    0    0  501 -0.00000000000E+00  0.00000000000E+00  0.35041345668E+01  0.35041345668E+01  0.00000000000E+00 0.  1.
          2   -1    0    0  501    0  0.00000000000E+00 -0.00000000000E+00 -0.55389915935E+03  0.55389915935E+03  0.00000000000E+00 0. -1.
         23    2    1    2    0    0  0.00000000000E+00  0.00000000000E+00 -0.55039502478E+03  0.55740329391E+03  0.88112137434E+02 0.  0.
          2    1    3    3  502    0 -0.65076855932E+01  0.23124980647E+02 -0.50881896398E+03  0.50938576031E+03  0.00000000000E+00 0. -1.
         -2    1    3    3    0  502  0.65076855932E+01 -0.23124980647E+02 -0.41576060803E+02  0.48017533606E+02  0.00000000000E+00 0.  1.
<mgrwt>
<rscale>  0 0.88112137E+02</rscale>
<asrwt>0</asrwt>
<pdfrwt beam="2">  1        2 0.85215263E-01 0.88112137E+02</pdfrwt>
<pdfrwt beam="1">  1       -2 0.53909758E-03 0.88112137E+02</pdfrwt>
<totfact> 0.24356073E+05</totfact>
</mgrwt>
</event>
<event>
 5    1  0.4006808E+001  0.9237781E+02  0.7546771E-02  0.1297194E+00
          1   -1    0    0  501    0  0.00000000000E+00  0.00000000000E+00  0.26827571429E+04  0.26827571429E+04  0.00000000000E+00 0. -1.
         -1   -1    0    0    0  501 -0.00000000000E+00 -0.00000000000E+00 -0.79523216524E+00  0.79523216524E+00  0.00000000000E+00 0.  1.
         23    2    1    2    0    0  0.00000000000E+00  0.00000000000E+00  0.26819619107E+04  0.26835523751E+04  0.92377806243E+02 0.  0.
          2    1    3    3  502    0 -0.33034459405E+02  0.20080795548E+02  0.60670520484E+03  0.60793562113E+03  0.00000000000E+00 0.  1.
         -2    1    3    3    0  502  0.33034459405E+02 -0.20080795548E+02  0.20752567059E+04  0.20756167539E+04  0.00000000000E+00 0. -1.
<mgrwt>
<rscale>  0 0.92377806E+02</rscale>
<asrwt>0</asrwt>
<pdfrwt beam="1">  1        1 0.41272462E+00 0.92377806E+02</pdfrwt>
<pdfrwt beam="2">  1       -1 0.12234556E-03 0.92377806E+02</pdfrwt>
<totfact> 0.42361473E+04</totfact>
</mgrwt>
</event>
<event>
 5    1  0.4006808E+001  0.8597495E+02  0.7546771E-02  0.1312902E+00
         -1   -1    0    0    0  501 -0.00000000000E+00  0.00000000000E+00  0.11568821774E+03  0.11568821774E+03  0.00000000000E+00 0.  1.
          1   -1    0    0  501    0  0.00000000000E+00 -0.00000000000E+00 -0.15973303956E+02  0.15973303956E+02  0.00000000000E+00 0. -1.
         23    2    1    2    0    0  0.00000000000E+00  0.00000000000E+00  0.99714913785E+02  0.13166152170E+03  0.85974951378E+02 0.  0.
          2    1    3    3  502    0  0.82986602937E+00  0.28304901498E+02  0.32764601881E+00  0.28318959698E+02  0.00000000000E+00 0. -1.
         -2    1    3    3    0  502 -0.82986602937E+00 -0.28304901498E+02  0.99387267766E+02  0.10334256200E+03  0.00000000000E+00 0.  1.
<mgrwt>
<rscale>  0 0.85974951E+02</rscale>
<asrwt>0</asrwt>
<pdfrwt beam="2">  1        1 0.24574315E-02 0.85974951E+02</pdfrwt>
<pdfrwt beam="1">  1       -1 0.17798187E-01 0.85974951E+02</pdfrwt>
<totfact> 0.92051468E+04</totfact>
</mgrwt>
</event>
<event>
 5    1  0.4006808E+001  0.1000158E+03  0.7546771E-02  0.1280263E+00
          1   -1    0    0  501    0  0.00000000000E+00  0.00000000000E+00  0.95145170634E+03  0.95145170634E+03  0.00000000000E+00 0. -1.
         -1   -1    0    0    0  501 -0.00000000000E+00 -0.00000000000E+00 -0.26283938029E+01  0.26283938029E+01  0.00000000000E+00 0.  1.
         23    2    1    2    0    0  0.00000000000E+00  0.00000000000E+00  0.94882331254E+03  0.95408010014E+03  0.10001579413E+03 0.  0.
          2    1    3    3  502    0  0.24591798854E+02 -0.43519164817E+02  0.48828630142E+03  0.49083824874E+03  0.00000000000E+00 0. -1.
         -2    1    3    3    0  502 -0.24591798854E+02  0.43519164817E+02  0.46053701112E+03  0.46324185140E+03  0.00000000000E+00 0.  1.
<mgrwt>
<rscale>  0 0.10001579E+03</rscale>
<asrwt>0</asrwt>
<pdfrwt beam="1">  1        1 0.14637691E+00 0.10001579E+03</pdfrwt>
<pdfrwt beam="2">  1       -1 0.40436904E-03 0.10001579E+03</pdfrwt>
<totfact> 0.10768094E+05</totfact>
</mgrwt>
</event>
<event>
 5    1  0.4006808E+001  0.9087255E+02  0.7546771E-02  0.1300752E+00
          1   -1    0    0  501    0  0.00000000000E+00  0.00000000000E+00  0.44060941990E+03  0.44060941990E+03  0.00000000000E+00 0. -1.
         -1   -1    0    0    0  501 -0.00000000000E+00 -0.00000000000E+00 -0.46854541717E+01  0.46854541717E+01  0.00000000000E+00 0.  1.
         23    2    1    2    0    0  0.00000000000E+00  0.00000000000E+00  0.43592396573E+03  0.44529487407E+03  0.90872553493E+02 0.  0.
          2    1    3    3  502    0  0.40409877337E+02  0.84630569219E+01  0.12500328447E+03  0.13164498717E+03  0.00000000000E+00 0. -1.
         -2    1    3    3    0  502 -0.40409877337E+02 -0.84630569219E+01  0.31092068126E+03  0.31364988690E+03  0.00000000000E+00 0.  1.
<mgrwt>
<rscale>  0 0.90872553E+02</rscale>
<asrwt>0</asrwt>
<pdfrwt beam="1">  1        1 0.67786032E-01 0.90872553E+02</pdfrwt>
<pdfrwt beam="2">  1       -1 0.72083945E-03 0.90872553E+02</pdfrwt>
<totfact> 0.13815787E+05</totfact>
</mgrwt>
</event>
<event>
 5    1  0.4006808E+001  0.9160205E+02  0.7546771E-02  0.1299018E+00
          1   -1    0    0  501    0  0.00000000000E+00  0.00000000000E+00  0.98866146048E+01  0.98866146048E+01  0.00000000000E+00 0. -1.
         -1   -1    0    0    0  501 -0.00000000000E+00 -0.00000000000E+00 -0.21217920028E+03  0.21217920028E+03  0.00000000000E+00 0.  1.
         23    2    1    2    0    0  0.00000000000E+00  0.00000000000E+00 -0.20229258567E+03  0.22206581488E+03  0.91602051949E+02 0.  0.
          2    1    3    3  502    0  0.47558437946E+01 -0.23326051588E+02 -0.62900986057E+01  0.24622917645E+02  0.00000000000E+00 0. -1.
         -2    1    3    3    0  502 -0.47558437946E+01  0.23326051588E+02 -0.19600248707E+03  0.19744289724E+03  0.00000000000E+00 0.  1.
<mgrwt>
<rscale>  0 0.91602052E+02</rscale>
<asrwt>0</asrwt>
<pdfrwt beam="1">  1        1 0.15210176E-02 0.91602052E+02</pdfrwt>
<pdfrwt beam="2">  1       -1 0.32642954E-01 0.91602052E+02</pdfrwt>
<totfact> 0.67411567E+04</totfact>
</mgrwt>
</event>
<event>
 5    1  0.4006808E+001  0.9108360E+02  0.7546771E-02  0.1300249E+00
          2   -1    0    0  501    0  0.00000000000E+00  0.00000000000E+00  0.43656507752E+01  0.43656507752E+01  0.00000000000E+00 0. -1.
         -2   -1    0    0    0  501 -0.00000000000E+00 -0.00000000000E+00 -0.47508504570E+03  0.47508504570E+03  0.00000000000E+00 0.  1.
         23    2    1    2    0    0  0.00000000000E+00  0.00000000000E+00 -0.47071939492E+03  0.47945069647E+03  0.91083596724E+02 0.  0.
          2    1    3    3  502    0 -0.30693318436E+02  0.33605079663E+02 -0.22675169204E+03  0.23127410365E+03  0.00000000000E+00 0. -1.
         -2    1    3    3    0  502  0.30693318436E+02 -0.33605079663E+02 -0.24396770289E+03  0.24817659283E+03  0.00000000000E+00 0.  1.
<mgrwt>
<rscale>  0 0.91083597E+02</rscale>
<asrwt>0</asrwt>
<pdfrwt beam="1">  1        2 0.67163854E-03 0.91083597E+02</pdfrwt>
<pdfrwt beam="2">  1       -2 0.73090011E-01 0.91083597E+02</pdfrwt>
<totfact> 0.37854074E+04</totfact>
</mgrwt>
</event>
<event>
 5    1  0.4006808E+001  0.9110139E+02  0.7546771E-02  0.1300206E+00
         -2   -1    0    0    0  501 -0.00000000000E+00  0.00000000000E+00  0.80937164130E+01  0.80937164130E+01  0.00000000000E+00 0.  1.
          2   -1    0    0  501    0  0.00000000000E+00 -0.00000000000E+00 -0.25635516341E+03  0.25635516341E+03  0.00000000000E+00 0. -1.
         23    2    1    2    0    0  0.00000000000E+00  0.00000000000E+00 -0.24826144699E+03  0.26444887982E+03  0.91101393922E+02 0.  0.
          2    1    3    3  502    0 -0.68656635536E+01 -0.24849331896E+02 -0.23313991682E+03  0.23456096744E+03  0.00000000000E+00 0. -1.
         -2    1    3    3    0  502  0.68656635536E+01  0.24849331896E+02 -0.15121530177E+02  0.29887912383E+02  0.00000000000E+00 0.  1.
<mgrwt>
<rscale>  0 0.91101394E+02</rscale>
<asrwt>0</asrwt>
<pdfrwt beam="2">  1        2 0.39439253E-01 0.91101394E+02</pdfrwt>
<pdfrwt beam="1">  1       -2 0.12451872E-02 0.91101394E+02</pdfrwt>
<totfact> 0.16980426E+05</totfact>
</mgrwt>
</event>
<event>
 5    1  0.4006808E+001  0.8961489E+02  0.7546771E-02  0.1303787E+00
          1   -1    0    0  501    0  0.00000000000E+00  0.00000000000E+00  0.30613146464E+03  0.30613146464E+03  0.00000000000E+00 0. -1.
         -1   -1    0    0    0  501 -0.00000000000E+00 -0.00000000000E+00 -0.65583166587E+01  0.65583166587E+01  0.00000000000E+00 0.  1.
         23    2    1    2    0    0  0.00000000000E+00  0.00000000000E+00  0.29957314798E+03  0.31268978129E+03  0.89614889037E+02 0.  0.
          2    1    3    3  502    0  0.41595428212E+02 -0.14581307125E+02  0.17789904922E+03  0.18327811074E+03  0.00000000000E+00 0. -1.
         -2    1    3    3    0  502 -0.41595428212E+02  0.14581307125E+02  0.12167409876E+03  0.12941167055E+03  0.00000000000E+00 0.  1.
<mgrwt>
<rscale>  0 0.89614889E+02</rscale>
<asrwt>0</asrwt>
<pdfrwt beam="1">  1        1 0.47097137E-01 0.89614889E+02</pdfrwt>
<pdfrwt beam="2">  1       -1 0.10089720E-02 0.89614889E+02</pdfrwt>
<totfact> 0.13466530E+05</totfact>
</mgrwt>
</event>
<event>
 5    1  0.4006808E+001  0.9008714E+02  0.7546771E-02  0.1302641E+00
          4   -1    0    0  501    0  0.00000000000E+00  0.00000000000E+00  0.62092278388E+02  0.62092278388E+02  0.00000000000E+00 0. -1.
         -4   -1    0    0    0  501 -0.00000000000E+00 -0.00000000000E+00 -0.32675934305E+02  0.32675934305E+02  0.00000000000E+00 0.  1.
         23    2    1    2    0    0  0.00000000000E+00  0.00000000000E+00  0.29416344083E+02  0.94768212693E+02  0.90087140246E+02 0.  0.
          2    1    3    3  502    0 -0.40501048987E+02 -0.94079857963E+01  0.32931051364E+02  0.53040544018E+02  0.00000000000E+00 0. -1.
         -2    1    3    3    0  502  0.40501048987E+02  0.94079857963E+01 -0.35147072811E+01  0.41727668675E+02  0.00000000000E+00 0.  1.
<mgrwt>
<rscale>  0 0.90087140E+02</rscale>
<asrwt>0</asrwt>
<pdfrwt beam="1">  1        4 0.95526582E-02 0.90087140E+02</pdfrwt>
<pdfrwt beam="2">  1       -4 0.50270668E-02 0.90087140E+02</pdfrwt>
<totfact> 0.27672283E+04</totfact>
</mgrwt>
</event>
<event>
 5    1  0.4006808E+001  0.9266415E+02  0.7546771E-02  0.1296525E+00
         -3   -1    0    0    0  501 -0.00000000000E+00  0.00000000000E+00  0.19886268320E+04  0.19886268320E+04  0.00000000000E+00 0.  1.
          3   -1    0    0  501    0  0.00000000000E+00 -0.00000000000E+00 -0.10794691339E+01  0.10794691339E+01  0.00000000000E+00 0. -1.
         23    2    1    2    0    0  0.00000000000E+00  0.00000000000E+00  0.19875473629E+04  0.19897063011E+04  0.92664152380E+02 0.  0.
          2    1    3    3  502    0  0.21943562186E+02 -0.13964687353E+02  0.17047973735E+03  0.17245252466E+03  0.00000000000E+00 0. -1.
         -2    1    3    3    0  502 -0.21943562186E+02  0.13964687353E+02  0.18170676255E+04  0.18172537765E+04  0.00000000000E+00 0.  1.
<mgrwt>
<rscale>  0 0.92664152E+02</rscale>
<asrwt>0</asrwt>
<pdfrwt beam="2">  1        3 0.16607377E-03 0.92664152E+02</pdfrwt>
<pdfrwt beam="1">  1       -3 0.30593966E+00 0.92664152E+02</pdfrwt>
<totfact> 0.34901891E+03</totfact>
</mgrwt>
</event>
<event>
 5    1  0.4006808E+001  0.9318795E+02  0.7546771E-02  0.1295310E+00
          2   -1    0    0  501    0  0.00000000000E+00  0.00000000000E+00  0.49481042613E+03  0.49481042613E+03  0.00000000000E+00 0.  1.
         -2   -1    0    0    0  501 -0.00000000000E+00 -0.00000000000E+00 -0.43875361552E+01  0.43875361552E+01  0.00000000000E+00 0. -1.
         23    2    1    2    0    0  0.00000000000E+00  0.00000000000E+00  0.49042288997E+03  0.49919796229E+03  0.93187952754E+02 0.  0.
          2    1    3    3  502    0  0.16371939822E+00 -0.42672220387E+02  0.34543740080E+03  0.34806313087E+03  0.00000000000E+00 0.  1.
         -2    1    3    3    0  502 -0.16371939822E+00  0.42672220387E+02  0.14498548917E+03  0.15113483141E+03  0.00000000000E+00 0. -1.
<mgrwt>
<rscale>  0 0.93187953E+02</rscale>
<asrwt>0</asrwt>
<pdfrwt beam="1">  1        2 0.76124637E-01 0.93187953E+02</pdfrwt>
<pdfrwt beam="2">  1       -2 0.67500595E-03 0.93187953E+02</pdfrwt>
<totfact> 0.20269547E+05</totfact>
</mgrwt>
</event>
<event>
 5    1  0.4006808E+001  0.9751324E+02  0.7546771E-02  0.1285614E+00
         -2   -1    0    0    0  501 -0.00000000000E+00  0.00000000000E+00  0.17192738435E+02  0.17192738435E+02  0.00000000000E+00 0.  1.
          2   -1    0    0  501    0  0.00000000000E+00 -0.00000000000E+00 -0.13826814045E+03  0.13826814045E+03  0.00000000000E+00 0. -1.
         23    2    1    2    0    0  0.00000000000E+00  0.00000000000E+00 -0.12107540201E+03  0.15546087888E+03  0.97513239564E+02 0.  0.
          2    1    3    3  502    0 -0.45126963922E+01 -0.27866402924E+02  0.28388037452E+01  0.28371810787E+02  0.00000000000E+00 0.  1.
         -2    1    3    3    0  502  0.45126963922E+01  0.27866402924E+02 -0.12391420576E+03  0.12708906810E+03  0.00000000000E+00 0. -1.
<mgrwt>
<rscale>  0 0.97513240E+02</rscale>
<asrwt>0</asrwt>
<pdfrwt beam="2">  1        2 0.21272022E-01 0.97513240E+02</pdfrwt>
<pdfrwt beam="1">  1       -2 0.26450367E-02 0.97513240E+02</pdfrwt>
<totfact> 0.11319164E+05</totfact>
</mgrwt>
</event>
<event>
 5    1  0.4006808E+001  0.9292763E+02  0.7546771E-02  0.1295913E+00
         -2   -1    0    0    0  501 -0.00000000000E+00  0.00000000000E+00  0.53505861975E+01  0.53505861975E+01  0.00000000000E+00 0.  1.
          2   -1    0    0  501    0  0.00000000000E+00 -0.00000000000E+00 -0.40348593944E+03  0.40348593944E+03  0.00000000000E+00 0. -1.
         23    2    1    2    0    0  0.00000000000E+00  0.00000000000E+00 -0.39813535324E+03  0.40883652563E+03  0.92927634177E+02 0.  0.
          2    1    3    3  502    0 -0.36931009359E+02 -0.73004429543E+00 -0.32307266439E+03  0.32517745754E+03  0.00000000000E+00 0. -1.
         -2    1    3    3    0  502  0.36931009359E+02  0.73004429543E+00 -0.75062688850E+02  0.83659068094E+02  0.00000000000E+00 0.  1.
<mgrwt>
<rscale>  0 0.92927634E+02</rscale>
<asrwt>0</asrwt>
<pdfrwt beam="2">  1        2 0.62074771E-01 0.92927634E+02</pdfrwt>
<pdfrwt beam="1">  1       -2 0.82316696E-03 0.92927634E+02</pdfrwt>
<totfact> 0.19037055E+05</totfact>
</mgrwt>
</event>
<event>
 5    1  0.4006808E+001  0.9229004E+02  0.7546771E-02  0.1297399E+00
         -1   -1    0    0    0  501 -0.00000000000E+00  0.00000000000E+00  0.55594106767E+02  0.55594106767E+02  0.00000000000E+00 0.  1.
          1   -1    0    0  501    0  0.00000000000E+00 -0.00000000000E+00 -0.38301949105E+02  0.38301949105E+02  0.00000000000E+00 0. -1.
         23    2    1    2    0    0  0.00000000000E+00  0.00000000000E+00  0.17292157662E+02  0.93896055871E+02  0.92290035169E+02 0.  0.
          2    1    3    3  502    0 -0.29306233511E+02 -0.10223875341E+02 -0.26094578607E+02  0.40550092260E+02  0.00000000000E+00 0. -1.
         -2    1    3    3    0  502  0.29306233511E+02  0.10223875341E+02  0.43386736269E+02  0.53345963612E+02  0.00000000000E+00 0.  1.
<mgrwt>
<rscale>  0 0.92290035E+02</rscale>
<asrwt>0</asrwt>
<pdfrwt beam="2">  1        1 0.58926076E-02 0.92290035E+02</pdfrwt>
<pdfrwt beam="1">  1       -1 0.85529395E-02 0.92290035E+02</pdfrwt>
<totfact> 0.87018372E+04</totfact>
</mgrwt>
</event>
<event>
 5    1  0.4006808E+001  0.8765321E+02  0.7546771E-02  0.1308636E+00
         -1   -1    0    0    0  501 -0.00000000000E+00  0.00000000000E+00  0.56359302899E+01  0.56359302899E+01  0.00000000000E+00 0.  1.
          1   -1    0    0  501    0  0.00000000000E+00 -0.00000000000E+00 -0.34080822737E+03  0.34080822737E+03  0.00000000000E+00 0. -1.
         23    2    1    2    0    0  0.00000000000E+00  0.00000000000E+00 -0.33517229708E+03  0.34644415766E+03  0.87653212415E+02 0.  0.
          2    1    3    3  502    0  0.33479419666E+02 -0.22745692681E+02 -0.23402165537E+03  0.23749604894E+03  0.00000000000E+00 0. -1.
         -2    1    3    3    0  502 -0.33479419666E+02  0.22745692681E+02 -0.10115064170E+03  0.10894810872E+03  0.00000000000E+00 0.  1.
<mgrwt>
<rscale>  0 0.87653212E+02</rscale>
<asrwt>0</asrwt>
<pdfrwt beam="2">  1        1 0.52432042E-01 0.87653212E+02</pdfrwt>
<pdfrwt beam="1">  1       -1 0.86706608E-03 0.87653212E+02</pdfrwt>
<totfact> 0.14566700E+05</totfact>
</mgrwt>
</event>
<event>
 5    1  0.4006808E+001  0.9980107E+02  0.7546771E-02  0.1280715E+00
          1   -1    0    0  501    0  0.00000000000E+00  0.00000000000E+00  0.34149005591E+03  0.34149005591E+03  0.00000000000E+00 0. -1.
         -1   -1    0    0    0  501 -0.00000000000E+00 -0.00000000000E+00 -0.72917600934E+01  0.72917600934E+01  0.00000000000E+00 0.  1.
         23    2    1    2    0    0  0.00000000000E+00  0.00000000000E+00  0.33419829582E+03  0.34878181601E+03  0.99801073381E+02 0.  0.
          2    1    3    3  502    0 -0.40649345640E+02  0.16038378052E+02  0.25129806885E+03  0.25506924213E+03  0.00000000000E+00 0. -1.
         -2    1    3    3    0  502  0.40649345640E+02 -0.16038378052E+02  0.82900226969E+02  0.93712573878E+02  0.00000000000E+00 0.  1.
<mgrwt>
<rscale>  0 0.99801073E+02</rscale>
<asrwt>0</asrwt>
<pdfrwt beam="1">  1        1 0.52536919E-01 0.99801073E+02</pdfrwt>
<pdfrwt beam="2">  1       -1 0.11218095E-02 0.99801073E+02</pdfrwt>
<totfact> 0.10307796E+05</totfact>
</mgrwt>
</event>
<event>
 5    1  0.4006808E+001  0.9419236E+02  0.7546771E-02  0.1293006E+00
          2   -1    0    0  501    0  0.00000000000E+00  0.00000000000E+00  0.29289626624E+03  0.29289626624E+03  0.00000000000E+00 0. -1.
         -2   -1    0    0    0  501 -0.00000000000E+00 -0.00000000000E+00 -0.75728181038E+01  0.75728181038E+01  0.00000000000E+00 0.  1.
         23    2    1    2    0    0  0.00000000000E+00  0.00000000000E+00  0.28532344814E+03  0.30046908435E+03  0.94192359511E+02 0.  0.
          2    1    3    3  502    0  0.31176550281E+02 -0.17374631638E+02  0.24068178627E+03  0.24331374263E+03  0.00000000000E+00 0. -1.
         -2    1    3    3    0  502 -0.31176550281E+02  0.17374631638E+02  0.44641661871E+02  0.57155341715E+02  0.00000000000E+00 0.  1.
<mgrwt>
<rscale>  0 0.94192360E+02</rscale>
<asrwt>0</asrwt>
<pdfrwt beam="1">  1        2 0.45060955E-01 0.94192360E+02</pdfrwt>
<pdfrwt beam="2">  1       -2 0.11650492E-02 0.94192360E+02</pdfrwt>
<totfact> 0.16321544E+05</totfact>
</mgrwt>
</event>
<event>
 5    1  0.4006808E+001  0.9047606E+02  0.7546771E-02  0.1301703E+00
          2   -1    0    0  501    0  0.00000000000E+00  0.00000000000E+00  0.25447230222E+03  0.25447230222E+03  0.00000000000E+00 0. -1.
         -2   -1    0    0    0  501 -0.00000000000E+00 -0.00000000000E+00 -0.80420522465E+01  0.80420522465E+01  0.00000000000E+00 0.  1.
         23    2    1    2    0    0  0.00000000000E+00  0.00000000000E+00  0.24643024998E+03  0.26251435447E+03  0.90476064233E+02 0.  0.
          2    1    3    3  502    0 -0.14946202814E+02  0.39178586945E+02  0.17246586535E+03  0.17749035288E+03  0.00000000000E+00 0. -1.
         -2    1    3    3    0  502  0.14946202814E+02 -0.39178586945E+02  0.73964384626E+02  0.85024001592E+02  0.00000000000E+00 0.  1.
<mgrwt>
<rscale>  0 0.90476064E+02</rscale>
<asrwt>0</asrwt>
<pdfrwt beam="1">  1        2 0.39149579E-01 0.90476064E+02</pdfrwt>
<pdfrwt beam="2">  1       -2 0.12372390E-02 0.90476064E+02</pdfrwt>
<totfact> 0.17248920E+05</totfact>
</mgrwt>
</event>
<event>
 5    1  0.4006808E+001  0.9309297E+02  0.7546771E-02  0.1295530E+00
          2   -1    0    0  501    0  0.00000000000E+00  0.00000000000E+00  0.43652616597E+03  0.43652616597E+03  0.00000000000E+00 0. -1.
         -2   -1    0    0    0  501 -0.00000000000E+00 -0.00000000000E+00 -0.49632197308E+01  0.49632197308E+01  0.00000000000E+00 0.  1.
         23    2    1    2    0    0  0.00000000000E+00  0.00000000000E+00  0.43156294624E+03  0.44148938570E+03  0.93092970303E+02 0.  0.
          2    1    3    3  502    0  0.26594081835E+02  0.29697027410E+02  0.32974031637E+03  0.33214128751E+03  0.00000000000E+00 0. -1.
         -2    1    3    3    0  502 -0.26594081835E+02 -0.29697027410E+02  0.10182262987E+03  0.10934809820E+03  0.00000000000E+00 0.  1.
<mgrwt>
<rscale>  0 0.93092970E+02</rscale>
<asrwt>0</asrwt>
<pdfrwt beam="1">  1        2 0.67157841E-01 0.93092970E+02</pdfrwt>
<pdfrwt beam="2">  1       -2 0.76357261E-03 0.93092970E+02</pdfrwt>
<totfact> 0.19480776E+05</totfact>
</mgrwt>
</event>
<event>
 5    1  0.4006808E+001  0.9153026E+02  0.7546771E-02  0.1299188E+00
         -3   -1    0    0    0  501 -0.00000000000E+00  0.00000000000E+00  0.97875253164E+02  0.97875253164E+02  0.00000000000E+00 0.  1.
          3   -1    0    0  501    0  0.00000000000E+00 -0.00000000000E+00 -0.21399150729E+02  0.21399150729E+02  0.00000000000E+00 0. -1.
         23    2    1    2    0    0  0.00000000000E+00  0.00000000000E+00  0.76476102435E+02  0.11927440389E+03  0.91530263741E+02 0.  0.
          2    1    3    3  502    0  0.27298698440E+02  0.19640566184E+01 -0.95592687647E+01  0.28990620453E+02  0.00000000000E+00 0. -1.
         -2    1    3    3    0  502 -0.27298698440E+02 -0.19640566184E+01  0.86035371200E+02  0.90283783441E+02  0.00000000000E+00 0.  1.
<mgrwt>
<rscale>  0 0.91530264E+02</rscale>
<asrwt>0</asrwt>
<pdfrwt beam="2">  1        3 0.32921771E-02 0.91530264E+02</pdfrwt>
<pdfrwt beam="1">  1       -3 0.15057731E-01 0.91530264E+02</pdfrwt>
<totfact> 0.32948987E+04</totfact>
</mgrwt>
</event>
<event>
 5    1  0.4006808E+001  0.8698349E+02  0.7546771E-02  0.1310326E+00
         -2   -1    0    0    0  501 -0.00000000000E+00  0.00000000000E+00  0.69800893492E+01  0.69800893492E+01  0.00000000000E+00 0.  1.
          2   -1    0    0  501    0  0.00000000000E+00 -0.00000000000E+00 -0.27098965038E+03  0.27098965038E+03  0.00000000000E+00 0. -1.
         23    2    1    2    0    0  0.00000000000E+00  0.00000000000E+00 -0.26400956103E+03  0.27796973973E+03  0.86983492052E+02 0.  0.
          2    1    3    3  502    0 -0.32221680283E+02 -0.28463313482E+02 -0.11101654282E+03  0.11905070212E+03  0.00000000000E+00 0. -1.
         -2    1    3    3    0  502  0.32221680283E+02  0.28463313482E+02 -0.15299301821E+03  0.15891903762E+03  0.00000000000E+00 0.  1.
<mgrwt>
<rscale>  0 0.86983492E+02</rscale>
<asrwt>0</asrwt>
<pdfrwt beam="2">  1        2 0.41690717E-01 0.86983492E+02</pdfrwt>
<pdfrwt beam="1">  1       -2 0.10738599E-02 0.86983492E+02</pdfrwt>
<totfact> 0.19609641E+05</totfact>
</mgrwt>
</event>
<event>
 5    1  0.4006808E+001  0.9080460E+02  0.7546771E-02  0.1300915E+00
         -2   -1    0    0    0  501 -0.00000000000E+00  0.00000000000E+00  0.51214352281E+02  0.51214352281E+02  0.00000000000E+00 0.  1.
          2   -1    0    0  501    0  0.00000000000E+00 -0.00000000000E+00 -0.40249831256E+02  0.40249831256E+02  0.00000000000E+00 0. -1.
         23    2    1    2    0    0  0.00000000000E+00  0.00000000000E+00  0.10964521025E+02  0.91464183537E+02  0.90804604227E+02 0.  0.
          2    1    3    3  502    0  0.38435739279E+02 -0.19731447914E+02  0.19538298094E+02  0.47417098004E+02  0.00000000000E+00 0. -1.
         -2    1    3    3    0  502 -0.38435739279E+02  0.19731447914E+02 -0.85737770686E+01  0.44047085533E+02  0.00000000000E+00 0.  1.
<mgrwt>
<rscale>  0 0.90804604E+02</rscale>
<asrwt>0</asrwt>
<pdfrwt beam="2">  1        2 0.61922817E-02 0.90804604E+02</pdfrwt>
<pdfrwt beam="1">  1       -2 0.78791311E-02 0.90804604E+02</pdfrwt>
<totfact> 0.96679902E+04</totfact>
</mgrwt>
</event>
<event>
 5    1  0.4006808E+001  0.9119906E+02  0.7546771E-02  0.1299974E+00
         -2   -1    0    0    0  501 -0.00000000000E+00  0.00000000000E+00  0.21076943361E+03  0.21076943361E+03  0.00000000000E+00 0.  1.
          2   -1    0    0  501    0  0.00000000000E+00 -0.00000000000E+00 -0.98653646654E+01  0.98653646654E+01  0.00000000000E+00 0. -1.
         23    2    1    2    0    0  0.00000000000E+00  0.00000000000E+00  0.20090406894E+03  0.22063479827E+03  0.91199064093E+02 0.  0.
          2    1    3    3  502    0  0.14185151037E+00 -0.30176026233E+02  0.18315784324E+03  0.18562706759E+03  0.00000000000E+00 0.  1.
         -2    1    3    3    0  502 -0.14185151037E+00  0.30176026233E+02  0.17746225703E+02  0.35007730686E+02  0.00000000000E+00 0. -1.
<mgrwt>
<rscale>  0 0.91199064E+02</rscale>
<asrwt>0</asrwt>
<pdfrwt beam="2">  1        2 0.15177486E-02 0.91199064E+02</pdfrwt>
<pdfrwt beam="1">  1       -2 0.32426063E-01 0.91199064E+02</pdfrwt>
<totfact> 0.60859115E+04</totfact>
</mgrwt>
</event>
<event>
 5    1  0.4006808E+001  0.9277371E+02  0.7546771E-02  0.1296270E+00
          2   -1    0    0  501    0  0.00000000000E+00  0.00000000000E+00  0.37251144878E+03  0.37251144878E+03  0.00000000000E+00 0. -1.
         -2   -1    0    0    0  501 -0.00000000000E+00 -0.00000000000E+00 -0.57763067924E+01  0.57763067924E+01  0.00000000000E+00 0.  1.
         23    2    1    2    0    0  0.00000000000E+00  0.00000000000E+00  0.36673514199E+03  0.37828775557E+03  0.92773712049E+02 0.  0.
          2    1    3    3  502    0 -0.21456679912E+02  0.14929479945E+02  0.33962069029E+03  0.34062514845E+03  0.00000000000E+00 0. -1.
         -2    1    3    3    0  502  0.21456679912E+02 -0.14929479945E+02  0.27114451697E+02  0.37662607120E+02  0.00000000000E+00 0.  1.
<mgrwt>
<rscale>  0 0.92773712E+02</rscale>
<asrwt>0</asrwt>
<pdfrwt beam="1">  1        2 0.57309435E-01 0.92773712E+02</pdfrwt>
<pdfrwt beam="2">  1       -2 0.88866288E-03 0.92773712E+02</pdfrwt>
<totfact> 0.18577468E+05</totfact>
</mgrwt>
</event>
<event>
 5    1  0.4006808E+001  0.9154224E+02  0.7546771E-02  0.1299159E+00
         -2   -1    0    0    0  501 -0.00000000000E+00  0.00000000000E+00  0.14167051241E+01  0.14167051241E+01  0.00000000000E+00 0.  1.
          2   -1    0    0  501    0  0.00000000000E+00 -0.00000000000E+00 -0.14787801460E+04  0.14787801460E+04  0.00000000000E+00 0. -1.
         23    2    1    2    0    0  0.00000000000E+00  0.00000000000E+00 -0.14773634409E+04  0.14801968511E+04  0.91542239656E+02 0.  0.
          2    1    3    3  502    0  0.38285442868E+02 -0.22767380053E+02 -0.56842727359E+03  0.57016988179E+03  0.00000000000E+00 0. -1.
         -2    1    3    3    0  502 -0.38285442868E+02  0.22767380053E+02 -0.90893616728E+03  0.91002696934E+03  0.00000000000E+00 0.  1.
<mgrwt>
<rscale>  0 0.91542240E+02</rscale>
<asrwt>0</asrwt>
<pdfrwt beam="2">  1        2 0.22750466E+00 0.91542240E+02</pdfrwt>
<pdfrwt beam="1">  1       -2 0.21795461E-03 0.91542240E+02</pdfrwt>
<totfact> 0.23471916E+05</totfact>
</mgrwt>
</event>
<event>
 5    1  0.4006808E+001  0.8992355E+02  0.7546771E-02  0.1303037E+00
          1   -1    0    0  501    0  0.00000000000E+00  0.00000000000E+00  0.28690772007E+02  0.28690772007E+02  0.00000000000E+00 0. -1.
         -1   -1    0    0    0  501 -0.00000000000E+00 -0.00000000000E+00 -0.70460324852E+02  0.70460324852E+02  0.00000000000E+00 0.  1.
         23    2    1    2    0    0  0.00000000000E+00  0.00000000000E+00 -0.41769552845E+02  0.99151096859E+02  0.89923547881E+02 0.  0.
          2    1    3    3  502    0 -0.18672367544E+02 -0.21828129436E+02  0.17254190880E+02  0.33508680178E+02  0.00000000000E+00 0. -1.
         -2    1    3    3    0  502  0.18672367544E+02  0.21828129436E+02 -0.59023743725E+02  0.65642416681E+02  0.00000000000E+00 0.  1.
<mgrwt>
<rscale>  0 0.89923548E+02</rscale>
<asrwt>0</asrwt>
<pdfrwt beam="1">  1        1 0.44139650E-02 0.89923548E+02</pdfrwt>
<pdfrwt beam="2">  1       -1 0.10840050E-01 0.89923548E+02</pdfrwt>
<totfact> 0.89550010E+04</totfact>
</mgrwt>
</event>
<event>
 5    1  0.4006808E+001  0.9184459E+02  0.7546771E-02  0.1298445E+00
         -2   -1    0    0    0  501 -0.00000000000E+00  0.00000000000E+00  0.29511957870E+03  0.29511957870E+03  0.00000000000E+00 0.  1.
          2   -1    0    0  501    0  0.00000000000E+00 -0.00000000000E+00 -0.71457715779E+01  0.71457715779E+01  0.00000000000E+00 0. -1.
         23    2    1    2    0    0  0.00000000000E+00  0.00000000000E+00  0.28797380712E+03  0.30226535028E+03  0.91844588247E+02 0.  0.
          2    1    3    3  502    0 -0.24274753546E+02  0.10017541930E+02  0.20003639435E+02  0.33011519151E+02  0.00000000000E+00 0. -1.
         -2    1    3    3    0  502  0.24274753546E+02 -0.10017541930E+02  0.26797016769E+03  0.26925383113E+03  0.00000000000E+00 0.  1.
<mgrwt>
<rscale>  0 0.91844588E+02</rscale>
<asrwt>0</asrwt>
<pdfrwt beam="2">  1        2 0.10993497E-02 0.91844588E+02</pdfrwt>
<pdfrwt beam="1">  1       -2 0.45403003E-01 0.91844588E+02</pdfrwt>
<totfact> 0.50512563E+04</totfact>
</mgrwt>
</event>
<event>
 5    1  0.4006808E+001  0.9143017E+02  0.7546771E-02  0.1299425E+00
          2   -1    0    0  501    0  0.00000000000E+00  0.00000000000E+00  0.24920323934E+02  0.24920323934E+02  0.00000000000E+00 0. -1.
         -2   -1    0    0    0  501 -0.00000000000E+00 -0.00000000000E+00 -0.83862034199E+02  0.83862034199E+02  0.00000000000E+00 0.  1.
         23    2    1    2    0    0  0.00000000000E+00  0.00000000000E+00 -0.58941710266E+02  0.10878235813E+03  0.91430171343E+02 0.  0.
          2    1    3    3  502    0  0.37344711378E+02 -0.26359662152E+02 -0.30232505404E+02  0.54803865189E+02  0.00000000000E+00 0. -1.
         -2    1    3    3    0  502 -0.37344711378E+02  0.26359662152E+02 -0.28709204861E+02  0.53978492943E+02  0.00000000000E+00 0.  1.
<mgrwt>
<rscale>  0 0.91430171E+02</rscale>
<asrwt>0</asrwt>
<pdfrwt beam="1">  1        2 0.38338960E-02 0.91430171E+02</pdfrwt>
<pdfrwt beam="2">  1       -2 0.12901851E-01 0.91430171E+02</pdfrwt>
<totfact> 0.83397963E+04</totfact>
</mgrwt>
</event>
<event>
 5    1  0.4006808E+001  0.8999866E+02  0.7546771E-02  0.1302855E+00
         -2   -1    0    0    0  501 -0.00000000000E+00  0.00000000000E+00  0.26807429165E+01  0.26807429165E+01  0.00000000000E+00 0. -1.
          2   -1    0    0  501    0  0.00000000000E+00 -0.00000000000E+00 -0.75536513907E+03  0.75536513907E+03  0.00000000000E+00 0.  1.
         23    2    1    2    0    0  0.00000000000E+00  0.00000000000E+00 -0.75268439615E+03  0.75804588199E+03  0.89998661010E+02 0.  0.
          2    1    3    3  502    0 -0.28259534213E+02 -0.27565295008E+02 -0.55826284951E+03  0.55965690910E+03  0.00000000000E+00 0.  1.
         -2    1    3    3    0  502  0.28259534213E+02  0.27565295008E+02 -0.19442154664E+03  0.19838897288E+03  0.00000000000E+00 0. -1.
<mgrwt>
<rscale>  0 0.89998661E+02</rscale>
<asrwt>0</asrwt>
<pdfrwt beam="2">  1        2 0.11621000E+00 0.89998661E+02</pdfrwt>
<pdfrwt beam="1">  1       -2 0.41242206E-03 0.89998661E+02</pdfrwt>
<totfact> 0.24951157E+05</totfact>
</mgrwt>
</event>
<event>
 5    1  0.4006808E+001  0.8916329E+02  0.7546771E-02  0.1304891E+00
         -2   -1    0    0    0  501 -0.00000000000E+00  0.00000000000E+00  0.12762512257E+02  0.12762512257E+02  0.00000000000E+00 0.  1.
          2   -1    0    0  501    0  0.00000000000E+00 -0.00000000000E+00 -0.15573132417E+03  0.15573132417E+03  0.00000000000E+00 0. -1.
         23    2    1    2    0    0  0.00000000000E+00  0.00000000000E+00 -0.14296881192E+03  0.16849383643E+03  0.89163286918E+02 0.  0.
          2    1    3    3  502    0  0.21269564580E+02 -0.38879214189E+02 -0.62316768077E+02  0.76468079987E+02  0.00000000000E+00 0. -1.
         -2    1    3    3    0  502 -0.21269564580E+02  0.38879214189E+02 -0.80652043842E+02  0.92025756445E+02  0.00000000000E+00 0.  1.
<mgrwt>
<rscale>  0 0.89163287E+02</rscale>
<asrwt>0</asrwt>
<pdfrwt beam="2">  1        2 0.23958664E-01 0.89163287E+02</pdfrwt>
<pdfrwt beam="1">  1       -2 0.19634635E-02 0.89163287E+02</pdfrwt>
<totfact> 0.15043083E+05</totfact>
</mgrwt>
</event>
<event>
 5    1  0.4006808E+001  0.9147508E+02  0.7546771E-02  0.1299318E+00
          2   -1    0    0  501    0  0.00000000000E+00  0.00000000000E+00  0.62964237684E+03  0.62964237684E+03  0.00000000000E+00 0.  1.
         -2   -1    0    0    0  501 -0.00000000000E+00 -0.00000000000E+00 -0.33223976254E+01  0.33223976254E+01  0.00000000000E+00 0. -1.
         23    2    1    2    0    0  0.00000000000E+00  0.00000000000E+00  0.62631997922E+03  0.63296477447E+03  0.91475075024E+02 0.  0.
          2    1    3    3  502    0 -0.35618833512E+02 -0.28675478723E+02  0.30645854854E+03  0.30985129716E+03  0.00000000000E+00 0. -1.
         -2    1    3    3    0  502  0.35618833512E+02  0.28675478723E+02  0.31986143068E+03  0.32311347730E+03  0.00000000000E+00 0.  1.
<mgrwt>
<rscale>  0 0.91475075E+02</rscale>
<asrwt>0</asrwt>
<pdfrwt beam="1">  1        2 0.96867963E-01 0.91475075E+02</pdfrwt>
<pdfrwt beam="2">  1       -2 0.51113860E-03 0.91475075E+02</pdfrwt>
<totfact> 0.22892334E+05</totfact>
</mgrwt>
</event>
<event>
 5    1  0.4006808E+001  0.9359640E+02  0.7546771E-02  0.1294369E+00
         -3   -1    0    0    0  501 -0.00000000000E+00  0.00000000000E+00  0.13012424524E+01  0.13012424524E+01  0.00000000000E+00 0.  1.
          3   -1    0    0  501    0  0.00000000000E+00 -0.00000000000E+00 -0.16830617804E+04  0.16830617804E+04  0.00000000000E+00 0. -1.
         23    2    1    2    0    0  0.00000000000E+00  0.00000000000E+00 -0.16817605380E+04  0.16843630229E+04  0.93596398196E+02 0.  0.
          2    1    3    3  502    0 -0.37825058546E+02 -0.11688859154E+02 -0.12899547959E+04  0.12905621798E+04  0.00000000000E+00 0. -1.
         -2    1    3    3    0  502  0.37825058546E+02  0.11688859154E+02 -0.39180574214E+03  0.39380084314E+03  0.00000000000E+00 0.  1.
<mgrwt>
<rscale>  0 0.93596398E+02</rscale>
<asrwt>0</asrwt>
<pdfrwt beam="2">  1        3 0.25893214E+00 0.93596398E+02</pdfrwt>
<pdfrwt beam="1">  1       -3 0.20019149E-03 0.93596398E+02</pdfrwt>
<totfact> 0.47461306E+03</totfact>
</mgrwt>
</event>
<event>
 5    1  0.4006808E+001  0.9048597E+02  0.7546771E-02  0.1301679E+00
          1   -1    0    0  501    0  0.00000000000E+00  0.00000000000E+00  0.50483304501E+03  0.50483304501E+03  0.00000000000E+00 0. -1.
         -1   -1    0    0    0  501 -0.00000000000E+00 -0.00000000000E+00 -0.40546625317E+01  0.40546625317E+01  0.00000000000E+00 0.  1.
         23    2    1    2    0    0  0.00000000000E+00  0.00000000000E+00  0.50077838248E+03  0.50888770754E+03  0.90485968689E+02 0.  0.
          2    1    3    3  502    0 -0.37578288110E+02 -0.11710518772E+02  0.12492821040E+03  0.13098214283E+03  0.00000000000E+00 0.  1.
         -2    1    3    3    0  502  0.37578288110E+02  0.11710518772E+02  0.37585017208E+03  0.37790556471E+03  0.00000000000E+00 0. -1.
<mgrwt>
<rscale>  0 0.90485969E+02</rscale>
<asrwt>0</asrwt>
<pdfrwt beam="1">  1        1 0.77666572E-01 0.90485969E+02</pdfrwt>
<pdfrwt beam="2">  1       -1 0.62379464E-03 0.90485969E+02</pdfrwt>
<totfact> 0.14225825E+05</totfact>
</mgrwt>
</event>
<event>
 5    1  0.4006808E+001  0.9146990E+02  0.7546771E-02  0.1299331E+00
          1   -1    0    0  501    0  0.00000000000E+00  0.00000000000E+00  0.64618834144E+02  0.64618834144E+02  0.00000000000E+00 0. -1.
         -1   -1    0    0    0  501 -0.00000000000E+00 -0.00000000000E+00 -0.32369597755E+02  0.32369597755E+02  0.00000000000E+00 0.  1.
         23    2    1    2    0    0  0.00000000000E+00  0.00000000000E+00  0.32249236389E+02  0.96988431900E+02  0.91469900376E+02 0.  0.
          2    1    3    3  502    0 -0.31632383756E+02  0.29291161809E+02  0.32313553125E+02  0.53877134090E+02  0.00000000000E+00 0. -1.
         -2    1    3    3    0  502  0.31632383756E+02 -0.29291161809E+02 -0.64316735759E-01  0.43111297810E+02  0.00000000000E+00 0.  1.
<mgrwt>
<rscale>  0 0.91469900E+02</rscale>
<asrwt>0</asrwt>
<pdfrwt beam="1">  1        1 0.99413590E-02 0.91469900E+02</pdfrwt>
<pdfrwt beam="2">  1       -1 0.49799381E-02 0.91469900E+02</pdfrwt>
<totfact> 0.96601027E+04</totfact>
</mgrwt>
</event>
<event>
 5    1  0.4006808E+001  0.9099689E+02  0.7546771E-02  0.1300455E+00
          2   -1    0    0  501    0  0.00000000000E+00  0.00000000000E+00  0.19534075031E+03  0.19534075031E+03  0.00000000000E+00 0.  1.
         -2   -1    0    0    0  501 -0.00000000000E+00 -0.00000000000E+00 -0.10597423329E+02  0.10597423329E+02  0.00000000000E+00 0. -1.
         23    2    1    2    0    0  0.00000000000E+00  0.00000000000E+00  0.18474332699E+03  0.20593817364E+03  0.90996892791E+02 0.  0.
          2    1    3    3  502    0 -0.24690581806E+02  0.37302373442E+02  0.11117294636E+03  0.11983536997E+03  0.00000000000E+00 0.  1.
         -2    1    3    3    0  502  0.24690581806E+02 -0.37302373442E+02  0.73570380626E+02  0.86102803670E+02  0.00000000000E+00 0. -1.
<mgrwt>
<rscale>  0 0.90996893E+02</rscale>
<asrwt>0</asrwt>
<pdfrwt beam="1">  1        2 0.30052420E-01 0.90996893E+02</pdfrwt>
<pdfrwt beam="2">  1       -2 0.16303730E-02 0.90996893E+02</pdfrwt>
<totfact> 0.15418788E+05</totfact>
</mgrwt>
</event>
<event>
 5    1  0.4006808E+001  0.9102191E+02  0.7546771E-02  0.1300396E+00
         -4   -1    0    0    0  501 -0.00000000000E+00  0.00000000000E+00  0.25877302749E+02  0.25877302749E+02  0.00000000000E+00 0. -1.
          4   -1    0    0  501    0  0.00000000000E+00 -0.00000000000E+00 -0.80041074942E+02  0.80041074942E+02  0.00000000000E+00 0.  1.
         23    2    1    2    0    0  0.00000000000E+00  0.00000000000E+00 -0.54163772193E+02  0.10591837769E+03  0.91021912277E+02 0.  0.
          2    1    3    3  502    0 -0.44816676536E+02 -0.33909041242E+01 -0.35409516047E+02  0.57217711883E+02  0.00000000000E+00 0. -1.
         -2    1    3    3    0  502  0.44816676536E+02  0.33909041242E+01 -0.18754256146E+02  0.48700665808E+02  0.00000000000E+00 0.  1.
<mgrwt>
<rscale>  0 0.91021912E+02</rscale>
<asrwt>0</asrwt>
<pdfrwt beam="2">  1        4 0.12314011E-01 0.91021912E+02</pdfrwt>
<pdfrwt beam="1">  1       -4 0.39811235E-02 0.91021912E+02</pdfrwt>
<totfact> 0.26217375E+04</totfact>
</mgrwt>
</event>
<event>
 5    1  0.4006808E+001  0.8973523E+02  0.7546771E-02  0.1303494E+00
          2   -1    0    0  501    0  0.00000000000E+00  0.00000000000E+00  0.74599394097E+02  0.74599394097E+02  0.00000000000E+00 0.  1.
         -2   -1    0    0    0  501 -0.00000000000E+00 -0.00000000000E+00 -0.26985512773E+02  0.26985512773E+02  0.00000000000E+00 0. -1.
         23    2    1    2    0    0  0.00000000000E+00  0.00000000000E+00  0.47613881324E+02  0.10158490687E+03  0.89735230590E+02 0.  0.
          2    1    3    3  502    0  0.38618090677E+02 -0.11444327813E+02  0.14285596070E+01  0.40303478128E+02  0.00000000000E+00 0. -1.
         -2    1    3    3    0  502 -0.38618090677E+02  0.11444327813E+02  0.46185321717E+02  0.61281428743E+02  0.00000000000E+00 0.  1.
<mgrwt>
<rscale>  0 0.89735231E+02</rscale>
<asrwt>0</asrwt>
<pdfrwt beam="1">  1        2 0.11476830E-01 0.89735231E+02</pdfrwt>
<pdfrwt beam="2">  1       -2 0.41516174E-02 0.89735231E+02</pdfrwt>
<totfact> 0.11770832E+05</totfact>
</mgrwt>
</event>
<event>
 5    1  0.4006808E+001  0.9120220E+02  0.7546771E-02  0.1299966E+00
         -1   -1    0    0    0  501 -0.00000000000E+00  0.00000000000E+00  0.65344485931E+02  0.65344485931E+02  0.00000000000E+00 0.  1.
          1   -1    0    0  501    0  0.00000000000E+00 -0.00000000000E+00 -0.31823042601E+02  0.31823042601E+02  0.00000000000E+00 0. -1.
         23    2    1    2    0    0  0.00000000000E+00  0.00000000000E+00  0.33521443330E+02  0.97167528531E+02  0.91202200840E+02 0.  0.
          2    1    3    3  502    0 -0.22968709555E+02 -0.37135160169E+02  0.27523878715E+01  0.43751084311E+02  0.00000000000E+00 0. -1.
         -2    1    3    3    0  502  0.22968709555E+02  0.37135160169E+02  0.30769055458E+02  0.53416444221E+02  0.00000000000E+00 0.  1.
<mgrwt>
<rscale>  0 0.91202201E+02</rscale>
<asrwt>0</asrwt>
<pdfrwt beam="2">  1        1 0.48958527E-02 0.91202201E+02</pdfrwt>
<pdfrwt beam="1">  1       -1 0.10052998E-01 0.91202201E+02</pdfrwt>
<totfact> 0.87436942E+04</totfact>
</mgrwt>
</event>
<event>
 5    1  0.4006808E+001  0.9005178E+02  0.7546771E-02  0.1302726E+00
          4   -1    0    0  501    0  0.00000000000E+00  0.00000000000E+00  0.12595829465E+02  0.12595829465E+02  0.00000000000E+00 0. -1.
         -4   -1    0    0    0  501 -0.00000000000E+00 -0.00000000000E+00 -0.16095254768E+03  0.16095254768E+03  0.00000000000E+00 0.  1.
         23    2    1    2    0    0  0.00000000000E+00  0.00000000000E+00 -0.14835671822E+03  0.17354837715E+03  0.90051781604E+02 0.  0.
          2    1    3    3  502    0  0.27066601956E+02 -0.28416163020E+02 -0.31637635225E+02  0.50408523335E+02  0.00000000000E+00 0. -1.
         -2    1    3    3    0  502 -0.27066601956E+02  0.28416163020E+02 -0.11671908299E+03  0.12313985381E+03  0.00000000000E+00 0.  1.
<mgrwt>
<rscale>  0 0.90051782E+02</rscale>
<asrwt>0</asrwt>
<pdfrwt beam="1">  1        4 0.19378201E-02 0.90051782E+02</pdfrwt>
<pdfrwt beam="2">  1       -4 0.24761929E-01 0.90051782E+02</pdfrwt>
<totfact> 0.23305748E+04</totfact>
</mgrwt>
</event>
<event>
 5    1  0.4006808E+001  0.9238431E+02  0.7546771E-02  0.1297178E+00
         -1   -1    0    0    0  501 -0.00000000000E+00  0.00000000000E+00  0.17558150493E+02  0.17558150493E+02  0.00000000000E+00 0.  1.
          1   -1    0    0  501    0  0.00000000000E+00 -0.00000000000E+00 -0.12152276893E+03  0.12152276893E+03  0.00000000000E+00 0. -1.
         23    2    1    2    0    0  0.00000000000E+00  0.00000000000E+00 -0.10396461844E+03  0.13908091943E+03  0.92384307439E+02 0.  0.
          2    1    3    3  502    0 -0.28491111726E+00  0.29233829791E+02 -0.10582261512E+03  0.10978671983E+03  0.00000000000E+00 0. -1.
         -2    1    3    3    0  502  0.28491111726E+00 -0.29233829791E+02  0.18579966819E+01  0.29294199601E+02  0.00000000000E+00 0.  1.
<mgrwt>
<rscale>  0 0.92384307E+02</rscale>
<asrwt>0</asrwt>
<pdfrwt beam="2">  1        1 0.18695810E-01 0.92384307E+02</pdfrwt>
<pdfrwt beam="1">  1       -1 0.27012540E-02 0.92384307E+02</pdfrwt>
<totfact> 0.10418554E+05</totfact>
</mgrwt>
</event>
<event>
 5    1  0.4006808E+001  0.9732140E+02  0.7546771E-02  0.1286032E+00
         -2   -1    0    0    0  501 -0.00000000000E+00  0.00000000000E+00  0.20143145092E+02  0.20143145092E+02  0.00000000000E+00 0.  1.
          2   -1    0    0  501    0  0.00000000000E+00 -0.00000000000E+00 -0.11755184786E+03  0.11755184786E+03  0.00000000000E+00 0. -1.
         23    2    1    2    0    0  0.00000000000E+00  0.00000000000E+00 -0.97408702773E+02  0.13769499296E+03  0.97321404168E+02 0.  0.
          2    1    3    3  502    0  0.56968458855E+01 -0.46956908211E+02 -0.64864532149E+02  0.80279591508E+02  0.00000000000E+00 0. -1.
         -2    1    3    3    0  502 -0.56968458855E+01  0.46956908211E+02 -0.32544170624E+02  0.57415401448E+02  0.00000000000E+00 0.  1.
<mgrwt>
<rscale>  0 0.97321404E+02</rscale>
<asrwt>0</asrwt>
<pdfrwt beam="2">  1        2 0.18084900E-01 0.97321404E+02</pdfrwt>
<pdfrwt beam="1">  1       -2 0.30989454E-02 0.97321404E+02</pdfrwt>
<totfact> 0.10782519E+05</totfact>
</mgrwt>
</event>
