<event>
 4    1  0.3973261E+000  0.2103460E+03  0.7546771E-02  0.1141292E+00
         21   -1    0    0  503  502  0.00000000000E+00  0.00000000000E+00  0.35290494915E+02  0.35290494915E+02  0.00000000000E+00 0.  1.
         21   -1    0    0  501  503 -0.00000000000E+00 -0.00000000000E+00 -0.19524756506E+04  0.19524756506E+04  0.00000000000E+00 0.  1.
          6    1    1    2  501    0  0.10869154644E+03  0.50025769946E+02 -0.15531531027E+04  0.15673321251E+04  0.17300000000E+03 0.  1.
         -6    1    1    2    0  502 -0.10869154644E+03 -0.50025769946E+02 -0.36403205298E+03  0.42043402042E+03  0.17300000000E+03 0.  1.
<mgrwt>
<rscale>  2 0.21034598E+03</rscale>
<asrwt>0</asrwt>
<pdfrwt beam="1">  1       21 0.54293072E-02 0.21034598E+03</pdfrwt>
<pdfrwt beam="2">  1       21 0.30038085E+00 0.21034598E+03</pdfrwt>
<totfact> 0.77942005E+03</totfact>
</mgrwt>
</event>
<event>
 4    1  0.3973261E+000  0.1785437E+03  0.7546771E-02  0.1169220E+00
         21   -1    0    0  501  502  0.00000000000E+00  0.00000000000E+00  0.49368334932E+03  0.49368334932E+03  0.00000000000E+00 0. -1.
         21   -1    0    0  502  503 -0.00000000000E+00 -0.00000000000E+00 -0.71361787135E+02  0.71361787135E+02  0.00000000000E+00 0. -1.
          6    1    1    2  501    0  0.32181765204E+02  0.30219156875E+02  0.29831031420E+03  0.34765918226E+03  0.17300000000E+03 0. -1.
         -6    1    1    2    0  503 -0.32181765204E+02 -0.30219156875E+02  0.12401124799E+03  0.21738595420E+03  0.17300000000E+03 0. -1.
<mgrwt>
<rscale>  2 0.17854373E+03</rscale>
<asrwt>0</asrwt>
<pdfrwt beam="1">  1       21 0.75951282E-01 0.17854373E+03</pdfrwt>
<pdfrwt beam="2">  1       21 0.10978737E-01 0.17854373E+03</pdfrwt>
<totfact> 0.10687805E+05</totfact>
</mgrwt>
</event>
<event>
 4    1  0.3973261E+000  0.1835917E+03  0.7546771E-02  0.1164372E+00
         21   -1    0    0  501  502  0.00000000000E+00  0.00000000000E+00  0.15844136968E+03  0.15844136968E+03  0.00000000000E+00 0.  1.
         21   -1    0    0  502  503 -0.00000000000E+00 -0.00000000000E+00 -0.26651002478E+03  0.26651002478E+03  0.00000000000E+00 0.  1.
          6    1    1    2  501    0  0.10453894283E+02  0.60561013853E+02  0.41408975426E+02  0.18820367571E+03  0.17300000000E+03 0.  1.
         -6    1    1    2    0  503 -0.10453894283E+02 -0.60561013853E+02 -0.14947763053E+03  0.23674771875E+03  0.17300000000E+03 0.  1.
<mgrwt>
<rscale>  2 0.18359172E+03</rscale>
<asrwt>0</asrwt>
<pdfrwt beam="1">  1       21 0.24375596E-01 0.18359172E+03</pdfrwt>
<pdfrwt beam="2">  1       21 0.41001541E-01 0.18359172E+03</pdfrwt>
<totfact> 0.91389719E+04</totfact>
</mgrwt>
</event>
<event>
 4    1  0.3973261E+000  0.2589619E+03  0.7546771E-02  0.1107769E+00
         21   -1    0    0  503  502  0.00000000000E+00  0.00000000000E+00  0.85371349791E+03  0.85371349791E+03  0.00000000000E+00 0. -1.
         21   -1    0    0  501  503 -0.00000000000E+00 -0.00000000000E+00 -0.82382223283E+02  0.82382223283E+02  0.00000000000E+00 0. -1.
          6    1    1    2  501    0  0.15150963733E+03  0.11906762292E+03  0.28474935876E+03  0.38489409758E+03  0.17300000000E+03 0. -1.
         -6    1    1    2    0  502 -0.15150963733E+03 -0.11906762292E+03  0.48658191586E+03  0.55120162362E+03  0.17300000000E+03 0. -1.
<mgrwt>
<rscale>  2 0.25896191E+03</rscale>
<asrwt>0</asrwt>
<pdfrwt beam="1">  1       21 0.13134053E+00 0.25896191E+03</pdfrwt>
<pdfrwt beam="2">  1       21 0.12674189E-01 0.25896191E+03</pdfrwt>
<totfact> 0.21576835E+04</totfact>
</mgrwt>
</event>
<event>
 4    1  0.3973261E+000  0.1816093E+03  0.7546771E-02  0.1166255E+00
         21   -1    0    0  503  502  0.00000000000E+00  0.00000000000E+00  0.13510343557E+03  0.13510343557E+03  0.00000000000E+00 0.  1.
         21   -1    0    0  501  503 -0.00000000000E+00 -0.00000000000E+00 -0.67114681030E+03  0.67114681030E+03  0.00000000000E+00 0.  1.
          6    1    1    2  501    0 -0.47945623814E+02  0.27461642117E+02 -0.58957788650E+03  0.61691491218E+03  0.17300000000E+03 0.  1.
         -6    1    1    2    0  502  0.47945623814E+02 -0.27461642117E+02  0.53534511774E+02  0.18933533368E+03  0.17300000000E+03 0.  1.
<mgrwt>
<rscale>  2 0.18160926E+03</rscale>
<asrwt>0</asrwt>
<pdfrwt beam="1">  1       21 0.20785144E-01 0.18160926E+03</pdfrwt>
<pdfrwt beam="2">  1       21 0.10325335E+00 0.18160926E+03</pdfrwt>
<totfact> 0.16453206E+04</totfact>
</mgrwt>
</event>
<event>
 4    1  0.3973261E+000  0.2181276E+03  0.7546771E-02  0.1135287E+00
         21   -1    0    0  501  502  0.00000000000E+00  0.00000000000E+00  0.24228504148E+03  0.24228504148E+03  0.00000000000E+00 0.  1.
         21   -1    0    0  502  503 -0.00000000000E+00 -0.00000000000E+00 -0.22188938620E+03  0.22188938620E+03  0.00000000000E+00 0.  1.
          6    1    1    2  501    0 -0.82159148932E+02 -0.10440554943E+03  0.88892115897E+02  0.23554501220E+03  0.17300000000E+03 0.  1.
         -6    1    1    2    0  503  0.82159148932E+02  0.10440554943E+03 -0.68496460614E+02  0.22862941548E+03  0.17300000000E+03 0.  1.
<mgrwt>
<rscale>  2 0.21812759E+03</rscale>
<asrwt>0</asrwt>
<pdfrwt beam="1">  1       21 0.37274622E-01 0.21812759E+03</pdfrwt>
<pdfrwt beam="2">  1       21 0.34136829E-01 0.21812759E+03</pdfrwt>
<totfact> 0.56727989E+04</totfact>
</mgrwt>
</event>
<event>
 4    1  0.3973261E+000  0.2011413E+03  0.7546771E-02  0.1148780E+00
         21   -1    0    0  501  502  0.00000000000E+00  0.00000000000E+00  0.19316501919E+03  0.19316501919E+03  0.00000000000E+00 0. -1.
         21   -1    0    0  502  503 -0.00000000000E+00 -0.00000000000E+00 -0.73516582319E+03  0.73516582319E+03  0.00000000000E+00 0.  1.
          6    1    1    2  501    0  0.15350670331E+02  0.10145538578E+03  0.12151516280E+03  0.23499738971E+03  0.17300000000E+03 0. -1.
         -6    1    1    2    0  503 -0.15350670331E+02 -0.10145538578E+03 -0.66351596680E+03  0.69333345266E+03  0.17300000000E+03 0.  1.
<mgrwt>
<rscale>  2 0.20114134E+03</rscale>
<asrwt>0</asrwt>
<pdfrwt beam="1">  1       21 0.29717696E-01 0.20114134E+03</pdfrwt>
<pdfrwt beam="2">  1       21 0.11310243E+00 0.20114134E+03</pdfrwt>
<totfact> 0.65834629E+03</totfact>
</mgrwt>
</event>
<event>
 4    1  0.3973261E+000  0.1817376E+03  0.7546771E-02  0.1166132E+00
         21   -1    0    0  503  502  0.00000000000E+00  0.00000000000E+00  0.46180366142E+02  0.46180366142E+02  0.00000000000E+00 0.  1.
         21   -1    0    0  501  503 -0.00000000000E+00 -0.00000000000E+00 -0.80170647703E+03  0.80170647703E+03  0.00000000000E+00 0.  1.
          6    1    1    2  501    0  0.44368193214E+02  0.33630801639E+02 -0.51701601389E+03  0.54802748654E+03  0.17300000000E+03 0.  1.
         -6    1    1    2    0  502 -0.44368193214E+02 -0.33630801639E+02 -0.23851009700E+03  0.29985935663E+03  0.17300000000E+03 0.  1.
<mgrwt>
<rscale>  2 0.18173763E+03</rscale>
<asrwt>0</asrwt>
<pdfrwt beam="1">  1       21 0.71046726E-02 0.18173763E+03</pdfrwt>
<pdfrwt beam="2">  1       21 0.12333944E+00 0.18173763E+03</pdfrwt>
<totfact> 0.73098861E+04</totfact>
</mgrwt>
</event>
<event>
 4    1  0.3973261E+000  0.1756302E+03  0.7546771E-02  0.1172100E+00
         21   -1    0    0  503  502  0.00000000000E+00  0.00000000000E+00  0.33358749324E+03  0.33358749324E+03  0.00000000000E+00 0. -1.
         21   -1    0    0  501  503 -0.00000000000E+00 -0.00000000000E+00 -0.28086576116E+03  0.28086576116E+03  0.00000000000E+00 0. -1.
          6    1    1    2  501    0 -0.28711718964E+01 -0.30145327638E+02 -0.22526075585E+03  0.28563681929E+03  0.17300000000E+03 0. -1.
         -6    1    1    2    0  502  0.28711718964E+01  0.30145327638E+02  0.27798248793E+03  0.32881643511E+03  0.17300000000E+03 0. -1.
<mgrwt>
<rscale>  2 0.17563025E+03</rscale>
<asrwt>0</asrwt>
<pdfrwt beam="1">  1       21 0.51321153E-01 0.17563025E+03</pdfrwt>
<pdfrwt beam="2">  1       21 0.43210117E-01 0.17563025E+03</pdfrwt>
<totfact> 0.18774951E+04</totfact>
</mgrwt>
</event>
<event>
 4    1  0.3973261E+000  0.1870315E+03  0.7546771E-02  0.1161166E+00
         21   -1    0    0  503  502  0.00000000000E+00  0.00000000000E+00  0.61269958941E+02  0.61269958941E+02  0.00000000000E+00 0. -1.
         21   -1    0    0  501  503 -0.00000000000E+00 -0.00000000000E+00 -0.83080091116E+03  0.83080091116E+03  0.00000000000E+00 0. -1.
          6    1    1    2  501    0 -0.31526765199E+02  0.63701323518E+02 -0.63422527162E+03  0.66122801718E+03  0.17300000000E+03 0. -1.
         -6    1    1    2    0  502  0.31526765199E+02 -0.63701323518E+02 -0.13530568059E+03  0.23084285292E+03  0.17300000000E+03 0. -1.
<mgrwt>
<rscale>  2 0.18703154E+03</rscale>
<asrwt>0</asrwt>
<pdfrwt beam="1">  1       21 0.94261485E-02 0.18703154E+03</pdfrwt>
<pdfrwt beam="2">  1       21 0.12781551E+00 0.18703154E+03</pdfrwt>
<totfact> 0.40750693E+04</totfact>
</mgrwt>
</event>
<event>
 4    1  0.3973261E+000  0.1755208E+03  0.7546771E-02  0.1172210E+00
         21   -1    0    0  501  502  0.00000000000E+00  0.00000000000E+00  0.24380834716E+03  0.24380834716E+03  0.00000000000E+00 0.  1.
         21   -1    0    0  502  503 -0.00000000000E+00 -0.00000000000E+00 -0.18110281096E+03  0.18110281096E+03  0.00000000000E+00 0.  1.
          6    1    1    2  501    0 -0.29324807866E+02  0.43150889568E+01  0.14816008324E+03  0.22969321848E+03  0.17300000000E+03 0.  1.
         -6    1    1    2    0  503  0.29324807866E+02 -0.43150889568E+01 -0.85454547043E+02  0.19521793965E+03  0.17300000000E+03 0.  1.
<mgrwt>
<rscale>  2 0.17552084E+03</rscale>
<asrwt>0</asrwt>
<pdfrwt beam="1">  1       21 0.37508977E-01 0.17552084E+03</pdfrwt>
<pdfrwt beam="2">  1       21 0.27861971E-01 0.17552084E+03</pdfrwt>
<totfact> 0.84900783E+04</totfact>
</mgrwt>
</event>
<event>
 4    1  0.3973261E+000  0.2448351E+03  0.7546771E-02  0.1116613E+00
         21   -1    0    0  503  502  0.00000000000E+00  0.00000000000E+00  0.46798041176E+03  0.46798041176E+03  0.00000000000E+00 0.  1.
         21   -1    0    0  501  503 -0.00000000000E+00 -0.00000000000E+00 -0.27728421556E+03  0.27728421556E+03  0.00000000000E+00 0.  1.
          6    1    1    2  501    0 -0.54632506801E+02 -0.16440962851E+03 -0.17798484987E+03  0.30269265523E+03  0.17300000000E+03 0.  1.
         -6    1    1    2    0  502  0.54632506801E+02  0.16440962851E+03  0.36868104607E+03  0.44257197209E+03  0.17300000000E+03 0.  1.
<mgrwt>
<rscale>  2 0.24483512E+03</rscale>
<asrwt>0</asrwt>
<pdfrwt beam="1">  1       21 0.71996986E-01 0.24483512E+03</pdfrwt>
<pdfrwt beam="2">  1       21 0.42659110E-01 0.24483512E+03</pdfrwt>
<totfact> 0.88990871E+03</totfact>
</mgrwt>
</event>
<event>
 4    1  0.3973261E+000  0.1806091E+03  0.7546771E-02  0.1167215E+00
         21   -1    0    0  503  502  0.00000000000E+00  0.00000000000E+00  0.13458896620E+03  0.13458896620E+03  0.00000000000E+00 0. -1.
         21   -1    0    0  501  503 -0.00000000000E+00 -0.00000000000E+00 -0.46604769757E+03  0.46604769757E+03  0.00000000000E+00 0. -1.
          6    1    1    2  501    0 -0.46016269038E+02  0.23940883138E+02 -0.37378658839E+03  0.41513380561E+03  0.17300000000E+03 0. -1.
         -6    1    1    2    0  502  0.46016269038E+02 -0.23940883138E+02  0.42327857024E+02  0.18550285815E+03  0.17300000000E+03 0. -1.
<mgrwt>
<rscale>  2 0.18060914E+03</rscale>
<asrwt>0</asrwt>
<pdfrwt beam="1">  1       21 0.20705995E-01 0.18060914E+03</pdfrwt>
<pdfrwt beam="2">  1       21 0.71699645E-01 0.18060914E+03</pdfrwt>
<totfact> 0.38249753E+04</totfact>
</mgrwt>
</event>
<event>
 4    1  0.3973261E+000  0.2003686E+03  0.7546771E-02  0.1149428E+00
         21   -1    0    0  503  502  0.00000000000E+00  0.00000000000E+00  0.52920782360E+03  0.52920782360E+03  0.00000000000E+00 0. -1.
         21   -1    0    0  501  503 -0.00000000000E+00 -0.00000000000E+00 -0.33449756903E+03  0.33449756903E+03  0.00000000000E+00 0.  1.
          6    1    1    2  501    0 -0.86454865232E+02  0.52384373606E+02 -0.28238107715E+03  0.34624650042E+03  0.17300000000E+03 0.  1.
         -6    1    1    2    0  502  0.86454865232E+02 -0.52384373606E+02  0.47709133172E+03  0.51745889221E+03  0.17300000000E+03 0. -1.
<mgrwt>
<rscale>  2 0.20036858E+03</rscale>
<asrwt>0</asrwt>
<pdfrwt beam="1">  1       21 0.81416588E-01 0.20036858E+03</pdfrwt>
<pdfrwt beam="2">  1       21 0.51461165E-01 0.20036858E+03</pdfrwt>
<totfact> 0.47134700E+03</totfact>
</mgrwt>
</event>
<event>
 4    1  0.3973261E+000  0.2061522E+03  0.7546771E-02  0.1144650E+00
         21   -1    0    0  501  502  0.00000000000E+00  0.00000000000E+00  0.15283913397E+03  0.15283913397E+03  0.00000000000E+00 0.  1.
         21   -1    0    0  502  503 -0.00000000000E+00 -0.00000000000E+00 -0.42449329832E+03  0.42449329832E+03  0.00000000000E+00 0. -1.
          6    1    1    2  501    0 -0.10264882254E+03  0.45088159461E+02  0.33715116553E+02  0.20889095714E+03  0.17300000000E+03 0.  1.
         -6    1    1    2    0  503  0.10264882254E+03 -0.45088159461E+02 -0.30536928090E+03  0.36844147515E+03  0.17300000000E+03 0. -1.
<mgrwt>
<rscale>  2 0.20615218E+03</rscale>
<asrwt>0</asrwt>
<pdfrwt beam="1">  1       21 0.23513713E-01 0.20615218E+03</pdfrwt>
<pdfrwt beam="2">  1       21 0.65306661E-01 0.20615218E+03</pdfrwt>
<totfact> 0.36457150E+04</totfact>
</mgrwt>
</event>
<event>
 4    1  0.3973261E+000  0.2640179E+03  0.7546771E-02  0.1104753E+00
         21   -1    0    0  503  502  0.00000000000E+00  0.00000000000E+00  0.17547033159E+03  0.17547033159E+03  0.00000000000E+00 0. -1.
         21   -1    0    0  501  503 -0.00000000000E+00 -0.00000000000E+00 -0.39733373145E+03  0.39733373145E+03  0.00000000000E+00 0.  1.
          6    1    1    2  501    0 -0.20848897752E+02 -0.19834759862E+03 -0.11510945640E+03  0.28802019611E+03  0.17300000000E+03 0.  1.
         -6    1    1    2    0  502  0.20848897752E+02  0.19834759862E+03 -0.10675394346E+03  0.28478386692E+03  0.17300000000E+03 0. -1.
<mgrwt>
<rscale>  2 0.26401789E+03</rscale>
<asrwt>0</asrwt>
<pdfrwt beam="1">  1       21 0.26995436E-01 0.26401789E+03</pdfrwt>
<pdfrwt beam="2">  1       21 0.61128266E-01 0.26401789E+03</pdfrwt>
<totfact> 0.31442827E+04</totfact>
</mgrwt>
</event>
<event>
 4    1  0.3973261E+000  0.1908900E+03  0.7546771E-02  0.1157661E+00
         21   -1    0    0  503  502  0.00000000000E+00  0.00000000000E+00  0.11455898740E+03  0.11455898740E+03  0.00000000000E+00 0. -1.
         21   -1    0    0  501  503 -0.00000000000E+00 -0.00000000000E+00 -0.32392203351E+03  0.32392203351E+03  0.00000000000E+00 0. -1.
          6    1    1    2  501    0 -0.73904016947E+02  0.32375776783E+02 -0.13412297618E+03  0.23329802267E+03  0.17300000000E+03 0. -1.
         -6    1    1    2    0  502  0.73904016947E+02 -0.32375776783E+02 -0.75240069918E+02  0.20518299823E+03  0.17300000000E+03 0. -1.
<mgrwt>
<rscale>  2 0.19089001E+03</rscale>
<asrwt>0</asrwt>
<pdfrwt beam="1">  1       21 0.17624460E-01 0.19089001E+03</pdfrwt>
<pdfrwt beam="2">  1       21 0.49834157E-01 0.19089001E+03</pdfrwt>
<totfact> 0.11207789E+05</totfact>
</mgrwt>
</event>
<event>
 4    1  0.3973261E+000  0.2014305E+03  0.7546771E-02  0.1148538E+00
         21   -1    0    0  501  502  0.00000000000E+00  0.00000000000E+00  0.69445090673E+03  0.69445090673E+03  0.00000000000E+00 0. -1.
         21   -1    0    0  502  503 -0.00000000000E+00 -0.00000000000E+00 -0.58461298401E+02  0.58461298401E+02  0.00000000000E+00 0. -1.
          6    1    1    2  501    0  0.47395420733E+02 -0.91645524832E+02  0.30878975674E+03  0.36868054192E+03  0.17300000000E+03 0. -1.
         -6    1    1    2    0  503 -0.47395420733E+02  0.91645524832E+02  0.32719985159E+03  0.38423166320E+03  0.17300000000E+03 0. -1.
<mgrwt>
<rscale>  2 0.20143045E+03</rscale>
<asrwt>0</asrwt>
<pdfrwt beam="1">  1       21 0.10683860E+00 0.20143045E+03</pdfrwt>
<pdfrwt beam="2">  1       21 0.89940464E-02 0.20143045E+03</pdfrwt>
<totfact> 0.68239407E+04</totfact>
</mgrwt>
</event>
<event>
 4    1  0.3973261E+000  0.1877345E+03  0.7546771E-02  0.1160521E+00
         21   -1    0    0  503  502  0.00000000000E+00  0.00000000000E+00  0.49963610391E+02  0.49963610391E+02  0.00000000000E+00 0.  1.
         21   -1    0    0  501  503 -0.00000000000E+00 -0.00000000000E+00 -0.70623213725E+03  0.70623213725E+03  0.00000000000E+00 0.  1.
          6    1    1    2  501    0 -0.45346326548E+02 -0.57087368613E+02 -0.31514414843E+03  0.36682433300E+03  0.17300000000E+03 0. -1.
         -6    1    1    2    0  502  0.45346326548E+02  0.57087368613E+02 -0.34112437842E+03  0.38937141464E+03  0.17300000000E+03 0. -1.
<mgrwt>
<rscale>  2 0.18773454E+03</rscale>
<asrwt>0</asrwt>
<pdfrwt beam="1">  1       21 0.76867096E-02 0.18773454E+03</pdfrwt>
<pdfrwt beam="2">  1       21 0.10865109E+00 0.18773454E+03</pdfrwt>
<totfact> 0.86741130E+04</totfact>
</mgrwt>
</event>
<event>
 4    1  0.3973261E+000  0.2801105E+03  0.7546771E-02  0.1095629E+00
         21   -1    0    0  503  502  0.00000000000E+00  0.00000000000E+00  0.15951508206E+03  0.15951508206E+03  0.00000000000E+00 0.  1.
         21   -1    0    0  501  503 -0.00000000000E+00 -0.00000000000E+00 -0.85034181304E+03  0.85034181304E+03  0.00000000000E+00 0. -1.
          6    1    1    2  501    0  0.96702037841E+02  0.19794338951E+03 -0.67324893643E+03  0.72919544703E+03  0.17300000000E+03 0. -1.
         -6    1    1    2    0  502 -0.96702037841E+02 -0.19794338951E+03 -0.17577794549E+02  0.28066144807E+03  0.17300000000E+03 0.  1.
<mgrwt>
<rscale>  2 0.28011046E+03</rscale>
<asrwt>0</asrwt>
<pdfrwt beam="1">  1       21 0.24540782E-01 0.28011046E+03</pdfrwt>
<pdfrwt beam="2">  1       21 0.13082182E+00 0.28011046E+03</pdfrwt>
<totfact> 0.62964997E+03</totfact>
</mgrwt>
</event>
<event>
 4    1  0.3973261E+000  0.1942480E+03  0.7546771E-02  0.1154685E+00
         21   -1    0    0  501  502  0.00000000000E+00  0.00000000000E+00  0.12211950482E+03  0.12211950482E+03  0.00000000000E+00 0. -1.
         21   -1    0    0  502  503 -0.00000000000E+00 -0.00000000000E+00 -0.36714826220E+03  0.36714826220E+03  0.00000000000E+00 0.  1.
          6    1    1    2  501    0  0.68060700273E+02 -0.56311876523E+02 -0.25139938083E+02  0.19586807511E+03  0.17300000000E+03 0. -1.
         -6    1    1    2    0  503 -0.68060700273E+02  0.56311876523E+02 -0.21988881930E+03  0.29339969191E+03  0.17300000000E+03 0.  1.
<mgrwt>
<rscale>  2 0.19424800E+03</rscale>
<asrwt>0</asrwt>
<pdfrwt beam="1">  1       21 0.18787616E-01 0.19424800E+03</pdfrwt>
<pdfrwt beam="2">  1       21 0.56484348E-01 0.19424800E+03</pdfrwt>
<totfact> 0.76404460E+04</totfact>
</mgrwt>
</event>
<event>
 4    1  0.3973261E+000  0.1981704E+03  0.7546771E-02  0.1151292E+00
         21   -1    0    0  503  502  0.00000000000E+00  0.00000000000E+00  0.38455388184E+03  0.38455388184E+03  0.00000000000E+00 0. -1.
         21   -1    0    0  501  503 -0.00000000000E+00 -0.00000000000E+00 -0.10240136394E+03  0.10240136394E+03  0.00000000000E+00 0.  1.
          6    1    1    2  501    0  0.56484080231E+02 -0.78434974659E+02  0.15378841981E+03  0.25084332687E+03  0.17300000000E+03 0. -1.
         -6    1    1    2    0  502 -0.56484080231E+02  0.78434974659E+02  0.12836409809E+03  0.23611191890E+03  0.17300000000E+03 0. -1.
<mgrwt>
<rscale>  2 0.19817037E+03</rscale>
<asrwt>0</asrwt>
<pdfrwt beam="1">  1       21 0.59162135E-01 0.19817037E+03</pdfrwt>
<pdfrwt beam="2">  1       21 0.15754056E-01 0.19817037E+03</pdfrwt>
<totfact> 0.95576194E+04</totfact>
</mgrwt>
</event>
<event>
 4    1  0.3973261E+000  0.1801584E+03  0.7546771E-02  0.1167650E+00
         21   -1    0    0  503  502  0.00000000000E+00  0.00000000000E+00  0.38832497082E+03  0.38832497082E+03  0.00000000000E+00 0. -1.
         21   -1    0    0  501  503 -0.00000000000E+00 -0.00000000000E+00 -0.13867748258E+03  0.13867748258E+03  0.00000000000E+00 0. -1.
          6    1    1    2  501    0 -0.40276480530E+02  0.30097327500E+02 -0.41263771761E+02  0.18482354522E+03  0.17300000000E+03 0. -1.
         -6    1    1    2    0  502  0.40276480530E+02 -0.30097327500E+02  0.29091126000E+03  0.34217890818E+03  0.17300000000E+03 0. -1.
<mgrwt>
<rscale>  2 0.18015839E+03</rscale>
<asrwt>0</asrwt>
<pdfrwt beam="1">  1       21 0.59742303E-01 0.18015839E+03</pdfrwt>
<pdfrwt beam="2">  1       21 0.21334997E-01 0.18015839E+03</pdfrwt>
<totfact> 0.53795900E+04</totfact>
</mgrwt>
</event>
<event>
 4    1  0.3973261E+000  0.1932608E+03  0.7546771E-02  0.1155553E+00
         21   -1    0    0  503  502  0.00000000000E+00  0.00000000000E+00  0.31026742247E+03  0.31026742247E+03  0.00000000000E+00 0.  1.
         21   -1    0    0  501  503 -0.00000000000E+00 -0.00000000000E+00 -0.23102271524E+03  0.23102271524E+03  0.00000000000E+00 0.  1.
          6    1    1    2  501    0 -0.56464871127E+02 -0.65057181935E+02 -0.14767684566E+03  0.24322452454E+03  0.17300000000E+03 0.  1.
         -6    1    1    2    0  502  0.56464871127E+02  0.65057181935E+02  0.22692155288E+03  0.29806561317E+03  0.17300000000E+03 0.  1.
<mgrwt>
<rscale>  2 0.19326075E+03</rscale>
<asrwt>0</asrwt>
<pdfrwt beam="1">  1       21 0.47733450E-01 0.19326075E+03</pdfrwt>
<pdfrwt beam="2">  1       21 0.35541956E-01 0.19326075E+03</pdfrwt>
<totfact> 0.32019320E+04</totfact>
</mgrwt>
</event>
<event>
 4    1  0.3973261E+000  0.1904577E+03  0.7546771E-02  0.1158049E+00
         21   -1    0    0  501  502  0.00000000000E+00  0.00000000000E+00  0.43622823487E+03  0.43622823487E+03  0.00000000000E+00 0.  1.
         21   -1    0    0  502  503 -0.00000000000E+00 -0.00000000000E+00 -0.11407348820E+03  0.11407348820E+03  0.00000000000E+00 0.  1.
          6    1    1    2  501    0  0.79002374937E+02  0.10185343747E+02  0.30432741721E+03  0.35901155043E+03  0.17300000000E+03 0.  1.
         -6    1    1    2    0  503 -0.79002374937E+02 -0.10185343747E+02  0.17827329455E+02  0.19129017264E+03  0.17300000000E+03 0.  1.
<mgrwt>
<rscale>  2 0.19045765E+03</rscale>
<asrwt>0</asrwt>
<pdfrwt beam="1">  1       21 0.67112035E-01 0.19045765E+03</pdfrwt>
<pdfrwt beam="2">  1       21 0.17549768E-01 0.19045765E+03</pdfrwt>
<totfact> 0.59860284E+04</totfact>
</mgrwt>
</event>
<event>
 4    1  0.3973261E+000  0.1765117E+03  0.7546771E-02  0.1171222E+00
         21   -1    0    0  501  502  0.00000000000E+00  0.00000000000E+00  0.13130611842E+04  0.13130611842E+04  0.00000000000E+00 0.  1.
         21   -1    0    0  502  503 -0.00000000000E+00 -0.00000000000E+00 -0.25644247525E+02  0.25644247525E+02  0.00000000000E+00 0.  1.
          6    1    1    2  501    0 -0.27655880820E+02  0.21506345655E+02  0.82667898642E+03  0.84531326574E+03  0.17300000000E+03 0.  1.
         -6    1    1    2    0  503  0.27655880820E+02 -0.21506345655E+02  0.46073795021E+03  0.49339216594E+03  0.17300000000E+03 0.  1.
<mgrwt>
<rscale>  2 0.17651167E+03</rscale>
<asrwt>0</asrwt>
<pdfrwt beam="1">  1       21 0.20200936E+00 0.17651167E+03</pdfrwt>
<pdfrwt beam="2">  1       21 0.39452699E-02 0.17651167E+03</pdfrwt>
<totfact> 0.52832889E+04</totfact>
</mgrwt>
</event>
<event>
 4    1  0.3973261E+000  0.1743504E+03  0.7546771E-02  0.1173386E+00
         21   -1    0    0  501  502  0.00000000000E+00  0.00000000000E+00  0.14358010745E+03  0.14358010745E+03  0.00000000000E+00 0. -1.
         21   -1    0    0  502  503 -0.00000000000E+00 -0.00000000000E+00 -0.30251438470E+03  0.30251438470E+03  0.00000000000E+00 0. -1.
          6    1    1    2  501    0  0.29243291224E+01 -0.21459447766E+02  0.42731213822E+02  0.17951049060E+03  0.17300000000E+03 0. -1.
         -6    1    1    2    0  503 -0.29243291224E+01  0.21459447766E+02 -0.20166549107E+03  0.26658400156E+03  0.17300000000E+03 0. -1.
<mgrwt>
<rscale>  2 0.17435039E+03</rscale>
<asrwt>0</asrwt>
<pdfrwt beam="1">  1       21 0.22089247E-01 0.17435039E+03</pdfrwt>
<pdfrwt beam="2">  1       21 0.46540674E-01 0.17435039E+03</pdfrwt>
<totfact> 0.85325726E+04</totfact>
</mgrwt>
</event>
<event>
 4    1  0.3973261E+000  0.3484847E+03  0.7546771E-02  0.1063239E+00
         21   -1    0    0  501  502  0.00000000000E+00  0.00000000000E+00  0.15512946321E+04  0.15512946321E+04  0.00000000000E+00 0. -1.
         21   -1    0    0  502  503 -0.00000000000E+00 -0.00000000000E+00 -0.83065930142E+02  0.83065930142E+02  0.00000000000E+00 0.  1.
          6    1    1    2  501    0 -0.23674762139E+03  0.18831653262E+03  0.93018289189E+03  0.99331856172E+03  0.17300000000E+03 0. -1.
         -6    1    1    2    0  503  0.23674762139E+03 -0.18831653262E+03  0.53804581003E+03  0.64104200049E+03  0.17300000000E+03 0.  1.
<mgrwt>
<rscale>  2 0.34848465E+03</rscale>
<asrwt>0</asrwt>
<pdfrwt beam="1">  1       21 0.23866069E+00 0.34848465E+03</pdfrwt>
<pdfrwt beam="2">  1       21 0.12779375E-01 0.34848465E+03</pdfrwt>
<totfact> 0.36082396E+03</totfact>
</mgrwt>
</event>
<event>
 4    1  0.3973261E+000  0.2294595E+03  0.7546771E-02  0.1127021E+00
         21   -1    0    0  503  502  0.00000000000E+00  0.00000000000E+00  0.89191563849E+02  0.89191563849E+02  0.00000000000E+00 0.  1.
         21   -1    0    0  501  503 -0.00000000000E+00 -0.00000000000E+00 -0.11889072686E+04  0.11889072686E+04  0.00000000000E+00 0.  1.
          6    1    1    2  501    0 -0.60292235616E+02  0.13815751287E+03 -0.10033020312E+04  0.10292067906E+04  0.17300000000E+03 0.  1.
         -6    1    1    2    0  502  0.60292235616E+02 -0.13815751287E+03 -0.96413673538E+02  0.24889204182E+03  0.17300000000E+03 0.  1.
<mgrwt>
<rscale>  2 0.22945948E+03</rscale>
<asrwt>0</asrwt>
<pdfrwt beam="1">  1       21 0.13721779E-01 0.22945948E+03</pdfrwt>
<pdfrwt beam="2">  1       21 0.18290881E+00 0.22945948E+03</pdfrwt>
<totfact> 0.77873280E+03</totfact>
</mgrwt>
</event>
<event>
 4    1  0.3973261E+000  0.2288052E+03  0.7546771E-02  0.1127484E+00
         21   -1    0    0  501  502  0.00000000000E+00  0.00000000000E+00  0.79557697446E+02  0.79557697446E+02  0.00000000000E+00 0.  1.
         21   -1    0    0  502  503 -0.00000000000E+00 -0.00000000000E+00 -0.70062691377E+03  0.70062691377E+03  0.00000000000E+00 0.  1.
          6    1    1    2  501    0  0.13773756334E+03  0.58746851050E+02 -0.21435511958E+03  0.31352822226E+03  0.17300000000E+03 0.  1.
         -6    1    1    2    0  503 -0.13773756334E+03 -0.58746851050E+02 -0.40671409674E+03  0.46665638896E+03  0.17300000000E+03 0.  1.
<mgrwt>
<rscale>  2 0.22880522E+03</rscale>
<asrwt>0</asrwt>
<pdfrwt beam="1">  1       21 0.12239646E-01 0.22880522E+03</pdfrwt>
<pdfrwt beam="2">  1       21 0.10778875E+00 0.22880522E+03</pdfrwt>
<totfact> 0.38120751E+04</totfact>
</mgrwt>
</event>
<event>
 4    1  0.3973261E+000  0.1730319E+03  0.7546771E-02  0.1174722E+00
         21   -1    0    0  503  502  0.00000000000E+00  0.00000000000E+00  0.53346673169E+03  0.53346673169E+03  0.00000000000E+00 0. -1.
         21   -1    0    0  501  503 -0.00000000000E+00 -0.00000000000E+00 -0.99155508451E+02  0.99155508451E+02  0.00000000000E+00 0. -1.
          6    1    1    2  501    0  0.68469478647E+00 -0.32522008316E+01  0.87777369596E+01  0.17325442067E+03  0.17300000000E+03 0.  1.
         -6    1    1    2    0  502 -0.68469478647E+00  0.32522008316E+01  0.42553348628E+03  0.45936781947E+03  0.17300000000E+03 0.  1.
<mgrwt>
<rscale>  2 0.17303192E+03</rscale>
<asrwt>0</asrwt>
<pdfrwt beam="1">  1       21 0.82071804E-01 0.17303192E+03</pdfrwt>
<pdfrwt beam="2">  1       21 0.15254694E-01 0.17303192E+03</pdfrwt>
<totfact> 0.49857812E+04</totfact>
</mgrwt>
</event>
<event>
 4    1  0.3973261E+000  0.1937035E+03  0.7546771E-02  0.1155163E+00
         21   -1    0    0  501  502  0.00000000000E+00  0.00000000000E+00  0.10218151694E+03  0.10218151694E+03  0.00000000000E+00 0. -1.
         21   -1    0    0  502  503 -0.00000000000E+00 -0.00000000000E+00 -0.65233483229E+03  0.65233483229E+03  0.00000000000E+00 0.  1.
          6    1    1    2  501    0  0.15545887799E+02  0.85734406408E+02 -0.25658287582E+02  0.19539552398E+03  0.17300000000E+03 0. -1.
         -6    1    1    2    0  503 -0.15545887799E+02 -0.85734406408E+02 -0.52449502777E+03  0.55912082525E+03  0.17300000000E+03 0.  1.
<mgrwt>
<rscale>  2 0.19370354E+03</rscale>
<asrwt>0</asrwt>
<pdfrwt beam="1">  1       21 0.15720234E-01 0.19370354E+03</pdfrwt>
<pdfrwt beam="2">  1       21 0.10035920E+00 0.19370354E+03</pdfrwt>
<totfact> 0.29297309E+04</totfact>
</mgrwt>
</event>
<event>
 4    1  0.3973261E+000  0.2181658E+03  0.7546771E-02  0.1135258E+00
         21   -1    0    0  503  502  0.00000000000E+00  0.00000000000E+00  0.52415754143E+03  0.52415754143E+03  0.00000000000E+00 0. -1.
         21   -1    0    0  501  503 -0.00000000000E+00 -0.00000000000E+00 -0.95972201936E+02  0.95972201936E+02  0.00000000000E+00 0.  1.
          6    1    1    2  501    0 -0.13257312892E+03  0.95758859734E+01  0.14214926404E+03  0.26038960304E+03  0.17300000000E+03 0.  1.
         -6    1    1    2    0  502  0.13257312892E+03 -0.95758859734E+01  0.28603607545E+03  0.35974014033E+03  0.17300000000E+03 0. -1.
<mgrwt>
<rscale>  2 0.21816584E+03</rscale>
<asrwt>0</asrwt>
<pdfrwt beam="1">  1       21 0.80639620E-01 0.21816584E+03</pdfrwt>
<pdfrwt beam="2">  1       21 0.14764954E-01 0.21816584E+03</pdfrwt>
<totfact> 0.53872420E+04</totfact>
</mgrwt>
</event>
<event>
 4    1  0.3973261E+000  0.2730475E+03  0.7546771E-02  0.1099548E+00
         21   -1    0    0  503  502  0.00000000000E+00  0.00000000000E+00  0.16136397783E+04  0.16136397783E+04  0.00000000000E+00 0.  1.
         21   -1    0    0  501  503 -0.00000000000E+00 -0.00000000000E+00 -0.72820188557E+02  0.72820188557E+02  0.00000000000E+00 0.  1.
          6    1    1    2  501    0  0.17071321343E+03  0.12443036663E+03  0.26060766830E+03  0.37745367154E+03  0.17300000000E+03 0.  1.
         -6    1    1    2    0  502 -0.17071321343E+03 -0.12443036663E+03  0.12802119215E+04  0.13090062953E+04  0.17300000000E+03 0.  1.
<mgrwt>
<rscale>  2 0.27304746E+03</rscale>
<asrwt>0</asrwt>
<pdfrwt beam="1">  1       21 0.24825225E+00 0.27304746E+03</pdfrwt>
<pdfrwt beam="2">  1       21 0.11203107E-01 0.27304746E+03</pdfrwt>
<totfact> 0.42044916E+03</totfact>
</mgrwt>
</event>
<event>
 4    1  0.3973261E+000  0.2038490E+03  0.7546771E-02  0.1146532E+00
         21   -1    0    0  501  502  0.00000000000E+00  0.00000000000E+00  0.31041494341E+03  0.31041494341E+03  0.00000000000E+00 0. -1.
         21   -1    0    0  502  503 -0.00000000000E+00 -0.00000000000E+00 -0.26133121174E+03  0.26133121174E+03  0.00000000000E+00 0. -1.
          6    1    1    2  501    0  0.10670589175E+03  0.15468399048E+02  0.22419272865E+03  0.30301286818E+03  0.17300000000E+03 0. -1.
         -6    1    1    2    0  503 -0.10670589175E+03 -0.15468399048E+02 -0.17510899698E+03  0.26873328697E+03  0.17300000000E+03 0. -1.
<mgrwt>
<rscale>  2 0.20384901E+03</rscale>
<asrwt>0</asrwt>
<pdfrwt beam="1">  1       21 0.47756145E-01 0.20384901E+03</pdfrwt>
<pdfrwt beam="2">  1       21 0.40204802E-01 0.20384901E+03</pdfrwt>
<totfact> 0.24830792E+04</totfact>
</mgrwt>
</event>
<event>
 4    1  0.3973261E+000  0.1771792E+03  0.7546771E-02  0.1170561E+00
         21   -1    0    0  501  502  0.00000000000E+00  0.00000000000E+00  0.22877404672E+03  0.22877404672E+03  0.00000000000E+00 0.  1.
         21   -1    0    0  502  503 -0.00000000000E+00 -0.00000000000E+00 -0.13723264707E+03  0.13723264707E+03  0.00000000000E+00 0.  1.
          6    1    1    2  501    0 -0.36933405445E+02 -0.99693679533E+01  0.47499958227E+02  0.18343584919E+03  0.17300000000E+03 0.  1.
         -6    1    1    2    0  503  0.36933405445E+02  0.99693679533E+01  0.44041441427E+02  0.18257084460E+03  0.17300000000E+03 0.  1.
<mgrwt>
<rscale>  2 0.17717919E+03</rscale>
<asrwt>0</asrwt>
<pdfrwt beam="1">  1       21 0.35196007E-01 0.17717919E+03</pdfrwt>
<pdfrwt beam="2">  1       21 0.21112715E-01 0.17717919E+03</pdfrwt>
<totfact> 0.16310937E+05</totfact>
</mgrwt>
</event>
<event>
 4    1  0.3973261E+000  0.1819332E+03  0.7546771E-02  0.1165945E+00
         21   -1    0    0  501  502  0.00000000000E+00  0.00000000000E+00  0.12272510320E+03  0.12272510320E+03  0.00000000000E+00 0.  1.
         21   -1    0    0  502  503 -0.00000000000E+00 -0.00000000000E+00 -0.33863952905E+03  0.33863952905E+03  0.00000000000E+00 0.  1.
          6    1    1    2  501    0 -0.16749791832E+02 -0.53759851276E+02 -0.38786623256E+01  0.18197450689E+03  0.17300000000E+03 0.  1.
         -6    1    1    2    0  503  0.16749791832E+02  0.53759851276E+02 -0.21203576353E+03  0.27939012536E+03  0.17300000000E+03 0.  1.
<mgrwt>
<rscale>  2 0.18193317E+03</rscale>
<asrwt>0</asrwt>
<pdfrwt beam="1">  1       21 0.18880785E-01 0.18193317E+03</pdfrwt>
<pdfrwt beam="2">  1       21 0.52098389E-01 0.18193317E+03</pdfrwt>
<totfact> 0.90227834E+04</totfact>
</mgrwt>
</event>
<event>
 4    1  0.3973261E+000  0.2041392E+03  0.7546771E-02  0.1146293E+00
         21   -1    0    0  503  502  0.00000000000E+00  0.00000000000E+00  0.51973295318E+03  0.51973295318E+03  0.00000000000E+00 0. -1.
         21   -1    0    0  501  503 -0.00000000000E+00 -0.00000000000E+00 -0.16821745592E+03  0.16821745592E+03  0.00000000000E+00 0.  1.
          6    1    1    2  501    0  0.10259241683E+03  0.34908731800E+02 -0.73083478305E+02  0.21682716239E+03  0.17300000000E+03 0.  1.
         -6    1    1    2    0  502 -0.10259241683E+03 -0.34908731800E+02  0.42459897557E+03  0.47112324672E+03  0.17300000000E+03 0. -1.
<mgrwt>
<rscale>  2 0.20413923E+03</rscale>
<asrwt>0</asrwt>
<pdfrwt beam="1">  1       21 0.79958915E-01 0.20413923E+03</pdfrwt>
<pdfrwt beam="2">  1       21 0.25879609E-01 0.20413923E+03</pdfrwt>
<totfact> 0.19384838E+04</totfact>
</mgrwt>
</event>
<event>
 4    1  0.3973261E+000  0.1936759E+03  0.7546771E-02  0.1155187E+00
         21   -1    0    0  503  502  0.00000000000E+00  0.00000000000E+00  0.38903139554E+03  0.38903139554E+03  0.00000000000E+00 0. -1.
         21   -1    0    0  501  503 -0.00000000000E+00 -0.00000000000E+00 -0.98167284194E+02  0.98167284194E+02  0.00000000000E+00 0. -1.
          6    1    1    2  501    0  0.54177581228E+02 -0.68162630875E+02  0.11293146184E+03  0.22419605177E+03  0.17300000000E+03 0. -1.
         -6    1    1    2    0  502 -0.54177581228E+02  0.68162630875E+02  0.17793264951E+03  0.26300262797E+03  0.17300000000E+03 0. -1.
<mgrwt>
<rscale>  2 0.19367590E+03</rscale>
<asrwt>0</asrwt>
<pdfrwt beam="1">  1       21 0.59850983E-01 0.19367590E+03</pdfrwt>
<pdfrwt beam="2">  1       21 0.15102659E-01 0.19367590E+03</pdfrwt>
<totfact> 0.10089572E+05</totfact>
</mgrwt>
</event>
<event>
 4    1  0.3973261E+000  0.1774608E+03  0.7546771E-02  0.1170283E+00
         21   -1    0    0  503  502  0.00000000000E+00  0.00000000000E+00  0.57711793720E+03  0.57711793720E+03  0.00000000000E+00 0.  1.
         21   -1    0    0  501  503 -0.00000000000E+00 -0.00000000000E+00 -0.10893424300E+03  0.10893424300E+03  0.00000000000E+00 0.  1.
          6    1    1    2  501    0 -0.38669870219E+02 -0.82449337544E+01 -0.82388624818E+01  0.17765195369E+03  0.17300000000E+03 0.  1.
         -6    1    1    2    0  502  0.38669870219E+02  0.82449337544E+01  0.47642255668E+03  0.50840022651E+03  0.17300000000E+03 0.  1.
<mgrwt>
<rscale>  2 0.17746081E+03</rscale>
<asrwt>0</asrwt>
<pdfrwt beam="1">  1       21 0.88787374E-01 0.17746081E+03</pdfrwt>
<pdfrwt beam="2">  1       21 0.16759115E-01 0.17746081E+03</pdfrwt>
<totfact> 0.35003839E+04</totfact>
</mgrwt>
</event>
<event>
 4    1  0.3973261E+000  0.2056474E+03  0.7546771E-02  0.1145060E+00
         21   -1    0    0  503  502  0.00000000000E+00  0.00000000000E+00  0.44094346300E+03  0.44094346300E+03  0.00000000000E+00 0. -1.
         21   -1    0    0  501  503 -0.00000000000E+00 -0.00000000000E+00 -0.13466862407E+03  0.13466862407E+03  0.00000000000E+00 0. -1.
          6    1    1    2  501    0  0.88857705405E+02 -0.66829274261E+02 -0.12640503779E+01  0.20565126193E+03  0.17300000000E+03 0. -1.
         -6    1    1    2    0  502 -0.88857705405E+02  0.66829274261E+02  0.30753888930E+03  0.36996082514E+03  0.17300000000E+03 0. -1.
<mgrwt>
<rscale>  2 0.20564738E+03</rscale>
<asrwt>0</asrwt>
<pdfrwt beam="1">  1       21 0.67837455E-01 0.20564738E+03</pdfrwt>
<pdfrwt beam="2">  1       21 0.20718250E-01 0.20564738E+03</pdfrwt>
<totfact> 0.42614393E+04</totfact>
</mgrwt>
</event>
<event>
 4    1  0.3973261E+000  0.2116972E+03  0.7546771E-02  0.1140229E+00
         21   -1    0    0  501  502  0.00000000000E+00  0.00000000000E+00  0.44572721612E+03  0.44572721612E+03  0.00000000000E+00 0.  1.
         21   -1    0    0  502  503 -0.00000000000E+00 -0.00000000000E+00 -0.13018610598E+03  0.13018610598E+03  0.00000000000E+00 0.  1.
          6    1    1    2  501    0 -0.11385773619E+03  0.43853265794E+02  0.29517196520E+03  0.36323846444E+03  0.17300000000E+03 0.  1.
         -6    1    1    2    0  503  0.11385773619E+03 -0.43853265794E+02  0.20369144939E+02  0.21267485765E+03  0.17300000000E+03 0.  1.
<mgrwt>
<rscale>  2 0.21169717E+03</rscale>
<asrwt>0</asrwt>
<pdfrwt beam="1">  1       21 0.68573417E-01 0.21169717E+03</pdfrwt>
<pdfrwt beam="2">  1       21 0.20028632E-01 0.21169717E+03</pdfrwt>
<totfact> 0.44209188E+04</totfact>
</mgrwt>
</event>
<event>
 4    1  0.3973261E+000  0.2164318E+03  0.7546771E-02  0.1136572E+00
         21   -1    0    0  503  502  0.00000000000E+00  0.00000000000E+00  0.20328854070E+03  0.20328854070E+03  0.00000000000E+00 0.  1.
         21   -1    0    0  501  503 -0.00000000000E+00 -0.00000000000E+00 -0.24513837589E+03  0.24513837589E+03  0.00000000000E+00 0.  1.
          6    1    1    2  501    0 -0.87362209736E+02 -0.96340988575E+02 -0.75855431020E+02  0.22933989663E+03  0.17300000000E+03 0.  1.
         -6    1    1    2    0  502  0.87362209736E+02  0.96340988575E+02  0.34005595822E+02  0.21908701996E+03  0.17300000000E+03 0.  1.
<mgrwt>
<rscale>  2 0.21643184E+03</rscale>
<asrwt>0</asrwt>
<pdfrwt beam="1">  1       21 0.31275160E-01 0.21643184E+03</pdfrwt>
<pdfrwt beam="2">  1       21 0.37713596E-01 0.21643184E+03</pdfrwt>
<totfact> 0.65913287E+04</totfact>
</mgrwt>
</event>
<event>
 4    1  0.3973261E+000  0.2248378E+03  0.7546771E-02  0.1130327E+00
         21   -1    0    0  503  502  0.00000000000E+00  0.00000000000E+00  0.22592134559E+02  0.22592134559E+02  0.00000000000E+00 0. -1.
         21   -1    0    0  501  503 -0.00000000000E+00 -0.00000000000E+00 -0.22780871555E+04  0.22780871555E+04  0.00000000000E+00 0.  1.
          6    1    1    2  501    0 -0.40291253201E+02  0.13783920569E+03 -0.12811138582E+04  0.13006939491E+04  0.17300000000E+03 0.  1.
         -6    1    1    2    0  502  0.40291253201E+02 -0.13783920569E+03 -0.97438116277E+03  0.99998534093E+03  0.17300000000E+03 0. -1.
<mgrwt>
<rscale>  2 0.22483779E+03</rscale>
<asrwt>0</asrwt>
<pdfrwt beam="1">  1       21 0.34757125E-02 0.22483779E+03</pdfrwt>
<pdfrwt beam="2">  1       21 0.35047500E+00 0.22483779E+03</pdfrwt>
<totfact> 0.83006034E+03</totfact>
</mgrwt>
</event>
<event>
 4    1  0.3973261E+000  0.2080299E+03  0.7546771E-02  0.1143136E+00
         21   -1    0    0  503  502  0.00000000000E+00  0.00000000000E+00  0.16129159602E+03  0.16129159602E+03  0.00000000000E+00 0. -1.
         21   -1    0    0  501  503 -0.00000000000E+00 -0.00000000000E+00 -0.27463276708E+03  0.27463276708E+03  0.00000000000E+00 0.  1.
          6    1    1    2  501    0  0.96508368211E+02  0.63510412608E+02 -0.89737746247E+02  0.22655970680E+03  0.17300000000E+03 0.  1.
         -6    1    1    2    0  502 -0.96508368211E+02 -0.63510412608E+02 -0.23603424814E+02  0.20936465630E+03  0.17300000000E+03 0. -1.
<mgrwt>
<rscale>  2 0.20802990E+03</rscale>
<asrwt>0</asrwt>
<pdfrwt beam="1">  1       21 0.24814092E-01 0.20802990E+03</pdfrwt>
<pdfrwt beam="2">  1       21 0.42251195E-01 0.20802990E+03</pdfrwt>
<totfact> 0.82279754E+04</totfact>
</mgrwt>
</event>
<event>
 4    1  0.3973261E+000  0.1748145E+03  0.7546771E-02  0.1172918E+00
         21   -1    0    0  501  502  0.00000000000E+00  0.00000000000E+00  0.37973573077E+03  0.37973573077E+03  0.00000000000E+00 0.  1.
         21   -1    0    0  502  503 -0.00000000000E+00 -0.00000000000E+00 -0.13597854779E+03  0.13597854779E+03  0.00000000000E+00 0.  1.
          6    1    1    2  501    0 -0.23460514030E+02 -0.89834857261E+01  0.28661720732E+03  0.33572238869E+03  0.17300000000E+03 0.  1.
         -6    1    1    2    0  503  0.23460514030E+02  0.89834857261E+01 -0.42860024342E+02  0.17999188988E+03  0.17300000000E+03 0.  1.
<mgrwt>
<rscale>  2 0.17481447E+03</rscale>
<asrwt>0</asrwt>
<pdfrwt beam="1">  1       21 0.58420881E-01 0.17481447E+03</pdfrwt>
<pdfrwt beam="2">  1       21 0.20919777E-01 0.17481447E+03</pdfrwt>
<totfact> 0.58695334E+04</totfact>
</mgrwt>
</event>
<event>
 4    1  0.3973261E+000  0.2153415E+03  0.7546771E-02  0.1137405E+00
         21   -1    0    0  503  502  0.00000000000E+00  0.00000000000E+00  0.40959064138E+03  0.40959064138E+03  0.00000000000E+00 0.  1.
         21   -1    0    0  501  503 -0.00000000000E+00 -0.00000000000E+00 -0.12747523562E+03  0.12747523562E+03  0.00000000000E+00 0. -1.
          6    1    1    2  501    0 -0.26812873647E+02  0.12539545618E+03  0.51244006752E+02  0.22135469015E+03  0.17300000000E+03 0. -1.
         -6    1    1    2    0  502  0.26812873647E+02 -0.12539545618E+03  0.23087139901E+03  0.31571118685E+03  0.17300000000E+03 0.  1.
<mgrwt>
<rscale>  2 0.21534147E+03</rscale>
<asrwt>0</asrwt>
<pdfrwt beam="1">  1       21 0.63013944E-01 0.21534147E+03</pdfrwt>
<pdfrwt beam="2">  1       21 0.19611575E-01 0.21534147E+03</pdfrwt>
<totfact> 0.55227756E+04</totfact>
</mgrwt>
</event>
<event>
 4    1  0.3973261E+000  0.1951696E+03  0.7546771E-02  0.1153880E+00
         21   -1    0    0  501  502  0.00000000000E+00  0.00000000000E+00  0.80511560881E+03  0.80511560881E+03  0.00000000000E+00 0. -1.
         21   -1    0    0  502  503 -0.00000000000E+00 -0.00000000000E+00 -0.47482615796E+02  0.47482615796E+02  0.00000000000E+00 0. -1.
          6    1    1    2  501    0  0.19470140326E+01 -0.90323744081E+02  0.35321986593E+03  0.40355351974E+03  0.17300000000E+03 0. -1.
         -6    1    1    2    0  503 -0.19470140326E+01  0.90323744081E+02  0.40441312709E+03  0.44904470487E+03  0.17300000000E+03 0. -1.
<mgrwt>
<rscale>  2 0.19516959E+03</rscale>
<asrwt>0</asrwt>
<pdfrwt beam="1">  1       21 0.12386393E+00 0.19516959E+03</pdfrwt>
<pdfrwt beam="2">  1       21 0.73050184E-02 0.19516959E+03</pdfrwt>
<totfact> 0.68490683E+04</totfact>
</mgrwt>
</event>
<event>
 4    1  0.3973261E+000  0.1956690E+03  0.7546771E-02  0.1153445E+00
         21   -1    0    0  503  502  0.00000000000E+00  0.00000000000E+00  0.97089748798E+02  0.97089748798E+02  0.00000000000E+00 0. -1.
         21   -1    0    0  501  503 -0.00000000000E+00 -0.00000000000E+00 -0.39518073252E+03  0.39518073252E+03  0.00000000000E+00 0. -1.
          6    1    1    2  501    0  0.25155478579E+02  0.87889486215E+02 -0.13769183321E+03  0.23926011122E+03  0.17300000000E+03 0. -1.
         -6    1    1    2    0  502 -0.25155478579E+02 -0.87889486215E+02 -0.16039915051E+03  0.25301037009E+03  0.17300000000E+03 0. -1.
<mgrwt>
<rscale>  2 0.19566901E+03</rscale>
<asrwt>0</asrwt>
<pdfrwt beam="1">  1       21 0.14936885E-01 0.19566901E+03</pdfrwt>
<pdfrwt beam="2">  1       21 0.60797034E-01 0.19566901E+03</pdfrwt>
<totfact> 0.99447758E+04</totfact>
</mgrwt>
</event>
<event>
 4    1  0.3973261E+000  0.3473764E+03  0.7546771E-02  0.1063697E+00
         21   -1    0    0  501  502  0.00000000000E+00  0.00000000000E+00  0.62736443986E+03  0.62736443986E+03  0.00000000000E+00 0. -1.
         21   -1    0    0  502  503 -0.00000000000E+00 -0.00000000000E+00 -0.21419254839E+03  0.21419254839E+03  0.00000000000E+00 0. -1.
          6    1    1    2  501    0 -0.33535408991E+02  0.29936053030E+03  0.34097184444E+03  0.48675676622E+03  0.17300000000E+03 0. -1.
         -6    1    1    2    0  503  0.33535408991E+02 -0.29936053030E+03  0.72200047028E+02  0.35480022203E+03  0.17300000000E+03 0. -1.
<mgrwt>
<rscale>  2 0.34737638E+03</rscale>
<asrwt>0</asrwt>
<pdfrwt beam="1">  1       21 0.96517605E-01 0.34737638E+03</pdfrwt>
<pdfrwt beam="2">  1       21 0.32952700E-01 0.34737638E+03</pdfrwt>
<totfact> 0.72610087E+03</totfact>
</mgrwt>
</event>
<event>
 4    1  0.3973261E+000  0.1843790E+03  0.7546771E-02  0.1163631E+00
         21   -1    0    0  503  502  0.00000000000E+00  0.00000000000E+00  0.36570681267E+02  0.36570681267E+02  0.00000000000E+00 0.  1.
         21   -1    0    0  501  503 -0.00000000000E+00 -0.00000000000E+00 -0.10115707332E+04  0.10115707332E+04  0.00000000000E+00 0.  1.
          6    1    1    2  501    0  0.52129950221E+02 -0.36730007771E+02 -0.63669560140E+03  0.66285512295E+03  0.17300000000E+03 0.  1.
         -6    1    1    2    0  502 -0.52129950221E+02  0.36730007771E+02 -0.33830445055E+03  0.38528629153E+03  0.17300000000E+03 0.  1.
<mgrwt>
<rscale>  2 0.18437903E+03</rscale>
<asrwt>0</asrwt>
<pdfrwt beam="1">  1       21 0.56262585E-02 0.18437903E+03</pdfrwt>
<pdfrwt beam="2">  1       21 0.15562627E+00 0.18437903E+03</pdfrwt>
<totfact> 0.59943414E+04</totfact>
</mgrwt>
</event>
<event>
 4    1  0.3973261E+000  0.1899179E+03  0.7546771E-02  0.1158535E+00
         21   -1    0    0  503  502  0.00000000000E+00  0.00000000000E+00  0.15739428786E+04  0.15739428786E+04  0.00000000000E+00 0.  1.
         21   -1    0    0  501  503 -0.00000000000E+00 -0.00000000000E+00 -0.48988646184E+02  0.48988646184E+02  0.00000000000E+00 0.  1.
          6    1    1    2  501    0  0.53311329833E+02  0.57425827839E+02  0.17048872168E+03  0.25521604145E+03  0.17300000000E+03 0.  1.
         -6    1    1    2    0  502 -0.53311329833E+02 -0.57425827839E+02  0.13544655107E+04  0.13677154833E+04  0.17300000000E+03 0.  1.
<mgrwt>
<rscale>  2 0.18991794E+03</rscale>
<asrwt>0</asrwt>
<pdfrwt beam="1">  1       21 0.24214502E+00 0.18991794E+03</pdfrwt>
<pdfrwt beam="2">  1       21 0.75367160E-02 0.18991794E+03</pdfrwt>
<totfact> 0.98737115E+03</totfact>
</mgrwt>
</event>
<event>
 4    1  0.3973261E+000  0.1975095E+03  0.7546771E-02  0.1151857E+00
         21   -1    0    0  503  502  0.00000000000E+00  0.00000000000E+00  0.12802836150E+03  0.12802836150E+03  0.00000000000E+00 0.  1.
         21   -1    0    0  501  503 -0.00000000000E+00 -0.00000000000E+00 -0.37396975546E+03  0.37396975546E+03  0.00000000000E+00 0.  1.
          6    1    1    2  501    0 -0.44982630452E+02  0.84009308902E+02 -0.23099751243E+03  0.30392408883E+03  0.17300000000E+03 0.  1.
         -6    1    1    2    0  502  0.44982630452E+02 -0.84009308902E+02 -0.14943881535E+02  0.19807402813E+03  0.17300000000E+03 0.  1.
<mgrwt>
<rscale>  2 0.19750950E+03</rscale>
<asrwt>0</asrwt>
<pdfrwt beam="1">  1       21 0.19696671E-01 0.19750950E+03</pdfrwt>
<pdfrwt beam="2">  1       21 0.57533807E-01 0.19750950E+03</pdfrwt>
<totfact> 0.67179387E+04</totfact>
</mgrwt>
</event>
<event>
 4    1  0.3973261E+000  0.1795434E+03  0.7546771E-02  0.1168246E+00
         21   -1    0    0  503  502  0.00000000000E+00  0.00000000000E+00  0.29012974554E+03  0.29012974554E+03  0.00000000000E+00 0. -1.
         21   -1    0    0  501  503 -0.00000000000E+00 -0.00000000000E+00 -0.15023141444E+03  0.15023141444E+03  0.00000000000E+00 0.  1.
          6    1    1    2  501    0 -0.26082455811E+01 -0.47958615324E+02 -0.42411724975E+02  0.18448465016E+03  0.17300000000E+03 0.  1.
         -6    1    1    2    0  502  0.26082455811E+01  0.47958615324E+02  0.18231005608E+03  0.25587650982E+03  0.17300000000E+03 0. -1.
<mgrwt>
<rscale>  2 0.17954340E+03</rscale>
<asrwt>0</asrwt>
<pdfrwt beam="1">  1       21 0.44635345E-01 0.17954340E+03</pdfrwt>
<pdfrwt beam="2">  1       21 0.23112525E-01 0.17954340E+03</pdfrwt>
<totfact> 0.85177718E+04</totfact>
</mgrwt>
</event>
<event>
 4    1  0.3973261E+000  0.2046345E+03  0.7546771E-02  0.1145887E+00
         21   -1    0    0  503  502  0.00000000000E+00  0.00000000000E+00  0.33737625337E+03  0.33737625337E+03  0.00000000000E+00 0. -1.
         21   -1    0    0  501  503 -0.00000000000E+00 -0.00000000000E+00 -0.12475612074E+03  0.12475612074E+03  0.00000000000E+00 0.  1.
          6    1    1    2  501    0 -0.69633267347E+02  0.84246645725E+02  0.12280401979E+03  0.23865480618E+03  0.17300000000E+03 0.  1.
         -6    1    1    2    0  502  0.69633267347E+02 -0.84246645725E+02  0.89816112837E+02  0.22347756792E+03  0.17300000000E+03 0.  1.
<mgrwt>
<rscale>  2 0.20463453E+03</rscale>
<asrwt>0</asrwt>
<pdfrwt beam="1">  1       21 0.51904039E-01 0.20463453E+03</pdfrwt>
<pdfrwt beam="2">  1       21 0.19193250E-01 0.20463453E+03</pdfrwt>
<totfact> 0.87391963E+04</totfact>
</mgrwt>
</event>
<event>
 4    1  0.3973261E+000  0.2133520E+03  0.7546771E-02  0.1138939E+00
         21   -1    0    0  503  502  0.00000000000E+00  0.00000000000E+00  0.15205488392E+03  0.15205488392E+03  0.00000000000E+00 0.  1.
         21   -1    0    0  501  503 -0.00000000000E+00 -0.00000000000E+00 -0.30206719085E+03  0.30206719085E+03  0.00000000000E+00 0.  1.
          6    1    1    2  501    0 -0.12113146535E+03  0.30285897856E+02 -0.53508363519E+02  0.21995957009E+03  0.17300000000E+03 0.  1.
         -6    1    1    2    0  502  0.12113146535E+03 -0.30285897856E+02 -0.96503943418E+02  0.23416250469E+03  0.17300000000E+03 0.  1.
<mgrwt>
<rscale>  2 0.21335198E+03</rscale>
<asrwt>0</asrwt>
<pdfrwt beam="1">  1       21 0.23393059E-01 0.21335198E+03</pdfrwt>
<pdfrwt beam="2">  1       21 0.46471875E-01 0.21335198E+03</pdfrwt>
<totfact> 0.75547753E+04</totfact>
</mgrwt>
</event>
<event>
 4    1  0.3973261E+000  0.2409453E+03  0.7546771E-02  0.1119165E+00
         21   -1    0    0  503  502  0.00000000000E+00  0.00000000000E+00  0.18798900277E+04  0.18798900277E+04  0.00000000000E+00 0. -1.
         21   -1    0    0  501  503 -0.00000000000E+00 -0.00000000000E+00 -0.82615838811E+02  0.82615838811E+02  0.00000000000E+00 0. -1.
          6    1    1    2  501    0  0.12706172497E+03  0.10945757194E+03  0.12214518598E+03  0.27013716602E+03  0.17300000000E+03 0. -1.
         -6    1    1    2    0  502 -0.12706172497E+03 -0.10945757194E+03  0.16751290030E+04  0.16923687005E+04  0.17300000000E+03 0. -1.
<mgrwt>
<rscale>  2 0.24094531E+03</rscale>
<asrwt>0</asrwt>
<pdfrwt beam="1">  1       21 0.28921382E+00 0.24094531E+03</pdfrwt>
<pdfrwt beam="2">  1       21 0.12710130E-01 0.24094531E+03</pdfrwt>
<totfact> 0.19747534E+03</totfact>
</mgrwt>
</event>
<event>
 4    1  0.3973261E+000  0.2135252E+03  0.7546771E-02  0.1138804E+00
         21   -1    0    0  503  502  0.00000000000E+00  0.00000000000E+00  0.11438590248E+04  0.11438590248E+04  0.00000000000E+00 0.  1.
         21   -1    0    0  501  503 -0.00000000000E+00 -0.00000000000E+00 -0.41024862605E+02  0.41024862605E+02  0.00000000000E+00 0. -1.
          6    1    1    2  501    0 -0.11781513803E+03  0.42232949261E+02  0.45154278034E+03  0.49948364461E+03  0.17300000000E+03 0. -1.
         -6    1    1    2    0  502  0.11781513803E+03 -0.42232949261E+02  0.65129138188E+03  0.68540024282E+03  0.17300000000E+03 0.  1.
<mgrwt>
<rscale>  2 0.21352524E+03</rscale>
<asrwt>0</asrwt>
<pdfrwt beam="1">  1       21 0.17597829E+00 0.21352524E+03</pdfrwt>
<pdfrwt beam="2">  1       21 0.63115182E-02 0.21352524E+03</pdfrwt>
<totfact> 0.34587144E+04</totfact>
</mgrwt>
</event>
<event>
 4    1  0.3973261E+000  0.1788647E+03  0.7546771E-02  0.1168906E+00
         21   -1    0    0  501  502  0.00000000000E+00  0.00000000000E+00  0.33813788421E+02  0.33813788421E+02  0.00000000000E+00 0. -1.
         21   -1    0    0  502  503 -0.00000000000E+00 -0.00000000000E+00 -0.94673976164E+03  0.94673976164E+03  0.00000000000E+00 0. -1.
          6    1    1    2  501    0  0.38343334689E+02  0.24359517479E+02 -0.46879701849E+03  0.50176014385E+03  0.17300000000E+03 0. -1.
         -6    1    1    2    0  503 -0.38343334689E+02 -0.24359517479E+02 -0.44412895473E+03  0.47879340622E+03  0.17300000000E+03 0. -1.
<mgrwt>
<rscale>  2 0.17886475E+03</rscale>
<asrwt>0</asrwt>
<pdfrwt beam="1">  1       21 0.52021212E-02 0.17886475E+03</pdfrwt>
<pdfrwt beam="2">  1       21 0.14565227E+00 0.17886475E+03</pdfrwt>
<totfact> 0.81754654E+04</totfact>
</mgrwt>
</event>
<event>
 4    1  0.3973261E+000  0.1901591E+03  0.7546771E-02  0.1158318E+00
         21   -1    0    0  503  502  0.00000000000E+00  0.00000000000E+00  0.26383606995E+03  0.26383606995E+03  0.00000000000E+00 0.  1.
         21   -1    0    0  501  503 -0.00000000000E+00 -0.00000000000E+00 -0.22469766185E+03  0.22469766185E+03  0.00000000000E+00 0.  1.
          6    1    1    2  501    0 -0.32807322804E+02 -0.71799342805E+02 -0.13298324360E+03  0.23204527389E+03  0.17300000000E+03 0.  1.
         -6    1    1    2    0  502  0.32807322804E+02  0.71799342805E+02  0.17212165170E+03  0.25648845791E+03  0.17300000000E+03 0.  1.
<mgrwt>
<rscale>  2 0.19015905E+03</rscale>
<asrwt>0</asrwt>
<pdfrwt beam="1">  1       21 0.40590165E-01 0.19015905E+03</pdfrwt>
<pdfrwt beam="2">  1       21 0.34568871E-01 0.19015905E+03</pdfrwt>
<totfact> 0.47220243E+04</totfact>
</mgrwt>
</event>
<event>
 4    1  0.3973261E+000  0.1780525E+03  0.7546771E-02  0.1169701E+00
         21   -1    0    0  503  502  0.00000000000E+00  0.00000000000E+00  0.84039258703E+03  0.84039258703E+03  0.00000000000E+00 0.  1.
         21   -1    0    0  501  503 -0.00000000000E+00 -0.00000000000E+00 -0.56143471042E+02  0.56143471042E+02  0.00000000000E+00 0.  1.
          6    1    1    2  501    0  0.52085373457E+01  0.41791930041E+02  0.13536265826E+03  0.22366435462E+03  0.17300000000E+03 0.  1.
         -6    1    1    2    0  502 -0.52085373457E+01 -0.41791930041E+02  0.64888645773E+03  0.67287170345E+03  0.17300000000E+03 0.  1.
<mgrwt>
<rscale>  2 0.17805250E+03</rscale>
<asrwt>0</asrwt>
<pdfrwt beam="1">  1       21 0.12929116E+00 0.17805250E+03</pdfrwt>
<pdfrwt beam="2">  1       21 0.86374577E-02 0.17805250E+03</pdfrwt>
<totfact> 0.46372688E+04</totfact>
</mgrwt>
</event>
<event>
 4    1  0.3973261E+000  0.1794779E+03  0.7546771E-02  0.1168309E+00
         21   -1    0    0  501  502  0.00000000000E+00  0.00000000000E+00  0.31087228280E+03  0.31087228280E+03  0.00000000000E+00 0.  1.
         21   -1    0    0  502  503 -0.00000000000E+00 -0.00000000000E+00 -0.32938774706E+03  0.32938774706E+03  0.00000000000E+00 0.  1.
          6    1    1    2  501    0 -0.44216926249E+02  0.18115917688E+02  0.25577800519E+03  0.31246553566E+03  0.17300000000E+03 0.  1.
         -6    1    1    2    0  503  0.44216926249E+02 -0.18115917688E+02 -0.27429346945E+03  0.32779449419E+03  0.17300000000E+03 0.  1.
<mgrwt>
<rscale>  2 0.17947792E+03</rscale>
<asrwt>0</asrwt>
<pdfrwt beam="1">  1       21 0.47826505E-01 0.17947792E+03</pdfrwt>
<pdfrwt beam="2">  1       21 0.50675038E-01 0.17947792E+03</pdfrwt>
<totfact> 0.15614117E+04</totfact>
</mgrwt>
</event>
<event>
 4    1  0.3973261E+000  0.1846175E+03  0.7546771E-02  0.1163408E+00
         21   -1    0    0  501  502  0.00000000000E+00  0.00000000000E+00  0.90071634332E+02  0.90071634332E+02  0.00000000000E+00 0. -1.
         21   -1    0    0  502  503 -0.00000000000E+00 -0.00000000000E+00 -0.42237787026E+03  0.42237787026E+03  0.00000000000E+00 0. -1.
          6    1    1    2  501    0 -0.61435372768E+02  0.19501458518E+02 -0.83480842924E+02  0.20261456771E+03  0.17300000000E+03 0. -1.
         -6    1    1    2    0  503  0.61435372768E+02 -0.19501458518E+02 -0.24882539300E+03  0.30983493688E+03  0.17300000000E+03 0. -1.
<mgrwt>
<rscale>  2 0.18461747E+03</rscale>
<asrwt>0</asrwt>
<pdfrwt beam="1">  1       21 0.13857174E-01 0.18461747E+03</pdfrwt>
<pdfrwt beam="2">  1       21 0.64981211E-01 0.18461747E+03</pdfrwt>
<totfact> 0.99092815E+04</totfact>
</mgrwt>
</event>
<event>
 4    1  0.3973261E+000  0.2858459E+03  0.7546771E-02  0.1092538E+00
         21   -1    0    0  501  502  0.00000000000E+00  0.00000000000E+00  0.14852189814E+04  0.14852189814E+04  0.00000000000E+00 0. -1.
         21   -1    0    0  502  503 -0.00000000000E+00 -0.00000000000E+00 -0.67680527497E+02  0.67680527497E+02  0.00000000000E+00 0. -1.
          6    1    1    2  501    0  0.71357389798E-01 -0.22754968171E+03  0.10446692070E+04  0.10830704570E+04  0.17300000000E+03 0. -1.
         -6    1    1    2    0  503 -0.71357389798E-01  0.22754968171E+03  0.37286924693E+03  0.46982905193E+03  0.17300000000E+03 0. -1.
<mgrwt>
<rscale>  2 0.28584587E+03</rscale>
<asrwt>0</asrwt>
<pdfrwt beam="1">  1       21 0.22849520E+00 0.28584587E+03</pdfrwt>
<pdfrwt beam="2">  1       21 0.10412390E-01 0.28584587E+03</pdfrwt>
<totfact> 0.62648890E+03</totfact>
</mgrwt>
</event>
<event>
 4    1  0.3973261E+000  0.2368228E+03  0.7546771E-02  0.1121928E+00
         21   -1    0    0  503  502  0.00000000000E+00  0.00000000000E+00  0.38555674402E+03  0.38555674402E+03  0.00000000000E+00 0. -1.
         21   -1    0    0  501  503 -0.00000000000E+00 -0.00000000000E+00 -0.16230867210E+03  0.16230867210E+03  0.00000000000E+00 0.  1.
          6    1    1    2  501    0 -0.10861447741E+03  0.11982873047E+03  0.23378889168E+02  0.23797395195E+03  0.17300000000E+03 0.  1.
         -6    1    1    2    0  502  0.10861447741E+03 -0.11982873047E+03  0.19986918275E+03  0.30989146416E+03  0.17300000000E+03 0. -1.
<mgrwt>
<rscale>  2 0.23682278E+03</rscale>
<asrwt>0</asrwt>
<pdfrwt beam="1">  1       21 0.59316422E-01 0.23682278E+03</pdfrwt>
<pdfrwt beam="2">  1       21 0.24970565E-01 0.23682278E+03</pdfrwt>
<totfact> 0.39458737E+04</totfact>
</mgrwt>
</event>
<event>
 4    1  0.3973261E+000  0.1813182E+03  0.7546771E-02  0.1166533E+00
         21   -1    0    0  501  502  0.00000000000E+00  0.00000000000E+00  0.35531239863E+03  0.35531239863E+03  0.00000000000E+00 0.  1.
         21   -1    0    0  502  503 -0.00000000000E+00 -0.00000000000E+00 -0.14684517260E+03  0.14684517260E+03  0.00000000000E+00 0.  1.
          6    1    1    2  501    0  0.12886378781E+02 -0.52737318027E+02  0.25693727759E+03  0.31447265077E+03  0.17300000000E+03 0.  1.
         -6    1    1    2    0  503 -0.12886378781E+02  0.52737318027E+02 -0.48470051549E+02  0.18768492046E+03  0.17300000000E+03 0.  1.
<mgrwt>
<rscale>  2 0.18131818E+03</rscale>
<asrwt>0</asrwt>
<pdfrwt beam="1">  1       21 0.54663446E-01 0.18131818E+03</pdfrwt>
<pdfrwt beam="2">  1       21 0.22591565E-01 0.18131818E+03</pdfrwt>
<totfact> 0.58314440E+04</totfact>
</mgrwt>
</event>
<event>
 4    1  0.3973261E+000  0.1791824E+03  0.7546771E-02  0.1168597E+00
         21   -1    0    0  501  502  0.00000000000E+00  0.00000000000E+00  0.20217699648E+03  0.20217699648E+03  0.00000000000E+00 0. -1.
         21   -1    0    0  502  503 -0.00000000000E+00 -0.00000000000E+00 -0.30525913402E+03  0.30525913402E+03  0.00000000000E+00 0. -1.
          6    1    1    2  501    0  0.44545438150E+02  0.13893602371E+02  0.12419897588E+03  0.21801769162E+03  0.17300000000E+03 0. -1.
         -6    1    1    2    0  503 -0.44545438150E+02 -0.13893602371E+02 -0.22728111342E+03  0.28941843888E+03  0.17300000000E+03 0. -1.
<mgrwt>
<rscale>  2 0.17918239E+03</rscale>
<asrwt>0</asrwt>
<pdfrwt beam="1">  1       21 0.31104153E-01 0.17918239E+03</pdfrwt>
<pdfrwt beam="2">  1       21 0.46962944E-01 0.17918239E+03</pdfrwt>
<totfact> 0.43378569E+04</totfact>
</mgrwt>
</event>
<event>
 4    1  0.3973261E+000  0.2735412E+03  0.7546771E-02  0.1099270E+00
         21   -1    0    0  503  502  0.00000000000E+00  0.00000000000E+00  0.13342654977E+03  0.13342654977E+03  0.00000000000E+00 0. -1.
         21   -1    0    0  501  503 -0.00000000000E+00 -0.00000000000E+00 -0.62828092903E+03  0.62828092903E+03  0.00000000000E+00 0. -1.
          6    1    1    2  501    0  0.10343693815E+03  0.18492322157E+03 -0.37224925710E+03  0.46194621707E+03  0.17300000000E+03 0. -1.
         -6    1    1    2    0  502 -0.10343693815E+03 -0.18492322157E+03 -0.12260512216E+03  0.29976126173E+03  0.17300000000E+03 0. -1.
<mgrwt>
<rscale>  2 0.27354122E+03</rscale>
<asrwt>0</asrwt>
<pdfrwt beam="1">  1       21 0.20527162E-01 0.27354122E+03</pdfrwt>
<pdfrwt beam="2">  1       21 0.96658604E-01 0.27354122E+03</pdfrwt>
<totfact> 0.18718659E+04</totfact>
</mgrwt>
</event>
<event>
 4    1  0.3973261E+000  0.2653735E+03  0.7546771E-02  0.1103957E+00
         21   -1    0    0  501  502  0.00000000000E+00  0.00000000000E+00  0.13352639624E+03  0.13352639624E+03  0.00000000000E+00 0. -1.
         21   -1    0    0  502  503 -0.00000000000E+00 -0.00000000000E+00 -0.52921928156E+03  0.52921928156E+03  0.00000000000E+00 0. -1.
          6    1    1    2  501    0  0.20120193718E+03 -0.34428833562E+01 -0.21722526374E+03  0.34294298094E+03  0.17300000000E+03 0. -1.
         -6    1    1    2    0  503 -0.20120193718E+03  0.34428833562E+01 -0.17846762158E+03  0.31980269686E+03  0.17300000000E+03 0. -1.
<mgrwt>
<rscale>  2 0.26537346E+03</rscale>
<asrwt>0</asrwt>
<pdfrwt beam="1">  1       21 0.20542522E-01 0.26537346E+03</pdfrwt>
<pdfrwt beam="2">  1       21 0.81418351E-01 0.26537346E+03</pdfrwt>
<totfact> 0.27981178E+04</totfact>
</mgrwt>
</event>
<event>
 4    1  0.3973261E+000  0.1902157E+03  0.7546771E-02  0.1158267E+00
         21   -1    0    0  503  502  0.00000000000E+00  0.00000000000E+00  0.43465850530E+03  0.43465850530E+03  0.00000000000E+00 0.  1.
         21   -1    0    0  501  503 -0.00000000000E+00 -0.00000000000E+00 -0.87452832664E+02  0.87452832664E+02  0.00000000000E+00 0.  1.
          6    1    1    2  501    0  0.53606858486E+02  0.58131774742E+02  0.11632168162E+03  0.22296352197E+03  0.17300000000E+03 0.  1.
         -6    1    1    2    0  502 -0.53606858486E+02 -0.58131774742E+02  0.23088399101E+03  0.29914781600E+03  0.17300000000E+03 0.  1.
<mgrwt>
<rscale>  2 0.19021566E+03</rscale>
<asrwt>0</asrwt>
<pdfrwt beam="1">  1       21 0.66870538E-01 0.19021566E+03</pdfrwt>
<pdfrwt beam="2">  1       21 0.13454282E-01 0.19021566E+03</pdfrwt>
<totfact> 0.97977789E+04</totfact>
</mgrwt>
</event>
<event>
 4    1  0.3973261E+000  0.1879175E+03  0.7546771E-02  0.1160353E+00
         21   -1    0    0  503  502  0.00000000000E+00  0.00000000000E+00  0.37826768908E+02  0.37826768908E+02  0.00000000000E+00 0.  1.
         21   -1    0    0  501  503 -0.00000000000E+00 -0.00000000000E+00 -0.93507974147E+03  0.93507974147E+03  0.00000000000E+00 0. -1.
          6    1    1    2  501    0 -0.36873370050E+02 -0.63437820084E+02 -0.46833217194E+03  0.50462662009E+03  0.17300000000E+03 0.  1.
         -6    1    1    2    0  502  0.36873370050E+02  0.63437820084E+02 -0.42892080063E+03  0.46827989029E+03  0.17300000000E+03 0.  1.
<mgrwt>
<rscale>  2 0.18791754E+03</rscale>
<asrwt>0</asrwt>
<pdfrwt beam="1">  1       21 0.58195034E-02 0.18791754E+03</pdfrwt>
<pdfrwt beam="2">  1       21 0.14385841E+00 0.18791754E+03</pdfrwt>
<totfact> 0.69445161E+04</totfact>
</mgrwt>
</event>
<event>
 4    1  0.3973261E+000  0.1850890E+03  0.7546771E-02  0.1162967E+00
         21   -1    0    0  503  502  0.00000000000E+00  0.00000000000E+00  0.12987733479E+03  0.12987733479E+03  0.00000000000E+00 0. -1.
         21   -1    0    0  501  503 -0.00000000000E+00 -0.00000000000E+00 -0.26551055346E+03  0.26551055346E+03  0.00000000000E+00 0. -1.
          6    1    1    2  501    0  0.96139038797E+01  0.65088557907E+02 -0.83815915435E+02  0.20318232009E+03  0.17300000000E+03 0. -1.
         -6    1    1    2    0  502 -0.96139038797E+01 -0.65088557907E+02 -0.51817303237E+02  0.19220556816E+03  0.17300000000E+03 0. -1.
<mgrwt>
<rscale>  2 0.18508903E+03</rscale>
<asrwt>0</asrwt>
<pdfrwt beam="1">  1       21 0.19981129E-01 0.18508903E+03</pdfrwt>
<pdfrwt beam="2">  1       21 0.40847777E-01 0.18508903E+03</pdfrwt>
<totfact> 0.13383930E+05</totfact>
</mgrwt>
</event>
<event>
 4    1  0.3973261E+000  0.1889209E+03  0.7546771E-02  0.1159438E+00
         21   -1    0    0  503  502  0.00000000000E+00  0.00000000000E+00  0.41555425647E+03  0.41555425647E+03  0.00000000000E+00 0. -1.
         21   -1    0    0  501  503 -0.00000000000E+00 -0.00000000000E+00 -0.85983940272E+02  0.85983940272E+02  0.00000000000E+00 0. -1.
          6    1    1    2  501    0  0.74164161234E+02  0.16179832129E+02  0.15640710420E+03  0.24526371934E+03  0.17300000000E+03 0. -1.
         -6    1    1    2    0  502 -0.74164161234E+02 -0.16179832129E+02  0.17316321200E+03  0.25627447740E+03  0.17300000000E+03 0. -1.
<mgrwt>
<rscale>  2 0.18892091E+03</rscale>
<asrwt>0</asrwt>
<pdfrwt beam="1">  1       21 0.63931423E-01 0.18892091E+03</pdfrwt>
<pdfrwt beam="2">  1       21 0.13228299E-01 0.18892091E+03</pdfrwt>
<totfact> 0.11145821E+05</totfact>
</mgrwt>
</event>
<event>
 4    1  0.3973261E+000  0.1917889E+03  0.7546771E-02  0.1156858E+00
         21   -1    0    0  501  502  0.00000000000E+00  0.00000000000E+00  0.25350228509E+03  0.25350228509E+03  0.00000000000E+00 0. -1.
         21   -1    0    0  502  503 -0.00000000000E+00 -0.00000000000E+00 -0.17554303884E+03  0.17554303884E+03  0.00000000000E+00 0. -1.
          6    1    1    2  501    0 -0.18683414842E+01  0.82767630028E+02  0.12831660761E+03  0.23075554829E+03  0.17300000000E+03 0. -1.
         -6    1    1    2    0  503  0.18683414842E+01 -0.82767630028E+02 -0.50357361347E+02  0.19828977564E+03  0.17300000000E+03 0. -1.
<mgrwt>
<rscale>  2 0.19178887E+03</rscale>
<asrwt>0</asrwt>
<pdfrwt beam="1">  1       21 0.39000352E-01 0.19178887E+03</pdfrwt>
<pdfrwt beam="2">  1       21 0.27006621E-01 0.19178887E+03</pdfrwt>
<totfact> 0.82838833E+04</totfact>
</mgrwt>
</event>
<event>
 4    1  0.3973261E+000  0.2226755E+03  0.7546771E-02  0.1131904E+00
         21   -1    0    0  501  502  0.00000000000E+00  0.00000000000E+00  0.43124579124E+03  0.43124579124E+03  0.00000000000E+00 0.  1.
         21   -1    0    0  502  503 -0.00000000000E+00 -0.00000000000E+00 -0.11632031644E+03  0.11632031644E+03  0.00000000000E+00 0.  1.
          6    1    1    2  501    0 -0.12347758260E+03  0.66397791140E+02  0.18685821236E+03  0.29068947624E+03  0.17300000000E+03 0.  1.
         -6    1    1    2    0  503  0.12347758260E+03 -0.66397791140E+02  0.12806726244E+03  0.25687663144E+03  0.17300000000E+03 0.  1.
<mgrwt>
<rscale>  2 0.22267550E+03</rscale>
<asrwt>0</asrwt>
<pdfrwt beam="1">  1       21 0.66345506E-01 0.22267550E+03</pdfrwt>
<pdfrwt beam="2">  1       21 0.17895434E-01 0.22267550E+03</pdfrwt>
<totfact> 0.58341555E+04</totfact>
</mgrwt>
</event>
<event>
 4    1  0.3973261E+000  0.1778618E+03  0.7546771E-02  0.1169889E+00
         21   -1    0    0  503  502  0.00000000000E+00  0.00000000000E+00  0.70654050400E+02  0.70654050400E+02  0.00000000000E+00 0. -1.
         21   -1    0    0  501  503 -0.00000000000E+00 -0.00000000000E+00 -0.47918918389E+03  0.47918918389E+03  0.00000000000E+00 0. -1.
          6    1    1    2  501    0  0.41240195651E+02  0.22528807273E+01 -0.27469502705E+03  0.32724942642E+03  0.17300000000E+03 0. -1.
         -6    1    1    2    0  502 -0.41240195651E+02 -0.22528807273E+01 -0.13384010644E+03  0.22259380787E+03  0.17300000000E+03 0. -1.
<mgrwt>
<rscale>  2 0.17786183E+03</rscale>
<asrwt>0</asrwt>
<pdfrwt beam="1">  1       21 0.10869854E-01 0.17786183E+03</pdfrwt>
<pdfrwt beam="2">  1       21 0.73721413E-01 0.17786183E+03</pdfrwt>
<totfact> 0.11627913E+05</totfact>
</mgrwt>
</event>
<event>
 4    1  0.3973261E+000  0.2763039E+03  0.7546771E-02  0.1097725E+00
         21   -1    0    0  501  502  0.00000000000E+00  0.00000000000E+00  0.33351732321E+03  0.33351732321E+03  0.00000000000E+00 0.  1.
         21   -1    0    0  502  503 -0.00000000000E+00 -0.00000000000E+00 -0.32987688721E+03  0.32987688721E+03  0.00000000000E+00 0.  1.
          6    1    1    2  501    0 -0.19883789513E+03 -0.82935604048E+02  0.18533274506E+03  0.33270414688E+03  0.17300000000E+03 0.  1.
         -6    1    1    2    0  503  0.19883789513E+03  0.82935604048E+02 -0.18169230905E+03  0.33069006355E+03  0.17300000000E+03 0.  1.
<mgrwt>
<rscale>  2 0.27630386E+03</rscale>
<asrwt>0</asrwt>
<pdfrwt beam="1">  1       21 0.51310357E-01 0.27630386E+03</pdfrwt>
<pdfrwt beam="2">  1       21 0.50750290E-01 0.27630386E+03</pdfrwt>
<totfact> 0.12720185E+04</totfact>
</mgrwt>
</event>
<event>
 4    1  0.3973261E+000  0.2192370E+03  0.7546771E-02  0.1134453E+00
         21   -1    0    0  503  502  0.00000000000E+00  0.00000000000E+00  0.33467929359E+03  0.33467929359E+03  0.00000000000E+00 0.  1.
         21   -1    0    0  501  503 -0.00000000000E+00 -0.00000000000E+00 -0.14415123526E+03  0.14415123526E+03  0.00000000000E+00 0.  1.
          6    1    1    2  501    0  0.13368577913E+03 -0.16247069571E+02  0.80657207285E+02  0.23360316757E+03  0.17300000000E+03 0.  1.
         -6    1    1    2    0  502 -0.13368577913E+03  0.16247069571E+02  0.10987085105E+03  0.24522736128E+03  0.17300000000E+03 0.  1.
<mgrwt>
<rscale>  2 0.21923698E+03</rscale>
<asrwt>0</asrwt>
<pdfrwt beam="1">  1       21 0.51489122E-01 0.21923698E+03</pdfrwt>
<pdfrwt beam="2">  1       21 0.22177113E-01 0.21923698E+03</pdfrwt>
<totfact> 0.67345486E+04</totfact>
</mgrwt>
</event>
<event>
 4    1  0.3973261E+000  0.1861693E+03  0.7546771E-02  0.1161962E+00
         21   -1    0    0  501  502  0.00000000000E+00  0.00000000000E+00  0.50235168575E+03  0.50235168575E+03  0.00000000000E+00 0.  1.
         21   -1    0    0  502  503 -0.00000000000E+00 -0.00000000000E+00 -0.10245411995E+03  0.10245411995E+03  0.00000000000E+00 0.  1.
          6    1    1    2  501    0 -0.66958776507E+02 -0.15701143278E+02  0.37276647454E+03  0.41666995115E+03  0.17300000000E+03 0.  1.
         -6    1    1    2    0  503  0.66958776507E+02  0.15701143278E+02  0.27131091252E+02  0.18813585454E+03  0.17300000000E+03 0.  1.
<mgrwt>
<rscale>  2 0.18616929E+03</rscale>
<asrwt>0</asrwt>
<pdfrwt beam="1">  1       21 0.77284873E-01 0.18616929E+03</pdfrwt>
<pdfrwt beam="2">  1       21 0.15762173E-01 0.18616929E+03</pdfrwt>
<totfact> 0.53437648E+04</totfact>
</mgrwt>
</event>
<event>
 4    1  0.3973261E+000  0.1942528E+03  0.7546771E-02  0.1154681E+00
         21   -1    0    0  501  502  0.00000000000E+00  0.00000000000E+00  0.33970048622E+03  0.33970048622E+03  0.00000000000E+00 0.  1.
         21   -1    0    0  502  503 -0.00000000000E+00 -0.00000000000E+00 -0.11109439334E+03  0.11109439334E+03  0.00000000000E+00 0.  1.
          6    1    1    2  501    0  0.69666621573E+02  0.54329736926E+02  0.11680795787E+03  0.22666772487E+03  0.17300000000E+03 0.  1.
         -6    1    1    2    0  503 -0.69666621573E+02 -0.54329736926E+02  0.11179813502E+03  0.22412715469E+03  0.17300000000E+03 0.  1.
<mgrwt>
<rscale>  2 0.19425282E+03</rscale>
<asrwt>0</asrwt>
<pdfrwt beam="1">  1       21 0.52261613E-01 0.19425282E+03</pdfrwt>
<pdfrwt beam="2">  1       21 0.17091445E-01 0.19425282E+03</pdfrwt>
<totfact> 0.10723950E+05</totfact>
</mgrwt>
</event>
<event>
 4    1  0.3973261E+000  0.2309845E+03  0.7546771E-02  0.1125949E+00
         21   -1    0    0  501  502  0.00000000000E+00  0.00000000000E+00  0.16351332872E+03  0.16351332872E+03  0.00000000000E+00 0. -1.
         21   -1    0    0  502  503 -0.00000000000E+00 -0.00000000000E+00 -0.63642676052E+03  0.63642676052E+03  0.00000000000E+00 0. -1.
          6    1    1    2  501    0  0.16275726467E+02 -0.15218392624E+03  0.42749599432E+02  0.23490716236E+03  0.17300000000E+03 0. -1.
         -6    1    1    2    0  503 -0.16275726467E+02  0.15218392624E+03 -0.51566303123E+03  0.56503292688E+03  0.17300000000E+03 0. -1.
<mgrwt>
<rscale>  2 0.23098452E+03</rscale>
<asrwt>0</asrwt>
<pdfrwt beam="1">  1       21 0.25155897E-01 0.23098452E+03</pdfrwt>
<pdfrwt beam="2">  1       21 0.97911808E-01 0.23098452E+03</pdfrwt>
<totfact> 0.12603667E+04</totfact>
</mgrwt>
</event>
<event>
 4    1  0.3973261E+000  0.1933574E+03  0.7546771E-02  0.1155468E+00
         21   -1    0    0  501  502  0.00000000000E+00  0.00000000000E+00  0.88313418028E+03  0.88313418028E+03  0.00000000000E+00 0. -1.
         21   -1    0    0  502  503 -0.00000000000E+00 -0.00000000000E+00 -0.17235413008E+03  0.17235413008E+03  0.00000000000E+00 0.  1.
          6    1    1    2  501    0 -0.56792120307E+02 -0.65059424431E+02  0.81376087586E+03  0.83641726232E+03  0.17300000000E+03 0. -1.
         -6    1    1    2    0  503  0.56792120307E+02  0.65059424431E+02 -0.10298082566E+03  0.21907104804E+03  0.17300000000E+03 0.  1.
<mgrwt>
<rscale>  2 0.19335737E+03</rscale>
<asrwt>0</asrwt>
<pdfrwt beam="1">  1       21 0.13586679E+00 0.19335737E+03</pdfrwt>
<pdfrwt beam="2">  1       21 0.26516021E-01 0.19335737E+03</pdfrwt>
<totfact> 0.52271334E+03</totfact>
</mgrwt>
</event>
<event>
 4    1  0.3973261E+000  0.1908568E+03  0.7546771E-02  0.1157691E+00
         21   -1    0    0  501  502  0.00000000000E+00  0.00000000000E+00  0.14035710227E+04  0.14035710227E+04  0.00000000000E+00 0. -1.
         21   -1    0    0  502  503 -0.00000000000E+00 -0.00000000000E+00 -0.11342186217E+03  0.11342186217E+03  0.00000000000E+00 0. -1.
          6    1    1    2  501    0  0.33816837828E+02  0.73169140283E+02  0.13111645914E+04  0.13249825988E+04  0.17300000000E+03 0. -1.
         -6    1    1    2    0  503 -0.33816837828E+02 -0.73169140283E+02 -0.21015430823E+02  0.19201028603E+03  0.17300000000E+03 0. -1.
<mgrwt>
<rscale>  2 0.19085676E+03</rscale>
<asrwt>0</asrwt>
<pdfrwt beam="1">  1       21 0.21593399E+00 0.19085676E+03</pdfrwt>
<pdfrwt beam="2">  1       21 0.17449518E-01 0.19085676E+03</pdfrwt>
<totfact> 0.31745836E+03</totfact>
</mgrwt>
</event>
<event>
 4    1  0.3973261E+000  0.1940611E+03  0.7546771E-02  0.1154849E+00
         21   -1    0    0  503  502  0.00000000000E+00  0.00000000000E+00  0.10143588284E+04  0.10143588284E+04  0.00000000000E+00 0.  1.
         21   -1    0    0  501  503 -0.00000000000E+00 -0.00000000000E+00 -0.37243264212E+02  0.37243264212E+02  0.00000000000E+00 0. -1.
          6    1    1    2  501    0 -0.69369909615E+02  0.54023378619E+02  0.45913130368E+03  0.49845888879E+03  0.17300000000E+03 0.  1.
         -6    1    1    2    0  502  0.69369909615E+02 -0.54023378619E+02  0.51798426052E+03  0.55314320383E+03  0.17300000000E+03 0. -1.
<mgrwt>
<rscale>  2 0.19406110E+03</rscale>
<asrwt>0</asrwt>
<pdfrwt beam="1">  1       21 0.15605518E+00 0.19406110E+03</pdfrwt>
<pdfrwt beam="2">  1       21 0.57297337E-02 0.19406110E+03</pdfrwt>
<totfact> 0.57378582E+04</totfact>
</mgrwt>
</event>
<event>
 4    1  0.3973261E+000  0.1873607E+03  0.7546771E-02  0.1160864E+00
         21   -1    0    0  503  502  0.00000000000E+00  0.00000000000E+00  0.11220569041E+04  0.11220569041E+04  0.00000000000E+00 0. -1.
         21   -1    0    0  501  503 -0.00000000000E+00 -0.00000000000E+00 -0.32816379444E+02  0.32816379444E+02  0.00000000000E+00 0. -1.
          6    1    1    2  501    0  0.66288889094E+02  0.27943172273E+02  0.41989948651E+03  0.45980388913E+03  0.17300000000E+03 0. -1.
         -6    1    1    2    0  502 -0.66288889094E+02 -0.27943172273E+02  0.66934103815E+03  0.69506939441E+03  0.17300000000E+03 0. -1.
<mgrwt>
<rscale>  2 0.18736072E+03</rscale>
<asrwt>0</asrwt>
<pdfrwt beam="1">  1       21 0.17262411E+00 0.18736072E+03</pdfrwt>
<pdfrwt beam="2">  1       21 0.50486746E-02 0.18736072E+03</pdfrwt>
<totfact> 0.54293760E+04</totfact>
</mgrwt>
</event>
<event>
 4    1  0.3973261E+000  0.2064998E+03  0.7546771E-02  0.1144368E+00
         21   -1    0    0  501  502  0.00000000000E+00  0.00000000000E+00  0.45847597886E+03  0.45847597886E+03  0.00000000000E+00 0. -1.
         21   -1    0    0  502  503 -0.00000000000E+00 -0.00000000000E+00 -0.17566769423E+03  0.17566769423E+03  0.00000000000E+00 0. -1.
          6    1    1    2  501    0 -0.87820091407E+02 -0.70716234110E+02  0.35890318620E+03  0.41406962131E+03  0.17300000000E+03 0. -1.
         -6    1    1    2    0  503  0.87820091407E+02  0.70716234110E+02 -0.76094901576E+02  0.22007405178E+03  0.17300000000E+03 0. -1.
<mgrwt>
<rscale>  2 0.20649977E+03</rscale>
<asrwt>0</asrwt>
<pdfrwt beam="1">  1       21 0.70534765E-01 0.20649977E+03</pdfrwt>
<pdfrwt beam="2">  1       21 0.27025799E-01 0.20649977E+03</pdfrwt>
<totfact> 0.23578216E+04</totfact>
</mgrwt>
</event>
<event>
 4    1  0.3973261E+000  0.1750448E+03  0.7546771E-02  0.1172687E+00
         21   -1    0    0  501  502  0.00000000000E+00  0.00000000000E+00  0.40353778041E+03  0.40353778041E+03  0.00000000000E+00 0. -1.
         21   -1    0    0  502  503 -0.00000000000E+00 -0.00000000000E+00 -0.89744153386E+02  0.89744153386E+02  0.00000000000E+00 0. -1.
          6    1    1    2  501    0  0.26473143507E+02 -0.32972820483E+01  0.25366248592E+03  0.30819694379E+03  0.17300000000E+03 0. -1.
         -6    1    1    2    0  503 -0.26473143507E+02  0.32972820483E+01  0.60131141102E+02  0.18508499001E+03  0.17300000000E+03 0. -1.
<mgrwt>
<rscale>  2 0.17504485E+03</rscale>
<asrwt>0</asrwt>
<pdfrwt beam="1">  1       21 0.62082734E-01 0.17504485E+03</pdfrwt>
<pdfrwt beam="2">  1       21 0.13806793E-01 0.17504485E+03</pdfrwt>
<totfact> 0.11050585E+05</totfact>
</mgrwt>
</event>
<event>
 4    1  0.3973261E+000  0.1872034E+03  0.7546771E-02  0.1161008E+00
         21   -1    0    0  503  502  0.00000000000E+00  0.00000000000E+00  0.12164974913E+03  0.12164974913E+03  0.00000000000E+00 0. -1.
         21   -1    0    0  501  503 -0.00000000000E+00 -0.00000000000E+00 -0.17608474306E+04  0.17608474306E+04  0.00000000000E+00 0. -1.
          6    1    1    2  501    0  0.51925920559E+02  0.49191682660E+02 -0.16804146638E+04  0.16908100323E+04  0.17300000000E+03 0. -1.
         -6    1    1    2    0  502 -0.51925920559E+02 -0.49191682660E+02  0.41216982334E+02  0.19168714746E+03  0.17300000000E+03 0. -1.
<mgrwt>
<rscale>  2 0.18720343E+03</rscale>
<asrwt>0</asrwt>
<pdfrwt beam="1">  1       21 0.18715347E-01 0.18720343E+03</pdfrwt>
<pdfrwt beam="2">  1       21 0.27089960E+00 0.18720343E+03</pdfrwt>
<totfact> 0.13211254E+03</totfact>
</mgrwt>
</event>
<event>
 4    1  0.3973261E+000  0.1794562E+03  0.7546771E-02  0.1168330E+00
         21   -1    0    0  501  502  0.00000000000E+00  0.00000000000E+00  0.25122811374E+02  0.25122811374E+02  0.00000000000E+00 0. -1.
         21   -1    0    0  502  503 -0.00000000000E+00 -0.00000000000E+00 -0.12830045870E+04  0.12830045870E+04  0.00000000000E+00 0. -1.
          6    1    1    2  501    0  0.45485746602E+02 -0.14373178534E+02 -0.60961496470E+03  0.63548009142E+03  0.17300000000E+03 0.  1.
         -6    1    1    2    0  503 -0.45485746602E+02  0.14373178534E+02 -0.64826681097E+03  0.67264730700E+03  0.17300000000E+03 0.  1.
<mgrwt>
<rscale>  2 0.17945624E+03</rscale>
<asrwt>0</asrwt>
<pdfrwt beam="1">  1       21 0.38650479E-02 0.17945624E+03</pdfrwt>
<pdfrwt beam="2">  1       21 0.19738532E+00 0.17945624E+03</pdfrwt>
<totfact> 0.58419020E+04</totfact>
</mgrwt>
</event>
<event>
 4    1  0.3973261E+000  0.2795765E+03  0.7546771E-02  0.1095920E+00
         21   -1    0    0  503  502  0.00000000000E+00  0.00000000000E+00  0.40982595166E+03  0.40982595166E+03  0.00000000000E+00 0. -1.
         21   -1    0    0  501  503 -0.00000000000E+00 -0.00000000000E+00 -0.41292541152E+03  0.41292541152E+03  0.00000000000E+00 0. -1.
          6    1    1    2  501    0 -0.20674301753E+03  0.74103709914E+02 -0.30332084684E+03  0.41251251041E+03  0.17300000000E+03 0. -1.
         -6    1    1    2    0  502  0.20674301753E+03 -0.74103709914E+02  0.30022138698E+03  0.41023885277E+03  0.17300000000E+03 0. -1.
<mgrwt>
<rscale>  2 0.27957653E+03</rscale>
<asrwt>0</asrwt>
<pdfrwt beam="1">  1       21 0.63050146E-01 0.27957653E+03</pdfrwt>
<pdfrwt beam="2">  1       21 0.63526986E-01 0.27957653E+03</pdfrwt>
<totfact> 0.50370270E+03</totfact>
</mgrwt>
</event>
<event>
 4    1  0.3973261E+000  0.1812870E+03  0.7546771E-02  0.1166563E+00
         21   -1    0    0  503  502  0.00000000000E+00  0.00000000000E+00  0.62549933709E+03  0.62549933709E+03  0.00000000000E+00 0. -1.
         21   -1    0    0  501  503 -0.00000000000E+00 -0.00000000000E+00 -0.57088005008E+02  0.57088005008E+02  0.00000000000E+00 0.  1.
          6    1    1    2  501    0 -0.49997449123E+02  0.20885754491E+02  0.18789535600E+03  0.26109313370E+03  0.17300000000E+03 0.  1.
         -6    1    1    2    0  502  0.49997449123E+02 -0.20885754491E+02  0.38051597607E+03  0.42149420839E+03  0.17300000000E+03 0. -1.
<mgrwt>
<rscale>  2 0.18128695E+03</rscale>
<asrwt>0</asrwt>
<pdfrwt beam="1">  1       21 0.96230662E-01 0.18128695E+03</pdfrwt>
<pdfrwt beam="2">  1       21 0.87827704E-02 0.18128695E+03</pdfrwt>
<totfact> 0.92075041E+04</totfact>
</mgrwt>
</event>
<event>
 4    1  0.3973261E+000  0.1753665E+03  0.7546771E-02  0.1172364E+00
         21   -1    0    0  501  502  0.00000000000E+00  0.00000000000E+00  0.95953453500E+02  0.95953453500E+02  0.00000000000E+00 0.  1.
         21   -1    0    0  502  503 -0.00000000000E+00 -0.00000000000E+00 -0.33274493820E+03  0.33274493820E+03  0.00000000000E+00 0.  1.
          6    1    1    2  501    0 -0.51284685211E+01  0.28250818739E+02 -0.77282305586E+02  0.19164019595E+03  0.17300000000E+03 0.  1.
         -6    1    1    2    0  503  0.51284685211E+01 -0.28250818739E+02 -0.15950917912E+03  0.23705819575E+03  0.17300000000E+03 0.  1.
<mgrwt>
<rscale>  2 0.17536650E+03</rscale>
<asrwt>0</asrwt>
<pdfrwt beam="1">  1       21 0.14762070E-01 0.17536650E+03</pdfrwt>
<pdfrwt beam="2">  1       21 0.51191528E-01 0.17536650E+03</pdfrwt>
<totfact> 0.14734367E+05</totfact>
</mgrwt>
</event>
<event>
 4    1  0.3973261E+000  0.1751532E+03  0.7546771E-02  0.1172578E+00
         21   -1    0    0  501  502  0.00000000000E+00  0.00000000000E+00  0.50669212815E+03  0.50669212815E+03  0.00000000000E+00 0. -1.
         21   -1    0    0  502  503 -0.00000000000E+00 -0.00000000000E+00 -0.61239863590E+02  0.61239863590E+02  0.00000000000E+00 0. -1.
          6    1    1    2  501    0  0.26086163190E+02 -0.83161047983E+01  0.25293257309E+03  0.30765814151E+03  0.17300000000E+03 0. -1.
         -6    1    1    2    0  503 -0.26086163190E+02  0.83161047983E+01  0.19251969148E+03  0.26027385023E+03  0.17300000000E+03 0. -1.
<mgrwt>
<rscale>  2 0.17515321E+03</rscale>
<asrwt>0</asrwt>
<pdfrwt beam="1">  1       21 0.77952632E-01 0.17515321E+03</pdfrwt>
<pdfrwt beam="2">  1       21 0.94215178E-02 0.17515321E+03</pdfrwt>
<totfact> 0.13225957E+05</totfact>
</mgrwt>
</event>
<event>
 4    1  0.3973261E+000  0.2728051E+03  0.7546771E-02  0.1099685E+00
         21   -1    0    0  501  502  0.00000000000E+00  0.00000000000E+00  0.52347249647E+03  0.52347249647E+03  0.00000000000E+00 0. -1.
         21   -1    0    0  502  503 -0.00000000000E+00 -0.00000000000E+00 -0.14648656923E+03  0.14648656923E+03  0.00000000000E+00 0.  1.
          6    1    1    2  501    0 -0.99649939063E+01  0.21069963986E+03  0.24598867190E+03  0.36733236455E+03  0.17300000000E+03 0.  1.
         -6    1    1    2    0  503  0.99649939063E+01 -0.21069963986E+03  0.13099725534E+03  0.30262670115E+03  0.17300000000E+03 0. -1.
<mgrwt>
<rscale>  2 0.27280513E+03</rscale>
<asrwt>0</asrwt>
<pdfrwt beam="1">  1       21 0.80534229E-01 0.27280513E+03</pdfrwt>
<pdfrwt beam="2">  1       21 0.22536396E-01 0.27280513E+03</pdfrwt>
<totfact> 0.23990974E+04</totfact>
</mgrwt>
</event>
<event>
 4    1  0.3973261E+000  0.2148841E+03  0.7546771E-02  0.1137756E+00
         21   -1    0    0  501  502  0.00000000000E+00  0.00000000000E+00  0.52818401524E+03  0.52818401524E+03  0.00000000000E+00 0.  1.
         21   -1    0    0  502  503 -0.00000000000E+00 -0.00000000000E+00 -0.21851518563E+03  0.21851518563E+03  0.00000000000E+00 0. -1.
          6    1    1    2  501    0 -0.12135163697E+03 -0.38986353480E+02  0.44401167962E+03  0.49327631931E+03  0.17300000000E+03 0.  1.
         -6    1    1    2    0  503  0.12135163697E+03  0.38986353480E+02 -0.13434285001E+03  0.25342288157E+03  0.17300000000E+03 0. -1.
<mgrwt>
<rscale>  2 0.21488405E+03</rscale>
<asrwt>0</asrwt>
<pdfrwt beam="1">  1       21 0.81259079E-01 0.21488405E+03</pdfrwt>
<pdfrwt beam="2">  1       21 0.33617721E-01 0.21488405E+03</pdfrwt>
<totfact> 0.11148606E+04</totfact>
</mgrwt>
</event>
<event>
 4    1  0.3973261E+000  0.3489785E+03  0.7546771E-02  0.1063035E+00
         21   -1    0    0  503  502  0.00000000000E+00  0.00000000000E+00  0.77194077662E+03  0.77194077662E+03  0.00000000000E+00 0.  1.
         21   -1    0    0  501  503 -0.00000000000E+00 -0.00000000000E+00 -0.16287967732E+03  0.16287967732E+03  0.00000000000E+00 0. -1.
          6    1    1    2  501    0 -0.18840447379E+03 -0.23740416919E+03  0.38735006802E+03  0.52136940885E+03  0.17300000000E+03 0. -1.
         -6    1    1    2    0  502  0.18840447379E+03  0.23740416919E+03  0.22171103129E+03  0.41345104509E+03  0.17300000000E+03 0.  1.
<mgrwt>
<rscale>  2 0.34897849E+03</rscale>
<asrwt>0</asrwt>
<pdfrwt beam="1">  1       21 0.11876012E+00 0.34897849E+03</pdfrwt>
<pdfrwt beam="2">  1       21 0.25058412E-01 0.34897849E+03</pdfrwt>
<totfact> 0.74811492E+03</totfact>
</mgrwt>
</event>
<event>
 4    1  0.3973261E+000  0.2076258E+03  0.7546771E-02  0.1143460E+00
         21   -1    0    0  501  502  0.00000000000E+00  0.00000000000E+00  0.20825901298E+03  0.20825901298E+03  0.00000000000E+00 0. -1.
         21   -1    0    0  502  503 -0.00000000000E+00 -0.00000000000E+00 -0.21784533414E+03  0.21784533414E+03  0.00000000000E+00 0. -1.
          6    1    1    2  501    0 -0.11467655312E+03  0.53631565380E+01  0.42756006950E+02  0.21198243185E+03  0.17300000000E+03 0. -1.
         -6    1    1    2    0  503  0.11467655312E+03 -0.53631565380E+01 -0.52342328103E+02  0.21412191526E+03  0.17300000000E+03 0. -1.
<mgrwt>
<rscale>  2 0.20762581E+03</rscale>
<asrwt>0</asrwt>
<pdfrwt beam="1">  1       21 0.32039848E-01 0.20762581E+03</pdfrwt>
<pdfrwt beam="2">  1       21 0.33514667E-01 0.20762581E+03</pdfrwt>
<totfact> 0.79827317E+04</totfact>
</mgrwt>
</event>
<event>
 4    1  0.3973261E+000  0.1811262E+03  0.7546771E-02  0.1166717E+00
         21   -1    0    0  503  502  0.00000000000E+00  0.00000000000E+00  0.64638759958E+03  0.64638759958E+03  0.00000000000E+00 0. -1.
         21   -1    0    0  501  503 -0.00000000000E+00 -0.00000000000E+00 -0.72633241672E+02  0.72633241672E+02  0.00000000000E+00 0. -1.
          6    1    1    2  501    0  0.47104481057E+02  0.25668699214E+02  0.89561976858E+02  0.20205955051E+03  0.17300000000E+03 0. -1.
         -6    1    1    2    0  502 -0.47104481057E+02 -0.25668699214E+02  0.48419238105E+03  0.51696129074E+03  0.17300000000E+03 0. -1.
<mgrwt>
<rscale>  2 0.18112624E+03</rscale>
<asrwt>0</asrwt>
<pdfrwt beam="1">  1       21 0.99444242E-01 0.18112624E+03</pdfrwt>
<pdfrwt beam="2">  1       21 0.11174345E-01 0.18112624E+03</pdfrwt>
<totfact> 0.55748155E+04</totfact>
</mgrwt>
</event>
<event>
 4    1  0.3973261E+000  0.2651947E+03  0.7546771E-02  0.1104062E+00
         21   -1    0    0  503  502  0.00000000000E+00  0.00000000000E+00  0.10442877173E+04  0.10442877173E+04  0.00000000000E+00 0. -1.
         21   -1    0    0  501  503 -0.00000000000E+00 -0.00000000000E+00 -0.80386315054E+02  0.80386315054E+02  0.00000000000E+00 0. -1.
          6    1    1    2  501    0 -0.13687032866E+03 -0.14719293731E+03  0.25545744168E+03  0.36822106427E+03  0.17300000000E+03 0. -1.
         -6    1    1    2    0  502  0.13687032866E+03  0.14719293731E+03  0.70844396061E+03  0.75645296813E+03  0.17300000000E+03 0. -1.
<mgrwt>
<rscale>  2 0.26519474E+03</rscale>
<asrwt>0</asrwt>
<pdfrwt beam="1">  1       21 0.16065964E+00 0.26519474E+03</pdfrwt>
<pdfrwt beam="2">  1       21 0.12367126E-01 0.26519474E+03</pdfrwt>
<totfact> 0.13204991E+04</totfact>
</mgrwt>
</event>
<event>
 4    1  0.3973261E+000  0.2031722E+03  0.7546771E-02  0.1147090E+00
         21   -1    0    0  503  502  0.00000000000E+00  0.00000000000E+00  0.72636209432E+03  0.72636209432E+03  0.00000000000E+00 0. -1.
         21   -1    0    0  501  503 -0.00000000000E+00 -0.00000000000E+00 -0.59738435741E+02  0.59738435741E+02  0.00000000000E+00 0. -1.
          6    1    1    2  501    0  0.40398361187E+02  0.98579471185E+02  0.24658103514E+03  0.31950140315E+03  0.17300000000E+03 0. -1.
         -6    1    1    2    0  502 -0.40398361187E+02 -0.98579471185E+02  0.42004262344E+03  0.46659912691E+03  0.17300000000E+03 0. -1.
<mgrwt>
<rscale>  2 0.20317219E+03</rscale>
<asrwt>0</asrwt>
<pdfrwt beam="1">  1       21 0.11174801E+00 0.20317219E+03</pdfrwt>
<pdfrwt beam="2">  1       21 0.91905291E-02 0.20317219E+03</pdfrwt>
<totfact> 0.58874788E+04</totfact>
</mgrwt>
</event>
<event>
 4    1  0.3973261E+000  0.1786897E+03  0.7546771E-02  0.1169077E+00
         21   -1    0    0  503  502  0.00000000000E+00  0.00000000000E+00  0.79149767424E+02  0.79149767424E+02  0.00000000000E+00 0.  1.
         21   -1    0    0  501  503 -0.00000000000E+00 -0.00000000000E+00 -0.49691588055E+03  0.49691588055E+03  0.00000000000E+00 0.  1.
          6    1    1    2  501    0  0.98211980433E+01  0.43641376239E+02 -0.33382654028E+03  0.37864255525E+03  0.17300000000E+03 0.  1.
         -6    1    1    2    0  502 -0.98211980433E+01 -0.43641376239E+02 -0.83939572847E+02  0.19742309272E+03  0.17300000000E+03 0.  1.
<mgrwt>
<rscale>  2 0.17868975E+03</rscale>
<asrwt>0</asrwt>
<pdfrwt beam="1">  1       21 0.12176887E-01 0.17868975E+03</pdfrwt>
<pdfrwt beam="2">  1       21 0.76448598E-01 0.17868975E+03</pdfrwt>
<totfact> 0.87580599E+04</totfact>
</mgrwt>
</event>
<event>
 4    1  0.3973261E+000  0.2043690E+03  0.7546771E-02  0.1146104E+00
         21   -1    0    0  503  502  0.00000000000E+00  0.00000000000E+00  0.12456583744E+04  0.12456583744E+04  0.00000000000E+00 0. -1.
         21   -1    0    0  501  503 -0.00000000000E+00 -0.00000000000E+00 -0.73863997797E+02  0.73863997797E+02  0.00000000000E+00 0. -1.
          6    1    1    2  501    0  0.77984942359E+02  0.75868591739E+02  0.98360850935E+02  0.22680730024E+03  0.17300000000E+03 0. -1.
         -6    1    1    2    0  502 -0.77984942359E+02 -0.75868591739E+02  0.10734335257E+04  0.10927150720E+04  0.17300000000E+03 0. -1.
<mgrwt>
<rscale>  2 0.20436902E+03</rscale>
<asrwt>0</asrwt>
<pdfrwt beam="1">  1       21 0.19163973E+00 0.20436902E+03</pdfrwt>
<pdfrwt beam="2">  1       21 0.11363693E-01 0.20436902E+03</pdfrwt>
<totfact> 0.97462754E+03</totfact>
</mgrwt>
</event>
<event>
 4    1  0.3973261E+000  0.1871808E+03  0.7546771E-02  0.1161029E+00
         21   -1    0    0  503  502  0.00000000000E+00  0.00000000000E+00  0.29075962120E+03  0.29075962120E+03  0.00000000000E+00 0.  1.
         21   -1    0    0  501  503 -0.00000000000E+00 -0.00000000000E+00 -0.15863016631E+03  0.15863016631E+03  0.00000000000E+00 0.  1.
          6    1    1    2  501    0  0.53449230973E+02 -0.47443051294E+02 -0.44097354587E+02  0.19230507037E+03  0.17300000000E+03 0.  1.
         -6    1    1    2    0  502 -0.53449230973E+02  0.47443051294E+02  0.17622680947E+03  0.25708471714E+03  0.17300000000E+03 0.  1.
<mgrwt>
<rscale>  2 0.18718083E+03</rscale>
<asrwt>0</asrwt>
<pdfrwt beam="1">  1       21 0.44732249E-01 0.18718083E+03</pdfrwt>
<pdfrwt beam="2">  1       21 0.24404641E-01 0.18718083E+03</pdfrwt>
<totfact> 0.76248915E+04</totfact>
</mgrwt>
</event>
<event>
 4    1  0.3973261E+000  0.2473430E+03  0.7546771E-02  0.1114996E+00
         21   -1    0    0  503  502  0.00000000000E+00  0.00000000000E+00  0.60996555449E+03  0.60996555449E+03  0.00000000000E+00 0.  1.
         21   -1    0    0  501  503 -0.00000000000E+00 -0.00000000000E+00 -0.22600800923E+03  0.22600800923E+03  0.00000000000E+00 0. -1.
          6    1    1    2  501    0 -0.43318039024E+02 -0.17138587977E+03 -0.11975572291E+03  0.27480903453E+03  0.17300000000E+03 0.  1.
         -6    1    1    2    0  502  0.43318039024E+02  0.17138587977E+03  0.50371326816E+03  0.56116452918E+03  0.17300000000E+03 0.  1.
<mgrwt>
<rscale>  2 0.24734303E+03</rscale>
<asrwt>0</asrwt>
<pdfrwt beam="1">  1       21 0.93840854E-01 0.24734303E+03</pdfrwt>
<pdfrwt beam="2">  1       21 0.34770463E-01 0.24734303E+03</pdfrwt>
<totfact> 0.73263227E+03</totfact>
</mgrwt>
</event>
<event>
 4    1  0.3973261E+000  0.2009233E+03  0.7546771E-02  0.1148962E+00
         21   -1    0    0  501  502  0.00000000000E+00  0.00000000000E+00  0.35268648421E+03  0.35268648421E+03  0.00000000000E+00 0. -1.
         21   -1    0    0  502  503 -0.00000000000E+00 -0.00000000000E+00 -0.23393145043E+03  0.23393145043E+03  0.00000000000E+00 0. -1.
          6    1    1    2  501    0  0.10188303945E+03  0.78116373549E+01  0.26898387005E+03  0.33574171286E+03  0.17300000000E+03 0. -1.
         -6    1    1    2    0  503 -0.10188303945E+03 -0.78116373549E+01 -0.15022883627E+03  0.25087622177E+03  0.17300000000E+03 0. -1.
<mgrwt>
<rscale>  2 0.20092331E+03</rscale>
<asrwt>0</asrwt>
<pdfrwt beam="1">  1       21 0.54259459E-01 0.20092331E+03</pdfrwt>
<pdfrwt beam="2">  1       21 0.35989454E-01 0.20092331E+03</pdfrwt>
<totfact> 0.23782823E+04</totfact>
</mgrwt>
</event>
<event>
 4    1  0.3973261E+000  0.2763696E+03  0.7546771E-02  0.1097688E+00
         21   -1    0    0  503  502  0.00000000000E+00  0.00000000000E+00  0.93442436185E+02  0.93442436185E+02  0.00000000000E+00 0.  1.
         21   -1    0    0  501  503 -0.00000000000E+00 -0.00000000000E+00 -0.98226491477E+03  0.98226491477E+03  0.00000000000E+00 0. -1.
          6    1    1    2  501    0  0.87158892963E+02  0.19711534876E+03 -0.66475964604E+03  0.71992049585E+03  0.17300000000E+03 0.  1.
         -6    1    1    2    0  502 -0.87158892963E+02 -0.19711534876E+03 -0.22406283255E+03  0.35578685511E+03  0.17300000000E+03 0.  1.
<mgrwt>
<rscale>  2 0.27636956E+03</rscale>
<asrwt>0</asrwt>
<pdfrwt beam="1">  1       21 0.14375759E-01 0.27636956E+03</pdfrwt>
<pdfrwt beam="2">  1       21 0.15111768E+00 0.27636956E+03</pdfrwt>
<totfact> 0.11781425E+04</totfact>
</mgrwt>
</event>
<event>
 4    1  0.3973261E+000  0.3343831E+03  0.7546771E-02  0.1069214E+00
         21   -1    0    0  503  502  0.00000000000E+00  0.00000000000E+00  0.84249359804E+02  0.84249359804E+02  0.00000000000E+00 0.  1.
         21   -1    0    0  501  503 -0.00000000000E+00 -0.00000000000E+00 -0.13426095107E+04  0.13426095107E+04  0.00000000000E+00 0.  1.
          6    1    1    2  501    0 -0.28517983553E+03 -0.23569344829E+02 -0.70572002998E+03  0.78093073530E+03  0.17300000000E+03 0.  1.
         -6    1    1    2    0  502  0.28517983553E+03  0.23569344829E+02 -0.55264012092E+03  0.64592813521E+03  0.17300000000E+03 0.  1.
<mgrwt>
<rscale>  2 0.33438309E+03</rscale>
<asrwt>0</asrwt>
<pdfrwt beam="1">  1       21 0.12961440E-01 0.33438309E+03</pdfrwt>
<pdfrwt beam="2">  1       21 0.20655531E+00 0.33438309E+03</pdfrwt>
<totfact> 0.56441058E+03</totfact>
</mgrwt>
</event>
<event>
 4    1  0.3973261E+000  0.2151918E+03  0.7546771E-02  0.1137519E+00
         21   -1    0    0  503  502  0.00000000000E+00  0.00000000000E+00  0.16587046443E+03  0.16587046443E+03  0.00000000000E+00 0. -1.
         21   -1    0    0  501  503 -0.00000000000E+00 -0.00000000000E+00 -0.70075198639E+03  0.70075198639E+03  0.00000000000E+00 0.  1.
          6    1    1    2  501    0 -0.76500247689E+02  0.10259748410E+03 -0.60352969767E+03  0.64074614912E+03  0.17300000000E+03 0.  1.
         -6    1    1    2    0  502  0.76500247689E+02 -0.10259748410E+03  0.68648175709E+02  0.22587630170E+03  0.17300000000E+03 0. -1.
<mgrwt>
<rscale>  2 0.21519185E+03</rscale>
<asrwt>0</asrwt>
<pdfrwt beam="1">  1       21 0.25518533E-01 0.21519185E+03</pdfrwt>
<pdfrwt beam="2">  1       21 0.10780800E+00 0.21519185E+03</pdfrwt>
<totfact> 0.98301737E+03</totfact>
</mgrwt>
</event>
<event>
 4    1  0.3973261E+000  0.1807600E+03  0.7546771E-02  0.1167070E+00
         21   -1    0    0  503  502  0.00000000000E+00  0.00000000000E+00  0.62424054261E+02  0.62424054261E+02  0.00000000000E+00 0. -1.
         21   -1    0    0  501  503 -0.00000000000E+00 -0.00000000000E+00 -0.85719460989E+03  0.85719460989E+03  0.00000000000E+00 0.  1.
          6    1    1    2  501    0  0.14796662044E+02 -0.50261679625E+02 -0.68430661537E+03  0.70777801710E+03  0.17300000000E+03 0.  1.
         -6    1    1    2    0  502 -0.14796662044E+02  0.50261679625E+02 -0.11046394026E+03  0.21184064705E+03  0.17300000000E+03 0. -1.
<mgrwt>
<rscale>  2 0.18076000E+03</rscale>
<asrwt>0</asrwt>
<pdfrwt beam="1">  1       21 0.96037012E-02 0.18076000E+03</pdfrwt>
<pdfrwt beam="2">  1       21 0.13187609E+00 0.18076000E+03</pdfrwt>
<totfact> 0.36578029E+04</totfact>
</mgrwt>
</event>
<event>
 4    1  0.3973261E+000  0.2930977E+03  0.7546771E-02  0.1088743E+00
         21   -1    0    0  501  502  0.00000000000E+00  0.00000000000E+00  0.55073719093E+03  0.55073719093E+03  0.00000000000E+00 0.  1.
         21   -1    0    0  502  503 -0.00000000000E+00 -0.00000000000E+00 -0.35135567665E+03  0.35135567665E+03  0.00000000000E+00 0. -1.
          6    1    1    2  501    0 -0.20901156374E+03  0.11086683236E+03  0.43603064072E+03  0.52538462857E+03  0.17300000000E+03 0.  1.
         -6    1    1    2    0  503  0.20901156374E+03 -0.11086683236E+03 -0.23664912644E+03  0.37670823901E+03  0.17300000000E+03 0. -1.
<mgrwt>
<rscale>  2 0.29309775E+03</rscale>
<asrwt>0</asrwt>
<pdfrwt beam="1">  1       21 0.84728799E-01 0.29309775E+03</pdfrwt>
<pdfrwt beam="2">  1       21 0.54054719E-01 0.29309775E+03</pdfrwt>
<totfact> 0.36485600E+03</totfact>
</mgrwt>
</event>
<event>
 4    1  0.3973261E+000  0.1730463E+03  0.7546771E-02  0.1174708E+00
         21   -1    0    0  501  502  0.00000000000E+00  0.00000000000E+00  0.27603718275E+03  0.27603718275E+03  0.00000000000E+00 0.  1.
         21   -1    0    0  502  503 -0.00000000000E+00 -0.00000000000E+00 -0.14615311336E+03  0.14615311336E+03  0.00000000000E+00 0.  1.
          6    1    1    2  501    0  0.22674022034E+01 -0.32961899739E+01  0.17211362863E+03  0.24406578445E+03  0.17300000000E+03 0.  1.
         -6    1    1    2    0  503 -0.22674022034E+01  0.32961899739E+01 -0.42229559234E+02  0.17812451166E+03  0.17300000000E+03 0.  1.
<mgrwt>
<rscale>  2 0.17304625E+03</rscale>
<asrwt>0</asrwt>
<pdfrwt beam="1">  1       21 0.42467259E-01 0.17304625E+03</pdfrwt>
<pdfrwt beam="2">  1       21 0.22485094E-01 0.17304625E+03</pdfrwt>
<totfact> 0.99569621E+04</totfact>
</mgrwt>
</event>
<event>
 4    1  0.3973261E+000  0.1884491E+03  0.7546771E-02  0.1159868E+00
         21   -1    0    0  503  502  0.00000000000E+00  0.00000000000E+00  0.13947940567E+03  0.13947940567E+03  0.00000000000E+00 0. -1.
         21   -1    0    0  501  503 -0.00000000000E+00 -0.00000000000E+00 -0.29176156958E+03  0.29176156958E+03  0.00000000000E+00 0. -1.
          6    1    1    2  501    0  0.25658296578E+02  0.70183457110E+02 -0.15308168412E+03  0.24279017247E+03  0.17300000000E+03 0. -1.
         -6    1    1    2    0  502 -0.25658296578E+02 -0.70183457110E+02  0.79952021092E+00  0.18845080278E+03  0.17300000000E+03 0. -1.
<mgrwt>
<rscale>  2 0.18844911E+03</rscale>
<asrwt>0</asrwt>
<pdfrwt beam="1">  1       21 0.21458370E-01 0.18844911E+03</pdfrwt>
<pdfrwt beam="2">  1       21 0.44886396E-01 0.18844911E+03</pdfrwt>
<totfact> 0.96520179E+04</totfact>
</mgrwt>
</event>
<event>
 4    1  0.3973261E+000  0.2350663E+03  0.7546771E-02  0.1123124E+00
         21   -1    0    0  501  502  0.00000000000E+00  0.00000000000E+00  0.18289215917E+03  0.18289215917E+03  0.00000000000E+00 0. -1.
         21   -1    0    0  502  503 -0.00000000000E+00 -0.00000000000E+00 -0.58567598925E+03  0.58567598925E+03  0.00000000000E+00 0. -1.
          6    1    1    2  501    0 -0.19915893205E+02 -0.15789402381E+03  0.65994781714E+02  0.24415461652E+03  0.17300000000E+03 0. -1.
         -6    1    1    2    0  503  0.19915893205E+02  0.15789402381E+03 -0.46877861179E+03  0.52441353189E+03  0.17300000000E+03 0. -1.
<mgrwt>
<rscale>  2 0.23506630E+03</rscale>
<asrwt>0</asrwt>
<pdfrwt beam="1">  1       21 0.28137255E-01 0.23506630E+03</pdfrwt>
<pdfrwt beam="2">  1       21 0.90103999E-01 0.23506630E+03</pdfrwt>
<totfact> 0.12311332E+04</totfact>
</mgrwt>
</event>
<event>
 4    1  0.3973261E+000  0.1872275E+03  0.7546771E-02  0.1160986E+00
         21   -1    0    0  503  502  0.00000000000E+00  0.00000000000E+00  0.61854366159E+03  0.61854366159E+03  0.00000000000E+00 0.  1.
         21   -1    0    0  501  503 -0.00000000000E+00 -0.00000000000E+00 -0.69166569230E+02  0.69166569230E+02  0.00000000000E+00 0.  1.
          6    1    1    2  501    0 -0.61873475444E+02  0.36011103325E+02  0.12854237216E+03  0.22710629222E+03  0.17300000000E+03 0.  1.
         -6    1    1    2    0  502  0.61873475444E+02 -0.36011103325E+02  0.42083472021E+03  0.46060393860E+03  0.17300000000E+03 0.  1.
<mgrwt>
<rscale>  2 0.18722747E+03</rscale>
<asrwt>0</asrwt>
<pdfrwt beam="1">  1       21 0.95160560E-01 0.18722747E+03</pdfrwt>
<pdfrwt beam="2">  1       21 0.10641011E-01 0.18722747E+03</pdfrwt>
<totfact> 0.67239213E+04</totfact>
</mgrwt>
</event>
<event>
 4    1  0.3973261E+000  0.1868818E+03  0.7546771E-02  0.1161304E+00
         21   -1    0    0  501  502  0.00000000000E+00  0.00000000000E+00  0.48707196667E+02  0.48707196667E+02  0.00000000000E+00 0. -1.
         21   -1    0    0  502  503 -0.00000000000E+00 -0.00000000000E+00 -0.87271013907E+03  0.87271013907E+03  0.00000000000E+00 0. -1.
          6    1    1    2  501    0  0.35326235704E+01 -0.70592569272E+02 -0.21742054188E+03  0.28669928897E+03  0.17300000000E+03 0. -1.
         -6    1    1    2    0  503 -0.35326235704E+01  0.70592569272E+02 -0.60658240052E+03  0.63471804676E+03  0.17300000000E+03 0. -1.
<mgrwt>
<rscale>  2 0.18688175E+03</rscale>
<asrwt>0</asrwt>
<pdfrwt beam="1">  1       21 0.74934149E-02 0.18688175E+03</pdfrwt>
<pdfrwt beam="2">  1       21 0.13426310E+00 0.18688175E+03</pdfrwt>
<totfact> 0.53718115E+04</totfact>
</mgrwt>
</event>
<event>
 4    1  0.3973261E+000  0.2547171E+03  0.7546771E-02  0.1110359E+00
         21   -1    0    0  503  502  0.00000000000E+00  0.00000000000E+00  0.48586837623E+03  0.48586837623E+03  0.00000000000E+00 0. -1.
         21   -1    0    0  501  503 -0.00000000000E+00 -0.00000000000E+00 -0.13445681714E+03  0.13445681714E+03  0.00000000000E+00 0.  1.
          6    1    1    2  501    0  0.11467061823E+03  0.14765650830E+03  0.15003464530E+03  0.29562000933E+03  0.17300000000E+03 0.  1.
         -6    1    1    2    0  502 -0.11467061823E+03 -0.14765650830E+03  0.20137691379E+03  0.32470518403E+03  0.17300000000E+03 0. -1.
<mgrwt>
<rscale>  2 0.25471709E+03</rscale>
<asrwt>0</asrwt>
<pdfrwt beam="1">  1       21 0.74748980E-01 0.25471709E+03</pdfrwt>
<pdfrwt beam="2">  1       21 0.20685665E-01 0.25471709E+03</pdfrwt>
<totfact> 0.33676725E+04</totfact>
</mgrwt>
</event>
<event>
 4    1  0.3973261E+000  0.2032833E+03  0.7546771E-02  0.1146998E+00
         21   -1    0    0  503  502  0.00000000000E+00  0.00000000000E+00  0.23676251409E+03  0.23676251409E+03  0.00000000000E+00 0. -1.
         21   -1    0    0  501  503 -0.00000000000E+00 -0.00000000000E+00 -0.40443027998E+03  0.40443027998E+03  0.00000000000E+00 0. -1.
          6    1    1    2  501    0 -0.11809797437E+02  0.10609245796E+03 -0.32554626493E+03  0.38380262058E+03  0.17300000000E+03 0. -1.
         -6    1    1    2    0  502  0.11809797437E+02 -0.10609245796E+03  0.15787849904E+03  0.25739017349E+03  0.17300000000E+03 0. -1.
<mgrwt>
<rscale>  2 0.20328325E+03</rscale>
<asrwt>0</asrwt>
<pdfrwt beam="1">  1       21 0.36425002E-01 0.20328325E+03</pdfrwt>
<pdfrwt beam="2">  1       21 0.62220043E-01 0.20328325E+03</pdfrwt>
<totfact> 0.17302406E+04</totfact>
</mgrwt>
</event>
<event>
 4    1  0.3973261E+000  0.2563142E+03  0.7546771E-02  0.1109378E+00
         21   -1    0    0  503  502  0.00000000000E+00  0.00000000000E+00  0.57726519407E+03  0.57726519407E+03  0.00000000000E+00 0. -1.
         21   -1    0    0  501  503 -0.00000000000E+00 -0.00000000000E+00 -0.13692291795E+03  0.13692291795E+03  0.00000000000E+00 0. -1.
          6    1    1    2  501    0  0.17304636388E+03 -0.76308200157E+02  0.73448398660E+02  0.26663017970E+03  0.17300000000E+03 0. -1.
         -6    1    1    2    0  502 -0.17304636388E+03  0.76308200157E+02  0.36689387745E+03  0.44755793231E+03  0.17300000000E+03 0. -1.
<mgrwt>
<rscale>  2 0.25631423E+03</rscale>
<asrwt>0</asrwt>
<pdfrwt beam="1">  1       21 0.88810028E-01 0.25631423E+03</pdfrwt>
<pdfrwt beam="2">  1       21 0.21065065E-01 0.25631423E+03</pdfrwt>
<totfact> 0.21926480E+04</totfact>
</mgrwt>
</event>
<event>
 4    1  0.3973261E+000  0.2230996E+03  0.7546771E-02  0.1131593E+00
         21   -1    0    0  501  502  0.00000000000E+00  0.00000000000E+00  0.34067021976E+03  0.34067021976E+03  0.00000000000E+00 0. -1.
         21   -1    0    0  502  503 -0.00000000000E+00 -0.00000000000E+00 -0.14632490214E+03  0.14632490214E+03  0.00000000000E+00 0.  1.
          6    1    1    2  501    0 -0.13870647022E+03 -0.24595982547E+02  0.10662321824E+03  0.24726899908E+03  0.17300000000E+03 0.  1.
         -6    1    1    2    0  503  0.13870647022E+03  0.24595982547E+02  0.87722099389E+02  0.23972612282E+03  0.17300000000E+03 0.  1.
<mgrwt>
<rscale>  2 0.22309964E+03</rscale>
<asrwt>0</asrwt>
<pdfrwt beam="1">  1       21 0.52410803E-01 0.22309964E+03</pdfrwt>
<pdfrwt beam="2">  1       21 0.22511524E-01 0.22309964E+03</pdfrwt>
<totfact> 0.62962371E+04</totfact>
</mgrwt>
</event>
<event>
 4    1  0.3973261E+000  0.1859426E+03  0.7546771E-02  0.1162173E+00
         21   -1    0    0  503  502  0.00000000000E+00  0.00000000000E+00  0.88855720480E+03  0.88855720480E+03  0.00000000000E+00 0. -1.
         21   -1    0    0  501  503 -0.00000000000E+00 -0.00000000000E+00 -0.47955921164E+02  0.47955921164E+02  0.00000000000E+00 0. -1.
          6    1    1    2  501    0 -0.61898323713E+02 -0.28534889899E+02  0.21694073431E+03  0.28572351080E+03  0.17300000000E+03 0. -1.
         -6    1    1    2    0  502  0.61898323713E+02  0.28534889899E+02  0.62366054933E+03  0.65078961516E+03  0.17300000000E+03 0. -1.
<mgrwt>
<rscale>  2 0.18594258E+03</rscale>
<asrwt>0</asrwt>
<pdfrwt beam="1">  1       21 0.13670110E+00 0.18594258E+03</pdfrwt>
<pdfrwt beam="2">  1       21 0.73778347E-02 0.18594258E+03</pdfrwt>
<totfact> 0.52741240E+04</totfact>
</mgrwt>
</event>
<event>
 4    1  0.3973261E+000  0.2429067E+03  0.7546771E-02  0.1117871E+00
         21   -1    0    0  503  502  0.00000000000E+00  0.00000000000E+00  0.54961280257E+02  0.54961280257E+02  0.00000000000E+00 0. -1.
         21   -1    0    0  501  503 -0.00000000000E+00 -0.00000000000E+00 -0.12840355026E+04  0.12840355026E+04  0.00000000000E+00 0. -1.
          6    1    1    2  501    0  0.45698916212E+02 -0.16427505954E+03 -0.88560123850E+03  0.91830999110E+03  0.17300000000E+03 0. -1.
         -6    1    1    2    0  502 -0.45698916212E+02  0.16427505954E+03 -0.34347298388E+03  0.42068679179E+03  0.17300000000E+03 0. -1.
<mgrwt>
<rscale>  2 0.24290674E+03</rscale>
<asrwt>0</asrwt>
<pdfrwt beam="1">  1       21 0.84555816E-02 0.24290674E+03</pdfrwt>
<pdfrwt beam="2">  1       21 0.19754392E+00 0.24290674E+03</pdfrwt>
<totfact> 0.14628840E+04</totfact>
</mgrwt>
</event>
<event>
 4    1  0.3973261E+000  0.2490413E+03  0.7546771E-02  0.1113912E+00
         21   -1    0    0  501  502  0.00000000000E+00  0.00000000000E+00  0.70884614995E+03  0.70884614995E+03  0.00000000000E+00 0.  1.
         21   -1    0    0  502  503 -0.00000000000E+00 -0.00000000000E+00 -0.31281382169E+03  0.31281382169E+03  0.00000000000E+00 0.  1.
          6    1    1    2  501    0  0.28728449669E+02  0.17682551081E+03  0.63155765583E+03  0.67888633639E+03  0.17300000000E+03 0.  1.
         -6    1    1    2    0  503 -0.28728449669E+02 -0.17682551081E+03 -0.23552532757E+03  0.34277363525E+03  0.17300000000E+03 0.  1.
<mgrwt>
<rscale>  2 0.24904133E+03</rscale>
<asrwt>0</asrwt>
<pdfrwt beam="1">  1       21 0.10905325E+00 0.24904133E+03</pdfrwt>
<pdfrwt beam="2">  1       21 0.48125204E-01 0.24904133E+03</pdfrwt>
<totfact> 0.26312005E+03</totfact>
</mgrwt>
</event>
<event>
 4    1  0.3973261E+000  0.1797433E+03  0.7546771E-02  0.1168052E+00
         21   -1    0    0  503  502  0.00000000000E+00  0.00000000000E+00  0.15736971444E+04  0.15736971444E+04  0.00000000000E+00 0. -1.
         21   -1    0    0  501  503 -0.00000000000E+00 -0.00000000000E+00 -0.22592309324E+02  0.22592309324E+02  0.00000000000E+00 0. -1.
          6    1    1    2  501    0  0.39425668692E+02  0.28710125888E+02  0.53439451338E+03  0.56381304580E+03  0.17300000000E+03 0. -1.
         -6    1    1    2    0  502 -0.39425668692E+02 -0.28710125888E+02  0.10167103216E+04  0.10324764079E+04  0.17300000000E+03 0. -1.
<mgrwt>
<rscale>  2 0.17974330E+03</rscale>
<asrwt>0</asrwt>
<pdfrwt beam="1">  1       21 0.24210717E+00 0.17974330E+03</pdfrwt>
<pdfrwt beam="2">  1       21 0.34757411E-02 0.17974330E+03</pdfrwt>
<totfact> 0.37063144E+04</totfact>
</mgrwt>
</event>
<event>
 4    1  0.3973261E+000  0.1878643E+03  0.7546771E-02  0.1160402E+00
         21   -1    0    0  503  502  0.00000000000E+00  0.00000000000E+00  0.36778868030E+03  0.36778868030E+03  0.00000000000E+00 0.  1.
         21   -1    0    0  501  503 -0.00000000000E+00 -0.00000000000E+00 -0.23213646449E+03  0.23213646449E+03  0.00000000000E+00 0.  1.
          6    1    1    2  501    0  0.40593217487E+02  0.60960508725E+02 -0.16191909499E+03  0.24801368158E+03  0.17300000000E+03 0.  1.
         -6    1    1    2    0  502 -0.40593217487E+02 -0.60960508725E+02  0.29757131080E+03  0.35191146321E+03  0.17300000000E+03 0.  1.
<mgrwt>
<rscale>  2 0.18786429E+03</rscale>
<asrwt>0</asrwt>
<pdfrwt beam="1">  1       21 0.56582873E-01 0.18786429E+03</pdfrwt>
<pdfrwt beam="2">  1       21 0.35713303E-01 0.18786429E+03</pdfrwt>
<totfact> 0.22266121E+04</totfact>
</mgrwt>
</event>
<event>
 4    1  0.3973261E+000  0.1963999E+03  0.7546771E-02  0.1152812E+00
         21   -1    0    0  503  502  0.00000000000E+00  0.00000000000E+00  0.17603919678E+03  0.17603919678E+03  0.00000000000E+00 0. -1.
         21   -1    0    0  501  503 -0.00000000000E+00 -0.00000000000E+00 -0.27807081928E+03  0.27807081928E+03  0.00000000000E+00 0. -1.
          6    1    1    2  501    0  0.44736634055E+02 -0.81501771411E+02 -0.15556366329E+03  0.25054532226E+03  0.17300000000E+03 0. -1.
         -6    1    1    2    0  502 -0.44736634055E+02  0.81501771411E+02  0.53532040794E+02  0.20356469380E+03  0.17300000000E+03 0. -1.
<mgrwt>
<rscale>  2 0.19639986E+03</rscale>
<asrwt>0</asrwt>
<pdfrwt beam="1">  1       21 0.27082953E-01 0.19639986E+03</pdfrwt>
<pdfrwt beam="2">  1       21 0.42780126E-01 0.19639986E+03</pdfrwt>
<totfact> 0.68168204E+04</totfact>
</mgrwt>
</event>
<event>
 4    1  0.3973261E+000  0.2628413E+03  0.7546771E-02  0.1105448E+00
         21   -1    0    0  503  502  0.00000000000E+00  0.00000000000E+00  0.65382233108E+03  0.65382233108E+03  0.00000000000E+00 0. -1.
         21   -1    0    0  501  503 -0.00000000000E+00 -0.00000000000E+00 -0.12454151947E+03  0.12454151947E+03  0.00000000000E+00 0. -1.
          6    1    1    2  501    0  0.75566558456E+02  0.18288314105E+03  0.11312147478E+03  0.28615033827E+03  0.17300000000E+03 0. -1.
         -6    1    1    2    0  502 -0.75566558456E+02 -0.18288314105E+03  0.41615933683E+03  0.49221351228E+03  0.17300000000E+03 0. -1.
<mgrwt>
<rscale>  2 0.26284130E+03</rscale>
<asrwt>0</asrwt>
<pdfrwt beam="1">  1       21 0.10058805E+00 0.26284130E+03</pdfrwt>
<pdfrwt beam="2">  1       21 0.19160234E-01 0.26284130E+03</pdfrwt>
<totfact> 0.19474653E+04</totfact>
</mgrwt>
</event>
<event>
 4    1  0.3973261E+000  0.1922663E+03  0.7546771E-02  0.1156433E+00
         21   -1    0    0  501  502  0.00000000000E+00  0.00000000000E+00  0.98577335506E+02  0.98577335506E+02  0.00000000000E+00 0. -1.
         21   -1    0    0  502  503 -0.00000000000E+00 -0.00000000000E+00 -0.74531439074E+03  0.74531439074E+03  0.00000000000E+00 0. -1.
          6    1    1    2  501    0 -0.62521495020E+02 -0.55932030196E+02 -0.25946387269E+02  0.19400913472E+03  0.17300000000E+03 0. -1.
         -6    1    1    2    0  503  0.62521495020E+02  0.55932030196E+02 -0.62079066797E+03  0.64988259153E+03  0.17300000000E+03 0. -1.
<mgrwt>
<rscale>  2 0.19226630E+03</rscale>
<asrwt>0</asrwt>
<pdfrwt beam="1">  1       21 0.15165745E-01 0.19226630E+03</pdfrwt>
<pdfrwt beam="2">  1       21 0.11466375E+00 0.19226630E+03</pdfrwt>
<totfact> 0.22710128E+04</totfact>
</mgrwt>
</event>
<event>
 4    1  0.3973261E+000  0.1735578E+03  0.7546771E-02  0.1174188E+00
         21   -1    0    0  501  502  0.00000000000E+00  0.00000000000E+00  0.16635701606E+03  0.16635701606E+03  0.00000000000E+00 0. -1.
         21   -1    0    0  502  503 -0.00000000000E+00 -0.00000000000E+00 -0.25963292022E+03  0.25963292022E+03  0.00000000000E+00 0. -1.
          6    1    1    2  501    0 -0.12721787814E+02  0.56081806675E+01  0.70527012046E+02  0.18734021192E+03  0.17300000000E+03 0.  1.
         -6    1    1    2    0  503  0.12721787814E+02 -0.56081806675E+01 -0.16380291621E+03  0.23864972435E+03  0.17300000000E+03 0.  1.
<mgrwt>
<rscale>  2 0.17355776E+03</rscale>
<asrwt>0</asrwt>
<pdfrwt beam="1">  1       21 0.25593387E-01 0.17355776E+03</pdfrwt>
<pdfrwt beam="2">  1       21 0.39943526E-01 0.17355776E+03</pdfrwt>
<totfact> 0.88153608E+04</totfact>
</mgrwt>
</event>
<event>
 4    1  0.3973261E+000  0.1957806E+03  0.7546771E-02  0.1153349E+00
         21   -1    0    0  503  502  0.00000000000E+00  0.00000000000E+00  0.47969851118E+02  0.47969851118E+02  0.00000000000E+00 0. -1.
         21   -1    0    0  501  503 -0.00000000000E+00 -0.00000000000E+00 -0.15815534881E+04  0.15815534881E+04  0.00000000000E+00 0. -1.
          6    1    1    2  501    0  0.45464453200E+02 -0.79586500573E+02 -0.13398957919E+04  0.13541236135E+04  0.17300000000E+03 0. -1.
         -6    1    1    2    0  502 -0.45464453200E+02  0.79586500573E+02 -0.19368784511E+03  0.27539972571E+03  0.17300000000E+03 0. -1.
<mgrwt>
<rscale>  2 0.19578056E+03</rscale>
<asrwt>0</asrwt>
<pdfrwt beam="1">  1       21 0.73799763E-02 0.19578056E+03</pdfrwt>
<pdfrwt beam="2">  1       21 0.24331595E+00 0.19578056E+03</pdfrwt>
<totfact> 0.10022405E+04</totfact>
</mgrwt>
</event>
<event>
 4    1  0.3973261E+000  0.1741712E+03  0.7546771E-02  0.1173566E+00
         21   -1    0    0  503  502  0.00000000000E+00  0.00000000000E+00  0.24851604973E+03  0.24851604973E+03  0.00000000000E+00 0.  1.
         21   -1    0    0  501  503 -0.00000000000E+00 -0.00000000000E+00 -0.23542213542E+03  0.23542213542E+03  0.00000000000E+00 0.  1.
          6    1    1    2  501    0 -0.14005366927E+02 -0.14507111893E+02 -0.16135542748E+03  0.23742615815E+03  0.17300000000E+03 0.  1.
         -6    1    1    2    0  502  0.14005366927E+02  0.14507111893E+02  0.17444934179E+03  0.24651202699E+03  0.17300000000E+03 0.  1.
<mgrwt>
<rscale>  2 0.17417120E+03</rscale>
<asrwt>0</asrwt>
<pdfrwt beam="1">  1       21 0.38233238E-01 0.17417120E+03</pdfrwt>
<pdfrwt beam="2">  1       21 0.36218790E-01 0.17417120E+03</pdfrwt>
<totfact> 0.48929041E+04</totfact>
</mgrwt>
</event>
<event>
 4    1  0.3973261E+000  0.2330376E+03  0.7546771E-02  0.1124520E+00
         21   -1    0    0  503  502  0.00000000000E+00  0.00000000000E+00  0.17166533768E+03  0.17166533768E+03  0.00000000000E+00 0. -1.
         21   -1    0    0  501  503 -0.00000000000E+00 -0.00000000000E+00 -0.36923021122E+03  0.36923021122E+03  0.00000000000E+00 0. -1.
          6    1    1    2  501    0  0.15065780459E+03  0.40984836560E+02 -0.20112977961E+03  0.30783066637E+03  0.17300000000E+03 0. -1.
         -6    1    1    2    0  502 -0.15065780459E+03 -0.40984836560E+02  0.35649060739E+01  0.23306488252E+03  0.17300000000E+03 0. -1.
<mgrwt>
<rscale>  2 0.23303762E+03</rscale>
<asrwt>0</asrwt>
<pdfrwt beam="1">  1       21 0.26410053E-01 0.23303762E+03</pdfrwt>
<pdfrwt beam="2">  1       21 0.56804647E-01 0.23303762E+03</pdfrwt>
<totfact> 0.38938552E+04</totfact>
</mgrwt>
</event>
<event>
 4    1  0.3973261E+000  0.1894908E+03  0.7546771E-02  0.1158921E+00
         21   -1    0    0  503  502  0.00000000000E+00  0.00000000000E+00  0.15557076740E+03  0.15557076740E+03  0.00000000000E+00 0.  1.
         21   -1    0    0  501  503 -0.00000000000E+00 -0.00000000000E+00 -0.33085651971E+03  0.33085651971E+03  0.00000000000E+00 0.  1.
          6    1    1    2  501    0  0.54454691025E+01  0.77124004124E+02 -0.22138751557E+03  0.29140898613E+03  0.17300000000E+03 0.  1.
         -6    1    1    2    0  502 -0.54454691025E+01 -0.77124004124E+02  0.46101763255E+02  0.19501830099E+03  0.17300000000E+03 0.  1.
<mgrwt>
<rscale>  2 0.18949080E+03</rscale>
<asrwt>0</asrwt>
<pdfrwt beam="1">  1       21 0.23933965E-01 0.18949080E+03</pdfrwt>
<pdfrwt beam="2">  1       21 0.50901002E-01 0.18949080E+03</pdfrwt>
<totfact> 0.60501607E+04</totfact>
</mgrwt>
</event>
<event>
 4    1  0.3973261E+000  0.2221677E+03  0.7546771E-02  0.1132277E+00
         21   -1    0    0  503  502  0.00000000000E+00  0.00000000000E+00  0.13745125200E+04  0.13745125200E+04  0.00000000000E+00 0.  1.
         21   -1    0    0  501  503 -0.00000000000E+00 -0.00000000000E+00 -0.64428142473E+02  0.64428142473E+02  0.00000000000E+00 0.  1.
          6    1    1    2  501    0 -0.13663911387E+03  0.27554405511E+02  0.17637121056E+03  0.28366405591E+03  0.17300000000E+03 0.  1.
         -6    1    1    2    0  502  0.13663911387E+03 -0.27554405511E+02  0.11337131669E+04  0.11552766065E+04  0.17300000000E+03 0.  1.
<mgrwt>
<rscale>  2 0.22216771E+03</rscale>
<asrwt>0</asrwt>
<pdfrwt beam="1">  1       21 0.21146344E+00 0.22216771E+03</pdfrwt>
<pdfrwt beam="2">  1       21 0.99120230E-02 0.22216771E+03</pdfrwt>
<totfact> 0.91360094E+03</totfact>
</mgrwt>
</event>
<event>
 4    1  0.3973261E+000  0.2077429E+03  0.7546771E-02  0.1143366E+00
         21   -1    0    0  503  502  0.00000000000E+00  0.00000000000E+00  0.14319602298E+03  0.14319602298E+03  0.00000000000E+00 0. -1.
         21   -1    0    0  501  503 -0.00000000000E+00 -0.00000000000E+00 -0.30237235771E+03  0.30237235771E+03  0.00000000000E+00 0. -1.
          6    1    1    2  501    0 -0.93691724429E+02 -0.66708074048E+02 -0.66856300950E+02  0.21823581591E+03  0.17300000000E+03 0. -1.
         -6    1    1    2    0  502  0.93691724429E+02  0.66708074048E+02 -0.92320033776E+02  0.22733256477E+03  0.17300000000E+03 0. -1.
<mgrwt>
<rscale>  2 0.20774289E+03</rscale>
<asrwt>0</asrwt>
<pdfrwt beam="1">  1       21 0.22030158E-01 0.20774289E+03</pdfrwt>
<pdfrwt beam="2">  1       21 0.46518824E-01 0.20774289E+03</pdfrwt>
<totfact> 0.84667706E+04</totfact>
</mgrwt>
</event>
<event>
 4    1  0.3973261E+000  0.1836368E+03  0.7546771E-02  0.1164329E+00
         21   -1    0    0  503  502  0.00000000000E+00  0.00000000000E+00  0.82614112198E+02  0.82614112198E+02  0.00000000000E+00 0.  1.
         21   -1    0    0  501  503 -0.00000000000E+00 -0.00000000000E+00 -0.43890681350E+03  0.43890681350E+03  0.00000000000E+00 0.  1.
          6    1    1    2  501    0 -0.18781551393E+02  0.58657602358E+02 -0.24712679519E+03  0.30788652762E+03  0.17300000000E+03 0.  1.
         -6    1    1    2    0  502  0.18781551393E+02 -0.58657602358E+02 -0.10916590612E+03  0.21363439809E+03  0.17300000000E+03 0.  1.
<mgrwt>
<rscale>  2 0.18363676E+03</rscale>
<asrwt>0</asrwt>
<pdfrwt beam="1">  1       21 0.12709864E-01 0.18363676E+03</pdfrwt>
<pdfrwt beam="2">  1       21 0.67524124E-01 0.18363676E+03</pdfrwt>
<totfact> 0.10652674E+05</totfact>
</mgrwt>
</event>
<event>
 4    1  0.3973261E+000  0.2981415E+03  0.7546771E-02  0.1086173E+00
         21   -1    0    0  503  502  0.00000000000E+00  0.00000000000E+00  0.49047519181E+03  0.49047519181E+03  0.00000000000E+00 0.  1.
         21   -1    0    0  501  503 -0.00000000000E+00 -0.00000000000E+00 -0.18122992495E+03  0.18122992495E+03  0.00000000000E+00 0.  1.
          6    1    1    2  501    0  0.23881875755E+03 -0.43874374175E+02  0.15535488068E+03  0.33618967655E+03  0.17300000000E+03 0.  1.
         -6    1    1    2    0  502 -0.23881875755E+03  0.43874374175E+02  0.15389038618E+03  0.33551544022E+03  0.17300000000E+03 0.  1.
<mgrwt>
<rscale>  2 0.29814151E+03</rscale>
<asrwt>0</asrwt>
<pdfrwt beam="1">  1       21 0.75457721E-01 0.29814151E+03</pdfrwt>
<pdfrwt beam="2">  1       21 0.27881527E-01 0.29814151E+03</pdfrwt>
<totfact> 0.18260257E+04</totfact>
</mgrwt>
</event>
<event>
 4    1  0.3973261E+000  0.2221132E+03  0.7546771E-02  0.1132317E+00
         21   -1    0    0  501  502  0.00000000000E+00  0.00000000000E+00  0.17560430414E+03  0.17560430414E+03  0.00000000000E+00 0. -1.
         21   -1    0    0  502  503 -0.00000000000E+00 -0.00000000000E+00 -0.62544288231E+03  0.62544288231E+03  0.00000000000E+00 0.  1.
          6    1    1    2  501    0  0.66236110105E+02  0.12254811748E+03  0.72336787699E+02  0.23359553556E+03  0.17300000000E+03 0. -1.
         -6    1    1    2    0  503 -0.66236110105E+02 -0.12254811748E+03 -0.52217536586E+03  0.56745165089E+03  0.17300000000E+03 0.  1.
<mgrwt>
<rscale>  2 0.22211318E+03</rscale>
<asrwt>0</asrwt>
<pdfrwt beam="1">  1       21 0.27016047E-01 0.22211318E+03</pdfrwt>
<pdfrwt beam="2">  1       21 0.96221981E-01 0.22211318E+03</pdfrwt>
<totfact> 0.11509678E+04</totfact>
</mgrwt>
</event>
<event>
 4    1  0.3973261E+000  0.2220171E+03  0.7546771E-02  0.1132388E+00
         21   -1    0    0  503  502  0.00000000000E+00  0.00000000000E+00  0.68906237817E+03  0.68906237817E+03  0.00000000000E+00 0. -1.
         21   -1    0    0  501  503 -0.00000000000E+00 -0.00000000000E+00 -0.30048951577E+03  0.30048951577E+03  0.00000000000E+00 0. -1.
          6    1    1    2  501    0 -0.13698682915E+03 -0.24437778403E+02 -0.23759962773E+03  0.32518483893E+03  0.17300000000E+03 0. -1.
         -6    1    1    2    0  502  0.13698682915E+03  0.24437778403E+02  0.62617249014E+03  0.66436705501E+03  0.17300000000E+03 0. -1.
<mgrwt>
<rscale>  2 0.22201711E+03</rscale>
<asrwt>0</asrwt>
<pdfrwt beam="1">  1       21 0.10600960E+00 0.22201711E+03</pdfrwt>
<pdfrwt beam="2">  1       21 0.46229156E-01 0.22201711E+03</pdfrwt>
<totfact> 0.31247170E+03</totfact>
</mgrwt>
</event>
<event>
 4    1  0.3973261E+000  0.2204332E+03  0.7546771E-02  0.1133561E+00
         21   -1    0    0  501  502  0.00000000000E+00  0.00000000000E+00  0.15073203423E+03  0.15073203423E+03  0.00000000000E+00 0.  1.
         21   -1    0    0  502  503 -0.00000000000E+00 -0.00000000000E+00 -0.33552387544E+03  0.33552387544E+03  0.00000000000E+00 0. -1.
          6    1    1    2  501    0  0.55800622459E+02  0.12469193781E+03 -0.44248128934E+02  0.22483034879E+03  0.17300000000E+03 0.  1.
         -6    1    1    2    0  503 -0.55800622459E+02 -0.12469193781E+03 -0.14054371229E+03  0.26142556088E+03  0.17300000000E+03 0. -1.
<mgrwt>
<rscale>  2 0.22043318E+03</rscale>
<asrwt>0</asrwt>
<pdfrwt beam="1">  1       21 0.23189544E-01 0.22043318E+03</pdfrwt>
<pdfrwt beam="2">  1       21 0.51619057E-01 0.22043318E+03</pdfrwt>
<totfact> 0.61520830E+04</totfact>
</mgrwt>
</event>
<event>
 4    1  0.3973261E+000  0.1870639E+03  0.7546771E-02  0.1161136E+00
         21   -1    0    0  501  502  0.00000000000E+00  0.00000000000E+00  0.29967568762E+03  0.29967568762E+03  0.00000000000E+00 0.  1.
         21   -1    0    0  502  503 -0.00000000000E+00 -0.00000000000E+00 -0.54820696788E+03  0.54820696788E+03  0.00000000000E+00 0.  1.
          6    1    1    2  501    0 -0.71158118092E+02  0.65994367295E+00  0.25182499693E+03  0.31370167735E+03  0.17300000000E+03 0.  1.
         -6    1    1    2    0  503  0.71158118092E+02 -0.65994367295E+00 -0.50035627719E+03  0.53418097815E+03  0.17300000000E+03 0.  1.
<mgrwt>
<rscale>  2 0.18706393E+03</rscale>
<asrwt>0</asrwt>
<pdfrwt beam="1">  1       21 0.46103953E-01 0.18706393E+03</pdfrwt>
<pdfrwt beam="2">  1       21 0.84339532E-01 0.18706393E+03</pdfrwt>
<totfact> 0.55230205E+03</totfact>
</mgrwt>
</event>
<event>
 4    1  0.3973261E+000  0.2260408E+03  0.7546771E-02  0.1129458E+00
         21   -1    0    0  501  502  0.00000000000E+00  0.00000000000E+00  0.11581559186E+04  0.11581559186E+04  0.00000000000E+00 0. -1.
         21   -1    0    0  502  503 -0.00000000000E+00 -0.00000000000E+00 -0.65949826141E+02  0.65949826141E+02  0.00000000000E+00 0.  1.
          6    1    1    2  501    0 -0.71571552645E+02  0.12666072620E+03  0.89826023496E+03  0.92626447434E+03  0.17300000000E+03 0. -1.
         -6    1    1    2    0  503  0.71571552645E+02 -0.12666072620E+03  0.19394585748E+03  0.29784127038E+03  0.17300000000E+03 0.  1.
<mgrwt>
<rscale>  2 0.22604076E+03</rscale>
<asrwt>0</asrwt>
<pdfrwt beam="1">  1       21 0.17817782E+00 0.22604076E+03</pdfrwt>
<pdfrwt beam="2">  1       21 0.10146128E-01 0.22604076E+03</pdfrwt>
<totfact> 0.14456642E+04</totfact>
</mgrwt>
</event>
<event>
 4    1  0.3973261E+000  0.1983145E+03  0.7546771E-02  0.1151169E+00
         21   -1    0    0  501  502  0.00000000000E+00  0.00000000000E+00  0.91474369603E+02  0.91474369603E+02  0.00000000000E+00 0. -1.
         21   -1    0    0  502  503 -0.00000000000E+00 -0.00000000000E+00 -0.71637116047E+03  0.71637116047E+03  0.00000000000E+00 0. -1.
          6    1    1    2  501    0 -0.90582931857E+02  0.34559452237E+02 -0.57038150079E+02  0.20635400129E+03  0.17300000000E+03 0. -1.
         -6    1    1    2    0  503  0.90582931857E+02 -0.34559452237E+02 -0.56785864079E+03  0.60149152878E+03  0.17300000000E+03 0. -1.
<mgrwt>
<rscale>  2 0.19831446E+03</rscale>
<asrwt>0</asrwt>
<pdfrwt beam="1">  1       21 0.14072980E-01 0.19831446E+03</pdfrwt>
<pdfrwt beam="2">  1       21 0.11021095E+00 0.19831446E+03</pdfrwt>
<totfact> 0.28539222E+04</totfact>
</mgrwt>
</event>
<event>
 4    1  0.3973261E+000  0.2758619E+03  0.7546771E-02  0.1097971E+00
         21   -1    0    0  503  502  0.00000000000E+00  0.00000000000E+00  0.27299709382E+03  0.27299709382E+03  0.00000000000E+00 0.  1.
         21   -1    0    0  501  503 -0.00000000000E+00 -0.00000000000E+00 -0.55683791529E+03  0.55683791529E+03  0.00000000000E+00 0.  1.
          6    1    1    2  501    0  0.19075435408E+03  0.98911873016E+02 -0.43513336002E+03  0.51520949450E+03  0.17300000000E+03 0.  1.
         -6    1    1    2    0  502 -0.19075435408E+03 -0.98911873016E+02  0.15129253854E+03  0.31462551461E+03  0.17300000000E+03 0.  1.
<mgrwt>
<rscale>  2 0.27586189E+03</rscale>
<asrwt>0</asrwt>
<pdfrwt beam="1">  1       21 0.41999553E-01 0.27586189E+03</pdfrwt>
<pdfrwt beam="2">  1       21 0.85667372E-01 0.27586189E+03</pdfrwt>
<totfact> 0.60848153E+03</totfact>
</mgrwt>
</event>
<event>
 4    1  0.3973261E+000  0.2441054E+03  0.7546771E-02  0.1117088E+00
         21   -1    0    0  501  502  0.00000000000E+00  0.00000000000E+00  0.45212982474E+03  0.45212982474E+03  0.00000000000E+00 0.  1.
         21   -1    0    0  502  503 -0.00000000000E+00 -0.00000000000E+00 -0.36013869182E+03  0.36013869182E+03  0.00000000000E+00 0. -1.
          6    1    1    2  501    0  0.17173937851E+03 -0.12807306351E+02  0.36938912468E+03  0.44275926490E+03  0.17300000000E+03 0.  1.
         -6    1    1    2    0  503 -0.17173937851E+03  0.12807306351E+02 -0.27739799176E+03  0.36950925166E+03  0.17300000000E+03 0. -1.
<mgrwt>
<rscale>  2 0.24410539E+03</rscale>
<asrwt>0</asrwt>
<pdfrwt beam="1">  1       21 0.69558435E-01 0.24410539E+03</pdfrwt>
<pdfrwt beam="2">  1       21 0.55405952E-01 0.24410539E+03</pdfrwt>
<totfact> 0.55662236E+03</totfact>
</mgrwt>
</event>
<event>
 4    1  0.3973261E+000  0.1754986E+03  0.7546771E-02  0.1172232E+00
         21   -1    0    0  501  502  0.00000000000E+00  0.00000000000E+00  0.11130700819E+04  0.11130700819E+04  0.00000000000E+00 0. -1.
         21   -1    0    0  502  503 -0.00000000000E+00 -0.00000000000E+00 -0.41450207751E+02  0.41450207751E+02  0.00000000000E+00 0.  1.
          6    1    1    2  501    0  0.24889812814E+02 -0.15851542695E+02  0.86863818058E+03  0.88618963148E+03  0.17300000000E+03 0. -1.
         -6    1    1    2    0  503 -0.24889812814E+02  0.15851542695E+02  0.20298169357E+03  0.26833065816E+03  0.17300000000E+03 0.  1.
<mgrwt>
<rscale>  2 0.17549864E+03</rscale>
<asrwt>0</asrwt>
<pdfrwt beam="1">  1       21 0.17124153E+00 0.17549864E+03</pdfrwt>
<pdfrwt beam="2">  1       21 0.63769559E-02 0.17549864E+03</pdfrwt>
<totfact> 0.37558114E+04</totfact>
</mgrwt>
</event>
<event>
 4    1  0.3973261E+000  0.1916128E+03  0.7546771E-02  0.1157015E+00
         21   -1    0    0  501  502  0.00000000000E+00  0.00000000000E+00  0.58176075992E+02  0.58176075992E+02  0.00000000000E+00 0. -1.
         21   -1    0    0  502  503 -0.00000000000E+00 -0.00000000000E+00 -0.69445186543E+03  0.69445186543E+03  0.00000000000E+00 0. -1.
          6    1    1    2  501    0  0.82283663410E+02  0.39825039321E+01 -0.20448587700E+03  0.28023193161E+03  0.17300000000E+03 0. -1.
         -6    1    1    2    0  503 -0.82283663410E+02 -0.39825039321E+01 -0.43178991243E+03  0.47239600981E+03  0.17300000000E+03 0. -1.
<mgrwt>
<rscale>  2 0.19161279E+03</rscale>
<asrwt>0</asrwt>
<pdfrwt beam="1">  1       21 0.89501662E-02 0.19161279E+03</pdfrwt>
<pdfrwt beam="2">  1       21 0.10683874E+00 0.19161279E+03</pdfrwt>
<totfact> 0.69155877E+04</totfact>
</mgrwt>
</event>
<event>
 4    1  0.3973261E+000  0.2610537E+03  0.7546771E-02  0.1106512E+00
         21   -1    0    0  501  502  0.00000000000E+00  0.00000000000E+00  0.55210898499E+03  0.55210898499E+03  0.00000000000E+00 0.  1.
         21   -1    0    0  502  503 -0.00000000000E+00 -0.00000000000E+00 -0.36391567881E+03  0.36391567881E+03  0.00000000000E+00 0. -1.
          6    1    1    2  501    0  0.15385793126E+03  0.12061406718E+03  0.46641787604E+03  0.53450411720E+03  0.17300000000E+03 0.  1.
         -6    1    1    2    0  503 -0.15385793126E+03 -0.12061406718E+03 -0.27822456986E+03  0.38152054661E+03  0.17300000000E+03 0. -1.
<mgrwt>
<rscale>  2 0.26105367E+03</rscale>
<asrwt>0</asrwt>
<pdfrwt beam="1">  1       21 0.84939843E-01 0.26105367E+03</pdfrwt>
<pdfrwt beam="2">  1       21 0.55987028E-01 0.26105367E+03</pdfrwt>
<totfact> 0.34294879E+03</totfact>
</mgrwt>
</event>
<event>
 4    1  0.3973261E+000  0.2346389E+03  0.7546771E-02  0.1123417E+00
         21   -1    0    0  503  502  0.00000000000E+00  0.00000000000E+00  0.14541877365E+04  0.14541877365E+04  0.00000000000E+00 0. -1.
         21   -1    0    0  501  503 -0.00000000000E+00 -0.00000000000E+00 -0.42195251989E+02  0.42195251989E+02  0.00000000000E+00 0.  1.
          6    1    1    2  501    0 -0.50489399636E+02 -0.15025725802E+03  0.46617235372E+03  0.52189279209E+03  0.17300000000E+03 0.  1.
         -6    1    1    2    0  502  0.50489399636E+02  0.15025725802E+03  0.94582013077E+03  0.97449019638E+03  0.17300000000E+03 0. -1.
<mgrwt>
<rscale>  2 0.23463892E+03</rscale>
<asrwt>0</asrwt>
<pdfrwt beam="1">  1       21 0.22372115E+00 0.23463892E+03</pdfrwt>
<pdfrwt beam="2">  1       21 0.64915783E-02 0.23463892E+03</pdfrwt>
<totfact> 0.15913138E+04</totfact>
</mgrwt>
</event>
<event>
 4    1  0.3973261E+000  0.1860566E+03  0.7546771E-02  0.1162067E+00
         21   -1    0    0  503  502  0.00000000000E+00  0.00000000000E+00  0.15879318380E+03  0.15879318380E+03  0.00000000000E+00 0.  1.
         21   -1    0    0  501  503 -0.00000000000E+00 -0.00000000000E+00 -0.21804570217E+03  0.21804570217E+03  0.00000000000E+00 0.  1.
          6    1    1    2  501    0  0.57691768467E+02 -0.36874596424E+02 -0.32323501191E+02  0.18884354567E+03  0.17300000000E+03 0. -1.
         -6    1    1    2    0  502 -0.57691768467E+02  0.36874596424E+02 -0.26929017181E+02  0.18799534031E+03  0.17300000000E+03 0. -1.
<mgrwt>
<rscale>  2 0.18605665E+03</rscale>
<asrwt>0</asrwt>
<pdfrwt beam="1">  1       21 0.24429721E-01 0.18605665E+03</pdfrwt>
<pdfrwt beam="2">  1       21 0.33545493E-01 0.18605665E+03</pdfrwt>
<totfact> 0.13577502E+05</totfact>
</mgrwt>
</event>
<event>
 4    1  0.3973261E+000  0.2105936E+03  0.7546771E-02  0.1141097E+00
         21   -1    0    0  501  502  0.00000000000E+00  0.00000000000E+00  0.17644633685E+04  0.17644633685E+04  0.00000000000E+00 0. -1.
         21   -1    0    0  502  503 -0.00000000000E+00 -0.00000000000E+00 -0.27848669255E+02  0.27848669255E+02  0.00000000000E+00 0. -1.
          6    1    1    2  501    0 -0.51347418201E+02 -0.10855454785E+03  0.11480548329E+04  0.11672101553E+04  0.17300000000E+03 0. -1.
         -6    1    1    2    0  503  0.51347418201E+02  0.10855454785E+03  0.58855986630E+03  0.62510188244E+03  0.17300000000E+03 0. -1.
<mgrwt>
<rscale>  2 0.21059356E+03</rscale>
<asrwt>0</asrwt>
<pdfrwt beam="1">  1       21 0.27145581E+00 0.21059356E+03</pdfrwt>
<pdfrwt beam="2">  1       21 0.42844120E-02 0.21059356E+03</pdfrwt>
<totfact> 0.17124325E+04</totfact>
</mgrwt>
</event>
<event>
 4    1  0.3973261E+000  0.1924016E+03  0.7546771E-02  0.1156313E+00
         21   -1    0    0  501  502  0.00000000000E+00  0.00000000000E+00  0.12822497092E+04  0.12822497092E+04  0.00000000000E+00 0.  1.
         21   -1    0    0  502  503 -0.00000000000E+00 -0.00000000000E+00 -0.77656527688E+02  0.77656527688E+02  0.00000000000E+00 0. -1.
          6    1    1    2  501    0 -0.71354339338E+02 -0.44698422839E+02  0.11412366804E+04  0.11573415880E+04  0.17300000000E+03 0.  1.
         -6    1    1    2    0  503  0.71354339338E+02  0.44698422839E+02  0.63356501192E+02  0.20256464891E+03  0.17300000000E+03 0. -1.
<mgrwt>
<rscale>  2 0.19240164E+03</rscale>
<asrwt>0</asrwt>
<pdfrwt beam="1">  1       21 0.19726917E+00 0.19240164E+03</pdfrwt>
<pdfrwt beam="2">  1       21 0.11947159E-01 0.19240164E+03</pdfrwt>
<totfact> 0.82719974E+03</totfact>
</mgrwt>
</event>
<event>
 4    1  0.3973261E+000  0.1754053E+03  0.7546771E-02  0.1172325E+00
         21   -1    0    0  503  502  0.00000000000E+00  0.00000000000E+00  0.23181714500E+03  0.23181714500E+03  0.00000000000E+00 0. -1.
         21   -1    0    0  501  503 -0.00000000000E+00 -0.00000000000E+00 -0.13626453413E+03  0.13626453413E+03  0.00000000000E+00 0. -1.
          6    1    1    2  501    0 -0.18208233601E+02  0.22505002200E+02  0.18098072889E+02  0.17633648272E+03  0.17300000000E+03 0. -1.
         -6    1    1    2    0  502  0.18208233601E+02 -0.22505002200E+02  0.77454537984E+02  0.19174519642E+03  0.17300000000E+03 0. -1.
<mgrwt>
<rscale>  2 0.17540529E+03</rscale>
<asrwt>0</asrwt>
<pdfrwt beam="1">  1       21 0.35664176E-01 0.17540529E+03</pdfrwt>
<pdfrwt beam="2">  1       21 0.20963775E-01 0.17540529E+03</pdfrwt>
<totfact> 0.16110277E+05</totfact>
</mgrwt>
</event>
<event>
 4    1  0.3973261E+000  0.1862282E+03  0.7546771E-02  0.1161908E+00
         21   -1    0    0  501  502  0.00000000000E+00  0.00000000000E+00  0.25143103574E+02  0.25143103574E+02  0.00000000000E+00 0. -1.
         21   -1    0    0  502  503 -0.00000000000E+00 -0.00000000000E+00 -0.14540087077E+04  0.14540087077E+04  0.00000000000E+00 0. -1.
          6    1    1    2  501    0  0.65293827178E+02  0.22105674866E+02 -0.54683741445E+03  0.57767819984E+03  0.17300000000E+03 0. -1.
         -6    1    1    2    0  503 -0.65293827178E+02 -0.22105674866E+02 -0.88202818971E+03  0.90147361147E+03  0.17300000000E+03 0. -1.
<mgrwt>
<rscale>  2 0.18622821E+03</rscale>
<asrwt>0</asrwt>
<pdfrwt beam="1">  1       21 0.38681700E-02 0.18622821E+03</pdfrwt>
<pdfrwt beam="2">  1       21 0.22369363E+00 0.18622821E+03</pdfrwt>
<totfact> 0.39770220E+04</totfact>
</mgrwt>
</event>
<event>
 4    1  0.3973261E+000  0.1783717E+03  0.7546771E-02  0.1169388E+00
         21   -1    0    0  501  502  0.00000000000E+00  0.00000000000E+00  0.48427701094E+03  0.48427701094E+03  0.00000000000E+00 0.  1.
         21   -1    0    0  502  503 -0.00000000000E+00 -0.00000000000E+00 -0.86683796275E+02  0.86683796275E+02  0.00000000000E+00 0.  1.
          6    1    1    2  501    0  0.40429945220E+02 -0.15902629449E+02  0.33925917423E+03  0.38329265763E+03  0.17300000000E+03 0.  1.
         -6    1    1    2    0  503 -0.40429945220E+02  0.15902629449E+02  0.58334040431E+02  0.18766814958E+03  0.17300000000E+03 0.  1.
<mgrwt>
<rscale>  2 0.17837173E+03</rscale>
<asrwt>0</asrwt>
<pdfrwt beam="1">  1       21 0.74504154E-01 0.17837173E+03</pdfrwt>
<pdfrwt beam="2">  1       21 0.13335969E-01 0.17837173E+03</pdfrwt>
<totfact> 0.78809926E+04</totfact>
</mgrwt>
</event>
<event>
 4    1  0.3973261E+000  0.2139979E+03  0.7546771E-02  0.1138439E+00
         21   -1    0    0  503  502  0.00000000000E+00  0.00000000000E+00  0.22258094877E+03  0.22258094877E+03  0.00000000000E+00 0.  1.
         21   -1    0    0  501  503 -0.00000000000E+00 -0.00000000000E+00 -0.26173309272E+03  0.26173309272E+03  0.00000000000E+00 0.  1.
          6    1    1    2  501    0 -0.81401199136E+02 -0.96124589514E+02 -0.13157465810E+03  0.25121103197E+03  0.17300000000E+03 0.  1.
         -6    1    1    2    0  502  0.81401199136E+02  0.96124589514E+02  0.92422514142E+02  0.23310300953E+03  0.17300000000E+03 0.  1.
<mgrwt>
<rscale>  2 0.21399788E+03</rscale>
<asrwt>0</asrwt>
<pdfrwt beam="1">  1       21 0.34243223E-01 0.21399788E+03</pdfrwt>
<pdfrwt beam="2">  1       21 0.40266630E-01 0.21399788E+03</pdfrwt>
<totfact> 0.48339281E+04</totfact>
</mgrwt>
</event>
<event>
 4    1  0.3973261E+000  0.1886296E+03  0.7546771E-02  0.1159703E+00
         21   -1    0    0  501  502  0.00000000000E+00  0.00000000000E+00  0.51277754643E+03  0.51277754643E+03  0.00000000000E+00 0. -1.
         21   -1    0    0  502  503 -0.00000000000E+00 -0.00000000000E+00 -0.75161183903E+02  0.75161183903E+02  0.00000000000E+00 0. -1.
          6    1    1    2  501    0 -0.21175608227E+02  0.72136813554E+02  0.30027391531E+03  0.35460619068E+03  0.17300000000E+03 0. -1.
         -6    1    1    2    0  503  0.21175608227E+02 -0.72136813554E+02  0.13734244722E+03  0.23333253965E+03  0.17300000000E+03 0. -1.
<mgrwt>
<rscale>  2 0.18862960E+03</rscale>
<asrwt>0</asrwt>
<pdfrwt beam="1">  1       21 0.78888851E-01 0.18862960E+03</pdfrwt>
<pdfrwt beam="2">  1       21 0.11563259E-01 0.18862960E+03</pdfrwt>
<totfact> 0.89148178E+04</totfact>
</mgrwt>
</event>
<event>
 4    1  0.3973261E+000  0.1813442E+03  0.7546771E-02  0.1166508E+00
         21   -1    0    0  501  502  0.00000000000E+00  0.00000000000E+00  0.80762823451E+03  0.80762823451E+03  0.00000000000E+00 0. -1.
         21   -1    0    0  502  503 -0.00000000000E+00 -0.00000000000E+00 -0.32485629931E+03  0.32485629931E+03  0.00000000000E+00 0. -1.
          6    1    1    2  501    0  0.50363153844E+02 -0.20500196860E+02  0.77095290723E+03  0.79199374397E+03  0.17300000000E+03 0. -1.
         -6    1    1    2    0  503 -0.50363153844E+02  0.20500196860E+02 -0.28818097202E+03  0.34049078985E+03  0.17300000000E+03 0. -1.
<mgrwt>
<rscale>  2 0.18134416E+03</rscale>
<asrwt>0</asrwt>
<pdfrwt beam="1">  1       21 0.12425050E+00 0.18134416E+03</pdfrwt>
<pdfrwt beam="2">  1       21 0.49977893E-01 0.18134416E+03</pdfrwt>
<totfact> 0.18670764E+03</totfact>
</mgrwt>
</event>
<event>
 4    1  0.3973261E+000  0.2051188E+03  0.7546771E-02  0.1145491E+00
         21   -1    0    0  501  502  0.00000000000E+00  0.00000000000E+00  0.13040708985E+04  0.13040708985E+04  0.00000000000E+00 0. -1.
         21   -1    0    0  502  503 -0.00000000000E+00 -0.00000000000E+00 -0.37114293184E+02  0.37114293184E+02  0.00000000000E+00 0. -1.
          6    1    1    2  501    0  0.95849013818E+02 -0.54384775493E+02  0.87591582034E+03  0.89961228403E+03  0.17300000000E+03 0. -1.
         -6    1    1    2    0  503 -0.95849013818E+02  0.54384775493E+02  0.39104078494E+03  0.44157290762E+03  0.17300000000E+03 0. -1.
<mgrwt>
<rscale>  2 0.20511884E+03</rscale>
<asrwt>0</asrwt>
<pdfrwt beam="1">  1       21 0.20062626E+00 0.20511884E+03</pdfrwt>
<pdfrwt beam="2">  1       21 0.57098922E-02 0.20511884E+03</pdfrwt>
<totfact> 0.28296446E+04</totfact>
</mgrwt>
</event>
<event>
 4    1  0.3973261E+000  0.2322776E+03  0.7546771E-02  0.1125047E+00
         21   -1    0    0  503  502  0.00000000000E+00  0.00000000000E+00  0.34332958678E+03  0.34332958678E+03  0.00000000000E+00 0. -1.
         21   -1    0    0  501  503 -0.00000000000E+00 -0.00000000000E+00 -0.19024930948E+03  0.19024930948E+03  0.00000000000E+00 0. -1.
          6    1    1    2  501    0  0.14743613223E+03 -0.47816923218E+02 -0.34746445293E+02  0.23486205886E+03  0.17300000000E+03 0. -1.
         -6    1    1    2    0  502 -0.14743613223E+03  0.47816923218E+02  0.18782672259E+03  0.29871683741E+03  0.17300000000E+03 0. -1.
<mgrwt>
<rscale>  2 0.23227757E+03</rscale>
<asrwt>0</asrwt>
<pdfrwt beam="1">  1       21 0.52819937E-01 0.23227757E+03</pdfrwt>
<pdfrwt beam="2">  1       21 0.29269124E-01 0.23227757E+03</pdfrwt>
<totfact> 0.37238451E+04</totfact>
</mgrwt>
</event>
<event>
 4    1  0.3973261E+000  0.1737449E+03  0.7546771E-02  0.1173998E+00
         21   -1    0    0  503  502  0.00000000000E+00  0.00000000000E+00  0.19341849369E+03  0.19341849369E+03  0.00000000000E+00 0. -1.
         21   -1    0    0  501  503 -0.00000000000E+00 -0.00000000000E+00 -0.21512422692E+03  0.21512422692E+03  0.00000000000E+00 0. -1.
          6    1    1    2  501    0  0.23771134359E+01  0.15894781789E+02 -0.11787642095E+03  0.20995748468E+03  0.17300000000E+03 0. -1.
         -6    1    1    2    0  502 -0.23771134359E+01 -0.15894781789E+02  0.96170687717E+02  0.19858523594E+03  0.17300000000E+03 0. -1.
<mgrwt>
<rscale>  2 0.17374491E+03</rscale>
<asrwt>0</asrwt>
<pdfrwt beam="1">  1       21 0.29756691E-01 0.17374491E+03</pdfrwt>
<pdfrwt beam="2">  1       21 0.33096035E-01 0.17374491E+03</pdfrwt>
<totfact> 0.95864066E+04</totfact>
</mgrwt>
</event>
<event>
 4    1  0.3973261E+000  0.2092833E+03  0.7546771E-02  0.1142135E+00
         21   -1    0    0  501  502  0.00000000000E+00  0.00000000000E+00  0.39847510398E+03  0.39847510398E+03  0.00000000000E+00 0.  1.
         21   -1    0    0  502  503 -0.00000000000E+00 -0.00000000000E+00 -0.14716613520E+03  0.14716613520E+03  0.00000000000E+00 0.  1.
          6    1    1    2  501    0  0.10626271407E+03 -0.50781440102E+02  0.26290895604E+03  0.33603666203E+03  0.17300000000E+03 0.  1.
         -6    1    1    2    0  503 -0.10626271407E+03  0.50781440102E+02 -0.11599987257E+02  0.20960457716E+03  0.17300000000E+03 0.  1.
<mgrwt>
<rscale>  2 0.20928335E+03</rscale>
<asrwt>0</asrwt>
<pdfrwt beam="1">  1       21 0.61303862E-01 0.20928335E+03</pdfrwt>
<pdfrwt beam="2">  1       21 0.22640944E-01 0.20928335E+03</pdfrwt>
<totfact> 0.44863213E+04</totfact>
</mgrwt>
</event>
<event>
 4    1  0.3973261E+000  0.2127440E+03  0.7546771E-02  0.1139411E+00
         21   -1    0    0  501  502  0.00000000000E+00  0.00000000000E+00  0.91638030659E+02  0.91638030659E+02  0.00000000000E+00 0.  1.
         21   -1    0    0  502  503 -0.00000000000E+00 -0.00000000000E+00 -0.87747414402E+03  0.87747414402E+03  0.00000000000E+00 0.  1.
          6    1    1    2  501    0  0.84619464899E+02  0.90391201085E+02 -0.72548268806E+02  0.22477382939E+03  0.17300000000E+03 0.  1.
         -6    1    1    2    0  503 -0.84619464899E+02 -0.90391201085E+02 -0.71328784455E+03  0.74433834529E+03  0.17300000000E+03 0.  1.
<mgrwt>
<rscale>  2 0.21274403E+03</rscale>
<asrwt>0</asrwt>
<pdfrwt beam="1">  1       21 0.14098159E-01 0.21274403E+03</pdfrwt>
<pdfrwt beam="2">  1       21 0.13499602E+00 0.21274403E+03</pdfrwt>
<totfact> 0.17020875E+04</totfact>
</mgrwt>
</event>
<event>
 4    1  0.3973261E+000  0.1850951E+03  0.7546771E-02  0.1162961E+00
         21   -1    0    0  501  502  0.00000000000E+00  0.00000000000E+00  0.26603609613E+02  0.26603609613E+02  0.00000000000E+00 0.  1.
         21   -1    0    0  502  503 -0.00000000000E+00 -0.00000000000E+00 -0.20489395596E+04  0.20489395596E+04  0.00000000000E+00 0.  1.
          6    1    1    2  501    0 -0.46811702044E+02  0.46258525614E+02 -0.37865604013E+03  0.42147429740E+03  0.17300000000E+03 0.  1.
         -6    1    1    2    0  503  0.46811702044E+02 -0.46258525614E+02 -0.16436799098E+04  0.16540688718E+04  0.17300000000E+03 0.  1.
<mgrwt>
<rscale>  2 0.18509507E+03</rscale>
<asrwt>0</asrwt>
<pdfrwt beam="1">  1       21 0.40928643E-02 0.18509507E+03</pdfrwt>
<pdfrwt beam="2">  1       21 0.31522137E+00 0.18509507E+03</pdfrwt>
<totfact> 0.10606961E+04</totfact>
</mgrwt>
</event>
<event>
 4    1  0.3973261E+000  0.2986769E+03  0.7546771E-02  0.1085904E+00
         21   -1    0    0  503  502  0.00000000000E+00  0.00000000000E+00  0.19598326535E+04  0.19598326535E+04  0.00000000000E+00 0.  1.
         21   -1    0    0  501  503 -0.00000000000E+00 -0.00000000000E+00 -0.49039329631E+02  0.49039329631E+02  0.00000000000E+00 0. -1.
          6    1    1    2  501    0  0.24338831970E+03  0.64065572737E+01  0.68624608969E+03  0.74842609104E+03  0.17300000000E+03 0. -1.
         -6    1    1    2    0  502 -0.24338831970E+03 -0.64065572737E+01  0.12245472342E+04  0.12604458921E+04  0.17300000000E+03 0.  1.
<mgrwt>
<rscale>  2 0.29867695E+03</rscale>
<asrwt>0</asrwt>
<pdfrwt beam="1">  1       21 0.30151266E+00 0.29867695E+03</pdfrwt>
<pdfrwt beam="2">  1       21 0.75445138E-02 0.29867695E+03</pdfrwt>
<totfact> 0.40220184E+03</totfact>
</mgrwt>
</event>
<event>
 4    1  0.3973261E+000  0.1808757E+03  0.7546771E-02  0.1166958E+00
         21   -1    0    0  501  502  0.00000000000E+00  0.00000000000E+00  0.15542336596E+03  0.15542336596E+03  0.00000000000E+00 0.  1.
         21   -1    0    0  502  503 -0.00000000000E+00 -0.00000000000E+00 -0.29188265401E+03  0.29188265401E+03  0.00000000000E+00 0.  1.
          6    1    1    2  501    0  0.25870800666E+02 -0.46018542420E+02  0.49869586621E+02  0.18762457260E+03  0.17300000000E+03 0. -1.
         -6    1    1    2    0  503 -0.25870800666E+02  0.46018542420E+02 -0.18632887467E+03  0.25968144737E+03  0.17300000000E+03 0. -1.
<mgrwt>
<rscale>  2 0.18087566E+03</rscale>
<asrwt>0</asrwt>
<pdfrwt beam="1">  1       21 0.23911287E-01 0.18087566E+03</pdfrwt>
<pdfrwt beam="2">  1       21 0.44905023E-01 0.18087566E+03</pdfrwt>
<totfact> 0.78846130E+04</totfact>
</mgrwt>
</event>
<event>
 4    1  0.3973261E+000  0.1803255E+03  0.7546771E-02  0.1167488E+00
         21   -1    0    0  501  502  0.00000000000E+00  0.00000000000E+00  0.70179870260E+03  0.70179870260E+03  0.00000000000E+00 0.  1.
         21   -1    0    0  502  503 -0.00000000000E+00 -0.00000000000E+00 -0.10753524309E+03  0.10753524309E+03  0.00000000000E+00 0.  1.
          6    1    1    2  501    0  0.36848635566E+02  0.35078066097E+02  0.60241408625E+03  0.62882431885E+03  0.17300000000E+03 0.  1.
         -6    1    1    2    0  503 -0.36848635566E+02 -0.35078066097E+02 -0.81506267482E+01  0.18050962684E+03  0.17300000000E+03 0.  1.
<mgrwt>
<rscale>  2 0.18032552E+03</rscale>
<asrwt>0</asrwt>
<pdfrwt beam="1">  1       21 0.10796903E+00 0.18032552E+03</pdfrwt>
<pdfrwt beam="2">  1       21 0.16543884E-01 0.18032552E+03</pdfrwt>
<totfact> 0.22574814E+04</totfact>
</mgrwt>
</event>
<event>
 4    1  0.3973261E+000  0.1872588E+03  0.7546771E-02  0.1160957E+00
         21   -1    0    0  503  502  0.00000000000E+00  0.00000000000E+00  0.56614958553E+02  0.56614958553E+02  0.00000000000E+00 0.  1.
         21   -1    0    0  501  503 -0.00000000000E+00 -0.00000000000E+00 -0.63164080371E+03  0.63164080371E+03  0.00000000000E+00 0. -1.
          6    1    1    2  501    0  0.61998058709E+02 -0.35959519982E+02 -0.33546930426E+03  0.38419461274E+03  0.17300000000E+03 0. -1.
         -6    1    1    2    0  502 -0.61998058709E+02  0.35959519982E+02 -0.23955654091E+03  0.30406114953E+03  0.17300000000E+03 0.  1.
<mgrwt>
<rscale>  2 0.18725877E+03</rscale>
<asrwt>0</asrwt>
<pdfrwt beam="1">  1       21 0.87099936E-02 0.18725877E+03</pdfrwt>
<pdfrwt beam="2">  1       21 0.97175509E-01 0.18725877E+03</pdfrwt>
<totfact> 0.91078586E+04</totfact>
</mgrwt>
</event>
<event>
 4    1  0.3973261E+000  0.2787006E+03  0.7546771E-02  0.1096401E+00
         21   -1    0    0  501  502  0.00000000000E+00  0.00000000000E+00  0.44145823853E+04  0.44145823853E+04  0.00000000000E+00 0.  1.
         21   -1    0    0  502  503 -0.00000000000E+00 -0.00000000000E+00 -0.17615565940E+02  0.17615565940E+02  0.00000000000E+00 0.  1.
          6    1    1    2  501    0 -0.17674991703E+03 -0.12846979153E+03  0.21225308833E+04  0.21407501889E+04  0.17300000000E+03 0.  1.
         -6    1    1    2    0  503  0.17674991703E+03  0.12846979153E+03  0.22744359360E+04  0.22914477623E+04  0.17300000000E+03 0.  1.
<mgrwt>
<rscale>  2 0.27870059E+03</rscale>
<asrwt>0</asrwt>
<pdfrwt beam="1">  1       21 0.67916564E+00 0.27870059E+03</pdfrwt>
<pdfrwt beam="2">  1       21 0.27100906E-02 0.27870059E+03</pdfrwt>
<totfact> 0.50371742E+01</totfact>
</mgrwt>
</event>
<event>
 4    1  0.3973261E+000  0.1751494E+03  0.7546771E-02  0.1172582E+00
         21   -1    0    0  503  502  0.00000000000E+00  0.00000000000E+00  0.47316583732E+03  0.47316583732E+03  0.00000000000E+00 0. -1.
         21   -1    0    0  501  503 -0.00000000000E+00 -0.00000000000E+00 -0.68496842584E+02  0.68496842584E+02  0.00000000000E+00 0. -1.
          6    1    1    2  501    0  0.17016795886E+02  0.21418031776E+02  0.13970714418E+03  0.22404327610E+03  0.17300000000E+03 0. -1.
         -6    1    1    2    0  502 -0.17016795886E+02 -0.21418031776E+02  0.26496185055E+03  0.31761940381E+03  0.17300000000E+03 0. -1.
<mgrwt>
<rscale>  2 0.17514937E+03</rscale>
<asrwt>0</asrwt>
<pdfrwt beam="1">  1       21 0.72794742E-01 0.17514937E+03</pdfrwt>
<pdfrwt beam="2">  1       21 0.10537976E-01 0.17514937E+03</pdfrwt>
<totfact> 0.12646791E+05</totfact>
</mgrwt>
</event>
<event>
 4    1  0.3973261E+000  0.2829251E+03  0.7546771E-02  0.1094102E+00
         21   -1    0    0  501  502  0.00000000000E+00  0.00000000000E+00  0.56548953708E+03  0.56548953708E+03  0.00000000000E+00 0. -1.
         21   -1    0    0  502  503 -0.00000000000E+00 -0.00000000000E+00 -0.14911491459E+03  0.14911491459E+03  0.00000000000E+00 0.  1.
          6    1    1    2  501    0 -0.40812065829E+02 -0.22011817257E+03  0.28865035138E+03  0.40418518029E+03  0.17300000000E+03 0. -1.
         -6    1    1    2    0  503  0.40812065829E+02  0.22011817257E+03  0.12772427111E+03  0.31041927138E+03  0.17300000000E+03 0.  1.
<mgrwt>
<rscale>  2 0.28292514E+03</rscale>
<asrwt>0</asrwt>
<pdfrwt beam="1">  1       21 0.86998389E-01 0.28292514E+03</pdfrwt>
<pdfrwt beam="2">  1       21 0.22940756E-01 0.28292514E+03</pdfrwt>
<totfact> 0.19327097E+04</totfact>
</mgrwt>
</event>
<event>
 4    1  0.3973261E+000  0.3258244E+03  0.7546771E-02  0.1073000E+00
         21   -1    0    0  501  502  0.00000000000E+00  0.00000000000E+00  0.19645383988E+03  0.19645383988E+03  0.00000000000E+00 0. -1.
         21   -1    0    0  502  503 -0.00000000000E+00 -0.00000000000E+00 -0.60430780378E+03  0.60430780378E+03  0.00000000000E+00 0. -1.
          6    1    1    2  501    0 -0.24027880105E+03  0.13600976817E+03 -0.73713078690E+02  0.33405864342E+03  0.17300000000E+03 0. -1.
         -6    1    1    2    0  503  0.24027880105E+03 -0.13600976817E+03 -0.33414088521E+03  0.46670300025E+03  0.17300000000E+03 0. -1.
<mgrwt>
<rscale>  2 0.32582443E+03</rscale>
<asrwt>0</asrwt>
<pdfrwt beam="1">  1       21 0.30223668E-01 0.32582443E+03</pdfrwt>
<pdfrwt beam="2">  1       21 0.92970430E-01 0.32582443E+03</pdfrwt>
<totfact> 0.95095601E+03</totfact>
</mgrwt>
</event>
<event>
 4    1  0.3973261E+000  0.2157624E+03  0.7546771E-02  0.1137082E+00
         21   -1    0    0  501  502  0.00000000000E+00  0.00000000000E+00  0.61714760824E+03  0.61714760824E+03  0.00000000000E+00 0. -1.
         21   -1    0    0  502  503 -0.00000000000E+00 -0.00000000000E+00 -0.75585098686E+02  0.75585098686E+02  0.00000000000E+00 0. -1.
          6    1    1    2  501    0 -0.12292755036E+03  0.38900531113E+02  0.28630726516E+03  0.35850423156E+03  0.17300000000E+03 0. -1.
         -6    1    1    2    0  503  0.12292755036E+03 -0.38900531113E+02  0.25525524439E+03  0.33422847537E+03  0.17300000000E+03 0. -1.
<mgrwt>
<rscale>  2 0.21576245E+03</rscale>
<asrwt>0</asrwt>
<pdfrwt beam="1">  1       21 0.94945782E-01 0.21576245E+03</pdfrwt>
<pdfrwt beam="2">  1       21 0.11628477E-01 0.21576245E+03</pdfrwt>
<totfact> 0.56938620E+04</totfact>
</mgrwt>
</event>
<event>
 4    1  0.3973261E+000  0.2466501E+03  0.7546771E-02  0.1115440E+00
         21   -1    0    0  501  502  0.00000000000E+00  0.00000000000E+00  0.23461430582E+03  0.23461430582E+03  0.00000000000E+00 0. -1.
         21   -1    0    0  502  503 -0.00000000000E+00 -0.00000000000E+00 -0.91638908121E+03  0.91638908121E+03  0.00000000000E+00 0. -1.
          6    1    1    2  501    0  0.17203245144E+03  0.36223276217E+02  0.14643644437E+03  0.28684477044E+03  0.17300000000E+03 0. -1.
         -6    1    1    2    0  503 -0.17203245144E+03 -0.36223276217E+02 -0.82821121976E+03  0.86415861659E+03  0.17300000000E+03 0. -1.
<mgrwt>
<rscale>  2 0.24665014E+03</rscale>
<asrwt>0</asrwt>
<pdfrwt beam="1">  1       21 0.36094509E-01 0.24665014E+03</pdfrwt>
<pdfrwt beam="2">  1       21 0.14098293E+00 0.24665014E+03</pdfrwt>
<totfact> 0.24872856E+03</totfact>
</mgrwt>
</event>
<event>
 4    1  0.3973261E+000  0.1871528E+03  0.7546771E-02  0.1161055E+00
         21   -1    0    0  501  502  0.00000000000E+00  0.00000000000E+00  0.78874131639E+02  0.78874131639E+02  0.00000000000E+00 0. -1.
         21   -1    0    0  502  503 -0.00000000000E+00 -0.00000000000E+00 -0.46632349041E+03  0.46632349041E+03  0.00000000000E+00 0.  1.
          6    1    1    2  501    0  0.61168270322E+02  0.36818585317E+02 -0.13418399586E+03  0.23028571441E+03  0.17300000000E+03 0. -1.
         -6    1    1    2    0  503 -0.61168270322E+02 -0.36818585317E+02 -0.25326536292E+03  0.31491190764E+03  0.17300000000E+03 0. -1.
<mgrwt>
<rscale>  2 0.18715279E+03</rscale>
<asrwt>0</asrwt>
<pdfrwt beam="1">  1       21 0.12134482E-01 0.18715279E+03</pdfrwt>
<pdfrwt beam="2">  1       21 0.71742074E-01 0.18715279E+03</pdfrwt>
<totfact> 0.10116479E+05</totfact>
</mgrwt>
</event>
<event>
 4    1  0.3973261E+000  0.1813781E+03  0.7546771E-02  0.1166476E+00
         21   -1    0    0  501  502  0.00000000000E+00  0.00000000000E+00  0.12799293882E+03  0.12799293882E+03  0.00000000000E+00 0.  1.
         21   -1    0    0  502  503 -0.00000000000E+00 -0.00000000000E+00 -0.27103672406E+03  0.27103672406E+03  0.00000000000E+00 0.  1.
          6    1    1    2  501    0 -0.32636498463E+02  0.43633504894E+02 -0.26166434527E+02  0.18325584868E+03  0.17300000000E+03 0.  1.
         -6    1    1    2    0  503  0.32636498463E+02 -0.43633504894E+02 -0.11687735072E+03  0.21577381420E+03  0.17300000000E+03 0.  1.
<mgrwt>
<rscale>  2 0.18137812E+03</rscale>
<asrwt>0</asrwt>
<pdfrwt beam="1">  1       21 0.19691222E-01 0.18137812E+03</pdfrwt>
<pdfrwt beam="2">  1       21 0.41697957E-01 0.18137812E+03</pdfrwt>
<totfact> 0.13207820E+05</totfact>
</mgrwt>
</event>
<event>
 4    1  0.3973261E+000  0.1731617E+03  0.7546771E-02  0.1174590E+00
         21   -1    0    0  501  502  0.00000000000E+00  0.00000000000E+00  0.21235801787E+02  0.21235801787E+02  0.00000000000E+00 0.  1.
         21   -1    0    0  502  503 -0.00000000000E+00 -0.00000000000E+00 -0.21337028850E+04  0.21337028850E+04  0.00000000000E+00 0.  1.
          6    1    1    2  501    0 -0.74780386302E+01  0.25049190528E+00 -0.42959554967E+03  0.46318173550E+03  0.17300000000E+03 0.  1.
         -6    1    1    2    0  503  0.74780386302E+01 -0.25049190528E+00 -0.16828715336E+04  0.16917569513E+04  0.17300000000E+03 0.  1.
<mgrwt>
<rscale>  2 0.17316173E+03</rscale>
<asrwt>0</asrwt>
<pdfrwt beam="1">  1       21 0.32670455E-02 0.17316173E+03</pdfrwt>
<pdfrwt beam="2">  1       21 0.32826207E+00 0.17316173E+03</pdfrwt>
<totfact> 0.13172246E+04</totfact>
</mgrwt>
</event>
<event>
 4    1  0.3973261E+000  0.1850056E+03  0.7546771E-02  0.1163045E+00
         21   -1    0    0  501  502  0.00000000000E+00  0.00000000000E+00  0.29377696780E+04  0.29377696780E+04  0.00000000000E+00 0. -1.
         21   -1    0    0  502  503 -0.00000000000E+00 -0.00000000000E+00 -0.21991259105E+02  0.21991259105E+02  0.00000000000E+00 0. -1.
          6    1    1    2  501    0  0.39391110453E+01 -0.65441214049E+02  0.24726732549E+04  0.24795846617E+04  0.17300000000E+03 0. -1.
         -6    1    1    2    0  503 -0.39391110453E+01  0.65441214049E+02  0.44310516400E+03  0.48017627540E+03  0.17300000000E+03 0. -1.
<mgrwt>
<rscale>  2 0.18500559E+03</rscale>
<asrwt>0</asrwt>
<pdfrwt beam="1">  1       21 0.45196425E+00 0.18500559E+03</pdfrwt>
<pdfrwt beam="2">  1       21 0.33832730E-02 0.18500559E+03</pdfrwt>
<totfact> 0.21179560E+03</totfact>
</mgrwt>
</event>
<event>
 4    1  0.3973261E+000  0.2102718E+03  0.7546771E-02  0.1141351E+00
         21   -1    0    0  503  502  0.00000000000E+00  0.00000000000E+00  0.11754994806E+04  0.11754994806E+04  0.00000000000E+00 0.  1.
         21   -1    0    0  501  503 -0.00000000000E+00 -0.00000000000E+00 -0.66624578906E+02  0.66624578906E+02  0.00000000000E+00 0. -1.
          6    1    1    2  501    0 -0.10749404310E+03 -0.52251773189E+02  0.14460868850E+03  0.25519774665E+03  0.17300000000E+03 0. -1.
         -6    1    1    2    0  502  0.10749404310E+03  0.52251773189E+02  0.96426621317E+03  0.98692631283E+03  0.17300000000E+03 0.  1.
<mgrwt>
<rscale>  2 0.21027177E+03</rscale>
<asrwt>0</asrwt>
<pdfrwt beam="1">  1       21 0.18084606E+00 0.21027177E+03</pdfrwt>
<pdfrwt beam="2">  1       21 0.10249936E-01 0.21027177E+03</pdfrwt>
<totfact> 0.13764383E+04</totfact>
</mgrwt>
</event>
<event>
 4    1  0.3973261E+000  0.1804935E+03  0.7546771E-02  0.1167326E+00
         21   -1    0    0  501  502  0.00000000000E+00  0.00000000000E+00  0.95420188285E+02  0.95420188285E+02  0.00000000000E+00 0. -1.
         21   -1    0    0  502  503 -0.00000000000E+00 -0.00000000000E+00 -0.37143972736E+03  0.37143972736E+03  0.00000000000E+00 0. -1.
          6    1    1    2  501    0 -0.36165358471E+02 -0.36619238173E+02 -0.71643015914E+02  0.19419223333E+03  0.17300000000E+03 0. -1.
         -6    1    1    2    0  503  0.36165358471E+02  0.36619238173E+02 -0.20437652316E+03  0.27266768231E+03  0.17300000000E+03 0. -1.
<mgrwt>
<rscale>  2 0.18049350E+03</rscale>
<asrwt>0</asrwt>
<pdfrwt beam="1">  1       21 0.14680029E-01 0.18049350E+03</pdfrwt>
<pdfrwt beam="2">  1       21 0.57144574E-01 0.18049350E+03</pdfrwt>
<totfact> 0.11784878E+05</totfact>
</mgrwt>
</event>
<event>
 4    1  0.3973261E+000  0.2010137E+03  0.7546771E-02  0.1148887E+00
         21   -1    0    0  501  502  0.00000000000E+00  0.00000000000E+00  0.11793639761E+03  0.11793639761E+03  0.00000000000E+00 0.  1.
         21   -1    0    0  502  503 -0.00000000000E+00 -0.00000000000E+00 -0.35064739333E+03  0.35064739333E+03  0.00000000000E+00 0.  1.
          6    1    1    2  501    0  0.56384782469E+02 -0.85429916373E+02 -0.80890080306E+02  0.21667883929E+03  0.17300000000E+03 0. -1.
         -6    1    1    2    0  503 -0.56384782469E+02  0.85429916373E+02 -0.15182091541E+03  0.25190495164E+03  0.17300000000E+03 0. -1.
<mgrwt>
<rscale>  2 0.20101372E+03</rscale>
<asrwt>0</asrwt>
<pdfrwt beam="1">  1       21 0.18144061E-01 0.20101372E+03</pdfrwt>
<pdfrwt beam="2">  1       21 0.53945753E-01 0.20101372E+03</pdfrwt>
<totfact> 0.89577568E+04</totfact>
</mgrwt>
</event>
<event>
 4    1  0.3973261E+000  0.1906448E+03  0.7546771E-02  0.1157881E+00
         21   -1    0    0  501  502  0.00000000000E+00  0.00000000000E+00  0.60556054268E+03  0.60556054268E+03  0.00000000000E+00 0.  1.
         21   -1    0    0  502  503 -0.00000000000E+00 -0.00000000000E+00 -0.26606276106E+03  0.26606276106E+03  0.00000000000E+00 0.  1.
          6    1    1    2  501    0  0.80060884528E+02 -0.25872220619E+01  0.55326711126E+03  0.58519222085E+03  0.17300000000E+03 0.  1.
         -6    1    1    2    0  503 -0.80060884528E+02  0.25872220619E+01 -0.21376932964E+03  0.28643108289E+03  0.17300000000E+03 0.  1.
<mgrwt>
<rscale>  2 0.19064480E+03</rscale>
<asrwt>0</asrwt>
<pdfrwt beam="1">  1       21 0.93163160E-01 0.19064480E+03</pdfrwt>
<pdfrwt beam="2">  1       21 0.40932733E-01 0.19064480E+03</pdfrwt>
<totfact> 0.55829611E+03</totfact>
</mgrwt>
</event>
<event>
 4    1  0.3973261E+000  0.1792400E+03  0.7546771E-02  0.1168541E+00
         21   -1    0    0  503  502  0.00000000000E+00  0.00000000000E+00  0.19227038861E+03  0.19227038861E+03  0.00000000000E+00 0. -1.
         21   -1    0    0  501  503 -0.00000000000E+00 -0.00000000000E+00 -0.17835411768E+03  0.17835411768E+03  0.00000000000E+00 0. -1.
          6    1    1    2  501    0 -0.94312794283E+01  0.45924148122E+02 -0.39606831064E+02  0.18356382399E+03  0.17300000000E+03 0. -1.
         -6    1    1    2    0  502  0.94312794283E+01 -0.45924148122E+02  0.53523102000E+02  0.18706068229E+03  0.17300000000E+03 0. -1.
<mgrwt>
<rscale>  2 0.17924000E+03</rscale>
<asrwt>0</asrwt>
<pdfrwt beam="1">  1       21 0.29580060E-01 0.17924000E+03</pdfrwt>
<pdfrwt beam="2">  1       21 0.27439095E-01 0.17924000E+03</pdfrwt>
<totfact> 0.13937999E+05</totfact>
</mgrwt>
</event>
<event>
 4    1  0.3973261E+000  0.2217733E+03  0.7546771E-02  0.1132568E+00
         21   -1    0    0  501  502  0.00000000000E+00  0.00000000000E+00  0.63749242873E+03  0.63749242873E+03  0.00000000000E+00 0. -1.
         21   -1    0    0  502  503 -0.00000000000E+00 -0.00000000000E+00 -0.94719718662E+02  0.94719718662E+02  0.00000000000E+00 0. -1.
          6    1    1    2  501    0 -0.13816555454E+03 -0.12833416163E+02  0.42905747445E+03  0.48298419582E+03  0.17300000000E+03 0. -1.
         -6    1    1    2    0  503  0.13816555454E+03  0.12833416163E+02  0.11371523562E+03  0.24922795157E+03  0.17300000000E+03 0. -1.
<mgrwt>
<rscale>  2 0.22177335E+03</rscale>
<asrwt>0</asrwt>
<pdfrwt beam="1">  1       21 0.98075755E-01 0.22177335E+03</pdfrwt>
<pdfrwt beam="2">  1       21 0.14572265E-01 0.22177335E+03</pdfrwt>
<totfact> 0.34990098E+04</totfact>
</mgrwt>
</event>
<event>
 4    1  0.3973261E+000  0.1917019E+03  0.7546771E-02  0.1156935E+00
         21   -1    0    0  503  502  0.00000000000E+00  0.00000000000E+00  0.57729314871E+03  0.57729314871E+03  0.00000000000E+00 0. -1.
         21   -1    0    0  501  503 -0.00000000000E+00 -0.00000000000E+00 -0.14740471211E+03  0.14740471211E+03  0.00000000000E+00 0. -1.
          6    1    1    2  501    0  0.82190666081E+02 -0.80823539057E+01 -0.58175982562E+02  0.20033490705E+03  0.17300000000E+03 0. -1.
         -6    1    1    2    0  502 -0.82190666081E+02  0.80823539057E+01  0.48806441916E+03  0.52436295377E+03  0.17300000000E+03 0. -1.
<mgrwt>
<rscale>  2 0.19170193E+03</rscale>
<asrwt>0</asrwt>
<pdfrwt beam="1">  1       21 0.88814330E-01 0.19170193E+03</pdfrwt>
<pdfrwt beam="2">  1       21 0.22677648E-01 0.19170193E+03</pdfrwt>
<totfact> 0.19759222E+04</totfact>
</mgrwt>
</event>
<event>
 4    1  0.3973261E+000  0.2379845E+03  0.7546771E-02  0.1121143E+00
         21   -1    0    0  503  502  0.00000000000E+00  0.00000000000E+00  0.11389887355E+04  0.11389887355E+04  0.00000000000E+00 0. -1.
         21   -1    0    0  501  503 -0.00000000000E+00 -0.00000000000E+00 -0.77628428872E+02  0.77628428872E+02  0.00000000000E+00 0.  1.
          6    1    1    2  501    0 -0.19480845347E+01  0.16341300905E+03  0.16597688418E+03  0.29014639864E+03  0.17300000000E+03 0.  1.
         -6    1    1    2    0  502  0.19480845347E+01 -0.16341300905E+03  0.89538342243E+03  0.92647076572E+03  0.17300000000E+03 0. -1.
<mgrwt>
<rscale>  2 0.23798447E+03</rscale>
<asrwt>0</asrwt>
<pdfrwt beam="1">  1       21 0.17522902E+00 0.23798447E+03</pdfrwt>
<pdfrwt beam="2">  1       21 0.11942836E-01 0.23798447E+03</pdfrwt>
<totfact> 0.11236744E+04</totfact>
</mgrwt>
</event>
<event>
 4    1  0.3973261E+000  0.3074348E+03  0.7546771E-02  0.1081582E+00
         21   -1    0    0  503  502  0.00000000000E+00  0.00000000000E+00  0.40442452924E+03  0.40442452924E+03  0.00000000000E+00 0.  1.
         21   -1    0    0  501  503 -0.00000000000E+00 -0.00000000000E+00 -0.25385044278E+03  0.25385044278E+03  0.00000000000E+00 0.  1.
          6    1    1    2  501    0  0.33107009162E+02  0.25197440622E+03 -0.17432874981E+02  0.30792869398E+03  0.17300000000E+03 0.  1.
         -6    1    1    2    0  502 -0.33107009162E+02 -0.25197440622E+03  0.16800696144E+03  0.35034627804E+03  0.17300000000E+03 0.  1.
<mgrwt>
<rscale>  2 0.30743483E+03</rscale>
<asrwt>0</asrwt>
<pdfrwt beam="1">  1       21 0.62219159E-01 0.30743483E+03</pdfrwt>
<pdfrwt beam="2">  1       21 0.39053914E-01 0.30743483E+03</pdfrwt>
<totfact> 0.14270243E+04</totfact>
</mgrwt>
</event>
<event>
 4    1  0.3973261E+000  0.2346164E+03  0.7546771E-02  0.1123432E+00
         21   -1    0    0  503  502  0.00000000000E+00  0.00000000000E+00  0.41029743275E+03  0.41029743275E+03  0.00000000000E+00 0. -1.
         21   -1    0    0  501  503 -0.00000000000E+00 -0.00000000000E+00 -0.24507057233E+03  0.24507057233E+03  0.00000000000E+00 0.  1.
          6    1    1    2  501    0  0.27349483972E+02  0.15610204108E+03 -0.13783108088E+03  0.27210705312E+03  0.17300000000E+03 0.  1.
         -6    1    1    2    0  502 -0.27349483972E+02 -0.15610204108E+03  0.30305794130E+03  0.38326095195E+03  0.17300000000E+03 0. -1.
<mgrwt>
<rscale>  2 0.23461637E+03</rscale>
<asrwt>0</asrwt>
<pdfrwt beam="1">  1       21 0.63122682E-01 0.23461637E+03</pdfrwt>
<pdfrwt beam="2">  1       21 0.37703165E-01 0.23461637E+03</pdfrwt>
<totfact> 0.15368392E+04</totfact>
</mgrwt>
</event>
<event>
 4    1  0.3973261E+000  0.1814767E+03  0.7546771E-02  0.1166382E+00
         21   -1    0    0  503  502  0.00000000000E+00  0.00000000000E+00  0.33146745611E+02  0.33146745611E+02  0.00000000000E+00 0.  1.
         21   -1    0    0  501  503 -0.00000000000E+00 -0.00000000000E+00 -0.99433289887E+03  0.99433289887E+03  0.00000000000E+00 0.  1.
          6    1    1    2  501    0 -0.25851138683E+02 -0.48337428369E+02 -0.46641257923E+03  0.50047425750E+03  0.17300000000E+03 0. -1.
         -6    1    1    2    0  502  0.25851138683E+02  0.48337428369E+02 -0.49477357402E+03  0.52700538698E+03  0.17300000000E+03 0. -1.
<mgrwt>
<rscale>  2 0.18147669E+03</rscale>
<asrwt>0</asrwt>
<pdfrwt beam="1">  1       21 0.50994993E-02 0.18147669E+03</pdfrwt>
<pdfrwt beam="2">  1       21 0.15297429E+00 0.18147669E+03</pdfrwt>
<totfact> 0.74259490E+04</totfact>
</mgrwt>
</event>
<event>
 4    1  0.3973261E+000  0.2118624E+03  0.7546771E-02  0.1140100E+00
         21   -1    0    0  501  502  0.00000000000E+00  0.00000000000E+00  0.25698314867E+03  0.25698314867E+03  0.00000000000E+00 0. -1.
         21   -1    0    0  502  503 -0.00000000000E+00 -0.00000000000E+00 -0.17710199563E+03  0.17710199563E+03  0.00000000000E+00 0.  1.
          6    1    1    2  501    0  0.12022249160E+03 -0.22433210170E+02  0.65406095380E+02  0.22172878414E+03  0.17300000000E+03 0. -1.
         -6    1    1    2    0  503 -0.12022249160E+03  0.22433210170E+02  0.14475057664E+02  0.21235636016E+03  0.17300000000E+03 0.  1.
<mgrwt>
<rscale>  2 0.21186245E+03</rscale>
<asrwt>0</asrwt>
<pdfrwt beam="1">  1       21 0.39535869E-01 0.21186245E+03</pdfrwt>
<pdfrwt beam="2">  1       21 0.27246461E-01 0.21186245E+03</pdfrwt>
<totfact> 0.78555104E+04</totfact>
</mgrwt>
</event>
<event>
 4    1  0.3973261E+000  0.2109169E+03  0.7546771E-02  0.1140842E+00
         21   -1    0    0  503  502  0.00000000000E+00  0.00000000000E+00  0.34678174934E+03  0.34678174934E+03  0.00000000000E+00 0. -1.
         21   -1    0    0  501  503 -0.00000000000E+00 -0.00000000000E+00 -0.20353868294E+03  0.20353868294E+03  0.00000000000E+00 0.  1.
          6    1    1    2  501    0 -0.63493752218E+02  0.10259379879E+03 -0.95693116262E+02  0.23160983705E+03  0.17300000000E+03 0.  1.
         -6    1    1    2    0  502  0.63493752218E+02 -0.10259379879E+03  0.23893618266E+03  0.31871059522E+03  0.17300000000E+03 0. -1.
<mgrwt>
<rscale>  2 0.21091691E+03</rscale>
<asrwt>0</asrwt>
<pdfrwt beam="1">  1       21 0.53351038E-01 0.21091691E+03</pdfrwt>
<pdfrwt beam="2">  1       21 0.31313644E-01 0.21091691E+03</pdfrwt>
<totfact> 0.32279639E+04</totfact>
</mgrwt>
</event>
<event>
 4    1  0.3973261E+000  0.2234504E+03  0.7546771E-02  0.1131336E+00
         21   -1    0    0  501  502  0.00000000000E+00  0.00000000000E+00  0.58085677165E+03  0.58085677165E+03  0.00000000000E+00 0. -1.
         21   -1    0    0  502  503 -0.00000000000E+00 -0.00000000000E+00 -0.98530879149E+02  0.98530879149E+02  0.00000000000E+00 0. -1.
          6    1    1    2  501    0 -0.25015378508E+02  0.13919528430E+03  0.36250036729E+03  0.42583636836E+03  0.17300000000E+03 0. -1.
         -6    1    1    2    0  503  0.25015378508E+02 -0.13919528430E+03  0.11982552522E+03  0.25355128244E+03  0.17300000000E+03 0. -1.
<mgrwt>
<rscale>  2 0.22345043E+03</rscale>
<asrwt>0</asrwt>
<pdfrwt beam="1">  1       21 0.89362578E-01 0.22345043E+03</pdfrwt>
<pdfrwt beam="2">  1       21 0.15158597E-01 0.22345043E+03</pdfrwt>
<totfact> 0.40458538E+04</totfact>
</mgrwt>
</event>
<event>
 4    1  0.3973261E+000  0.2725100E+03  0.7546771E-02  0.1099852E+00
         21   -1    0    0  501  502  0.00000000000E+00  0.00000000000E+00  0.50408903584E+03  0.50408903584E+03  0.00000000000E+00 0. -1.
         21   -1    0    0  502  503 -0.00000000000E+00 -0.00000000000E+00 -0.17025723641E+03  0.17025723641E+03  0.00000000000E+00 0.  1.
          6    1    1    2  501    0 -0.77146932099E+02 -0.19591081529E+03  0.29067691639E+03  0.39844041763E+03  0.17300000000E+03 0. -1.
         -6    1    1    2    0  503  0.77146932099E+02  0.19591081529E+03  0.43154883034E+02  0.27590585461E+03  0.17300000000E+03 0.  1.
<mgrwt>
<rscale>  2 0.27250999E+03</rscale>
<asrwt>0</asrwt>
<pdfrwt beam="1">  1       21 0.77552159E-01 0.27250999E+03</pdfrwt>
<pdfrwt beam="2">  1       21 0.26193421E-01 0.27250999E+03</pdfrwt>
<totfact> 0.19591034E+04</totfact>
</mgrwt>
</event>
<event>
 4    1  0.3973261E+000  0.2469837E+03  0.7546771E-02  0.1115226E+00
         21   -1    0    0  503  502  0.00000000000E+00  0.00000000000E+00  0.54530530325E+03  0.54530530325E+03  0.00000000000E+00 0. -1.
         21   -1    0    0  501  503 -0.00000000000E+00 -0.00000000000E+00 -0.21359945877E+03  0.21359945877E+03  0.00000000000E+00 0.  1.
          6    1    1    2  501    0  0.10858148839E+03 -0.13885969090E+03 -0.96019507364E+02  0.26499188511E+03  0.17300000000E+03 0.  1.
         -6    1    1    2    0  502 -0.10858148839E+03  0.13885969090E+03  0.42772535184E+03  0.49391287692E+03  0.17300000000E+03 0. -1.
<mgrwt>
<rscale>  2 0.24698371E+03</rscale>
<asrwt>0</asrwt>
<pdfrwt beam="1">  1       21 0.83893123E-01 0.24698371E+03</pdfrwt>
<pdfrwt beam="2">  1       21 0.32861455E-01 0.24698371E+03</pdfrwt>
<totfact> 0.10637711E+04</totfact>
</mgrwt>
</event>
<event>
 4    1  0.3973261E+000  0.1933292E+03  0.7546771E-02  0.1155492E+00
         21   -1    0    0  503  502  0.00000000000E+00  0.00000000000E+00  0.50366423864E+02  0.50366423864E+02  0.00000000000E+00 0. -1.
         21   -1    0    0  501  503 -0.00000000000E+00 -0.00000000000E+00 -0.79996613473E+03  0.79996613473E+03  0.00000000000E+00 0.  1.
          6    1    1    2  501    0 -0.57509221210E+01 -0.86105142487E+02 -0.48916441299E+03  0.52598288147E+03  0.17300000000E+03 0. -1.
         -6    1    1    2    0  502  0.57509221210E+01  0.86105142487E+02 -0.26043529788E+03  0.32434967712E+03  0.17300000000E+03 0. -1.
<mgrwt>
<rscale>  2 0.19332917E+03</rscale>
<asrwt>0</asrwt>
<pdfrwt beam="1">  1       21 0.77486810E-02 0.19332917E+03</pdfrwt>
<pdfrwt beam="2">  1       21 0.12307171E+00 0.19332917E+03</pdfrwt>
<totfact> 0.62890315E+04</totfact>
</mgrwt>
</event>
<event>
 4    1  0.3973261E+000  0.2091696E+03  0.7546771E-02  0.1142225E+00
         21   -1    0    0  501  502  0.00000000000E+00  0.00000000000E+00  0.38796764089E+02  0.38796764089E+02  0.00000000000E+00 0. -1.
         21   -1    0    0  502  503 -0.00000000000E+00 -0.00000000000E+00 -0.11304803129E+04  0.11304803129E+04  0.00000000000E+00 0. -1.
          6    1    1    2  501    0  0.56631328645E+02 -0.10303312349E+03 -0.51695868908E+03  0.55767214216E+03  0.17300000000E+03 0. -1.
         -6    1    1    2    0  503 -0.56631328645E+02  0.10303312349E+03 -0.57472485970E+03  0.61160493481E+03  0.17300000000E+03 0. -1.
<mgrwt>
<rscale>  2 0.20916962E+03</rscale>
<asrwt>0</asrwt>
<pdfrwt beam="1">  1       21 0.59687319E-02 0.20916962E+03</pdfrwt>
<pdfrwt beam="2">  1       21 0.17392008E+00 0.20916962E+03</pdfrwt>
<totfact> 0.39449473E+04</totfact>
</mgrwt>
</event>
<event>
 4    1  0.3973261E+000  0.2122425E+03  0.7546771E-02  0.1139802E+00
         21   -1    0    0  503  502  0.00000000000E+00  0.00000000000E+00  0.60238115852E+03  0.60238115852E+03  0.00000000000E+00 0.  1.
         21   -1    0    0  501  503 -0.00000000000E+00 -0.00000000000E+00 -0.75088422966E+02  0.75088422966E+02  0.00000000000E+00 0.  1.
          6    1    1    2  501    0  0.92101516386E+02  0.81456588765E+02  0.24198394112E+03  0.32187434339E+03  0.17300000000E+03 0.  1.
         -6    1    1    2    0  502 -0.92101516386E+02 -0.81456588765E+02  0.28530879443E+03  0.35559523809E+03  0.17300000000E+03 0.  1.
<mgrwt>
<rscale>  2 0.21224247E+03</rscale>
<asrwt>0</asrwt>
<pdfrwt beam="1">  1       21 0.92674021E-01 0.21224247E+03</pdfrwt>
<pdfrwt beam="2">  1       21 0.11552065E-01 0.21224247E+03</pdfrwt>
<totfact> 0.61075600E+04</totfact>
</mgrwt>
</event>
<event>
 4    1  0.3973261E+000  0.2452925E+03  0.7546771E-02  0.1116316E+00
         21   -1    0    0  501  502  0.00000000000E+00  0.00000000000E+00  0.22074382078E+03  0.22074382078E+03  0.00000000000E+00 0.  1.
         21   -1    0    0  502  503 -0.00000000000E+00 -0.00000000000E+00 -0.35371054912E+03  0.35371054912E+03  0.00000000000E+00 0.  1.
          6    1    1    2  501    0  0.95115444142E+02  0.14557633483E+03  0.71084561266E+02  0.25538487000E+03  0.17300000000E+03 0.  1.
         -6    1    1    2    0  503 -0.95115444142E+02 -0.14557633483E+03 -0.20405128960E+03  0.31906949990E+03  0.17300000000E+03 0.  1.
<mgrwt>
<rscale>  2 0.24529251E+03</rscale>
<asrwt>0</asrwt>
<pdfrwt beam="1">  1       21 0.33960588E-01 0.24529251E+03</pdfrwt>
<pdfrwt beam="2">  1       21 0.54417007E-01 0.24529251E+03</pdfrwt>
<totfact> 0.25927753E+04</totfact>
</mgrwt>
</event>
<event>
 4    1  0.3973261E+000  0.2584046E+03  0.7546771E-02  0.1108106E+00
         21   -1    0    0  501  502  0.00000000000E+00  0.00000000000E+00  0.32303852718E+03  0.32303852718E+03  0.00000000000E+00 0. -1.
         21   -1    0    0  502  503 -0.00000000000E+00 -0.00000000000E+00 -0.25440638873E+03  0.25440638873E+03  0.00000000000E+00 0.  1.
          6    1    1    2  501    0 -0.17630005789E+03  0.75909392711E+02  0.15933978218E+03  0.30358213468E+03  0.17300000000E+03 0. -1.
         -6    1    1    2    0  503  0.17630005789E+03 -0.75909392711E+02 -0.90707643721E+02  0.27386278123E+03  0.17300000000E+03 0.  1.
<mgrwt>
<rscale>  2 0.25840462E+03</rscale>
<asrwt>0</asrwt>
<pdfrwt beam="1">  1       21 0.49698235E-01 0.25840462E+03</pdfrwt>
<pdfrwt beam="2">  1       21 0.39139444E-01 0.25840462E+03</pdfrwt>
<totfact> 0.23473107E+04</totfact>
</mgrwt>
</event>
<event>
 4    1  0.3973261E+000  0.1989059E+03  0.7546771E-02  0.1150665E+00
         21   -1    0    0  503  502  0.00000000000E+00  0.00000000000E+00  0.66940221320E+03  0.66940221320E+03  0.00000000000E+00 0.  1.
         21   -1    0    0  501  503 -0.00000000000E+00 -0.00000000000E+00 -0.69780823598E+02  0.69780823598E+02  0.00000000000E+00 0.  1.
          6    1    1    2  501    0  0.86681823007E+02  0.46052485051E+02  0.15523388458E+03  0.25231157076E+03  0.17300000000E+03 0.  1.
         -6    1    1    2    0  502 -0.86681823007E+02 -0.46052485051E+02  0.44438750503E+03  0.48687146604E+03  0.17300000000E+03 0.  1.
<mgrwt>
<rscale>  2 0.19890593E+03</rscale>
<asrwt>0</asrwt>
<pdfrwt beam="1">  1       21 0.10298495E+00 0.19890593E+03</pdfrwt>
<pdfrwt beam="2">  1       21 0.10735512E-01 0.19890593E+03</pdfrwt>
<totfact> 0.54596353E+04</totfact>
</mgrwt>
</event>
<event>
 4    1  0.3973261E+000  0.2613367E+03  0.7546771E-02  0.1106343E+00
         21   -1    0    0  501  502  0.00000000000E+00  0.00000000000E+00  0.48300974300E+02  0.48300974300E+02  0.00000000000E+00 0.  1.
         21   -1    0    0  502  503 -0.00000000000E+00 -0.00000000000E+00 -0.17340236870E+04  0.17340236870E+04  0.00000000000E+00 0.  1.
          6    1    1    2  501    0 -0.14214295494E+03 -0.13477112478E+03 -0.46000996413E+03  0.52906147357E+03  0.17300000000E+03 0.  1.
         -6    1    1    2    0  503  0.14214295494E+03  0.13477112478E+03 -0.12257127485E+04  0.12532631877E+04  0.17300000000E+03 0.  1.
<mgrwt>
<rscale>  2 0.26133671E+03</rscale>
<asrwt>0</asrwt>
<pdfrwt beam="1">  1       21 0.74309190E-02 0.26133671E+03</pdfrwt>
<pdfrwt beam="2">  1       21 0.26677288E+00 0.26133671E+03</pdfrwt>
<totfact> 0.68053396E+03</totfact>
</mgrwt>
</event>
<event>
 4    1  0.3973261E+000  0.2536560E+03  0.7546771E-02  0.1111016E+00
         21   -1    0    0  503  502  0.00000000000E+00  0.00000000000E+00  0.11114896842E+04  0.11114896842E+04  0.00000000000E+00 0.  1.
         21   -1    0    0  501  503 -0.00000000000E+00 -0.00000000000E+00 -0.79416666700E+02  0.79416666700E+02  0.00000000000E+00 0. -1.
          6    1    1    2  501    0 -0.49019285302E+02  0.17891196865E+03  0.20600546469E+03  0.32677153233E+03  0.17300000000E+03 0. -1.
         -6    1    1    2    0  502  0.49019285302E+02 -0.17891196865E+03  0.82606755280E+03  0.86413481856E+03  0.17300000000E+03 0.  1.
<mgrwt>
<rscale>  2 0.25365603E+03</rscale>
<asrwt>0</asrwt>
<pdfrwt beam="1">  1       21 0.17099840E+00 0.25365603E+03</pdfrwt>
<pdfrwt beam="2">  1       21 0.12217950E-01 0.25365603E+03</pdfrwt>
<totfact> 0.11437665E+04</totfact>
</mgrwt>
</event>
<event>
 4    1  0.3973261E+000  0.1816346E+03  0.7546771E-02  0.1166230E+00
         21   -1    0    0  503  502  0.00000000000E+00  0.00000000000E+00  0.55746127962E+02  0.55746127962E+02  0.00000000000E+00 0.  1.
         21   -1    0    0  501  503 -0.00000000000E+00 -0.00000000000E+00 -0.10393720839E+04  0.10393720839E+04  0.00000000000E+00 0.  1.
          6    1    1    2  501    0 -0.48650996987E+02 -0.26367036834E+02 -0.85112513799E+03  0.87029026230E+03  0.17300000000E+03 0.  1.
         -6    1    1    2    0  502  0.48650996987E+02  0.26367036834E+02 -0.13250081791E+03  0.22482794952E+03  0.17300000000E+03 0.  1.
<mgrwt>
<rscale>  2 0.18163463E+03</rscale>
<asrwt>0</asrwt>
<pdfrwt beam="1">  1       21 0.85763276E-02 0.18163463E+03</pdfrwt>
<pdfrwt beam="2">  1       21 0.15990339E+00 0.18163463E+03</pdfrwt>
<totfact> 0.26989698E+04</totfact>
</mgrwt>
</event>
<event>
 4    1  0.3973261E+000  0.2277985E+03  0.7546771E-02  0.1128199E+00
         21   -1    0    0  501  502  0.00000000000E+00  0.00000000000E+00  0.58707312806E+02  0.58707312806E+02  0.00000000000E+00 0. -1.
         21   -1    0    0  502  503 -0.00000000000E+00 -0.00000000000E+00 -0.12123406628E+04  0.12123406628E+04  0.00000000000E+00 0.  1.
          6    1    1    2  501    0 -0.99704878051E+02  0.10964523178E+03 -0.24603634758E+03  0.33529990142E+03  0.17300000000E+03 0. -1.
         -6    1    1    2    0  503  0.99704878051E+02 -0.10964523178E+03 -0.90759700244E+03  0.93574807422E+03  0.17300000000E+03 0.  1.
<mgrwt>
<rscale>  2 0.22779846E+03</rscale>
<asrwt>0</asrwt>
<pdfrwt beam="1">  1       21 0.90318943E-02 0.22779846E+03</pdfrwt>
<pdfrwt beam="2">  1       21 0.18651395E+00 0.22779846E+03</pdfrwt>
<totfact> 0.15565912E+04</totfact>
</mgrwt>
</event>
<event>
 4    1  0.3973261E+000  0.1951048E+03  0.7546771E-02  0.1153936E+00
         21   -1    0    0  501  502  0.00000000000E+00  0.00000000000E+00  0.29680874674E+03  0.29680874674E+03  0.00000000000E+00 0. -1.
         21   -1    0    0  502  503 -0.00000000000E+00 -0.00000000000E+00 -0.30077799639E+03  0.30077799639E+03  0.00000000000E+00 0. -1.
          6    1    1    2  501    0  0.80175830523E+02  0.41336437734E+02  0.22431149654E+03  0.29729028300E+03  0.17300000000E+03 0. -1.
         -6    1    1    2    0  503 -0.80175830523E+02 -0.41336437734E+02 -0.22828074619E+03  0.30029646013E+03  0.17300000000E+03 0. -1.
<mgrwt>
<rscale>  2 0.19510475E+03</rscale>
<asrwt>0</asrwt>
<pdfrwt beam="1">  1       21 0.45662884E-01 0.19510475E+03</pdfrwt>
<pdfrwt beam="2">  1       21 0.46273538E-01 0.19510475E+03</pdfrwt>
<totfact> 0.20544434E+04</totfact>
</mgrwt>
</event>
<event>
 4    1  0.3973261E+000  0.2539419E+03  0.7546771E-02  0.1110839E+00
         21   -1    0    0  503  502  0.00000000000E+00  0.00000000000E+00  0.49426889296E+02  0.49426889296E+02  0.00000000000E+00 0. -1.
         21   -1    0    0  501  503 -0.00000000000E+00 -0.00000000000E+00 -0.19155422775E+04  0.19155422775E+04  0.00000000000E+00 0. -1.
          6    1    1    2  501    0  0.53440984835E+02 -0.17804932310E+03 -0.14878748719E+04  0.15093899876E+04  0.17300000000E+03 0. -1.
         -6    1    1    2    0  502 -0.53440984835E+02  0.17804932310E+03 -0.37824051628E+03  0.45557917915E+03  0.17300000000E+03 0. -1.
<mgrwt>
<rscale>  2 0.25394192E+03</rscale>
<asrwt>0</asrwt>
<pdfrwt beam="1">  1       21 0.76041389E-02 0.25394192E+03</pdfrwt>
<pdfrwt beam="2">  1       21 0.29469873E+00 0.25394192E+03</pdfrwt>
<totfact> 0.45108630E+03</totfact>
</mgrwt>
</event>
<event>
 4    1  0.3973261E+000  0.2676500E+03  0.7546771E-02  0.1102632E+00
         21   -1    0    0  503  502  0.00000000000E+00  0.00000000000E+00  0.12617280975E+04  0.12617280975E+04  0.00000000000E+00 0. -1.
         21   -1    0    0  501  503 -0.00000000000E+00 -0.00000000000E+00 -0.58634767699E+02  0.58634767699E+02  0.00000000000E+00 0. -1.
          6    1    1    2  501    0  0.75986585866E+01 -0.20408276951E+03  0.48401935031E+03  0.55309244064E+03  0.17300000000E+03 0. -1.
         -6    1    1    2    0  502 -0.75986585866E+01  0.20408276951E+03  0.71907397952E+03  0.76727042458E+03  0.17300000000E+03 0. -1.
<mgrwt>
<rscale>  2 0.26764999E+03</rscale>
<asrwt>0</asrwt>
<pdfrwt beam="1">  1       21 0.19411199E+00 0.26764999E+03</pdfrwt>
<pdfrwt beam="2">  1       21 0.90207345E-02 0.26764999E+03</pdfrwt>
<totfact> 0.13542134E+04</totfact>
</mgrwt>
</event>
<event>
 4    1  0.3973261E+000  0.2435369E+03  0.7546771E-02  0.1117459E+00
         21   -1    0    0  503  502  0.00000000000E+00  0.00000000000E+00  0.15809219717E+03  0.15809219717E+03  0.00000000000E+00 0. -1.
         21   -1    0    0  501  503 -0.00000000000E+00 -0.00000000000E+00 -0.52720349743E+03  0.52720349743E+03  0.00000000000E+00 0.  1.
          6    1    1    2  501    0 -0.11315629905E+03 -0.12875118038E+03 -0.36856490562E+03  0.44175819644E+03  0.17300000000E+03 0.  1.
         -6    1    1    2    0  502  0.11315629905E+03  0.12875118038E+03 -0.54639464708E+00  0.24353749816E+03  0.17300000000E+03 0. -1.
<mgrwt>
<rscale>  2 0.24353689E+03</rscale>
<asrwt>0</asrwt>
<pdfrwt beam="1">  1       21 0.24321877E-01 0.24353689E+03</pdfrwt>
<pdfrwt beam="2">  1       21 0.81108230E-01 0.24353689E+03</pdfrwt>
<totfact> 0.20685355E+04</totfact>
</mgrwt>
</event>
<event>
 4    1  0.3973261E+000  0.1732703E+03  0.7546771E-02  0.1174480E+00
         21   -1    0    0  503  502  0.00000000000E+00  0.00000000000E+00  0.15355806247E+03  0.15355806247E+03  0.00000000000E+00 0. -1.
         21   -1    0    0  501  503 -0.00000000000E+00 -0.00000000000E+00 -0.19742665895E+03  0.19742665895E+03  0.00000000000E+00 0. -1.
          6    1    1    2  501    0 -0.11292522036E+01  0.96080262840E+01 -0.46562944464E+01  0.17333283145E+03  0.17300000000E+03 0. -1.
         -6    1    1    2    0  502  0.11292522036E+01 -0.96080262840E+01 -0.39212302042E+02  0.17765188997E+03  0.17300000000E+03 0. -1.
<mgrwt>
<rscale>  2 0.17327028E+03</rscale>
<asrwt>0</asrwt>
<pdfrwt beam="1">  1       21 0.23624317E-01 0.17327028E+03</pdfrwt>
<pdfrwt beam="2">  1       21 0.30373332E-01 0.17327028E+03</pdfrwt>
<totfact> 0.17651691E+05</totfact>
</mgrwt>
</event>
<event>
 4    1  0.3973261E+000  0.2562047E+03  0.7546771E-02  0.1109445E+00
         21   -1    0    0  501  502  0.00000000000E+00  0.00000000000E+00  0.69633484806E+02  0.69633484806E+02  0.00000000000E+00 0. -1.
         21   -1    0    0  502  503 -0.00000000000E+00 -0.00000000000E+00 -0.94485507756E+03  0.94485507756E+03  0.00000000000E+00 0. -1.
          6    1    1    2  501    0 -0.40480010838E+01  0.18893242289E+03 -0.41317356176E+03  0.48616174147E+03  0.17300000000E+03 0. -1.
         -6    1    1    2    0  503  0.40480010838E+01 -0.18893242289E+03 -0.46204803099E+03  0.52832682089E+03  0.17300000000E+03 0. -1.
<mgrwt>
<rscale>  2 0.25620470E+03</rscale>
<asrwt>0</asrwt>
<pdfrwt beam="1">  1       21 0.10712844E-01 0.25620470E+03</pdfrwt>
<pdfrwt beam="2">  1       21 0.14536231E+00 0.25620470E+03</pdfrwt>
<totfact> 0.22460534E+04</totfact>
</mgrwt>
</event>
<event>
 4    1  0.3973261E+000  0.1930903E+03  0.7546771E-02  0.1155703E+00
         21   -1    0    0  503  502  0.00000000000E+00  0.00000000000E+00  0.16463025594E+03  0.16463025594E+03  0.00000000000E+00 0.  1.
         21   -1    0    0  501  503 -0.00000000000E+00 -0.00000000000E+00 -0.24861032542E+03  0.24861032542E+03  0.00000000000E+00 0.  1.
          6    1    1    2  501    0 -0.41116178724E+02 -0.75261757976E+02 -0.10364980661E+03  0.21915098626E+03  0.17300000000E+03 0.  1.
         -6    1    1    2    0  502  0.41116178724E+02  0.75261757976E+02  0.19669737138E+02  0.19408959510E+03  0.17300000000E+03 0.  1.
<mgrwt>
<rscale>  2 0.19309032E+03</rscale>
<asrwt>0</asrwt>
<pdfrwt beam="1">  1       21 0.25327732E-01 0.19309032E+03</pdfrwt>
<pdfrwt beam="2">  1       21 0.38247742E-01 0.19309032E+03</pdfrwt>
<totfact> 0.97385836E+04</totfact>
</mgrwt>
</event>
<event>
 4    1  0.3973261E+000  0.1883748E+03  0.7546771E-02  0.1159935E+00
         21   -1    0    0  503  502  0.00000000000E+00  0.00000000000E+00  0.20864848053E+03  0.20864848053E+03  0.00000000000E+00 0. -1.
         21   -1    0    0  501  503 -0.00000000000E+00 -0.00000000000E+00 -0.17407562569E+03  0.17407562569E+03  0.00000000000E+00 0. -1.
          6    1    1    2  501    0 -0.73480051479E+02 -0.12519271880E+02 -0.11738374141E+02  0.18874013765E+03  0.17300000000E+03 0. -1.
         -6    1    1    2    0  502  0.73480051479E+02  0.12519271880E+02  0.46311228983E+02  0.19398396857E+03  0.17300000000E+03 0. -1.
<mgrwt>
<rscale>  2 0.18837476E+03</rscale>
<asrwt>0</asrwt>
<pdfrwt beam="1">  1       21 0.32099766E-01 0.18837476E+03</pdfrwt>
<pdfrwt beam="2">  1       21 0.26780865E-01 0.18837476E+03</pdfrwt>
<totfact> 0.12411475E+05</totfact>
</mgrwt>
</event>
<event>
 4    1  0.3973261E+000  0.1937598E+03  0.7546771E-02  0.1155113E+00
         21   -1    0    0  501  502  0.00000000000E+00  0.00000000000E+00  0.22202367833E+03  0.22202367833E+03  0.00000000000E+00 0. -1.
         21   -1    0    0  502  503 -0.00000000000E+00 -0.00000000000E+00 -0.17295319885E+03  0.17295319885E+03  0.00000000000E+00 0. -1.
          6    1    1    2  501    0 -0.51345466468E+02 -0.70551314110E+02  0.54035972348E+02  0.20115350148E+03  0.17300000000E+03 0. -1.
         -6    1    1    2    0  503  0.51345466468E+02  0.70551314110E+02 -0.49654928672E+01  0.19382337570E+03  0.17300000000E+03 0. -1.
<mgrwt>
<rscale>  2 0.19375976E+03</rscale>
<asrwt>0</asrwt>
<pdfrwt beam="1">  1       21 0.34157489E-01 0.19375976E+03</pdfrwt>
<pdfrwt beam="2">  1       21 0.26608184E-01 0.19375976E+03</pdfrwt>
<totfact> 0.11097327E+05</totfact>
</mgrwt>
</event>
<event>
 4    1  0.3973261E+000  0.1773917E+03  0.7546771E-02  0.1170352E+00
         21   -1    0    0  501  502  0.00000000000E+00  0.00000000000E+00  0.78194849483E+03  0.78194849483E+03  0.00000000000E+00 0.  1.
         21   -1    0    0  502  503 -0.00000000000E+00 -0.00000000000E+00 -0.68054565632E+02  0.68054565632E+02  0.00000000000E+00 0.  1.
          6    1    1    2  501    0  0.37264223843E+01  0.39050140094E+02  0.62863850325E+03  0.65318769694E+03  0.17300000000E+03 0.  1.
         -6    1    1    2    0  503 -0.37264223843E+01 -0.39050140094E+02  0.85255425948E+02  0.19681536352E+03  0.17300000000E+03 0.  1.
<mgrwt>
<rscale>  2 0.17739166E+03</rscale>
<asrwt>0</asrwt>
<pdfrwt beam="1">  1       21 0.12029976E+00 0.17739166E+03</pdfrwt>
<pdfrwt beam="2">  1       21 0.10469934E-01 0.17739166E+03</pdfrwt>
<totfact> 0.39597394E+04</totfact>
</mgrwt>
</event>
<event>
 4    1  0.3973261E+000  0.3044168E+03  0.7546771E-02  0.1083053E+00
         21   -1    0    0  501  502  0.00000000000E+00  0.00000000000E+00  0.68249059100E+03  0.68249059100E+03  0.00000000000E+00 0.  1.
         21   -1    0    0  502  503 -0.00000000000E+00 -0.00000000000E+00 -0.16606275076E+03  0.16606275076E+03  0.00000000000E+00 0. -1.
          6    1    1    2  501    0  0.25036736940E+03 -0.75347485071E+01  0.43938963617E+03  0.53453984367E+03  0.17300000000E+03 0. -1.
         -6    1    1    2    0  503 -0.25036736940E+03  0.75347485071E+01  0.77038204070E+02  0.31401349809E+03  0.17300000000E+03 0. -1.
<mgrwt>
<rscale>  2 0.30441681E+03</rscale>
<asrwt>0</asrwt>
<pdfrwt beam="1">  1       21 0.10499855E+00 0.30441681E+03</pdfrwt>
<pdfrwt beam="2">  1       21 0.25548116E-01 0.30441681E+03</pdfrwt>
<totfact> 0.99569933E+03</totfact>
</mgrwt>
</event>
<event>
 4    1  0.3973261E+000  0.1945507E+03  0.7546771E-02  0.1154420E+00
         21   -1    0    0  501  502  0.00000000000E+00  0.00000000000E+00  0.42142692205E+03  0.42142692205E+03  0.00000000000E+00 0. -1.
         21   -1    0    0  502  503 -0.00000000000E+00 -0.00000000000E+00 -0.10070049806E+03  0.10070049806E+03  0.00000000000E+00 0. -1.
          6    1    1    2  501    0  0.88988064110E+02 -0.14540289976E+01  0.24620071184E+03  0.31379098181E+03  0.17300000000E+03 0.  1.
         -6    1    1    2    0  503 -0.88988064110E+02  0.14540289976E+01  0.74525712144E+02  0.20833643830E+03  0.17300000000E+03 0.  1.
<mgrwt>
<rscale>  2 0.19455074E+03</rscale>
<asrwt>0</asrwt>
<pdfrwt beam="1">  1       21 0.64834910E-01 0.19455074E+03</pdfrwt>
<pdfrwt beam="2">  1       21 0.15492385E-01 0.19455074E+03</pdfrwt>
<totfact> 0.80992995E+04</totfact>
</mgrwt>
</event>
<event>
 4    1  0.3973261E+000  0.1894888E+03  0.7546771E-02  0.1158923E+00
         21   -1    0    0  503  502  0.00000000000E+00  0.00000000000E+00  0.13652337910E+03  0.13652337910E+03  0.00000000000E+00 0.  1.
         21   -1    0    0  501  503 -0.00000000000E+00 -0.00000000000E+00 -0.42728449419E+03  0.42728449419E+03  0.00000000000E+00 0. -1.
          6    1    1    2  501    0  0.55831713584E+02  0.53477334915E+02 -0.32017893875E+03  0.37204913440E+03  0.17300000000E+03 0.  1.
         -6    1    1    2    0  502 -0.55831713584E+02 -0.53477334915E+02  0.29417823666E+02  0.19175873889E+03  0.17300000000E+03 0.  1.
<mgrwt>
<rscale>  2 0.18948880E+03</rscale>
<asrwt>0</asrwt>
<pdfrwt beam="1">  1       21 0.21003597E-01 0.18948880E+03</pdfrwt>
<pdfrwt beam="2">  1       21 0.65736076E-01 0.18948880E+03</pdfrwt>
<totfact> 0.44860520E+04</totfact>
</mgrwt>
</event>
<event>
 4    1  0.3973261E+000  0.1886268E+03  0.7546771E-02  0.1159706E+00
         21   -1    0    0  503  502  0.00000000000E+00  0.00000000000E+00  0.30424108735E+02  0.30424108735E+02  0.00000000000E+00 0.  1.
         21   -1    0    0  501  503 -0.00000000000E+00 -0.00000000000E+00 -0.13184708419E+04  0.13184708419E+04  0.00000000000E+00 0.  1.
          6    1    1    2  501    0  0.75994166416E+01 -0.74788378186E+02 -0.87075319367E+03  0.89094959281E+03  0.17300000000E+03 0.  1.
         -6    1    1    2    0  502 -0.75994166416E+01  0.74788378186E+02 -0.41729353947E+03  0.45794535780E+03  0.17300000000E+03 0.  1.
<mgrwt>
<rscale>  2 0.18862675E+03</rscale>
<asrwt>0</asrwt>
<pdfrwt beam="1">  1       21 0.46806333E-02 0.18862675E+03</pdfrwt>
<pdfrwt beam="2">  1       21 0.20284162E+00 0.18862675E+03</pdfrwt>
<totfact> 0.38838569E+04</totfact>
</mgrwt>
</event>
<event>
 4    1  0.3973261E+000  0.1770843E+03  0.7546771E-02  0.1170655E+00
         21   -1    0    0  501  502  0.00000000000E+00  0.00000000000E+00  0.13216562496E+04  0.13216562496E+04  0.00000000000E+00 0. -1.
         21   -1    0    0  502  503 -0.00000000000E+00 -0.00000000000E+00 -0.43624008547E+02  0.43624008547E+02  0.00000000000E+00 0. -1.
          6    1    1    2  501    0 -0.49025625813E+01 -0.37494044355E+02  0.11000403424E+04  0.11142026716E+04  0.17300000000E+03 0. -1.
         -6    1    1    2    0  503  0.49025625813E+01  0.37494044355E+02  0.17799189865E+03  0.25107758655E+03  0.17300000000E+03 0. -1.
<mgrwt>
<rscale>  2 0.17708427E+03</rscale>
<asrwt>0</asrwt>
<pdfrwt beam="1">  1       21 0.20333170E+00 0.17708427E+03</pdfrwt>
<pdfrwt beam="2">  1       21 0.67113869E-02 0.17708427E+03</pdfrwt>
<totfact> 0.21048979E+04</totfact>
</mgrwt>
</event>
<event>
 4    1  0.3973261E+000  0.2320457E+03  0.7546771E-02  0.1125208E+00
         21   -1    0    0  501  502  0.00000000000E+00  0.00000000000E+00  0.15252766221E+03  0.15252766221E+03  0.00000000000E+00 0.  1.
         21   -1    0    0  502  503 -0.00000000000E+00 -0.00000000000E+00 -0.39296588745E+03  0.39296588745E+03  0.00000000000E+00 0.  1.
          6    1    1    2  501    0 -0.14610560660E+03  0.50688639378E+02 -0.33258452486E+02  0.23441695993E+03  0.17300000000E+03 0.  1.
         -6    1    1    2    0  503  0.14610560660E+03 -0.50688639378E+02 -0.20717977275E+03  0.31107658973E+03  0.17300000000E+03 0.  1.
<mgrwt>
<rscale>  2 0.23204566E+03</rscale>
<asrwt>0</asrwt>
<pdfrwt beam="1">  1       21 0.23465795E-01 0.23204566E+03</pdfrwt>
<pdfrwt beam="2">  1       21 0.60456289E-01 0.23204566E+03</pdfrwt>
<totfact> 0.42739479E+04</totfact>
</mgrwt>
</event>
<event>
 4    1  0.3973261E+000  0.1952891E+03  0.7546771E-02  0.1153776E+00
         21   -1    0    0  503  502  0.00000000000E+00  0.00000000000E+00  0.18484914063E+03  0.18484914063E+03  0.00000000000E+00 0. -1.
         21   -1    0    0  501  503 -0.00000000000E+00 -0.00000000000E+00 -0.26337469489E+03  0.26337469489E+03  0.00000000000E+00 0.  1.
          6    1    1    2  501    0 -0.77583404312E+02 -0.46793833495E+02 -0.14357334291E+03  0.24238636982E+03  0.17300000000E+03 0.  1.
         -6    1    1    2    0  502  0.77583404312E+02  0.46793833495E+02  0.65047788653E+02  0.20583746570E+03  0.17300000000E+03 0. -1.
<mgrwt>
<rscale>  2 0.19528914E+03</rscale>
<asrwt>0</asrwt>
<pdfrwt beam="1">  1       21 0.28438329E-01 0.19528914E+03</pdfrwt>
<pdfrwt beam="2">  1       21 0.40519184E-01 0.19528914E+03</pdfrwt>
<totfact> 0.69301996E+04</totfact>
</mgrwt>
</event>
<event>
 4    1  0.3973261E+000  0.2099732E+03  0.7546771E-02  0.1141587E+00
         21   -1    0    0  501  502  0.00000000000E+00  0.00000000000E+00  0.11286311589E+04  0.11286311589E+04  0.00000000000E+00 0.  1.
         21   -1    0    0  502  503 -0.00000000000E+00 -0.00000000000E+00 -0.45483867003E+02  0.45483867003E+02  0.00000000000E+00 0.  1.
          6    1    1    2  501    0 -0.99297603534E+02  0.65572480661E+02  0.76212893250E+03  0.79052468275E+03  0.17300000000E+03 0.  1.
         -6    1    1    2    0  503  0.99297603534E+02 -0.65572480661E+02  0.32101835940E+03  0.38359034315E+03  0.17300000000E+03 0.  1.
<mgrwt>
<rscale>  2 0.20997325E+03</rscale>
<asrwt>0</asrwt>
<pdfrwt beam="1">  1       21 0.17363554E+00 0.20997325E+03</pdfrwt>
<pdfrwt beam="2">  1       21 0.69975189E-02 0.20997325E+03</pdfrwt>
<totfact> 0.30119641E+04</totfact>
</mgrwt>
</event>
<event>
 4    1  0.3973261E+000  0.3528113E+03  0.7546771E-02  0.1061467E+00
         21   -1    0    0  503  502  0.00000000000E+00  0.00000000000E+00  0.78131456281E+03  0.78131456281E+03  0.00000000000E+00 0. -1.
         21   -1    0    0  501  503 -0.00000000000E+00 -0.00000000000E+00 -0.42174421969E+03  0.42174421969E+03  0.00000000000E+00 0.  1.
          6    1    1    2  501    0 -0.24882643774E+03 -0.18064385775E+03 -0.29471641382E+03  0.45971030448E+03  0.17300000000E+03 0.  1.
         -6    1    1    2    0  502  0.24882643774E+03  0.18064385775E+03  0.65428675695E+03  0.74334847803E+03  0.17300000000E+03 0. -1.
<mgrwt>
<rscale>  2 0.35281128E+03</rscale>
<asrwt>0</asrwt>
<pdfrwt beam="1">  1       21 0.12020224E+00 0.35281128E+03</pdfrwt>
<pdfrwt beam="2">  1       21 0.64883726E-01 0.35281128E+03</pdfrwt>
<totfact> 0.10222391E+03</totfact>
</mgrwt>
</event>
<event>
 4    1  0.3973261E+000  0.1795425E+03  0.7546771E-02  0.1168247E+00
         21   -1    0    0  503  502  0.00000000000E+00  0.00000000000E+00  0.10813838692E+04  0.10813838692E+04  0.00000000000E+00 0.  1.
         21   -1    0    0  501  503 -0.00000000000E+00 -0.00000000000E+00 -0.30983961530E+02  0.30983961530E+02  0.00000000000E+00 0.  1.
          6    1    1    2  501    0  0.19645201485E+02 -0.43824487345E+02  0.41691499831E+03  0.45393131138E+03  0.17300000000E+03 0.  1.
         -6    1    1    2    0  502 -0.19645201485E+02  0.43824487345E+02  0.63348490936E+03  0.65843651935E+03  0.17300000000E+03 0.  1.
<mgrwt>
<rscale>  2 0.17954253E+03</rscale>
<asrwt>0</asrwt>
<pdfrwt beam="1">  1       21 0.16636672E+00 0.17954253E+03</pdfrwt>
<pdfrwt beam="2">  1       21 0.47667641E-02 0.17954253E+03</pdfrwt>
<totfact> 0.66513642E+04</totfact>
</mgrwt>
</event>
<event>
 4    1  0.3973261E+000  0.1909300E+03  0.7546771E-02  0.1157625E+00
         21   -1    0    0  501  502  0.00000000000E+00  0.00000000000E+00  0.53473371186E+03  0.53473371186E+03  0.00000000000E+00 0.  1.
         21   -1    0    0  502  503 -0.00000000000E+00 -0.00000000000E+00 -0.27112226991E+03  0.27112226991E+03  0.00000000000E+00 0. -1.
          6    1    1    2  501    0 -0.77728506555E+01 -0.80404389294E+02  0.48041490618E+03  0.51696495539E+03  0.17300000000E+03 0.  1.
         -6    1    1    2    0  503  0.77728506555E+01  0.80404389294E+02 -0.21680346423E+03  0.28889102639E+03  0.17300000000E+03 0. -1.
<mgrwt>
<rscale>  2 0.19093005E+03</rscale>
<asrwt>0</asrwt>
<pdfrwt beam="1">  1       21 0.82266725E-01 0.19093005E+03</pdfrwt>
<pdfrwt beam="2">  1       21 0.41711118E-01 0.19093005E+03</pdfrwt>
<totfact> 0.71526763E+03</totfact>
</mgrwt>
</event>
<event>
 4    1  0.3973261E+000  0.2326025E+03  0.7546771E-02  0.1124821E+00
         21   -1    0    0  501  502  0.00000000000E+00  0.00000000000E+00  0.10729122497E+04  0.10729122497E+04  0.00000000000E+00 0. -1.
         21   -1    0    0  502  503 -0.00000000000E+00 -0.00000000000E+00 -0.76519196454E+02  0.76519196454E+02  0.00000000000E+00 0. -1.
          6    1    1    2  501    0 -0.52856167896E+02  0.14622299463E+03  0.83379633487E+03  0.86563287062E+03  0.17300000000E+03 0. -1.
         -6    1    1    2    0  503  0.52856167896E+02 -0.14622299463E+03  0.16259671833E+03  0.28379857550E+03  0.17300000000E+03 0. -1.
<mgrwt>
<rscale>  2 0.23260253E+03</rscale>
<asrwt>0</asrwt>
<pdfrwt beam="1">  1       21 0.16506341E+00 0.23260253E+03</pdfrwt>
<pdfrwt beam="2">  1       21 0.11772185E-01 0.23260253E+03</pdfrwt>
<totfact> 0.13659897E+04</totfact>
</mgrwt>
</event>
<event>
 4    1  0.3973261E+000  0.2123982E+03  0.7546771E-02  0.1139681E+00
         21   -1    0    0  501  502  0.00000000000E+00  0.00000000000E+00  0.16127955046E+03  0.16127955046E+03  0.00000000000E+00 0.  1.
         21   -1    0    0  502  503 -0.00000000000E+00 -0.00000000000E+00 -0.28235571261E+03  0.28235571261E+03  0.00000000000E+00 0.  1.
          6    1    1    2  501    0 -0.10175173363E+03 -0.69502259434E+02 -0.81972736894E+02  0.22766754041E+03  0.17300000000E+03 0.  1.
         -6    1    1    2    0  503  0.10175173363E+03  0.69502259434E+02 -0.39103425251E+02  0.21596772266E+03  0.17300000000E+03 0.  1.
<mgrwt>
<rscale>  2 0.21239816E+03</rscale>
<asrwt>0</asrwt>
<pdfrwt beam="1">  1       21 0.24812239E-01 0.21239816E+03</pdfrwt>
<pdfrwt beam="2">  1       21 0.43439340E-01 0.21239816E+03</pdfrwt>
<totfact> 0.77615824E+04</totfact>
</mgrwt>
</event>
<event>
 4    1  0.3973261E+000  0.4962538E+03  0.7546771E-02  0.1014761E+00
         21   -1    0    0  501  502  0.00000000000E+00  0.00000000000E+00  0.11971784281E+04  0.11971784281E+04  0.00000000000E+00 0.  1.
         21   -1    0    0  502  503 -0.00000000000E+00 -0.00000000000E+00 -0.48718789142E+03  0.48718789142E+03  0.00000000000E+00 0. -1.
          6    1    1    2  501    0  0.45834206930E+03 -0.79129145932E+02  0.99514687386E+03  0.11120185137E+04  0.17300000000E+03 0.  1.
         -6    1    1    2    0  503 -0.45834206930E+03  0.79129145932E+02 -0.28515633717E+03  0.57234780584E+03  0.17300000000E+03 0. -1.
<mgrwt>
<rscale>  2 0.49625384E+03</rscale>
<asrwt>0</asrwt>
<pdfrwt beam="1">  1       21 0.18418130E+00 0.49625384E+03</pdfrwt>
<pdfrwt beam="2">  1       21 0.74951984E-01 0.49625384E+03</pdfrwt>
<totfact> 0.21566675E+02</totfact>
</mgrwt>
</event>
<event>
 4    1  0.3973261E+000  0.1771669E+03  0.7546771E-02  0.1170573E+00
         21   -1    0    0  501  502  0.00000000000E+00  0.00000000000E+00  0.74361377935E+03  0.74361377935E+03  0.00000000000E+00 0. -1.
         21   -1    0    0  502  503 -0.00000000000E+00 -0.00000000000E+00 -0.68493596734E+02  0.68493596734E+02  0.00000000000E+00 0. -1.
          6    1    1    2  501    0  0.38197998645E+02  0.75247546000E-01  0.58909551028E+03  0.61515982720E+03  0.17300000000E+03 0. -1.
         -6    1    1    2    0  503 -0.38197998645E+02 -0.75247546000E-01  0.86024672335E+02  0.19694754889E+03  0.17300000000E+03 0. -1.
<mgrwt>
<rscale>  2 0.17716685E+03</rscale>
<asrwt>0</asrwt>
<pdfrwt beam="1">  1       21 0.11440211E+00 0.17716685E+03</pdfrwt>
<pdfrwt beam="2">  1       21 0.10537477E-01 0.17716685E+03</pdfrwt>
<totfact> 0.44280484E+04</totfact>
</mgrwt>
</event>
<event>
 4    1  0.3973261E+000  0.2229999E+03  0.7546771E-02  0.1131666E+00
         21   -1    0    0  503  502  0.00000000000E+00  0.00000000000E+00  0.24194069849E+04  0.24194069849E+04  0.00000000000E+00 0. -1.
         21   -1    0    0  501  503 -0.00000000000E+00 -0.00000000000E+00 -0.30445712655E+02  0.30445712655E+02  0.00000000000E+00 0. -1.
          6    1    1    2  501    0  0.47400501589E+02  0.13248835938E+03  0.49628315237E+03  0.54408265939E+03  0.17300000000E+03 0. -1.
         -6    1    1    2    0  502 -0.47400501589E+02 -0.13248835938E+03  0.18926781199E+04  0.19057700382E+04  0.17300000000E+03 0. -1.
<mgrwt>
<rscale>  2 0.22299994E+03</rscale>
<asrwt>0</asrwt>
<pdfrwt beam="1">  1       21 0.37221631E+00 0.22299994E+03</pdfrwt>
<pdfrwt beam="2">  1       21 0.46839577E-02 0.22299994E+03</pdfrwt>
<totfact> 0.37267949E+03</totfact>
</mgrwt>
</event>
<event>
 4    1  0.3973261E+000  0.1818902E+03  0.7546771E-02  0.1165986E+00
         21   -1    0    0  501  502  0.00000000000E+00  0.00000000000E+00  0.29297670279E+03  0.29297670279E+03  0.00000000000E+00 0. -1.
         21   -1    0    0  502  503 -0.00000000000E+00 -0.00000000000E+00 -0.13279560864E+03  0.13279560864E+03  0.00000000000E+00 0.  1.
          6    1    1    2  501    0 -0.51206120271E+02  0.23086513111E+02  0.16244248836E+03  0.24386802961E+03  0.17300000000E+03 0. -1.
         -6    1    1    2    0  503  0.51206120271E+02 -0.23086513111E+02 -0.22613942195E+01  0.18190428182E+03  0.17300000000E+03 0.  1.
<mgrwt>
<rscale>  2 0.18189022E+03</rscale>
<asrwt>0</asrwt>
<pdfrwt beam="1">  1       21 0.45073339E-01 0.18189022E+03</pdfrwt>
<pdfrwt beam="2">  1       21 0.20430094E-01 0.18189022E+03</pdfrwt>
<totfact> 0.10518325E+05</totfact>
</mgrwt>
</event>
<event>
 4    1  0.3973261E+000  0.1958821E+03  0.7546771E-02  0.1153261E+00
         21   -1    0    0  503  502  0.00000000000E+00  0.00000000000E+00  0.37579393716E+02  0.37579393716E+02  0.00000000000E+00 0.  1.
         21   -1    0    0  501  503 -0.00000000000E+00 -0.00000000000E+00 -0.10221259115E+04  0.10221259115E+04  0.00000000000E+00 0.  1.
          6    1    1    2  501    0  0.29771390089E+02 -0.86916401467E+02 -0.47494640596E+03  0.51375469346E+03  0.17300000000E+03 0.  1.
         -6    1    1    2    0  502 -0.29771390089E+02  0.86916401467E+02 -0.50960011182E+03  0.54595061176E+03  0.17300000000E+03 0.  1.
<mgrwt>
<rscale>  2 0.19588210E+03</rscale>
<asrwt>0</asrwt>
<pdfrwt beam="1">  1       21 0.57814460E-02 0.19588210E+03</pdfrwt>
<pdfrwt beam="2">  1       21 0.15725012E+00 0.19588210E+03</pdfrwt>
<totfact> 0.55302975E+04</totfact>
</mgrwt>
</event>
<event>
 4    1  0.3973261E+000  0.1738081E+03  0.7546771E-02  0.1173934E+00
         21   -1    0    0  503  502  0.00000000000E+00  0.00000000000E+00  0.82201413591E+02  0.82201413591E+02  0.00000000000E+00 0.  1.
         21   -1    0    0  501  503 -0.00000000000E+00 -0.00000000000E+00 -0.36750631331E+03  0.36750631331E+03  0.00000000000E+00 0.  1.
          6    1    1    2  501    0 -0.14960655671E+02 -0.75115644133E+01 -0.14195142106E+03  0.22440911470E+03  0.17300000000E+03 0. -1.
         -6    1    1    2    0  502  0.14960655671E+02  0.75115644133E+01 -0.14335347866E+03  0.22529861221E+03  0.17300000000E+03 0. -1.
<mgrwt>
<rscale>  2 0.17380807E+03</rscale>
<asrwt>0</asrwt>
<pdfrwt beam="1">  1       21 0.12646371E-01 0.17380807E+03</pdfrwt>
<pdfrwt beam="2">  1       21 0.56539433E-01 0.17380807E+03</pdfrwt>
<totfact> 0.15810593E+05</totfact>
</mgrwt>
</event>
<event>
 4    1  0.3973261E+000  0.1856480E+03  0.7546771E-02  0.1162446E+00
         21   -1    0    0  501  502  0.00000000000E+00  0.00000000000E+00  0.79026298911E+02  0.79026298911E+02  0.00000000000E+00 0. -1.
         21   -1    0    0  502  503 -0.00000000000E+00 -0.00000000000E+00 -0.43692606793E+03  0.43692606793E+03  0.00000000000E+00 0. -1.
          6    1    1    2  501    0  0.49097236067E+02  0.46104542558E+02 -0.16788830337E+03  0.25030311593E+03  0.17300000000E+03 0. -1.
         -6    1    1    2    0  503 -0.49097236067E+02 -0.46104542558E+02 -0.19001146565E+03  0.26564925092E+03  0.17300000000E+03 0. -1.
<mgrwt>
<rscale>  2 0.18564797E+03</rscale>
<asrwt>0</asrwt>
<pdfrwt beam="1">  1       21 0.12157892E-01 0.18564797E+03</pdfrwt>
<pdfrwt beam="2">  1       21 0.67219396E-01 0.18564797E+03</pdfrwt>
<totfact> 0.11640805E+05</totfact>
</mgrwt>
</event>
<event>
 4    1  0.3973261E+000  0.2252502E+03  0.7546771E-02  0.1130028E+00
         21   -1    0    0  503  502  0.00000000000E+00  0.00000000000E+00  0.62948270746E+03  0.62948270746E+03  0.00000000000E+00 0. -1.
         21   -1    0    0  501  503 -0.00000000000E+00 -0.00000000000E+00 -0.91883316305E+02  0.91883316305E+02  0.00000000000E+00 0. -1.
          6    1    1    2  501    0 -0.54677204421E+02  0.13348808068E+03  0.14241798999E+03  0.26649680718E+03  0.17300000000E+03 0. -1.
         -6    1    1    2    0  502  0.54677204421E+02 -0.13348808068E+03  0.39518140116E+03  0.45486921658E+03  0.17300000000E+03 0. -1.
<mgrwt>
<rscale>  2 0.22525023E+03</rscale>
<asrwt>0</asrwt>
<pdfrwt beam="1">  1       21 0.96843491E-01 0.22525023E+03</pdfrwt>
<pdfrwt beam="2">  1       21 0.14135895E-01 0.22525023E+03</pdfrwt>
<totfact> 0.38038240E+04</totfact>
</mgrwt>
</event>
<event>
 4    1  0.3973261E+000  0.2951038E+03  0.7546771E-02  0.1087714E+00
         21   -1    0    0  501  502  0.00000000000E+00  0.00000000000E+00  0.10023586544E+04  0.10023586544E+04  0.00000000000E+00 0.  1.
         21   -1    0    0  502  503 -0.00000000000E+00 -0.00000000000E+00 -0.27549550550E+03  0.27549550550E+03  0.00000000000E+00 0.  1.
          6    1    1    2  501    0  0.11434135423E+03 -0.20996031255E+03  0.89209732089E+03  0.93964030782E+03  0.17300000000E+03 0.  1.
         -6    1    1    2    0  503 -0.11434135423E+03  0.20996031255E+03 -0.16523417200E+03  0.33821385207E+03  0.17300000000E+03 0.  1.
<mgrwt>
<rscale>  2 0.29510384E+03</rscale>
<asrwt>0</asrwt>
<pdfrwt beam="1">  1       21 0.15420902E+00 0.29510384E+03</pdfrwt>
<pdfrwt beam="2">  1       21 0.42383925E-01 0.29510384E+03</pdfrwt>
<totfact> 0.13680478E+03</totfact>
</mgrwt>
</event>
<event>
 4    1  0.3973261E+000  0.2272345E+03  0.7546771E-02  0.1128602E+00
         21   -1    0    0  501  502  0.00000000000E+00  0.00000000000E+00  0.18471408754E+03  0.18471408754E+03  0.00000000000E+00 0.  1.
         21   -1    0    0  502  503 -0.00000000000E+00 -0.00000000000E+00 -0.29207444390E+03  0.29207444390E+03  0.00000000000E+00 0.  1.
          6    1    1    2  501    0 -0.10335303319E+03 -0.10499839366E+03 -0.43001567364E+01  0.22727517130E+03  0.17300000000E+03 0.  1.
         -6    1    1    2    0  503  0.10335303319E+03  0.10499839366E+03 -0.10306019963E+03  0.24951336014E+03  0.17300000000E+03 0.  1.
<mgrwt>
<rscale>  2 0.22723449E+03</rscale>
<asrwt>0</asrwt>
<pdfrwt beam="1">  1       21 0.28417552E-01 0.22723449E+03</pdfrwt>
<pdfrwt beam="2">  1       21 0.44934530E-01 0.22723449E+03</pdfrwt>
<totfact> 0.55392978E+04</totfact>
</mgrwt>
</event>
<event>
 4    1  0.3973261E+000  0.2214813E+03  0.7546771E-02  0.1132784E+00
         21   -1    0    0  503  502  0.00000000000E+00  0.00000000000E+00  0.60479093264E+03  0.60479093264E+03  0.00000000000E+00 0. -1.
         21   -1    0    0  501  503 -0.00000000000E+00 -0.00000000000E+00 -0.23797698761E+03  0.23797698761E+03  0.00000000000E+00 0. -1.
          6    1    1    2  501    0 -0.70880089427E+01  0.13811124227E+03 -0.15871247042E+03  0.27247679420E+03  0.17300000000E+03 0. -1.
         -6    1    1    2    0  502  0.70880089427E+01 -0.13811124227E+03  0.52552641545E+03  0.57029112604E+03  0.17300000000E+03 0. -1.
<mgrwt>
<rscale>  2 0.22148127E+03</rscale>
<asrwt>0</asrwt>
<pdfrwt beam="1">  1       21 0.93044758E-01 0.22148127E+03</pdfrwt>
<pdfrwt beam="2">  1       21 0.36611844E-01 0.22148127E+03</pdfrwt>
<totfact> 0.68529046E+03</totfact>
</mgrwt>
</event>
<event>
 4    1  0.3973261E+000  0.1848935E+03  0.7546771E-02  0.1163149E+00
         21   -1    0    0  501  502  0.00000000000E+00  0.00000000000E+00  0.15498286979E+03  0.15498286979E+03  0.00000000000E+00 0. -1.
         21   -1    0    0  502  503 -0.00000000000E+00 -0.00000000000E+00 -0.43020132015E+03  0.43020132015E+03  0.00000000000E+00 0. -1.
          6    1    1    2  501    0  0.48646433624E+02  0.43475654915E+02  0.66634101772E+02  0.19653425043E+03  0.17300000000E+03 0. -1.
         -6    1    1    2    0  503 -0.48646433624E+02 -0.43475654915E+02 -0.34185255213E+03  0.38864993950E+03  0.17300000000E+03 0. -1.
<mgrwt>
<rscale>  2 0.18489350E+03</rscale>
<asrwt>0</asrwt>
<pdfrwt beam="1">  1       21 0.23843519E-01 0.18489350E+03</pdfrwt>
<pdfrwt beam="2">  1       21 0.66184818E-01 0.18489350E+03</pdfrwt>
<totfact> 0.34874318E+04</totfact>
</mgrwt>
</event>
<event>
 4    1  0.3973261E+000  0.2164951E+03  0.7546771E-02  0.1136523E+00
         21   -1    0    0  501  502  0.00000000000E+00  0.00000000000E+00  0.11704852966E+04  0.11704852966E+04  0.00000000000E+00 0.  1.
         21   -1    0    0  502  503 -0.00000000000E+00 -0.00000000000E+00 -0.46006944109E+02  0.46006944109E+02  0.00000000000E+00 0. -1.
          6    1    1    2  501    0  0.99235201168E+02 -0.84222901205E+02  0.34325000970E+03  0.40582100906E+03  0.17300000000E+03 0. -1.
         -6    1    1    2    0  503 -0.99235201168E+02  0.84222901205E+02  0.78122834280E+03  0.81067123165E+03  0.17300000000E+03 0.  1.
<mgrwt>
<rscale>  2 0.21649509E+03</rscale>
<asrwt>0</asrwt>
<pdfrwt beam="1">  1       21 0.18007464E+00 0.21649509E+03</pdfrwt>
<pdfrwt beam="2">  1       21 0.70779923E-02 0.21649509E+03</pdfrwt>
<totfact> 0.26542449E+04</totfact>
</mgrwt>
</event>
<event>
 4    1  0.3973261E+000  0.2251302E+03  0.7546771E-02  0.1130115E+00
         21   -1    0    0  501  502  0.00000000000E+00  0.00000000000E+00  0.70159899274E+02  0.70159899274E+02  0.00000000000E+00 0. -1.
         21   -1    0    0  502  503 -0.00000000000E+00 -0.00000000000E+00 -0.11936443859E+04  0.11936443859E+04  0.00000000000E+00 0. -1.
          6    1    1    2  501    0  0.13498198084E+03 -0.50343656197E+02 -0.16470181033E+03  0.27894498597E+03  0.17300000000E+03 0. -1.
         -6    1    1    2    0  503 -0.13498198084E+03  0.50343656197E+02 -0.95878267633E+03  0.98485929924E+03  0.17300000000E+03 0. -1.
<mgrwt>
<rscale>  2 0.22513023E+03</rscale>
<asrwt>0</asrwt>
<pdfrwt beam="1">  1       21 0.10793831E-01 0.22513023E+03</pdfrwt>
<pdfrwt beam="2">  1       21 0.18363760E+00 0.22513023E+03</pdfrwt>
<totfact> 0.11891604E+04</totfact>
</mgrwt>
</event>
<event>
 4    1  0.3973261E+000  0.2854423E+03  0.7546771E-02  0.1092753E+00
         21   -1    0    0  501  502  0.00000000000E+00  0.00000000000E+00  0.23883902495E+03  0.23883902495E+03  0.00000000000E+00 0.  1.
         21   -1    0    0  502  503 -0.00000000000E+00 -0.00000000000E+00 -0.84071757007E+03  0.84071757007E+03  0.00000000000E+00 0. -1.
          6    1    1    2  501    0  0.15113174913E+03 -0.16943289829E+03  0.11515548664E+03  0.30779554695E+03  0.17300000000E+03 0.  1.
         -6    1    1    2    0  503 -0.15113174913E+03  0.16943289829E+03 -0.71703403176E+03  0.77176104807E+03  0.17300000000E+03 0. -1.
<mgrwt>
<rscale>  2 0.28544231E+03</rscale>
<asrwt>0</asrwt>
<pdfrwt beam="1">  1       21 0.36744466E-01 0.28544231E+03</pdfrwt>
<pdfrwt beam="2">  1       21 0.12934116E+00 0.28544231E+03</pdfrwt>
<totfact> 0.29207437E+03</totfact>
</mgrwt>
</event>
<event>
 4    1  0.3973261E+000  0.2273455E+03  0.7546771E-02  0.1128522E+00
         21   -1    0    0  503  502  0.00000000000E+00  0.00000000000E+00  0.82328911789E+02  0.82328911789E+02  0.00000000000E+00 0.  1.
         21   -1    0    0  501  503 -0.00000000000E+00 -0.00000000000E+00 -0.79073537891E+03  0.79073537891E+03  0.00000000000E+00 0.  1.
          6    1    1    2  501    0  0.12137544835E+03  0.83815170738E+02 -0.55236054383E+03  0.59731746391E+03  0.17300000000E+03 0.  1.
         -6    1    1    2    0  502 -0.12137544835E+03 -0.83815170738E+02 -0.15604592329E+03  0.27574682679E+03  0.17300000000E+03 0.  1.
<mgrwt>
<rscale>  2 0.22734551E+03</rscale>
<asrwt>0</asrwt>
<pdfrwt beam="1">  1       21 0.12665987E-01 0.22734551E+03</pdfrwt>
<pdfrwt beam="2">  1       21 0.12165159E+00 0.22734551E+03</pdfrwt>
<totfact> 0.26649868E+04</totfact>
</mgrwt>
</event>
<event>
 4    1  0.3973261E+000  0.1755564E+03  0.7546771E-02  0.1172174E+00
         21   -1    0    0  503  502  0.00000000000E+00  0.00000000000E+00  0.19466699462E+03  0.19466699462E+03  0.00000000000E+00 0. -1.
         21   -1    0    0  501  503 -0.00000000000E+00 -0.00000000000E+00 -0.16109050691E+03  0.16109050691E+03  0.00000000000E+00 0.  1.
          6    1    1    2  501    0 -0.21601533625E+02  0.20601676277E+02 -0.65311350719E+01  0.17567786157E+03  0.17300000000E+03 0.  1.
         -6    1    1    2    0  502  0.21601533625E+02 -0.20601676277E+02  0.40107622785E+02  0.18007963995E+03  0.17300000000E+03 0. -1.
<mgrwt>
<rscale>  2 0.17555642E+03</rscale>
<asrwt>0</asrwt>
<pdfrwt beam="1">  1       21 0.29948768E-01 0.17555642E+03</pdfrwt>
<pdfrwt beam="2">  1       21 0.24783155E-01 0.17555642E+03</pdfrwt>
<totfact> 0.16553452E+05</totfact>
</mgrwt>
</event>
<event>
 4    1  0.3973261E+000  0.2219730E+03  0.7546771E-02  0.1132421E+00
         21   -1    0    0  503  502  0.00000000000E+00  0.00000000000E+00  0.27236367311E+03  0.27236367311E+03  0.00000000000E+00 0. -1.
         21   -1    0    0  501  503 -0.00000000000E+00 -0.00000000000E+00 -0.27205718746E+03  0.27205718746E+03  0.00000000000E+00 0.  1.
          6    1    1    2  501    0 -0.84777282901E+02 -0.11025348834E+03 -0.15741097695E+03  0.27212172837E+03  0.17300000000E+03 0.  1.
         -6    1    1    2    0  502  0.84777282901E+02  0.11025348834E+03  0.15771746260E+03  0.27229913220E+03  0.17300000000E+03 0. -1.
<mgrwt>
<rscale>  2 0.22197301E+03</rscale>
<asrwt>0</asrwt>
<pdfrwt beam="1">  1       21 0.41902104E-01 0.22197301E+03</pdfrwt>
<pdfrwt beam="2">  1       21 0.41854952E-01 0.22197301E+03</pdfrwt>
<totfact> 0.29656412E+04</totfact>
</mgrwt>
</event>
<event>
 4    1  0.3973261E+000  0.1733666E+03  0.7546771E-02  0.1174382E+00
         21   -1    0    0  501  502  0.00000000000E+00  0.00000000000E+00  0.11577918690E+03  0.11577918690E+03  0.00000000000E+00 0.  1.
         21   -1    0    0  502  503 -0.00000000000E+00 -0.00000000000E+00 -0.30866139695E+03  0.30866139695E+03  0.00000000000E+00 0.  1.
          6    1    1    2  501    0  0.89122412694E+01  0.68944438508E+01 -0.11829922414E+02  0.17376969950E+03  0.17300000000E+03 0.  1.
         -6    1    1    2    0  503 -0.89122412694E+01 -0.68944438508E+01 -0.18105228763E+03  0.25067088434E+03  0.17300000000E+03 0.  1.
<mgrwt>
<rscale>  2 0.17336655E+03</rscale>
<asrwt>0</asrwt>
<pdfrwt beam="1">  1       21 0.17812183E-01 0.17336655E+03</pdfrwt>
<pdfrwt beam="2">  1       21 0.47486368E-01 0.17336655E+03</pdfrwt>
<totfact> 0.12224720E+05</totfact>
</mgrwt>
</event>
<event>
 4    1  0.3973261E+000  0.1791277E+03  0.7546771E-02  0.1168650E+00
         21   -1    0    0  503  502  0.00000000000E+00  0.00000000000E+00  0.11107826835E+04  0.11107826835E+04  0.00000000000E+00 0.  1.
         21   -1    0    0  501  503 -0.00000000000E+00 -0.00000000000E+00 -0.11772187702E+03  0.11772187702E+03  0.00000000000E+00 0.  1.
          6    1    1    2  501    0 -0.24518563446E+02  0.39453329255E+02 -0.37063600601E+02  0.18292193863E+03  0.17300000000E+03 0.  1.
         -6    1    1    2    0  502  0.24518563446E+02 -0.39453329255E+02  0.10301244071E+04  0.10455826219E+04  0.17300000000E+03 0.  1.
<mgrwt>
<rscale>  2 0.17912768E+03</rscale>
<asrwt>0</asrwt>
<pdfrwt beam="1">  1       21 0.17088964E+00 0.17912768E+03</pdfrwt>
<pdfrwt beam="2">  1       21 0.18111059E-01 0.17912768E+03</pdfrwt>
<totfact> 0.59078697E+03</totfact>
</mgrwt>
</event>
<event>
 4    1  0.3973261E+000  0.3585828E+03  0.7546771E-02  0.1059146E+00
         21   -1    0    0  501  502  0.00000000000E+00  0.00000000000E+00  0.16682300266E+03  0.16682300266E+03  0.00000000000E+00 0. -1.
         21   -1    0    0  502  503 -0.00000000000E+00 -0.00000000000E+00 -0.11932617949E+04  0.11932617949E+04  0.00000000000E+00 0.  1.
          6    1    1    2  501    0 -0.36432901504E+02 -0.31196997489E+03 -0.10856996061E+03  0.37465858844E+03  0.17300000000E+03 0. -1.
         -6    1    1    2    0  503  0.36432901504E+02  0.31196997489E+03 -0.91786883158E+03  0.98542620908E+03  0.17300000000E+03 0.  1.
<mgrwt>
<rscale>  2 0.35858280E+03</rscale>
<asrwt>0</asrwt>
<pdfrwt beam="1">  1       21 0.25665076E-01 0.35858280E+03</pdfrwt>
<pdfrwt beam="2">  1       21 0.18357874E+00 0.35858280E+03</pdfrwt>
<totfact> 0.21995562E+03</totfact>
</mgrwt>
</event>
<event>
 4    1  0.3973261E+000  0.2371040E+03  0.7546771E-02  0.1121737E+00
         21   -1    0    0  501  502  0.00000000000E+00  0.00000000000E+00  0.34745110702E+03  0.34745110702E+03  0.00000000000E+00 0. -1.
         21   -1    0    0  502  503 -0.00000000000E+00 -0.00000000000E+00 -0.16286690550E+03  0.16286690550E+03  0.00000000000E+00 0.  1.
          6    1    1    2  501    0  0.11300465098E+03  0.11627240671E+03  0.71660794749E+02  0.24769657489E+03  0.17300000000E+03 0.  1.
         -6    1    1    2    0  503 -0.11300465098E+03 -0.11627240671E+03  0.11292340677E+03  0.26262143763E+03  0.17300000000E+03 0. -1.
<mgrwt>
<rscale>  2 0.23710404E+03</rscale>
<asrwt>0</asrwt>
<pdfrwt beam="1">  1       21 0.53454016E-01 0.23710404E+03</pdfrwt>
<pdfrwt beam="2">  1       21 0.25056447E-01 0.23710404E+03</pdfrwt>
<totfact> 0.48948102E+04</totfact>
</mgrwt>
</event>
<event>
 4    1  0.3973261E+000  0.2016662E+03  0.7546771E-02  0.1148341E+00
         21   -1    0    0  503  502  0.00000000000E+00  0.00000000000E+00  0.40466829456E+03  0.40466829456E+03  0.00000000000E+00 0.  1.
         21   -1    0    0  501  503 -0.00000000000E+00 -0.00000000000E+00 -0.10057709693E+03  0.10057709693E+03  0.00000000000E+00 0.  1.
          6    1    1    2  501    0  0.10494476240E+02  0.10310250814E+03  0.14506229541E+03  0.24841966662E+03  0.17300000000E+03 0.  1.
         -6    1    1    2    0  502 -0.10494476240E+02 -0.10310250814E+03  0.15902890221E+03  0.25682572487E+03  0.17300000000E+03 0.  1.
<mgrwt>
<rscale>  2 0.20166621E+03</rscale>
<asrwt>0</asrwt>
<pdfrwt beam="1">  1       21 0.62256659E-01 0.20166621E+03</pdfrwt>
<pdfrwt beam="2">  1       21 0.15473400E-01 0.20166621E+03</pdfrwt>
<totfact> 0.88369009E+04</totfact>
</mgrwt>
</event>
<event>
 4    1  0.3973261E+000  0.1880475E+03  0.7546771E-02  0.1160234E+00
         21   -1    0    0  503  502  0.00000000000E+00  0.00000000000E+00  0.59752223201E+02  0.59752223201E+02  0.00000000000E+00 0.  1.
         21   -1    0    0  501  503 -0.00000000000E+00 -0.00000000000E+00 -0.92813008329E+03  0.92813008329E+03  0.00000000000E+00 0.  1.
          6    1    1    2  501    0  0.34317852838E+02 -0.65231476199E+02 -0.73152547956E+03  0.75530880291E+03  0.17300000000E+03 0.  1.
         -6    1    1    2    0  502 -0.34317852838E+02  0.65231476199E+02 -0.13685238053E+03  0.23257350358E+03  0.17300000000E+03 0.  1.
<mgrwt>
<rscale>  2 0.18804750E+03</rscale>
<asrwt>0</asrwt>
<pdfrwt beam="1">  1       21 0.91926493E-02 0.18804750E+03</pdfrwt>
<pdfrwt beam="2">  1       21 0.14278925E+00 0.18804750E+03</pdfrwt>
<totfact> 0.32088326E+04</totfact>
</mgrwt>
</event>
<event>
 4    1  0.3973261E+000  0.1904426E+03  0.7546771E-02  0.1158063E+00
         21   -1    0    0  501  502  0.00000000000E+00  0.00000000000E+00  0.75987417537E+02  0.75987417537E+02  0.00000000000E+00 0. -1.
         21   -1    0    0  502  503 -0.00000000000E+00 -0.00000000000E+00 -0.62394194040E+03  0.62394194040E+03  0.00000000000E+00 0. -1.
          6    1    1    2  501    0 -0.51470097318E+02 -0.60746993404E+02 -0.10431332823E+03  0.21713967526E+03  0.17300000000E+03 0. -1.
         -6    1    1    2    0  503  0.51470097318E+02  0.60746993404E+02 -0.44364119462E+03  0.48278968267E+03  0.17300000000E+03 0. -1.
<mgrwt>
<rscale>  2 0.19044256E+03</rscale>
<asrwt>0</asrwt>
<pdfrwt beam="1">  1       21 0.11690371E-01 0.19044256E+03</pdfrwt>
<pdfrwt beam="2">  1       21 0.95991072E-01 0.19044256E+03</pdfrwt>
<totfact> 0.55651650E+04</totfact>
</mgrwt>
</event>
<event>
 4    1  0.3973261E+000  0.1867518E+03  0.7546771E-02  0.1161424E+00
         21   -1    0    0  503  502  0.00000000000E+00  0.00000000000E+00  0.23928305481E+03  0.23928305481E+03  0.00000000000E+00 0. -1.
         21   -1    0    0  501  503 -0.00000000000E+00 -0.00000000000E+00 -0.16109240204E+03  0.16109240204E+03  0.00000000000E+00 0. -1.
          6    1    1    2  501    0 -0.81735306611E+01 -0.69860184170E+02 -0.22678205306E+02  0.18812377025E+03  0.17300000000E+03 0.  1.
         -6    1    1    2    0  502  0.81735306611E+01  0.69860184170E+02  0.10086885807E+03  0.21225168660E+03  0.17300000000E+03 0.  1.
<mgrwt>
<rscale>  2 0.18675185E+03</rscale>
<asrwt>0</asrwt>
<pdfrwt beam="1">  1       21 0.36812778E-01 0.18675185E+03</pdfrwt>
<pdfrwt beam="2">  1       21 0.24783447E-01 0.18675185E+03</pdfrwt>
<totfact> 0.10983314E+05</totfact>
</mgrwt>
</event>
<event>
 4    1  0.3973261E+000  0.1869319E+03  0.7546771E-02  0.1161258E+00
         21   -1    0    0  501  502  0.00000000000E+00  0.00000000000E+00  0.67973006694E+02  0.67973006694E+02  0.00000000000E+00 0.  1.
         21   -1    0    0  502  503 -0.00000000000E+00 -0.00000000000E+00 -0.65269190632E+03  0.65269190632E+03  0.00000000000E+00 0.  1.
          6    1    1    2  501    0 -0.19223770077E+01  0.70787310964E+02 -0.12630516048E+03  0.22560259859E+03  0.17300000000E+03 0.  1.
         -6    1    1    2    0  503  0.19223770077E+01 -0.70787310964E+02 -0.45841373914E+03  0.49506231442E+03  0.17300000000E+03 0.  1.
<mgrwt>
<rscale>  2 0.18693191E+03</rscale>
<asrwt>0</asrwt>
<pdfrwt beam="1">  1       21 0.10457385E-01 0.18693191E+03</pdfrwt>
<pdfrwt beam="2">  1       21 0.10041415E+00 0.18693191E+03</pdfrwt>
<totfact> 0.61112004E+04</totfact>
</mgrwt>
</event>
<event>
 4    1  0.3973261E+000  0.2423012E+03  0.7546771E-02  0.1118269E+00
         21   -1    0    0  503  502  0.00000000000E+00  0.00000000000E+00  0.12461539023E+04  0.12461539023E+04  0.00000000000E+00 0.  1.
         21   -1    0    0  501  503 -0.00000000000E+00 -0.00000000000E+00 -0.86378511514E+02  0.86378511514E+02  0.00000000000E+00 0.  1.
          6    1    1    2  501    0  0.57885533131E+02  0.15946828862E+03  0.13067569308E+03  0.27529258396E+03  0.17300000000E+03 0.  1.
         -6    1    1    2    0  502 -0.57885533131E+02 -0.15946828862E+03  0.10290996978E+04  0.10572398299E+04  0.17300000000E+03 0.  1.
<mgrwt>
<rscale>  2 0.24230120E+03</rscale>
<asrwt>0</asrwt>
<pdfrwt beam="1">  1       21 0.19171597E+00 0.24230120E+03</pdfrwt>
<pdfrwt beam="2">  1       21 0.13289003E-01 0.24230120E+03</pdfrwt>
<totfact> 0.71385421E+03</totfact>
</mgrwt>
</event>
<event>
 4    1  0.3973261E+000  0.1894635E+03  0.7546771E-02  0.1158946E+00
         21   -1    0    0  501  502  0.00000000000E+00  0.00000000000E+00  0.12506145016E+03  0.12506145016E+03  0.00000000000E+00 0. -1.
         21   -1    0    0  502  503 -0.00000000000E+00 -0.00000000000E+00 -0.31276335774E+03  0.31276335774E+03  0.00000000000E+00 0.  1.
          6    1    1    2  501    0  0.75970444344E+02  0.13997269034E+02 -0.31058464177E+02  0.19199234399E+03  0.17300000000E+03 0. -1.
         -6    1    1    2    0  503 -0.75970444344E+02 -0.13997269034E+02 -0.15664344340E+03  0.24583246392E+03  0.17300000000E+03 0.  1.
<mgrwt>
<rscale>  2 0.18946354E+03</rscale>
<asrwt>0</asrwt>
<pdfrwt beam="1">  1       21 0.19240223E-01 0.18946354E+03</pdfrwt>
<pdfrwt beam="2">  1       21 0.48117439E-01 0.18946354E+03</pdfrwt>
<totfact> 0.10252063E+05</totfact>
</mgrwt>
</event>
<event>
 4    1  0.3973261E+000  0.1812667E+03  0.7546771E-02  0.1166583E+00
         21   -1    0    0  501  502  0.00000000000E+00  0.00000000000E+00  0.48760920242E+03  0.48760920242E+03  0.00000000000E+00 0. -1.
         21   -1    0    0  502  503 -0.00000000000E+00 -0.00000000000E+00 -0.34033676760E+03  0.34033676760E+03  0.00000000000E+00 0. -1.
          6    1    1    2  501    0  0.38602371195E+02 -0.37927162648E+02  0.44436850662E+03  0.47991768294E+03  0.17300000000E+03 0. -1.
         -6    1    1    2    0  503 -0.38602371195E+02  0.37927162648E+02 -0.29709607180E+03  0.34802828708E+03  0.17300000000E+03 0. -1.
<mgrwt>
<rscale>  2 0.18126669E+03</rscale>
<asrwt>0</asrwt>
<pdfrwt beam="1">  1       21 0.75016801E-01 0.18126669E+03</pdfrwt>
<pdfrwt beam="2">  1       21 0.52359502E-01 0.18126669E+03</pdfrwt>
<totfact> 0.55472223E+03</totfact>
</mgrwt>
</event>
<event>
 4    1  0.3973261E+000  0.2140190E+03  0.7546771E-02  0.1138422E+00
         21   -1    0    0  503  502  0.00000000000E+00  0.00000000000E+00  0.55911166748E+03  0.55911166748E+03  0.00000000000E+00 0.  1.
         21   -1    0    0  501  503 -0.00000000000E+00 -0.00000000000E+00 -0.95343654144E+02  0.95343654144E+02  0.00000000000E+00 0.  1.
          6    1    1    2  501    0  0.12373749554E+03 -0.23751896275E+02  0.10911449947E+03  0.24022925378E+03  0.17300000000E+03 0.  1.
         -6    1    1    2    0  502 -0.12373749554E+03  0.23751896275E+02  0.35465351387E+03  0.41422606784E+03  0.17300000000E+03 0.  1.
<mgrwt>
<rscale>  2 0.21401897E+03</rscale>
<asrwt>0</asrwt>
<pdfrwt beam="1">  1       21 0.86017178E-01 0.21401897E+03</pdfrwt>
<pdfrwt beam="2">  1       21 0.14668255E-01 0.21401897E+03</pdfrwt>
<totfact> 0.47133939E+04</totfact>
</mgrwt>
</event>
<event>
 4    1  0.3973261E+000  0.2238881E+03  0.7546771E-02  0.1131017E+00
         21   -1    0    0  503  502  0.00000000000E+00  0.00000000000E+00  0.95699011610E+02  0.95699011610E+02  0.00000000000E+00 0.  1.
         21   -1    0    0  501  503 -0.00000000000E+00 -0.00000000000E+00 -0.52399726006E+03  0.52399726006E+03  0.00000000000E+00 0. -1.
          6    1    1    2  501    0  0.14170057529E+03  0.10855659711E+02 -0.20794242484E+03  0.30555842393E+03  0.17300000000E+03 0.  1.
         -6    1    1    2    0  502 -0.14170057529E+03 -0.10855659711E+02 -0.22035582361E+03  0.31413784774E+03  0.17300000000E+03 0. -1.
<mgrwt>
<rscale>  2 0.22388814E+03</rscale>
<asrwt>0</asrwt>
<pdfrwt beam="1">  1       21 0.14722925E-01 0.22388814E+03</pdfrwt>
<pdfrwt beam="2">  1       21 0.80614961E-01 0.22388814E+03</pdfrwt>
<totfact> 0.54051522E+04</totfact>
</mgrwt>
</event>
<event>
 4    1  0.3973261E+000  0.1920579E+03  0.7546771E-02  0.1156618E+00
         21   -1    0    0  503  502  0.00000000000E+00  0.00000000000E+00  0.63744693256E+03  0.63744693256E+03  0.00000000000E+00 0. -1.
         21   -1    0    0  501  503 -0.00000000000E+00 -0.00000000000E+00 -0.69945084503E+02  0.69945084503E+02  0.00000000000E+00 0. -1.
          6    1    1    2  501    0 -0.78437222121E+02  0.28370002494E+02  0.13676504946E+03  0.23577729663E+03  0.17300000000E+03 0. -1.
         -6    1    1    2    0  502  0.78437222121E+02 -0.28370002494E+02  0.43073679861E+03  0.47161472043E+03  0.17300000000E+03 0. -1.
<mgrwt>
<rscale>  2 0.19205795E+03</rscale>
<asrwt>0</asrwt>
<pdfrwt beam="1">  1       21 0.98068755E-01 0.19205795E+03</pdfrwt>
<pdfrwt beam="2">  1       21 0.10760783E-01 0.19205795E+03</pdfrwt>
<totfact> 0.61283917E+04</totfact>
</mgrwt>
</event>
<event>
 4    1  0.3973261E+000  0.1767088E+03  0.7546771E-02  0.1171027E+00
         21   -1    0    0  501  502  0.00000000000E+00  0.00000000000E+00  0.27312699525E+02  0.27312699525E+02  0.00000000000E+00 0.  1.
         21   -1    0    0  502  503 -0.00000000000E+00 -0.00000000000E+00 -0.12377947138E+04  0.12377947138E+04  0.00000000000E+00 0.  1.
          6    1    1    2  501    0  0.35719944626E+02  0.45911128318E+01 -0.43044612092E+03  0.46530619572E+03  0.17300000000E+03 0.  1.
         -6    1    1    2    0  503 -0.35719944626E+02 -0.45911128318E+01 -0.78003589338E+03  0.79980121763E+03  0.17300000000E+03 0.  1.
<mgrwt>
<rscale>  2 0.17670878E+03</rscale>
<asrwt>0</asrwt>
<pdfrwt beam="1">  1       21 0.42019538E-02 0.17670878E+03</pdfrwt>
<pdfrwt beam="2">  1       21 0.19042996E+00 0.17670878E+03</pdfrwt>
<totfact> 0.56464882E+04</totfact>
</mgrwt>
</event>
<event>
 4    1  0.3973261E+000  0.2751935E+03  0.7546771E-02  0.1098344E+00
         21   -1    0    0  503  502  0.00000000000E+00  0.00000000000E+00  0.37367075009E+03  0.37367075009E+03  0.00000000000E+00 0.  1.
         21   -1    0    0  501  503 -0.00000000000E+00 -0.00000000000E+00 -0.38961852826E+03  0.38961852826E+03  0.00000000000E+00 0. -1.
          6    1    1    2  501    0  0.20007841195E+03 -0.75967519822E+02 -0.27233750521E+03  0.38716811818E+03  0.17300000000E+03 0. -1.
         -6    1    1    2    0  502 -0.20007841195E+03  0.75967519822E+02  0.25638972704E+03  0.37612116017E+03  0.17300000000E+03 0.  1.
<mgrwt>
<rscale>  2 0.27519345E+03</rscale>
<asrwt>0</asrwt>
<pdfrwt beam="1">  1       21 0.57487808E-01 0.27519345E+03</pdfrwt>
<pdfrwt beam="2">  1       21 0.59941312E-01 0.27519345E+03</pdfrwt>
<totfact> 0.70003832E+03</totfact>
</mgrwt>
</event>
<event>
 4    1  0.3973261E+000  0.1835866E+03  0.7546771E-02  0.1164376E+00
         21   -1    0    0  503  502  0.00000000000E+00  0.00000000000E+00  0.18096636623E+03  0.18096636623E+03  0.00000000000E+00 0.  1.
         21   -1    0    0  501  503 -0.00000000000E+00 -0.00000000000E+00 -0.18759734241E+03  0.18759734241E+03  0.00000000000E+00 0.  1.
          6    1    1    2  501    0 -0.10375832121E+02  0.60558923361E+02 -0.18963092837E+02  0.18456337660E+03  0.17300000000E+03 0.  1.
         -6    1    1    2    0  502  0.10375832121E+02 -0.60558923361E+02  0.12332116653E+02  0.18400033204E+03  0.17300000000E+03 0.  1.
<mgrwt>
<rscale>  2 0.18358660E+03</rscale>
<asrwt>0</asrwt>
<pdfrwt beam="1">  1       21 0.27840980E-01 0.18358660E+03</pdfrwt>
<pdfrwt beam="2">  1       21 0.28861129E-01 0.18358660E+03</pdfrwt>
<totfact> 0.14194812E+05</totfact>
</mgrwt>
</event>
<event>
 4    1  0.3973261E+000  0.2240715E+03  0.7546771E-02  0.1130883E+00
         21   -1    0    0  501  502  0.00000000000E+00  0.00000000000E+00  0.66772139832E+03  0.66772139832E+03  0.00000000000E+00 0.  1.
         21   -1    0    0  502  503 -0.00000000000E+00 -0.00000000000E+00 -0.82655529653E+02  0.82655529653E+02  0.00000000000E+00 0. -1.
          6    1    1    2  501    0  0.14105536208E+03 -0.19555879420E+02  0.40526653956E+03  0.46308640195E+03  0.17300000000E+03 0.  1.
         -6    1    1    2    0  503 -0.14105536208E+03  0.19555879420E+02  0.17979932911E+03  0.28729052602E+03  0.17300000000E+03 0. -1.
<mgrwt>
<rscale>  2 0.22407152E+03</rscale>
<asrwt>0</asrwt>
<pdfrwt beam="1">  1       21 0.10272637E+00 0.22407152E+03</pdfrwt>
<pdfrwt beam="2">  1       21 0.12716236E-01 0.22407152E+03</pdfrwt>
<totfact> 0.40060958E+04</totfact>
</mgrwt>
</event>
<event>
 4    1  0.3973261E+000  0.2185520E+03  0.7546771E-02  0.1134967E+00
         21   -1    0    0  503  502  0.00000000000E+00  0.00000000000E+00  0.12690086334E+03  0.12690086334E+03  0.00000000000E+00 0. -1.
         21   -1    0    0  501  503 -0.00000000000E+00 -0.00000000000E+00 -0.40510597154E+03  0.40510597154E+03  0.00000000000E+00 0.  1.
          6    1    1    2  501    0 -0.73719654350E+02 -0.11136148848E+03 -0.20991666378E+03  0.30303460906E+03  0.17300000000E+03 0.  1.
         -6    1    1    2    0  502  0.73719654350E+02  0.11136148848E+03 -0.68288444430E+02  0.22897222582E+03  0.17300000000E+03 0. -1.
<mgrwt>
<rscale>  2 0.21855198E+03</rscale>
<asrwt>0</asrwt>
<pdfrwt beam="1">  1       21 0.19523209E-01 0.21855198E+03</pdfrwt>
<pdfrwt beam="2">  1       21 0.62323997E-01 0.21855198E+03</pdfrwt>
<totfact> 0.56960698E+04</totfact>
</mgrwt>
</event>
<event>
 4    1  0.3973261E+000  0.1906971E+03  0.7546771E-02  0.1157834E+00
         21   -1    0    0  501  502  0.00000000000E+00  0.00000000000E+00  0.66021280343E+03  0.66021280343E+03  0.00000000000E+00 0. -1.
         21   -1    0    0  502  503 -0.00000000000E+00 -0.00000000000E+00 -0.69586478866E+02  0.69586478866E+02  0.00000000000E+00 0. -1.
          6    1    1    2  501    0  0.67542204215E+02 -0.43294710150E+02  0.46191220795E+03  0.49972819526E+03  0.17300000000E+03 0. -1.
         -6    1    1    2    0  503 -0.67542204215E+02  0.43294710150E+02  0.12871411661E+03  0.23007108704E+03  0.17300000000E+03 0. -1.
<mgrwt>
<rscale>  2 0.19069709E+03</rscale>
<asrwt>0</asrwt>
<pdfrwt beam="1">  1       21 0.10157120E+00 0.19069709E+03</pdfrwt>
<pdfrwt beam="2">  1       21 0.10705613E-01 0.19069709E+03</pdfrwt>
<totfact> 0.56944387E+04</totfact>
</mgrwt>
</event>
<event>
 4    1  0.3973261E+000  0.2060587E+03  0.7546771E-02  0.1144726E+00
         21   -1    0    0  503  502  0.00000000000E+00  0.00000000000E+00  0.50147972910E+02  0.50147972910E+02  0.00000000000E+00 0. -1.
         21   -1    0    0  501  503 -0.00000000000E+00 -0.00000000000E+00 -0.93870479617E+03  0.93870479617E+03  0.00000000000E+00 0. -1.
          6    1    1    2  501    0  0.16092409266E+02 -0.11077999621E+03 -0.59907015371E+03  0.63351813097E+03  0.17300000000E+03 0. -1.
         -6    1    1    2    0  502 -0.16092409266E+02  0.11077999621E+03 -0.28948666955E+03  0.35533463811E+03  0.17300000000E+03 0. -1.
<mgrwt>
<rscale>  2 0.20605866E+03</rscale>
<asrwt>0</asrwt>
<pdfrwt beam="1">  1       21 0.77150725E-02 0.20605866E+03</pdfrwt>
<pdfrwt beam="2">  1       21 0.14441613E+00 0.20605866E+03</pdfrwt>
<totfact> 0.41868026E+04</totfact>
</mgrwt>
</event>
<event>
 4    1  0.3973261E+000  0.1797596E+03  0.7546771E-02  0.1168036E+00
         21   -1    0    0  501  502  0.00000000000E+00  0.00000000000E+00  0.13056611678E+03  0.13056611678E+03  0.00000000000E+00 0.  1.
         21   -1    0    0  502  503 -0.00000000000E+00 -0.00000000000E+00 -0.31948371345E+03  0.31948371345E+03  0.00000000000E+00 0.  1.
          6    1    1    2  501    0 -0.32117565855E+02 -0.36782658496E+02  0.12363177467E+02  0.18018421174E+03  0.17300000000E+03 0.  1.
         -6    1    1    2    0  503  0.32117565855E+02  0.36782658496E+02 -0.20128077414E+03  0.26986561849E+03  0.17300000000E+03 0.  1.
<mgrwt>
<rscale>  2 0.17975957E+03</rscale>
<asrwt>0</asrwt>
<pdfrwt beam="1">  1       21 0.20087095E-01 0.17975957E+03</pdfrwt>
<pdfrwt beam="2">  1       21 0.49151340E-01 0.17975957E+03</pdfrwt>
<totfact> 0.90868998E+04</totfact>
</mgrwt>
</event>
<event>
 4    1  0.3973261E+000  0.1763043E+03  0.7546771E-02  0.1171428E+00
         21   -1    0    0  501  502  0.00000000000E+00  0.00000000000E+00  0.79199805406E+02  0.79199805406E+02  0.00000000000E+00 0.  1.
         21   -1    0    0  502  503 -0.00000000000E+00 -0.00000000000E+00 -0.46085474858E+03  0.46085474858E+03  0.00000000000E+00 0.  1.
          6    1    1    2  501    0  0.22677154439E+02  0.25296960954E+02 -0.86806816100E+02  0.19651618989E+03  0.17300000000E+03 0.  1.
         -6    1    1    2    0  503 -0.22677154439E+02 -0.25296960954E+02 -0.29484812707E+03  0.34353836409E+03  0.17300000000E+03 0.  1.
<mgrwt>
<rscale>  2 0.17630425E+03</rscale>
<asrwt>0</asrwt>
<pdfrwt beam="1">  1       21 0.12184586E-01 0.17630425E+03</pdfrwt>
<pdfrwt beam="2">  1       21 0.70900730E-01 0.17630425E+03</pdfrwt>
<totfact> 0.10350962E+05</totfact>
</mgrwt>
</event>
<event>
 4    1  0.3973261E+000  0.1733224E+03  0.7546771E-02  0.1174427E+00
         21   -1    0    0  501  502  0.00000000000E+00  0.00000000000E+00  0.12969112355E+03  0.12969112355E+03  0.00000000000E+00 0. -1.
         21   -1    0    0  502  503 -0.00000000000E+00 -0.00000000000E+00 -0.34152351708E+03  0.34152351708E+03  0.00000000000E+00 0. -1.
          6    1    1    2  501    0 -0.68711989516E+01  0.80285244394E+01  0.27730952676E+02  0.17552685355E+03  0.17300000000E+03 0. -1.
         -6    1    1    2    0  503  0.68711989516E+01 -0.80285244394E+01 -0.23956334621E+03  0.29568778707E+03  0.17300000000E+03 0. -1.
<mgrwt>
<rscale>  2 0.17332245E+03</rscale>
<asrwt>0</asrwt>
<pdfrwt beam="1">  1       21 0.19952481E-01 0.17332245E+03</pdfrwt>
<pdfrwt beam="2">  1       21 0.52542079E-01 0.17332245E+03</pdfrwt>
<totfact> 0.80279033E+04</totfact>
</mgrwt>
</event>
<event>
 4    1  0.3973261E+000  0.1854978E+03  0.7546771E-02  0.1162586E+00
         21   -1    0    0  503  502  0.00000000000E+00  0.00000000000E+00  0.38769761909E+03  0.38769761909E+03  0.00000000000E+00 0. -1.
         21   -1    0    0  501  503 -0.00000000000E+00 -0.00000000000E+00 -0.16921090512E+03  0.16921090512E+03  0.00000000000E+00 0. -1.
          6    1    1    2  501    0  0.58156077626E+02 -0.33140543661E+02 -0.82766432782E+02  0.20312485666E+03  0.17300000000E+03 0. -1.
         -6    1    1    2    0  502 -0.58156077626E+02  0.33140543661E+02  0.30125314675E+03  0.35378366755E+03  0.17300000000E+03 0. -1.
<mgrwt>
<rscale>  2 0.18549778E+03</rscale>
<asrwt>0</asrwt>
<pdfrwt beam="1">  1       21 0.59645787E-01 0.18549778E+03</pdfrwt>
<pdfrwt beam="2">  1       21 0.26032447E-01 0.18549778E+03</pdfrwt>
<totfact> 0.36923618E+04</totfact>
</mgrwt>
</event>
<event>
 4    1  0.3973261E+000  0.1931201E+03  0.7546771E-02  0.1155677E+00
         21   -1    0    0  503  502  0.00000000000E+00  0.00000000000E+00  0.50933241355E+03  0.50933241355E+03  0.00000000000E+00 0. -1.
         21   -1    0    0  501  503 -0.00000000000E+00 -0.00000000000E+00 -0.74439203309E+02  0.74439203309E+02  0.00000000000E+00 0. -1.
          6    1    1    2  501    0 -0.83442086705E+02  0.20094109540E+02  0.18015276137E+03  0.26410295814E+03  0.17300000000E+03 0. -1.
         -6    1    1    2    0  502  0.83442086705E+02 -0.20094109540E+02  0.25474044887E+03  0.31966865871E+03  0.17300000000E+03 0. -1.
<mgrwt>
<rscale>  2 0.19312005E+03</rscale>
<asrwt>0</asrwt>
<pdfrwt beam="1">  1       21 0.78358831E-01 0.19312005E+03</pdfrwt>
<pdfrwt beam="2">  1       21 0.11452185E-01 0.19312005E+03</pdfrwt>
<totfact> 0.91921066E+04</totfact>
</mgrwt>
</event>
<event>
 4    1  0.3973261E+000  0.2140134E+03  0.7546771E-02  0.1138427E+00
         21   -1    0    0  503  502  0.00000000000E+00  0.00000000000E+00  0.32733356332E+03  0.32733356332E+03  0.00000000000E+00 0.  1.
         21   -1    0    0  501  503 -0.00000000000E+00 -0.00000000000E+00 -0.14878100861E+03  0.14878100861E+03  0.00000000000E+00 0. -1.
          6    1    1    2  501    0  0.97598781700E+02 -0.79669454283E+02  0.31192205020E+02  0.21627458887E+03  0.17300000000E+03 0. -1.
         -6    1    1    2    0  502 -0.97598781700E+02  0.79669454283E+02  0.14736034969E+03  0.25983998306E+03  0.17300000000E+03 0. -1.
<mgrwt>
<rscale>  2 0.21401342E+03</rscale>
<asrwt>0</asrwt>
<pdfrwt beam="1">  1       21 0.50359010E-01 0.21401342E+03</pdfrwt>
<pdfrwt beam="2">  1       21 0.22889386E-01 0.21401342E+03</pdfrwt>
<totfact> 0.66599389E+04</totfact>
</mgrwt>
</event>
<event>
 4    1  0.3973261E+000  0.1757053E+03  0.7546771E-02  0.1172025E+00
         21   -1    0    0  501  502  0.00000000000E+00  0.00000000000E+00  0.86336578390E+03  0.86336578390E+03  0.00000000000E+00 0.  1.
         21   -1    0    0  502  503 -0.00000000000E+00 -0.00000000000E+00 -0.40873543752E+02  0.40873543752E+02  0.00000000000E+00 0.  1.
          6    1    1    2  501    0  0.16177158422E+02 -0.26108621854E+02  0.57119157832E+03  0.59760537124E+03  0.17300000000E+03 0.  1.
         -6    1    1    2    0  503 -0.16177158422E+02  0.26108621854E+02  0.25130066182E+03  0.30663395641E+03  0.17300000000E+03 0.  1.
<mgrwt>
<rscale>  2 0.17570532E+03</rscale>
<asrwt>0</asrwt>
<pdfrwt beam="1">  1       21 0.13282549E+00 0.17570532E+03</pdfrwt>
<pdfrwt beam="2">  1       21 0.62882382E-02 0.17570532E+03</pdfrwt>
<totfact> 0.75102380E+04</totfact>
</mgrwt>
</event>
<event>
 4    1  0.3973261E+000  0.3326151E+03  0.7546771E-02  0.1069986E+00
         21   -1    0    0  501  502  0.00000000000E+00  0.00000000000E+00  0.58591932101E+03  0.58591932101E+03  0.00000000000E+00 0. -1.
         21   -1    0    0  502  503 -0.00000000000E+00 -0.00000000000E+00 -0.20418255176E+03  0.20418255176E+03  0.00000000000E+00 0.  1.
          6    1    1    2  501    0 -0.11001648769E+03 -0.26191633072E+03  0.29923297322E+03  0.44740715699E+03  0.17300000000E+03 0. -1.
         -6    1    1    2    0  503  0.11001648769E+03  0.26191633072E+03  0.82503796031E+02  0.34269471578E+03  0.17300000000E+03 0.  1.
<mgrwt>
<rscale>  2 0.33261508E+03</rscale>
<asrwt>0</asrwt>
<pdfrwt beam="1">  1       21 0.90141434E-01 0.33261508E+03</pdfrwt>
<pdfrwt beam="2">  1       21 0.31412700E-01 0.33261508E+03</pdfrwt>
<totfact> 0.94489000E+03</totfact>
</mgrwt>
</event>
<event>
 4    1  0.3973261E+000  0.1806925E+03  0.7546771E-02  0.1167135E+00
         21   -1    0    0  501  502  0.00000000000E+00  0.00000000000E+00  0.60561481053E+02  0.60561481053E+02  0.00000000000E+00 0.  1.
         21   -1    0    0  502  503 -0.00000000000E+00 -0.00000000000E+00 -0.53985945839E+03  0.53985945839E+03  0.00000000000E+00 0.  1.
          6    1    1    2  501    0  0.48032431163E+02  0.20338393104E+02 -0.22852078901E+03  0.29132716263E+03  0.17300000000E+03 0. -1.
         -6    1    1    2    0  503 -0.48032431163E+02 -0.20338393104E+02 -0.25077718832E+03  0.30909377681E+03  0.17300000000E+03 0. -1.
<mgrwt>
<rscale>  2 0.18069246E+03</rscale>
<asrwt>0</asrwt>
<pdfrwt beam="1">  1       21 0.93171508E-02 0.18069246E+03</pdfrwt>
<pdfrwt beam="2">  1       21 0.83055302E-01 0.18069246E+03</pdfrwt>
<totfact> 0.11663940E+05</totfact>
</mgrwt>
</event>
<event>
 4    1  0.3973261E+000  0.2062537E+03  0.7546771E-02  0.1144567E+00
         21   -1    0    0  501  502  0.00000000000E+00  0.00000000000E+00  0.49787510754E+02  0.49787510754E+02  0.00000000000E+00 0.  1.
         21   -1    0    0  502  503 -0.00000000000E+00 -0.00000000000E+00 -0.87856071538E+03  0.87856071538E+03  0.00000000000E+00 0.  1.
          6    1    1    2  501    0  0.88664512465E+02 -0.68921632645E+02 -0.33748000059E+03  0.39551654582E+03  0.17300000000E+03 0.  1.
         -6    1    1    2    0  503 -0.88664512465E+02  0.68921632645E+02 -0.49129320403E+03  0.53283168032E+03  0.17300000000E+03 0.  1.
<mgrwt>
<rscale>  2 0.20625370E+03</rscale>
<asrwt>0</asrwt>
<pdfrwt beam="1">  1       21 0.76596180E-02 0.20625370E+03</pdfrwt>
<pdfrwt beam="2">  1       21 0.13516317E+00 0.20625370E+03</pdfrwt>
<totfact> 0.50312018E+04</totfact>
</mgrwt>
</event>
<event>
 4    1  0.3973261E+000  0.2204485E+03  0.7546771E-02  0.1133549E+00
         21   -1    0    0  501  502  0.00000000000E+00  0.00000000000E+00  0.53339336562E+03  0.53339336562E+03  0.00000000000E+00 0.  1.
         21   -1    0    0  502  503 -0.00000000000E+00 -0.00000000000E+00 -0.10790837434E+03  0.10790837434E+03  0.00000000000E+00 0. -1.
          6    1    1    2  501    0  0.13385081187E+03 -0.27431684833E+02  0.33925598559E+03  0.40458887890E+03  0.17300000000E+03 0.  1.
         -6    1    1    2    0  503 -0.13385081187E+03  0.27431684833E+02  0.86229005684E+02  0.23671286106E+03  0.17300000000E+03 0. -1.
<mgrwt>
<rscale>  2 0.22044849E+03</rscale>
<asrwt>0</asrwt>
<pdfrwt beam="1">  1       21 0.82060516E-01 0.22044849E+03</pdfrwt>
<pdfrwt beam="2">  1       21 0.16601289E-01 0.22044849E+03</pdfrwt>
<totfact> 0.41718982E+04</totfact>
</mgrwt>
</event>
<event>
 4    1  0.3973261E+000  0.1773086E+03  0.7546771E-02  0.1170434E+00
         21   -1    0    0  501  502  0.00000000000E+00  0.00000000000E+00  0.24917250163E+03  0.24917250163E+03  0.00000000000E+00 0.  1.
         21   -1    0    0  502  503 -0.00000000000E+00 -0.00000000000E+00 -0.15482625460E+03  0.15482625460E+03  0.00000000000E+00 0.  1.
          6    1    1    2  501    0 -0.27814034541E+02  0.27124075187E+02  0.13407518909E+03  0.22229370729E+03  0.17300000000E+03 0.  1.
         -6    1    1    2    0  503  0.27814034541E+02 -0.27124075187E+02 -0.39728942062E+02  0.18170504894E+03  0.17300000000E+03 0.  1.
<mgrwt>
<rscale>  2 0.17730859E+03</rscale>
<asrwt>0</asrwt>
<pdfrwt beam="1">  1       21 0.38334231E-01 0.17730859E+03</pdfrwt>
<pdfrwt beam="2">  1       21 0.23819424E-01 0.17730859E+03</pdfrwt>
<totfact> 0.10960176E+05</totfact>
</mgrwt>
</event>
<event>
 4    1  0.3973261E+000  0.2316429E+03  0.7546771E-02  0.1125489E+00
         21   -1    0    0  501  502  0.00000000000E+00  0.00000000000E+00  0.18631135897E+03  0.18631135897E+03  0.00000000000E+00 0.  1.
         21   -1    0    0  502  503 -0.00000000000E+00 -0.00000000000E+00 -0.35166544997E+03  0.35166544997E+03  0.00000000000E+00 0.  1.
          6    1    1    2  501    0  0.13921517771E+03 -0.65943604882E+02  0.31770589430E+02  0.23381145199E+03  0.17300000000E+03 0.  1.
         -6    1    1    2    0  503 -0.13921517771E+03  0.65943604882E+02 -0.19712468043E+03  0.30416535694E+03  0.17300000000E+03 0.  1.
<mgrwt>
<rscale>  2 0.23164288E+03</rscale>
<asrwt>0</asrwt>
<pdfrwt beam="1">  1       21 0.28663286E-01 0.23164288E+03</pdfrwt>
<pdfrwt beam="2">  1       21 0.54102376E-01 0.23164288E+03</pdfrwt>
<totfact> 0.36879403E+04</totfact>
</mgrwt>
</event>
<event>
 4    1  0.3973261E+000  0.2347130E+03  0.7546771E-02  0.1123366E+00
         21   -1    0    0  503  502  0.00000000000E+00  0.00000000000E+00  0.64301637964E+02  0.64301637964E+02  0.00000000000E+00 0.  1.
         21   -1    0    0  501  503 -0.00000000000E+00 -0.00000000000E+00 -0.10137961526E+04  0.10137961526E+04  0.00000000000E+00 0. -1.
          6    1    1    2  501    0 -0.14854469735E+03 -0.55638601374E+02 -0.68691131287E+03  0.72590449291E+03  0.17300000000E+03 0.  1.
         -6    1    1    2    0  502  0.14854469735E+03  0.55638601374E+02 -0.26258320180E+03  0.35219329770E+03  0.17300000000E+03 0. -1.
<mgrwt>
<rscale>  2 0.23471298E+03</rscale>
<asrwt>0</asrwt>
<pdfrwt beam="1">  1       21 0.98925600E-02 0.23471298E+03</pdfrwt>
<pdfrwt beam="2">  1       21 0.15596863E+00 0.23471298E+03</pdfrwt>
<totfact> 0.21708547E+04</totfact>
</mgrwt>
</event>
<event>
 4    1  0.3973261E+000  0.1874372E+03  0.7546771E-02  0.1160793E+00
         21   -1    0    0  501  502  0.00000000000E+00  0.00000000000E+00  0.35687492247E+03  0.35687492247E+03  0.00000000000E+00 0. -1.
         21   -1    0    0  502  503 -0.00000000000E+00 -0.00000000000E+00 -0.10044895900E+03  0.10044895900E+03  0.00000000000E+00 0. -1.
          6    1    1    2  501    0  0.26178907572E+02  0.67218900124E+02  0.16050653115E+03  0.24676924905E+03  0.17300000000E+03 0. -1.
         -6    1    1    2    0  503 -0.26178907572E+02 -0.67218900124E+02  0.95919432316E+02  0.21055463241E+03  0.17300000000E+03 0. -1.
<mgrwt>
<rscale>  2 0.18743723E+03</rscale>
<asrwt>0</asrwt>
<pdfrwt beam="1">  1       21 0.54903834E-01 0.18743723E+03</pdfrwt>
<pdfrwt beam="2">  1       21 0.15453686E-01 0.18743723E+03</pdfrwt>
<totfact> 0.11653930E+05</totfact>
</mgrwt>
</event>
<event>
 4    1  0.3973261E+000  0.1944596E+03  0.7546771E-02  0.1154499E+00
         21   -1    0    0  503  502  0.00000000000E+00  0.00000000000E+00  0.38803516730E+03  0.38803516730E+03  0.00000000000E+00 0.  1.
         21   -1    0    0  501  503 -0.00000000000E+00 -0.00000000000E+00 -0.10762958885E+03  0.10762958885E+03  0.00000000000E+00 0. -1.
          6    1    1    2  501    0 -0.78591995935E+02  0.41338154920E+02  0.63989824915E+02  0.20471747011E+03  0.17300000000E+03 0. -1.
         -6    1    1    2    0  502  0.78591995935E+02 -0.41338154920E+02  0.21641575353E+03  0.29094728604E+03  0.17300000000E+03 0.  1.
<mgrwt>
<rscale>  2 0.19445962E+03</rscale>
<asrwt>0</asrwt>
<pdfrwt beam="1">  1       21 0.59697717E-01 0.19445962E+03</pdfrwt>
<pdfrwt beam="2">  1       21 0.16558399E-01 0.19445962E+03</pdfrwt>
<totfact> 0.85707263E+04</totfact>
</mgrwt>
</event>
<event>
 4    1  0.3973261E+000  0.1865458E+03  0.7546771E-02  0.1161614E+00
         21   -1    0    0  501  502  0.00000000000E+00  0.00000000000E+00  0.28413031826E+03  0.28413031826E+03  0.00000000000E+00 0. -1.
         21   -1    0    0  502  503 -0.00000000000E+00 -0.00000000000E+00 -0.17267389710E+03  0.17267389710E+03  0.00000000000E+00 0. -1.
          6    1    1    2  501    0  0.31139501801E+02 -0.62455236373E+02  0.17887604508E+03  0.25844915288E+03  0.17300000000E+03 0. -1.
         -6    1    1    2    0  503 -0.31139501801E+02  0.62455236373E+02 -0.67419623921E+02  0.19835506248E+03  0.17300000000E+03 0. -1.
<mgrwt>
<rscale>  2 0.18654577E+03</rscale>
<asrwt>0</asrwt>
<pdfrwt beam="1">  1       21 0.43712357E-01 0.18654577E+03</pdfrwt>
<pdfrwt beam="2">  1       21 0.26565215E-01 0.18654577E+03</pdfrwt>
<totfact> 0.67988563E+04</totfact>
</mgrwt>
</event>
<event>
 4    1  0.3973261E+000  0.1847524E+03  0.7546771E-02  0.1163281E+00
         21   -1    0    0  503  502  0.00000000000E+00  0.00000000000E+00  0.28009224193E+03  0.28009224193E+03  0.00000000000E+00 0. -1.
         21   -1    0    0  501  503 -0.00000000000E+00 -0.00000000000E+00 -0.14881444749E+03  0.14881444749E+03  0.00000000000E+00 0.  1.
          6    1    1    2  501    0 -0.64434655880E+02 -0.72539169035E+01 -0.25622080848E+02  0.18652060266E+03  0.17300000000E+03 0.  1.
         -6    1    1    2    0  502  0.64434655880E+02  0.72539169035E+01  0.15689987529E+03  0.24238608676E+03  0.17300000000E+03 0. -1.
<mgrwt>
<rscale>  2 0.18475239E+03</rscale>
<asrwt>0</asrwt>
<pdfrwt beam="1">  1       21 0.43091114E-01 0.18475239E+03</pdfrwt>
<pdfrwt beam="2">  1       21 0.22894530E-01 0.18475239E+03</pdfrwt>
<totfact> 0.92994077E+04</totfact>
</mgrwt>
</event>
<event>
 4    1  0.3973261E+000  0.1888907E+03  0.7546771E-02  0.1159466E+00
         21   -1    0    0  501  502  0.00000000000E+00  0.00000000000E+00  0.35396738994E+02  0.35396738994E+02  0.00000000000E+00 0. -1.
         21   -1    0    0  502  503 -0.00000000000E+00 -0.00000000000E+00 -0.12264642930E+04  0.12264642930E+04  0.00000000000E+00 0.  1.
          6    1    1    2  501    0  0.16020208213E+02  0.74121820159E+02 -0.32924642827E+03  0.37958253625E+03  0.17300000000E+03 0. -1.
         -6    1    1    2    0  503 -0.16020208213E+02 -0.74121820159E+02 -0.86182112575E+03  0.88227849576E+03  0.17300000000E+03 0.  1.
<mgrwt>
<rscale>  2 0.18889069E+03</rscale>
<asrwt>0</asrwt>
<pdfrwt beam="1">  1       21 0.54456523E-02 0.18889069E+03</pdfrwt>
<pdfrwt beam="2">  1       21 0.18868681E+00 0.18889069E+03</pdfrwt>
<totfact> 0.37113121E+04</totfact>
</mgrwt>
</event>
<event>
 4    1  0.3973261E+000  0.1782852E+03  0.7546771E-02  0.1169473E+00
         21   -1    0    0  503  502  0.00000000000E+00  0.00000000000E+00  0.20728662651E+04  0.20728662651E+04  0.00000000000E+00 0.  1.
         21   -1    0    0  501  503 -0.00000000000E+00 -0.00000000000E+00 -0.56601353702E+02  0.56601353702E+02  0.00000000000E+00 0.  1.
          6    1    1    2  501    0  0.41823668636E+02 -0.10363303627E+02  0.98993599132E+02  0.20392486359E+03  0.17300000000E+03 0.  1.
         -6    1    1    2    0  502 -0.41823668636E+02  0.10363303627E+02  0.19172713123E+04  0.19255427552E+04  0.17300000000E+03 0.  1.
<mgrwt>
<rscale>  2 0.17828521E+03</rscale>
<asrwt>0</asrwt>
<pdfrwt beam="1">  1       21 0.31890244E+00 0.17828521E+03</pdfrwt>
<pdfrwt beam="2">  1       21 0.87079022E-02 0.17828521E+03</pdfrwt>
<totfact> 0.28014765E+03</totfact>
</mgrwt>
</event>
<event>
 4    1  0.3973261E+000  0.1847290E+03  0.7546771E-02  0.1163303E+00
         21   -1    0    0  503  502  0.00000000000E+00  0.00000000000E+00  0.49613482645E+03  0.49613482645E+03  0.00000000000E+00 0.  1.
         21   -1    0    0  501  503 -0.00000000000E+00 -0.00000000000E+00 -0.75349823668E+02  0.75349823668E+02  0.00000000000E+00 0.  1.
          6    1    1    2  501    0  0.21949690068E+01 -0.64737869340E+02  0.12602667067E+03  0.22362363770E+03  0.17300000000E+03 0. -1.
         -6    1    1    2    0  502 -0.21949690068E+01  0.64737869340E+02  0.29475833211E+03  0.34786101242E+03  0.17300000000E+03 0. -1.
<mgrwt>
<rscale>  2 0.18472902E+03</rscale>
<asrwt>0</asrwt>
<pdfrwt beam="1">  1       21 0.76328433E-01 0.18472902E+03</pdfrwt>
<pdfrwt beam="2">  1       21 0.11592281E-01 0.18472902E+03</pdfrwt>
<totfact> 0.95722417E+04</totfact>
</mgrwt>
</event>
<event>
 4    1  0.3973261E+000  0.2503593E+03  0.7546771E-02  0.1113078E+00
         21   -1    0    0  501  502  0.00000000000E+00  0.00000000000E+00  0.78530337929E+03  0.78530337929E+03  0.00000000000E+00 0. -1.
         21   -1    0    0  502  503 -0.00000000000E+00 -0.00000000000E+00 -0.18959228276E+03  0.18959228276E+03  0.00000000000E+00 0. -1.
          6    1    1    2  501    0  0.84600481246E+02  0.15997985985E+03  0.66876851678E+03  0.71409461980E+03  0.17300000000E+03 0. -1.
         -6    1    1    2    0  503 -0.84600481246E+02 -0.15997985985E+03 -0.73057420246E+02  0.26080104225E+03  0.17300000000E+03 0. -1.
<mgrwt>
<rscale>  2 0.25035934E+03</rscale>
<asrwt>0</asrwt>
<pdfrwt beam="1">  1       21 0.12081590E+00 0.25035934E+03</pdfrwt>
<pdfrwt beam="2">  1       21 0.29168044E-01 0.25035934E+03</pdfrwt>
<totfact> 0.56088020E+03</totfact>
</mgrwt>
</event>
<event>
 4    1  0.3973261E+000  0.2347344E+03  0.7546771E-02  0.1123351E+00
         21   -1    0    0  501  502  0.00000000000E+00  0.00000000000E+00  0.94799994053E+03  0.94799994053E+03  0.00000000000E+00 0.  1.
         21   -1    0    0  502  503 -0.00000000000E+00 -0.00000000000E+00 -0.78488704721E+02  0.78488704721E+02  0.00000000000E+00 0.  1.
          6    1    1    2  501    0  0.14983759775E+03  0.52152898901E+02  0.69619707515E+03  0.73470442901E+03  0.17300000000E+03 0.  1.
         -6    1    1    2    0  503 -0.14983759775E+03 -0.52152898901E+02  0.17331416066E+03  0.29178421625E+03  0.17300000000E+03 0.  1.
<mgrwt>
<rscale>  2 0.23473438E+03</rscale>
<asrwt>0</asrwt>
<pdfrwt beam="1">  1       21 0.14584614E+00 0.23473438E+03</pdfrwt>
<pdfrwt beam="2">  1       21 0.12075186E-01 0.23473438E+03</pdfrwt>
<totfact> 0.18175576E+04</totfact>
</mgrwt>
</event>
<event>
 4    1  0.3973261E+000  0.3245941E+03  0.7546771E-02  0.1073554E+00
         21   -1    0    0  501  502  0.00000000000E+00  0.00000000000E+00  0.12323747729E+04  0.12323747729E+04  0.00000000000E+00 0. -1.
         21   -1    0    0  502  503 -0.00000000000E+00 -0.00000000000E+00 -0.22714077470E+03  0.22714077470E+03  0.00000000000E+00 0.  1.
          6    1    1    2  501    0 -0.22645579157E+03 -0.15540306328E+03  0.10788971575E+04  0.11266678366E+04  0.17300000000E+03 0. -1.
         -6    1    1    2    0  503  0.22645579157E+03  0.15540306328E+03 -0.73663159373E+02  0.33284771092E+03  0.17300000000E+03 0.  1.
<mgrwt>
<rscale>  2 0.32459411E+03</rscale>
<asrwt>0</asrwt>
<pdfrwt beam="1">  1       21 0.18959612E+00 0.32459411E+03</pdfrwt>
<pdfrwt beam="2">  1       21 0.34944735E-01 0.32459411E+03</pdfrwt>
<totfact> 0.11094421E+03</totfact>
</mgrwt>
</event>
<event>
 4    1  0.3973261E+000  0.2528571E+03  0.7546771E-02  0.1111512E+00
         21   -1    0    0  503  502  0.00000000000E+00  0.00000000000E+00  0.52697681441E+02  0.52697681441E+02  0.00000000000E+00 0.  1.
         21   -1    0    0  501  503 -0.00000000000E+00 -0.00000000000E+00 -0.12318832199E+04  0.12318832199E+04  0.00000000000E+00 0. -1.
          6    1    1    2  501    0  0.16050531770E+03 -0.90806040461E+02 -0.66853657027E+03  0.71475718939E+03  0.17300000000E+03 0. -1.
         -6    1    1    2    0  502 -0.16050531770E+03  0.90806040461E+02 -0.51064896821E+03  0.56982371197E+03  0.17300000000E+03 0.  1.
<mgrwt>
<rscale>  2 0.25285706E+03</rscale>
<asrwt>0</asrwt>
<pdfrwt beam="1">  1       21 0.81073358E-02 0.25285706E+03</pdfrwt>
<pdfrwt beam="2">  1       21 0.18952049E+00 0.25285706E+03</pdfrwt>
<totfact> 0.17685670E+04</totfact>
</mgrwt>
</event>
<event>
 4    1  0.3973261E+000  0.2002751E+03  0.7546771E-02  0.1149507E+00
         21   -1    0    0  501  502  0.00000000000E+00  0.00000000000E+00  0.26572984995E+03  0.26572984995E+03  0.00000000000E+00 0. -1.
         21   -1    0    0  502  503 -0.00000000000E+00 -0.00000000000E+00 -0.16643227064E+03  0.16643227064E+03  0.00000000000E+00 0. -1.
          6    1    1    2  501    0 -0.43780639694E+02  0.90908682955E+02  0.11556763665E+03  0.23122718631E+03  0.17300000000E+03 0. -1.
         -6    1    1    2    0  503  0.43780639694E+02 -0.90908682955E+02 -0.16270057335E+02  0.20093493428E+03  0.17300000000E+03 0. -1.
<mgrwt>
<rscale>  2 0.20027514E+03</rscale>
<asrwt>0</asrwt>
<pdfrwt beam="1">  1       21 0.40881515E-01 0.20027514E+03</pdfrwt>
<pdfrwt beam="2">  1       21 0.25604965E-01 0.20027514E+03</pdfrwt>
<totfact> 0.83129436E+04</totfact>
</mgrwt>
</event>
<event>
 4    1  0.3973261E+000  0.2500741E+03  0.7546771E-02  0.1113258E+00
         21   -1    0    0  503  502  0.00000000000E+00  0.00000000000E+00  0.21346266808E+03  0.21346266808E+03  0.00000000000E+00 0.  1.
         21   -1    0    0  501  503 -0.00000000000E+00 -0.00000000000E+00 -0.33168801572E+03  0.33168801572E+03  0.00000000000E+00 0.  1.
          6    1    1    2  501    0 -0.59260703880E+02  0.17057610258E+03 -0.15224654338E+03  0.29277303115E+03  0.17300000000E+03 0.  1.
         -6    1    1    2    0  502  0.59260703880E+02 -0.17057610258E+03  0.34021195741E+02  0.25237765265E+03  0.17300000000E+03 0.  1.
<mgrwt>
<rscale>  2 0.25007406E+03</rscale>
<asrwt>0</asrwt>
<pdfrwt beam="1">  1       21 0.32840411E-01 0.25007406E+03</pdfrwt>
<pdfrwt beam="2">  1       21 0.51028925E-01 0.25007406E+03</pdfrwt>
<totfact> 0.31680869E+04</totfact>
</mgrwt>
</event>
<event>
 4    1  0.3973261E+000  0.1886700E+03  0.7546771E-02  0.1159666E+00
         21   -1    0    0  503  502  0.00000000000E+00  0.00000000000E+00  0.62873396400E+03  0.62873396400E+03  0.00000000000E+00 0. -1.
         21   -1    0    0  501  503 -0.00000000000E+00 -0.00000000000E+00 -0.56929919361E+02  0.56929919361E+02  0.00000000000E+00 0. -1.
          6    1    1    2  501    0  0.65819341469E+02 -0.36540061792E+02  0.26044167319E+03  0.32159948222E+03  0.17300000000E+03 0.  1.
         -6    1    1    2    0  502 -0.65819341469E+02  0.36540061792E+02  0.31136237145E+03  0.36406440114E+03  0.17300000000E+03 0.  1.
<mgrwt>
<rscale>  2 0.18866998E+03</rscale>
<asrwt>0</asrwt>
<pdfrwt beam="1">  1       21 0.96728297E-01 0.18866998E+03</pdfrwt>
<pdfrwt beam="2">  1       21 0.87584496E-02 0.18866998E+03</pdfrwt>
<totfact> 0.91128954E+04</totfact>
</mgrwt>
</event>
<event>
 4    1  0.3973261E+000  0.2177900E+03  0.7546771E-02  0.1135542E+00
         21   -1    0    0  503  502  0.00000000000E+00  0.00000000000E+00  0.24903973277E+03  0.24903973277E+03  0.00000000000E+00 0. -1.
         21   -1    0    0  501  503 -0.00000000000E+00 -0.00000000000E+00 -0.27372911660E+03  0.27372911660E+03  0.00000000000E+00 0. -1.
          6    1    1    2  501    0 -0.22961934583E+02  0.13029281943E+03 -0.15650888260E+03  0.26819302669E+03  0.17300000000E+03 0. -1.
         -6    1    1    2    0  502  0.22961934583E+02 -0.13029281943E+03  0.13181949877E+03  0.25457582267E+03  0.17300000000E+03 0. -1.
<mgrwt>
<rscale>  2 0.21778997E+03</rscale>
<asrwt>0</asrwt>
<pdfrwt beam="1">  1       21 0.38313805E-01 0.21778997E+03</pdfrwt>
<pdfrwt beam="2">  1       21 0.42112172E-01 0.21778997E+03</pdfrwt>
<totfact> 0.35189337E+04</totfact>
</mgrwt>
</event>
<event>
 4    1  0.3973261E+000  0.2255512E+03  0.7546771E-02  0.1129811E+00
         21   -1    0    0  501  502  0.00000000000E+00  0.00000000000E+00  0.11902103240E+03  0.11902103240E+03  0.00000000000E+00 0. -1.
         21   -1    0    0  502  503 -0.00000000000E+00 -0.00000000000E+00 -0.43067751878E+03  0.43067751878E+03  0.00000000000E+00 0. -1.
          6    1    1    2  501    0  0.12373934321E+03 -0.75052893085E+02 -0.13196767104E+03  0.26132131183E+03  0.17300000000E+03 0. -1.
         -6    1    1    2    0  503 -0.12373934321E+03  0.75052893085E+02 -0.17968881534E+03  0.28837723935E+03  0.17300000000E+03 0. -1.
<mgrwt>
<rscale>  2 0.22555124E+03</rscale>
<asrwt>0</asrwt>
<pdfrwt beam="1">  1       21 0.18310928E-01 0.22555124E+03</pdfrwt>
<pdfrwt beam="2">  1       21 0.66258080E-01 0.22555124E+03</pdfrwt>
<totfact> 0.56000209E+04</totfact>
</mgrwt>
</event>
<event>
 4    1  0.3973261E+000  0.1831991E+03  0.7546771E-02  0.1164742E+00
         21   -1    0    0  503  502  0.00000000000E+00  0.00000000000E+00  0.83494833120E+02  0.83494833120E+02  0.00000000000E+00 0.  1.
         21   -1    0    0  501  503 -0.00000000000E+00 -0.00000000000E+00 -0.40889461033E+03  0.40889461033E+03  0.00000000000E+00 0.  1.
          6    1    1    2  501    0 -0.59975709600E+02 -0.59862373495E+01 -0.13064772102E+03  0.22501277250E+03  0.17300000000E+03 0. -1.
         -6    1    1    2    0  502  0.59975709600E+02  0.59862373495E+01 -0.19475205620E+03  0.26737667096E+03  0.17300000000E+03 0. -1.
<mgrwt>
<rscale>  2 0.18319913E+03</rscale>
<asrwt>0</asrwt>
<pdfrwt beam="1">  1       21 0.12845359E-01 0.18319913E+03</pdfrwt>
<pdfrwt beam="2">  1       21 0.62906865E-01 0.18319913E+03</pdfrwt>
<totfact> 0.12194201E+05</totfact>
</mgrwt>
</event>
<event>
 4    1  0.3973261E+000  0.2117004E+03  0.7546771E-02  0.1140227E+00
         21   -1    0    0  503  502  0.00000000000E+00  0.00000000000E+00  0.68307319322E+03  0.68307319322E+03  0.00000000000E+00 0. -1.
         21   -1    0    0  501  503 -0.00000000000E+00 -0.00000000000E+00 -0.11927946534E+03  0.11927946534E+03  0.00000000000E+00 0.  1.
          6    1    1    2  501    0  0.83217121870E+02 -0.89235369674E+02  0.12797612738E+02  0.21208682058E+03  0.17300000000E+03 0.  1.
         -6    1    1    2    0  502 -0.83217121870E+02  0.89235369674E+02  0.55099611514E+03  0.59026583797E+03  0.17300000000E+03 0. -1.
<mgrwt>
<rscale>  2 0.21170036E+03</rscale>
<asrwt>0</asrwt>
<pdfrwt beam="1">  1       21 0.10508818E+00 0.21170036E+03</pdfrwt>
<pdfrwt beam="2">  1       21 0.18350687E-01 0.21170036E+03</pdfrwt>
<totfact> 0.19521510E+04</totfact>
</mgrwt>
</event>
<event>
 4    1  0.3973261E+000  0.2045958E+03  0.7546771E-02  0.1145918E+00
         21   -1    0    0  503  502  0.00000000000E+00  0.00000000000E+00  0.12364355845E+03  0.12364355845E+03  0.00000000000E+00 0. -1.
         21   -1    0    0  501  503 -0.00000000000E+00 -0.00000000000E+00 -0.38751474679E+03  0.38751474679E+03  0.00000000000E+00 0.  1.
          6    1    1    2  501    0 -0.84058971306E+01 -0.10890258425E+03 -0.22278591466E+03  0.30247809133E+03  0.17300000000E+03 0.  1.
         -6    1    1    2    0  502  0.84058971306E+01  0.10890258425E+03 -0.41085273677E+02  0.20868021391E+03  0.17300000000E+03 0. -1.
<mgrwt>
<rscale>  2 0.20459578E+03</rscale>
<asrwt>0</asrwt>
<pdfrwt beam="1">  1       21 0.19022086E-01 0.20459578E+03</pdfrwt>
<pdfrwt beam="2">  1       21 0.59617653E-01 0.20459578E+03</pdfrwt>
<totfact> 0.66215026E+04</totfact>
</mgrwt>
</event>
<event>
 4    1  0.3973261E+000  0.1916799E+03  0.7546771E-02  0.1156955E+00
         21   -1    0    0  501  502  0.00000000000E+00  0.00000000000E+00  0.13359622139E+04  0.13359622139E+04  0.00000000000E+00 0. -1.
         21   -1    0    0  502  503 -0.00000000000E+00 -0.00000000000E+00 -0.30960065642E+02  0.30960065642E+02  0.00000000000E+00 0. -1.
          6    1    1    2  501    0 -0.82367450181E+02  0.52709291236E+01  0.88092984889E+03  0.90154233301E+03  0.17300000000E+03 0. -1.
         -6    1    1    2    0  503  0.82367450181E+02 -0.52709291236E+01  0.42407229937E+03  0.46537994653E+03  0.17300000000E+03 0. -1.
<mgrwt>
<rscale>  2 0.19167989E+03</rscale>
<asrwt>0</asrwt>
<pdfrwt beam="1">  1       21 0.20553260E+00 0.19167989E+03</pdfrwt>
<pdfrwt beam="2">  1       21 0.47630880E-02 0.19167989E+03</pdfrwt>
<totfact> 0.36179069E+04</totfact>
</mgrwt>
</event>
<event>
 4    1  0.3973261E+000  0.2104244E+03  0.7546771E-02  0.1141230E+00
         21   -1    0    0  501  502  0.00000000000E+00  0.00000000000E+00  0.40664312119E+03  0.40664312119E+03  0.00000000000E+00 0. -1.
         21   -1    0    0  502  503 -0.00000000000E+00 -0.00000000000E+00 -0.15403680516E+03  0.15403680516E+03  0.00000000000E+00 0. -1.
          6    1    1    2  501    0 -0.94126771904E+02 -0.74091757330E+02  0.27807712752E+03  0.34871955286E+03  0.17300000000E+03 0. -1.
         -6    1    1    2    0  503  0.94126771904E+02  0.74091757330E+02 -0.25470811502E+02  0.21196037349E+03  0.17300000000E+03 0. -1.
<mgrwt>
<rscale>  2 0.21042442E+03</rscale>
<asrwt>0</asrwt>
<pdfrwt beam="1">  1       21 0.62560480E-01 0.21042442E+03</pdfrwt>
<pdfrwt beam="2">  1       21 0.23697970E-01 0.21042442E+03</pdfrwt>
<totfact> 0.39351753E+04</totfact>
</mgrwt>
</event>
<event>
 4    1  0.3973261E+000  0.2613431E+03  0.7546771E-02  0.1106339E+00
         21   -1    0    0  503  502  0.00000000000E+00  0.00000000000E+00  0.34454651111E+03  0.34454651111E+03  0.00000000000E+00 0.  1.
         21   -1    0    0  501  503 -0.00000000000E+00 -0.00000000000E+00 -0.23461261204E+03  0.23461261204E+03  0.00000000000E+00 0. -1.
          6    1    1    2  501    0  0.13086110709E+03 -0.14576207397E+03 -0.59064871263E+02  0.26793445201E+03  0.17300000000E+03 0.  1.
         -6    1    1    2    0  502 -0.13086110709E+03  0.14576207397E+03  0.16899877033E+03  0.31122467115E+03  0.17300000000E+03 0.  1.
<mgrwt>
<rscale>  2 0.26134309E+03</rscale>
<asrwt>0</asrwt>
<pdfrwt beam="1">  1       21 0.53007155E-01 0.26134309E+03</pdfrwt>
<pdfrwt beam="2">  1       21 0.36094248E-01 0.26134309E+03</pdfrwt>
<totfact> 0.24094834E+04</totfact>
</mgrwt>
</event>
<event>
 4    1  0.3973261E+000  0.1927251E+03  0.7546771E-02  0.1156026E+00
         21   -1    0    0  503  502  0.00000000000E+00  0.00000000000E+00  0.54534482631E+03  0.54534482631E+03  0.00000000000E+00 0. -1.
         21   -1    0    0  501  503 -0.00000000000E+00 -0.00000000000E+00 -0.69818764057E+02  0.69818764057E+02  0.00000000000E+00 0. -1.
          6    1    1    2  501    0 -0.75508789072E+02  0.38889324442E+02  0.18963176706E+03  0.27037596761E+03  0.17300000000E+03 0. -1.
         -6    1    1    2    0  502  0.75508789072E+02 -0.38889324442E+02  0.28589429519E+03  0.34478762275E+03  0.17300000000E+03 0. -1.
<mgrwt>
<rscale>  2 0.19272508E+03</rscale>
<asrwt>0</asrwt>
<pdfrwt beam="1">  1       21 0.83899201E-01 0.19272508E+03</pdfrwt>
<pdfrwt beam="2">  1       21 0.10741349E-01 0.19272508E+03</pdfrwt>
<totfact> 0.88258484E+04</totfact>
</mgrwt>
</event>
<event>
 4    1  0.3973261E+000  0.1945216E+03  0.7546771E-02  0.1154445E+00
         21   -1    0    0  501  502  0.00000000000E+00  0.00000000000E+00  0.27418983224E+03  0.27418983224E+03  0.00000000000E+00 0. -1.
         21   -1    0    0  502  503 -0.00000000000E+00 -0.00000000000E+00 -0.28835402017E+03  0.28835402017E+03  0.00000000000E+00 0. -1.
          6    1    1    2  501    0  0.59487775982E+02 -0.66112555366E+02  0.19602188705E+03  0.27615800852E+03  0.17300000000E+03 0. -1.
         -6    1    1    2    0  503 -0.59487775982E+02  0.66112555366E+02 -0.21018607498E+03  0.28638584389E+03  0.17300000000E+03 0. -1.
<mgrwt>
<rscale>  2 0.19452163E+03</rscale>
<asrwt>0</asrwt>
<pdfrwt beam="1">  1       21 0.42183051E-01 0.19452163E+03</pdfrwt>
<pdfrwt beam="2">  1       21 0.44362157E-01 0.19452163E+03</pdfrwt>
<totfact> 0.26362466E+04</totfact>
</mgrwt>
</event>
<event>
 4    1  0.3973261E+000  0.2000250E+03  0.7546771E-02  0.1149718E+00
         21   -1    0    0  503  502  0.00000000000E+00  0.00000000000E+00  0.63790398252E+02  0.63790398252E+02  0.00000000000E+00 0. -1.
         21   -1    0    0  501  503 -0.00000000000E+00 -0.00000000000E+00 -0.71469020888E+03  0.71469020888E+03  0.00000000000E+00 0.  1.
          6    1    1    2  501    0 -0.82672053625E+02 -0.56976460956E+02 -0.46162992987E+03  0.50310255188E+03  0.17300000000E+03 0.  1.
         -6    1    1    2    0  502  0.82672053625E+02  0.56976460956E+02 -0.18926988076E+03  0.27537805525E+03  0.17300000000E+03 0. -1.
<mgrwt>
<rscale>  2 0.20002496E+03</rscale>
<asrwt>0</asrwt>
<pdfrwt beam="1">  1       21 0.98139077E-02 0.20002496E+03</pdfrwt>
<pdfrwt beam="2">  1       21 0.10995234E+00 0.20002496E+03</pdfrwt>
<totfact> 0.54633944E+04</totfact>
</mgrwt>
</event>
<event>
 4    1  0.3973261E+000  0.2984864E+03  0.7546771E-02  0.1086000E+00
         21   -1    0    0  503  502  0.00000000000E+00  0.00000000000E+00  0.33325287202E+03  0.33325287202E+03  0.00000000000E+00 0.  1.
         21   -1    0    0  501  503 -0.00000000000E+00 -0.00000000000E+00 -0.53760863704E+03  0.53760863704E+03  0.00000000000E+00 0. -1.
          6    1    1    2  501    0 -0.15518652024E+03 -0.18730266765E+03 -0.41090743793E+03  0.50787702047E+03  0.17300000000E+03 0. -1.
         -6    1    1    2    0  502  0.15518652024E+03  0.18730266765E+03  0.20655167292E+03  0.36298448859E+03  0.17300000000E+03 0.  1.
<mgrwt>
<rscale>  2 0.29848642E+03</rscale>
<asrwt>0</asrwt>
<pdfrwt beam="1">  1       21 0.51269674E-01 0.29848642E+03</pdfrwt>
<pdfrwt beam="2">  1       21 0.82709019E-01 0.29848642E+03</pdfrwt>
<totfact> 0.43036710E+03</totfact>
</mgrwt>
</event>
<event>
 4    1  0.3973261E+000  0.2074497E+03  0.7546771E-02  0.1143602E+00
         21   -1    0    0  503  502  0.00000000000E+00  0.00000000000E+00  0.42612834397E+03  0.42612834397E+03  0.00000000000E+00 0. -1.
         21   -1    0    0  501  503 -0.00000000000E+00 -0.00000000000E+00 -0.12122843769E+03  0.12122843769E+03  0.00000000000E+00 0. -1.
          6    1    1    2  501    0  0.11263343887E+03 -0.20496281845E+02  0.40632542723E+02  0.21139156239E+03  0.17300000000E+03 0. -1.
         -6    1    1    2    0  502 -0.11263343887E+03  0.20496281845E+02  0.26426736355E+03  0.33596521927E+03  0.17300000000E+03 0. -1.
<mgrwt>
<rscale>  2 0.20744973E+03</rscale>
<asrwt>0</asrwt>
<pdfrwt beam="1">  1       21 0.65558206E-01 0.20744973E+03</pdfrwt>
<pdfrwt beam="2">  1       21 0.18650529E-01 0.20744973E+03</pdfrwt>
<totfact> 0.55844126E+04</totfact>
</mgrwt>
</event>
<event>
 4    1  0.3973261E+000  0.1745433E+03  0.7546771E-02  0.1173191E+00
         21   -1    0    0  503  502  0.00000000000E+00  0.00000000000E+00  0.24614990384E+03  0.24614990384E+03  0.00000000000E+00 0. -1.
         21   -1    0    0  501  503 -0.00000000000E+00 -0.00000000000E+00 -0.13180694851E+03  0.13180694851E+03  0.00000000000E+00 0. -1.
          6    1    1    2  501    0 -0.81310048922E+01 -0.21685350864E+02  0.10499611539E+02  0.17485882742E+03  0.17300000000E+03 0. -1.
         -6    1    1    2    0  502  0.81310048922E+01  0.21685350864E+02  0.10384334379E+03  0.20309802494E+03  0.17300000000E+03 0. -1.
<mgrwt>
<rscale>  2 0.17454331E+03</rscale>
<asrwt>0</asrwt>
<pdfrwt beam="1">  1       21 0.37869216E-01 0.17454331E+03</pdfrwt>
<pdfrwt beam="2">  1       21 0.20277992E-01 0.17454331E+03</pdfrwt>
<totfact> 0.15216586E+05</totfact>
</mgrwt>
</event>
<event>
 4    1  0.3973261E+000  0.3685529E+03  0.7546771E-02  0.1055248E+00
         21   -1    0    0  503  502  0.00000000000E+00  0.00000000000E+00  0.65258813723E+03  0.65258813723E+03  0.00000000000E+00 0.  1.
         21   -1    0    0  501  503 -0.00000000000E+00 -0.00000000000E+00 -0.21526217808E+03  0.21526217808E+03  0.00000000000E+00 0. -1.
          6    1    1    2  501    0 -0.31834290352E+03 -0.67528232881E+02  0.29757877581E+03  0.47369229914E+03  0.17300000000E+03 0.  1.
         -6    1    1    2    0  502  0.31834290352E+03  0.67528232881E+02  0.13974718334E+03  0.39415801616E+03  0.17300000000E+03 0. -1.
<mgrwt>
<rscale>  2 0.36855294E+03</rscale>
<asrwt>0</asrwt>
<pdfrwt beam="1">  1       21 0.10039817E+00 0.36855294E+03</pdfrwt>
<pdfrwt beam="2">  1       21 0.33117259E-01 0.36855294E+03</pdfrwt>
<totfact> 0.64836365E+03</totfact>
</mgrwt>
</event>
<event>
 4    1  0.3973261E+000  0.1748087E+03  0.7546771E-02  0.1172924E+00
         21   -1    0    0  501  502  0.00000000000E+00  0.00000000000E+00  0.24976743960E+03  0.24976743960E+03  0.00000000000E+00 0.  1.
         21   -1    0    0  502  503 -0.00000000000E+00 -0.00000000000E+00 -0.91777737399E+03  0.91777737399E+03  0.00000000000E+00 0.  1.
          6    1    1    2  501    0 -0.13878733476E+02  0.20891811810E+02  0.20946581997E+03  0.27282598259E+03  0.17300000000E+03 0.  1.
         -6    1    1    2    0  503  0.13878733476E+02 -0.20891811810E+02 -0.87747575436E+03  0.89471883099E+03  0.17300000000E+03 0.  1.
<mgrwt>
<rscale>  2 0.17480872E+03</rscale>
<asrwt>0</asrwt>
<pdfrwt beam="1">  1       21 0.38425759E-01 0.17480872E+03</pdfrwt>
<pdfrwt beam="2">  1       21 0.14119652E+00 0.17480872E+03</pdfrwt>
<totfact> 0.23256827E+03</totfact>
</mgrwt>
</event>
<event>
 4    1  0.3973261E+000  0.2416825E+03  0.7546771E-02  0.1118677E+00
         21   -1    0    0  503  502  0.00000000000E+00  0.00000000000E+00  0.81712738310E+03  0.81712738310E+03  0.00000000000E+00 0.  1.
         21   -1    0    0  501  503 -0.00000000000E+00 -0.00000000000E+00 -0.15067667134E+03  0.15067667134E+03  0.00000000000E+00 0. -1.
          6    1    1    2  501    0 -0.28686270582E+01 -0.16874007549E+03 -0.17591613748E+02  0.24232190775E+03  0.17300000000E+03 0. -1.
         -6    1    1    2    0  502  0.28686270582E+01  0.16874007549E+03  0.68404232550E+03  0.72548214670E+03  0.17300000000E+03 0.  1.
<mgrwt>
<rscale>  2 0.24168252E+03</rscale>
<asrwt>0</asrwt>
<pdfrwt beam="1">  1       21 0.12571190E+00 0.24168252E+03</pdfrwt>
<pdfrwt beam="2">  1       21 0.23181027E-01 0.24168252E+03</pdfrwt>
<totfact> 0.79482501E+03</totfact>
</mgrwt>
</event>
<event>
 4    1  0.3973261E+000  0.1946626E+03  0.7546771E-02  0.1154322E+00
         21   -1    0    0  501  502  0.00000000000E+00  0.00000000000E+00  0.67793049212E+03  0.67793049212E+03  0.00000000000E+00 0. -1.
         21   -1    0    0  502  503 -0.00000000000E+00 -0.00000000000E+00 -0.66081478498E+02  0.66081478498E+02  0.00000000000E+00 0.  1.
          6    1    1    2  501    0 -0.24332392500E+02 -0.85863059304E+02  0.45197500751E+03  0.49211272864E+03  0.17300000000E+03 0. -1.
         -6    1    1    2    0  503  0.24332392500E+02  0.85863059304E+02  0.15987400611E+03  0.25189924198E+03  0.17300000000E+03 0.  1.
<mgrwt>
<rscale>  2 0.19466261E+03</rscale>
<asrwt>0</asrwt>
<pdfrwt beam="1">  1       21 0.10429699E+00 0.19466261E+03</pdfrwt>
<pdfrwt beam="2">  1       21 0.10166382E-01 0.19466261E+03</pdfrwt>
<totfact> 0.58460875E+04</totfact>
</mgrwt>
</event>
<event>
 4    1  0.3973261E+000  0.1933399E+03  0.7546771E-02  0.1155483E+00
         21   -1    0    0  503  502  0.00000000000E+00  0.00000000000E+00  0.25362140761E+03  0.25362140761E+03  0.00000000000E+00 0. -1.
         21   -1    0    0  501  503 -0.00000000000E+00 -0.00000000000E+00 -0.30107894441E+03  0.30107894441E+03  0.00000000000E+00 0. -1.
          6    1    1    2  501    0 -0.83840059582E+02 -0.20546945535E+02 -0.22188819179E+03  0.29430375842E+03  0.17300000000E+03 0. -1.
         -6    1    1    2    0  502  0.83840059582E+02  0.20546945535E+02  0.17443065499E+03  0.26039659361E+03  0.17300000000E+03 0. -1.
<mgrwt>
<rscale>  2 0.19333994E+03</rscale>
<asrwt>0</asrwt>
<pdfrwt beam="1">  1       21 0.39018678E-01 0.19333994E+03</pdfrwt>
<pdfrwt beam="2">  1       21 0.46319838E-01 0.19333994E+03</pdfrwt>
<totfact> 0.28267667E+04</totfact>
</mgrwt>
</event>
<event>
 4    1  0.3973261E+000  0.1758286E+03  0.7546771E-02  0.1171902E+00
         21   -1    0    0  501  502  0.00000000000E+00  0.00000000000E+00  0.40105322041E+03  0.40105322041E+03  0.00000000000E+00 0.  1.
         21   -1    0    0  502  503 -0.00000000000E+00 -0.00000000000E+00 -0.82911028740E+02  0.82911028740E+02  0.00000000000E+00 0.  1.
          6    1    1    2  501    0 -0.15626907632E+02 -0.27248814472E+02  0.22320918007E+03  0.28414439322E+03  0.17300000000E+03 0.  1.
         -6    1    1    2    0  503  0.15626907632E+02  0.27248814472E+02  0.94933011603E+02  0.19981985593E+03  0.17300000000E+03 0.  1.
<mgrwt>
<rscale>  2 0.17582860E+03</rscale>
<asrwt>0</asrwt>
<pdfrwt beam="1">  1       21 0.61700494E-01 0.17582860E+03</pdfrwt>
<pdfrwt beam="2">  1       21 0.12755543E-01 0.17582860E+03</pdfrwt>
<totfact> 0.12909689E+05</totfact>
</mgrwt>
</event>
<event>
 4    1  0.3973261E+000  0.1747385E+03  0.7546771E-02  0.1172995E+00
         21   -1    0    0  501  502  0.00000000000E+00  0.00000000000E+00  0.80008804778E+02  0.80008804778E+02  0.00000000000E+00 0.  1.
         21   -1    0    0  502  503 -0.00000000000E+00 -0.00000000000E+00 -0.87332408240E+03  0.87332408240E+03  0.00000000000E+00 0.  1.
          6    1    1    2  501    0 -0.23959745999E+02 -0.55209407416E+01 -0.38993406749E+02  0.17903640966E+03  0.17300000000E+03 0.  1.
         -6    1    1    2    0  503  0.23959745999E+02  0.55209407416E+01 -0.75432187087E+03  0.77429647751E+03  0.17300000000E+03 0.  1.
<mgrwt>
<rscale>  2 0.17473852E+03</rscale>
<asrwt>0</asrwt>
<pdfrwt beam="1">  1       21 0.12309047E-01 0.17473852E+03</pdfrwt>
<pdfrwt beam="2">  1       21 0.13435755E+00 0.17473852E+03</pdfrwt>
<totfact> 0.22555107E+04</totfact>
</mgrwt>
</event>
<event>
 4    1  0.3973261E+000  0.2001158E+03  0.7546771E-02  0.1149641E+00
         21   -1    0    0  501  502  0.00000000000E+00  0.00000000000E+00  0.84369130797E+02  0.84369130797E+02  0.00000000000E+00 0.  1.
         21   -1    0    0  502  503 -0.00000000000E+00 -0.00000000000E+00 -0.56849095701E+03  0.56849095701E+03  0.00000000000E+00 0.  1.
          6    1    1    2  501    0  0.42379680561E+02 -0.91221246404E+02 -0.10944073594E+03  0.22808688652E+03  0.17300000000E+03 0.  1.
         -6    1    1    2    0  503 -0.42379680561E+02  0.91221246404E+02 -0.37468109027E+03  0.42477320128E+03  0.17300000000E+03 0.  1.
<mgrwt>
<rscale>  2 0.20011585E+03</rscale>
<asrwt>0</asrwt>
<pdfrwt beam="1">  1       21 0.12979866E-01 0.20011585E+03</pdfrwt>
<pdfrwt beam="2">  1       21 0.87460151E-01 0.20011585E+03</pdfrwt>
<totfact> 0.57000015E+04</totfact>
</mgrwt>
</event>
<event>
 4    1  0.3973261E+000  0.1903547E+03  0.7546771E-02  0.1158142E+00
         21   -1    0    0  503  502  0.00000000000E+00  0.00000000000E+00  0.13839439255E+03  0.13839439255E+03  0.00000000000E+00 0. -1.
         21   -1    0    0  501  503 -0.00000000000E+00 -0.00000000000E+00 -0.38873048976E+03  0.38873048976E+03  0.00000000000E+00 0. -1.
          6    1    1    2  501    0  0.37330812362E+02  0.70087872965E+02 -0.27576009978E+03  0.33507988916E+03  0.17300000000E+03 0. -1.
         -6    1    1    2    0  502 -0.37330812362E+02 -0.70087872965E+02  0.25424002573E+02  0.19204499315E+03  0.17300000000E+03 0. -1.
<mgrwt>
<rscale>  2 0.19035467E+03</rscale>
<asrwt>0</asrwt>
<pdfrwt beam="1">  1       21 0.21291445E-01 0.19035467E+03</pdfrwt>
<pdfrwt beam="2">  1       21 0.59804690E-01 0.19035467E+03</pdfrwt>
<totfact> 0.53628886E+04</totfact>
</mgrwt>
</event>
<event>
 4    1  0.3973261E+000  0.2301084E+03  0.7546771E-02  0.1126563E+00
         21   -1    0    0  503  502  0.00000000000E+00  0.00000000000E+00  0.17389144432E+03  0.17389144432E+03  0.00000000000E+00 0. -1.
         21   -1    0    0  501  503 -0.00000000000E+00 -0.00000000000E+00 -0.40484892594E+03  0.40484892594E+03  0.00000000000E+00 0.  1.
          6    1    1    2  501    0  0.66418056678E+02 -0.13641669084E+03 -0.25954575622E+03  0.34686289995E+03  0.17300000000E+03 0.  1.
         -6    1    1    2    0  502 -0.66418056678E+02  0.13641669084E+03  0.28588274609E+02  0.23187747031E+03  0.17300000000E+03 0. -1.
<mgrwt>
<rscale>  2 0.23010839E+03</rscale>
<asrwt>0</asrwt>
<pdfrwt beam="1">  1       21 0.26752530E-01 0.23010839E+03</pdfrwt>
<pdfrwt beam="2">  1       21 0.62284450E-01 0.23010839E+03</pdfrwt>
<totfact> 0.31189867E+04</totfact>
</mgrwt>
</event>
<event>
 4    1  0.3973261E+000  0.3228353E+03  0.7546771E-02  0.1074352E+00
         21   -1    0    0  501  502  0.00000000000E+00  0.00000000000E+00  0.73472223051E+02  0.73472223051E+02  0.00000000000E+00 0.  1.
         21   -1    0    0  502  503 -0.00000000000E+00 -0.00000000000E+00 -0.14475334861E+04  0.14475334861E+04  0.00000000000E+00 0. -1.
          6    1    1    2  501    0  0.19902624831E+03 -0.18623149080E+03 -0.57938281929E+03  0.66325490347E+03  0.17300000000E+03 0. -1.
         -6    1    1    2    0  503 -0.19902624831E+03  0.18623149080E+03 -0.79467844379E+03  0.85775080571E+03  0.17300000000E+03 0.  1.
<mgrwt>
<rscale>  2 0.32283528E+03</rscale>
<asrwt>0</asrwt>
<pdfrwt beam="1">  1       21 0.11303418E-01 0.32283528E+03</pdfrwt>
<pdfrwt beam="2">  1       21 0.22269747E+00 0.32283528E+03</pdfrwt>
<totfact> 0.57441907E+03</totfact>
</mgrwt>
</event>
<event>
 4    1  0.3973261E+000  0.2291300E+03  0.7546771E-02  0.1127254E+00
         21   -1    0    0  501  502  0.00000000000E+00  0.00000000000E+00  0.17673390240E+03  0.17673390240E+03  0.00000000000E+00 0.  1.
         21   -1    0    0  502  503 -0.00000000000E+00 -0.00000000000E+00 -0.29709898516E+03  0.29709898516E+03  0.00000000000E+00 0. -1.
          6    1    1    2  501    0  0.64127423385E+02  0.13586477924E+03 -0.62898093899E+02  0.23760626020E+03  0.17300000000E+03 0.  1.
         -6    1    1    2    0  503 -0.64127423385E+02 -0.13586477924E+03 -0.57466988860E+02  0.23622662737E+03  0.17300000000E+03 0. -1.
<mgrwt>
<rscale>  2 0.22913002E+03</rscale>
<asrwt>0</asrwt>
<pdfrwt beam="1">  1       21 0.27189831E-01 0.22913002E+03</pdfrwt>
<pdfrwt beam="2">  1       21 0.45707536E-01 0.22913002E+03</pdfrwt>
<totfact> 0.58214620E+04</totfact>
</mgrwt>
</event>
<event>
 4    1  0.3973261E+000  0.2250758E+03  0.7546771E-02  0.1130154E+00
         21   -1    0    0  503  502  0.00000000000E+00  0.00000000000E+00  0.17216434347E+03  0.17216434347E+03  0.00000000000E+00 0.  1.
         21   -1    0    0  501  503 -0.00000000000E+00 -0.00000000000E+00 -0.43878473738E+03  0.43878473738E+03  0.00000000000E+00 0. -1.
          6    1    1    2  501    0  0.71739153453E+02  0.12483436651E+03 -0.30863260000E+03  0.38198587275E+03  0.17300000000E+03 0. -1.
         -6    1    1    2    0  502 -0.71739153453E+02 -0.12483436651E+03  0.42012206081E+02  0.22896320809E+03  0.17300000000E+03 0.  1.
<mgrwt>
<rscale>  2 0.22507582E+03</rscale>
<asrwt>0</asrwt>
<pdfrwt beam="1">  1       21 0.26486822E-01 0.22507582E+03</pdfrwt>
<pdfrwt beam="2">  1       21 0.67505344E-01 0.22507582E+03</pdfrwt>
<totfact> 0.26734842E+04</totfact>
</mgrwt>
</event>
<event>
 4    1  0.3973261E+000  0.1879127E+03  0.7546771E-02  0.1160357E+00
         21   -1    0    0  501  502  0.00000000000E+00  0.00000000000E+00  0.10820025660E+03  0.10820025660E+03  0.00000000000E+00 0. -1.
         21   -1    0    0  502  503 -0.00000000000E+00 -0.00000000000E+00 -0.36015988765E+03  0.36015988765E+03  0.00000000000E+00 0. -1.
          6    1    1    2  501    0 -0.64507287207E+02 -0.34942955247E+02 -0.54229904149E+02  0.19558139668E+03  0.17300000000E+03 0. -1.
         -6    1    1    2    0  503  0.64507287207E+02  0.34942955247E+02 -0.19772972690E+03  0.27277874757E+03  0.17300000000E+03 0. -1.
<mgrwt>
<rscale>  2 0.18791275E+03</rscale>
<asrwt>0</asrwt>
<pdfrwt beam="1">  1       21 0.16646193E-01 0.18791275E+03</pdfrwt>
<pdfrwt beam="2">  1       21 0.55409214E-01 0.18791275E+03</pdfrwt>
<totfact> 0.99750162E+04</totfact>
</mgrwt>
</event>
<event>
 4    1  0.3973261E+000  0.1825364E+03  0.7546771E-02  0.1165371E+00
         21   -1    0    0  503  502  0.00000000000E+00  0.00000000000E+00  0.64055998186E+03  0.64055998186E+03  0.00000000000E+00 0. -1.
         21   -1    0    0  501  503 -0.00000000000E+00 -0.00000000000E+00 -0.86768175173E+02  0.86768175173E+02  0.00000000000E+00 0. -1.
          6    1    1    2  501    0 -0.15647066160E+01  0.58207343340E+02  0.46746707736E+02  0.18842716845E+03  0.17300000000E+03 0. -1.
         -6    1    1    2    0  502  0.15647066160E+01 -0.58207343340E+02  0.50704509895E+03  0.53890098858E+03  0.17300000000E+03 0. -1.
<mgrwt>
<rscale>  2 0.18253642E+03</rscale>
<asrwt>0</asrwt>
<pdfrwt beam="1">  1       21 0.98547686E-01 0.18253642E+03</pdfrwt>
<pdfrwt beam="2">  1       21 0.13348950E-01 0.18253642E+03</pdfrwt>
<totfact> 0.41402509E+04</totfact>
</mgrwt>
</event>
<event>
 4    1  0.3973261E+000  0.1990600E+03  0.7546771E-02  0.1150534E+00
         21   -1    0    0  501  502  0.00000000000E+00  0.00000000000E+00  0.26226998564E+02  0.26226998564E+02  0.00000000000E+00 0. -1.
         21   -1    0    0  502  503 -0.00000000000E+00 -0.00000000000E+00 -0.15672273986E+04  0.15672273986E+04  0.00000000000E+00 0. -1.
          6    1    1    2  501    0 -0.42167903392E+02  0.88981811441E+02 -0.61938069588E+03  0.65058230938E+03  0.17300000000E+03 0.  1.
         -6    1    1    2    0  503  0.42167903392E+02 -0.88981811441E+02 -0.92161970416E+03  0.94287208779E+03  0.17300000000E+03 0.  1.
<mgrwt>
<rscale>  2 0.19906003E+03</rscale>
<asrwt>0</asrwt>
<pdfrwt beam="1">  1       21 0.40349217E-02 0.19906003E+03</pdfrwt>
<pdfrwt beam="2">  1       21 0.24111198E+00 0.19906003E+03</pdfrwt>
<totfact> 0.28828569E+04</totfact>
</mgrwt>
</event>
<event>
 4    1  0.3973261E+000  0.1994615E+03  0.7546771E-02  0.1150194E+00
         21   -1    0    0  503  502  0.00000000000E+00  0.00000000000E+00  0.12452560314E+03  0.12452560314E+03  0.00000000000E+00 0. -1.
         21   -1    0    0  501  503 -0.00000000000E+00 -0.00000000000E+00 -0.54670724330E+03  0.54670724330E+03  0.00000000000E+00 0. -1.
          6    1    1    2  501    0  0.67360324265E+02  0.72927776396E+02 -0.42745481129E+03  0.47170169552E+03  0.17300000000E+03 0. -1.
         -6    1    1    2    0  502 -0.67360324265E+02 -0.72927776396E+02  0.52731711359E+01  0.19953115092E+03  0.17300000000E+03 0. -1.
<mgrwt>
<rscale>  2 0.19946146E+03</rscale>
<asrwt>0</asrwt>
<pdfrwt beam="1">  1       21 0.19157785E-01 0.19946146E+03</pdfrwt>
<pdfrwt beam="2">  1       21 0.84108806E-01 0.19946146E+03</pdfrwt>
<totfact> 0.30582696E+04</totfact>
</mgrwt>
</event>
<event>
 4    1  0.3973261E+000  0.2044000E+03  0.7546771E-02  0.1146079E+00
         21   -1    0    0  503  502  0.00000000000E+00  0.00000000000E+00  0.56271492273E+02  0.56271492273E+02  0.00000000000E+00 0. -1.
         21   -1    0    0  501  503 -0.00000000000E+00 -0.00000000000E+00 -0.79486947374E+03  0.79486947374E+03  0.00000000000E+00 0.  1.
          6    1    1    2  501    0 -0.10544730520E+03 -0.27040837889E+02 -0.47857575593E+03  0.52039801619E+03  0.17300000000E+03 0.  1.
         -6    1    1    2    0  502  0.10544730520E+03  0.27040837889E+02 -0.26002222554E+03  0.33074294983E+03  0.17300000000E+03 0. -1.
<mgrwt>
<rscale>  2 0.20439995E+03</rscale>
<asrwt>0</asrwt>
<pdfrwt beam="1">  1       21 0.86571537E-02 0.20439995E+03</pdfrwt>
<pdfrwt beam="2">  1       21 0.12228760E+00 0.20439995E+03</pdfrwt>
<totfact> 0.52360049E+04</totfact>
</mgrwt>
</event>
<event>
 4    1  0.3973261E+000  0.1831791E+03  0.7546771E-02  0.1164761E+00
         21   -1    0    0  501  502  0.00000000000E+00  0.00000000000E+00  0.68336900754E+03  0.68336900754E+03  0.00000000000E+00 0. -1.
         21   -1    0    0  502  503 -0.00000000000E+00 -0.00000000000E+00 -0.51775897692E+02  0.51775897692E+02  0.00000000000E+00 0.  1.
          6    1    1    2  501    0  0.35445214973E+01 -0.60108419233E+02  0.39933285101E+03  0.43934190739E+03  0.17300000000E+03 0. -1.
         -6    1    1    2    0  503 -0.35445214973E+01  0.60108419233E+02  0.23226025883E+03  0.29580299784E+03  0.17300000000E+03 0.  1.
<mgrwt>
<rscale>  2 0.18317911E+03</rscale>
<asrwt>0</asrwt>
<pdfrwt beam="1">  1       21 0.10513369E+00 0.18317911E+03</pdfrwt>
<pdfrwt beam="2">  1       21 0.79655232E-02 0.18317911E+03</pdfrwt>
<totfact> 0.88426726E+04</totfact>
</mgrwt>
</event>
<event>
 4    1  0.3973261E+000  0.2050869E+03  0.7546771E-02  0.1145517E+00
         21   -1    0    0  501  502  0.00000000000E+00  0.00000000000E+00  0.12474086827E+03  0.12474086827E+03  0.00000000000E+00 0.  1.
         21   -1    0    0  502  503 -0.00000000000E+00 -0.00000000000E+00 -0.41839016537E+03  0.41839016537E+03  0.00000000000E+00 0.  1.
          6    1    1    2  501    0  0.94312372026E+02 -0.56892997511E+02 -0.27184170820E+02  0.20688068017E+03  0.17300000000E+03 0.  1.
         -6    1    1    2    0  503 -0.94312372026E+02  0.56892997511E+02 -0.26646512628E+03  0.33625035347E+03  0.17300000000E+03 0.  1.
<mgrwt>
<rscale>  2 0.20508690E+03</rscale>
<asrwt>0</asrwt>
<pdfrwt beam="1">  1       21 0.19190902E-01 0.20508690E+03</pdfrwt>
<pdfrwt beam="2">  1       21 0.64367719E-01 0.20508690E+03</pdfrwt>
<totfact> 0.55172742E+04</totfact>
</mgrwt>
</event>
<event>
 4    1  0.3973261E+000  0.1973908E+03  0.7546771E-02  0.1151959E+00
         21   -1    0    0  501  502  0.00000000000E+00  0.00000000000E+00  0.62071687566E+02  0.62071687566E+02  0.00000000000E+00 0. -1.
         21   -1    0    0  502  503 -0.00000000000E+00 -0.00000000000E+00 -0.62872233313E+03  0.62872233313E+03  0.00000000000E+00 0. -1.
          6    1    1    2  501    0 -0.77663367809E+02  0.54795427727E+02 -0.29717184260E+03  0.35675515642E+03  0.17300000000E+03 0. -1.
         -6    1    1    2    0  503  0.77663367809E+02 -0.54795427727E+02 -0.26947880296E+03  0.33403886427E+03  0.17300000000E+03 0. -1.
<mgrwt>
<rscale>  2 0.19739082E+03</rscale>
<asrwt>0</asrwt>
<pdfrwt beam="1">  1       21 0.95494904E-02 0.19739082E+03</pdfrwt>
<pdfrwt beam="2">  1       21 0.96726513E-01 0.19739082E+03</pdfrwt>
<totfact> 0.77994124E+04</totfact>
</mgrwt>
</event>
<event>
 4    1  0.3973261E+000  0.1936459E+03  0.7546771E-02  0.1155214E+00
         21   -1    0    0  501  502  0.00000000000E+00  0.00000000000E+00  0.13793771359E+03  0.13793771359E+03  0.00000000000E+00 0.  1.
         21   -1    0    0  502  503 -0.00000000000E+00 -0.00000000000E+00 -0.86138259253E+03  0.86138259253E+03  0.00000000000E+00 0. -1.
          6    1    1    2  501    0 -0.83852401973E+02 -0.23205500865E+02  0.51638692922E+02  0.20041276205E+03  0.17300000000E+03 0.  1.
         -6    1    1    2    0  503  0.83852401973E+02  0.23205500865E+02 -0.77508357186E+03  0.79890754406E+03  0.17300000000E+03 0. -1.
<mgrwt>
<rscale>  2 0.19364586E+03</rscale>
<asrwt>0</asrwt>
<pdfrwt beam="1">  1       21 0.21221186E-01 0.19364586E+03</pdfrwt>
<pdfrwt beam="2">  1       21 0.13252040E+00 0.19364586E+03</pdfrwt>
<totfact> 0.85001943E+03</totfact>
</mgrwt>
</event>
<event>
 4    1  0.3973261E+000  0.3693558E+03  0.7546771E-02  0.1054940E+00
         21   -1    0    0  503  502  0.00000000000E+00  0.00000000000E+00  0.37870425730E+03  0.37870425730E+03  0.00000000000E+00 0.  1.
         21   -1    0    0  501  503 -0.00000000000E+00 -0.00000000000E+00 -0.36024476417E+03  0.36024476417E+03  0.00000000000E+00 0. -1.
          6    1    1    2  501    0 -0.20324543944E+03 -0.25531544066E+03  0.76345810218E+01  0.36943466232E+03  0.17300000000E+03 0.  1.
         -6    1    1    2    0  502  0.20324543944E+03  0.25531544066E+03  0.10824912114E+02  0.36951435915E+03  0.17300000000E+03 0.  1.
<mgrwt>
<rscale>  2 0.36935577E+03</rscale>
<asrwt>0</asrwt>
<pdfrwt beam="1">  1       21 0.58262194E-01 0.36935577E+03</pdfrwt>
<pdfrwt beam="2">  1       21 0.55422271E-01 0.36935577E+03</pdfrwt>
<totfact> 0.77253458E+03</totfact>
</mgrwt>
</event>
<event>
 4    1  0.3973261E+000  0.2051995E+03  0.7546771E-02  0.1145425E+00
         21   -1    0    0  501  502  0.00000000000E+00  0.00000000000E+00  0.11024257294E+03  0.11024257294E+03  0.00000000000E+00 0. -1.
         21   -1    0    0  502  503 -0.00000000000E+00 -0.00000000000E+00 -0.12653271341E+04  0.12653271341E+04  0.00000000000E+00 0. -1.
          6    1    1    2  501    0  0.10051882380E+03  0.45539131313E+02 -0.28637770798E+01  0.20521951086E+03  0.17300000000E+03 0. -1.
         -6    1    1    2    0  503 -0.10051882380E+03 -0.45539131313E+02 -0.11522207841E+04  0.11703501962E+04  0.17300000000E+03 0. -1.
<mgrwt>
<rscale>  2 0.20519953E+03</rscale>
<asrwt>0</asrwt>
<pdfrwt beam="1">  1       21 0.16960396E-01 0.20519953E+03</pdfrwt>
<pdfrwt beam="2">  1       21 0.19466571E+00 0.20519953E+03</pdfrwt>
<totfact> 0.45024928E+03</totfact>
</mgrwt>
</event>
<event>
 4    1  0.3973261E+000  0.1874163E+03  0.7546771E-02  0.1160812E+00
         21   -1    0    0  503  502  0.00000000000E+00  0.00000000000E+00  0.40680976570E+03  0.40680976570E+03  0.00000000000E+00 0. -1.
         21   -1    0    0  501  503 -0.00000000000E+00 -0.00000000000E+00 -0.93886175420E+02  0.93886175420E+02  0.00000000000E+00 0. -1.
          6    1    1    2  501    0 -0.34465765307E+02 -0.63308665724E+02  0.85497230107E+02  0.20599672932E+03  0.17300000000E+03 0.  1.
         -6    1    1    2    0  502  0.34465765307E+02  0.63308665724E+02  0.22742636017E+03  0.29469921180E+03  0.17300000000E+03 0.  1.
<mgrwt>
<rscale>  2 0.18741632E+03</rscale>
<asrwt>0</asrwt>
<pdfrwt beam="1">  1       21 0.62586117E-01 0.18741632E+03</pdfrwt>
<pdfrwt beam="2">  1       21 0.14444027E-01 0.18741632E+03</pdfrwt>
<totfact> 0.99610766E+04</totfact>
</mgrwt>
</event>
<event>
 4    1  0.3973261E+000  0.2691289E+03  0.7546771E-02  0.1101779E+00
         21   -1    0    0  503  502  0.00000000000E+00  0.00000000000E+00  0.43410156150E+03  0.43410156150E+03  0.00000000000E+00 0.  1.
         21   -1    0    0  501  503 -0.00000000000E+00 -0.00000000000E+00 -0.26474556648E+03  0.26474556648E+03  0.00000000000E+00 0. -1.
          6    1    1    2  501    0 -0.10928410100E+03 -0.17480949118E+03 -0.12780131770E+03  0.29793212271E+03  0.17300000000E+03 0. -1.
         -6    1    1    2    0  502  0.10928410100E+03  0.17480949118E+03  0.29715731272E+03  0.40091500526E+03  0.17300000000E+03 0.  1.
<mgrwt>
<rscale>  2 0.26912892E+03</rscale>
<asrwt>0</asrwt>
<pdfrwt beam="1">  1       21 0.66784855E-01 0.26912892E+03</pdfrwt>
<pdfrwt beam="2">  1       21 0.40730087E-01 0.26912892E+03</pdfrwt>
<totfact> 0.11408170E+04</totfact>
</mgrwt>
</event>
<event>
 4    1  0.3973261E+000  0.2172621E+03  0.7546771E-02  0.1135941E+00
         21   -1    0    0  503  502  0.00000000000E+00  0.00000000000E+00  0.22501254629E+03  0.22501254629E+03  0.00000000000E+00 0.  1.
         21   -1    0    0  501  503 -0.00000000000E+00 -0.00000000000E+00 -0.20981593309E+03  0.20981593309E+03  0.00000000000E+00 0.  1.
          6    1    1    2  501    0 -0.75515336439E+02 -0.10756969984E+03  0.46963618687E+01  0.21731282101E+03  0.17300000000E+03 0.  1.
         -6    1    1    2    0  502  0.75515336439E+02  0.10756969984E+03  0.10500251332E+02  0.21751565838E+03  0.17300000000E+03 0.  1.
<mgrwt>
<rscale>  2 0.21726207E+03</rscale>
<asrwt>0</asrwt>
<pdfrwt beam="1">  1       21 0.34617315E-01 0.21726207E+03</pdfrwt>
<pdfrwt beam="2">  1       21 0.32279374E-01 0.21726207E+03</pdfrwt>
<totfact> 0.73480100E+04</totfact>
</mgrwt>
</event>
<event>
 4    1  0.3973261E+000  0.2322127E+03  0.7546771E-02  0.1125092E+00
         21   -1    0    0  503  502  0.00000000000E+00  0.00000000000E+00  0.15148463810E+03  0.15148463810E+03  0.00000000000E+00 0.  1.
         21   -1    0    0  501  503 -0.00000000000E+00 -0.00000000000E+00 -0.41133054445E+03  0.41133054445E+03  0.00000000000E+00 0. -1.
          6    1    1    2  501    0 -0.16313765196E+02 -0.15403766507E+03 -0.23316883800E+03  0.32907514068E+03  0.17300000000E+03 0. -1.
         -6    1    1    2    0  502  0.16313765196E+02  0.15403766507E+03 -0.26677068350E+02  0.23374004187E+03  0.17300000000E+03 0.  1.
<mgrwt>
<rscale>  2 0.23221271E+03</rscale>
<asrwt>0</asrwt>
<pdfrwt beam="1">  1       21 0.23305329E-01 0.23221271E+03</pdfrwt>
<pdfrwt beam="2">  1       21 0.63281622E-01 0.23221271E+03</pdfrwt>
<totfact> 0.39215360E+04</totfact>
</mgrwt>
</event>
<event>
 4    1  0.3973261E+000  0.1756663E+03  0.7546771E-02  0.1172064E+00
         21   -1    0    0  501  502  0.00000000000E+00  0.00000000000E+00  0.60845676434E+02  0.60845676434E+02  0.00000000000E+00 0.  1.
         21   -1    0    0  502  503 -0.00000000000E+00 -0.00000000000E+00 -0.50781553849E+03  0.50781553849E+03  0.00000000000E+00 0.  1.
          6    1    1    2  501    0  0.14460777061E+02  0.26842628181E+02 -0.23368176204E+03  0.29234535514E+03  0.17300000000E+03 0.  1.
         -6    1    1    2    0  503 -0.14460777061E+02 -0.26842628181E+02 -0.21328810001E+03  0.27631585978E+03  0.17300000000E+03 0.  1.
<mgrwt>
<rscale>  2 0.17566628E+03</rscale>
<asrwt>0</asrwt>
<pdfrwt beam="1">  1       21 0.93608736E-02 0.17566628E+03</pdfrwt>
<pdfrwt beam="2">  1       21 0.78125465E-01 0.17566628E+03</pdfrwt>
<totfact> 0.13307895E+05</totfact>
</mgrwt>
</event>
<event>
 4    1  0.3973261E+000  0.2032255E+03  0.7546771E-02  0.1147046E+00
         21   -1    0    0  501  502  0.00000000000E+00  0.00000000000E+00  0.15913007717E+04  0.15913007717E+04  0.00000000000E+00 0. -1.
         21   -1    0    0  502  503 -0.00000000000E+00 -0.00000000000E+00 -0.44634150821E+02  0.44634150821E+02  0.00000000000E+00 0. -1.
          6    1    1    2  501    0  0.60542964441E+02 -0.87784649140E+02  0.13025003212E+04  0.13182593379E+04  0.17300000000E+03 0. -1.
         -6    1    1    2    0  503 -0.60542964441E+02  0.87784649140E+02  0.24416629959E+03  0.31767558455E+03  0.17300000000E+03 0. -1.
<mgrwt>
<rscale>  2 0.20322548E+03</rscale>
<asrwt>0</asrwt>
<pdfrwt beam="1">  1       21 0.24481546E+00 0.20322548E+03</pdfrwt>
<pdfrwt beam="2">  1       21 0.68667937E-02 0.20322548E+03</pdfrwt>
<totfact> 0.11047837E+04</totfact>
</mgrwt>
</event>
<event>
 4    1  0.3973261E+000  0.1862095E+03  0.7546771E-02  0.1161925E+00
         21   -1    0    0  503  502  0.00000000000E+00  0.00000000000E+00  0.10694507753E+03  0.10694507753E+03  0.00000000000E+00 0. -1.
         21   -1    0    0  501  503 -0.00000000000E+00 -0.00000000000E+00 -0.61854967157E+03  0.61854967157E+03  0.00000000000E+00 0. -1.
          6    1    1    2  501    0  0.67811595409E+02  0.12107026805E+02 -0.50602817399E+03  0.53920172982E+03  0.17300000000E+03 0. -1.
         -6    1    1    2    0  502 -0.67811595409E+02 -0.12107026805E+02 -0.55764200485E+01  0.18629301927E+03  0.17300000000E+03 0. -1.
<mgrwt>
<rscale>  2 0.18620954E+03</rscale>
<asrwt>0</asrwt>
<pdfrwt beam="1">  1       21 0.16453089E-01 0.18620954E+03</pdfrwt>
<pdfrwt beam="2">  1       21 0.95161487E-01 0.18620954E+03</pdfrwt>
<totfact> 0.30676315E+04</totfact>
</mgrwt>
</event>
<event>
 4    1  0.3973261E+000  0.1865323E+03  0.7546771E-02  0.1161627E+00
         21   -1    0    0  503  502  0.00000000000E+00  0.00000000000E+00  0.43169509729E+03  0.43169509729E+03  0.00000000000E+00 0.  1.
         21   -1    0    0  501  503 -0.00000000000E+00 -0.00000000000E+00 -0.84009999086E+02  0.84009999086E+02  0.00000000000E+00 0.  1.
          6    1    1    2  501    0  0.61069071762E+02  0.33702850188E+02  0.12188735519E+03  0.22282468668E+03  0.17300000000E+03 0.  1.
         -6    1    1    2    0  502 -0.61069071762E+02 -0.33702850188E+02  0.22579774301E+03  0.29288040970E+03  0.17300000000E+03 0.  1.
<mgrwt>
<rscale>  2 0.18653234E+03</rscale>
<asrwt>0</asrwt>
<pdfrwt beam="1">  1       21 0.66414629E-01 0.18653234E+03</pdfrwt>
<pdfrwt beam="2">  1       21 0.12924616E-01 0.18653234E+03</pdfrwt>
<totfact> 0.10706355E+05</totfact>
</mgrwt>
</event>
<event>
 4    1  0.3973261E+000  0.1866777E+03  0.7546771E-02  0.1161492E+00
         21   -1    0    0  503  502  0.00000000000E+00  0.00000000000E+00  0.67560411560E+02  0.67560411560E+02  0.00000000000E+00 0. -1.
         21   -1    0    0  501  503 -0.00000000000E+00 -0.00000000000E+00 -0.53762461460E+03  0.53762461460E+03  0.00000000000E+00 0. -1.
          6    1    1    2  501    0  0.69209847965E+02 -0.11381650038E+02 -0.29598039696E+03  0.34993276554E+03  0.17300000000E+03 0. -1.
         -6    1    1    2    0  502 -0.69209847965E+02  0.11381650038E+02 -0.17408380608E+03  0.25525226062E+03  0.17300000000E+03 0. -1.
<mgrwt>
<rscale>  2 0.18667765E+03</rscale>
<asrwt>0</asrwt>
<pdfrwt beam="1">  1       21 0.10393910E-01 0.18667765E+03</pdfrwt>
<pdfrwt beam="2">  1       21 0.82711478E-01 0.18667765E+03</pdfrwt>
<totfact> 0.96873973E+04</totfact>
</mgrwt>
</event>
<event>
 4    1  0.3973261E+000  0.2223956E+03  0.7546771E-02  0.1132110E+00
         21   -1    0    0  501  502  0.00000000000E+00  0.00000000000E+00  0.43443181477E+03  0.43443181477E+03  0.00000000000E+00 0.  1.
         21   -1    0    0  502  503 -0.00000000000E+00 -0.00000000000E+00 -0.12954968008E+03  0.12954968008E+03  0.00000000000E+00 0.  1.
          6    1    1    2  501    0  0.12922120664E+03  0.53222971295E+02  0.25060914256E+03  0.33505931901E+03  0.17300000000E+03 0.  1.
         -6    1    1    2    0  503 -0.12922120664E+03 -0.53222971295E+02  0.54272992132E+02  0.22892217585E+03  0.17300000000E+03 0.  1.
<mgrwt>
<rscale>  2 0.22239560E+03</rscale>
<asrwt>0</asrwt>
<pdfrwt beam="1">  1       21 0.66835663E-01 0.22239560E+03</pdfrwt>
<pdfrwt beam="2">  1       21 0.19930720E-01 0.22239560E+03</pdfrwt>
<totfact> 0.46970262E+04</totfact>
</mgrwt>
</event>
<event>
 4    1  0.3973261E+000  0.2365698E+03  0.7546771E-02  0.1122099E+00
         21   -1    0    0  501  502  0.00000000000E+00  0.00000000000E+00  0.93303829683E+03  0.93303829683E+03  0.00000000000E+00 0.  1.
         21   -1    0    0  502  503 -0.00000000000E+00 -0.00000000000E+00 -0.86674587636E+02  0.86674587636E+02  0.00000000000E+00 0. -1.
          6    1    1    2  501    0  0.16015154522E+03 -0.19690900870E+02  0.70612525805E+03  0.74470002624E+03  0.17300000000E+03 0.  1.
         -6    1    1    2    0  503 -0.16015154522E+03  0.19690900870E+02  0.14023845114E+03  0.27501285823E+03  0.17300000000E+03 0. -1.
<mgrwt>
<rscale>  2 0.23656976E+03</rscale>
<asrwt>0</asrwt>
<pdfrwt beam="1">  1       21 0.14354435E+00 0.23656976E+03</pdfrwt>
<pdfrwt beam="2">  1       21 0.13334553E-01 0.23656976E+03</pdfrwt>
<totfact> 0.15827237E+04</totfact>
</mgrwt>
</event>
<event>
 4    1  0.3973261E+000  0.1828619E+03  0.7546771E-02  0.1165062E+00
         21   -1    0    0  501  502  0.00000000000E+00  0.00000000000E+00  0.30459280127E+03  0.30459280127E+03  0.00000000000E+00 0. -1.
         21   -1    0    0  502  503 -0.00000000000E+00 -0.00000000000E+00 -0.15039823935E+03  0.15039823935E+03  0.00000000000E+00 0. -1.
          6    1    1    2  501    0  0.43432154917E+02 -0.40288188807E+02  0.19532161770E+03  0.26756125388E+03  0.17300000000E+03 0. -1.
         -6    1    1    2    0  503 -0.43432154917E+02  0.40288188807E+02 -0.41127055791E+02  0.18742978674E+03  0.17300000000E+03 0. -1.
<mgrwt>
<rscale>  2 0.18286194E+03</rscale>
<asrwt>0</asrwt>
<pdfrwt beam="1">  1       21 0.46860431E-01 0.18286194E+03</pdfrwt>
<pdfrwt beam="2">  1       21 0.23138191E-01 0.18286194E+03</pdfrwt>
<totfact> 0.76807400E+04</totfact>
</mgrwt>
</event>
<event>
 4    1  0.3973261E+000  0.1844263E+03  0.7546771E-02  0.1163587E+00
         21   -1    0    0  501  502  0.00000000000E+00  0.00000000000E+00  0.48053601640E+03  0.48053601640E+03  0.00000000000E+00 0.  1.
         21   -1    0    0  502  503 -0.00000000000E+00 -0.00000000000E+00 -0.87963116202E+02  0.87963116202E+02  0.00000000000E+00 0.  1.
          6    1    1    2  501    0  0.63896308634E+02 -0.11444133910E+01  0.32191311568E+03  0.37100013745E+03  0.17300000000E+03 0.  1.
         -6    1    1    2    0  503 -0.63896308634E+02  0.11444133910E+01  0.70659784518E+02  0.19749899515E+03  0.17300000000E+03 0.  1.
<mgrwt>
<rscale>  2 0.18442627E+03</rscale>
<asrwt>0</asrwt>
<pdfrwt beam="1">  1       21 0.73928617E-01 0.18442627E+03</pdfrwt>
<pdfrwt beam="2">  1       21 0.13532787E-01 0.18442627E+03</pdfrwt>
<totfact> 0.77889775E+04</totfact>
</mgrwt>
</event>
<event>
 4    1  0.3973261E+000  0.2048980E+03  0.7546771E-02  0.1145671E+00
         21   -1    0    0  501  502  0.00000000000E+00  0.00000000000E+00  0.58834643922E+03  0.58834643922E+03  0.00000000000E+00 0. -1.
         21   -1    0    0  502  503 -0.00000000000E+00 -0.00000000000E+00 -0.13375686042E+03  0.13375686042E+03  0.00000000000E+00 0.  1.
          6    1    1    2  501    0  0.84651843518E+02 -0.69916056221E+02  0.47389863277E+03  0.51629749531E+03  0.17300000000E+03 0. -1.
         -6    1    1    2    0  503 -0.84651843518E+02  0.69916056221E+02 -0.19309053965E+02  0.20580580432E+03  0.17300000000E+03 0.  1.
<mgrwt>
<rscale>  2 0.20489800E+03</rscale>
<asrwt>0</asrwt>
<pdfrwt beam="1">  1       21 0.90514835E-01 0.20489800E+03</pdfrwt>
<pdfrwt beam="2">  1       21 0.20577979E-01 0.20489800E+03</pdfrwt>
<totfact> 0.22524646E+04</totfact>
</mgrwt>
</event>
<event>
 4    1  0.3973261E+000  0.3042963E+03  0.7546771E-02  0.1083112E+00
         21   -1    0    0  501  502  0.00000000000E+00  0.00000000000E+00  0.32418221217E+03  0.32418221217E+03  0.00000000000E+00 0.  1.
         21   -1    0    0  502  503 -0.00000000000E+00 -0.00000000000E+00 -0.51785847376E+03  0.51785847376E+03  0.00000000000E+00 0. -1.
          6    1    1    2  501    0  0.23714412838E+02 -0.24920844068E+03  0.18510084156E+03  0.35617206773E+03  0.17300000000E+03 0.  1.
         -6    1    1    2    0  503 -0.23714412838E+02  0.24920844068E+03 -0.37877710315E+03  0.48586861820E+03  0.17300000000E+03 0. -1.
<mgrwt>
<rscale>  2 0.30429627E+03</rscale>
<asrwt>0</asrwt>
<pdfrwt beam="1">  1       21 0.49874187E-01 0.30429627E+03</pdfrwt>
<pdfrwt beam="2">  1       21 0.79670534E-01 0.30429627E+03</pdfrwt>
<totfact> 0.49561412E+03</totfact>
</mgrwt>
</event>
<event>
 4    1  0.3973261E+000  0.1755225E+03  0.7546771E-02  0.1172208E+00
         21   -1    0    0  503  502  0.00000000000E+00  0.00000000000E+00  0.26622869562E+03  0.26622869562E+03  0.00000000000E+00 0. -1.
         21   -1    0    0  501  503 -0.00000000000E+00 -0.00000000000E+00 -0.25183290086E+03  0.25183290086E+03  0.00000000000E+00 0. -1.
          6    1    1    2  501    0 -0.14799098872E+02  0.25693199417E+02 -0.18323580064E+03  0.25373906372E+03  0.17300000000E+03 0. -1.
         -6    1    1    2    0  502  0.14799098872E+02 -0.25693199417E+02  0.19763159540E+03  0.26432253276E+03  0.17300000000E+03 0. -1.
<mgrwt>
<rscale>  2 0.17552252E+03</rscale>
<asrwt>0</asrwt>
<pdfrwt beam="1">  1       21 0.40958261E-01 0.17552252E+03</pdfrwt>
<pdfrwt beam="2">  1       21 0.38743523E-01 0.17552252E+03</pdfrwt>
<totfact> 0.37210067E+04</totfact>
</mgrwt>
</event>
<event>
 4    1  0.3973261E+000  0.1961864E+03  0.7546771E-02  0.1152997E+00
         21   -1    0    0  503  502  0.00000000000E+00  0.00000000000E+00  0.23423918274E+03  0.23423918274E+03  0.00000000000E+00 0.  1.
         21   -1    0    0  501  503 -0.00000000000E+00 -0.00000000000E+00 -0.19517204585E+03  0.19517204585E+03  0.00000000000E+00 0.  1.
          6    1    1    2  501    0  0.89457219339E+02  0.23611440681E+02 -0.65837216711E+02  0.20693871877E+03  0.17300000000E+03 0.  1.
         -6    1    1    2    0  502 -0.89457219339E+02 -0.23611440681E+02  0.10490435360E+03  0.22247250982E+03  0.17300000000E+03 0.  1.
<mgrwt>
<rscale>  2 0.19618638E+03</rscale>
<asrwt>0</asrwt>
<pdfrwt beam="1">  1       21 0.36036798E-01 0.19618638E+03</pdfrwt>
<pdfrwt beam="2">  1       21 0.30026468E-01 0.19618638E+03</pdfrwt>
<totfact> 0.78874957E+04</totfact>
</mgrwt>
</event>
<event>
 4    1  0.3973261E+000  0.2168161E+03  0.7546771E-02  0.1136279E+00
         21   -1    0    0  501  502  0.00000000000E+00  0.00000000000E+00  0.89248548583E+02  0.89248548583E+02  0.00000000000E+00 0. -1.
         21   -1    0    0  502  503 -0.00000000000E+00 -0.00000000000E+00 -0.53626916667E+03  0.53626916667E+03  0.00000000000E+00 0.  1.
          6    1    1    2  501    0  0.59970805052E+02 -0.11611950845E+03 -0.18178118929E+03  0.28293751692E+03  0.17300000000E+03 0.  1.
         -6    1    1    2    0  503 -0.59970805052E+02  0.11611950845E+03 -0.26523942880E+03  0.34258019834E+03  0.17300000000E+03 0.  1.
<mgrwt>
<rscale>  2 0.21681614E+03</rscale>
<asrwt>0</asrwt>
<pdfrwt beam="1">  1       21 0.13730546E-01 0.21681614E+03</pdfrwt>
<pdfrwt beam="2">  1       21 0.82502946E-01 0.21681614E+03</pdfrwt>
<totfact> 0.58400129E+04</totfact>
</mgrwt>
</event>
<event>
 4    1  0.3973261E+000  0.2051106E+03  0.7546771E-02  0.1145497E+00
         21   -1    0    0  503  502  0.00000000000E+00  0.00000000000E+00  0.17811887758E+03  0.17811887758E+03  0.00000000000E+00 0. -1.
         21   -1    0    0  501  503 -0.00000000000E+00 -0.00000000000E+00 -0.33129028291E+03  0.33129028291E+03  0.00000000000E+00 0. -1.
          6    1    1    2  501    0  0.10808704976E+03 -0.21413530565E+02 -0.21304952038E+03  0.29573712610E+03  0.17300000000E+03 0. -1.
         -6    1    1    2    0  502 -0.10808704976E+03  0.21413530565E+02  0.59878115059E+02  0.21367203439E+03  0.17300000000E+03 0. -1.
<mgrwt>
<rscale>  2 0.20511058E+03</rscale>
<asrwt>0</asrwt>
<pdfrwt beam="1">  1       21 0.27402905E-01 0.20511058E+03</pdfrwt>
<pdfrwt beam="2">  1       21 0.50967735E-01 0.20511058E+03</pdfrwt>
<totfact> 0.46211811E+04</totfact>
</mgrwt>
</event>
<event>
 4    1  0.3973261E+000  0.3603568E+03  0.7546771E-02  0.1058443E+00
         21   -1    0    0  503  502  0.00000000000E+00  0.00000000000E+00  0.18606690966E+03  0.18606690966E+03  0.00000000000E+00 0.  1.
         21   -1    0    0  501  503 -0.00000000000E+00 -0.00000000000E+00 -0.70220012854E+03  0.70220012854E+03  0.00000000000E+00 0.  1.
          6    1    1    2  501    0  0.31517077671E+03 -0.24401075867E+02 -0.29280182374E+03  0.46431663656E+03  0.17300000000E+03 0.  1.
         -6    1    1    2    0  502 -0.31517077671E+03  0.24401075867E+02 -0.22333139514E+03  0.42395040164E+03  0.17300000000E+03 0.  1.
<mgrwt>
<rscale>  2 0.36035681E+03</rscale>
<asrwt>0</asrwt>
<pdfrwt beam="1">  1       21 0.28625678E-01 0.36035681E+03</pdfrwt>
<pdfrwt beam="2">  1       21 0.10803079E+00 0.36035681E+03</pdfrwt>
<totfact> 0.72627033E+03</totfact>
</mgrwt>
</event>
<event>
 4    1  0.3973261E+000  0.2761370E+03  0.7546771E-02  0.1097818E+00
         21   -1    0    0  501  502  0.00000000000E+00  0.00000000000E+00  0.58333319030E+03  0.58333319030E+03  0.00000000000E+00 0. -1.
         21   -1    0    0  502  503 -0.00000000000E+00 -0.00000000000E+00 -0.15536913433E+03  0.15536913433E+03  0.00000000000E+00 0.  1.
          6    1    1    2  501    0 -0.21028773925E+03  0.45844308451E+02  0.36110595684E+03  0.45458678595E+03  0.17300000000E+03 0. -1.
         -6    1    1    2    0  503  0.21028773925E+03 -0.45844308451E+02  0.66858099132E+02  0.28411553868E+03  0.17300000000E+03 0.  1.
<mgrwt>
<rscale>  2 0.27613698E+03</rscale>
<asrwt>0</asrwt>
<pdfrwt beam="1">  1       21 0.89743566E-01 0.27613698E+03</pdfrwt>
<pdfrwt beam="2">  1       21 0.23902944E-01 0.27613698E+03</pdfrwt>
<totfact> 0.16669180E+04</totfact>
</mgrwt>
</event>
<event>
 4    1  0.3973261E+000  0.1918755E+03  0.7546771E-02  0.1156781E+00
         21   -1    0    0  501  502  0.00000000000E+00  0.00000000000E+00  0.21524539307E+03  0.21524539307E+03  0.00000000000E+00 0.  1.
         21   -1    0    0  502  503 -0.00000000000E+00 -0.00000000000E+00 -0.17119525363E+03  0.17119525363E+03  0.00000000000E+00 0.  1.
          6    1    1    2  501    0 -0.45149876098E+02 -0.69632602075E+02  0.27787933775E+02  0.19387722880E+03  0.17300000000E+03 0.  1.
         -6    1    1    2    0  503  0.45149876098E+02  0.69632602075E+02  0.16262205667E+02  0.19256341791E+03  0.17300000000E+03 0.  1.
<mgrwt>
<rscale>  2 0.19187551E+03</rscale>
<asrwt>0</asrwt>
<pdfrwt beam="1">  1       21 0.33114676E-01 0.19187551E+03</pdfrwt>
<pdfrwt beam="2">  1       21 0.26337732E-01 0.19187551E+03</pdfrwt>
<totfact> 0.12040242E+05</totfact>
</mgrwt>
</event>
<event>
 4    1  0.3973261E+000  0.2538069E+03  0.7546771E-02  0.1110922E+00
         21   -1    0    0  503  502  0.00000000000E+00  0.00000000000E+00  0.98832655550E+02  0.98832655550E+02  0.00000000000E+00 0. -1.
         21   -1    0    0  501  503 -0.00000000000E+00 -0.00000000000E+00 -0.69319005676E+03  0.69319005676E+03  0.00000000000E+00 0. -1.
          6    1    1    2  501    0  0.14540178177E+03 -0.11553044065E+03 -0.39395996029E+03  0.46863889208E+03  0.17300000000E+03 0. -1.
         -6    1    1    2    0  502 -0.14540178177E+03  0.11553044065E+03 -0.20039744092E+03  0.32338382023E+03  0.17300000000E+03 0. -1.
<mgrwt>
<rscale>  2 0.25380694E+03</rscale>
<asrwt>0</asrwt>
<pdfrwt beam="1">  1       21 0.15205024E-01 0.25380694E+03</pdfrwt>
<pdfrwt beam="2">  1       21 0.10664462E+00 0.25380694E+03</pdfrwt>
<totfact> 0.26065858E+04</totfact>
</mgrwt>
</event>
<event>
 4    1  0.3973261E+000  0.2025869E+03  0.7546771E-02  0.1147575E+00
         21   -1    0    0  501  502  0.00000000000E+00  0.00000000000E+00  0.37280276432E+03  0.37280276432E+03  0.00000000000E+00 0. -1.
         21   -1    0    0  502  503 -0.00000000000E+00 -0.00000000000E+00 -0.14458797778E+03  0.14458797778E+03  0.00000000000E+00 0. -1.
          6    1    1    2  501    0 -0.44601531945E+02 -0.95515228794E+02  0.24047220396E+03  0.31443335775E+03  0.17300000000E+03 0. -1.
         -6    1    1    2    0  503  0.44601531945E+02  0.95515228794E+02 -0.12257417426E+02  0.20295738436E+03  0.17300000000E+03 0. -1.
<mgrwt>
<rscale>  2 0.20258691E+03</rscale>
<asrwt>0</asrwt>
<pdfrwt beam="1">  1       21 0.57354271E-01 0.20258691E+03</pdfrwt>
<pdfrwt beam="2">  1       21 0.22244304E-01 0.20258691E+03</pdfrwt>
<totfact> 0.53691179E+04</totfact>
</mgrwt>
</event>
<event>
 4    1  0.3973261E+000  0.1804260E+03  0.7546771E-02  0.1167391E+00
         21   -1    0    0  503  502  0.00000000000E+00  0.00000000000E+00  0.15867057659E+03  0.15867057659E+03  0.00000000000E+00 0.  1.
         21   -1    0    0  501  503 -0.00000000000E+00 -0.00000000000E+00 -0.49264878677E+03  0.49264878677E+03  0.00000000000E+00 0.  1.
          6    1    1    2  501    0 -0.29522943703E+02  0.41868032019E+02 -0.41576167886E+03  0.45322324512E+03  0.17300000000E+03 0.  1.
         -6    1    1    2    0  502  0.29522943703E+02 -0.41868032019E+02  0.81783468680E+02  0.19809611823E+03  0.17300000000E+03 0.  1.
<mgrwt>
<rscale>  2 0.18042599E+03</rscale>
<asrwt>0</asrwt>
<pdfrwt beam="1">  1       21 0.24410859E-01 0.18042599E+03</pdfrwt>
<pdfrwt beam="2">  1       21 0.75792118E-01 0.18042599E+03</pdfrwt>
<totfact> 0.24791100E+04</totfact>
</mgrwt>
</event>
<event>
 4    1  0.3973261E+000  0.2286424E+03  0.7546771E-02  0.1127599E+00
         21   -1    0    0  503  502  0.00000000000E+00  0.00000000000E+00  0.15306180931E+03  0.15306180931E+03  0.00000000000E+00 0. -1.
         21   -1    0    0  501  503 -0.00000000000E+00 -0.00000000000E+00 -0.50943802542E+03  0.50943802542E+03  0.00000000000E+00 0.  1.
          6    1    1    2  501    0  0.16251101471E+02  0.14860772553E+03 -0.36835180889E+03  0.43354401103E+03  0.17300000000E+03 0.  1.
         -6    1    1    2    0  502 -0.16251101471E+02 -0.14860772553E+03  0.11975592781E+02  0.22895582370E+03  0.17300000000E+03 0. -1.
<mgrwt>
<rscale>  2 0.22864242E+03</rscale>
<asrwt>0</asrwt>
<pdfrwt beam="1">  1       21 0.23547970E-01 0.22864242E+03</pdfrwt>
<pdfrwt beam="2">  1       21 0.78375082E-01 0.22864242E+03</pdfrwt>
<totfact> 0.23964346E+04</totfact>
</mgrwt>
</event>
<event>
 4    1  0.3973261E+000  0.1816062E+03  0.7546771E-02  0.1166258E+00
         21   -1    0    0  503  502  0.00000000000E+00  0.00000000000E+00  0.75678575914E+03  0.75678575914E+03  0.00000000000E+00 0.  1.
         21   -1    0    0  501  503 -0.00000000000E+00 -0.00000000000E+00 -0.54959845934E+02  0.54959845934E+02  0.00000000000E+00 0.  1.
          6    1    1    2  501    0 -0.51968271671E+02 -0.18737604646E+02  0.16622716750E+03  0.24619559359E+03  0.17300000000E+03 0.  1.
         -6    1    1    2    0  502  0.51968271671E+02  0.18737604646E+02  0.53559874571E+03  0.56555001148E+03  0.17300000000E+03 0.  1.
<mgrwt>
<rscale>  2 0.18160616E+03</rscale>
<asrwt>0</asrwt>
<pdfrwt beam="1">  1       21 0.11642857E+00 0.18160616E+03</pdfrwt>
<pdfrwt beam="2">  1       21 0.84553615E-02 0.18160616E+03</pdfrwt>
<totfact> 0.62316799E+04</totfact>
</mgrwt>
</event>
<event>
 4    1  0.3973261E+000  0.2091229E+03  0.7546771E-02  0.1142262E+00
         21   -1    0    0  503  502  0.00000000000E+00  0.00000000000E+00  0.38525220351E+03  0.38525220351E+03  0.00000000000E+00 0.  1.
         21   -1    0    0  501  503 -0.00000000000E+00 -0.00000000000E+00 -0.11846318197E+03  0.11846318197E+03  0.00000000000E+00 0.  1.
          6    1    1    2  501    0  0.27188940427E+02  0.11429853164E+03  0.81927297625E+02  0.22459847487E+03  0.17300000000E+03 0.  1.
         -6    1    1    2    0  502 -0.27188940427E+02 -0.11429853164E+03  0.18486172392E+03  0.27911691061E+03  0.17300000000E+03 0.  1.
<mgrwt>
<rscale>  2 0.20912291E+03</rscale>
<asrwt>0</asrwt>
<pdfrwt beam="1">  1       21 0.59269569E-01 0.20912291E+03</pdfrwt>
<pdfrwt beam="2">  1       21 0.18225105E-01 0.20912291E+03</pdfrwt>
<totfact> 0.72458134E+04</totfact>
</mgrwt>
</event>
<event>
 4    1  0.3973261E+000  0.3531998E+03  0.7546771E-02  0.1061309E+00
         21   -1    0    0  501  502  0.00000000000E+00  0.00000000000E+00  0.67176374096E+02  0.67176374096E+02  0.00000000000E+00 0. -1.
         21   -1    0    0  502  503 -0.00000000000E+00 -0.00000000000E+00 -0.24363110386E+04  0.24363110386E+04  0.00000000000E+00 0.  1.
          6    1    1    2  501    0  0.64177142631E+02 -0.30116836506E+03 -0.57420873029E+03  0.67414075362E+03  0.17300000000E+03 0. -1.
         -6    1    1    2    0  503 -0.64177142631E+02  0.30116836506E+03 -0.17949259342E+04  0.18293466590E+04  0.17300000000E+03 0. -1.
<mgrwt>
<rscale>  2 0.35319979E+03</rscale>
<asrwt>0</asrwt>
<pdfrwt beam="1">  1       21 0.10334829E-01 0.35319979E+03</pdfrwt>
<pdfrwt beam="2">  1       21 0.37481701E+00 0.35319979E+03</pdfrwt>
<totfact> 0.79913001E+02</totfact>
</mgrwt>
</event>
<event>
 4    1  0.3973261E+000  0.2248785E+03  0.7546771E-02  0.1130297E+00
         21   -1    0    0  503  502  0.00000000000E+00  0.00000000000E+00  0.42921168298E+03  0.42921168298E+03  0.00000000000E+00 0.  1.
         21   -1    0    0  501  503 -0.00000000000E+00 -0.00000000000E+00 -0.12662390252E+03  0.12662390252E+03  0.00000000000E+00 0. -1.
          6    1    1    2  501    0 -0.23652409784E+02  0.14171065562E+03  0.78018161584E+02  0.23802768734E+03  0.17300000000E+03 0. -1.
         -6    1    1    2    0  502  0.23652409784E+02 -0.14171065562E+03  0.22456961888E+03  0.31780789815E+03  0.17300000000E+03 0.  1.
<mgrwt>
<rscale>  2 0.22487851E+03</rscale>
<asrwt>0</asrwt>
<pdfrwt beam="1">  1       21 0.66032566E-01 0.22487851E+03</pdfrwt>
<pdfrwt beam="2">  1       21 0.19480601E-01 0.22487851E+03</pdfrwt>
<totfact> 0.50283205E+04</totfact>
</mgrwt>
</event>
<event>
 4    1  0.3973261E+000  0.3349234E+03  0.7546771E-02  0.1068979E+00
         21   -1    0    0  501  502  0.00000000000E+00  0.00000000000E+00  0.64455429348E+03  0.64455429348E+03  0.00000000000E+00 0.  1.
         21   -1    0    0  502  503 -0.00000000000E+00 -0.00000000000E+00 -0.28419154113E+03  0.28419154113E+03  0.00000000000E+00 0.  1.
          6    1    1    2  501    0 -0.26451504578E+03  0.11079929067E+03  0.46929627623E+03  0.57655241491E+03  0.17300000000E+03 0.  1.
         -6    1    1    2    0  503  0.26451504578E+03 -0.11079929067E+03 -0.10893352388E+03  0.35219341971E+03  0.17300000000E+03 0.  1.
<mgrwt>
<rscale>  2 0.33492341E+03</rscale>
<asrwt>0</asrwt>
<pdfrwt beam="1">  1       21 0.99162198E-01 0.33492341E+03</pdfrwt>
<pdfrwt beam="2">  1       21 0.43721776E-01 0.33492341E+03</pdfrwt>
<totfact> 0.38505671E+03</totfact>
</mgrwt>
</event>
<event>
 4    1  0.3973261E+000  0.2679095E+03  0.7546771E-02  0.1102482E+00
         21   -1    0    0  503  502  0.00000000000E+00  0.00000000000E+00  0.82790608760E+03  0.82790608760E+03  0.00000000000E+00 0. -1.
         21   -1    0    0  501  503 -0.00000000000E+00 -0.00000000000E+00 -0.90773256297E+02  0.90773256297E+02  0.00000000000E+00 0. -1.
          6    1    1    2  501    0 -0.19925440863E+03  0.46305553765E+02  0.27120675632E+03  0.38121992122E+03  0.17300000000E+03 0. -1.
         -6    1    1    2    0  502  0.19925440863E+03 -0.46305553765E+02  0.46592607499E+03  0.53745942267E+03  0.17300000000E+03 0. -1.
<mgrwt>
<rscale>  2 0.26790954E+03</rscale>
<asrwt>0</asrwt>
<pdfrwt beam="1">  1       21 0.12737016E+00 0.26790954E+03</pdfrwt>
<pdfrwt beam="2">  1       21 0.13965117E-01 0.26790954E+03</pdfrwt>
<totfact> 0.19476699E+04</totfact>
</mgrwt>
</event>
<event>
 4    1  0.3973261E+000  0.2239166E+03  0.7546771E-02  0.1130996E+00
         21   -1    0    0  501  502  0.00000000000E+00  0.00000000000E+00  0.21830822892E+03  0.21830822892E+03  0.00000000000E+00 0.  1.
         21   -1    0    0  502  503 -0.00000000000E+00 -0.00000000000E+00 -0.23283731957E+03  0.23283731957E+03  0.00000000000E+00 0. -1.
          6    1    1    2  501    0  0.88238550014E+02  0.11146122626E+03 -0.33577551474E+02  0.22642018159E+03  0.17300000000E+03 0. -1.
         -6    1    1    2    0  503 -0.88238550014E+02 -0.11146122626E+03  0.19048460822E+02  0.22472536690E+03  0.17300000000E+03 0. -1.
<mgrwt>
<rscale>  2 0.22391661E+03</rscale>
<asrwt>0</asrwt>
<pdfrwt beam="1">  1       21 0.33585881E-01 0.22391661E+03</pdfrwt>
<pdfrwt beam="2">  1       21 0.35821126E-01 0.22391661E+03</pdfrwt>
<totfact> 0.63289259E+04</totfact>
</mgrwt>
</event>
<event>
 4    1  0.3973261E+000  0.2505362E+03  0.7546771E-02  0.1112966E+00
         21   -1    0    0  503  502  0.00000000000E+00  0.00000000000E+00  0.27765950066E+03  0.27765950066E+03  0.00000000000E+00 0. -1.
         21   -1    0    0  501  503 -0.00000000000E+00 -0.00000000000E+00 -0.25071961165E+03  0.25071961165E+03  0.00000000000E+00 0.  1.
          6    1    1    2  501    0 -0.23469270569E+02  0.17969030383E+03 -0.69380003705E+02  0.25996537629E+03  0.17300000000E+03 0.  1.
         -6    1    1    2    0  502  0.23469270569E+02 -0.17969030383E+03  0.96319892715E+02  0.26841373602E+03  0.17300000000E+03 0.  1.
<mgrwt>
<rscale>  2 0.25053625E+03</rscale>
<asrwt>0</asrwt>
<pdfrwt beam="1">  1       21 0.42716846E-01 0.25053625E+03</pdfrwt>
<pdfrwt beam="2">  1       21 0.38572248E-01 0.25053625E+03</pdfrwt>
<totfact> 0.33213478E+04</totfact>
</mgrwt>
</event>
<event>
 4    1  0.3973261E+000  0.1977636E+03  0.7546771E-02  0.1151640E+00
         21   -1    0    0  503  502  0.00000000000E+00  0.00000000000E+00  0.14372324867E+03  0.14372324867E+03  0.00000000000E+00 0. -1.
         21   -1    0    0  501  503 -0.00000000000E+00 -0.00000000000E+00 -0.31325779408E+03  0.31325779408E+03  0.00000000000E+00 0. -1.
          6    1    1    2  501    0 -0.28628635664E+01 -0.95776980954E+02 -0.16756549472E+03  0.25920767945E+03  0.17300000000E+03 0. -1.
         -6    1    1    2    0  502  0.28628635664E+01  0.95776980954E+02 -0.19690506873E+01  0.19777336330E+03  0.17300000000E+03 0. -1.
<mgrwt>
<rscale>  2 0.19776356E+03</rscale>
<asrwt>0</asrwt>
<pdfrwt beam="1">  1       21 0.22111269E-01 0.19776356E+03</pdfrwt>
<pdfrwt beam="2">  1       21 0.48193506E-01 0.19776356E+03</pdfrwt>
<totfact> 0.78477766E+04</totfact>
</mgrwt>
</event>
<event>
 4    1  0.3973261E+000  0.1772752E+03  0.7546771E-02  0.1170466E+00
         21   -1    0    0  501  502  0.00000000000E+00  0.00000000000E+00  0.19822823728E+03  0.19822823728E+03  0.00000000000E+00 0. -1.
         21   -1    0    0  502  503 -0.00000000000E+00 -0.00000000000E+00 -0.20746453407E+03  0.20746453407E+03  0.00000000000E+00 0. -1.
          6    1    1    2  501    0  0.37566386523E+02 -0.92883275816E+01  0.93889984256E+02  0.20060367786E+03  0.17300000000E+03 0. -1.
         -6    1    1    2    0  503 -0.37566386523E+02  0.92883275816E+01 -0.10312628105E+03  0.20508909349E+03  0.17300000000E+03 0. -1.
<mgrwt>
<rscale>  2 0.17727523E+03</rscale>
<asrwt>0</asrwt>
<pdfrwt beam="1">  1       21 0.30496652E-01 0.17727523E+03</pdfrwt>
<pdfrwt beam="2">  1       21 0.31917621E-01 0.17727523E+03</pdfrwt>
<totfact> 0.97993606E+04</totfact>
</mgrwt>
</event>
<event>
 4    1  0.3973261E+000  0.1802739E+03  0.7546771E-02  0.1167538E+00
         21   -1    0    0  503  502  0.00000000000E+00  0.00000000000E+00  0.29583024289E+02  0.29583024289E+02  0.00000000000E+00 0.  1.
         21   -1    0    0  501  503 -0.00000000000E+00 -0.00000000000E+00 -0.13615174698E+04  0.13615174698E+04  0.00000000000E+00 0.  1.
          6    1    1    2  501    0 -0.28931619125E+02  0.41625067499E+02 -0.97164286829E+03  0.98822494824E+03  0.17300000000E+03 0.  1.
         -6    1    1    2    0  502  0.28931619125E+02 -0.41625067499E+02 -0.36029157727E+03  0.40287554590E+03  0.17300000000E+03 0.  1.
<mgrwt>
<rscale>  2 0.18027392E+03</rscale>
<asrwt>0</asrwt>
<pdfrwt beam="1">  1       21 0.45512357E-02 0.18027392E+03</pdfrwt>
<pdfrwt beam="2">  1       21 0.20946417E+00 0.18027392E+03</pdfrwt>
<totfact> 0.37208090E+04</totfact>
</mgrwt>
</event>
<event>
 4    1  0.3973261E+000  0.1890878E+03  0.7546771E-02  0.1159287E+00
         21   -1    0    0  503  502  0.00000000000E+00  0.00000000000E+00  0.41373816278E+03  0.41373816278E+03  0.00000000000E+00 0. -1.
         21   -1    0    0  501  503 -0.00000000000E+00 -0.00000000000E+00 -0.89700983143E+02  0.89700983143E+02  0.00000000000E+00 0. -1.
          6    1    1    2  501    0 -0.75934774078E+02  0.76891693956E+01  0.11385858848E+03  0.22072152458E+03  0.17300000000E+03 0. -1.
         -6    1    1    2    0  502  0.75934774078E+02 -0.76891693956E+01  0.21017859115E+03  0.28271762134E+03  0.17300000000E+03 0. -1.
<mgrwt>
<rscale>  2 0.18908785E+03</rscale>
<asrwt>0</asrwt>
<pdfrwt beam="1">  1       21 0.63652024E-01 0.18908785E+03</pdfrwt>
<pdfrwt beam="2">  1       21 0.13800152E-01 0.18908785E+03</pdfrwt>
<totfact> 0.10423938E+05</totfact>
</mgrwt>
</event>
<event>
 4    1  0.3973261E+000  0.1852378E+03  0.7546771E-02  0.1162828E+00
         21   -1    0    0  501  502  0.00000000000E+00  0.00000000000E+00  0.88313198572E+03  0.88313198572E+03  0.00000000000E+00 0. -1.
         21   -1    0    0  502  503 -0.00000000000E+00 -0.00000000000E+00 -0.16073550185E+03  0.16073550185E+03  0.00000000000E+00 0. -1.
          6    1    1    2  501    0  0.76581623282E+01  0.65767611167E+02  0.81569285502E+03  0.83646151128E+03  0.17300000000E+03 0. -1.
         -6    1    1    2    0  503 -0.76581623282E+01 -0.65767611167E+02 -0.93296371146E+02  0.20740597628E+03  0.17300000000E+03 0. -1.
<mgrwt>
<rscale>  2 0.18523776E+03</rscale>
<asrwt>0</asrwt>
<pdfrwt beam="1">  1       21 0.13586646E+00 0.18523776E+03</pdfrwt>
<pdfrwt beam="2">  1       21 0.24728539E-01 0.18523776E+03</pdfrwt>
<totfact> 0.60132074E+03</totfact>
</mgrwt>
</event>
<event>
 4    1  0.3973261E+000  0.1815240E+03  0.7546771E-02  0.1166336E+00
         21   -1    0    0  501  502  0.00000000000E+00  0.00000000000E+00  0.78343148585E+02  0.78343148585E+02  0.00000000000E+00 0.  1.
         21   -1    0    0  502  503 -0.00000000000E+00 -0.00000000000E+00 -0.19429976767E+04  0.19429976767E+04  0.00000000000E+00 0.  1.
          6    1    1    2  501    0  0.44047979962E+02  0.32889546958E+02 -0.37708922460E+02  0.18539932489E+03  0.17300000000E+03 0.  1.
         -6    1    1    2    0  503 -0.44047979962E+02 -0.32889546958E+02 -0.18269456057E+04  0.18359415004E+04  0.17300000000E+03 0.  1.
<mgrwt>
<rscale>  2 0.18152396E+03</rscale>
<asrwt>0</asrwt>
<pdfrwt beam="1">  1       21 0.12052793E-01 0.18152396E+03</pdfrwt>
<pdfrwt beam="2">  1       21 0.29892270E+00 0.18152396E+03</pdfrwt>
<totfact> 0.20455450E+03</totfact>
</mgrwt>
</event>
<event>
 4    1  0.3973261E+000  0.2293309E+03  0.7546771E-02  0.1127112E+00
         21   -1    0    0  503  502  0.00000000000E+00  0.00000000000E+00  0.12815905696E+03  0.12815905696E+03  0.00000000000E+00 0.  1.
         21   -1    0    0  501  503 -0.00000000000E+00 -0.00000000000E+00 -0.56874421801E+03  0.56874421801E+03  0.00000000000E+00 0.  1.
          6    1    1    2  501    0 -0.93115849527E+02 -0.11829243698E+03 -0.40416895607E+03  0.46469905006E+03  0.17300000000E+03 0.  1.
         -6    1    1    2    0  502  0.93115849527E+02  0.11829243698E+03 -0.36416204979E+02  0.23220422491E+03  0.17300000000E+03 0.  1.
<mgrwt>
<rscale>  2 0.22933090E+03</rscale>
<asrwt>0</asrwt>
<pdfrwt beam="1">  1       21 0.19716778E-01 0.22933090E+03</pdfrwt>
<pdfrwt beam="2">  1       21 0.87499110E-01 0.22933090E+03</pdfrwt>
<totfact> 0.26044744E+04</totfact>
</mgrwt>
</event>
<event>
 4    1  0.3973261E+000  0.2136496E+03  0.7546771E-02  0.1138708E+00
         21   -1    0    0  501  502  0.00000000000E+00  0.00000000000E+00  0.68269659649E+02  0.68269659649E+02  0.00000000000E+00 0. -1.
         21   -1    0    0  502  503 -0.00000000000E+00 -0.00000000000E+00 -0.82084426608E+03  0.82084426608E+03  0.00000000000E+00 0.  1.
          6    1    1    2  501    0 -0.12066841786E+03 -0.34004296000E+02 -0.18484176107E+03  0.28251130216E+03  0.17300000000E+03 0. -1.
         -6    1    1    2    0  503  0.12066841786E+03  0.34004296000E+02 -0.56773284536E+03  0.60660262356E+03  0.17300000000E+03 0.  1.
<mgrwt>
<rscale>  2 0.21364962E+03</rscale>
<asrwt>0</asrwt>
<pdfrwt beam="1">  1       21 0.10503025E-01 0.21364962E+03</pdfrwt>
<pdfrwt beam="2">  1       21 0.12628373E+00 0.21364962E+03</pdfrwt>
<totfact> 0.34178601E+04</totfact>
</mgrwt>
</event>
<event>
 4    1  0.3973261E+000  0.2010656E+03  0.7546771E-02  0.1148843E+00
         21   -1    0    0  503  502  0.00000000000E+00  0.00000000000E+00  0.58276237754E+02  0.58276237754E+02  0.00000000000E+00 0.  1.
         21   -1    0    0  501  503 -0.00000000000E+00 -0.00000000000E+00 -0.70967341391E+03  0.70967341391E+03  0.00000000000E+00 0.  1.
          6    1    1    2  501    0 -0.82999081901E+02  0.60079200162E+02 -0.38327017322E+03  0.43280871476E+03  0.17300000000E+03 0.  1.
         -6    1    1    2    0  502  0.82999081901E+02 -0.60079200162E+02 -0.26812700293E+03  0.33514093691E+03  0.17300000000E+03 0.  1.
<mgrwt>
<rscale>  2 0.20106556E+03</rscale>
<asrwt>0</asrwt>
<pdfrwt beam="1">  1       21 0.89655751E-02 0.20106556E+03</pdfrwt>
<pdfrwt beam="2">  1       21 0.10918052E+00 0.20106556E+03</pdfrwt>
<totfact> 0.65129646E+04</totfact>
</mgrwt>
</event>
<event>
 4    1  0.3973261E+000  0.2807327E+03  0.7546771E-02  0.1095289E+00
         21   -1    0    0  501  502  0.00000000000E+00  0.00000000000E+00  0.11282629721E+04  0.11282629721E+04  0.00000000000E+00 0.  1.
         21   -1    0    0  502  503 -0.00000000000E+00 -0.00000000000E+00 -0.73560089789E+02  0.73560089789E+02  0.00000000000E+00 0.  1.
          6    1    1    2  501    0  0.12719787956E+02 -0.22072622716E+03  0.39242600070E+03  0.48250287708E+03  0.17300000000E+03 0.  1.
         -6    1    1    2    0  503 -0.12719787956E+02  0.22072622716E+03  0.66227688160E+03  0.71932018480E+03  0.17300000000E+03 0.  1.
<mgrwt>
<rscale>  2 0.28073272E+03</rscale>
<asrwt>0</asrwt>
<pdfrwt beam="1">  1       21 0.17357891E+00 0.28073272E+03</pdfrwt>
<pdfrwt beam="2">  1       21 0.11316938E-01 0.28073272E+03</pdfrwt>
<totfact> 0.12394008E+04</totfact>
</mgrwt>
</event>
<event>
 4    1  0.3973261E+000  0.2068005E+03  0.7546771E-02  0.1144125E+00
         21   -1    0    0  503  502  0.00000000000E+00  0.00000000000E+00  0.26270028725E+03  0.26270028725E+03  0.00000000000E+00 0.  1.
         21   -1    0    0  501  503 -0.00000000000E+00 -0.00000000000E+00 -0.17283472877E+03  0.17283472877E+03  0.00000000000E+00 0. -1.
          6    1    1    2  501    0  0.96425417988E+02 -0.59494533308E+02 -0.75509609507E+01  0.20693834284E+03  0.17300000000E+03 0. -1.
         -6    1    1    2    0  502 -0.96425417988E+02  0.59494533308E+02  0.97416519432E+02  0.22859667317E+03  0.17300000000E+03 0.  1.
<mgrwt>
<rscale>  2 0.20680053E+03</rscale>
<asrwt>0</asrwt>
<pdfrwt beam="1">  1       21 0.40415429E-01 0.20680053E+03</pdfrwt>
<pdfrwt beam="2">  1       21 0.26589958E-01 0.20680053E+03</pdfrwt>
<totfact> 0.78916408E+04</totfact>
</mgrwt>
</event>
<event>
 4    1  0.3973261E+000  0.1822392E+03  0.7546771E-02  0.1165653E+00
         21   -1    0    0  501  502  0.00000000000E+00  0.00000000000E+00  0.11536776357E+04  0.11536776357E+04  0.00000000000E+00 0.  1.
         21   -1    0    0  502  503 -0.00000000000E+00 -0.00000000000E+00 -0.29103594831E+02  0.29103594831E+02  0.00000000000E+00 0.  1.
          6    1    1    2  501    0  0.12192488303E+01 -0.57276765462E+02  0.50062237112E+03  0.53276061500E+03  0.17300000000E+03 0.  1.
         -6    1    1    2    0  503 -0.12192488303E+01  0.57276765462E+02  0.62395166970E+03  0.65002061548E+03  0.17300000000E+03 0.  1.
<mgrwt>
<rscale>  2 0.18223917E+03</rscale>
<asrwt>0</asrwt>
<pdfrwt beam="1">  1       21 0.17748883E+00 0.18223917E+03</pdfrwt>
<pdfrwt beam="2">  1       21 0.44774770E-02 0.18223917E+03</pdfrwt>
<totfact> 0.61739986E+04</totfact>
</mgrwt>
</event>
<event>
 4    1  0.3973261E+000  0.1755472E+03  0.7546771E-02  0.1172183E+00
         21   -1    0    0  503  502  0.00000000000E+00  0.00000000000E+00  0.62680048734E+03  0.62680048734E+03  0.00000000000E+00 0.  1.
         21   -1    0    0  501  503 -0.00000000000E+00 -0.00000000000E+00 -0.53241477200E+02  0.53241477200E+02  0.00000000000E+00 0.  1.
          6    1    1    2  501    0 -0.10203056910E+02  0.27995096085E+02  0.19269724835E+03  0.26067039973E+03  0.17300000000E+03 0. -1.
         -6    1    1    2    0  502  0.10203056910E+02 -0.27995096085E+02  0.38086176179E+03  0.41937156480E+03  0.17300000000E+03 0. -1.
<mgrwt>
<rscale>  2 0.17554722E+03</rscale>
<asrwt>0</asrwt>
<pdfrwt beam="1">  1       21 0.96430839E-01 0.17554722E+03</pdfrwt>
<pdfrwt beam="2">  1       21 0.81909969E-02 0.17554722E+03</pdfrwt>
<totfact> 0.10373117E+05</totfact>
</mgrwt>
</event>
<event>
 4    1  0.3973261E+000  0.1934194E+03  0.7546771E-02  0.1155413E+00
         21   -1    0    0  503  502  0.00000000000E+00  0.00000000000E+00  0.47107423579E+02  0.47107423579E+02  0.00000000000E+00 0. -1.
         21   -1    0    0  501  503 -0.00000000000E+00 -0.00000000000E+00 -0.10961540677E+04  0.10961540677E+04  0.00000000000E+00 0. -1.
          6    1    1    2  501    0  0.86288195363E+02 -0.60338846548E+01 -0.82456078980E+03  0.84694247532E+03  0.17300000000E+03 0. -1.
         -6    1    1    2    0  502 -0.86288195363E+02  0.60338846548E+01 -0.22448585427E+03  0.29631901591E+03  0.17300000000E+03 0. -1.
<mgrwt>
<rscale>  2 0.19341939E+03</rscale>
<asrwt>0</asrwt>
<pdfrwt beam="1">  1       21 0.72472966E-02 0.19341939E+03</pdfrwt>
<pdfrwt beam="2">  1       21 0.16863907E+00 0.19341939E+03</pdfrwt>
<totfact> 0.31061307E+04</totfact>
</mgrwt>
</event>
<event>
 4    1  0.3973261E+000  0.1942489E+03  0.7546771E-02  0.1154684E+00
         21   -1    0    0  503  502  0.00000000000E+00  0.00000000000E+00  0.16493591704E+03  0.16493591704E+03  0.00000000000E+00 0.  1.
         21   -1    0    0  501  503 -0.00000000000E+00 -0.00000000000E+00 -0.33436634590E+03  0.33436634590E+03  0.00000000000E+00 0.  1.
          6    1    1    2  501    0 -0.80907956218E+02  0.35461923295E+02 -0.22501064196E+03  0.29725819480E+03  0.17300000000E+03 0.  1.
         -6    1    1    2    0  502  0.80907956218E+02 -0.35461923295E+02  0.55580213097E+02  0.20204406814E+03  0.17300000000E+03 0.  1.
<mgrwt>
<rscale>  2 0.19424893E+03</rscale>
<asrwt>0</asrwt>
<pdfrwt beam="1">  1       21 0.25374756E-01 0.19424893E+03</pdfrwt>
<pdfrwt beam="2">  1       21 0.51440977E-01 0.19424893E+03</pdfrwt>
<totfact> 0.52826806E+04</totfact>
</mgrwt>
</event>
<event>
 4    1  0.3973261E+000  0.2494260E+03  0.7546771E-02  0.1113668E+00
         21   -1    0    0  501  502  0.00000000000E+00  0.00000000000E+00  0.10649174187E+04  0.10649174187E+04  0.00000000000E+00 0.  1.
         21   -1    0    0  502  503 -0.00000000000E+00 -0.00000000000E+00 -0.95567579508E+02  0.95567579508E+02  0.00000000000E+00 0.  1.
          6    1    1    2  501    0  0.33381672291E+02 -0.17655027133E+03  0.84643012432E+03  0.88241559920E+03  0.17300000000E+03 0.  1.
         -6    1    1    2    0  503 -0.33381672291E+02  0.17655027133E+03  0.12291971484E+03  0.27806939898E+03  0.17300000000E+03 0.  1.
<mgrwt>
<rscale>  2 0.24942601E+03</rscale>
<asrwt>0</asrwt>
<pdfrwt beam="1">  1       21 0.16383344E+00 0.24942601E+03</pdfrwt>
<pdfrwt beam="2">  1       21 0.14702705E-01 0.24942601E+03</pdfrwt>
<totfact> 0.92242249E+03</totfact>
</mgrwt>
</event>
<event>
 4    1  0.3973261E+000  0.2742853E+03  0.7546771E-02  0.1098852E+00
         21   -1    0    0  503  502  0.00000000000E+00  0.00000000000E+00  0.16576239580E+04  0.16576239580E+04  0.00000000000E+00 0. -1.
         21   -1    0    0  501  503 -0.00000000000E+00 -0.00000000000E+00 -0.55745775795E+02  0.55745775795E+02  0.00000000000E+00 0. -1.
          6    1    1    2  501    0  0.11040531185E+03  0.18197274350E+03  0.43162428090E+03  0.51140192816E+03  0.17300000000E+03 0. -1.
         -6    1    1    2    0  502 -0.11040531185E+03 -0.18197274350E+03  0.11702539013E+04  0.12019678056E+04  0.17300000000E+03 0. -1.
<mgrwt>
<rscale>  2 0.27428528E+03</rscale>
<asrwt>0</asrwt>
<pdfrwt beam="1">  1       21 0.25501903E+00 0.27428528E+03</pdfrwt>
<pdfrwt beam="2">  1       21 0.85762744E-02 0.27428528E+03</pdfrwt>
<totfact> 0.61538846E+03</totfact>
</mgrwt>
</event>
<event>
 4    1  0.3973261E+000  0.2233334E+03  0.7546771E-02  0.1131422E+00
         21   -1    0    0  503  502  0.00000000000E+00  0.00000000000E+00  0.70161153753E+03  0.70161153753E+03  0.00000000000E+00 0. -1.
         21   -1    0    0  501  503 -0.00000000000E+00 -0.00000000000E+00 -0.74201200358E+02  0.74201200358E+02  0.00000000000E+00 0. -1.
          6    1    1    2  501    0 -0.90515558686E+02  0.10842394299E+03  0.23427962274E+03  0.32367384727E+03  0.17300000000E+03 0. -1.
         -6    1    1    2    0  502  0.90515558686E+02 -0.10842394299E+03  0.39313071443E+03  0.45213889061E+03  0.17300000000E+03 0. -1.
<mgrwt>
<rscale>  2 0.22333342E+03</rscale>
<asrwt>0</asrwt>
<pdfrwt beam="1">  1       21 0.10794023E+00 0.22333342E+03</pdfrwt>
<pdfrwt beam="2">  1       21 0.11415570E-01 0.22333342E+03</pdfrwt>
<totfact> 0.43166154E+04</totfact>
</mgrwt>
</event>
<event>
 4    1  0.3973261E+000  0.2014072E+03  0.7546771E-02  0.1148557E+00
         21   -1    0    0  501  502  0.00000000000E+00  0.00000000000E+00  0.16956498199E+03  0.16956498199E+03  0.00000000000E+00 0.  1.
         21   -1    0    0  502  503 -0.00000000000E+00 -0.00000000000E+00 -0.24638948735E+03  0.24638948735E+03  0.00000000000E+00 0.  1.
          6    1    1    2  501    0  0.97935141927E+02 -0.32319870962E+02 -0.29574471391E+01  0.20142892686E+03  0.17300000000E+03 0.  1.
         -6    1    1    2    0  503 -0.97935141927E+02  0.32319870962E+02 -0.73867058217E+02  0.21452554247E+03  0.17300000000E+03 0.  1.
<mgrwt>
<rscale>  2 0.20140721E+03</rscale>
<asrwt>0</asrwt>
<pdfrwt beam="1">  1       21 0.26086920E-01 0.20140721E+03</pdfrwt>
<pdfrwt beam="2">  1       21 0.37906075E-01 0.20140721E+03</pdfrwt>
<totfact> 0.93375356E+04</totfact>
</mgrwt>
</event>
<event>
 4    1  0.3973261E+000  0.2084030E+03  0.7546771E-02  0.1142837E+00
         21   -1    0    0  503  502  0.00000000000E+00  0.00000000000E+00  0.76946265318E+03  0.76946265318E+03  0.00000000000E+00 0. -1.
         21   -1    0    0  501  503 -0.00000000000E+00 -0.00000000000E+00 -0.68604147696E+02  0.68604147696E+02  0.00000000000E+00 0. -1.
          6    1    1    2  501    0  0.20464870930E+02  0.11438538814E+03  0.17401387923E+03  0.27150075161E+03  0.17300000000E+03 0. -1.
         -6    1    1    2    0  502 -0.20464870930E+02 -0.11438538814E+03  0.52684462626E+03  0.56656604927E+03  0.17300000000E+03 0. -1.
<mgrwt>
<rscale>  2 0.20840304E+03</rscale>
<asrwt>0</asrwt>
<pdfrwt beam="1">  1       21 0.11837886E+00 0.20840304E+03</pdfrwt>
<pdfrwt beam="2">  1       21 0.10554485E-01 0.20840304E+03</pdfrwt>
<totfact> 0.39935265E+04</totfact>
</mgrwt>
</event>
<event>
 4    1  0.3973261E+000  0.1818536E+03  0.7546771E-02  0.1166021E+00
         21   -1    0    0  501  502  0.00000000000E+00  0.00000000000E+00  0.72384053342E+02  0.72384053342E+02  0.00000000000E+00 0.  1.
         21   -1    0    0  502  503 -0.00000000000E+00 -0.00000000000E+00 -0.46198342849E+03  0.46198342849E+03  0.00000000000E+00 0. -1.
          6    1    1    2  501    0  0.22945854021E+02 -0.51139301934E+02 -0.16671443613E+03  0.24670720223E+03  0.17300000000E+03 0.  1.
         -6    1    1    2    0  503 -0.22945854021E+02  0.51139301934E+02 -0.22288493902E+03  0.28766027960E+03  0.17300000000E+03 0. -1.
<mgrwt>
<rscale>  2 0.18185362E+03</rscale>
<asrwt>0</asrwt>
<pdfrwt beam="1">  1       21 0.11136008E-01 0.18185362E+03</pdfrwt>
<pdfrwt beam="2">  1       21 0.71074376E-01 0.18185362E+03</pdfrwt>
<totfact> 0.12060418E+05</totfact>
</mgrwt>
</event>
<event>
 4    1  0.3973261E+000  0.2456951E+03  0.7546771E-02  0.1116056E+00
         21   -1    0    0  503  502  0.00000000000E+00  0.00000000000E+00  0.23785889952E+03  0.23785889952E+03  0.00000000000E+00 0. -1.
         21   -1    0    0  501  503 -0.00000000000E+00 -0.00000000000E+00 -0.32469445380E+03  0.32469445380E+03  0.00000000000E+00 0. -1.
          6    1    1    2  501    0 -0.16802032788E+03  0.46970677484E+02 -0.17485996607E+03  0.30156605057E+03  0.17300000000E+03 0. -1.
         -6    1    1    2    0  502  0.16802032788E+03 -0.46970677484E+02  0.88024411785E+02  0.26098730275E+03  0.17300000000E+03 0. -1.
<mgrwt>
<rscale>  2 0.24569509E+03</rscale>
<asrwt>0</asrwt>
<pdfrwt beam="1">  1       21 0.36593677E-01 0.24569509E+03</pdfrwt>
<pdfrwt beam="2">  1       21 0.49952993E-01 0.24569509E+03</pdfrwt>
<totfact> 0.26751647E+04</totfact>
</mgrwt>
</event>
<event>
 4    1  0.3973261E+000  0.1763521E+03  0.7546771E-02  0.1171381E+00
         21   -1    0    0  501  502  0.00000000000E+00  0.00000000000E+00  0.38245598020E+03  0.38245598020E+03  0.00000000000E+00 0.  1.
         21   -1    0    0  502  503 -0.00000000000E+00 -0.00000000000E+00 -0.37347458486E+03  0.37347458486E+03  0.00000000000E+00 0.  1.
          6    1    1    2  501    0 -0.29058173610E+02  0.18074098832E+02  0.33878594662E+03  0.38193712588E+03  0.17300000000E+03 0.  1.
         -6    1    1    2    0  503  0.29058173610E+02 -0.18074098832E+02 -0.32980455128E+03  0.37399343917E+03  0.17300000000E+03 0.  1.
<mgrwt>
<rscale>  2 0.17635206E+03</rscale>
<asrwt>0</asrwt>
<pdfrwt beam="1">  1       21 0.58839382E-01 0.17635206E+03</pdfrwt>
<pdfrwt beam="2">  1       21 0.57457628E-01 0.17635206E+03</pdfrwt>
<totfact> 0.77736488E+03</totfact>
</mgrwt>
</event>
<event>
 4    1  0.3973261E+000  0.1850998E+03  0.7546771E-02  0.1162957E+00
         21   -1    0    0  503  502  0.00000000000E+00  0.00000000000E+00  0.12905164150E+03  0.12905164150E+03  0.00000000000E+00 0.  1.
         21   -1    0    0  501  503 -0.00000000000E+00 -0.00000000000E+00 -0.46601177155E+03  0.46601177155E+03  0.00000000000E+00 0.  1.
          6    1    1    2  501    0  0.62621039880E+02  0.20286794444E+02 -0.36365108780E+03  0.40804909303E+03  0.17300000000E+03 0.  1.
         -6    1    1    2    0  502 -0.62621039880E+02 -0.20286794444E+02  0.26690957751E+02  0.18701432001E+03  0.17300000000E+03 0.  1.
<mgrwt>
<rscale>  2 0.18509983E+03</rscale>
<asrwt>0</asrwt>
<pdfrwt beam="1">  1       21 0.19854098E-01 0.18509983E+03</pdfrwt>
<pdfrwt beam="2">  1       21 0.71694120E-01 0.18509983E+03</pdfrwt>
<totfact> 0.41284066E+04</totfact>
</mgrwt>
</event>
<event>
 4    1  0.3973261E+000  0.1779485E+03  0.7546771E-02  0.1169803E+00
         21   -1    0    0  501  502  0.00000000000E+00  0.00000000000E+00  0.16709655006E+03  0.16709655006E+03  0.00000000000E+00 0. -1.
         21   -1    0    0  502  503 -0.00000000000E+00 -0.00000000000E+00 -0.27753980189E+03  0.27753980189E+03  0.00000000000E+00 0. -1.
          6    1    1    2  501    0 -0.67989028846E+01 -0.41114794776E+02  0.69988438295E+02  0.19121724014E+03  0.17300000000E+03 0. -1.
         -6    1    1    2    0  503  0.67989028846E+01  0.41114794776E+02 -0.18043169013E+03  0.25341911182E+03  0.17300000000E+03 0. -1.
<mgrwt>
<rscale>  2 0.17794845E+03</rscale>
<asrwt>0</asrwt>
<pdfrwt beam="1">  1       21 0.25707162E-01 0.17794845E+03</pdfrwt>
<pdfrwt beam="2">  1       21 0.42698431E-01 0.17794845E+03</pdfrwt>
<totfact> 0.76227905E+04</totfact>
</mgrwt>
</event>
<event>
 4    1  0.3973261E+000  0.2114151E+03  0.7546771E-02  0.1140450E+00
         21   -1    0    0  501  502  0.00000000000E+00  0.00000000000E+00  0.74873844411E+03  0.74873844411E+03  0.00000000000E+00 0. -1.
         21   -1    0    0  502  503 -0.00000000000E+00 -0.00000000000E+00 -0.86204029231E+02  0.86204029231E+02  0.00000000000E+00 0. -1.
          6    1    1    2  501    0 -0.96263742823E+02 -0.74166415698E+02  0.56276936833E+03  0.60117029811E+03  0.17300000000E+03 0. -1.
         -6    1    1    2    0  503  0.96263742823E+02  0.74166415698E+02  0.99765046552E+02  0.23377217523E+03  0.17300000000E+03 0. -1.
<mgrwt>
<rscale>  2 0.21141515E+03</rscale>
<asrwt>0</asrwt>
<pdfrwt beam="1">  1       21 0.11519053E+00 0.21141515E+03</pdfrwt>
<pdfrwt beam="2">  1       21 0.13262159E-01 0.21141515E+03</pdfrwt>
<totfact> 0.28318838E+04</totfact>
</mgrwt>
</event>
<event>
 4    1  0.3973261E+000  0.1793962E+03  0.7546771E-02  0.1168389E+00
         21   -1    0    0  501  502  0.00000000000E+00  0.00000000000E+00  0.72077348884E+02  0.72077348884E+02  0.00000000000E+00 0. -1.
         21   -1    0    0  502  503 -0.00000000000E+00 -0.00000000000E+00 -0.46565963318E+03  0.46565963318E+03  0.00000000000E+00 0. -1.
          6    1    1    2  501    0  0.46726901578E+02  0.84020039737E+01 -0.14226224030E+03  0.22895751138E+03  0.17300000000E+03 0.  1.
         -6    1    1    2    0  503 -0.46726901578E+02 -0.84020039737E+01 -0.25132004399E+03  0.30877947068E+03  0.17300000000E+03 0.  1.
<mgrwt>
<rscale>  2 0.17939620E+03</rscale>
<asrwt>0</asrwt>
<pdfrwt beam="1">  1       21 0.11088823E-01 0.17939620E+03</pdfrwt>
<pdfrwt beam="2">  1       21 0.71639945E-01 0.17939620E+03</pdfrwt>
<totfact> 0.11951763E+05</totfact>
</mgrwt>
</event>
<event>
 4    1  0.3973261E+000  0.1790922E+03  0.7546771E-02  0.1168685E+00
         21   -1    0    0  503  502  0.00000000000E+00  0.00000000000E+00  0.33607522253E+03  0.33607522253E+03  0.00000000000E+00 0. -1.
         21   -1    0    0  501  503 -0.00000000000E+00 -0.00000000000E+00 -0.21692971641E+03  0.21692971641E+03  0.00000000000E+00 0.  1.
          6    1    1    2  501    0 -0.20122319622E+02  0.41714660193E+02 -0.14735300754E+03  0.23192009282E+03  0.17300000000E+03 0.  1.
         -6    1    1    2    0  502  0.20122319622E+02 -0.41714660193E+02  0.26649851367E+03  0.32108484612E+03  0.17300000000E+03 0. -1.
<mgrwt>
<rscale>  2 0.17909221E+03</rscale>
<asrwt>0</asrwt>
<pdfrwt beam="1">  1       21 0.51703881E-01 0.17909221E+03</pdfrwt>
<pdfrwt beam="2">  1       21 0.33373802E-01 0.17909221E+03</pdfrwt>
<totfact> 0.30942305E+04</totfact>
</mgrwt>
</event>
<event>
 4    1  0.3973261E+000  0.2188361E+03  0.7546771E-02  0.1134754E+00
         21   -1    0    0  501  502  0.00000000000E+00  0.00000000000E+00  0.10301154896E+04  0.10301154896E+04  0.00000000000E+00 0. -1.
         21   -1    0    0  502  503 -0.00000000000E+00 -0.00000000000E+00 -0.67777388210E+02  0.67777388210E+02  0.00000000000E+00 0.  1.
          6    1    1    2  501    0  0.13219968565E+03  0.21987835920E+02  0.78881920532E+03  0.81861160540E+03  0.17300000000E+03 0. -1.
         -6    1    1    2    0  503 -0.13219968565E+03 -0.21987835920E+02  0.17351889602E+03  0.27928127236E+03  0.17300000000E+03 0.  1.
<mgrwt>
<rscale>  2 0.21883606E+03</rscale>
<asrwt>0</asrwt>
<pdfrwt beam="1">  1       21 0.15847929E+00 0.21883606E+03</pdfrwt>
<pdfrwt beam="2">  1       21 0.10427291E-01 0.21883606E+03</pdfrwt>
<totfact> 0.19121684E+04</totfact>
</mgrwt>
</event>
<event>
 4    1  0.3973261E+000  0.1841025E+03  0.7546771E-02  0.1163891E+00
         21   -1    0    0  503  502  0.00000000000E+00  0.00000000000E+00  0.89937460201E+02  0.89937460201E+02  0.00000000000E+00 0.  1.
         21   -1    0    0  501  503 -0.00000000000E+00 -0.00000000000E+00 -0.67982525024E+03  0.67982525024E+03  0.00000000000E+00 0.  1.
          6    1    1    2  501    0 -0.29021135266E+02  0.55879245411E+02 -0.55188024616E+03  0.58177789788E+03  0.17300000000E+03 0.  1.
         -6    1    1    2    0  502  0.29021135266E+02 -0.55879245411E+02 -0.38007543873E+02  0.18798481255E+03  0.17300000000E+03 0.  1.
<mgrwt>
<rscale>  2 0.18410246E+03</rscale>
<asrwt>0</asrwt>
<pdfrwt beam="1">  1       21 0.13836532E-01 0.18410246E+03</pdfrwt>
<pdfrwt beam="2">  1       21 0.10458850E+00 0.18410246E+03</pdfrwt>
<totfact> 0.33656654E+04</totfact>
</mgrwt>
</event>
<event>
 4    1  0.3973261E+000  0.1764148E+03  0.7546771E-02  0.1171319E+00
         21   -1    0    0  501  502  0.00000000000E+00  0.00000000000E+00  0.72132829104E+02  0.72132829104E+02  0.00000000000E+00 0. -1.
         21   -1    0    0  502  503 -0.00000000000E+00 -0.00000000000E+00 -0.64755217873E+03  0.64755217873E+03  0.00000000000E+00 0. -1.
          6    1    1    2  501    0 -0.33532191963E+02  0.82920620548E+01 -0.79836580398E+02  0.19363895724E+03  0.17300000000E+03 0. -1.
         -6    1    1    2    0  503  0.33532191963E+02 -0.82920620548E+01 -0.49558276922E+03  0.52604605059E+03  0.17300000000E+03 0. -1.
<mgrwt>
<rscale>  2 0.17641476E+03</rscale>
<asrwt>0</asrwt>
<pdfrwt beam="1">  1       21 0.11097359E-01 0.17641476E+03</pdfrwt>
<pdfrwt beam="2">  1       21 0.99623410E-01 0.17641476E+03</pdfrwt>
<totfact> 0.56329770E+04</totfact>
</mgrwt>
</event>
<event>
 4    1  0.3973261E+000  0.2418682E+03  0.7546771E-02  0.1118555E+00
         21   -1    0    0  503  502  0.00000000000E+00  0.00000000000E+00  0.72731979577E+03  0.72731979577E+03  0.00000000000E+00 0. -1.
         21   -1    0    0  501  503 -0.00000000000E+00 -0.00000000000E+00 -0.16667701914E+03  0.16667701914E+03  0.00000000000E+00 0. -1.
          6    1    1    2  501    0 -0.94292268697E+02 -0.14028612863E+03 -0.41217560631E+02  0.24535508376E+03  0.17300000000E+03 0. -1.
         -6    1    1    2    0  502  0.94292268697E+02  0.14028612863E+03  0.60186033726E+03  0.64864173115E+03  0.17300000000E+03 0. -1.
<mgrwt>
<rscale>  2 0.24186821E+03</rscale>
<asrwt>0</asrwt>
<pdfrwt beam="1">  1       21 0.11189535E+00 0.24186821E+03</pdfrwt>
<pdfrwt beam="2">  1       21 0.25642619E-01 0.24186821E+03</pdfrwt>
<totfact> 0.87471287E+03</totfact>
</mgrwt>
</event>
<event>
 4    1  0.3973261E+000  0.1980482E+03  0.7546771E-02  0.1151396E+00
         21   -1    0    0  503  502  0.00000000000E+00  0.00000000000E+00  0.21737612566E+02  0.21737612566E+02  0.00000000000E+00 0.  1.
         21   -1    0    0  501  503 -0.00000000000E+00 -0.00000000000E+00 -0.19702523476E+04  0.19702523476E+04  0.00000000000E+00 0. -1.
          6    1    1    2  501    0 -0.84311248584E+02 -0.46751580693E+02 -0.12632402792E+04  0.12786708333E+04  0.17300000000E+03 0. -1.
         -6    1    1    2    0  502  0.84311248584E+02  0.46751580693E+02 -0.68527445581E+03  0.71331912684E+03  0.17300000000E+03 0.  1.
<mgrwt>
<rscale>  2 0.19804822E+03</rscale>
<asrwt>0</asrwt>
<pdfrwt beam="1">  1       21 0.33442475E-02 0.19804822E+03</pdfrwt>
<pdfrwt beam="2">  1       21 0.30311580E+00 0.19804822E+03</pdfrwt>
<totfact> 0.17212912E+04</totfact>
</mgrwt>
</event>
<event>
 4    1  0.3973261E+000  0.3078491E+03  0.7546771E-02  0.1081381E+00
         21   -1    0    0  501  502  0.00000000000E+00  0.00000000000E+00  0.32920780599E+03  0.32920780599E+03  0.00000000000E+00 0. -1.
         21   -1    0    0  502  503 -0.00000000000E+00 -0.00000000000E+00 -0.69741890411E+03  0.69741890411E+03  0.00000000000E+00 0.  1.
          6    1    1    2  501    0 -0.22937536230E+03  0.11058475819E+03  0.20925008763E+03  0.37223197706E+03  0.17300000000E+03 0. -1.
         -6    1    1    2    0  503  0.22937536230E+03 -0.11058475819E+03 -0.57746118575E+03  0.65439473304E+03  0.17300000000E+03 0.  1.
<mgrwt>
<rscale>  2 0.30784906E+03</rscale>
<asrwt>0</asrwt>
<pdfrwt beam="1">  1       21 0.50647355E-01 0.30784906E+03</pdfrwt>
<pdfrwt beam="2">  1       21 0.10729522E+00 0.30784906E+03</pdfrwt>
<totfact> 0.23706828E+03</totfact>
</mgrwt>
</event>
<event>
 4    1  0.3973261E+000  0.1815999E+03  0.7546771E-02  0.1166264E+00
         21   -1    0    0  503  502  0.00000000000E+00  0.00000000000E+00  0.16883776506E+04  0.16883776506E+04  0.00000000000E+00 0.  1.
         21   -1    0    0  501  503 -0.00000000000E+00 -0.00000000000E+00 -0.85255263536E+02  0.85255263536E+02  0.00000000000E+00 0.  1.
          6    1    1    2  501    0  0.34125740965E+02 -0.43416014576E+02  0.22932321580E+02  0.18304209322E+03  0.17300000000E+03 0.  1.
         -6    1    1    2    0  502 -0.34125740965E+02  0.43416014576E+02  0.15801900655E+04  0.15905908209E+04  0.17300000000E+03 0.  1.
<mgrwt>
<rscale>  2 0.18159988E+03</rscale>
<asrwt>0</asrwt>
<pdfrwt beam="1">  1       21 0.25975038E+00 0.18159988E+03</pdfrwt>
<pdfrwt beam="2">  1       21 0.13116196E-01 0.18159988E+03</pdfrwt>
<totfact> 0.29540372E+03</totfact>
</mgrwt>
</event>
<event>
 4    1  0.3973261E+000  0.1733513E+03  0.7546771E-02  0.1174397E+00
         21   -1    0    0  501  502  0.00000000000E+00  0.00000000000E+00  0.68691551924E+02  0.68691551924E+02  0.00000000000E+00 0. -1.
         21   -1    0    0  502  503 -0.00000000000E+00 -0.00000000000E+00 -0.55684826839E+03  0.55684826839E+03  0.00000000000E+00 0. -1.
          6    1    1    2  501    0 -0.10018922171E+02  0.46135680625E+01 -0.99262991390E+02  0.19975936842E+03  0.17300000000E+03 0. -1.
         -6    1    1    2    0  503  0.10018922171E+02 -0.46135680625E+01 -0.38889372508E+03  0.42578045190E+03  0.17300000000E+03 0. -1.
<mgrwt>
<rscale>  2 0.17335127E+03</rscale>
<asrwt>0</asrwt>
<pdfrwt beam="1">  1       21 0.10567931E-01 0.17335127E+03</pdfrwt>
<pdfrwt beam="2">  1       21 0.85668964E-01 0.17335127E+03</pdfrwt>
<totfact> 0.87315113E+04</totfact>
</mgrwt>
</event>
<event>
 4    1  0.3973261E+000  0.1894718E+03  0.7546771E-02  0.1158939E+00
         21   -1    0    0  501  502  0.00000000000E+00  0.00000000000E+00  0.14934844945E+03  0.14934844945E+03  0.00000000000E+00 0.  1.
         21   -1    0    0  502  503 -0.00000000000E+00 -0.00000000000E+00 -0.59821407376E+03  0.59821407376E+03  0.00000000000E+00 0.  1.
          6    1    1    2  501    0  0.23444749565E+02 -0.73626763349E+02  0.64657411920E+02  0.20020024346E+03  0.17300000000E+03 0.  1.
         -6    1    1    2    0  503 -0.23444749565E+02  0.73626763349E+02 -0.51352303623E+03  0.54736227976E+03  0.17300000000E+03 0.  1.
<mgrwt>
<rscale>  2 0.18947178E+03</rscale>
<asrwt>0</asrwt>
<pdfrwt beam="1">  1       21 0.22976685E-01 0.18947178E+03</pdfrwt>
<pdfrwt beam="2">  1       21 0.92032934E-01 0.18947178E+03</pdfrwt>
<totfact> 0.17774128E+04</totfact>
</mgrwt>
</event>
<event>
 4    1  0.3973261E+000  0.2507179E+03  0.7546771E-02  0.1112852E+00
         21   -1    0    0  501  502  0.00000000000E+00  0.00000000000E+00  0.18365243950E+03  0.18365243950E+03  0.00000000000E+00 0. -1.
         21   -1    0    0  502  503 -0.00000000000E+00 -0.00000000000E+00 -0.34331314499E+03  0.34331314499E+03  0.00000000000E+00 0.  1.
          6    1    1    2  501    0 -0.16691548520E+03 -0.71201850687E+02 -0.65335505631E+02  0.25909112497E+03  0.17300000000E+03 0. -1.
         -6    1    1    2    0  503  0.16691548520E+03  0.71201850687E+02 -0.94325199858E+02  0.26787445953E+03  0.17300000000E+03 0.  1.
<mgrwt>
<rscale>  2 0.25071793E+03</rscale>
<asrwt>0</asrwt>
<pdfrwt beam="1">  1       21 0.28254222E-01 0.25071793E+03</pdfrwt>
<pdfrwt beam="2">  1       21 0.52817407E-01 0.25071793E+03</pdfrwt>
<totfact> 0.39578023E+04</totfact>
</mgrwt>
</event>
<event>
 4    1  0.3973261E+000  0.2713027E+03  0.7546771E-02  0.1100536E+00
         21   -1    0    0  501  502  0.00000000000E+00  0.00000000000E+00  0.62833535752E+02  0.62833535752E+02  0.00000000000E+00 0.  1.
         21   -1    0    0  502  503 -0.00000000000E+00 -0.00000000000E+00 -0.11955933463E+04  0.11955933463E+04  0.00000000000E+00 0. -1.
          6    1    1    2  501    0  0.20312827680E+03  0.49143346391E+02 -0.47693124547E+03  0.54869716441E+03  0.17300000000E+03 0. -1.
         -6    1    1    2    0  503 -0.20312827680E+03 -0.49143346391E+02 -0.65582856508E+03  0.70972971764E+03  0.17300000000E+03 0. -1.
<mgrwt>
<rscale>  2 0.27130272E+03</rscale>
<asrwt>0</asrwt>
<pdfrwt beam="1">  1       21 0.96666978E-02 0.27130272E+03</pdfrwt>
<pdfrwt beam="2">  1       21 0.18393744E+00 0.27130272E+03</pdfrwt>
<totfact> 0.13991297E+04</totfact>
</mgrwt>
</event>
<event>
 4    1  0.3973261E+000  0.2318639E+03  0.7546771E-02  0.1125335E+00
         21   -1    0    0  501  502  0.00000000000E+00  0.00000000000E+00  0.19970602978E+03  0.19970602978E+03  0.00000000000E+00 0.  1.
         21   -1    0    0  502  503 -0.00000000000E+00 -0.00000000000E+00 -0.31739720324E+03  0.31739720324E+03  0.00000000000E+00 0.  1.
          6    1    1    2  501    0  0.12199106154E+03  0.94604780619E+02  0.41906991502E+02  0.23562062632E+03  0.17300000000E+03 0.  1.
         -6    1    1    2    0  503 -0.12199106154E+03 -0.94604780619E+02 -0.15959816496E+03  0.28148260669E+03  0.17300000000E+03 0.  1.
<mgrwt>
<rscale>  2 0.23186393E+03</rscale>
<asrwt>0</asrwt>
<pdfrwt beam="1">  1       21 0.30724005E-01 0.23186393E+03</pdfrwt>
<pdfrwt beam="2">  1       21 0.48830339E-01 0.23186393E+03</pdfrwt>
<totfact> 0.39943710E+04</totfact>
</mgrwt>
</event>
<event>
 4    1  0.3973261E+000  0.1755460E+03  0.7546771E-02  0.1172185E+00
         21   -1    0    0  501  502  0.00000000000E+00  0.00000000000E+00  0.29413414420E+03  0.29413414420E+03  0.00000000000E+00 0.  1.
         21   -1    0    0  502  503 -0.00000000000E+00 -0.00000000000E+00 -0.31620578014E+03  0.31620578014E+03  0.00000000000E+00 0.  1.
          6    1    1    2  501    0  0.28619062285E+02  0.82671217958E+01  0.23850767883E+03  0.29614575616E+03  0.17300000000E+03 0.  1.
         -6    1    1    2    0  503 -0.28619062285E+02 -0.82671217958E+01 -0.26057931478E+03  0.31419416818E+03  0.17300000000E+03 0.  1.
<mgrwt>
<rscale>  2 0.17554599E+03</rscale>
<asrwt>0</asrwt>
<pdfrwt beam="1">  1       21 0.45251407E-01 0.17554599E+03</pdfrwt>
<pdfrwt beam="2">  1       21 0.48647043E-01 0.17554599E+03</pdfrwt>
<totfact> 0.19097207E+04</totfact>
</mgrwt>
</event>
<event>
 4    1  0.3973261E+000  0.1774023E+03  0.7546771E-02  0.1170341E+00
         21   -1    0    0  503  502  0.00000000000E+00  0.00000000000E+00  0.76036507676E+03  0.76036507676E+03  0.00000000000E+00 0.  1.
         21   -1    0    0  501  503 -0.00000000000E+00 -0.00000000000E+00 -0.12393245794E+03  0.12393245794E+03  0.00000000000E+00 0.  1.
          6    1    1    2  501    0  0.34031067879E+02 -0.19607768818E+02 -0.42623422549E+02  0.18245090937E+03  0.17300000000E+03 0.  1.
         -6    1    1    2    0  502 -0.34031067879E+02  0.19607768818E+02  0.67905604137E+03  0.70184662534E+03  0.17300000000E+03 0.  1.
<mgrwt>
<rscale>  2 0.17740231E+03</rscale>
<asrwt>0</asrwt>
<pdfrwt beam="1">  1       21 0.11697924E+00 0.17740231E+03</pdfrwt>
<pdfrwt beam="2">  1       21 0.19066532E-01 0.17740231E+03</pdfrwt>
<totfact> 0.14338260E+04</totfact>
</mgrwt>
</event>
<event>
 4    1  0.3973261E+000  0.2854321E+03  0.7546771E-02  0.1092758E+00
         21   -1    0    0  503  502  0.00000000000E+00  0.00000000000E+00  0.17399648377E+03  0.17399648377E+03  0.00000000000E+00 0.  1.
         21   -1    0    0  501  503 -0.00000000000E+00 -0.00000000000E+00 -0.55271262131E+03  0.55271262131E+03  0.00000000000E+00 0. -1.
          6    1    1    2  501    0  0.47080742269E+02 -0.22209434913E+03 -0.33141028740E+03  0.43738344139E+03  0.17300000000E+03 0. -1.
         -6    1    1    2    0  502 -0.47080742269E+02  0.22209434913E+03 -0.47305850145E+02  0.28932566369E+03  0.17300000000E+03 0.  1.
<mgrwt>
<rscale>  2 0.28543212E+03</rscale>
<asrwt>0</asrwt>
<pdfrwt beam="1">  1       21 0.26768690E-01 0.28543212E+03</pdfrwt>
<pdfrwt beam="2">  1       21 0.85032710E-01 0.28543212E+03</pdfrwt>
<totfact> 0.15124702E+04</totfact>
</mgrwt>
</event>
<event>
 4    1  0.3973261E+000  0.1897577E+03  0.7546771E-02  0.1158680E+00
         21   -1    0    0  503  502  0.00000000000E+00  0.00000000000E+00  0.22819879727E+03  0.22819879727E+03  0.00000000000E+00 0.  1.
         21   -1    0    0  501  503 -0.00000000000E+00 -0.00000000000E+00 -0.15999056439E+03  0.15999056439E+03  0.00000000000E+00 0. -1.
          6    1    1    2  501    0 -0.27509378247E+02 -0.72953510281E+02  0.56856164105E+02  0.19809241265E+03  0.17300000000E+03 0.  1.
         -6    1    1    2    0  502  0.27509378247E+02  0.72953510281E+02  0.11352068778E+02  0.19009694900E+03  0.17300000000E+03 0. -1.
<mgrwt>
<rscale>  2 0.18975769E+03</rscale>
<asrwt>0</asrwt>
<pdfrwt beam="1">  1       21 0.35107507E-01 0.18975769E+03</pdfrwt>
<pdfrwt beam="2">  1       21 0.24613933E-01 0.18975769E+03</pdfrwt>
<totfact> 0.12216826E+05</totfact>
</mgrwt>
</event>
<event>
 4    1  0.3973261E+000  0.3034988E+03  0.7546771E-02  0.1083505E+00
         21   -1    0    0  503  502  0.00000000000E+00  0.00000000000E+00  0.41314868161E+03  0.41314868161E+03  0.00000000000E+00 0. -1.
         21   -1    0    0  501  503 -0.00000000000E+00 -0.00000000000E+00 -0.22410470160E+03  0.22410470160E+03  0.00000000000E+00 0.  1.
          6    1    1    2  501    0  0.75387321496E+02 -0.23769570715E+03  0.71650626018E+02  0.31184180228E+03  0.17300000000E+03 0.  1.
         -6    1    1    2    0  502 -0.75387321496E+02  0.23769570715E+03  0.11739335399E+03  0.32541158092E+03  0.17300000000E+03 0. -1.
<mgrwt>
<rscale>  2 0.30349876E+03</rscale>
<asrwt>0</asrwt>
<pdfrwt beam="1">  1       21 0.63561336E-01 0.30349876E+03</pdfrwt>
<pdfrwt beam="2">  1       21 0.34477646E-01 0.30349876E+03</pdfrwt>
<totfact> 0.17542734E+04</totfact>
</mgrwt>
</event>
<event>
 4    1  0.3973261E+000  0.1789537E+03  0.7546771E-02  0.1168820E+00
         21   -1    0    0  503  502  0.00000000000E+00  0.00000000000E+00  0.19958874545E+03  0.19958874545E+03  0.00000000000E+00 0. -1.
         21   -1    0    0  501  503 -0.00000000000E+00 -0.00000000000E+00 -0.16152108446E+03  0.16152108446E+03  0.00000000000E+00 0.  1.
          6    1    1    2  501    0  0.12424760066E+02 -0.44057174668E+02  0.43444031294E+01  0.17900637738E+03  0.17300000000E+03 0.  1.
         -6    1    1    2    0  502 -0.12424760066E+02  0.44057174668E+02  0.33723257862E+02  0.18210345253E+03  0.17300000000E+03 0. -1.
<mgrwt>
<rscale>  2 0.17895365E+03</rscale>
<asrwt>0</asrwt>
<pdfrwt beam="1">  1       21 0.30705961E-01 0.17895365E+03</pdfrwt>
<pdfrwt beam="2">  1       21 0.24849398E-01 0.17895365E+03</pdfrwt>
<totfact> 0.15670827E+05</totfact>
</mgrwt>
</event>
<event>
 4    1  0.3973261E+000  0.1790578E+03  0.7546771E-02  0.1168718E+00
         21   -1    0    0  503  502  0.00000000000E+00  0.00000000000E+00  0.24526487340E+03  0.24526487340E+03  0.00000000000E+00 0.  1.
         21   -1    0    0  501  503 -0.00000000000E+00 -0.00000000000E+00 -0.31240259371E+03  0.31240259371E+03  0.00000000000E+00 0.  1.
          6    1    1    2  501    0 -0.29122034065E+02  0.35841251100E+02 -0.24620712702E+03  0.30443330557E+03  0.17300000000E+03 0.  1.
         -6    1    1    2    0  502  0.29122034065E+02 -0.35841251100E+02  0.17906940671E+03  0.25323416154E+03  0.17300000000E+03 0.  1.
<mgrwt>
<rscale>  2 0.17905778E+03</rscale>
<asrwt>0</asrwt>
<pdfrwt beam="1">  1       21 0.37733058E-01 0.17905778E+03</pdfrwt>
<pdfrwt beam="2">  1       21 0.48061937E-01 0.17905778E+03</pdfrwt>
<totfact> 0.28231617E+04</totfact>
</mgrwt>
</event>
<event>
 4    1  0.3973261E+000  0.2435939E+03  0.7546771E-02  0.1117422E+00
         21   -1    0    0  501  502  0.00000000000E+00  0.00000000000E+00  0.56713193116E+02  0.56713193116E+02  0.00000000000E+00 0. -1.
         21   -1    0    0  502  503 -0.00000000000E+00 -0.00000000000E+00 -0.13446961112E+04  0.13446961112E+04  0.00000000000E+00 0. -1.
          6    1    1    2  501    0  0.17071968408E+03 -0.16241926979E+02 -0.31390145082E+03  0.39733126173E+03  0.17300000000E+03 0. -1.
         -6    1    1    2    0  503 -0.17071968408E+03  0.16241926979E+02 -0.97408146724E+03  0.10040780426E+04  0.17300000000E+03 0. -1.
<mgrwt>
<rscale>  2 0.24359395E+03</rscale>
<asrwt>0</asrwt>
<pdfrwt beam="1">  1       21 0.87251063E-02 0.24359395E+03</pdfrwt>
<pdfrwt beam="2">  1       21 0.20687633E+00 0.24359395E+03</pdfrwt>
<totfact> 0.12045509E+04</totfact>
</mgrwt>
</event>
<event>
 4    1  0.3973261E+000  0.1931360E+03  0.7546771E-02  0.1155663E+00
         21   -1    0    0  501  502  0.00000000000E+00  0.00000000000E+00  0.11624140437E+04  0.11624140437E+04  0.00000000000E+00 0. -1.
         21   -1    0    0  502  503 -0.00000000000E+00 -0.00000000000E+00 -0.83453975813E+02  0.83453975813E+02  0.00000000000E+00 0. -1.
          6    1    1    2  501    0  0.38965659611E+01 -0.85774859234E+02  0.10281876882E+04  0.10461698867E+04  0.17300000000E+03 0. -1.
         -6    1    1    2    0  503 -0.38965659611E+01  0.85774859234E+02  0.50772379684E+02  0.19969813279E+03  0.17300000000E+03 0. -1.
<mgrwt>
<rscale>  2 0.19313599E+03</rscale>
<asrwt>0</asrwt>
<pdfrwt beam="1">  1       21 0.17883292E+00 0.19313599E+03</pdfrwt>
<pdfrwt beam="2">  1       21 0.12839074E-01 0.19313599E+03</pdfrwt>
<totfact> 0.96304331E+03</totfact>
</mgrwt>
</event>
<event>
 4    1  0.3973261E+000  0.2186237E+03  0.7546771E-02  0.1134913E+00
         21   -1    0    0  501  502  0.00000000000E+00  0.00000000000E+00  0.73110476661E+02  0.73110476661E+02  0.00000000000E+00 0.  1.
         21   -1    0    0  502  503 -0.00000000000E+00 -0.00000000000E+00 -0.12428816361E+04  0.12428816361E+04  0.00000000000E+00 0.  1.
          6    1    1    2  501    0 -0.26669467660E+02  0.13098117414E+03 -0.13187036218E+03  0.25531572788E+03  0.17300000000E+03 0.  1.
         -6    1    1    2    0  503  0.26669467660E+02 -0.13098117414E+03 -0.10379007972E+04  0.10606763849E+04  0.17300000000E+03 0.  1.
<mgrwt>
<rscale>  2 0.21862371E+03</rscale>
<asrwt>0</asrwt>
<pdfrwt beam="1">  1       21 0.11247766E-01 0.21862371E+03</pdfrwt>
<pdfrwt beam="2">  1       21 0.19121256E+00 0.21862371E+03</pdfrwt>
<totfact> 0.98801354E+03</totfact>
</mgrwt>
</event>
<event>
 4    1  0.3973261E+000  0.1760358E+03  0.7546771E-02  0.1171696E+00
         21   -1    0    0  501  502  0.00000000000E+00  0.00000000000E+00  0.24133299422E+02  0.24133299422E+02  0.00000000000E+00 0. -1.
         21   -1    0    0  502  503 -0.00000000000E+00 -0.00000000000E+00 -0.13546740760E+04  0.13546740760E+04  0.00000000000E+00 0. -1.
          6    1    1    2  501    0  0.32509968497E+02 -0.16412400016E+01 -0.50787084957E+03  0.53751408499E+03  0.17300000000E+03 0. -1.
         -6    1    1    2    0  503 -0.32509968497E+02  0.16412400016E+01 -0.82266992701E+03  0.84129329044E+03  0.17300000000E+03 0. -1.
<mgrwt>
<rscale>  2 0.17603577E+03</rscale>
<asrwt>0</asrwt>
<pdfrwt beam="1">  1       21 0.37128156E-02 0.17603577E+03</pdfrwt>
<pdfrwt beam="2">  1       21 0.20841138E+00 0.17603577E+03</pdfrwt>
<totfact> 0.53300405E+04</totfact>
</mgrwt>
</event>
<event>
 4    1  0.3973261E+000  0.2191299E+03  0.7546771E-02  0.1134533E+00
         21   -1    0    0  503  502  0.00000000000E+00  0.00000000000E+00  0.12322711727E+04  0.12322711727E+04  0.00000000000E+00 0.  1.
         21   -1    0    0  501  503 -0.00000000000E+00 -0.00000000000E+00 -0.11532440735E+03  0.11532440735E+03  0.00000000000E+00 0. -1.
          6    1    1    2  501    0 -0.95176453245E+02  0.95028083136E+02  0.10203244383E+02  0.21936727202E+03  0.17300000000E+03 0. -1.
         -6    1    1    2    0  502  0.95176453245E+02 -0.95028083136E+02  0.11067435209E+04  0.11282283080E+04  0.17300000000E+03 0.  1.
<mgrwt>
<rscale>  2 0.21912986E+03</rscale>
<asrwt>0</asrwt>
<pdfrwt beam="1">  1       21 0.18958017E+00 0.21912986E+03</pdfrwt>
<pdfrwt beam="2">  1       21 0.17742217E-01 0.21912986E+03</pdfrwt>
<totfact> 0.44212077E+03</totfact>
</mgrwt>
</event>
<event>
 4    1  0.3973261E+000  0.2292365E+03  0.7546771E-02  0.1127178E+00
         21   -1    0    0  501  502  0.00000000000E+00  0.00000000000E+00  0.32011525393E+02  0.32011525393E+02  0.00000000000E+00 0. -1.
         21   -1    0    0  502  503 -0.00000000000E+00 -0.00000000000E+00 -0.17289701762E+04  0.17289701762E+04  0.00000000000E+00 0. -1.
          6    1    1    2  501    0  0.60943548245E+02 -0.13750001343E+03 -0.65052228635E+03  0.68973082779E+03  0.17300000000E+03 0. -1.
         -6    1    1    2    0  503 -0.60943548245E+02  0.13750001343E+03 -0.10464363645E+04  0.10712508738E+04  0.17300000000E+03 0. -1.
<mgrwt>
<rscale>  2 0.22923649E+03</rscale>
<asrwt>0</asrwt>
<pdfrwt beam="1">  1       21 0.49248499E-02 0.22923649E+03</pdfrwt>
<pdfrwt beam="2">  1       21 0.26599542E+00 0.22923649E+03</pdfrwt>
<totfact> 0.14324532E+04</totfact>
</mgrwt>
</event>
<event>
 4    1  0.3973261E+000  0.2315910E+03  0.7546771E-02  0.1125525E+00
         21   -1    0    0  503  502  0.00000000000E+00  0.00000000000E+00  0.10381821682E+04  0.10381821682E+04  0.00000000000E+00 0. -1.
         21   -1    0    0  501  503 -0.00000000000E+00 -0.00000000000E+00 -0.13274331544E+03  0.13274331544E+03  0.00000000000E+00 0.  1.
          6    1    1    2  501    0  0.11095210468E+03  0.10674739180E+03 -0.48466516345E+01  0.23164167419E+03  0.17300000000E+03 0.  1.
         -6    1    1    2    0  502 -0.11095210468E+03 -0.10674739180E+03  0.91028550438E+03  0.93928380944E+03  0.17300000000E+03 0. -1.
<mgrwt>
<rscale>  2 0.23159097E+03</rscale>
<asrwt>0</asrwt>
<pdfrwt beam="1">  1       21 0.15972033E+00 0.23159097E+03</pdfrwt>
<pdfrwt beam="2">  1       21 0.20422049E-01 0.23159097E+03</pdfrwt>
<totfact> 0.54427749E+03</totfact>
</mgrwt>
</event>
<event>
 4    1  0.3973261E+000  0.1895725E+03  0.7546771E-02  0.1158847E+00
         21   -1    0    0  501  502  0.00000000000E+00  0.00000000000E+00  0.10812464227E+03  0.10812464227E+03  0.00000000000E+00 0.  1.
         21   -1    0    0  502  503 -0.00000000000E+00 -0.00000000000E+00 -0.41326427087E+03  0.41326427087E+03  0.00000000000E+00 0.  1.
          6    1    1    2  501    0  0.12725039792E+02  0.76464438075E+02 -0.37232968510E+02  0.19319428271E+03  0.17300000000E+03 0.  1.
         -6    1    1    2    0  503 -0.12725039792E+02 -0.76464438075E+02 -0.26790666009E+03  0.32819463044E+03  0.17300000000E+03 0.  1.
<mgrwt>
<rscale>  2 0.18957251E+03</rscale>
<asrwt>0</asrwt>
<pdfrwt beam="1">  1       21 0.16634561E-01 0.18957251E+03</pdfrwt>
<pdfrwt beam="2">  1       21 0.63579118E-01 0.18957251E+03</pdfrwt>
<totfact> 0.74342975E+04</totfact>
</mgrwt>
</event>
<event>
 4    1  0.3973261E+000  0.1797990E+03  0.7546771E-02  0.1167998E+00
         21   -1    0    0  503  502  0.00000000000E+00  0.00000000000E+00  0.12286802840E+04  0.12286802840E+04  0.00000000000E+00 0.  1.
         21   -1    0    0  501  503 -0.00000000000E+00 -0.00000000000E+00 -0.51400596049E+02  0.51400596049E+02  0.00000000000E+00 0.  1.
          6    1    1    2  501    0 -0.28274324297E+02 -0.39990558336E+02  0.14147150028E+03  0.22878345124E+03  0.17300000000E+03 0.  1.
         -6    1    1    2    0  502  0.28274324297E+02  0.39990558336E+02  0.10358081877E+04  0.10512974288E+04  0.17300000000E+03 0.  1.
<mgrwt>
<rscale>  2 0.17979900E+03</rscale>
<asrwt>0</asrwt>
<pdfrwt beam="1">  1       21 0.18902771E+00 0.17979900E+03</pdfrwt>
<pdfrwt beam="2">  1       21 0.79077849E-02 0.17979900E+03</pdfrwt>
<totfact> 0.19570601E+04</totfact>
</mgrwt>
</event>
<event>
 4    1  0.3973261E+000  0.1891061E+03  0.7546771E-02  0.1159270E+00
         21   -1    0    0  503  502  0.00000000000E+00  0.00000000000E+00  0.46942144032E+03  0.46942144032E+03  0.00000000000E+00 0.  1.
         21   -1    0    0  501  503 -0.00000000000E+00 -0.00000000000E+00 -0.10491318389E+03  0.10491318389E+03  0.00000000000E+00 0. -1.
          6    1    1    2  501    0 -0.27945557863E+02 -0.71071486619E+02  0.31973699279E+02  0.19179006194E+03  0.17300000000E+03 0. -1.
         -6    1    1    2    0  502  0.27945557863E+02  0.71071486619E+02  0.33253455716E+03  0.38254456226E+03  0.17300000000E+03 0.  1.
<mgrwt>
<rscale>  2 0.18910608E+03</rscale>
<asrwt>0</asrwt>
<pdfrwt beam="1">  1       21 0.72218682E-01 0.18910608E+03</pdfrwt>
<pdfrwt beam="2">  1       21 0.16140490E-01 0.18910608E+03</pdfrwt>
<totfact> 0.59439448E+04</totfact>
</mgrwt>
</event>
<event>
 4    1  0.3973261E+000  0.2010013E+03  0.7546771E-02  0.1148897E+00
         21   -1    0    0  501  502  0.00000000000E+00  0.00000000000E+00  0.52502103145E+02  0.52502103145E+02  0.00000000000E+00 0. -1.
         21   -1    0    0  502  503 -0.00000000000E+00 -0.00000000000E+00 -0.10293493981E+04  0.10293493981E+04  0.00000000000E+00 0. -1.
          6    1    1    2  501    0 -0.93742320811E+02 -0.41047449254E+02 -0.21665531956E+03  0.29553518114E+03  0.17300000000E+03 0. -1.
         -6    1    1    2    0  503  0.93742320811E+02  0.41047449254E+02 -0.76019197544E+03  0.78631632014E+03  0.17300000000E+03 0. -1.
<mgrwt>
<rscale>  2 0.20100128E+03</rscale>
<asrwt>0</asrwt>
<pdfrwt beam="1">  1       21 0.80772469E-02 0.20100128E+03</pdfrwt>
<pdfrwt beam="2">  1       21 0.15836144E+00 0.20100128E+03</pdfrwt>
<totfact> 0.30375130E+04</totfact>
</mgrwt>
</event>
<event>
 4    1  0.3973261E+000  0.1986409E+03  0.7546771E-02  0.1150891E+00
         21   -1    0    0  503  502  0.00000000000E+00  0.00000000000E+00  0.13185116262E+03  0.13185116262E+03  0.00000000000E+00 0.  1.
         21   -1    0    0  501  503 -0.00000000000E+00 -0.00000000000E+00 -0.12971607699E+04  0.12971607699E+04  0.00000000000E+00 0. -1.
          6    1    1    2  501    0  0.89631057296E+02 -0.38671326640E+02 -0.12093436193E+04  0.12255489331E+04  0.17300000000E+03 0. -1.
         -6    1    1    2    0  502 -0.89631057296E+02  0.38671326640E+02  0.44034011959E+02  0.20346299945E+03  0.17300000000E+03 0.  1.
<mgrwt>
<rscale>  2 0.19864088E+03</rscale>
<asrwt>0</asrwt>
<pdfrwt beam="1">  1       21 0.20284794E-01 0.19864088E+03</pdfrwt>
<pdfrwt beam="2">  1       21 0.19956320E+00 0.19864088E+03</pdfrwt>
<totfact> 0.30202333E+03</totfact>
</mgrwt>
</event>
<event>
 4    1  0.3973261E+000  0.2038723E+03  0.7546771E-02  0.1146512E+00
         21   -1    0    0  501  502  0.00000000000E+00  0.00000000000E+00  0.10617404015E+03  0.10617404015E+03  0.00000000000E+00 0.  1.
         21   -1    0    0  502  503 -0.00000000000E+00 -0.00000000000E+00 -0.48713033392E+03  0.48713033392E+03  0.00000000000E+00 0.  1.
          6    1    1    2  501    0  0.89888521207E+02 -0.59623512143E+02 -0.59018696368E+02  0.21224305870E+03  0.17300000000E+03 0.  1.
         -6    1    1    2    0  503 -0.89888521207E+02  0.59623512143E+02 -0.32193759741E+03  0.38106131537E+03  0.17300000000E+03 0.  1.
<mgrwt>
<rscale>  2 0.20387229E+03</rscale>
<asrwt>0</asrwt>
<pdfrwt beam="1">  1       21 0.16334467E-01 0.20387229E+03</pdfrwt>
<pdfrwt beam="2">  1       21 0.74943130E-01 0.20387229E+03</pdfrwt>
<totfact> 0.53173343E+04</totfact>
</mgrwt>
</event>
<event>
 4    1  0.3973261E+000  0.1761127E+03  0.7546771E-02  0.1171619E+00
         21   -1    0    0  501  502  0.00000000000E+00  0.00000000000E+00  0.26596435448E+03  0.26596435448E+03  0.00000000000E+00 0.  1.
         21   -1    0    0  502  503 -0.00000000000E+00 -0.00000000000E+00 -0.17476762419E+03  0.17476762419E+03  0.00000000000E+00 0.  1.
          6    1    1    2  501    0 -0.31228781147E+02 -0.10557578158E+02  0.17271283778E+03  0.24666865136E+03  0.17300000000E+03 0.  1.
         -6    1    1    2    0  503  0.31228781147E+02  0.10557578158E+02 -0.81516107488E+02  0.19406332731E+03  0.17300000000E+03 0.  1.
<mgrwt>
<rscale>  2 0.17611275E+03</rscale>
<asrwt>0</asrwt>
<pdfrwt beam="1">  1       21 0.40917593E-01 0.17611275E+03</pdfrwt>
<pdfrwt beam="2">  1       21 0.26887327E-01 0.17611275E+03</pdfrwt>
<totfact> 0.76321858E+04</totfact>
</mgrwt>
</event>
<event>
 4    1  0.3973261E+000  0.1854492E+03  0.7546771E-02  0.1162631E+00
         21   -1    0    0  501  502  0.00000000000E+00  0.00000000000E+00  0.24093821426E+03  0.24093821426E+03  0.00000000000E+00 0. -1.
         21   -1    0    0  502  503 -0.00000000000E+00 -0.00000000000E+00 -0.16378314307E+03  0.16378314307E+03  0.00000000000E+00 0. -1.
          6    1    1    2  501    0  0.20520623525E+02  0.63571257795E+02  0.11111326216E+03  0.21618870885E+03  0.17300000000E+03 0. -1.
         -6    1    1    2    0  503 -0.20520623525E+02 -0.63571257795E+02 -0.33958190967E+02  0.18853264848E+03  0.17300000000E+03 0. -1.
<mgrwt>
<rscale>  2 0.18544919E+03</rscale>
<asrwt>0</asrwt>
<pdfrwt beam="1">  1       21 0.37067417E-01 0.18544919E+03</pdfrwt>
<pdfrwt beam="2">  1       21 0.25197407E-01 0.18544919E+03</pdfrwt>
<totfact> 0.10501189E+05</totfact>
</mgrwt>
</event>
<event>
 4    1  0.3973261E+000  0.2121217E+03  0.7546771E-02  0.1139897E+00
         21   -1    0    0  503  502  0.00000000000E+00  0.00000000000E+00  0.61583153652E+03  0.61583153652E+03  0.00000000000E+00 0.  1.
         21   -1    0    0  501  503 -0.00000000000E+00 -0.00000000000E+00 -0.77459590613E+02  0.77459590613E+02  0.00000000000E+00 0.  1.
          6    1    1    2  501    0  0.10870997952E+03 -0.56997691047E+02  0.35175517241E+03  0.41076428490E+03  0.17300000000E+03 0.  1.
         -6    1    1    2    0  502 -0.10870997952E+03  0.56997691047E+02  0.18661677350E+03  0.28252684223E+03  0.17300000000E+03 0.  1.
<mgrwt>
<rscale>  2 0.21212165E+03</rscale>
<asrwt>0</asrwt>
<pdfrwt beam="1">  1       21 0.94743310E-01 0.21212165E+03</pdfrwt>
<pdfrwt beam="2">  1       21 0.11916860E-01 0.21212165E+03</pdfrwt>
<totfact> 0.54862056E+04</totfact>
</mgrwt>
</event>
<event>
 4    1  0.3973261E+000  0.1877174E+03  0.7546771E-02  0.1160536E+00
         21   -1    0    0  503  502  0.00000000000E+00  0.00000000000E+00  0.51641651088E+02  0.51641651088E+02  0.00000000000E+00 0. -1.
         21   -1    0    0  501  503 -0.00000000000E+00 -0.00000000000E+00 -0.70335070121E+03  0.70335070121E+03  0.00000000000E+00 0. -1.
          6    1    1    2  501    0 -0.52214615449E+02  0.50817907171E+02 -0.39107957653E+03  0.43379841048E+03  0.17300000000E+03 0. -1.
         -6    1    1    2    0  502  0.52214615449E+02 -0.50817907171E+02 -0.26062947359E+03  0.32119394182E+03  0.17300000000E+03 0. -1.
<mgrwt>
<rscale>  2 0.18771741E+03</rscale>
<asrwt>0</asrwt>
<pdfrwt beam="1">  1       21 0.79448691E-02 0.18771741E+03</pdfrwt>
<pdfrwt beam="2">  1       21 0.10820780E+00 0.18771741E+03</pdfrwt>
<totfact> 0.82715731E+04</totfact>
</mgrwt>
</event>
<event>
 4    1  0.3973261E+000  0.2380205E+03  0.7546771E-02  0.1121119E+00
         21   -1    0    0  501  502  0.00000000000E+00  0.00000000000E+00  0.24457611001E+03  0.24457611001E+03  0.00000000000E+00 0.  1.
         21   -1    0    0  502  503 -0.00000000000E+00 -0.00000000000E+00 -0.31457318801E+04  0.31457318801E+04  0.00000000000E+00 0. -1.
          6    1    1    2  501    0 -0.16069017093E+03 -0.30056975115E+02  0.18097021776E+03  0.29900497070E+03  0.17300000000E+03 0.  1.
         -6    1    1    2    0  503  0.16069017093E+03  0.30056975115E+02 -0.30821259879E+04  0.30913030194E+04  0.17300000000E+03 0. -1.
<mgrwt>
<rscale>  2 0.23802049E+03</rscale>
<asrwt>0</asrwt>
<pdfrwt beam="1">  1       21 0.37627095E-01 0.23802049E+03</pdfrwt>
<pdfrwt beam="2">  1       21 0.48395873E+00 0.23802049E+03</pdfrwt>
<totfact> 0.15319402E+01</totfact>
</mgrwt>
</event>
<event>
 4    1  0.3973261E+000  0.2121006E+03  0.7546771E-02  0.1139913E+00
         21   -1    0    0  503  502  0.00000000000E+00  0.00000000000E+00  0.32465667240E+02  0.32465667240E+02  0.00000000000E+00 0. -1.
         21   -1    0    0  501  503 -0.00000000000E+00 -0.00000000000E+00 -0.23696875779E+04  0.23696875779E+04  0.00000000000E+00 0. -1.
          6    1    1    2  501    0  0.10411092701E+03  0.64950623396E+02 -0.19425857495E+04  0.19541305133E+04  0.17300000000E+03 0. -1.
         -6    1    1    2    0  502 -0.10411092701E+03 -0.64950623396E+02 -0.39463616112E+03  0.44802273187E+03  0.17300000000E+03 0. -1.
<mgrwt>
<rscale>  2 0.21210061E+03</rscale>
<asrwt>0</asrwt>
<pdfrwt beam="1">  1       21 0.49947208E-02 0.21210061E+03</pdfrwt>
<pdfrwt beam="2">  1       21 0.36456712E+00 0.21210061E+03</pdfrwt>
<totfact> 0.37664522E+03</totfact>
</mgrwt>
</event>
<event>
 4    1  0.3973261E+000  0.2208557E+03  0.7546771E-02  0.1133247E+00
         21   -1    0    0  501  502  0.00000000000E+00  0.00000000000E+00  0.82449236175E+02  0.82449236175E+02  0.00000000000E+00 0. -1.
         21   -1    0    0  502  503 -0.00000000000E+00 -0.00000000000E+00 -0.96275484472E+03  0.96275484472E+03  0.00000000000E+00 0.  1.
          6    1    1    2  501    0 -0.18034284892E+02 -0.13609918385E+03 -0.11567200656E+03  0.24931353027E+03  0.17300000000E+03 0. -1.
         -6    1    1    2    0  503  0.18034284892E+02  0.13609918385E+03 -0.76463360199E+03  0.79589055062E+03  0.17300000000E+03 0.  1.
<mgrwt>
<rscale>  2 0.22085566E+03</rscale>
<asrwt>0</asrwt>
<pdfrwt beam="1">  1       21 0.12684498E-01 0.22085566E+03</pdfrwt>
<pdfrwt beam="2">  1       21 0.14811612E+00 0.22085566E+03</pdfrwt>
<totfact> 0.16107074E+04</totfact>
</mgrwt>
</event>
<event>
 4    1  0.3973261E+000  0.1932744E+03  0.7546771E-02  0.1155541E+00
         21   -1    0    0  501  502  0.00000000000E+00  0.00000000000E+00  0.21420358170E+02  0.21420358170E+02  0.00000000000E+00 0.  1.
         21   -1    0    0  502  503 -0.00000000000E+00 -0.00000000000E+00 -0.17658400998E+04  0.17658400998E+04  0.00000000000E+00 0.  1.
          6    1    1    2  501    0  0.85263065257E+02 -0.12497900637E+02 -0.77260288065E+03  0.79641082301E+03  0.17300000000E+03 0.  1.
         -6    1    1    2    0  503 -0.85263065257E+02  0.12497900637E+02 -0.97181686096E+03  0.99084963494E+03  0.17300000000E+03 0.  1.
<mgrwt>
<rscale>  2 0.19327438E+03</rscale>
<asrwt>0</asrwt>
<pdfrwt beam="1">  1       21 0.32954388E-02 0.19327438E+03</pdfrwt>
<pdfrwt beam="2">  1       21 0.27166779E+00 0.19327438E+03</pdfrwt>
<totfact> 0.26904431E+04</totfact>
</mgrwt>
</event>
<event>
 4    1  0.3973261E+000  0.2843162E+03  0.7546771E-02  0.1093355E+00
         21   -1    0    0  503  502  0.00000000000E+00  0.00000000000E+00  0.16058224996E+03  0.16058224996E+03  0.00000000000E+00 0.  1.
         21   -1    0    0  501  503 -0.00000000000E+00 -0.00000000000E+00 -0.76518847342E+03  0.76518847342E+03  0.00000000000E+00 0. -1.
          6    1    1    2  501    0 -0.14416376895E+03  0.17356133401E+03 -0.57305506811E+03  0.63970918395E+03  0.17300000000E+03 0. -1.
         -6    1    1    2    0  502  0.14416376895E+03 -0.17356133401E+03 -0.31551155357E+02  0.28606153944E+03  0.17300000000E+03 0.  1.
<mgrwt>
<rscale>  2 0.28431625E+03</rscale>
<asrwt>0</asrwt>
<pdfrwt beam="1">  1       21 0.24704962E-01 0.28431625E+03</pdfrwt>
<pdfrwt beam="2">  1       21 0.11772130E+00 0.28431625E+03</pdfrwt>
<totfact> 0.80996241E+03</totfact>
</mgrwt>
</event>
<event>
 4    1  0.3973261E+000  0.1813502E+03  0.7546771E-02  0.1166503E+00
         21   -1    0    0  501  502  0.00000000000E+00  0.00000000000E+00  0.66331814230E+02  0.66331814230E+02  0.00000000000E+00 0.  1.
         21   -1    0    0  502  503 -0.00000000000E+00 -0.00000000000E+00 -0.64227253740E+03  0.64227253740E+03  0.00000000000E+00 0.  1.
          6    1    1    2  501    0 -0.35289758510E+02 -0.41394953375E+02 -0.11877870964E+03  0.21678627974E+03  0.17300000000E+03 0.  1.
         -6    1    1    2    0  503  0.35289758510E+02  0.41394953375E+02 -0.45716201353E+03  0.49181807189E+03  0.17300000000E+03 0.  1.
<mgrwt>
<rscale>  2 0.18135024E+03</rscale>
<asrwt>0</asrwt>
<pdfrwt beam="1">  1       21 0.10204895E-01 0.18135024E+03</pdfrwt>
<pdfrwt beam="2">  1       21 0.98811157E-01 0.18135024E+03</pdfrwt>
<totfact> 0.66460313E+04</totfact>
</mgrwt>
</event>
<event>
 4    1  0.3973261E+000  0.1742604E+03  0.7546771E-02  0.1173476E+00
         21   -1    0    0  503  502  0.00000000000E+00  0.00000000000E+00  0.46164662978E+02  0.46164662978E+02  0.00000000000E+00 0. -1.
         21   -1    0    0  501  503 -0.00000000000E+00 -0.00000000000E+00 -0.82497581878E+03  0.82497581878E+03  0.00000000000E+00 0. -1.
          6    1    1    2  501    0  0.49433303587E+01 -0.20328368052E+02 -0.58548706601E+03  0.61086969439E+03  0.17300000000E+03 0. -1.
         -6    1    1    2    0  502 -0.49433303587E+01  0.20328368052E+02 -0.19332408980E+03  0.26027078737E+03  0.17300000000E+03 0. -1.
<mgrwt>
<rscale>  2 0.17426038E+03</rscale>
<asrwt>0</asrwt>
<pdfrwt beam="1">  1       21 0.71022568E-02 0.17426038E+03</pdfrwt>
<pdfrwt beam="2">  1       21 0.12691934E+00 0.17426038E+03</pdfrwt>
<totfact> 0.68354037E+04</totfact>
</mgrwt>
</event>
<event>
 4    1  0.3973261E+000  0.1996780E+03  0.7546771E-02  0.1150011E+00
         21   -1    0    0  501  502  0.00000000000E+00  0.00000000000E+00  0.21754232320E+03  0.21754232320E+03  0.00000000000E+00 0. -1.
         21   -1    0    0  502  503 -0.00000000000E+00 -0.00000000000E+00 -0.19405505892E+03  0.19405505892E+03  0.00000000000E+00 0.  1.
          6    1    1    2  501    0 -0.87750567217E+02 -0.47351196381E+02  0.60236392035E+02  0.20856586674E+03  0.17300000000E+03 0.  1.
         -6    1    1    2    0  503  0.87750567217E+02  0.47351196381E+02 -0.36749127754E+02  0.20303151538E+03  0.17300000000E+03 0.  1.
<mgrwt>
<rscale>  2 0.19967799E+03</rscale>
<asrwt>0</asrwt>
<pdfrwt beam="1">  1       21 0.33468050E-01 0.19967799E+03</pdfrwt>
<pdfrwt beam="2">  1       21 0.29854624E-01 0.19967799E+03</pdfrwt>
<totfact> 0.92230336E+04</totfact>
</mgrwt>
</event>
<event>
 4    1  0.3973261E+000  0.1854194E+03  0.7546771E-02  0.1162659E+00
         21   -1    0    0  501  502  0.00000000000E+00  0.00000000000E+00  0.12076500127E+03  0.12076500127E+03  0.00000000000E+00 0. -1.
         21   -1    0    0  502  503 -0.00000000000E+00 -0.00000000000E+00 -0.28720852545E+03  0.28720852545E+03  0.00000000000E+00 0.  1.
          6    1    1    2  501    0 -0.16875276984E+02  0.64549019778E+02 -0.64112415502E+02  0.19619060311E+03  0.17300000000E+03 0. -1.
         -6    1    1    2    0  503  0.16875276984E+02 -0.64549019778E+02 -0.10233110868E+03  0.21178292361E+03  0.17300000000E+03 0.  1.
<mgrwt>
<rscale>  2 0.18541939E+03</rscale>
<asrwt>0</asrwt>
<pdfrwt beam="1">  1       21 0.18579231E-01 0.18541939E+03</pdfrwt>
<pdfrwt beam="2">  1       21 0.44185927E-01 0.18541939E+03</pdfrwt>
<totfact> 0.13057172E+05</totfact>
</mgrwt>
</event>
<event>
 4    1  0.3973261E+000  0.2196014E+03  0.7546771E-02  0.1134181E+00
         21   -1    0    0  503  502  0.00000000000E+00  0.00000000000E+00  0.11083307886E+04  0.11083307886E+04  0.00000000000E+00 0.  1.
         21   -1    0    0  501  503 -0.00000000000E+00 -0.00000000000E+00 -0.43527337503E+02  0.43527337503E+02  0.00000000000E+00 0.  1.
          6    1    1    2  501    0  0.69208256779E+02  0.11621522070E+03  0.54350417495E+03  0.58619241595E+03  0.17300000000E+03 0.  1.
         -6    1    1    2    0  502 -0.69208256779E+02 -0.11621522070E+03  0.52129927612E+03  0.56566571012E+03  0.17300000000E+03 0.  1.
<mgrwt>
<rscale>  2 0.21960137E+03</rscale>
<asrwt>0</asrwt>
<pdfrwt beam="1">  1       21 0.17051241E+00 0.21960137E+03</pdfrwt>
<pdfrwt beam="2">  1       21 0.66965143E-02 0.21960137E+03</pdfrwt>
<totfact> 0.33976971E+04</totfact>
</mgrwt>
</event>
<event>
 4    1  0.3973261E+000  0.1744223E+03  0.7546771E-02  0.1173313E+00
         21   -1    0    0  501  502  0.00000000000E+00  0.00000000000E+00  0.70109949989E+02  0.70109949989E+02  0.00000000000E+00 0. -1.
         21   -1    0    0  502  503 -0.00000000000E+00 -0.00000000000E+00 -0.58250715626E+03  0.58250715626E+03  0.00000000000E+00 0. -1.
          6    1    1    2  501    0 -0.97313200530E+01  0.19985670797E+02 -0.91402370685E+02  0.19692008276E+03  0.17300000000E+03 0. -1.
         -6    1    1    2    0  503  0.97313200530E+01 -0.19985670797E+02 -0.42099483558E+03  0.45569702349E+03  0.17300000000E+03 0. -1.
<mgrwt>
<rscale>  2 0.17442226E+03</rscale>
<asrwt>0</asrwt>
<pdfrwt beam="1">  1       21 0.10786146E-01 0.17442226E+03</pdfrwt>
<pdfrwt beam="2">  1       21 0.89616484E-01 0.17442226E+03</pdfrwt>
<totfact> 0.75905217E+04</totfact>
</mgrwt>
</event>
<event>
 4    1  0.3973261E+000  0.2467730E+03  0.7546771E-02  0.1115361E+00
         21   -1    0    0  501  502  0.00000000000E+00  0.00000000000E+00  0.82598254123E+02  0.82598254123E+02  0.00000000000E+00 0. -1.
         21   -1    0    0  502  503 -0.00000000000E+00 -0.00000000000E+00 -0.84325216516E+03  0.84325216516E+03  0.00000000000E+00 0. -1.
          6    1    1    2  501    0  0.17065759038E+03 -0.42940624842E+02 -0.21620902047E+03  0.32809030913E+03  0.17300000000E+03 0. -1.
         -6    1    1    2    0  503 -0.17065759038E+03  0.42940624842E+02 -0.54444489057E+03  0.59776011015E+03  0.17300000000E+03 0. -1.
<mgrwt>
<rscale>  2 0.24677299E+03</rscale>
<asrwt>0</asrwt>
<pdfrwt beam="1">  1       21 0.12707423E-01 0.24677299E+03</pdfrwt>
<pdfrwt beam="2">  1       21 0.12973111E+00 0.24677299E+03</pdfrwt>
<totfact> 0.22297367E+04</totfact>
</mgrwt>
</event>
<event>
 4    1  0.3973261E+000  0.2103758E+03  0.7546771E-02  0.1141269E+00
         21   -1    0    0  503  502  0.00000000000E+00  0.00000000000E+00  0.42337739703E+02  0.42337739703E+02  0.00000000000E+00 0.  1.
         21   -1    0    0  501  503 -0.00000000000E+00 -0.00000000000E+00 -0.10473689419E+04  0.10473689419E+04  0.00000000000E+00 0.  1.
          6    1    1    2  501    0  0.24027249065E+02  0.11726743451E+03 -0.52640876160E+03  0.56688988718E+03  0.17300000000E+03 0.  1.
         -6    1    1    2    0  502 -0.24027249065E+02 -0.11726743451E+03 -0.47862244062E+03  0.52281679445E+03  0.17300000000E+03 0.  1.
<mgrwt>
<rscale>  2 0.21037576E+03</rscale>
<asrwt>0</asrwt>
<pdfrwt beam="1">  1       21 0.65134989E-02 0.21037576E+03</pdfrwt>
<pdfrwt beam="2">  1       21 0.16113367E+00 0.21037576E+03</pdfrwt>
<totfact> 0.41845897E+04</totfact>
</mgrwt>
</event>
<event>
 4    1  0.3973261E+000  0.1739578E+03  0.7546771E-02  0.1173782E+00
         21   -1    0    0  503  502  0.00000000000E+00  0.00000000000E+00  0.13940996555E+03  0.13940996555E+03  0.00000000000E+00 0.  1.
         21   -1    0    0  501  503 -0.00000000000E+00 -0.00000000000E+00 -0.21707129468E+03  0.21707129468E+03  0.00000000000E+00 0.  1.
          6    1    1    2  501    0 -0.52261949820E+01 -0.17464623967E+02 -0.38053371104E+02  0.17807129262E+03  0.17300000000E+03 0.  1.
         -6    1    1    2    0  502  0.52261949820E+01  0.17464623967E+02 -0.39607958026E+02  0.17840996761E+03  0.17300000000E+03 0.  1.
<mgrwt>
<rscale>  2 0.17395783E+03</rscale>
<asrwt>0</asrwt>
<pdfrwt beam="1">  1       21 0.21447687E-01 0.17395783E+03</pdfrwt>
<pdfrwt beam="2">  1       21 0.33395584E-01 0.17395783E+03</pdfrwt>
<totfact> 0.17585396E+05</totfact>
</mgrwt>
</event>
<event>
 4    1  0.3973261E+000  0.1764509E+03  0.7546771E-02  0.1171283E+00
         21   -1    0    0  503  502  0.00000000000E+00  0.00000000000E+00  0.50308128054E+03  0.50308128054E+03  0.00000000000E+00 0. -1.
         21   -1    0    0  501  503 -0.00000000000E+00 -0.00000000000E+00 -0.65414070709E+02  0.65414070709E+02  0.00000000000E+00 0. -1.
          6    1    1    2  501    0 -0.19300659416E+02 -0.28868448077E+02  0.15284311947E+03  0.23344361614E+03  0.17300000000E+03 0.  1.
         -6    1    1    2    0  502  0.19300659416E+02  0.28868448077E+02  0.28482409036E+03  0.33505173510E+03  0.17300000000E+03 0.  1.
<mgrwt>
<rscale>  2 0.17645085E+03</rscale>
<asrwt>0</asrwt>
<pdfrwt beam="1">  1       21 0.77397118E-01 0.17645085E+03</pdfrwt>
<pdfrwt beam="2">  1       21 0.10063704E-01 0.17645085E+03</pdfrwt>
<totfact> 0.11961493E+05</totfact>
</mgrwt>
</event>
<event>
 4    1  0.3973261E+000  0.1852118E+03  0.7546771E-02  0.1162852E+00
         21   -1    0    0  501  502  0.00000000000E+00  0.00000000000E+00  0.84469332550E+03  0.84469332550E+03  0.00000000000E+00 0.  1.
         21   -1    0    0  502  503 -0.00000000000E+00 -0.00000000000E+00 -0.60026558744E+02  0.60026558744E+02  0.00000000000E+00 0.  1.
          6    1    1    2  501    0  0.63133061342E+02 -0.19713219578E+02  0.64960582657E+03  0.67549324525E+03  0.17300000000E+03 0.  1.
         -6    1    1    2    0  503 -0.63133061342E+02  0.19713219578E+02  0.13506094018E+03  0.22922663899E+03  0.17300000000E+03 0.  1.
<mgrwt>
<rscale>  2 0.18521176E+03</rscale>
<asrwt>0</asrwt>
<pdfrwt beam="1">  1       21 0.12995281E+00 0.18521176E+03</pdfrwt>
<pdfrwt beam="2">  1       21 0.92348557E-02 0.18521176E+03</pdfrwt>
<totfact> 0.40560247E+04</totfact>
</mgrwt>
</event>
<event>
 4    1  0.3973261E+000  0.2012847E+03  0.7546771E-02  0.1148660E+00
         21   -1    0    0  503  502  0.00000000000E+00  0.00000000000E+00  0.11841467956E+03  0.11841467956E+03  0.00000000000E+00 0.  1.
         21   -1    0    0  501  503 -0.00000000000E+00 -0.00000000000E+00 -0.15916324831E+04  0.15916324831E+04  0.00000000000E+00 0.  1.
          6    1    1    2  501    0 -0.33497512578E+02 -0.97285404613E+02 -0.14941773072E+04  0.15076741553E+04  0.17300000000E+03 0.  1.
         -6    1    1    2    0  502  0.33497512578E+02  0.97285404613E+02  0.20959503659E+02  0.20237300732E+03  0.17300000000E+03 0.  1.
<mgrwt>
<rscale>  2 0.20128471E+03</rscale>
<asrwt>0</asrwt>
<pdfrwt beam="1">  1       21 0.18217643E-01 0.20128471E+03</pdfrwt>
<pdfrwt beam="2">  1       21 0.24486653E+00 0.20128471E+03</pdfrwt>
<totfact> 0.19386685E+03</totfact>
</mgrwt>
</event>
<event>
 4    1  0.3973261E+000  0.3561814E+03  0.7546771E-02  0.1060106E+00
         21   -1    0    0  503  502  0.00000000000E+00  0.00000000000E+00  0.76227136351E+03  0.76227136351E+03  0.00000000000E+00 0.  1.
         21   -1    0    0  501  503 -0.00000000000E+00 -0.00000000000E+00 -0.16654732147E+03  0.16654732147E+03  0.00000000000E+00 0. -1.
          6    1    1    2  501    0  0.20466848310E+03  0.23462102920E+03  0.28556312146E+03  0.45652109661E+03  0.17300000000E+03 0.  1.
         -6    1    1    2    0  502 -0.20466848310E+03 -0.23462102920E+03  0.31016092058E+03  0.47229758836E+03  0.17300000000E+03 0. -1.
<mgrwt>
<rscale>  2 0.35618144E+03</rscale>
<asrwt>0</asrwt>
<pdfrwt beam="1">  1       21 0.11727252E+00 0.35618144E+03</pdfrwt>
<pdfrwt beam="2">  1       21 0.25622665E-01 0.35618144E+03</pdfrwt>
<totfact> 0.73727027E+03</totfact>
</mgrwt>
</event>
<event>
 4    1  0.3973261E+000  0.1864415E+03  0.7546771E-02  0.1161711E+00
         21   -1    0    0  503  502  0.00000000000E+00  0.00000000000E+00  0.27431058619E+03  0.27431058619E+03  0.00000000000E+00 0. -1.
         21   -1    0    0  501  503 -0.00000000000E+00 -0.00000000000E+00 -0.13408982093E+03  0.13408982093E+03  0.00000000000E+00 0. -1.
          6    1    1    2  501    0  0.15451140148E+02  0.67769455832E+02  0.22235438536E+02  0.18776275350E+03  0.17300000000E+03 0. -1.
         -6    1    1    2    0  502 -0.15451140148E+02 -0.67769455832E+02  0.11798532672E+03  0.22063765363E+03  0.17300000000E+03 0. -1.
<mgrwt>
<rscale>  2 0.18644151E+03</rscale>
<asrwt>0</asrwt>
<pdfrwt beam="1">  1       21 0.42201629E-01 0.18644151E+03</pdfrwt>
<pdfrwt beam="2">  1       21 0.20629203E-01 0.18644151E+03</pdfrwt>
<totfact> 0.11796268E+05</totfact>
</mgrwt>
</event>
<event>
 4    1  0.3973261E+000  0.2212266E+03  0.7546771E-02  0.1132972E+00
         21   -1    0    0  501  502  0.00000000000E+00  0.00000000000E+00  0.17133660736E+03  0.17133660736E+03  0.00000000000E+00 0. -1.
         21   -1    0    0  502  503 -0.00000000000E+00 -0.00000000000E+00 -0.36139995448E+03  0.36139995448E+03  0.00000000000E+00 0. -1.
          6    1    1    2  501    0 -0.85967343911E+02  0.10780450910E+03  0.26922914736E+02  0.22285878878E+03  0.17300000000E+03 0. -1.
         -6    1    1    2    0  503  0.85967343911E+02 -0.10780450910E+03 -0.21698626185E+03  0.30987777306E+03  0.17300000000E+03 0. -1.
<mgrwt>
<rscale>  2 0.22122657E+03</rscale>
<asrwt>0</asrwt>
<pdfrwt beam="1">  1       21 0.26359478E-01 0.22122657E+03</pdfrwt>
<pdfrwt beam="2">  1       21 0.55599992E-01 0.22122657E+03</pdfrwt>
<totfact> 0.41132910E+04</totfact>
</mgrwt>
</event>
<event>
 4    1  0.3973261E+000  0.1899113E+03  0.7546771E-02  0.1158541E+00
         21   -1    0    0  503  502  0.00000000000E+00  0.00000000000E+00  0.96902871694E+02  0.96902871694E+02  0.00000000000E+00 0.  1.
         21   -1    0    0  501  503 -0.00000000000E+00 -0.00000000000E+00 -0.40078900192E+03  0.40078900192E+03  0.00000000000E+00 0.  1.
          6    1    1    2  501    0  0.69185172225E+02 -0.36751859118E+02 -0.21841640739E+03  0.28943395485E+03  0.17300000000E+03 0.  1.
         -6    1    1    2    0  502 -0.69185172225E+02  0.36751859118E+02 -0.85469722835E+02  0.20825791876E+03  0.17300000000E+03 0.  1.
<mgrwt>
<rscale>  2 0.18991126E+03</rscale>
<asrwt>0</asrwt>
<pdfrwt beam="1">  1       21 0.14908134E-01 0.18991126E+03</pdfrwt>
<pdfrwt beam="2">  1       21 0.61659847E-01 0.18991126E+03</pdfrwt>
<totfact> 0.97033774E+04</totfact>
</mgrwt>
</event>
<event>
 4    1  0.3973261E+000  0.2194814E+03  0.7546771E-02  0.1134270E+00
         21   -1    0    0  501  502  0.00000000000E+00  0.00000000000E+00  0.10866608143E+03  0.10866608143E+03  0.00000000000E+00 0. -1.
         21   -1    0    0  502  503 -0.00000000000E+00 -0.00000000000E+00 -0.49390614869E+03  0.49390614869E+03  0.00000000000E+00 0.  1.
          6    1    1    2  501    0  0.10602944280E+03  0.83671039017E+02 -0.96183344753E+02  0.23963163673E+03  0.17300000000E+03 0. -1.
         -6    1    1    2    0  503 -0.10602944280E+03 -0.83671039017E+02 -0.28905672250E+03  0.36294059340E+03  0.17300000000E+03 0.  1.
<mgrwt>
<rscale>  2 0.21948140E+03</rscale>
<asrwt>0</asrwt>
<pdfrwt beam="1">  1       21 0.16717859E-01 0.21948140E+03</pdfrwt>
<pdfrwt beam="2">  1       21 0.75985561E-01 0.21948140E+03</pdfrwt>
<totfact> 0.49035880E+04</totfact>
</mgrwt>
</event>
<event>
 4    1  0.3973261E+000  0.1906244E+03  0.7546771E-02  0.1157899E+00
         21   -1    0    0  501  502  0.00000000000E+00  0.00000000000E+00  0.51881765210E+03  0.51881765210E+03  0.00000000000E+00 0. -1.
         21   -1    0    0  502  503 -0.00000000000E+00 -0.00000000000E+00 -0.11300665120E+03  0.11300665120E+03  0.00000000000E+00 0. -1.
          6    1    1    2  501    0 -0.29253155438E+02  0.74517880950E+02  0.39770294892E+03  0.44102754705E+03  0.17300000000E+03 0. -1.
         -6    1    1    2    0  503  0.29253155438E+02 -0.74517880950E+02  0.81080519850E+01  0.19079675624E+03  0.17300000000E+03 0. -1.
<mgrwt>
<rscale>  2 0.19062440E+03</rscale>
<asrwt>0</asrwt>
<pdfrwt beam="1">  1       21 0.79818099E-01 0.19062440E+03</pdfrwt>
<pdfrwt beam="2">  1       21 0.17385639E-01 0.19062440E+03</pdfrwt>
<totfact> 0.41426664E+04</totfact>
</mgrwt>
</event>
<event>
 4    1  0.3973261E+000  0.1909474E+03  0.7546771E-02  0.1157610E+00
         21   -1    0    0  503  502  0.00000000000E+00  0.00000000000E+00  0.72612228169E+02  0.72612228169E+02  0.00000000000E+00 0. -1.
         21   -1    0    0  501  503 -0.00000000000E+00 -0.00000000000E+00 -0.68402422358E+03  0.68402422358E+03  0.00000000000E+00 0. -1.
          6    1    1    2  501    0 -0.43346120076E+02 -0.68213032026E+02 -0.50079325810E+03  0.53596155760E+03  0.17300000000E+03 0. -1.
         -6    1    1    2    0  502  0.43346120076E+02  0.68213032026E+02 -0.11061873731E+03  0.22067489415E+03  0.17300000000E+03 0. -1.
<mgrwt>
<rscale>  2 0.19094739E+03</rscale>
<asrwt>0</asrwt>
<pdfrwt beam="1">  1       21 0.11171112E-01 0.19094739E+03</pdfrwt>
<pdfrwt beam="2">  1       21 0.10523450E+00 0.19094739E+03</pdfrwt>
<totfact> 0.48497916E+04</totfact>
</mgrwt>
</event>
<event>
 4    1  0.3973261E+000  0.1880136E+03  0.7546771E-02  0.1160265E+00
         21   -1    0    0  501  502  0.00000000000E+00  0.00000000000E+00  0.90127948889E+03  0.90127948889E+03  0.00000000000E+00 0.  1.
         21   -1    0    0  502  503 -0.00000000000E+00 -0.00000000000E+00 -0.50796794537E+02  0.50796794537E+02  0.00000000000E+00 0.  1.
          6    1    1    2  501    0  0.72840278016E+02 -0.10695530250E+02  0.65248859657E+03  0.67903642695E+03  0.17300000000E+03 0.  1.
         -6    1    1    2    0  503 -0.72840278016E+02  0.10695530250E+02  0.19799409778E+03  0.27303985648E+03  0.17300000000E+03 0.  1.
<mgrwt>
<rscale>  2 0.18801356E+03</rscale>
<asrwt>0</asrwt>
<pdfrwt beam="1">  1       21 0.13865837E+00 0.18801356E+03</pdfrwt>
<pdfrwt beam="2">  1       21 0.78148922E-02 0.18801356E+03</pdfrwt>
<totfact> 0.45968083E+04</totfact>
</mgrwt>
</event>
<event>
 4    1  0.3973261E+000  0.1816472E+03  0.7546771E-02  0.1166218E+00
         21   -1    0    0  501  502  0.00000000000E+00  0.00000000000E+00  0.82244474754E+02  0.82244474754E+02  0.00000000000E+00 0. -1.
         21   -1    0    0  502  503 -0.00000000000E+00 -0.00000000000E+00 -0.47378347266E+03  0.47378347266E+03  0.00000000000E+00 0. -1.
          6    1    1    2  501    0 -0.21385351121E+02 -0.51082057165E+02 -0.86945751668E+02  0.20138339937E+03  0.17300000000E+03 0. -1.
         -6    1    1    2    0  503  0.21385351121E+02  0.51082057165E+02 -0.30459324624E+03  0.35464454805E+03  0.17300000000E+03 0. -1.
<mgrwt>
<rscale>  2 0.18164721E+03</rscale>
<asrwt>0</asrwt>
<pdfrwt beam="1">  1       21 0.12652996E-01 0.18164721E+03</pdfrwt>
<pdfrwt beam="2">  1       21 0.72889766E-01 0.18164721E+03</pdfrwt>
<totfact> 0.90813316E+04</totfact>
</mgrwt>
</event>
<event>
 4    1  0.3973261E+000  0.2396177E+03  0.7546771E-02  0.1120048E+00
         21   -1    0    0  503  502  0.00000000000E+00  0.00000000000E+00  0.27313461446E+03  0.27313461446E+03  0.00000000000E+00 0.  1.
         21   -1    0    0  501  503 -0.00000000000E+00 -0.00000000000E+00 -0.49347333857E+03  0.49347333857E+03  0.00000000000E+00 0.  1.
          6    1    1    2  501    0  0.58158192590E+01 -0.16569196554E+03 -0.40057416115E+03  0.46677222473E+03  0.17300000000E+03 0.  1.
         -6    1    1    2    0  502 -0.58158192590E+01  0.16569196554E+03  0.18023543704E+03  0.29983572830E+03  0.17300000000E+03 0.  1.
<mgrwt>
<rscale>  2 0.23961772E+03</rscale>
<asrwt>0</asrwt>
<pdfrwt beam="1">  1       21 0.42020710E-01 0.23961772E+03</pdfrwt>
<pdfrwt beam="2">  1       21 0.75918975E-01 0.23961772E+03</pdfrwt>
<totfact> 0.81745324E+03</totfact>
</mgrwt>
</event>
<event>
 4    1  0.3973261E+000  0.2308667E+03  0.7546771E-02  0.1126031E+00
         21   -1    0    0  503  502  0.00000000000E+00  0.00000000000E+00  0.39140945829E+03  0.39140945829E+03  0.00000000000E+00 0. -1.
         21   -1    0    0  501  503 -0.00000000000E+00 -0.00000000000E+00 -0.32055617041E+03  0.32055617041E+03  0.00000000000E+00 0. -1.
          6    1    1    2  501    0 -0.11299680886E+03  0.10296666070E+03 -0.23455706865E+03  0.32911461603E+03  0.17300000000E+03 0. -1.
         -6    1    1    2    0  502  0.11299680886E+03 -0.10296666070E+03  0.30541035654E+03  0.38285101267E+03  0.17300000000E+03 0. -1.
<mgrwt>
<rscale>  2 0.23086665E+03</rscale>
<asrwt>0</asrwt>
<pdfrwt beam="1">  1       21 0.60216840E-01 0.23086665E+03</pdfrwt>
<pdfrwt beam="2">  1       21 0.49316334E-01 0.23086665E+03</pdfrwt>
<totfact> 0.98338062E+03</totfact>
</mgrwt>
</event>
<event>
 4    1  0.3973261E+000  0.2649135E+03  0.7546771E-02  0.1104227E+00
         21   -1    0    0  503  502  0.00000000000E+00  0.00000000000E+00  0.30173435170E+03  0.30173435170E+03  0.00000000000E+00 0. -1.
         21   -1    0    0  501  503 -0.00000000000E+00 -0.00000000000E+00 -0.30270676374E+03  0.30270676374E+03  0.00000000000E+00 0. -1.
          6    1    1    2  501    0 -0.18128100084E+03 -0.85949800624E+02 -0.14594380940E+03  0.30245456683E+03  0.17300000000E+03 0. -1.
         -6    1    1    2    0  502  0.18128100084E+03  0.85949800624E+02  0.14497139735E+03  0.30198654861E+03  0.17300000000E+03 0. -1.
<mgrwt>
<rscale>  2 0.26491351E+03</rscale>
<asrwt>0</asrwt>
<pdfrwt beam="1">  1       21 0.46420670E-01 0.26491351E+03</pdfrwt>
<pdfrwt beam="2">  1       21 0.46570271E-01 0.26491351E+03</pdfrwt>
<totfact> 0.18884307E+04</totfact>
</mgrwt>
</event>
<event>
 4    1  0.3973261E+000  0.2149601E+03  0.7546771E-02  0.1137697E+00
         21   -1    0    0  503  502  0.00000000000E+00  0.00000000000E+00  0.73397020769E+02  0.73397020769E+02  0.00000000000E+00 0. -1.
         21   -1    0    0  501  503 -0.00000000000E+00 -0.00000000000E+00 -0.87161061799E+03  0.87161061799E+03  0.00000000000E+00 0. -1.
          6    1    1    2  501    0 -0.84695515062E+02  0.95422875777E+02 -0.64810535773E+03  0.68282385006E+03  0.17300000000E+03 0. -1.
         -6    1    1    2    0  502  0.84695515062E+02 -0.95422875777E+02 -0.15010823949E+03  0.26218378870E+03  0.17300000000E+03 0. -1.
<mgrwt>
<rscale>  2 0.21496013E+03</rscale>
<asrwt>0</asrwt>
<pdfrwt beam="1">  1       21 0.11291849E-01 0.21496013E+03</pdfrwt>
<pdfrwt beam="2">  1       21 0.13409394E+00 0.21496013E+03</pdfrwt>
<totfact> 0.25786439E+04</totfact>
</mgrwt>
</event>
<event>
 4    1  0.3973261E+000  0.3073888E+03  0.7546771E-02  0.1081604E+00
         21   -1    0    0  501  502  0.00000000000E+00  0.00000000000E+00  0.13568166916E+03  0.13568166916E+03  0.00000000000E+00 0. -1.
         21   -1    0    0  502  503 -0.00000000000E+00 -0.00000000000E+00 -0.99648183554E+03  0.99648183554E+03  0.00000000000E+00 0. -1.
          6    1    1    2  501    0 -0.22167679446E+03  0.12417044408E+03 -0.11975201480E+03  0.32989156617E+03  0.17300000000E+03 0. -1.
         -6    1    1    2    0  503  0.22167679446E+03 -0.12417044408E+03 -0.74104815158E+03  0.80227193853E+03  0.17300000000E+03 0. -1.
<mgrwt>
<rscale>  2 0.30738884E+03</rscale>
<asrwt>0</asrwt>
<pdfrwt beam="1">  1       21 0.20874103E-01 0.30738884E+03</pdfrwt>
<pdfrwt beam="2">  1       21 0.15330490E+00 0.30738884E+03</pdfrwt>
<totfact> 0.55699872E+03</totfact>
</mgrwt>
</event>
<event>
 4    1  0.3973261E+000  0.2054267E+03  0.7546771E-02  0.1145240E+00
         21   -1    0    0  501  502  0.00000000000E+00  0.00000000000E+00  0.39843711888E+03  0.39843711888E+03  0.00000000000E+00 0.  1.
         21   -1    0    0  502  503 -0.00000000000E+00 -0.00000000000E+00 -0.11444824156E+03  0.11444824156E+03  0.00000000000E+00 0.  1.
          6    1    1    2  501    0  0.95935802696E+02 -0.55384676932E+02  0.21202113433E+03  0.29521704233E+03  0.17300000000E+03 0.  1.
         -6    1    1    2    0  503 -0.95935802696E+02  0.55384676932E+02  0.71967743001E+02  0.21766831811E+03  0.17300000000E+03 0.  1.
<mgrwt>
<rscale>  2 0.20542673E+03</rscale>
<asrwt>0</asrwt>
<pdfrwt beam="1">  1       21 0.61298017E-01 0.20542673E+03</pdfrwt>
<pdfrwt beam="2">  1       21 0.17607422E-01 0.20542673E+03</pdfrwt>
<totfact> 0.71952373E+04</totfact>
</mgrwt>
</event>
<event>
 4    1  0.3973261E+000  0.1933659E+03  0.7546771E-02  0.1155460E+00
         21   -1    0    0  501  502  0.00000000000E+00  0.00000000000E+00  0.27782882574E+03  0.27782882574E+03  0.00000000000E+00 0.  1.
         21   -1    0    0  502  503 -0.00000000000E+00 -0.00000000000E+00 -0.16274030900E+03  0.16274030900E+03  0.00000000000E+00 0.  1.
          6    1    1    2  501    0 -0.14841631313E+02 -0.85094741777E+02  0.14917686848E+03  0.24422147159E+03  0.17300000000E+03 0.  1.
         -6    1    1    2    0  503  0.14841631313E+02  0.85094741777E+02 -0.34088351744E+02  0.19634766315E+03  0.17300000000E+03 0.  1.
<mgrwt>
<rscale>  2 0.19336595E+03</rscale>
<asrwt>0</asrwt>
<pdfrwt beam="1">  1       21 0.42742896E-01 0.19336595E+03</pdfrwt>
<pdfrwt beam="2">  1       21 0.25036971E-01 0.19336595E+03</pdfrwt>
<totfact> 0.79502315E+04</totfact>
</mgrwt>
</event>
<event>
 4    1  0.3973261E+000  0.1847135E+03  0.7546771E-02  0.1163318E+00
         21   -1    0    0  501  502  0.00000000000E+00  0.00000000000E+00  0.52451061835E+03  0.52451061835E+03  0.00000000000E+00 0.  1.
         21   -1    0    0  502  503 -0.00000000000E+00 -0.00000000000E+00 -0.67794759074E+02  0.67794759074E+02  0.00000000000E+00 0.  1.
          6    1    1    2  501    0  0.62824326485E+02 -0.15593778888E+02  0.28795475000E+03  0.34210670848E+03  0.17300000000E+03 0.  1.
         -6    1    1    2    0  503 -0.62824326485E+02  0.15593778888E+02  0.16876110928E+03  0.25019866895E+03  0.17300000000E+03 0.  1.
<mgrwt>
<rscale>  2 0.18471346E+03</rscale>
<asrwt>0</asrwt>
<pdfrwt beam="1">  1       21 0.80693939E-01 0.18471346E+03</pdfrwt>
<pdfrwt beam="2">  1       21 0.10429963E-01 0.18471346E+03</pdfrwt>
<totfact> 0.10190460E+05</totfact>
</mgrwt>
</event>
<event>
 4    1  0.3973261E+000  0.2868366E+03  0.7546771E-02  0.1092012E+00
         21   -1    0    0  503  502  0.00000000000E+00  0.00000000000E+00  0.34676176515E+03  0.34676176515E+03  0.00000000000E+00 0. -1.
         21   -1    0    0  501  503 -0.00000000000E+00 -0.00000000000E+00 -0.62400612837E+03  0.62400612837E+03  0.00000000000E+00 0. -1.
          6    1    1    2  501    0  0.16499636644E+03  0.15850066323E+03 -0.52074222264E+03  0.59451469589E+03  0.17300000000E+03 0. -1.
         -6    1    1    2    0  502 -0.16499636644E+03 -0.15850066323E+03  0.24349785943E+03  0.37625319763E+03  0.17300000000E+03 0. -1.
<mgrwt>
<rscale>  2 0.28683665E+03</rscale>
<asrwt>0</asrwt>
<pdfrwt beam="1">  1       21 0.53347964E-01 0.28683665E+03</pdfrwt>
<pdfrwt beam="2">  1       21 0.96000943E-01 0.28683665E+03</pdfrwt>
<totfact> 0.28102524E+03</totfact>
</mgrwt>
</event>
<event>
 4    1  0.3973261E+000  0.2162661E+03  0.7546771E-02  0.1136698E+00
         21   -1    0    0  501  502  0.00000000000E+00  0.00000000000E+00  0.29089888996E+03  0.29089888996E+03  0.00000000000E+00 0. -1.
         21   -1    0    0  502  503 -0.00000000000E+00 -0.00000000000E+00 -0.23593277209E+03  0.23593277209E+03  0.00000000000E+00 0.  1.
          6    1    1    2  501    0  0.14852995451E+01 -0.12976825390E+03  0.17615103705E+03  0.27892686082E+03  0.17300000000E+03 0. -1.
         -6    1    1    2    0  503 -0.14852995451E+01  0.12976825390E+03 -0.12118491919E+03  0.24790480123E+03  0.17300000000E+03 0. -1.
<mgrwt>
<rscale>  2 0.21626605E+03</rscale>
<asrwt>0</asrwt>
<pdfrwt beam="1">  1       21 0.44753675E-01 0.21626605E+03</pdfrwt>
<pdfrwt beam="2">  1       21 0.36297350E-01 0.21626605E+03</pdfrwt>
<totfact> 0.34650080E+04</totfact>
</mgrwt>
</event>
<event>
 4    1  0.3973261E+000  0.2084906E+03  0.7546771E-02  0.1142767E+00
         21   -1    0    0  503  502  0.00000000000E+00  0.00000000000E+00  0.39419432797E+03  0.39419432797E+03  0.00000000000E+00 0.  1.
         21   -1    0    0  501  503 -0.00000000000E+00 -0.00000000000E+00 -0.17783692132E+03  0.17783692132E+03  0.00000000000E+00 0.  1.
          6    1    1    2  501    0 -0.11189443211E+03 -0.31921201364E+02 -0.68116960792E+02  0.21933592360E+03  0.17300000000E+03 0.  1.
         -6    1    1    2    0  502  0.11189443211E+03  0.31921201364E+02  0.28447436744E+03  0.35269532569E+03  0.17300000000E+03 0.  1.
<mgrwt>
<rscale>  2 0.20849059E+03</rscale>
<asrwt>0</asrwt>
<pdfrwt beam="1">  1       21 0.60645281E-01 0.20849059E+03</pdfrwt>
<pdfrwt beam="2">  1       21 0.27359527E-01 0.20849059E+03</pdfrwt>
<totfact> 0.31987297E+04</totfact>
</mgrwt>
</event>
<event>
 4    1  0.3973261E+000  0.1902671E+03  0.7546771E-02  0.1158221E+00
         21   -1    0    0  503  502  0.00000000000E+00  0.00000000000E+00  0.10439074749E+03  0.10439074749E+03  0.00000000000E+00 0. -1.
         21   -1    0    0  501  503 -0.00000000000E+00 -0.00000000000E+00 -0.50981388279E+03  0.50981388279E+03  0.00000000000E+00 0.  1.
          6    1    1    2  501    0  0.37417464581E+02 -0.69803342134E+02 -0.37637327984E+03  0.42173263925E+03  0.17300000000E+03 0.  1.
         -6    1    1    2    0  502 -0.37417464581E+02  0.69803342134E+02 -0.29049855460E+02  0.19247199103E+03  0.17300000000E+03 0. -1.
<mgrwt>
<rscale>  2 0.19026711E+03</rscale>
<asrwt>0</asrwt>
<pdfrwt beam="1">  1       21 0.16060115E-01 0.19026711E+03</pdfrwt>
<pdfrwt beam="2">  1       21 0.78432904E-01 0.19026711E+03</pdfrwt>
<totfact> 0.49860081E+04</totfact>
</mgrwt>
</event>
<event>
 4    1  0.3973261E+000  0.2052455E+03  0.7546771E-02  0.1145387E+00
         21   -1    0    0  503  502  0.00000000000E+00  0.00000000000E+00  0.26442943476E+03  0.26442943476E+03  0.00000000000E+00 0. -1.
         21   -1    0    0  501  503 -0.00000000000E+00 -0.00000000000E+00 -0.19974081214E+03  0.19974081214E+03  0.00000000000E+00 0. -1.
          6    1    1    2  501    0  0.10496447084E+03  0.34339065804E+02 -0.72075073889E+02  0.21753282018E+03  0.17300000000E+03 0. -1.
         -6    1    1    2    0  502 -0.10496447084E+03 -0.34339065804E+02  0.13676369651E+03  0.24663742672E+03  0.17300000000E+03 0. -1.
<mgrwt>
<rscale>  2 0.20524549E+03</rscale>
<asrwt>0</asrwt>
<pdfrwt beam="1">  1       21 0.40681451E-01 0.20524549E+03</pdfrwt>
<pdfrwt beam="2">  1       21 0.30729356E-01 0.20524549E+03</pdfrwt>
<totfact> 0.58843719E+04</totfact>
</mgrwt>
</event>
<event>
 4    1  0.3973261E+000  0.1889901E+03  0.7546771E-02  0.1159375E+00
         21   -1    0    0  501  502  0.00000000000E+00  0.00000000000E+00  0.45095945139E+03  0.45095945139E+03  0.00000000000E+00 0. -1.
         21   -1    0    0  502  503 -0.00000000000E+00 -0.00000000000E+00 -0.13304996982E+03  0.13304996982E+03  0.00000000000E+00 0. -1.
          6    1    1    2  501    0 -0.33464422899E+02  0.68325633103E+02  0.34471971527E+03  0.39312713190E+03  0.17300000000E+03 0. -1.
         -6    1    1    2    0  503  0.33464422899E+02 -0.68325633103E+02 -0.26810233700E+02  0.19088228930E+03  0.17300000000E+03 0. -1.
<mgrwt>
<rscale>  2 0.18899010E+03</rscale>
<asrwt>0</asrwt>
<pdfrwt beam="1">  1       21 0.69378376E-01 0.18899010E+03</pdfrwt>
<pdfrwt beam="2">  1       21 0.20469226E-01 0.18899010E+03</pdfrwt>
<totfact> 0.41845528E+04</totfact>
</mgrwt>
</event>
<event>
 4    1  0.3973261E+000  0.2259628E+03  0.7546771E-02  0.1129514E+00
         21   -1    0    0  501  502  0.00000000000E+00  0.00000000000E+00  0.10167463269E+04  0.10167463269E+04  0.00000000000E+00 0. -1.
         21   -1    0    0  502  503 -0.00000000000E+00 -0.00000000000E+00 -0.50821941998E+02  0.50821941998E+02  0.00000000000E+00 0.  1.
          6    1    1    2  501    0  0.10960402094E+03 -0.95483664112E+02  0.54114106881E+03  0.58642376134E+03  0.17300000000E+03 0.  1.
         -6    1    1    2    0  503 -0.10960402094E+03  0.95483664112E+02  0.42478331609E+03  0.48114450755E+03  0.17300000000E+03 0. -1.
<mgrwt>
<rscale>  2 0.22596277E+03</rscale>
<asrwt>0</asrwt>
<pdfrwt beam="1">  1       21 0.15642250E+00 0.22596277E+03</pdfrwt>
<pdfrwt beam="2">  1       21 0.78187611E-02 0.22596277E+03</pdfrwt>
<totfact> 0.32740259E+04</totfact>
</mgrwt>
</event>
<event>
 4    1  0.3973261E+000  0.1840655E+03  0.7546771E-02  0.1163925E+00
         21   -1    0    0  501  502  0.00000000000E+00  0.00000000000E+00  0.50658819437E+03  0.50658819437E+03  0.00000000000E+00 0. -1.
         21   -1    0    0  502  503 -0.00000000000E+00 -0.00000000000E+00 -0.15233965991E+03  0.15233965991E+03  0.00000000000E+00 0. -1.
          6    1    1    2  501    0 -0.40411920789E+02 -0.48145301280E+02  0.42388985374E+03  0.46212844695E+03  0.17300000000E+03 0. -1.
         -6    1    1    2    0  503  0.40411920789E+02  0.48145301280E+02 -0.69641319278E+02  0.19679940734E+03  0.17300000000E+03 0. -1.
<mgrwt>
<rscale>  2 0.18406546E+03</rscale>
<asrwt>0</asrwt>
<pdfrwt beam="1">  1       21 0.77936645E-01 0.18406546E+03</pdfrwt>
<pdfrwt beam="2">  1       21 0.23436871E-01 0.18406546E+03</pdfrwt>
<totfact> 0.25107430E+04</totfact>
</mgrwt>
</event>
<event>
 4    1  0.3973261E+000  0.1807118E+03  0.7546771E-02  0.1167116E+00
         21   -1    0    0  503  502  0.00000000000E+00  0.00000000000E+00  0.62179337373E+02  0.62179337373E+02  0.00000000000E+00 0. -1.
         21   -1    0    0  501  503 -0.00000000000E+00 -0.00000000000E+00 -0.22019693535E+04  0.22019693535E+04  0.00000000000E+00 0. -1.
          6    1    1    2  501    0 -0.50607888724E+02 -0.12907437580E+02 -0.20577782504E+04  0.20656979663E+04  0.17300000000E+03 0. -1.
         -6    1    1    2    0  502  0.50607888724E+02  0.12907437580E+02 -0.82011765718E+02  0.19845072452E+03  0.17300000000E+03 0. -1.
<mgrwt>
<rscale>  2 0.18071182E+03</rscale>
<asrwt>0</asrwt>
<pdfrwt beam="1">  1       21 0.95660536E-02 0.18071182E+03</pdfrwt>
<pdfrwt beam="2">  1       21 0.33876445E+00 0.18071182E+03</pdfrwt>
<totfact> 0.18169650E+03</totfact>
</mgrwt>
</event>
<event>
 4    1  0.3973261E+000  0.1743351E+03  0.7546771E-02  0.1173401E+00
         21   -1    0    0  501  502  0.00000000000E+00  0.00000000000E+00  0.57698204847E+02  0.57698204847E+02  0.00000000000E+00 0.  1.
         21   -1    0    0  502  503 -0.00000000000E+00 -0.00000000000E+00 -0.64126513182E+03  0.64126513182E+03  0.00000000000E+00 0.  1.
          6    1    1    2  501    0  0.11937117183E+02  0.17922500579E+02 -0.14410027358E+03  0.22618045813E+03  0.17300000000E+03 0.  1.
         -6    1    1    2    0  503 -0.11937117183E+02 -0.17922500579E+02 -0.43946665339E+03  0.47278287854E+03  0.17300000000E+03 0.  1.
<mgrwt>
<rscale>  2 0.17433505E+03</rscale>
<asrwt>0</asrwt>
<pdfrwt beam="1">  1       21 0.88766472E-02 0.17433505E+03</pdfrwt>
<pdfrwt beam="2">  1       21 0.98656170E-01 0.17433505E+03</pdfrwt>
<totfact> 0.85507126E+04</totfact>
</mgrwt>
</event>
<event>
 4    1  0.3973261E+000  0.1787098E+03  0.7546771E-02  0.1169058E+00
         21   -1    0    0  501  502  0.00000000000E+00  0.00000000000E+00  0.59737672059E+02  0.59737672059E+02  0.00000000000E+00 0.  1.
         21   -1    0    0  502  503 -0.00000000000E+00 -0.00000000000E+00 -0.70987560894E+03  0.70987560894E+03  0.00000000000E+00 0.  1.
          6    1    1    2  501    0 -0.29717853915E+02  0.33541446593E+02 -0.13387124275E+03  0.22329059344E+03  0.17300000000E+03 0.  1.
         -6    1    1    2    0  503  0.29717853915E+02 -0.33541446593E+02 -0.51626669413E+03  0.54632268756E+03  0.17300000000E+03 0.  1.
<mgrwt>
<rscale>  2 0.17870976E+03</rscale>
<asrwt>0</asrwt>
<pdfrwt beam="1">  1       21 0.91904115E-02 0.17870976E+03</pdfrwt>
<pdfrwt beam="2">  1       21 0.10921163E+00 0.17870976E+03</pdfrwt>
<totfact> 0.62994120E+04</totfact>
</mgrwt>
</event>
<event>
 4    1  0.3973261E+000  0.3314114E+03  0.7546771E-02  0.1070514E+00
         21   -1    0    0  501  502  0.00000000000E+00  0.00000000000E+00  0.21094812112E+03  0.21094812112E+03  0.00000000000E+00 0. -1.
         21   -1    0    0  502  503 -0.00000000000E+00 -0.00000000000E+00 -0.52710303023E+03  0.52710303023E+03  0.00000000000E+00 0. -1.
          6    1    1    2  501    0  0.17200592441E+03 -0.22431785284E+03 -0.11729739516E+03  0.35155684611E+03  0.17300000000E+03 0. -1.
         -6    1    1    2    0  503 -0.17200592441E+03  0.22431785284E+03 -0.19885751394E+03  0.38649430524E+03  0.17300000000E+03 0. -1.
<mgrwt>
<rscale>  2 0.33141143E+03</rscale>
<asrwt>0</asrwt>
<pdfrwt beam="1">  1       21 0.32453557E-01 0.33141143E+03</pdfrwt>
<pdfrwt beam="2">  1       21 0.81092773E-01 0.33141143E+03</pdfrwt>
<totfact> 0.11330562E+04</totfact>
</mgrwt>
</event>
<event>
 4    1  0.3973261E+000  0.1804399E+03  0.7546771E-02  0.1167378E+00
         21   -1    0    0  503  502  0.00000000000E+00  0.00000000000E+00  0.64281650361E+03  0.64281650361E+03  0.00000000000E+00 0.  1.
         21   -1    0    0  501  503 -0.00000000000E+00 -0.00000000000E+00 -0.61612335820E+02  0.61612335820E+02  0.00000000000E+00 0.  1.
          6    1    1    2  501    0 -0.22873400981E+02  0.45895257960E+02  0.14203329590E+03  0.22963454513E+03  0.17300000000E+03 0.  1.
         -6    1    1    2    0  502  0.22873400981E+02 -0.45895257960E+02  0.43917087189E+03  0.47479429429E+03  0.17300000000E+03 0.  1.
<mgrwt>
<rscale>  2 0.18043993E+03</rscale>
<asrwt>0</asrwt>
<pdfrwt beam="1">  1       21 0.98894842E-01 0.18043993E+03</pdfrwt>
<pdfrwt beam="2">  1       21 0.94788214E-02 0.18043993E+03</pdfrwt>
<totfact> 0.75571548E+04</totfact>
</mgrwt>
</event>
<event>
 4    1  0.3973261E+000  0.1958153E+03  0.7546771E-02  0.1153318E+00
         21   -1    0    0  503  502  0.00000000000E+00  0.00000000000E+00  0.22506032517E+04  0.22506032517E+04  0.00000000000E+00 0.  1.
         21   -1    0    0  501  503 -0.00000000000E+00 -0.00000000000E+00 -0.17182611700E+02  0.17182611700E+02  0.00000000000E+00 0.  1.
          6    1    1    2  501    0  0.53121056628E+02  0.74785019853E+02  0.12210734815E+04  0.12366746108E+04  0.17300000000E+03 0.  1.
         -6    1    1    2    0  502 -0.53121056628E+02 -0.74785019853E+02  0.10123471586E+04  0.10311112526E+04  0.17300000000E+03 0.  1.
<mgrwt>
<rscale>  2 0.19581534E+03</rscale>
<asrwt>0</asrwt>
<pdfrwt beam="1">  1       21 0.34624642E+00 0.19581534E+03</pdfrwt>
<pdfrwt beam="2">  1       21 0.26434805E-02 0.19581534E+03</pdfrwt>
<totfact> 0.14294220E+04</totfact>
</mgrwt>
</event>
<event>
 4    1  0.3973261E+000  0.2051978E+03  0.7546771E-02  0.1145426E+00
         21   -1    0    0  503  502  0.00000000000E+00  0.00000000000E+00  0.25129250575E+03  0.25129250575E+03  0.00000000000E+00 0. -1.
         21   -1    0    0  501  503 -0.00000000000E+00 -0.00000000000E+00 -0.48319221448E+03  0.48319221448E+03  0.00000000000E+00 0.  1.
          6    1    1    2  501    0  0.10839067389E+03 -0.20702643792E+02 -0.41276404237E+03  0.46095584639E+03  0.17300000000E+03 0.  1.
         -6    1    1    2    0  502 -0.10839067389E+03  0.20702643792E+02  0.18086433364E+03  0.27352887385E+03  0.17300000000E+03 0. -1.
<mgrwt>
<rscale>  2 0.20519780E+03</rscale>
<asrwt>0</asrwt>
<pdfrwt beam="1">  1       21 0.38660386E-01 0.20519780E+03</pdfrwt>
<pdfrwt beam="2">  1       21 0.74337263E-01 0.20519780E+03</pdfrwt>
<totfact> 0.10373034E+04</totfact>
</mgrwt>
</event>
<event>
 4    1  0.3973261E+000  0.2120593E+03  0.7546771E-02  0.1139946E+00
         21   -1    0    0  503  502  0.00000000000E+00  0.00000000000E+00  0.39320446678E+03  0.39320446678E+03  0.00000000000E+00 0.  1.
         21   -1    0    0  501  503 -0.00000000000E+00 -0.00000000000E+00 -0.18016589042E+03  0.18016589042E+03  0.00000000000E+00 0.  1.
          6    1    1    2  501    0 -0.10645797970E+03  0.60883826751E+02 -0.66734290202E+02  0.22231195940E+03  0.17300000000E+03 0.  1.
         -6    1    1    2    0  502  0.10645797970E+03 -0.60883826751E+02  0.27977286656E+03  0.35105839780E+03  0.17300000000E+03 0.  1.
<mgrwt>
<rscale>  2 0.21205929E+03</rscale>
<asrwt>0</asrwt>
<pdfrwt beam="1">  1       21 0.60492995E-01 0.21205929E+03</pdfrwt>
<pdfrwt beam="2">  1       21 0.27717829E-01 0.21205929E+03</pdfrwt>
<totfact> 0.31303198E+04</totfact>
</mgrwt>
</event>
<event>
 4    1  0.3973261E+000  0.1807334E+03  0.7546771E-02  0.1167095E+00
         21   -1    0    0  501  502  0.00000000000E+00  0.00000000000E+00  0.67456480337E+03  0.67456480337E+03  0.00000000000E+00 0. -1.
         21   -1    0    0  502  503 -0.00000000000E+00 -0.00000000000E+00 -0.75812490247E+02  0.75812490247E+02  0.00000000000E+00 0.  1.
          6    1    1    2  501    0  0.47373872320E+02 -0.22165128022E+02  0.52488823633E+03  0.55513263039E+03  0.17300000000E+03 0. -1.
         -6    1    1    2    0  503 -0.47373872320E+02  0.22165128022E+02  0.73864076784E+02  0.19524466323E+03  0.17300000000E+03 0.  1.
<mgrwt>
<rscale>  2 0.18073344E+03</rscale>
<asrwt>0</asrwt>
<pdfrwt beam="1">  1       21 0.10377920E+00 0.18073344E+03</pdfrwt>
<pdfrwt beam="2">  1       21 0.11663460E-01 0.18073344E+03</pdfrwt>
<totfact> 0.46676627E+04</totfact>
</mgrwt>
</event>
<event>
 4    1  0.3973261E+000  0.2434978E+03  0.7546771E-02  0.1117484E+00
         21   -1    0    0  503  502  0.00000000000E+00  0.00000000000E+00  0.14746234499E+03  0.14746234499E+03  0.00000000000E+00 0.  1.
         21   -1    0    0  501  503 -0.00000000000E+00 -0.00000000000E+00 -0.68121640420E+03  0.68121640420E+03  0.00000000000E+00 0. -1.
          6    1    1    2  501    0  0.57465128098E+02  0.16143091000E+03 -0.53210811928E+03  0.58517538419E+03  0.17300000000E+03 0. -1.
         -6    1    1    2    0  502 -0.57465128098E+02 -0.16143091000E+03 -0.16459399252E+01  0.24350336501E+03  0.17300000000E+03 0.  1.
<mgrwt>
<rscale>  2 0.24349780E+03</rscale>
<asrwt>0</asrwt>
<pdfrwt beam="1">  1       21 0.22686514E-01 0.24349780E+03</pdfrwt>
<pdfrwt beam="2">  1       21 0.10480252E+00 0.24349780E+03</pdfrwt>
<totfact> 0.12952065E+04</totfact>
</mgrwt>
</event>
<event>
 4    1  0.3973261E+000  0.1994973E+03  0.7546771E-02  0.1150164E+00
         21   -1    0    0  503  502  0.00000000000E+00  0.00000000000E+00  0.17842299861E+03  0.17842299861E+03  0.00000000000E+00 0. -1.
         21   -1    0    0  501  503 -0.00000000000E+00 -0.00000000000E+00 -0.28012754156E+03  0.28012754156E+03  0.00000000000E+00 0. -1.
          6    1    1    2  501    0  0.99153900354E+02  0.62187080337E+01 -0.15433575228E+03  0.25222746226E+03  0.17300000000E+03 0. -1.
         -6    1    1    2    0  502 -0.99153900354E+02 -0.62187080337E+01  0.52631209329E+02  0.20632307792E+03  0.17300000000E+03 0. -1.
<mgrwt>
<rscale>  2 0.19949729E+03</rscale>
<asrwt>0</asrwt>
<pdfrwt beam="1">  1       21 0.27449692E-01 0.19949729E+03</pdfrwt>
<pdfrwt beam="2">  1       21 0.43096545E-01 0.19949729E+03</pdfrwt>
<totfact> 0.65336960E+04</totfact>
</mgrwt>
</event>
<event>
 4    1  0.3973261E+000  0.2065932E+03  0.7546771E-02  0.1144293E+00
         21   -1    0    0  501  502  0.00000000000E+00  0.00000000000E+00  0.18100659732E+04  0.18100659732E+04  0.00000000000E+00 0.  1.
         21   -1    0    0  502  503 -0.00000000000E+00 -0.00000000000E+00 -0.24181478681E+02  0.24181478681E+02  0.00000000000E+00 0.  1.
          6    1    1    2  501    0 -0.91655729411E+01 -0.11255098514E+03  0.10376264039E+04  0.10579930464E+04  0.17300000000E+03 0.  1.
         -6    1    1    2    0  503  0.91655729411E+01  0.11255098514E+03  0.74825809059E+03  0.77625440554E+03  0.17300000000E+03 0.  1.
<mgrwt>
<rscale>  2 0.20659316E+03</rscale>
<asrwt>0</asrwt>
<pdfrwt beam="1">  1       21 0.27847158E+00 0.20659316E+03</pdfrwt>
<pdfrwt beam="2">  1       21 0.37202289E-02 0.20659316E+03</pdfrwt>
<totfact> 0.19834614E+04</totfact>
</mgrwt>
</event>
<event>
 4    1  0.3973261E+000  0.1854981E+03  0.7546771E-02  0.1162586E+00
         21   -1    0    0  501  502  0.00000000000E+00  0.00000000000E+00  0.90780810402E+03  0.90780810402E+03  0.00000000000E+00 0. -1.
         21   -1    0    0  502  503 -0.00000000000E+00 -0.00000000000E+00 -0.11779283235E+03  0.11779283235E+03  0.00000000000E+00 0. -1.
          6    1    1    2  501    0 -0.42000812786E+02 -0.52119731771E+02  0.81731833891E+03  0.83810429055E+03  0.17300000000E+03 0. -1.
         -6    1    1    2    0  503  0.42000812786E+02  0.52119731771E+02 -0.27303067247E+02  0.18749664583E+03  0.17300000000E+03 0. -1.
<mgrwt>
<rscale>  2 0.18549807E+03</rscale>
<asrwt>0</asrwt>
<pdfrwt beam="1">  1       21 0.13966278E+00 0.18549807E+03</pdfrwt>
<pdfrwt beam="2">  1       21 0.18121975E-01 0.18549807E+03</pdfrwt>
<totfact> 0.10037029E+04</totfact>
</mgrwt>
</event>
<event>
 4    1  0.3973261E+000  0.2218501E+03  0.7546771E-02  0.1132511E+00
         21   -1    0    0  503  502  0.00000000000E+00  0.00000000000E+00  0.14760343657E+03  0.14760343657E+03  0.00000000000E+00 0. -1.
         21   -1    0    0  501  503 -0.00000000000E+00 -0.00000000000E+00 -0.34697247155E+03  0.34697247155E+03  0.00000000000E+00 0. -1.
          6    1    1    2  501    0  0.13446844848E+03 -0.34737901449E+02 -0.14851367827E+03  0.26697153044E+03  0.17300000000E+03 0. -1.
         -6    1    1    2    0  502 -0.13446844848E+03  0.34737901449E+02 -0.50855356705E+02  0.22760437768E+03  0.17300000000E+03 0. -1.
<mgrwt>
<rscale>  2 0.22185014E+03</rscale>
<asrwt>0</asrwt>
<pdfrwt beam="1">  1       21 0.22708222E-01 0.22185014E+03</pdfrwt>
<pdfrwt beam="2">  1       21 0.53380379E-01 0.22185014E+03</pdfrwt>
<totfact> 0.59613462E+04</totfact>
</mgrwt>
</event>
<event>
 4    1  0.3973261E+000  0.1828701E+03  0.7546771E-02  0.1165054E+00
         21   -1    0    0  501  502  0.00000000000E+00  0.00000000000E+00  0.71419595219E+03  0.71419595219E+03  0.00000000000E+00 0.  1.
         21   -1    0    0  502  503 -0.00000000000E+00 -0.00000000000E+00 -0.54327313114E+02  0.54327313114E+02  0.00000000000E+00 0.  1.
          6    1    1    2  501    0  0.41695575625E+02 -0.42118331055E+02  0.47274014419E+03  0.50687741987E+03  0.17300000000E+03 0.  1.
         -6    1    1    2    0  503 -0.41695575625E+02  0.42118331055E+02  0.18712849488E+03  0.26164584543E+03  0.17300000000E+03 0.  1.
<mgrwt>
<rscale>  2 0.18287010E+03</rscale>
<asrwt>0</asrwt>
<pdfrwt beam="1">  1       21 0.10987629E+00 0.18287010E+03</pdfrwt>
<pdfrwt beam="2">  1       21 0.83580487E-02 0.18287010E+03</pdfrwt>
<totfact> 0.73140751E+04</totfact>
</mgrwt>
</event>
<event>
 4    1  0.3973261E+000  0.1801906E+03  0.7546771E-02  0.1167619E+00
         21   -1    0    0  503  502  0.00000000000E+00  0.00000000000E+00  0.51836662912E+02  0.51836662912E+02  0.00000000000E+00 0. -1.
         21   -1    0    0  501  503 -0.00000000000E+00 -0.00000000000E+00 -0.91800732274E+03  0.91800732274E+03  0.00000000000E+00 0. -1.
          6    1    1    2  501    0  0.28344408743E+02  0.41668267644E+02 -0.70640720351E+03  0.72902660254E+03  0.17300000000E+03 0.  1.
         -6    1    1    2    0  502 -0.28344408743E+02 -0.41668267644E+02 -0.15976345632E+03  0.24081738311E+03  0.17300000000E+03 0.  1.
<mgrwt>
<rscale>  2 0.18019059E+03</rscale>
<asrwt>0</asrwt>
<pdfrwt beam="1">  1       21 0.79748713E-02 0.18019059E+03</pdfrwt>
<pdfrwt beam="2">  1       21 0.14123189E+00 0.18019059E+03</pdfrwt>
<totfact> 0.42508511E+04</totfact>
</mgrwt>
</event>
<event>
 4    1  0.3973261E+000  0.3659969E+03  0.7546771E-02  0.1056234E+00
         21   -1    0    0  503  502  0.00000000000E+00  0.00000000000E+00  0.15310302584E+03  0.15310302584E+03  0.00000000000E+00 0.  1.
         21   -1    0    0  501  503 -0.00000000000E+00 -0.00000000000E+00 -0.10390087788E+04  0.10390087788E+04  0.00000000000E+00 0.  1.
          6    1    1    2  501    0 -0.46645128505E+02  0.31913788094E+03 -0.67982253243E+03  0.77208317601E+03  0.17300000000E+03 0.  1.
         -6    1    1    2    0  502  0.46645128505E+02 -0.31913788094E+03 -0.20608322048E+03  0.42002862858E+03  0.17300000000E+03 0.  1.
<mgrwt>
<rscale>  2 0.36599693E+03</rscale>
<asrwt>0</asrwt>
<pdfrwt beam="1">  1       21 0.23554310E-01 0.36599693E+03</pdfrwt>
<pdfrwt beam="2">  1       21 0.15984751E+00 0.36599693E+03</pdfrwt>
<totfact> 0.38319557E+03</totfact>
</mgrwt>
</event>
<event>
 4    1  0.3973261E+000  0.1736669E+03  0.7546771E-02  0.1174077E+00
         21   -1    0    0  501  502  0.00000000000E+00  0.00000000000E+00  0.24322216837E+03  0.24322216837E+03  0.00000000000E+00 0.  1.
         21   -1    0    0  502  503 -0.00000000000E+00 -0.00000000000E+00 -0.18253556505E+03  0.18253556505E+03  0.00000000000E+00 0.  1.
          6    1    1    2  501    0  0.11780131669E+02 -0.96138931224E+01  0.15089096658E+03  0.23006147491E+03  0.17300000000E+03 0.  1.
         -6    1    1    2    0  503 -0.11780131669E+02  0.96138931224E+01 -0.90204363255E+02  0.19569625851E+03  0.17300000000E+03 0.  1.
<mgrwt>
<rscale>  2 0.17366692E+03</rscale>
<asrwt>0</asrwt>
<pdfrwt beam="1">  1       21 0.37418795E-01 0.17366692E+03</pdfrwt>
<pdfrwt beam="2">  1       21 0.28082395E-01 0.17366692E+03</pdfrwt>
<totfact> 0.84088212E+04</totfact>
</mgrwt>
</event>
<event>
 4    1  0.3973261E+000  0.2521693E+03  0.7546771E-02  0.1111942E+00
         21   -1    0    0  503  502  0.00000000000E+00  0.00000000000E+00  0.46931466985E+03  0.46931466985E+03  0.00000000000E+00 0.  1.
         21   -1    0    0  501  503 -0.00000000000E+00 -0.00000000000E+00 -0.34686280381E+03  0.34686280381E+03  0.00000000000E+00 0. -1.
          6    1    1    2  501    0 -0.12475736368E+03  0.13452116999E+03 -0.25733765748E+03  0.36029434484E+03  0.17300000000E+03 0. -1.
         -6    1    1    2    0  502  0.12475736368E+03 -0.13452116999E+03  0.37978952352E+03  0.45588312882E+03  0.17300000000E+03 0.  1.
<mgrwt>
<rscale>  2 0.25216928E+03</rscale>
<asrwt>0</asrwt>
<pdfrwt beam="1">  1       21 0.72202256E-01 0.25216928E+03</pdfrwt>
<pdfrwt beam="2">  1       21 0.53363509E-01 0.25216928E+03</pdfrwt>
<totfact> 0.55214771E+03</totfact>
</mgrwt>
</event>
<event>
 4    1  0.3973261E+000  0.2732096E+03  0.7546771E-02  0.1099457E+00
         21   -1    0    0  501  502  0.00000000000E+00  0.00000000000E+00  0.80007481289E+02  0.80007481289E+02  0.00000000000E+00 0.  1.
         21   -1    0    0  502  503 -0.00000000000E+00 -0.00000000000E+00 -0.97536569285E+03  0.97536569285E+03  0.00000000000E+00 0. -1.
          6    1    1    2  501    0 -0.12617543477E+02 -0.21108125435E+03 -0.55771196767E+03  0.62103634130E+03  0.17300000000E+03 0.  1.
         -6    1    1    2    0  503  0.12617543477E+02  0.21108125435E+03 -0.33764624389E+03  0.43433683283E+03  0.17300000000E+03 0. -1.
<mgrwt>
<rscale>  2 0.27320962E+03</rscale>
<asrwt>0</asrwt>
<pdfrwt beam="1">  1       21 0.12308843E-01 0.27320962E+03</pdfrwt>
<pdfrwt beam="2">  1       21 0.15005626E+00 0.27320962E+03</pdfrwt>
<totfact> 0.15946725E+04</totfact>
</mgrwt>
</event>
<event>
 4    1  0.3973261E+000  0.1993339E+03  0.7546771E-02  0.1150302E+00
         21   -1    0    0  501  502  0.00000000000E+00  0.00000000000E+00  0.13495980745E+04  0.13495980745E+04  0.00000000000E+00 0.  1.
         21   -1    0    0  502  503 -0.00000000000E+00 -0.00000000000E+00 -0.30036375661E+02  0.30036375661E+02  0.00000000000E+00 0. -1.
          6    1    1    2  501    0 -0.27343302412E+02  0.95170187378E+02  0.75686975512E+03  0.78267863582E+03  0.17300000000E+03 0. -1.
         -6    1    1    2    0  503  0.27343302412E+02 -0.95170187378E+02  0.56269194376E+03  0.59695581438E+03  0.17300000000E+03 0.  1.
<mgrwt>
<rscale>  2 0.19933394E+03</rscale>
<asrwt>0</asrwt>
<pdfrwt beam="1">  1       21 0.20763043E+00 0.19933394E+03</pdfrwt>
<pdfrwt beam="2">  1       21 0.46209819E-02 0.19933394E+03</pdfrwt>
<totfact> 0.36736506E+04</totfact>
</mgrwt>
</event>
<event>
 4    1  0.3973261E+000  0.2716852E+03  0.7546771E-02  0.1100319E+00
         21   -1    0    0  503  502  0.00000000000E+00  0.00000000000E+00  0.11551296586E+03  0.11551296586E+03  0.00000000000E+00 0. -1.
         21   -1    0    0  501  503 -0.00000000000E+00 -0.00000000000E+00 -0.68379331598E+03  0.68379331598E+03  0.00000000000E+00 0. -1.
          6    1    1    2  501    0 -0.19584731441E+03  0.74348388308E+02 -0.38642814244E+03  0.47237650521E+03  0.17300000000E+03 0. -1.
         -6    1    1    2    0  502  0.19584731441E+03 -0.74348388308E+02 -0.18185220768E+03  0.32692977662E+03  0.17300000000E+03 0. -1.
<mgrwt>
<rscale>  2 0.27168521E+03</rscale>
<asrwt>0</asrwt>
<pdfrwt beam="1">  1       21 0.17771225E-01 0.27168521E+03</pdfrwt>
<pdfrwt beam="2">  1       21 0.10519897E+00 0.27168521E+03</pdfrwt>
<totfact> 0.20030252E+04</totfact>
</mgrwt>
</event>
<event>
 4    1  0.3973261E+000  0.1798171E+03  0.7546771E-02  0.1167980E+00
         21   -1    0    0  501  502  0.00000000000E+00  0.00000000000E+00  0.69336323806E+02  0.69336323806E+02  0.00000000000E+00 0. -1.
         21   -1    0    0  502  503 -0.00000000000E+00 -0.00000000000E+00 -0.84221351985E+03  0.84221351985E+03  0.00000000000E+00 0. -1.
          6    1    1    2  501    0 -0.25029802423E+02 -0.42174473106E+02 -0.81956881053E+02  0.19761353077E+03  0.17300000000E+03 0. -1.
         -6    1    1    2    0  503  0.25029802423E+02  0.42174473106E+02 -0.69092031499E+03  0.71393631289E+03  0.17300000000E+03 0. -1.
<mgrwt>
<rscale>  2 0.17981707E+03</rscale>
<asrwt>0</asrwt>
<pdfrwt beam="1">  1       21 0.10667128E-01 0.17981707E+03</pdfrwt>
<pdfrwt beam="2">  1       21 0.12957130E+00 0.17981707E+03</pdfrwt>
<totfact> 0.31786953E+04</totfact>
</mgrwt>
</event>
<event>
 4    1  0.3973261E+000  0.2076513E+03  0.7546771E-02  0.1143440E+00
         21   -1    0    0  501  502  0.00000000000E+00  0.00000000000E+00  0.17419530964E+03  0.17419530964E+03  0.00000000000E+00 0. -1.
         21   -1    0    0  502  503 -0.00000000000E+00 -0.00000000000E+00 -0.76621520274E+03  0.76621520274E+03  0.00000000000E+00 0. -1.
          6    1    1    2  501    0 -0.67165337839E+02 -0.93160540731E+02  0.90858059639E+02  0.22665889781E+03  0.17300000000E+03 0. -1.
         -6    1    1    2    0  503  0.67165337839E+02  0.93160540731E+02 -0.68287795274E+03  0.71375161457E+03  0.17300000000E+03 0. -1.
<mgrwt>
<rscale>  2 0.20765132E+03</rscale>
<asrwt>0</asrwt>
<pdfrwt beam="1">  1       21 0.26799278E-01 0.20765132E+03</pdfrwt>
<pdfrwt beam="2">  1       21 0.11787926E+00 0.20765132E+03</pdfrwt>
<totfact> 0.72349418E+03</totfact>
</mgrwt>
</event>
<event>
 4    1  0.3973261E+000  0.1949413E+03  0.7546771E-02  0.1154079E+00
         21   -1    0    0  503  502  0.00000000000E+00  0.00000000000E+00  0.40444029312E+02  0.40444029312E+02  0.00000000000E+00 0. -1.
         21   -1    0    0  501  503 -0.00000000000E+00 -0.00000000000E+00 -0.16972551847E+04  0.16972551847E+04  0.00000000000E+00 0. -1.
          6    1    1    2  501    0 -0.87851377858E+02 -0.18847465679E+02 -0.14089033924E+04  0.14223258630E+04  0.17300000000E+03 0. -1.
         -6    1    1    2    0  502  0.87851377858E+02  0.18847465679E+02 -0.24790776299E+03  0.31537335098E+03  0.17300000000E+03 0. -1.
<mgrwt>
<rscale>  2 0.19494125E+03</rscale>
<asrwt>0</asrwt>
<pdfrwt beam="1">  1       21 0.62221593E-02 0.19494125E+03</pdfrwt>
<pdfrwt beam="2">  1       21 0.26111614E+00 0.19494125E+03</pdfrwt>
<totfact> 0.10582145E+04</totfact>
</mgrwt>
</event>
<event>
 4    1  0.3973261E+000  0.1883850E+03  0.7546771E-02  0.1159926E+00
         21   -1    0    0  501  502  0.00000000000E+00  0.00000000000E+00  0.35321944835E+03  0.35321944835E+03  0.00000000000E+00 0. -1.
         21   -1    0    0  502  503 -0.00000000000E+00 -0.00000000000E+00 -0.10083305649E+03  0.10083305649E+03  0.00000000000E+00 0. -1.
          6    1    1    2  501    0  0.60349872746E+02 -0.43792801174E+02  0.13976483856E+03  0.23457008904E+03  0.17300000000E+03 0.  1.
         -6    1    1    2    0  503 -0.60349872746E+02  0.43792801174E+02  0.11262155330E+03  0.21948241580E+03  0.17300000000E+03 0.  1.
<mgrwt>
<rscale>  2 0.18838502E+03</rscale>
<asrwt>0</asrwt>
<pdfrwt beam="1">  1       21 0.54341453E-01 0.18838502E+03</pdfrwt>
<pdfrwt beam="2">  1       21 0.15512778E-01 0.18838502E+03</pdfrwt>
<totfact> 0.11823532E+05</totfact>
</mgrwt>
</event>
<event>
 4    1  0.3973261E+000  0.1903884E+03  0.7546771E-02  0.1158112E+00
         21   -1    0    0  503  502  0.00000000000E+00  0.00000000000E+00  0.19848235339E+04  0.19848235339E+04  0.00000000000E+00 0.  1.
         21   -1    0    0  501  503 -0.00000000000E+00 -0.00000000000E+00 -0.18513587629E+02  0.18513587629E+02  0.00000000000E+00 0.  1.
          6    1    1    2  501    0  0.69942817932E+02 -0.37772097170E+02  0.86649023008E+03  0.88716010276E+03  0.17300000000E+03 0.  1.
         -6    1    1    2    0  502 -0.69942817932E+02  0.37772097170E+02  0.10998197162E+04  0.11161770188E+04  0.17300000000E+03 0.  1.
<mgrwt>
<rscale>  2 0.19038836E+03</rscale>
<asrwt>0</asrwt>
<pdfrwt beam="1">  1       21 0.30535730E+00 0.19038836E+03</pdfrwt>
<pdfrwt beam="2">  1       21 0.28482458E-02 0.19038836E+03</pdfrwt>
<totfact> 0.21970587E+04</totfact>
</mgrwt>
</event>
<event>
 4    1  0.3973261E+000  0.2527454E+03  0.7546771E-02  0.1111582E+00
         21   -1    0    0  501  502  0.00000000000E+00  0.00000000000E+00  0.16708937885E+03  0.16708937885E+03  0.00000000000E+00 0.  1.
         21   -1    0    0  502  503 -0.00000000000E+00 -0.00000000000E+00 -0.38231962213E+03  0.38231962213E+03  0.00000000000E+00 0. -1.
          6    1    1    2  501    0 -0.17795076408E+03  0.47799182463E+02 -0.10886000579E+03  0.27519218219E+03  0.17300000000E+03 0. -1.
         -6    1    1    2    0  503  0.17795076408E+03 -0.47799182463E+02 -0.10637023750E+03  0.27421681879E+03  0.17300000000E+03 0. -1.
<mgrwt>
<rscale>  2 0.25274540E+03</rscale>
<asrwt>0</asrwt>
<pdfrwt beam="1">  1       21 0.25706059E-01 0.25274540E+03</pdfrwt>
<pdfrwt beam="2">  1       21 0.58818403E-01 0.25274540E+03</pdfrwt>
<totfact> 0.37742702E+04</totfact>
</mgrwt>
</event>
<event>
 4    1  0.3973261E+000  0.1892919E+03  0.7546771E-02  0.1159102E+00
         21   -1    0    0  503  502  0.00000000000E+00  0.00000000000E+00  0.23977757343E+04  0.23977757343E+04  0.00000000000E+00 0.  1.
         21   -1    0    0  501  503 -0.00000000000E+00 -0.00000000000E+00 -0.16631470166E+02  0.16631470166E+02  0.00000000000E+00 0.  1.
          6    1    1    2  501    0  0.76633981086E+02 -0.54470997956E+01  0.80599561425E+03  0.82792533972E+03  0.17300000000E+03 0.  1.
         -6    1    1    2    0  502 -0.76633981086E+02  0.54470997956E+01  0.15751486499E+04  0.15864818648E+04  0.17300000000E+03 0.  1.
<mgrwt>
<rscale>  2 0.18929194E+03</rscale>
<asrwt>0</asrwt>
<pdfrwt beam="1">  1       21 0.36888830E+00 0.18929194E+03</pdfrwt>
<pdfrwt beam="2">  1       21 0.25586896E-02 0.18929194E+03</pdfrwt>
<totfact> 0.11149508E+04</totfact>
</mgrwt>
</event>
<event>
 4    1  0.3973261E+000  0.2253561E+03  0.7546771E-02  0.1129952E+00
         21   -1    0    0  501  502  0.00000000000E+00  0.00000000000E+00  0.41895226650E+02  0.41895226650E+02  0.00000000000E+00 0.  1.
         21   -1    0    0  502  503 -0.00000000000E+00 -0.00000000000E+00 -0.12761581026E+04  0.12761581026E+04  0.00000000000E+00 0.  1.
          6    1    1    2  501    0 -0.55920373077E+02  0.13315137164E+03 -0.46959476761E+03  0.52086910224E+03  0.17300000000E+03 0.  1.
         -6    1    1    2    0  503  0.55920373077E+02 -0.13315137164E+03 -0.76466810838E+03  0.79718422705E+03  0.17300000000E+03 0.  1.
<mgrwt>
<rscale>  2 0.22535611E+03</rscale>
<asrwt>0</asrwt>
<pdfrwt beam="1">  1       21 0.64454197E-02 0.22535611E+03</pdfrwt>
<pdfrwt beam="2">  1       21 0.19633201E+00 0.22535611E+03</pdfrwt>
<totfact> 0.24167051E+04</totfact>
</mgrwt>
</event>
<event>
 4    1  0.3973261E+000  0.2157785E+03  0.7546771E-02  0.1137070E+00
         21   -1    0    0  503  502  0.00000000000E+00  0.00000000000E+00  0.99033568329E+03  0.99033568329E+03  0.00000000000E+00 0. -1.
         21   -1    0    0  501  503 -0.00000000000E+00 -0.00000000000E+00 -0.50806540819E+02  0.50806540819E+02  0.00000000000E+00 0. -1.
          6    1    1    2  501    0  0.38325901317E+02 -0.12313596317E+03  0.32754970232E+03  0.39223608659E+03  0.17300000000E+03 0. -1.
         -6    1    1    2    0  502 -0.38325901317E+02  0.12313596317E+03  0.61197944015E+03  0.64890613752E+03  0.17300000000E+03 0. -1.
<mgrwt>
<rscale>  2 0.21577845E+03</rscale>
<asrwt>0</asrwt>
<pdfrwt beam="1">  1       21 0.15235932E+00 0.21577845E+03</pdfrwt>
<pdfrwt beam="2">  1       21 0.78163917E-02 0.21577845E+03</pdfrwt>
<totfact> 0.35348710E+04</totfact>
</mgrwt>
</event>
<event>
 4    1  0.3973261E+000  0.2677354E+03  0.7546771E-02  0.1102583E+00
         21   -1    0    0  501  502  0.00000000000E+00  0.00000000000E+00  0.11809367325E+04  0.11809367325E+04  0.00000000000E+00 0.  1.
         21   -1    0    0  502  503 -0.00000000000E+00 -0.00000000000E+00 -0.61191521108E+02  0.61191521108E+02  0.00000000000E+00 0.  1.
          6    1    1    2  501    0 -0.13859617009E+03 -0.15014772339E+03  0.61556484009E+03  0.67126917817E+03  0.17300000000E+03 0.  1.
         -6    1    1    2    0  503  0.13859617009E+03  0.15014772339E+03  0.50418037127E+03  0.57085907541E+03  0.17300000000E+03 0.  1.
<mgrwt>
<rscale>  2 0.26773539E+03</rscale>
<asrwt>0</asrwt>
<pdfrwt beam="1">  1       21 0.18168256E+00 0.26773539E+03</pdfrwt>
<pdfrwt beam="2">  1       21 0.94140811E-02 0.26773539E+03</pdfrwt>
<totfact> 0.15225496E+04</totfact>
</mgrwt>
</event>
<event>
 4    1  0.3973261E+000  0.1964052E+03  0.7546771E-02  0.1152808E+00
         21   -1    0    0  503  502  0.00000000000E+00  0.00000000000E+00  0.21456216267E+03  0.21456216267E+03  0.00000000000E+00 0. -1.
         21   -1    0    0  501  503 -0.00000000000E+00 -0.00000000000E+00 -0.33535419150E+03  0.33535419150E+03  0.00000000000E+00 0. -1.
          6    1    1    2  501    0 -0.91355991185E+02  0.17322604307E+02 -0.24766981079E+03  0.31609385461E+03  0.17300000000E+03 0. -1.
         -6    1    1    2    0  502  0.91355991185E+02 -0.17322604307E+02  0.12687778196E+03  0.23382249956E+03  0.17300000000E+03 0. -1.
<mgrwt>
<rscale>  2 0.19640517E+03</rscale>
<asrwt>0</asrwt>
<pdfrwt beam="1">  1       21 0.33009563E-01 0.19640517E+03</pdfrwt>
<pdfrwt beam="2">  1       21 0.51592953E-01 0.19640517E+03</pdfrwt>
<totfact> 0.31467382E+04</totfact>
</mgrwt>
</event>
<event>
 4    1  0.3973261E+000  0.3526467E+03  0.7546771E-02  0.1061534E+00
         21   -1    0    0  501  502  0.00000000000E+00  0.00000000000E+00  0.13057546069E+04  0.13057546069E+04  0.00000000000E+00 0.  1.
         21   -1    0    0  502  503 -0.00000000000E+00 -0.00000000000E+00 -0.17414194910E+03  0.17414194910E+03  0.00000000000E+00 0. -1.
          6    1    1    2  501    0 -0.28339567165E+03  0.11881755202E+03  0.10638807854E+04  0.11208041948E+04  0.17300000000E+03 0.  1.
         -6    1    1    2    0  503  0.28339567165E+03 -0.11881755202E+03  0.67731872390E+02  0.35909236126E+03  0.17300000000E+03 0. -1.
<mgrwt>
<rscale>  2 0.35264673E+03</rscale>
<asrwt>0</asrwt>
<pdfrwt beam="1">  1       21 0.20088532E+00 0.35264673E+03</pdfrwt>
<pdfrwt beam="2">  1       21 0.26791070E-01 0.35264673E+03</pdfrwt>
<totfact> 0.15517191E+03</totfact>
</mgrwt>
</event>
<event>
 4    1  0.3973261E+000  0.2434802E+03  0.7546771E-02  0.1117496E+00
         21   -1    0    0  503  502  0.00000000000E+00  0.00000000000E+00  0.18398595261E+03  0.18398595261E+03  0.00000000000E+00 0.  1.
         21   -1    0    0  501  503 -0.00000000000E+00 -0.00000000000E+00 -0.49689897349E+03  0.49689897349E+03  0.00000000000E+00 0.  1.
          6    1    1    2  501    0  0.68952666163E+02  0.15684114398E+03 -0.35831128983E+03  0.43320848911E+03  0.17300000000E+03 0.  1.
         -6    1    1    2    0  502 -0.68952666163E+02 -0.15684114398E+03  0.45398268955E+02  0.24767643699E+03  0.17300000000E+03 0.  1.
<mgrwt>
<rscale>  2 0.24348021E+03</rscale>
<asrwt>0</asrwt>
<pdfrwt beam="1">  1       21 0.28305531E-01 0.24348021E+03</pdfrwt>
<pdfrwt beam="2">  1       21 0.76445996E-01 0.24348021E+03</pdfrwt>
<totfact> 0.17653609E+04</totfact>
</mgrwt>
</event>
<event>
 4    1  0.3973261E+000  0.2545196E+03  0.7546771E-02  0.1110481E+00
         21   -1    0    0  501  502  0.00000000000E+00  0.00000000000E+00  0.99384098517E+03  0.99384098517E+03  0.00000000000E+00 0.  1.
         21   -1    0    0  502  503 -0.00000000000E+00 -0.00000000000E+00 -0.11190142446E+03  0.11190142446E+03  0.00000000000E+00 0. -1.
          6    1    1    2  501    0  0.94206342337E+02  0.16117197910E+03  0.79820668267E+03  0.83780316904E+03  0.17300000000E+03 0.  1.
         -6    1    1    2    0  503 -0.94206342337E+02 -0.16117197910E+03  0.83732878032E+02  0.26793924059E+03  0.17300000000E+03 0. -1.
<mgrwt>
<rscale>  2 0.25451963E+03</rscale>
<asrwt>0</asrwt>
<pdfrwt beam="1">  1       21 0.15289861E+00 0.25451963E+03</pdfrwt>
<pdfrwt beam="2">  1       21 0.17215604E-01 0.25451963E+03</pdfrwt>
<totfact> 0.82952833E+03</totfact>
</mgrwt>
</event>
<event>
 4    1  0.3973261E+000  0.1961578E+03  0.7546771E-02  0.1153022E+00
         21   -1    0    0  503  502  0.00000000000E+00  0.00000000000E+00  0.32576521137E+04  0.32576521137E+04  0.00000000000E+00 0. -1.
         21   -1    0    0  501  503 -0.00000000000E+00 -0.00000000000E+00 -0.14160112215E+02  0.14160112215E+02  0.00000000000E+00 0. -1.
          6    1    1    2  501    0  0.59205993046E+02  0.71017707482E+02  0.95551066326E+03  0.97543759000E+03  0.17300000000E+03 0. -1.
         -6    1    1    2    0  502 -0.59205993046E+02 -0.71017707482E+02  0.22879813382E+04  0.22963746359E+04  0.17300000000E+03 0. -1.
<mgrwt>
<rscale>  2 0.19615775E+03</rscale>
<asrwt>0</asrwt>
<pdfrwt beam="1">  1       21 0.50117665E+00 0.19615775E+03</pdfrwt>
<pdfrwt beam="2">  1       21 0.21784814E-02 0.19615775E+03</pdfrwt>
<totfact> 0.19781384E+03</totfact>
</mgrwt>
</event>
<event>
 4    1  0.3973261E+000  0.1862058E+03  0.7546771E-02  0.1161929E+00
         21   -1    0    0  501  502  0.00000000000E+00  0.00000000000E+00  0.25791952058E+03  0.25791952058E+03  0.00000000000E+00 0.  1.
         21   -1    0    0  502  503 -0.00000000000E+00 -0.00000000000E+00 -0.13447827511E+03  0.13447827511E+03  0.00000000000E+00 0.  1.
          6    1    1    2  501    0  0.38112952836E+01 -0.68768276122E+02  0.65365509728E+02  0.19734551334E+03  0.17300000000E+03 0.  1.
         -6    1    1    2    0  503 -0.38112952836E+01  0.68768276122E+02  0.58075735742E+02  0.19505228236E+03  0.17300000000E+03 0.  1.
<mgrwt>
<rscale>  2 0.18620580E+03</rscale>
<asrwt>0</asrwt>
<pdfrwt beam="1">  1       21 0.39679926E-01 0.18620580E+03</pdfrwt>
<pdfrwt beam="2">  1       21 0.20688966E-01 0.18620580E+03</pdfrwt>
<totfact> 0.13292829E+05</totfact>
</mgrwt>
</event>
<event>
 4    1  0.3973261E+000  0.2451172E+03  0.7546771E-02  0.1116430E+00
         21   -1    0    0  501  502  0.00000000000E+00  0.00000000000E+00  0.37357702556E+03  0.37357702556E+03  0.00000000000E+00 0. -1.
         21   -1    0    0  502  503 -0.00000000000E+00 -0.00000000000E+00 -0.22856863126E+03  0.22856863126E+03  0.00000000000E+00 0. -1.
          6    1    1    2  501    0  0.16418172031E+03 -0.56549150677E+02  0.23640497781E+03  0.34054332655E+03  0.17300000000E+03 0. -1.
         -6    1    1    2    0  503 -0.16418172031E+03  0.56549150677E+02 -0.91396583504E+02  0.26160233027E+03  0.17300000000E+03 0. -1.
<mgrwt>
<rscale>  2 0.24511720E+03</rscale>
<asrwt>0</asrwt>
<pdfrwt beam="1">  1       21 0.57473388E-01 0.24511720E+03</pdfrwt>
<pdfrwt beam="2">  1       21 0.35164405E-01 0.24511720E+03</pdfrwt>
<totfact> 0.21527640E+04</totfact>
</mgrwt>
</event>
<event>
 4    1  0.3973261E+000  0.1785574E+03  0.7546771E-02  0.1169207E+00
         21   -1    0    0  501  502  0.00000000000E+00  0.00000000000E+00  0.14393489302E+03  0.14393489302E+03  0.00000000000E+00 0.  1.
         21   -1    0    0  502  503 -0.00000000000E+00 -0.00000000000E+00 -0.29285340731E+03  0.29285340731E+03  0.00000000000E+00 0.  1.
          6    1    1    2  501    0 -0.33676541340E+02  0.28629536634E+02  0.33335651119E+02  0.18164257607E+03  0.17300000000E+03 0.  1.
         -6    1    1    2    0  503  0.33676541340E+02 -0.28629536634E+02 -0.18225416540E+03  0.25514572426E+03  0.17300000000E+03 0.  1.
<mgrwt>
<rscale>  2 0.17855744E+03</rscale>
<asrwt>0</asrwt>
<pdfrwt beam="1">  1       21 0.22143830E-01 0.17855744E+03</pdfrwt>
<pdfrwt beam="2">  1       21 0.45054370E-01 0.17855744E+03</pdfrwt>
<totfact> 0.90628772E+04</totfact>
</mgrwt>
</event>
<event>
 4    1  0.3973261E+000  0.2356413E+03  0.7546771E-02  0.1122731E+00
         21   -1    0    0  501  502  0.00000000000E+00  0.00000000000E+00  0.52219483540E+02  0.52219483540E+02  0.00000000000E+00 0. -1.
         21   -1    0    0  502  503 -0.00000000000E+00 -0.00000000000E+00 -0.25848867360E+04  0.25848867360E+04  0.00000000000E+00 0. -1.
          6    1    1    2  501    0 -0.12361174713E+03  0.10157725129E+03 -0.25470703349E+03  0.34699059774E+03  0.17300000000E+03 0. -1.
         -6    1    1    2    0  503  0.12361174713E+03 -0.10157725129E+03 -0.22779602189E+04  0.22901156218E+04  0.17300000000E+03 0. -1.
<mgrwt>
<rscale>  2 0.23564126E+03</rscale>
<asrwt>0</asrwt>
<pdfrwt beam="1">  1       21 0.80337647E-02 0.23564126E+03</pdfrwt>
<pdfrwt beam="2">  1       21 0.39767498E+00 0.23564126E+03</pdfrwt>
<totfact> 0.10101871E+03</totfact>
</mgrwt>
</event>
<event>
 4    1  0.3973261E+000  0.2774738E+03  0.7546771E-02  0.1097077E+00
         21   -1    0    0  503  502  0.00000000000E+00  0.00000000000E+00  0.97942441460E+03  0.97942441460E+03  0.00000000000E+00 0. -1.
         21   -1    0    0  501  503 -0.00000000000E+00 -0.00000000000E+00 -0.78610761654E+02  0.78610761654E+02  0.00000000000E+00 0.  1.
          6    1    1    2  501    0  0.21327993231E+03 -0.39678689204E+02  0.44801695265E+03  0.52698284390E+03  0.17300000000E+03 0.  1.
         -6    1    1    2    0  502 -0.21327993231E+03  0.39678689204E+02  0.45279670030E+03  0.53105233236E+03  0.17300000000E+03 0. -1.
<mgrwt>
<rscale>  2 0.27747383E+03</rscale>
<asrwt>0</asrwt>
<pdfrwt beam="1">  1       21 0.15068067E+00 0.27747383E+03</pdfrwt>
<pdfrwt beam="2">  1       21 0.12093964E-01 0.27747383E+03</pdfrwt>
<totfact> 0.16245045E+04</totfact>
</mgrwt>
</event>
<event>
 4    1  0.3973261E+000  0.2465264E+03  0.7546771E-02  0.1115520E+00
         21   -1    0    0  501  502  0.00000000000E+00  0.00000000000E+00  0.47766544558E+03  0.47766544558E+03  0.00000000000E+00 0. -1.
         21   -1    0    0  502  503 -0.00000000000E+00 -0.00000000000E+00 -0.23457952891E+03  0.23457952891E+03  0.00000000000E+00 0.  1.
          6    1    1    2  501    0  0.17491443354E+03  0.15850226622E+02  0.36244823272E+03  0.43834234355E+03  0.17300000000E+03 0. -1.
         -6    1    1    2    0  503 -0.17491443354E+03 -0.15850226622E+02 -0.11936231606E+03  0.27390263094E+03  0.17300000000E+03 0.  1.
<mgrwt>
<rscale>  2 0.24652645E+03</rscale>
<asrwt>0</asrwt>
<pdfrwt beam="1">  1       21 0.73486992E-01 0.24652645E+03</pdfrwt>
<pdfrwt beam="2">  1       21 0.36089158E-01 0.24652645E+03</pdfrwt>
<totfact> 0.11920096E+04</totfact>
</mgrwt>
</event>
<event>
 4    1  0.3973261E+000  0.2476909E+03  0.7546771E-02  0.1114773E+00
         21   -1    0    0  501  502  0.00000000000E+00  0.00000000000E+00  0.41803500443E+03  0.41803500443E+03  0.00000000000E+00 0.  1.
         21   -1    0    0  502  503 -0.00000000000E+00 -0.00000000000E+00 -0.17310310201E+03  0.17310310201E+03  0.00000000000E+00 0.  1.
          6    1    1    2  501    0  0.12977889981E+03  0.12074438593E+03  0.71628648892E+01  0.24779442327E+03  0.17300000000E+03 0.  1.
         -6    1    1    2    0  503 -0.12977889981E+03 -0.12074438593E+03  0.23776903753E+03  0.34334368318E+03  0.17300000000E+03 0.  1.
<mgrwt>
<rscale>  2 0.24769088E+03</rscale>
<asrwt>0</asrwt>
<pdfrwt beam="1">  1       21 0.64313077E-01 0.24769088E+03</pdfrwt>
<pdfrwt beam="2">  1       21 0.26631247E-01 0.24769088E+03</pdfrwt>
<totfact> 0.29104222E+04</totfact>
</mgrwt>
</event>
<event>
 4    1  0.3973261E+000  0.2305573E+03  0.7546771E-02  0.1126248E+00
         21   -1    0    0  501  502  0.00000000000E+00  0.00000000000E+00  0.17817675328E+03  0.17817675328E+03  0.00000000000E+00 0. -1.
         21   -1    0    0  502  503 -0.00000000000E+00 -0.00000000000E+00 -0.34043266337E+03  0.34043266337E+03  0.00000000000E+00 0. -1.
          6    1    1    2  501    0  0.15019127605E+03 -0.25888939756E+02  0.10055333071E+02  0.23077644231E+03  0.17300000000E+03 0. -1.
         -6    1    1    2    0  503 -0.15019127605E+03  0.25888939756E+02 -0.17231124315E+03  0.28783297434E+03  0.17300000000E+03 0. -1.
<mgrwt>
<rscale>  2 0.23055727E+03</rscale>
<asrwt>0</asrwt>
<pdfrwt beam="1">  1       21 0.27411808E-01 0.23055727E+03</pdfrwt>
<pdfrwt beam="2">  1       21 0.52374255E-01 0.23055727E+03</pdfrwt>
<totfact> 0.43099699E+04</totfact>
</mgrwt>
</event>
<event>
 4    1  0.3973261E+000  0.2510993E+03  0.7546771E-02  0.1112612E+00
         21   -1    0    0  503  502  0.00000000000E+00  0.00000000000E+00  0.34334917753E+03  0.34334917753E+03  0.00000000000E+00 0.  1.
         21   -1    0    0  501  503 -0.00000000000E+00 -0.00000000000E+00 -0.18816467951E+03  0.18816467951E+03  0.00000000000E+00 0.  1.
          6    1    1    2  501    0  0.61197612708E+02  0.17139639595E+03  0.36358122226E+02  0.25371792487E+03  0.17300000000E+03 0.  1.
         -6    1    1    2    0  502 -0.61197612708E+02 -0.17139639595E+03  0.11882637580E+03  0.27779593217E+03  0.17300000000E+03 0.  1.
<mgrwt>
<rscale>  2 0.25109933E+03</rscale>
<asrwt>0</asrwt>
<pdfrwt beam="1">  1       21 0.52822951E-01 0.25109933E+03</pdfrwt>
<pdfrwt beam="2">  1       21 0.28948412E-01 0.25109933E+03</pdfrwt>
<totfact> 0.37733314E+04</totfact>
</mgrwt>
</event>
<event>
 4    1  0.3973261E+000  0.1802606E+03  0.7546771E-02  0.1167551E+00
         21   -1    0    0  501  502  0.00000000000E+00  0.00000000000E+00  0.36970511540E+03  0.36970511540E+03  0.00000000000E+00 0. -1.
         21   -1    0    0  502  503 -0.00000000000E+00 -0.00000000000E+00 -0.38933921486E+03  0.38933921486E+03  0.00000000000E+00 0.  1.
          6    1    1    2  501    0  0.14312028606E+02  0.48580185075E+02  0.32413122357E+03  0.37088396924E+03  0.17300000000E+03 0. -1.
         -6    1    1    2    0  503 -0.14312028606E+02 -0.48580185075E+02 -0.34376532303E+03  0.38816036101E+03  0.17300000000E+03 0.  1.
<mgrwt>
<rscale>  2 0.18026056E+03</rscale>
<asrwt>0</asrwt>
<pdfrwt beam="1">  1       21 0.56877710E-01 0.18026056E+03</pdfrwt>
<pdfrwt beam="2">  1       21 0.59898341E-01 0.18026056E+03</pdfrwt>
<totfact> 0.76231276E+03</totfact>
</mgrwt>
</event>
<event>
 4    1  0.3973261E+000  0.1801688E+03  0.7546771E-02  0.1167640E+00
         21   -1    0    0  503  502  0.00000000000E+00  0.00000000000E+00  0.53951285989E+03  0.53951285989E+03  0.00000000000E+00 0.  1.
         21   -1    0    0  501  503 -0.00000000000E+00 -0.00000000000E+00 -0.63573446625E+02  0.63573446625E+02  0.00000000000E+00 0.  1.
          6    1    1    2  501    0  0.43760400854E+02 -0.24835647564E+02  0.16816691291E+03  0.24645667504E+03  0.17300000000E+03 0.  1.
         -6    1    1    2    0  502 -0.43760400854E+02  0.24835647564E+02  0.30777250035E+03  0.35662963147E+03  0.17300000000E+03 0.  1.
<mgrwt>
<rscale>  2 0.18016876E+03</rscale>
<asrwt>0</asrwt>
<pdfrwt beam="1">  1       21 0.83001976E-01 0.18016876E+03</pdfrwt>
<pdfrwt beam="2">  1       21 0.97805306E-02 0.18016876E+03</pdfrwt>
<totfact> 0.10727554E+05</totfact>
</mgrwt>
</event>
<event>
 4    1  0.3973261E+000  0.2018077E+03  0.7546771E-02  0.1148223E+00
         21   -1    0    0  501  502  0.00000000000E+00  0.00000000000E+00  0.14455974477E+03  0.14455974477E+03  0.00000000000E+00 0.  1.
         21   -1    0    0  502  503 -0.00000000000E+00 -0.00000000000E+00 -0.28365408153E+03  0.28365408153E+03  0.00000000000E+00 0. -1.
          6    1    1    2  501    0  0.44753225569E+02 -0.93779081943E+02 -0.51899044844E+02  0.20837437046E+03  0.17300000000E+03 0. -1.
         -6    1    1    2    0  503 -0.44753225569E+02  0.93779081943E+02 -0.87195291921E+02  0.21983945584E+03  0.17300000000E+03 0.  1.
<mgrwt>
<rscale>  2 0.20180775E+03</rscale>
<asrwt>0</asrwt>
<pdfrwt beam="1">  1       21 0.22239961E-01 0.20180775E+03</pdfrwt>
<pdfrwt beam="2">  1       21 0.43639089E-01 0.20180775E+03</pdfrwt>
<totfact> 0.95081636E+04</totfact>
</mgrwt>
</event>
<event>
 4    1  0.3973261E+000  0.1771534E+03  0.7546771E-02  0.1170587E+00
         21   -1    0    0  501  502  0.00000000000E+00  0.00000000000E+00  0.30589006988E+02  0.30589006988E+02  0.00000000000E+00 0.  1.
         21   -1    0    0  502  503 -0.00000000000E+00 -0.00000000000E+00 -0.21139636108E+04  0.21139636108E+04  0.00000000000E+00 0.  1.
          6    1    1    2  501    0  0.36386492847E+02  0.11417199314E+02 -0.27243002412E+03  0.32496376313E+03  0.17300000000E+03 0.  1.
         -6    1    1    2    0  503 -0.36386492847E+02 -0.11417199314E+02 -0.18109445797E+04  0.18195888547E+04  0.17300000000E+03 0.  1.
<mgrwt>
<rscale>  2 0.17715341E+03</rscale>
<asrwt>0</asrwt>
<pdfrwt beam="1">  1       21 0.47060005E-02 0.17715341E+03</pdfrwt>
<pdfrwt beam="2">  1       21 0.32522521E+00 0.17715341E+03</pdfrwt>
<totfact> 0.74146299E+03</totfact>
</mgrwt>
</event>
<event>
 4    1  0.3973261E+000  0.1913487E+03  0.7546771E-02  0.1157251E+00
         21   -1    0    0  501  502  0.00000000000E+00  0.00000000000E+00  0.32334894663E+03  0.32334894663E+03  0.00000000000E+00 0.  1.
         21   -1    0    0  502  503 -0.00000000000E+00 -0.00000000000E+00 -0.11881841218E+03  0.11881841218E+03  0.00000000000E+00 0. -1.
          6    1    1    2  501    0  0.79600330535E+01  0.81375342116E+02  0.15019200083E+03  0.24325284283E+03  0.17300000000E+03 0.  1.
         -6    1    1    2    0  503 -0.79600330535E+01 -0.81375342116E+02  0.54338533623E+02  0.19891451598E+03  0.17300000000E+03 0. -1.
<mgrwt>
<rscale>  2 0.19134866E+03</rscale>
<asrwt>0</asrwt>
<pdfrwt beam="1">  1       21 0.49745991E-01 0.19134866E+03</pdfrwt>
<pdfrwt beam="2">  1       21 0.18279756E-01 0.19134866E+03</pdfrwt>
<totfact> 0.10513599E+05</totfact>
</mgrwt>
</event>
<event>
 4    1  0.3973261E+000  0.1740704E+03  0.7546771E-02  0.1173668E+00
         21   -1    0    0  501  502  0.00000000000E+00  0.00000000000E+00  0.57959539681E+03  0.57959539681E+03  0.00000000000E+00 0.  1.
         21   -1    0    0  502  503 -0.00000000000E+00 -0.00000000000E+00 -0.13434105351E+03  0.13434105351E+03  0.00000000000E+00 0.  1.
          6    1    1    2  501    0  0.12494904114E+02  0.14676418174E+02  0.50162257654E+03  0.53096678726E+03  0.17300000000E+03 0.  1.
         -6    1    1    2    0  503 -0.12494904114E+02 -0.14676418174E+02 -0.56368233242E+02  0.18296966305E+03  0.17300000000E+03 0.  1.
<mgrwt>
<rscale>  2 0.17407045E+03</rscale>
<asrwt>0</asrwt>
<pdfrwt beam="1">  1       21 0.89168521E-01 0.17407045E+03</pdfrwt>
<pdfrwt beam="2">  1       21 0.20667855E-01 0.17407045E+03</pdfrwt>
<totfact> 0.23560110E+04</totfact>
</mgrwt>
</event>
<event>
 4    1  0.3973261E+000  0.2185455E+03  0.7546771E-02  0.1134972E+00
         21   -1    0    0  501  502  0.00000000000E+00  0.00000000000E+00  0.16295981458E+03  0.16295981458E+03  0.00000000000E+00 0.  1.
         21   -1    0    0  502  503 -0.00000000000E+00 -0.00000000000E+00 -0.41530928482E+03  0.41530928482E+03  0.00000000000E+00 0.  1.
          6    1    1    2  501    0 -0.48191232826E+02  0.12454209795E+03  0.30674156712E+02  0.22068763666E+03  0.17300000000E+03 0.  1.
         -6    1    1    2    0  503  0.48191232826E+02 -0.12454209795E+03 -0.28302362696E+03  0.35758146275E+03  0.17300000000E+03 0.  1.
<mgrwt>
<rscale>  2 0.21854549E+03</rscale>
<asrwt>0</asrwt>
<pdfrwt beam="1">  1       21 0.25070741E-01 0.21854549E+03</pdfrwt>
<pdfrwt beam="2">  1       21 0.63893736E-01 0.21854549E+03</pdfrwt>
<totfact> 0.33621908E+04</totfact>
</mgrwt>
</event>
<event>
 4    1  0.3973261E+000  0.2124482E+03  0.7546771E-02  0.1139642E+00
         21   -1    0    0  501  502  0.00000000000E+00  0.00000000000E+00  0.83899831847E+02  0.83899831847E+02  0.00000000000E+00 0. -1.
         21   -1    0    0  502  503 -0.00000000000E+00 -0.00000000000E+00 -0.77570615295E+03  0.77570615295E+03  0.00000000000E+00 0.  1.
          6    1    1    2  501    0  0.11469414512E+03 -0.45282367809E+02 -0.10795455783E+03  0.23830322347E+03  0.17300000000E+03 0. -1.
         -6    1    1    2    0  503 -0.11469414512E+03  0.45282367809E+02 -0.58385176327E+03  0.62130276133E+03  0.17300000000E+03 0.  1.
<mgrwt>
<rscale>  2 0.21244820E+03</rscale>
<asrwt>0</asrwt>
<pdfrwt beam="1">  1       21 0.12907666E-01 0.21244820E+03</pdfrwt>
<pdfrwt beam="2">  1       21 0.11933941E+00 0.21244820E+03</pdfrwt>
<totfact> 0.27244048E+04</totfact>
</mgrwt>
</event>
<event>
 4    1  0.3973261E+000  0.2193469E+03  0.7546771E-02  0.1134371E+00
         21   -1    0    0  501  502  0.00000000000E+00  0.00000000000E+00  0.31350342229E+03  0.31350342229E+03  0.00000000000E+00 0. -1.
         21   -1    0    0  502  503 -0.00000000000E+00 -0.00000000000E+00 -0.23915359374E+03  0.23915359374E+03  0.00000000000E+00 0.  1.
          6    1    1    2  501    0  0.98784988939E+02 -0.91790930718E+02  0.20257611950E+03  0.29858019558E+03  0.17300000000E+03 0. -1.
         -6    1    1    2    0  503 -0.98784988939E+02  0.91790930718E+02 -0.12822629094E+03  0.25407682045E+03  0.17300000000E+03 0.  1.
<mgrwt>
<rscale>  2 0.21934687E+03</rscale>
<asrwt>0</asrwt>
<pdfrwt beam="1">  1       21 0.48231296E-01 0.21934687E+03</pdfrwt>
<pdfrwt beam="2">  1       21 0.36792860E-01 0.21934687E+03</pdfrwt>
<totfact> 0.28839735E+04</totfact>
</mgrwt>
</event>
<event>
 4    1  0.3973261E+000  0.2648604E+03  0.7546771E-02  0.1104258E+00
         21   -1    0    0  503  502  0.00000000000E+00  0.00000000000E+00  0.20261341720E+03  0.20261341720E+03  0.00000000000E+00 0.  1.
         21   -1    0    0  501  503 -0.00000000000E+00 -0.00000000000E+00 -0.39313396914E+03  0.39313396914E+03  0.00000000000E+00 0. -1.
          6    1    1    2  501    0  0.16488829907E+03 -0.11416601960E+03 -0.19814771844E+03  0.33077719015E+03  0.17300000000E+03 0. -1.
         -6    1    1    2    0  502 -0.16488829907E+03  0.11416601960E+03  0.76271664971E+01  0.26497019619E+03  0.17300000000E+03 0.  1.
<mgrwt>
<rscale>  2 0.26486040E+03</rscale>
<asrwt>0</asrwt>
<pdfrwt beam="1">  1       21 0.31171295E-01 0.26486040E+03</pdfrwt>
<pdfrwt beam="2">  1       21 0.60482149E-01 0.26486040E+03</pdfrwt>
<totfact> 0.24276051E+04</totfact>
</mgrwt>
</event>
<event>
 4    1  0.3973261E+000  0.1800305E+03  0.7546771E-02  0.1167774E+00
         21   -1    0    0  503  502  0.00000000000E+00  0.00000000000E+00  0.30098587735E+03  0.30098587735E+03  0.00000000000E+00 0.  1.
         21   -1    0    0  501  503 -0.00000000000E+00 -0.00000000000E+00 -0.11033057299E+03  0.11033057299E+03  0.00000000000E+00 0.  1.
          6    1    1    2  501    0 -0.30016536990E+02  0.39761704061E+02  0.63467855700E+02  0.19089042488E+03  0.17300000000E+03 0.  1.
         -6    1    1    2    0  502  0.30016536990E+02 -0.39761704061E+02  0.12718744867E+03  0.22042602546E+03  0.17300000000E+03 0.  1.
<mgrwt>
<rscale>  2 0.18003051E+03</rscale>
<asrwt>0</asrwt>
<pdfrwt beam="1">  1       21 0.46305519E-01 0.18003051E+03</pdfrwt>
<pdfrwt beam="2">  1       21 0.16973934E-01 0.18003051E+03</pdfrwt>
<totfact> 0.14036553E+05</totfact>
</mgrwt>
</event>
<event>
 4    1  0.3973261E+000  0.2639458E+03  0.7546771E-02  0.1104795E+00
         21   -1    0    0  501  502  0.00000000000E+00  0.00000000000E+00  0.91298424814E+02  0.91298424814E+02  0.00000000000E+00 0.  1.
         21   -1    0    0  502  503 -0.00000000000E+00 -0.00000000000E+00 -0.14928226548E+04  0.14928226548E+04  0.00000000000E+00 0. -1.
          6    1    1    2  501    0  0.13680656045E+03 -0.14499089253E+03 -0.14697720576E+03  0.30210874352E+03  0.17300000000E+03 0.  1.
         -6    1    1    2    0  503 -0.13680656045E+03  0.14499089253E+03 -0.12545470242E+04  0.12820123361E+04  0.17300000000E+03 0. -1.
<mgrwt>
<rscale>  2 0.26394582E+03</rscale>
<asrwt>0</asrwt>
<pdfrwt beam="1">  1       21 0.14045913E-01 0.26394582E+03</pdfrwt>
<pdfrwt beam="2">  1       21 0.22966500E+00 0.26394582E+03</pdfrwt>
<totfact> 0.36456264E+03</totfact>
</mgrwt>
</event>
<event>
 4    1  0.3973261E+000  0.2456820E+03  0.7546771E-02  0.1116065E+00
         21   -1    0    0  501  502  0.00000000000E+00  0.00000000000E+00  0.15049688245E+03  0.15049688245E+03  0.00000000000E+00 0. -1.
         21   -1    0    0  502  503 -0.00000000000E+00 -0.00000000000E+00 -0.48164960921E+03  0.48164960921E+03  0.00000000000E+00 0. -1.
          6    1    1    2  501    0 -0.15906592737E+03 -0.71614669752E+02 -0.36294538257E+02  0.24834839174E+03  0.17300000000E+03 0. -1.
         -6    1    1    2    0  503  0.15906592737E+03  0.71614669752E+02 -0.29485818850E+03  0.38379809992E+03  0.17300000000E+03 0. -1.
<mgrwt>
<rscale>  2 0.24568197E+03</rscale>
<asrwt>0</asrwt>
<pdfrwt beam="1">  1       21 0.23153367E-01 0.24568197E+03</pdfrwt>
<pdfrwt beam="2">  1       21 0.74099939E-01 0.24568197E+03</pdfrwt>
<totfact> 0.27848271E+04</totfact>
</mgrwt>
</event>
<event>
 4    1  0.3973261E+000  0.1827822E+03  0.7546771E-02  0.1165137E+00
         21   -1    0    0  501  502  0.00000000000E+00  0.00000000000E+00  0.74136154952E+03  0.74136154952E+03  0.00000000000E+00 0.  1.
         21   -1    0    0  502  503 -0.00000000000E+00 -0.00000000000E+00 -0.50914994919E+02  0.50914994919E+02  0.00000000000E+00 0.  1.
          6    1    1    2  501    0  0.35042506614E+02  0.47459000483E+02  0.47950222069E+03  0.51315856579E+03  0.17300000000E+03 0. -1.
         -6    1    1    2    0  503 -0.35042506614E+02 -0.47459000483E+02  0.21094433391E+03  0.27911797865E+03  0.17300000000E+03 0. -1.
<mgrwt>
<rscale>  2 0.18278220E+03</rscale>
<asrwt>0</asrwt>
<pdfrwt beam="1">  1       21 0.11405562E+00 0.18278220E+03</pdfrwt>
<pdfrwt beam="2">  1       21 0.78330767E-02 0.18278220E+03</pdfrwt>
<totfact> 0.74801490E+04</totfact>
</mgrwt>
</event>
<event>
 4    1  0.3973261E+000  0.1911996E+03  0.7546771E-02  0.1157384E+00
         21   -1    0    0  503  502  0.00000000000E+00  0.00000000000E+00  0.29237604654E+03  0.29237604654E+03  0.00000000000E+00 0. -1.
         21   -1    0    0  501  503 -0.00000000000E+00 -0.00000000000E+00 -0.13025877971E+03  0.13025877971E+03  0.00000000000E+00 0. -1.
          6    1    1    2  501    0  0.79407778130E+02  0.17964067581E+02  0.38741609753E+02  0.19508514879E+03  0.17300000000E+03 0. -1.
         -6    1    1    2    0  502 -0.79407778130E+02 -0.17964067581E+02  0.12337565708E+03  0.22754967746E+03  0.17300000000E+03 0. -1.
<mgrwt>
<rscale>  2 0.19119964E+03</rscale>
<asrwt>0</asrwt>
<pdfrwt beam="1">  1       21 0.44980930E-01 0.19119964E+03</pdfrwt>
<pdfrwt beam="2">  1       21 0.20039812E-01 0.19119964E+03</pdfrwt>
<totfact> 0.10913441E+05</totfact>
</mgrwt>
</event>
<event>
 4    1  0.3973261E+000  0.2484849E+03  0.7546771E-02  0.1114266E+00
         21   -1    0    0  503  502  0.00000000000E+00  0.00000000000E+00  0.17558810934E+03  0.17558810934E+03  0.00000000000E+00 0.  1.
         21   -1    0    0  501  503 -0.00000000000E+00 -0.00000000000E+00 -0.35913183048E+03  0.35913183048E+03  0.00000000000E+00 0. -1.
          6    1    1    2  501    0 -0.14879578120E+03 -0.98364531945E+02 -0.13037338030E+03  0.28061002109E+03  0.17300000000E+03 0. -1.
         -6    1    1    2    0  502  0.14879578120E+03  0.98364531945E+02 -0.53170340837E+02  0.25410991872E+03  0.17300000000E+03 0. -1.
<mgrwt>
<rscale>  2 0.24848494E+03</rscale>
<asrwt>0</asrwt>
<pdfrwt beam="1">  1       21 0.27013555E-01 0.24848494E+03</pdfrwt>
<pdfrwt beam="2">  1       21 0.55251050E-01 0.24848494E+03</pdfrwt>
<totfact> 0.39283075E+04</totfact>
</mgrwt>
</event>
<event>
 4    1  0.3973261E+000  0.2249804E+03  0.7546771E-02  0.1130223E+00
         21   -1    0    0  503  502  0.00000000000E+00  0.00000000000E+00  0.89710459842E+02  0.89710459842E+02  0.00000000000E+00 0.  1.
         21   -1    0    0  501  503 -0.00000000000E+00 -0.00000000000E+00 -0.59058059925E+03  0.59058059925E+03  0.00000000000E+00 0.  1.
          6    1    1    2  501    0 -0.46621412811E+02 -0.13606485055E+03 -0.32230123714E+03  0.39305761301E+03  0.17300000000E+03 0.  1.
         -6    1    1    2    0  502  0.46621412811E+02  0.13606485055E+03 -0.17856890227E+03  0.28723344608E+03  0.17300000000E+03 0.  1.
<mgrwt>
<rscale>  2 0.22498044E+03</rscale>
<asrwt>0</asrwt>
<pdfrwt beam="1">  1       21 0.13801609E-01 0.22498044E+03</pdfrwt>
<pdfrwt beam="2">  1       21 0.90858558E-01 0.22498044E+03</pdfrwt>
<totfact> 0.46147012E+04</totfact>
</mgrwt>
</event>
<event>
 4    1  0.3973261E+000  0.1799446E+03  0.7546771E-02  0.1167857E+00
         21   -1    0    0  501  502  0.00000000000E+00  0.00000000000E+00  0.90670052447E+02  0.90670052447E+02  0.00000000000E+00 0.  1.
         21   -1    0    0  502  503 -0.00000000000E+00 -0.00000000000E+00 -0.37014472785E+03  0.37014472785E+03  0.00000000000E+00 0.  1.
          6    1    1    2  501    0  0.49268957497E+02  0.48620680611E+01 -0.96515971637E+02  0.20419452162E+03  0.17300000000E+03 0.  1.
         -6    1    1    2    0  503 -0.49268957497E+02 -0.48620680611E+01 -0.18295870376E+03  0.25662025867E+03  0.17300000000E+03 0.  1.
<mgrwt>
<rscale>  2 0.17994463E+03</rscale>
<asrwt>0</asrwt>
<pdfrwt beam="1">  1       21 0.13949239E-01 0.17994463E+03</pdfrwt>
<pdfrwt beam="2">  1       21 0.56945344E-01 0.17994463E+03</pdfrwt>
<totfact> 0.13025591E+05</totfact>
</mgrwt>
</event>
<event>
 4    1  0.3973261E+000  0.3544630E+03  0.7546771E-02  0.1060798E+00
         21   -1    0    0  503  502  0.00000000000E+00  0.00000000000E+00  0.82499928867E+03  0.82499928867E+03  0.00000000000E+00 0. -1.
         21   -1    0    0  501  503 -0.00000000000E+00 -0.00000000000E+00 -0.66596212463E+03  0.66596212463E+03  0.00000000000E+00 0. -1.
          6    1    1    2  501    0  0.48904684490E+02 -0.30548869146E+03 -0.57519620303E+03  0.67564390085E+03  0.17300000000E+03 0. -1.
         -6    1    1    2    0  502 -0.48904684490E+02  0.30548869146E+03  0.73423336708E+03  0.81531751245E+03  0.17300000000E+03 0. -1.
<mgrwt>
<rscale>  2 0.35446299E+03</rscale>
<asrwt>0</asrwt>
<pdfrwt beam="1">  1       21 0.12692297E+00 0.35446299E+03</pdfrwt>
<pdfrwt beam="2">  1       21 0.10245571E+00 0.35446299E+03</pdfrwt>
<totfact> 0.30955175E+02</totfact>
</mgrwt>
</event>
<event>
 4    1  0.3973261E+000  0.2466896E+03  0.7546771E-02  0.1115415E+00
         21   -1    0    0  503  502  0.00000000000E+00  0.00000000000E+00  0.78256377546E+02  0.78256377546E+02  0.00000000000E+00 0. -1.
         21   -1    0    0  501  503 -0.00000000000E+00 -0.00000000000E+00 -0.77845431318E+03  0.77845431318E+03  0.00000000000E+00 0.  1.
          6    1    1    2  501    0 -0.15518752410E+03 -0.82725954199E+02 -0.33629498639E+03  0.41707321780E+03  0.17300000000E+03 0.  1.
         -6    1    1    2    0  502  0.15518752410E+03  0.82725954199E+02 -0.36390294924E+03  0.43963747293E+03  0.17300000000E+03 0. -1.
<mgrwt>
<rscale>  2 0.24668958E+03</rscale>
<asrwt>0</asrwt>
<pdfrwt beam="1">  1       21 0.12039442E-01 0.24668958E+03</pdfrwt>
<pdfrwt beam="2">  1       21 0.11976221E+00 0.24668958E+03</pdfrwt>
<totfact> 0.30069690E+04</totfact>
</mgrwt>
</event>
<event>
 4    1  0.3973261E+000  0.1831959E+03  0.7546771E-02  0.1164745E+00
         21   -1    0    0  503  502  0.00000000000E+00  0.00000000000E+00  0.35546586745E+03  0.35546586745E+03  0.00000000000E+00 0. -1.
         21   -1    0    0  501  503 -0.00000000000E+00 -0.00000000000E+00 -0.96687954088E+02  0.96687954088E+02  0.00000000000E+00 0. -1.
          6    1    1    2  501    0  0.33119719408E+02 -0.50347015152E+02  0.94713749294E+02  0.20623150112E+03  0.17300000000E+03 0. -1.
         -6    1    1    2    0  502 -0.33119719408E+02  0.50347015152E+02  0.16406416407E+03  0.24592232042E+03  0.17300000000E+03 0. -1.
<mgrwt>
<rscale>  2 0.18319590E+03</rscale>
<asrwt>0</asrwt>
<pdfrwt beam="1">  1       21 0.54687056E-01 0.18319590E+03</pdfrwt>
<pdfrwt beam="2">  1       21 0.14875070E-01 0.18319590E+03</pdfrwt>
<totfact> 0.12616088E+05</totfact>
</mgrwt>
</event>
<event>
 4    1  0.3973261E+000  0.1792348E+03  0.7546771E-02  0.1168546E+00
         21   -1    0    0  501  502  0.00000000000E+00  0.00000000000E+00  0.46651565807E+02  0.46651565807E+02  0.00000000000E+00 0.  1.
         21   -1    0    0  502  503 -0.00000000000E+00 -0.00000000000E+00 -0.70943179596E+03  0.70943179596E+03  0.00000000000E+00 0.  1.
          6    1    1    2  501    0  0.12063964393E+02 -0.45283170329E+02 -0.26663699180E+03  0.32127930239E+03  0.17300000000E+03 0.  1.
         -6    1    1    2    0  503 -0.12063964393E+02  0.45283170329E+02 -0.39614323835E+03  0.43480405937E+03  0.17300000000E+03 0.  1.
<mgrwt>
<rscale>  2 0.17923478E+03</rscale>
<asrwt>0</asrwt>
<pdfrwt beam="1">  1       21 0.71771643E-02 0.17923478E+03</pdfrwt>
<pdfrwt beam="2">  1       21 0.10914335E+00 0.17923478E+03</pdfrwt>
<totfact> 0.96973371E+04</totfact>
</mgrwt>
</event>
<event>
 4    1  0.3973261E+000  0.2812790E+03  0.7546771E-02  0.1094992E+00
         21   -1    0    0  501  502  0.00000000000E+00  0.00000000000E+00  0.54295446984E+03  0.54295446984E+03  0.00000000000E+00 0. -1.
         21   -1    0    0  502  503 -0.00000000000E+00 -0.00000000000E+00 -0.32354925408E+03  0.32354925408E+03  0.00000000000E+00 0.  1.
          6    1    1    2  501    0  0.17245158635E+03  0.13946080013E+03  0.43090230375E+03  0.51458202435E+03  0.17300000000E+03 0. -1.
         -6    1    1    2    0  503 -0.17245158635E+03 -0.13946080013E+03 -0.21149708798E+03  0.35192169957E+03  0.17300000000E+03 0.  1.
<mgrwt>
<rscale>  2 0.28127898E+03</rscale>
<asrwt>0</asrwt>
<pdfrwt beam="1">  1       21 0.83531457E-01 0.28127898E+03</pdfrwt>
<pdfrwt beam="2">  1       21 0.49776808E-01 0.28127898E+03</pdfrwt>
<totfact> 0.45186355E+03</totfact>
</mgrwt>
</event>
<event>
 4    1  0.3973261E+000  0.2369227E+03  0.7546771E-02  0.1121860E+00
         21   -1    0    0  503  502  0.00000000000E+00  0.00000000000E+00  0.46917523871E+02  0.46917523871E+02  0.00000000000E+00 0.  1.
         21   -1    0    0  501  503 -0.00000000000E+00 -0.00000000000E+00 -0.13489175107E+04  0.13489175107E+04  0.00000000000E+00 0. -1.
          6    1    1    2  501    0 -0.12883063015E+03  0.98010424884E+02 -0.88567330279E+03  0.91681490712E+03  0.17300000000E+03 0. -1.
         -6    1    1    2    0  502  0.12883063015E+03 -0.98010424884E+02 -0.41632668401E+03  0.47902012742E+03  0.17300000000E+03 0.  1.
<mgrwt>
<rscale>  2 0.23692272E+03</rscale>
<asrwt>0</asrwt>
<pdfrwt beam="1">  1       21 0.72180814E-02 0.23692272E+03</pdfrwt>
<pdfrwt beam="2">  1       21 0.20752575E+00 0.23692272E+03</pdfrwt>
<totfact> 0.16695909E+04</totfact>
</mgrwt>
</event>
<event>
 4    1  0.3973261E+000  0.1920658E+03  0.7546771E-02  0.1156611E+00
         21   -1    0    0  501  502  0.00000000000E+00  0.00000000000E+00  0.13991492969E+03  0.13991492969E+03  0.00000000000E+00 0. -1.
         21   -1    0    0  502  503 -0.00000000000E+00 -0.00000000000E+00 -0.29965847689E+03  0.29965847689E+03  0.00000000000E+00 0. -1.
          6    1    1    2  501    0  0.67194774690E+02  0.49448387350E+02 -0.36884487182E+01  0.19210123740E+03  0.17300000000E+03 0. -1.
         -6    1    1    2    0  503 -0.67194774690E+02 -0.49448387350E+02 -0.15605509847E+03  0.24747216918E+03  0.17300000000E+03 0. -1.
<mgrwt>
<rscale>  2 0.19206582E+03</rscale>
<asrwt>0</asrwt>
<pdfrwt beam="1">  1       21 0.21525374E-01 0.19206582E+03</pdfrwt>
<pdfrwt beam="2">  1       21 0.46101303E-01 0.19206582E+03</pdfrwt>
<totfact> 0.90706584E+04</totfact>
</mgrwt>
</event>
<event>
 4    1  0.3973261E+000  0.1771693E+03  0.7546771E-02  0.1170571E+00
         21   -1    0    0  503  502  0.00000000000E+00  0.00000000000E+00  0.16371436015E+03  0.16371436015E+03  0.00000000000E+00 0. -1.
         21   -1    0    0  501  503 -0.00000000000E+00 -0.00000000000E+00 -0.19257799632E+03  0.19257799632E+03  0.00000000000E+00 0. -1.
          6    1    1    2  501    0  0.33923898004E+02  0.17581668859E+02 -0.26253606953E+02  0.17910387437E+03  0.17300000000E+03 0.  1.
         -6    1    1    2    0  502 -0.33923898004E+02 -0.17581668859E+02 -0.26100292113E+01  0.17718848210E+03  0.17300000000E+03 0.  1.
<mgrwt>
<rscale>  2 0.17716926E+03</rscale>
<asrwt>0</asrwt>
<pdfrwt beam="1">  1       21 0.25186825E-01 0.17716926E+03</pdfrwt>
<pdfrwt beam="2">  1       21 0.29627384E-01 0.17716926E+03</pdfrwt>
<totfact> 0.16383385E+05</totfact>
</mgrwt>
</event>
<event>
 4    1  0.3973261E+000  0.1957716E+03  0.7546771E-02  0.1153356E+00
         21   -1    0    0  501  502  0.00000000000E+00  0.00000000000E+00  0.60934771314E+02  0.60934771314E+02  0.00000000000E+00 0.  1.
         21   -1    0    0  502  503 -0.00000000000E+00 -0.00000000000E+00 -0.78805899425E+03  0.78805899425E+03  0.00000000000E+00 0.  1.
          6    1    1    2  501    0  0.51692846764E+02  0.75666173666E+02 -0.17283749044E+03  0.26114999205E+03  0.17300000000E+03 0.  1.
         -6    1    1    2    0  503 -0.51692846764E+02 -0.75666173666E+02 -0.55428673250E+03  0.58784377352E+03  0.17300000000E+03 0.  1.
<mgrwt>
<rscale>  2 0.19577160E+03</rscale>
<asrwt>0</asrwt>
<pdfrwt beam="1">  1       21 0.93745808E-02 0.19577160E+03</pdfrwt>
<pdfrwt beam="2">  1       21 0.12123984E+00 0.19577160E+03</pdfrwt>
<totfact> 0.46731876E+04</totfact>
</mgrwt>
</event>
<event>
 4    1  0.3973261E+000  0.2438872E+03  0.7546771E-02  0.1117230E+00
         21   -1    0    0  503  502  0.00000000000E+00  0.00000000000E+00  0.53836492925E+02  0.53836492925E+02  0.00000000000E+00 0. -1.
         21   -1    0    0  501  503 -0.00000000000E+00 -0.00000000000E+00 -0.12210638577E+04  0.12210638577E+04  0.00000000000E+00 0.  1.
          6    1    1    2  501    0  0.83597542161E+02 -0.15021116286E+03 -0.78027396549E+03  0.81750131726E+03  0.17300000000E+03 0.  1.
         -6    1    1    2    0  502 -0.83597542161E+02  0.15021116286E+03 -0.38695339929E+03  0.45739903337E+03  0.17300000000E+03 0. -1.
<mgrwt>
<rscale>  2 0.24388715E+03</rscale>
<asrwt>0</asrwt>
<pdfrwt beam="1">  1       21 0.82825369E-02 0.24388715E+03</pdfrwt>
<pdfrwt beam="2">  1       21 0.18785599E+00 0.24388715E+03</pdfrwt>
<totfact> 0.17571728E+04</totfact>
</mgrwt>
</event>
<event>
 4    1  0.3973261E+000  0.2233942E+03  0.7546771E-02  0.1131378E+00
         21   -1    0    0  503  502  0.00000000000E+00  0.00000000000E+00  0.46784536834E+03  0.46784536834E+03  0.00000000000E+00 0. -1.
         21   -1    0    0  501  503 -0.00000000000E+00 -0.00000000000E+00 -0.11146809755E+03  0.11146809755E+03  0.00000000000E+00 0.  1.
          6    1    1    2  501    0 -0.12260046402E+03  0.70321384479E+02  0.11809174293E+03  0.25268682325E+03  0.17300000000E+03 0. -1.
         -6    1    1    2    0  502  0.12260046402E+03 -0.70321384479E+02  0.23828552787E+03  0.32662664264E+03  0.17300000000E+03 0.  1.
<mgrwt>
<rscale>  2 0.22339421E+03</rscale>
<asrwt>0</asrwt>
<pdfrwt beam="1">  1       21 0.71976210E-01 0.22339421E+03</pdfrwt>
<pdfrwt beam="2">  1       21 0.17148938E-01 0.22339421E+03</pdfrwt>
<totfact> 0.52718851E+04</totfact>
</mgrwt>
</event>
<event>
 4    1  0.3973261E+000  0.2545661E+03  0.7546771E-02  0.1110453E+00
         21   -1    0    0  501  502  0.00000000000E+00  0.00000000000E+00  0.83208892833E+03  0.83208892833E+03  0.00000000000E+00 0. -1.
         21   -1    0    0  502  503 -0.00000000000E+00 -0.00000000000E+00 -0.10027119995E+03  0.10027119995E+03  0.00000000000E+00 0.  1.
          6    1    1    2  501    0 -0.18645167190E+02  0.18581505944E+03  0.58619899189E+03  0.63908773785E+03  0.17300000000E+03 0. -1.
         -6    1    1    2    0  503  0.18645167190E+02 -0.18581505944E+03  0.14561873648E+03  0.29327239043E+03  0.17300000000E+03 0.  1.
<mgrwt>
<rscale>  2 0.25456606E+03</rscale>
<asrwt>0</asrwt>
<pdfrwt beam="1">  1       21 0.12801368E+00 0.25456606E+03</pdfrwt>
<pdfrwt beam="2">  1       21 0.15426339E-01 0.25456606E+03</pdfrwt>
<totfact> 0.16135274E+04</totfact>
</mgrwt>
</event>
<event>
 4    1  0.3973261E+000  0.1872074E+03  0.7546771E-02  0.1161004E+00
         21   -1    0    0  501  502  0.00000000000E+00  0.00000000000E+00  0.17743445367E+04  0.17743445367E+04  0.00000000000E+00 0. -1.
         21   -1    0    0  502  503 -0.00000000000E+00 -0.00000000000E+00 -0.33827428982E+02  0.33827428982E+02  0.00000000000E+00 0. -1.
          6    1    1    2  501    0  0.66513794596E+02  0.26335101607E+02  0.14534458667E+04  0.14654526638E+04  0.17300000000E+03 0. -1.
         -6    1    1    2    0  503 -0.66513794596E+02 -0.26335101607E+02  0.28707124096E+03  0.34271930181E+03  0.17300000000E+03 0. -1.
<mgrwt>
<rscale>  2 0.18720743E+03</rscale>
<asrwt>0</asrwt>
<pdfrwt beam="1">  1       21 0.27297601E+00 0.18720743E+03</pdfrwt>
<pdfrwt beam="2">  1       21 0.52042212E-02 0.18720743E+03</pdfrwt>
<totfact> 0.12345906E+04</totfact>
</mgrwt>
</event>
<event>
 4    1  0.3973261E+000  0.3688580E+03  0.7546771E-02  0.1055130E+00
         21   -1    0    0  503  502  0.00000000000E+00  0.00000000000E+00  0.39483360067E+03  0.39483360067E+03  0.00000000000E+00 0.  1.
         21   -1    0    0  501  503 -0.00000000000E+00 -0.00000000000E+00 -0.38869308836E+03  0.38869308836E+03  0.00000000000E+00 0. -1.
          6    1    1    2  501    0  0.28874077885E+03  0.15085094206E+03 -0.12889154543E+03  0.39072915757E+03  0.17300000000E+03 0. -1.
         -6    1    1    2    0  502 -0.28874077885E+03 -0.15085094206E+03  0.13503205774E+03  0.39279753145E+03  0.17300000000E+03 0.  1.
<mgrwt>
<rscale>  2 0.36885803E+03</rscale>
<asrwt>0</asrwt>
<pdfrwt beam="1">  1       21 0.60743631E-01 0.36885803E+03</pdfrwt>
<pdfrwt beam="2">  1       21 0.59798937E-01 0.36885803E+03</pdfrwt>
<totfact> 0.59845299E+03</totfact>
</mgrwt>
</event>
<event>
 4    1  0.3973261E+000  0.2882279E+03  0.7546771E-02  0.1091278E+00
         21   -1    0    0  501  502  0.00000000000E+00  0.00000000000E+00  0.22029246598E+03  0.22029246598E+03  0.00000000000E+00 0. -1.
         21   -1    0    0  502  503 -0.00000000000E+00 -0.00000000000E+00 -0.51909324117E+03  0.51909324117E+03  0.00000000000E+00 0. -1.
          6    1    1    2  501    0  0.79965787507E+02 -0.21622165337E+03  0.43943785666E+02  0.29155854791E+03  0.17300000000E+03 0. -1.
         -6    1    1    2    0  503 -0.79965787507E+02  0.21622165337E+03 -0.34274456086E+03  0.44782715924E+03  0.17300000000E+03 0. -1.
<mgrwt>
<rscale>  2 0.28822791E+03</rscale>
<asrwt>0</asrwt>
<pdfrwt beam="1">  1       21 0.33891149E-01 0.28822791E+03</pdfrwt>
<pdfrwt beam="2">  1       21 0.79860497E-01 0.28822791E+03</pdfrwt>
<totfact> 0.10966653E+04</totfact>
</mgrwt>
</event>
<event>
 4    1  0.3973261E+000  0.1777068E+03  0.7546771E-02  0.1170041E+00
         21   -1    0    0  503  502  0.00000000000E+00  0.00000000000E+00  0.41242188454E+02  0.41242188454E+02  0.00000000000E+00 0. -1.
         21   -1    0    0  501  503 -0.00000000000E+00 -0.00000000000E+00 -0.80901631136E+03  0.80901631136E+03  0.00000000000E+00 0. -1.
          6    1    1    2  501    0 -0.16624700396E+02  0.37072094372E+02 -0.48224239524E+03  0.51394304024E+03  0.17300000000E+03 0. -1.
         -6    1    1    2    0  502  0.16624700396E+02 -0.37072094372E+02 -0.28553172766E+03  0.33631545957E+03  0.17300000000E+03 0. -1.
<mgrwt>
<rscale>  2 0.17770684E+03</rscale>
<asrwt>0</asrwt>
<pdfrwt beam="1">  1       21 0.63449530E-02 0.17770684E+03</pdfrwt>
<pdfrwt beam="2">  1       21 0.12446403E+00 0.17770684E+03</pdfrwt>
<totfact> 0.86979144E+04</totfact>
</mgrwt>
</event>
<event>
 4    1  0.3973261E+000  0.1831988E+03  0.7546771E-02  0.1164743E+00
         21   -1    0    0  503  502  0.00000000000E+00  0.00000000000E+00  0.13960899977E+03  0.13960899977E+03  0.00000000000E+00 0. -1.
         21   -1    0    0  501  503 -0.00000000000E+00 -0.00000000000E+00 -0.44030508990E+03  0.44030508990E+03  0.00000000000E+00 0. -1.
          6    1    1    2  501    0 -0.57351551592E+02 -0.18536548029E+02 -0.34572362939E+03  0.39126286816E+03  0.17300000000E+03 0. -1.
         -6    1    1    2    0  502  0.57351551592E+02  0.18536548029E+02  0.45027539258E+02  0.18865122150E+03  0.17300000000E+03 0. -1.
<mgrwt>
<rscale>  2 0.18319881E+03</rscale>
<asrwt>0</asrwt>
<pdfrwt beam="1">  1       21 0.21478308E-01 0.18319881E+03</pdfrwt>
<pdfrwt beam="2">  1       21 0.67739245E-01 0.18319881E+03</pdfrwt>
<totfact> 0.40412475E+04</totfact>
</mgrwt>
</event>
<event>
 4    1  0.3973261E+000  0.1753649E+03  0.7546771E-02  0.1172366E+00
         21   -1    0    0  503  502  0.00000000000E+00  0.00000000000E+00  0.57744902792E+03  0.57744902792E+03  0.00000000000E+00 0.  1.
         21   -1    0    0  501  503 -0.00000000000E+00 -0.00000000000E+00 -0.56922773926E+02  0.56922773926E+02  0.00000000000E+00 0.  1.
          6    1    1    2  501    0 -0.28678515278E+02  0.11794587635E+01  0.17976420769E+03  0.25113346796E+03  0.17300000000E+03 0. -1.
         -6    1    1    2    0  502  0.28678515278E+02 -0.11794587635E+01  0.34076204631E+03  0.38323833389E+03  0.17300000000E+03 0. -1.
<mgrwt>
<rscale>  2 0.17536490E+03</rscale>
<asrwt>0</asrwt>
<pdfrwt beam="1">  1       21 0.88838308E-01 0.17536490E+03</pdfrwt>
<pdfrwt beam="2">  1       21 0.87573502E-02 0.17536490E+03</pdfrwt>
<totfact> 0.11169156E+05</totfact>
</mgrwt>
</event>
<event>
 4    1  0.3973261E+000  0.2589193E+03  0.7546771E-02  0.1107794E+00
         21   -1    0    0  501  502  0.00000000000E+00  0.00000000000E+00  0.36989769486E+03  0.36989769486E+03  0.00000000000E+00 0.  1.
         21   -1    0    0  502  503 -0.00000000000E+00 -0.00000000000E+00 -0.34293530559E+03  0.34293530559E+03  0.00000000000E+00 0. -1.
          6    1    1    2  501    0 -0.15383088712E+03  0.11595808813E+03  0.25822075582E+03  0.36567359595E+03  0.17300000000E+03 0.  1.
         -6    1    1    2    0  503  0.15383088712E+03 -0.11595808813E+03 -0.23125836655E+03  0.34715940451E+03  0.17300000000E+03 0. -1.
<mgrwt>
<rscale>  2 0.25891933E+03</rscale>
<asrwt>0</asrwt>
<pdfrwt beam="1">  1       21 0.56907338E-01 0.25891933E+03</pdfrwt>
<pdfrwt beam="2">  1       21 0.52759278E-01 0.25891933E+03</pdfrwt>
<totfact> 0.94847867E+03</totfact>
</mgrwt>
</event>
<event>
 4    1  0.3973261E+000  0.1857230E+03  0.7546771E-02  0.1162376E+00
         21   -1    0    0  503  502  0.00000000000E+00  0.00000000000E+00  0.44504820804E+03  0.44504820804E+03  0.00000000000E+00 0. -1.
         21   -1    0    0  501  503 -0.00000000000E+00 -0.00000000000E+00 -0.31820948846E+03  0.31820948846E+03  0.00000000000E+00 0. -1.
          6    1    1    2  501    0  0.53944463902E+01 -0.67341906968E+02 -0.26849618898E+03  0.32647088076E+03  0.17300000000E+03 0. -1.
         -6    1    1    2    0  502 -0.53944463902E+01  0.67341906968E+02  0.39533490856E+03  0.43678681575E+03  0.17300000000E+03 0. -1.
<mgrwt>
<rscale>  2 0.18572300E+03</rscale>
<asrwt>0</asrwt>
<pdfrwt beam="1">  1       21 0.68468955E-01 0.18572300E+03</pdfrwt>
<pdfrwt beam="2">  1       21 0.48955306E-01 0.18572300E+03</pdfrwt>
<totfact> 0.77845006E+03</totfact>
</mgrwt>
</event>
<event>
 4    1  0.3973261E+000  0.1735153E+03  0.7546771E-02  0.1174231E+00
         21   -1    0    0  503  502  0.00000000000E+00  0.00000000000E+00  0.34574396792E+03  0.34574396792E+03  0.00000000000E+00 0.  1.
         21   -1    0    0  501  503 -0.00000000000E+00 -0.00000000000E+00 -0.90606321691E+02  0.90606321691E+02  0.00000000000E+00 0.  1.
          6    1    1    2  501    0  0.12231200862E+02  0.53820841420E+01  0.84530618493E+02  0.19301034834E+03  0.17300000000E+03 0.  1.
         -6    1    1    2    0  502 -0.12231200862E+02 -0.53820841420E+01  0.17060702774E+03  0.24333994127E+03  0.17300000000E+03 0.  1.
<mgrwt>
<rscale>  2 0.17351533E+03</rscale>
<asrwt>0</asrwt>
<pdfrwt beam="1">  1       21 0.53191379E-01 0.17351533E+03</pdfrwt>
<pdfrwt beam="2">  1       21 0.13939434E-01 0.17351533E+03</pdfrwt>
<totfact> 0.15095444E+05</totfact>
</mgrwt>
</event>
<event>
 4    1  0.3973261E+000  0.1730482E+03  0.7546771E-02  0.1174706E+00
         21   -1    0    0  503  502  0.00000000000E+00  0.00000000000E+00  0.11924703144E+03  0.11924703144E+03  0.00000000000E+00 0. -1.
         21   -1    0    0  501  503 -0.00000000000E+00 -0.00000000000E+00 -0.33942348007E+03  0.33942348007E+03  0.00000000000E+00 0. -1.
          6    1    1    2  501    0  0.15177750536E+01  0.37906228386E+01 -0.22706008858E+03  0.28548547474E+03  0.17300000000E+03 0. -1.
         -6    1    1    2    0  502 -0.15177750536E+01 -0.37906228386E+01  0.68836399527E+01  0.17318503677E+03  0.17300000000E+03 0. -1.
<mgrwt>
<rscale>  2 0.17304818E+03</rscale>
<asrwt>0</asrwt>
<pdfrwt beam="1">  1       21 0.18345697E-01 0.17304818E+03</pdfrwt>
<pdfrwt beam="2">  1       21 0.52218997E-01 0.17304818E+03</pdfrwt>
<totfact> 0.95039296E+04</totfact>
</mgrwt>
</event>
<event>
 4    1  0.3973261E+000  0.2291126E+03  0.7546771E-02  0.1127266E+00
         21   -1    0    0  501  502  0.00000000000E+00  0.00000000000E+00  0.34354845426E+03  0.34354845426E+03  0.00000000000E+00 0. -1.
         21   -1    0    0  502  503 -0.00000000000E+00 -0.00000000000E+00 -0.15599690698E+03  0.15599690698E+03  0.00000000000E+00 0. -1.
          6    1    1    2  501    0  0.12714426161E+03 -0.79986899008E+02  0.12955865146E+03  0.26320716450E+03  0.17300000000E+03 0. -1.
         -6    1    1    2    0  503 -0.12714426161E+03  0.79986899008E+02  0.57992895809E+02  0.23633819674E+03  0.17300000000E+03 0. -1.
<mgrwt>
<rscale>  2 0.22911256E+03</rscale>
<asrwt>0</asrwt>
<pdfrwt beam="1">  1       21 0.52853608E-01 0.22911256E+03</pdfrwt>
<pdfrwt beam="2">  1       21 0.23999524E-01 0.22911256E+03</pdfrwt>
<totfact> 0.54625086E+04</totfact>
</mgrwt>
</event>
<event>
 4    1  0.3973261E+000  0.2142831E+03  0.7546771E-02  0.1138218E+00
         21   -1    0    0  501  502  0.00000000000E+00  0.00000000000E+00  0.12987951746E+04  0.12987951746E+04  0.00000000000E+00 0. -1.
         21   -1    0    0  502  503 -0.00000000000E+00 -0.00000000000E+00 -0.41641726239E+02  0.41641726239E+02  0.00000000000E+00 0.  1.
          6    1    1    2  501    0 -0.80875289752E+02 -0.97197867716E+02  0.88901725851E+03  0.91447740481E+03  0.17300000000E+03 0. -1.
         -6    1    1    2    0  503  0.80875289752E+02  0.97197867716E+02  0.36813618987E+03  0.42595949605E+03  0.17300000000E+03 0.  1.
<mgrwt>
<rscale>  2 0.21428308E+03</rscale>
<asrwt>0</asrwt>
<pdfrwt beam="1">  1       21 0.19981461E+00 0.21428308E+03</pdfrwt>
<pdfrwt beam="2">  1       21 0.64064204E-02 0.21428308E+03</pdfrwt>
<totfact> 0.23356450E+04</totfact>
</mgrwt>
</event>
<event>
 4    1  0.3973261E+000  0.2208877E+03  0.7546771E-02  0.1133223E+00
         21   -1    0    0  503  502  0.00000000000E+00  0.00000000000E+00  0.24076613635E+03  0.24076613635E+03  0.00000000000E+00 0.  1.
         21   -1    0    0  501  503 -0.00000000000E+00 -0.00000000000E+00 -0.20287593569E+03  0.20287593569E+03  0.00000000000E+00 0.  1.
          6    1    1    2  501    0  0.91029691199E+02  0.10283950752E+03  0.11550162626E+02  0.22118945554E+03  0.17300000000E+03 0.  1.
         -6    1    1    2    0  502 -0.91029691199E+02 -0.10283950752E+03  0.26340038035E+02  0.22245261650E+03  0.17300000000E+03 0.  1.
<mgrwt>
<rscale>  2 0.22088768E+03</rscale>
<asrwt>0</asrwt>
<pdfrwt beam="1">  1       21 0.37040944E-01 0.22088768E+03</pdfrwt>
<pdfrwt beam="2">  1       21 0.31211682E-01 0.22088768E+03</pdfrwt>
<totfact> 0.68483883E+04</totfact>
</mgrwt>
</event>
<event>
 4    1  0.3973261E+000  0.1978258E+03  0.7546771E-02  0.1151586E+00
         21   -1    0    0  501  502  0.00000000000E+00  0.00000000000E+00  0.13667714905E+03  0.13667714905E+03  0.00000000000E+00 0. -1.
         21   -1    0    0  502  503 -0.00000000000E+00 -0.00000000000E+00 -0.30098855069E+03  0.30098855069E+03  0.00000000000E+00 0. -1.
          6    1    1    2  501    0 -0.74698945123E+02  0.60217371196E+02 -0.33866396475E+02  0.20070375434E+03  0.17300000000E+03 0. -1.
         -6    1    1    2    0  503  0.74698945123E+02 -0.60217371196E+02 -0.13044500517E+03  0.23696194540E+03  0.17300000000E+03 0. -1.
<mgrwt>
<rscale>  2 0.19782584E+03</rscale>
<asrwt>0</asrwt>
<pdfrwt beam="1">  1       21 0.21027254E-01 0.19782584E+03</pdfrwt>
<pdfrwt beam="2">  1       21 0.46305930E-01 0.19782584E+03</pdfrwt>
<totfact> 0.93699212E+04</totfact>
</mgrwt>
</event>
<event>
 4    1  0.3973261E+000  0.2182543E+03  0.7546771E-02  0.1135191E+00
         21   -1    0    0  501  502  0.00000000000E+00  0.00000000000E+00  0.35919938634E+03  0.35919938634E+03  0.00000000000E+00 0. -1.
         21   -1    0    0  502  503 -0.00000000000E+00 -0.00000000000E+00 -0.65442507287E+03  0.65442507287E+03  0.00000000000E+00 0. -1.
          6    1    1    2  501    0  0.16624276141E+02 -0.13202118773E+03  0.30494454400E+03  0.37500151397E+03  0.17300000000E+03 0. -1.
         -6    1    1    2    0  503 -0.16624276141E+02  0.13202118773E+03 -0.60017023053E+03  0.63862294523E+03  0.17300000000E+03 0. -1.
<mgrwt>
<rscale>  2 0.21825435E+03</rscale>
<asrwt>0</asrwt>
<pdfrwt beam="1">  1       21 0.55261444E-01 0.21825435E+03</pdfrwt>
<pdfrwt beam="2">  1       21 0.10068078E+00 0.21825435E+03</pdfrwt>
<totfact> 0.24406433E+03</totfact>
</mgrwt>
</event>
<event>
 4    1  0.3973261E+000  0.2017719E+03  0.7546771E-02  0.1148253E+00
         21   -1    0    0  501  502  0.00000000000E+00  0.00000000000E+00  0.20321493542E+04  0.20321493542E+04  0.00000000000E+00 0. -1.
         21   -1    0    0  502  503 -0.00000000000E+00 -0.00000000000E+00 -0.20463224610E+02  0.20463224610E+02  0.00000000000E+00 0. -1.
          6    1    1    2  501    0 -0.10152032142E+03  0.21829058083E+02  0.11544986501E+04  0.11719978739E+04  0.17300000000E+03 0. -1.
         -6    1    1    2    0  503  0.10152032142E+03 -0.21829058083E+02  0.85718747948E+03  0.88061470486E+03  0.17300000000E+03 0. -1.
<mgrwt>
<rscale>  2 0.20177186E+03</rscale>
<asrwt>0</asrwt>
<pdfrwt beam="1">  1       21 0.31263820E+00 0.20177186E+03</pdfrwt>
<pdfrwt beam="2">  1       21 0.31481900E-02 0.20177186E+03</pdfrwt>
<totfact> 0.16704564E+04</totfact>
</mgrwt>
</event>
<event>
 4    1  0.3973261E+000  0.2625094E+03  0.7546771E-02  0.1105645E+00
         21   -1    0    0  503  502  0.00000000000E+00  0.00000000000E+00  0.31485188621E+03  0.31485188621E+03  0.00000000000E+00 0. -1.
         21   -1    0    0  501  503 -0.00000000000E+00 -0.00000000000E+00 -0.23327033657E+03  0.23327033657E+03  0.00000000000E+00 0.  1.
          6    1    1    2  501    0 -0.13040808126E+03 -0.14824273390E+03 -0.27305889882E+02  0.26392572333E+03  0.17300000000E+03 0. -1.
         -6    1    1    2    0  502  0.13040808126E+03  0.14824273390E+03  0.10888743952E+03  0.28419649945E+03  0.17300000000E+03 0. -1.
<mgrwt>
<rscale>  2 0.26250938E+03</rscale>
<asrwt>0</asrwt>
<pdfrwt beam="1">  1       21 0.48438752E-01 0.26250938E+03</pdfrwt>
<pdfrwt beam="2">  1       21 0.35887744E-01 0.26250938E+03</pdfrwt>
<totfact> 0.29451505E+04</totfact>
</mgrwt>
</event>
<event>
 4    1  0.3973261E+000  0.1859744E+03  0.7546771E-02  0.1162143E+00
         21   -1    0    0  501  502  0.00000000000E+00  0.00000000000E+00  0.51398774317E+02  0.51398774317E+02  0.00000000000E+00 0.  1.
         21   -1    0    0  502  503 -0.00000000000E+00 -0.00000000000E+00 -0.67438021330E+03  0.67438021330E+03  0.00000000000E+00 0.  1.
          6    1    1    2  501    0  0.42966924056E+02 -0.53021866774E+02 -0.32846529691E+03  0.37745983388E+03  0.17300000000E+03 0.  1.
         -6    1    1    2    0  503 -0.42966924056E+02  0.53021866774E+02 -0.29451614208E+03  0.34831915374E+03  0.17300000000E+03 0.  1.
<mgrwt>
<rscale>  2 0.18597439E+03</rscale>
<asrwt>0</asrwt>
<pdfrwt beam="1">  1       21 0.79075044E-02 0.18597439E+03</pdfrwt>
<pdfrwt beam="2">  1       21 0.10375079E+00 0.18597439E+03</pdfrwt>
<totfact> 0.92333232E+04</totfact>
</mgrwt>
</event>
<event>
 4    1  0.3973261E+000  0.2030097E+03  0.7546771E-02  0.1147224E+00
         21   -1    0    0  503  502  0.00000000000E+00  0.00000000000E+00  0.43525214771E+03  0.43525214771E+03  0.00000000000E+00 0. -1.
         21   -1    0    0  501  503 -0.00000000000E+00 -0.00000000000E+00 -0.13644245872E+03  0.13644245872E+03  0.00000000000E+00 0. -1.
          6    1    1    2  501    0 -0.20319971956E+02  0.10426419235E+03 -0.87248876992E+01  0.20319706379E+03  0.17300000000E+03 0. -1.
         -6    1    1    2    0  502  0.20319971956E+02 -0.10426419235E+03  0.30753457669E+03  0.36849754264E+03  0.17300000000E+03 0. -1.
<mgrwt>
<rscale>  2 0.20300966E+03</rscale>
<asrwt>0</asrwt>
<pdfrwt beam="1">  1       21 0.66961868E-01 0.20300966E+03</pdfrwt>
<pdfrwt beam="2">  1       21 0.20991148E-01 0.20300966E+03</pdfrwt>
<totfact> 0.42838971E+04</totfact>
</mgrwt>
</event>
<event>
 4    1  0.3973261E+000  0.2115875E+03  0.7546771E-02  0.1140315E+00
         21   -1    0    0  501  502  0.00000000000E+00  0.00000000000E+00  0.72499971682E+03  0.72499971682E+03  0.00000000000E+00 0. -1.
         21   -1    0    0  502  503 -0.00000000000E+00 -0.00000000000E+00 -0.73826518250E+02  0.73826518250E+02  0.00000000000E+00 0. -1.
          6    1    1    2  501    0  0.12181271958E+03 -0.13946048617E+01  0.48712409058E+03  0.53109242434E+03  0.17300000000E+03 0. -1.
         -6    1    1    2    0  503 -0.12181271958E+03  0.13946048617E+01  0.16404910800E+03  0.26773381073E+03  0.17300000000E+03 0. -1.
<mgrwt>
<rscale>  2 0.21158753E+03</rscale>
<asrwt>0</asrwt>
<pdfrwt beam="1">  1       21 0.11153841E+00 0.21158753E+03</pdfrwt>
<pdfrwt beam="2">  1       21 0.11357926E-01 0.21158753E+03</pdfrwt>
<totfact> 0.40464101E+04</totfact>
</mgrwt>
</event>
<event>
 4    1  0.3973261E+000  0.1911816E+03  0.7546771E-02  0.1157400E+00
         21   -1    0    0  501  502  0.00000000000E+00  0.00000000000E+00  0.16970196235E+04  0.16970196235E+04  0.00000000000E+00 0.  1.
         21   -1    0    0  502  503 -0.00000000000E+00 -0.00000000000E+00 -0.22713870707E+02  0.22713870707E+02  0.00000000000E+00 0.  1.
          6    1    1    2  501    0 -0.36345962119E+02  0.72803798293E+02  0.10327956952E+04  0.10503415492E+04  0.17300000000E+03 0.  1.
         -6    1    1    2    0  503  0.36345962119E+02 -0.72803798293E+02  0.64151005755E+03  0.66939194494E+03  0.17300000000E+03 0.  1.
<mgrwt>
<rscale>  2 0.19118165E+03</rscale>
<asrwt>0</asrwt>
<pdfrwt beam="1">  1       21 0.26107984E+00 0.19118165E+03</pdfrwt>
<pdfrwt beam="2">  1       21 0.34944430E-02 0.19118165E+03</pdfrwt>
<totfact> 0.28164310E+04</totfact>
</mgrwt>
</event>
<event>
 4    1  0.3973261E+000  0.1761469E+03  0.7546771E-02  0.1171585E+00
         21   -1    0    0  503  502  0.00000000000E+00  0.00000000000E+00  0.26215013845E+03  0.26215013845E+03  0.00000000000E+00 0. -1.
         21   -1    0    0  501  503 -0.00000000000E+00 -0.00000000000E+00 -0.11959847977E+03  0.11959847977E+03  0.00000000000E+00 0. -1.
          6    1    1    2  501    0  0.24881541187E+02 -0.21900296350E+02  0.51841003573E+02  0.18361700282E+03  0.17300000000E+03 0. -1.
         -6    1    1    2    0  502 -0.24881541187E+02  0.21900296350E+02  0.90710655104E+02  0.19813161540E+03  0.17300000000E+03 0. -1.
<mgrwt>
<rscale>  2 0.17614685E+03</rscale>
<asrwt>0</asrwt>
<pdfrwt beam="1">  1       21 0.40330790E-01 0.17614685E+03</pdfrwt>
<pdfrwt beam="2">  1       21 0.18399766E-01 0.17614685E+03</pdfrwt>
<totfact> 0.16052985E+05</totfact>
</mgrwt>
</event>
<event>
 4    1  0.3973261E+000  0.1958499E+03  0.7546771E-02  0.1153288E+00
         21   -1    0    0  501  502  0.00000000000E+00  0.00000000000E+00  0.20728788392E+03  0.20728788392E+03  0.00000000000E+00 0.  1.
         21   -1    0    0  502  503 -0.00000000000E+00 -0.00000000000E+00 -0.21365939516E+03  0.21365939516E+03  0.00000000000E+00 0.  1.
          6    1    1    2  501    0 -0.85115255254E+02  0.34402950214E+02  0.73841470407E+02  0.20930774571E+03  0.17300000000E+03 0.  1.
         -6    1    1    2    0  503  0.85115255254E+02 -0.34402950214E+02 -0.80212981653E+02  0.21163953337E+03  0.17300000000E+03 0.  1.
<mgrwt>
<rscale>  2 0.19584987E+03</rscale>
<asrwt>0</asrwt>
<pdfrwt beam="1">  1       21 0.31890444E-01 0.19584987E+03</pdfrwt>
<pdfrwt beam="2">  1       21 0.32870676E-01 0.19584987E+03</pdfrwt>
<totfact> 0.84132724E+04</totfact>
</mgrwt>
</event>
<event>
 4    1  0.3973261E+000  0.2002546E+03  0.7546771E-02  0.1149524E+00
         21   -1    0    0  503  502  0.00000000000E+00  0.00000000000E+00  0.37159542361E+04  0.37159542361E+04  0.00000000000E+00 0.  1.
         21   -1    0    0  501  503 -0.00000000000E+00 -0.00000000000E+00 -0.12880208590E+02  0.12880208590E+02  0.00000000000E+00 0.  1.
          6    1    1    2  501    0 -0.16173668689E+02 -0.99555691576E+02  0.11008015689E+04  0.11188681859E+04  0.17300000000E+03 0.  1.
         -6    1    1    2    0  502  0.16173668689E+02  0.99555691576E+02  0.26022724586E+04  0.26099662588E+04  0.17300000000E+03 0.  1.
<mgrwt>
<rscale>  2 0.20025465E+03</rscale>
<asrwt>0</asrwt>
<pdfrwt beam="1">  1       21 0.57168441E+00 0.20025465E+03</pdfrwt>
<pdfrwt beam="2">  1       21 0.19815735E-02 0.20025465E+03</pdfrwt>
<totfact> 0.69652078E+02</totfact>
</mgrwt>
</event>
<event>
 4    1  0.3973261E+000  0.2420894E+03  0.7546771E-02  0.1118409E+00
         21   -1    0    0  503  502  0.00000000000E+00  0.00000000000E+00  0.71200085241E+03  0.71200085241E+03  0.00000000000E+00 0. -1.
         21   -1    0    0  501  503 -0.00000000000E+00 -0.00000000000E+00 -0.16766046580E+03  0.16766046580E+03  0.00000000000E+00 0. -1.
          6    1    1    2  501    0  0.15371578825E+03 -0.71061482585E+02 -0.41637960199E+02  0.24564404653E+03  0.17300000000E+03 0. -1.
         -6    1    1    2    0  502 -0.15371578825E+03  0.71061482585E+02  0.58597834681E+03  0.63401727169E+03  0.17300000000E+03 0. -1.
<mgrwt>
<rscale>  2 0.24208940E+03</rscale>
<asrwt>0</asrwt>
<pdfrwt beam="1">  1       21 0.10953859E+00 0.24208940E+03</pdfrwt>
<pdfrwt beam="2">  1       21 0.25793918E-01 0.24208940E+03</pdfrwt>
<totfact> 0.91084789E+03</totfact>
</mgrwt>
</event>
<event>
 4    1  0.3973261E+000  0.2180814E+03  0.7546771E-02  0.1135322E+00
         21   -1    0    0  501  502  0.00000000000E+00  0.00000000000E+00  0.46830181363E+02  0.46830181363E+02  0.00000000000E+00 0. -1.
         21   -1    0    0  502  503 -0.00000000000E+00 -0.00000000000E+00 -0.11536738782E+04  0.11536738782E+04  0.00000000000E+00 0.  1.
          6    1    1    2  501    0  0.13271244989E+03  0.42326434788E+01 -0.34574459923E+03  0.40877724682E+03  0.17300000000E+03 0. -1.
         -6    1    1    2    0  503 -0.13271244989E+03 -0.42326434788E+01 -0.76109909760E+03  0.79172681273E+03  0.17300000000E+03 0.  1.
<mgrwt>
<rscale>  2 0.21808143E+03</rscale>
<asrwt>0</asrwt>
<pdfrwt beam="1">  1       21 0.72046435E-02 0.21808143E+03</pdfrwt>
<pdfrwt beam="2">  1       21 0.17748828E+00 0.21808143E+03</pdfrwt>
<totfact> 0.26786473E+04</totfact>
</mgrwt>
</event>
<event>
 4    1  0.3973261E+000  0.2075467E+03  0.7546771E-02  0.1143524E+00
         21   -1    0    0  503  502  0.00000000000E+00  0.00000000000E+00  0.64168975305E+03  0.64168975305E+03  0.00000000000E+00 0.  1.
         21   -1    0    0  501  503 -0.00000000000E+00 -0.00000000000E+00 -0.69015789199E+02  0.69015789199E+02  0.00000000000E+00 0.  1.
          6    1    1    2  501    0  0.29687483848E+02  0.11074878918E+03  0.22757316334E+03  0.30800192479E+03  0.17300000000E+03 0.  1.
         -6    1    1    2    0  502 -0.29687483848E+02 -0.11074878918E+03  0.34510080052E+03  0.40270361746E+03  0.17300000000E+03 0.  1.
<mgrwt>
<rscale>  2 0.20754672E+03</rscale>
<asrwt>0</asrwt>
<pdfrwt beam="1">  1       21 0.98721497E-01 0.20754672E+03</pdfrwt>
<pdfrwt beam="2">  1       21 0.10617814E-01 0.20754672E+03</pdfrwt>
<totfact> 0.61315962E+04</totfact>
</mgrwt>
</event>
<event>
 4    1  0.3973261E+000  0.2120541E+03  0.7546771E-02  0.1139950E+00
         21   -1    0    0  503  502  0.00000000000E+00  0.00000000000E+00  0.36427402650E+02  0.36427402650E+02  0.00000000000E+00 0.  1.
         21   -1    0    0  501  503 -0.00000000000E+00 -0.00000000000E+00 -0.13240939247E+04  0.13240939247E+04  0.00000000000E+00 0. -1.
          6    1    1    2  501    0  0.74100343497E+01 -0.12240524792E+03 -0.82085767529E+03  0.84780556522E+03  0.17300000000E+03 0. -1.
         -6    1    1    2    0  502 -0.74100343497E+01  0.12240524792E+03 -0.46680884677E+03  0.51271576214E+03  0.17300000000E+03 0.  1.
<mgrwt>
<rscale>  2 0.21205413E+03</rscale>
<asrwt>0</asrwt>
<pdfrwt beam="1">  1       21 0.56042163E-02 0.21205413E+03</pdfrwt>
<pdfrwt beam="2">  1       21 0.20370674E+00 0.21205413E+03</pdfrwt>
<totfact> 0.27782135E+04</totfact>
</mgrwt>
</event>
<event>
 4    1  0.3973261E+000  0.1927316E+03  0.7546771E-02  0.1156020E+00
         21   -1    0    0  503  502  0.00000000000E+00  0.00000000000E+00  0.12576591293E+03  0.12576591293E+03  0.00000000000E+00 0.  1.
         21   -1    0    0  501  503 -0.00000000000E+00 -0.00000000000E+00 -0.31499268052E+03  0.31499268052E+03  0.00000000000E+00 0.  1.
          6    1    1    2  501    0 -0.10324486486E+02 -0.84320111064E+02 -0.14964037580E+03  0.24400352092E+03  0.17300000000E+03 0.  1.
         -6    1    1    2    0  502  0.10324486486E+02  0.84320111064E+02 -0.39586391791E+02  0.19675507253E+03  0.17300000000E+03 0.  1.
<mgrwt>
<rscale>  2 0.19273162E+03</rscale>
<asrwt>0</asrwt>
<pdfrwt beam="1">  1       21 0.19348602E-01 0.19273162E+03</pdfrwt>
<pdfrwt beam="2">  1       21 0.48460412E-01 0.19273162E+03</pdfrwt>
<totfact> 0.99852488E+04</totfact>
</mgrwt>
</event>
<event>
 4    1  0.3973261E+000  0.1847779E+03  0.7546771E-02  0.1163257E+00
         21   -1    0    0  503  502  0.00000000000E+00  0.00000000000E+00  0.12924097355E+04  0.12924097355E+04  0.00000000000E+00 0.  1.
         21   -1    0    0  501  503 -0.00000000000E+00 -0.00000000000E+00 -0.62243134984E+02  0.62243134984E+02  0.00000000000E+00 0.  1.
          6    1    1    2  501    0  0.31057124012E+02 -0.57002862975E+02  0.10122159137E+03  0.21068621668E+03  0.17300000000E+03 0.  1.
         -6    1    1    2    0  502 -0.31057124012E+02  0.57002862975E+02  0.11289450092E+04  0.11439666538E+04  0.17300000000E+03 0.  1.
<mgrwt>
<rscale>  2 0.18477790E+03</rscale>
<asrwt>0</asrwt>
<pdfrwt beam="1">  1       21 0.19883225E+00 0.18477790E+03</pdfrwt>
<pdfrwt beam="2">  1       21 0.95758679E-02 0.18477790E+03</pdfrwt>
<totfact> 0.12044073E+04</totfact>
</mgrwt>
</event>
<event>
 4    1  0.3973261E+000  0.1865883E+03  0.7546771E-02  0.1161575E+00
         21   -1    0    0  501  502  0.00000000000E+00  0.00000000000E+00  0.23980710807E+03  0.23980710807E+03  0.00000000000E+00 0. -1.
         21   -1    0    0  502  503 -0.00000000000E+00 -0.00000000000E+00 -0.24371350961E+03  0.24371350961E+03  0.00000000000E+00 0. -1.
          6    1    1    2  501    0 -0.53602584689E+02 -0.44865809198E+02  0.15176926480E+03  0.24051837281E+03  0.17300000000E+03 0.  1.
         -6    1    1    2    0  503  0.53602584689E+02  0.44865809198E+02 -0.15567566635E+03  0.24300224487E+03  0.17300000000E+03 0.  1.
<mgrwt>
<rscale>  2 0.18658826E+03</rscale>
<asrwt>0</asrwt>
<pdfrwt beam="1">  1       21 0.36893401E-01 0.18658826E+03</pdfrwt>
<pdfrwt beam="2">  1       21 0.37494386E-01 0.18658826E+03</pdfrwt>
<totfact> 0.48748126E+04</totfact>
</mgrwt>
</event>
<event>
 4    1  0.3973261E+000  0.2114101E+03  0.7546771E-02  0.1140454E+00
         21   -1    0    0  503  502  0.00000000000E+00  0.00000000000E+00  0.29978812253E+02  0.29978812253E+02  0.00000000000E+00 0.  1.
         21   -1    0    0  501  503 -0.00000000000E+00 -0.00000000000E+00 -0.15040893927E+04  0.15040893927E+04  0.00000000000E+00 0.  1.
          6    1    1    2  501    0  0.95442369367E+02  0.75206330976E+02 -0.80898917889E+03  0.83615652222E+03  0.17300000000E+03 0.  1.
         -6    1    1    2    0  502 -0.95442369367E+02 -0.75206330976E+02 -0.66512140159E+03  0.69791168276E+03  0.17300000000E+03 0.  1.
<mgrwt>
<rscale>  2 0.21141012E+03</rscale>
<asrwt>0</asrwt>
<pdfrwt beam="1">  1       21 0.46121241E-02 0.21141012E+03</pdfrwt>
<pdfrwt beam="2">  1       21 0.23139841E+00 0.21141012E+03</pdfrwt>
<totfact> 0.26065660E+04</totfact>
</mgrwt>
</event>
<event>
 4    1  0.3973261E+000  0.2105271E+03  0.7546771E-02  0.1141149E+00
         21   -1    0    0  503  502  0.00000000000E+00  0.00000000000E+00  0.27111420855E+03  0.27111420855E+03  0.00000000000E+00 0.  1.
         21   -1    0    0  501  503 -0.00000000000E+00 -0.00000000000E+00 -0.19605820172E+03  0.19605820172E+03  0.00000000000E+00 0.  1.
          6    1    1    2  501    0 -0.11955478856E+03  0.99665535434E+01 -0.57690200907E+02  0.21828843061E+03  0.17300000000E+03 0.  1.
         -6    1    1    2    0  502  0.11955478856E+03 -0.99665535434E+01  0.13274620774E+03  0.24888397965E+03  0.17300000000E+03 0.  1.
<mgrwt>
<rscale>  2 0.21052715E+03</rscale>
<asrwt>0</asrwt>
<pdfrwt beam="1">  1       21 0.41709878E-01 0.21052715E+03</pdfrwt>
<pdfrwt beam="2">  1       21 0.30162800E-01 0.21052715E+03</pdfrwt>
<totfact> 0.57866318E+04</totfact>
</mgrwt>
</event>
<event>
 4    1  0.3973261E+000  0.2044425E+03  0.7546771E-02  0.1146044E+00
         21   -1    0    0  501  502  0.00000000000E+00  0.00000000000E+00  0.47829810508E+02  0.47829810508E+02  0.00000000000E+00 0.  1.
         21   -1    0    0  502  503 -0.00000000000E+00 -0.00000000000E+00 -0.88632319907E+03  0.88632319907E+03  0.00000000000E+00 0.  1.
          6    1    1    2  501    0 -0.41697154005E+02 -0.10064325168E+03 -0.36386720248E+03  0.41736801243E+03  0.17300000000E+03 0.  1.
         -6    1    1    2    0  503  0.41697154005E+02  0.10064325168E+03 -0.47462618608E+03  0.51678499715E+03  0.17300000000E+03 0.  1.
<mgrwt>
<rscale>  2 0.20444245E+03</rscale>
<asrwt>0</asrwt>
<pdfrwt beam="1">  1       21 0.73584329E-02 0.20444245E+03</pdfrwt>
<pdfrwt beam="2">  1       21 0.13635741E+00 0.20444245E+03</pdfrwt>
<totfact> 0.52795124E+04</totfact>
</mgrwt>
</event>
<event>
 4    1  0.3973261E+000  0.1745948E+03  0.7546771E-02  0.1173139E+00
         21   -1    0    0  501  502  0.00000000000E+00  0.00000000000E+00  0.14906549834E+03  0.14906549834E+03  0.00000000000E+00 0.  1.
         21   -1    0    0  502  503 -0.00000000000E+00 -0.00000000000E+00 -0.22429417481E+03  0.22429417481E+03  0.00000000000E+00 0.  1.
          6    1    1    2  501    0 -0.37520833698E+01  0.23243928553E+02  0.17847794115E+02  0.17550470677E+03  0.17300000000E+03 0.  1.
         -6    1    1    2    0  503  0.37520833698E+01 -0.23243928553E+02 -0.93076470579E+02  0.19785496638E+03  0.17300000000E+03 0.  1.
<mgrwt>
<rscale>  2 0.17459484E+03</rscale>
<asrwt>0</asrwt>
<pdfrwt beam="1">  1       21 0.22933154E-01 0.17459484E+03</pdfrwt>
<pdfrwt beam="2">  1       21 0.34506796E-01 0.17459484E+03</pdfrwt>
<totfact> 0.14530994E+05</totfact>
</mgrwt>
</event>
<event>
 4    1  0.3973261E+000  0.2187579E+03  0.7546771E-02  0.1134812E+00
         21   -1    0    0  503  502  0.00000000000E+00  0.00000000000E+00  0.11225747317E+04  0.11225747317E+04  0.00000000000E+00 0. -1.
         21   -1    0    0  501  503 -0.00000000000E+00 -0.00000000000E+00 -0.43050874214E+02  0.43050874214E+02  0.00000000000E+00 0. -1.
          6    1    1    2  501    0  0.12981804788E+03 -0.32761145345E+02  0.48211559851E+03  0.52942465803E+03  0.17300000000E+03 0. -1.
         -6    1    1    2    0  502 -0.12981804788E+03  0.32761145345E+02  0.59740825897E+03  0.63620094788E+03  0.17300000000E+03 0. -1.
<mgrwt>
<rscale>  2 0.21875790E+03</rscale>
<asrwt>0</asrwt>
<pdfrwt beam="1">  1       21 0.17270378E+00 0.21875790E+03</pdfrwt>
<pdfrwt beam="2">  1       21 0.66232123E-02 0.21875790E+03</pdfrwt>
<totfact> 0.33439956E+04</totfact>
</mgrwt>
</event>
<event>
 4    1  0.3973261E+000  0.1772582E+03  0.7546771E-02  0.1170483E+00
         21   -1    0    0  501  502  0.00000000000E+00  0.00000000000E+00  0.15348394435E+02  0.15348394435E+02  0.00000000000E+00 0.  1.
         21   -1    0    0  502  503 -0.00000000000E+00 -0.00000000000E+00 -0.22338077175E+04  0.22338077175E+04  0.00000000000E+00 0. -1.
          6    1    1    2  501    0  0.30829486165E+02  0.23259582695E+02 -0.78415006897E+03  0.80393519395E+03  0.17300000000E+03 0. -1.
         -6    1    1    2    0  503 -0.30829486165E+02 -0.23259582695E+02 -0.14343092541E+04  0.14452209180E+04  0.17300000000E+03 0. -1.
<mgrwt>
<rscale>  2 0.17725819E+03</rscale>
<asrwt>0</asrwt>
<pdfrwt beam="1">  1       21 0.23612935E-02 0.17725819E+03</pdfrwt>
<pdfrwt beam="2">  1       21 0.34366243E+00 0.17725819E+03</pdfrwt>
<totfact> 0.18205337E+04</totfact>
</mgrwt>
</event>
<event>
 4    1  0.3973261E+000  0.1853321E+03  0.7546771E-02  0.1162740E+00
         21   -1    0    0  501  502  0.00000000000E+00  0.00000000000E+00  0.25093208398E+03  0.25093208398E+03  0.00000000000E+00 0.  1.
         21   -1    0    0  502  503 -0.00000000000E+00 -0.00000000000E+00 -0.13693746882E+03  0.13693746882E+03  0.00000000000E+00 0.  1.
          6    1    1    2  501    0 -0.14418997200E+02  0.64892698399E+02  0.60916685070E+02  0.19508667896E+03  0.17300000000E+03 0. -1.
         -6    1    1    2    0  503  0.14418997200E+02 -0.64892698399E+02  0.53077930087E+02  0.19278287385E+03  0.17300000000E+03 0. -1.
<mgrwt>
<rscale>  2 0.18533205E+03</rscale>
<asrwt>0</asrwt>
<pdfrwt beam="1">  1       21 0.38604936E-01 0.18533205E+03</pdfrwt>
<pdfrwt beam="2">  1       21 0.21067303E-01 0.18533205E+03</pdfrwt>
<totfact> 0.13582892E+05</totfact>
</mgrwt>
</event>
<event>
 4    1  0.3973261E+000  0.1801689E+03  0.7546771E-02  0.1167640E+00
         21   -1    0    0  501  502  0.00000000000E+00  0.00000000000E+00  0.20350176380E+04  0.20350176380E+04  0.00000000000E+00 0. -1.
         21   -1    0    0  502  503 -0.00000000000E+00 -0.00000000000E+00 -0.17138016198E+02  0.17138016198E+02  0.00000000000E+00 0. -1.
          6    1    1    2  501    0 -0.49645488254E+02 -0.81955769306E+01  0.12789645599E+04  0.12915925005E+04  0.17300000000E+03 0. -1.
         -6    1    1    2    0  503  0.49645488254E+02  0.81955769306E+01  0.73891506185E+03  0.76056315360E+03  0.17300000000E+03 0. -1.
<mgrwt>
<rscale>  2 0.18016893E+03</rscale>
<asrwt>0</asrwt>
<pdfrwt beam="1">  1       21 0.31307945E+00 0.18016893E+03</pdfrwt>
<pdfrwt beam="2">  1       21 0.26366195E-02 0.18016893E+03</pdfrwt>
<totfact> 0.22766054E+04</totfact>
</mgrwt>
</event>
<event>
 4    1  0.3973261E+000  0.2113584E+03  0.7546771E-02  0.1140495E+00
         21   -1    0    0  501  502  0.00000000000E+00  0.00000000000E+00  0.14899318435E+04  0.14899318435E+04  0.00000000000E+00 0. -1.
         21   -1    0    0  502  503 -0.00000000000E+00 -0.00000000000E+00 -0.18099056016E+03  0.18099056016E+03  0.00000000000E+00 0. -1.
          6    1    1    2  501    0  0.30404036562E-01 -0.12142236961E+03  0.14175995319E+04  0.14332692788E+04  0.17300000000E+03 0. -1.
         -6    1    1    2    0  503 -0.30404036562E-01  0.12142236961E+03 -0.10865824855E+03  0.23765312484E+03  0.17300000000E+03 0. -1.
<mgrwt>
<rscale>  2 0.21135845E+03</rscale>
<asrwt>0</asrwt>
<pdfrwt beam="1">  1       21 0.22922028E+00 0.21135845E+03</pdfrwt>
<pdfrwt beam="2">  1       21 0.27844703E-01 0.21135845E+03</pdfrwt>
<totfact> 0.10657908E+03</totfact>
</mgrwt>
</event>
<event>
 4    1  0.3973261E+000  0.2217323E+03  0.7546771E-02  0.1132598E+00
         21   -1    0    0  503  502  0.00000000000E+00  0.00000000000E+00  0.13287305525E+04  0.13287305525E+04  0.00000000000E+00 0.  1.
         21   -1    0    0  501  503 -0.00000000000E+00 -0.00000000000E+00 -0.53097537877E+02  0.53097537877E+02  0.00000000000E+00 0.  1.
          6    1    1    2  501    0 -0.11495654022E+02 -0.13821743192E+03  0.25741306012E+03  0.33974503980E+03  0.17300000000E+03 0.  1.
         -6    1    1    2    0  502  0.11495654022E+02  0.13821743192E+03  0.10182199545E+04  0.10420830506E+04  0.17300000000E+03 0.  1.
<mgrwt>
<rscale>  2 0.22173229E+03</rscale>
<asrwt>0</asrwt>
<pdfrwt beam="1">  1       21 0.20442006E+00 0.22173229E+03</pdfrwt>
<pdfrwt beam="2">  1       21 0.81688530E-02 0.22173229E+03</pdfrwt>
<totfact> 0.14234968E+04</totfact>
</mgrwt>
</event>
<event>
 4    1  0.3973261E+000  0.2346132E+03  0.7546771E-02  0.1123434E+00
         21   -1    0    0  503  502  0.00000000000E+00  0.00000000000E+00  0.10480855972E+04  0.10480855972E+04  0.00000000000E+00 0. -1.
         21   -1    0    0  501  503 -0.00000000000E+00 -0.00000000000E+00 -0.52960395188E+02  0.52960395188E+02  0.00000000000E+00 0.  1.
          6    1    1    2  501    0 -0.27156073011E+02  0.15613099548E+03  0.44724567364E+03  0.50504656482E+03  0.17300000000E+03 0. -1.
         -6    1    1    2    0  502  0.27156073011E+02 -0.15613099548E+03  0.54787952839E+03  0.59599942758E+03  0.17300000000E+03 0. -1.
<mgrwt>
<rscale>  2 0.23461317E+03</rscale>
<asrwt>0</asrwt>
<pdfrwt beam="1">  1       21 0.16124392E+00 0.23461317E+03</pdfrwt>
<pdfrwt beam="2">  1       21 0.81477538E-02 0.23461317E+03</pdfrwt>
<totfact> 0.27922348E+04</totfact>
</mgrwt>
</event>
<event>
 4    1  0.3973261E+000  0.1783662E+03  0.7546771E-02  0.1169394E+00
         21   -1    0    0  501  502  0.00000000000E+00  0.00000000000E+00  0.36852556676E+02  0.36852556676E+02  0.00000000000E+00 0. -1.
         21   -1    0    0  502  503 -0.00000000000E+00 -0.00000000000E+00 -0.87611708587E+03  0.87611708587E+03  0.00000000000E+00 0. -1.
          6    1    1    2  501    0  0.38848022745E+02 -0.19399000682E+02 -0.36440062564E+03  0.40571209751E+03  0.17300000000E+03 0.  1.
         -6    1    1    2    0  503 -0.38848022745E+02  0.19399000682E+02 -0.47486390355E+03  0.50725754504E+03  0.17300000000E+03 0.  1.
<mgrwt>
<rscale>  2 0.17836617E+03</rscale>
<asrwt>0</asrwt>
<pdfrwt beam="1">  1       21 0.56696247E-02 0.17836617E+03</pdfrwt>
<pdfrwt beam="2">  1       21 0.13478723E+00 0.17836617E+03</pdfrwt>
<totfact> 0.86254493E+04</totfact>
</mgrwt>
</event>
<event>
 4    1  0.3973261E+000  0.2393506E+03  0.7546771E-02  0.1120226E+00
         21   -1    0    0  501  502  0.00000000000E+00  0.00000000000E+00  0.20902201740E+03  0.20902201740E+03  0.00000000000E+00 0. -1.
         21   -1    0    0  502  503 -0.00000000000E+00 -0.00000000000E+00 -0.35186448610E+03  0.35186448610E+03  0.00000000000E+00 0. -1.
          6    1    1    2  501    0 -0.14963278886E+03 -0.70496290312E+02  0.60436168945E+02  0.24686277355E+03  0.17300000000E+03 0. -1.
         -6    1    1    2    0  503  0.14963278886E+03  0.70496290312E+02 -0.20327863765E+03  0.31402372995E+03  0.17300000000E+03 0. -1.
<mgrwt>
<rscale>  2 0.23935058E+03</rscale>
<asrwt>0</asrwt>
<pdfrwt beam="1">  1       21 0.32157234E-01 0.23935058E+03</pdfrwt>
<pdfrwt beam="2">  1       21 0.54132997E-01 0.23935058E+03</pdfrwt>
<totfact> 0.29292409E+04</totfact>
</mgrwt>
</event>
<event>
 4    1  0.3973261E+000  0.1856390E+03  0.7546771E-02  0.1162455E+00
         21   -1    0    0  503  502  0.00000000000E+00  0.00000000000E+00  0.60754811061E+02  0.60754811061E+02  0.00000000000E+00 0.  1.
         21   -1    0    0  501  503 -0.00000000000E+00 -0.00000000000E+00 -0.65895770533E+03  0.65895770533E+03  0.00000000000E+00 0.  1.
          6    1    1    2  501    0 -0.25269668328E+02 -0.62404059976E+02 -0.43336420586E+03  0.47145133127E+03  0.17300000000E+03 0.  1.
         -6    1    1    2    0  502  0.25269668328E+02  0.62404059976E+02 -0.16483868841E+03  0.24826118512E+03  0.17300000000E+03 0.  1.
<mgrwt>
<rscale>  2 0.18563896E+03</rscale>
<asrwt>0</asrwt>
<pdfrwt beam="1">  1       21 0.93468937E-02 0.18563896E+03</pdfrwt>
<pdfrwt beam="2">  1       21 0.10137811E+00 0.18563896E+03</pdfrwt>
<totfact> 0.72863014E+04</totfact>
</mgrwt>
</event>
<event>
 4    1  0.3973261E+000  0.2693363E+03  0.7546771E-02  0.1101660E+00
         21   -1    0    0  501  502  0.00000000000E+00  0.00000000000E+00  0.61152396328E+03  0.61152396328E+03  0.00000000000E+00 0.  1.
         21   -1    0    0  502  503 -0.00000000000E+00 -0.00000000000E+00 -0.17122740298E+03  0.17122740298E+03  0.00000000000E+00 0.  1.
          6    1    1    2  501    0 -0.14228919600E+03  0.14955534333E+03  0.43707352243E+03  0.51339583172E+03  0.17300000000E+03 0.  1.
         -6    1    1    2    0  503  0.14228919600E+03 -0.14955534333E+03  0.32230378652E+01  0.26935553454E+03  0.17300000000E+03 0.  1.
<mgrwt>
<rscale>  2 0.26933625E+03</rscale>
<asrwt>0</asrwt>
<pdfrwt beam="1">  1       21 0.94080609E-01 0.26933625E+03</pdfrwt>
<pdfrwt beam="2">  1       21 0.26342678E-01 0.26933625E+03</pdfrwt>
<totfact> 0.12414765E+04</totfact>
</mgrwt>
</event>
<event>
 4    1  0.3973261E+000  0.2140924E+03  0.7546771E-02  0.1138366E+00
         21   -1    0    0  503  502  0.00000000000E+00  0.00000000000E+00  0.68967873210E+02  0.68967873210E+02  0.00000000000E+00 0.  1.
         21   -1    0    0  501  503 -0.00000000000E+00 -0.00000000000E+00 -0.66463979064E+03  0.66463979064E+03  0.00000000000E+00 0.  1.
          6    1    1    2  501    0 -0.57546080067E+02  0.11222752281E+03 -0.30091244786E+03  0.36930186770E+03  0.17300000000E+03 0.  1.
         -6    1    1    2    0  502  0.57546080067E+02 -0.11222752281E+03 -0.29475946957E+03  0.36430579615E+03  0.17300000000E+03 0.  1.
<mgrwt>
<rscale>  2 0.21409243E+03</rscale>
<asrwt>0</asrwt>
<pdfrwt beam="1">  1       21 0.10610442E-01 0.21409243E+03</pdfrwt>
<pdfrwt beam="2">  1       21 0.10225227E+00 0.21409243E+03</pdfrwt>
<totfact> 0.56284905E+04</totfact>
</mgrwt>
</event>
<event>
 4    1  0.3973261E+000  0.1981825E+03  0.7546771E-02  0.1151282E+00
         21   -1    0    0  501  502  0.00000000000E+00  0.00000000000E+00  0.19198229097E+03  0.19198229097E+03  0.00000000000E+00 0. -1.
         21   -1    0    0  502  503 -0.00000000000E+00 -0.00000000000E+00 -0.43070845101E+03  0.43070845101E+03  0.00000000000E+00 0. -1.
          6    1    1    2  501    0  0.82330827005E+02 -0.50684821290E+02  0.10622981823E+03  0.22485793396E+03  0.17300000000E+03 0. -1.
         -6    1    1    2    0  503 -0.82330827005E+02  0.50684821290E+02 -0.34495597827E+03  0.39783280801E+03  0.17300000000E+03 0. -1.
<mgrwt>
<rscale>  2 0.19818253E+03</rscale>
<asrwt>0</asrwt>
<pdfrwt beam="1">  1       21 0.29535737E-01 0.19818253E+03</pdfrwt>
<pdfrwt beam="2">  1       21 0.66262838E-01 0.19818253E+03</pdfrwt>
<totfact> 0.22883289E+04</totfact>
</mgrwt>
</event>
<event>
 4    1  0.3973261E+000  0.1984316E+03  0.7546771E-02  0.1151069E+00
         21   -1    0    0  503  502  0.00000000000E+00  0.00000000000E+00  0.26904467273E+03  0.26904467273E+03  0.00000000000E+00 0. -1.
         21   -1    0    0  501  503 -0.00000000000E+00 -0.00000000000E+00 -0.34387736308E+03  0.34387736308E+03  0.00000000000E+00 0. -1.
          6    1    1    2  501    0  0.38677262435E+02 -0.89163806611E+02 -0.26968218080E+03  0.33481874751E+03  0.17300000000E+03 0. -1.
         -6    1    1    2    0  502 -0.38677262435E+02  0.89163806611E+02  0.19484949045E+03  0.27810328831E+03  0.17300000000E+03 0. -1.
<mgrwt>
<rscale>  2 0.19843164E+03</rscale>
<asrwt>0</asrwt>
<pdfrwt beam="1">  1       21 0.41391488E-01 0.19843164E+03</pdfrwt>
<pdfrwt beam="2">  1       21 0.52904209E-01 0.19843164E+03</pdfrwt>
<totfact> 0.18961570E+04</totfact>
</mgrwt>
</event>
<event>
 4    1  0.3973261E+000  0.1888377E+03  0.7546771E-02  0.1159514E+00
         21   -1    0    0  503  502  0.00000000000E+00  0.00000000000E+00  0.49219615547E+03  0.49219615547E+03  0.00000000000E+00 0. -1.
         21   -1    0    0  501  503 -0.00000000000E+00 -0.00000000000E+00 -0.13970226307E+03  0.13970226307E+03  0.00000000000E+00 0. -1.
          6    1    1    2  501    0 -0.34408801827E+02  0.67429348528E+02 -0.42967179843E+02  0.19366430035E+03  0.17300000000E+03 0.  1.
         -6    1    1    2    0  502  0.34408801827E+02 -0.67429348528E+02  0.39546107224E+03  0.43823411819E+03  0.17300000000E+03 0.  1.
<mgrwt>
<rscale>  2 0.18883772E+03</rscale>
<asrwt>0</asrwt>
<pdfrwt beam="1">  1       21 0.75722484E-01 0.18883772E+03</pdfrwt>
<pdfrwt beam="2">  1       21 0.21492656E-01 0.18883772E+03</pdfrwt>
<totfact> 0.31453903E+04</totfact>
</mgrwt>
</event>
<event>
 4    1  0.3973261E+000  0.2402492E+03  0.7546771E-02  0.1119627E+00
         21   -1    0    0  503  502  0.00000000000E+00  0.00000000000E+00  0.72360955071E+03  0.72360955071E+03  0.00000000000E+00 0. -1.
         21   -1    0    0  501  503 -0.00000000000E+00 -0.00000000000E+00 -0.83831187352E+02  0.83831187352E+02  0.00000000000E+00 0. -1.
          6    1    1    2  501    0 -0.63558177065E+02 -0.15411378137E+03  0.23098975963E+03  0.33328061530E+03  0.17300000000E+03 0. -1.
         -6    1    1    2    0  502  0.63558177065E+02  0.15411378137E+03  0.40878860373E+03  0.47416012276E+03  0.17300000000E+03 0. -1.
<mgrwt>
<rscale>  2 0.24024924E+03</rscale>
<asrwt>0</asrwt>
<pdfrwt beam="1">  1       21 0.11132454E+00 0.24024924E+03</pdfrwt>
<pdfrwt beam="2">  1       21 0.12897106E-01 0.24024924E+03</pdfrwt>
<totfact> 0.31891692E+04</totfact>
</mgrwt>
</event>
<event>
 4    1  0.3973261E+000  0.1832231E+03  0.7546771E-02  0.1164720E+00
         21   -1    0    0  501  502  0.00000000000E+00  0.00000000000E+00  0.30021548763E+03  0.30021548763E+03  0.00000000000E+00 0.  1.
         21   -1    0    0  502  503 -0.00000000000E+00 -0.00000000000E+00 -0.12885192678E+03  0.12885192678E+03  0.00000000000E+00 0.  1.
          6    1    1    2  501    0  0.13175941247E+02  0.58890658818E+02  0.16367478803E+03  0.24568303026E+03  0.17300000000E+03 0.  1.
         -6    1    1    2    0  503 -0.13175941247E+02 -0.58890658818E+02  0.76887728200E+01  0.18338438415E+03  0.17300000000E+03 0.  1.
<mgrwt>
<rscale>  2 0.18322313E+03</rscale>
<asrwt>0</asrwt>
<pdfrwt beam="1">  1       21 0.46186998E-01 0.18322313E+03</pdfrwt>
<pdfrwt beam="2">  1       21 0.19823373E-01 0.18322313E+03</pdfrwt>
<totfact> 0.10577620E+05</totfact>
</mgrwt>
</event>
<event>
 4    1  0.3973261E+000  0.2120686E+03  0.7546771E-02  0.1139938E+00
         21   -1    0    0  503  502  0.00000000000E+00  0.00000000000E+00  0.44122811666E+02  0.44122811666E+02  0.00000000000E+00 0.  1.
         21   -1    0    0  501  503 -0.00000000000E+00 -0.00000000000E+00 -0.10466433835E+04  0.10466433835E+04  0.00000000000E+00 0. -1.
          6    1    1    2  501    0  0.11985007325E+03 -0.26078088213E+02 -0.58945810158E+03  0.62644549664E+03  0.17300000000E+03 0. -1.
         -6    1    1    2    0  502 -0.11985007325E+03  0.26078088213E+02 -0.41306247022E+03  0.46432069849E+03  0.17300000000E+03 0.  1.
<mgrwt>
<rscale>  2 0.21206864E+03</rscale>
<asrwt>0</asrwt>
<pdfrwt beam="1">  1       21 0.67881252E-02 0.21206864E+03</pdfrwt>
<pdfrwt beam="2">  1       21 0.16102205E+00 0.21206864E+03</pdfrwt>
<totfact> 0.39002325E+04</totfact>
</mgrwt>
</event>
<event>
 4    1  0.3973261E+000  0.1844778E+03  0.7546771E-02  0.1163538E+00
         21   -1    0    0  501  502  0.00000000000E+00  0.00000000000E+00  0.14703393040E+03  0.14703393040E+03  0.00000000000E+00 0.  1.
         21   -1    0    0  502  503 -0.00000000000E+00 -0.00000000000E+00 -0.40880211235E+03  0.40880211235E+03  0.00000000000E+00 0.  1.
          6    1    1    2  501    0  0.56607403719E+02  0.29977373512E+02  0.52165888032E+02  0.19171155665E+03  0.17300000000E+03 0.  1.
         -6    1    1    2    0  503 -0.56607403719E+02 -0.29977373512E+02 -0.31393406998E+03  0.36412448610E+03  0.17300000000E+03 0.  1.
<mgrwt>
<rscale>  2 0.18447775E+03</rscale>
<asrwt>0</asrwt>
<pdfrwt beam="1">  1       21 0.22620605E-01 0.18447775E+03</pdfrwt>
<pdfrwt beam="2">  1       21 0.62892631E-01 0.18447775E+03</pdfrwt>
<totfact> 0.43051917E+04</totfact>
</mgrwt>
</event>
<event>
 4    1  0.3973261E+000  0.2075186E+03  0.7546771E-02  0.1143546E+00
         21   -1    0    0  501  502  0.00000000000E+00  0.00000000000E+00  0.12229215948E+03  0.12229215948E+03  0.00000000000E+00 0.  1.
         21   -1    0    0  502  503 -0.00000000000E+00 -0.00000000000E+00 -0.51226499320E+03  0.51226499320E+03  0.00000000000E+00 0.  1.
          6    1    1    2  501    0 -0.62980991803E+02  0.95751558750E+02 -0.17598957966E+02  0.20826351013E+03  0.17300000000E+03 0.  1.
         -6    1    1    2    0  503  0.62980991803E+02 -0.95751558750E+02 -0.37237387575E+03  0.42629364255E+03  0.17300000000E+03 0.  1.
<mgrwt>
<rscale>  2 0.20751859E+03</rscale>
<asrwt>0</asrwt>
<pdfrwt beam="1">  1       21 0.18814178E-01 0.20751859E+03</pdfrwt>
<pdfrwt beam="2">  1       21 0.78809999E-01 0.20751859E+03</pdfrwt>
<totfact> 0.36508874E+04</totfact>
</mgrwt>
</event>
<event>
 4    1  0.3973261E+000  0.1874940E+03  0.7546771E-02  0.1160741E+00
         21   -1    0    0  503  502  0.00000000000E+00  0.00000000000E+00  0.41510746849E+03  0.41510746849E+03  0.00000000000E+00 0.  1.
         21   -1    0    0  501  503 -0.00000000000E+00 -0.00000000000E+00 -0.14935654510E+03  0.14935654510E+03  0.00000000000E+00 0.  1.
          6    1    1    2  501    0  0.61321478765E+02  0.38271129567E+02 -0.52838981231E+02  0.19479723061E+03  0.17300000000E+03 0.  1.
         -6    1    1    2    0  502 -0.61321478765E+02 -0.38271129567E+02  0.31858990462E+03  0.36966678299E+03  0.17300000000E+03 0.  1.
<mgrwt>
<rscale>  2 0.18749401E+03</rscale>
<asrwt>0</asrwt>
<pdfrwt beam="1">  1       21 0.63862687E-01 0.18749401E+03</pdfrwt>
<pdfrwt beam="2">  1       21 0.22977930E-01 0.18749401E+03</pdfrwt>
<totfact> 0.40372825E+04</totfact>
</mgrwt>
</event>
<event>
 4    1  0.3973261E+000  0.2284993E+03  0.7546771E-02  0.1127701E+00
         21   -1    0    0  503  502  0.00000000000E+00  0.00000000000E+00  0.13957342748E+04  0.13957342748E+04  0.00000000000E+00 0. -1.
         21   -1    0    0  501  503 -0.00000000000E+00 -0.00000000000E+00 -0.25672236699E+03  0.25672236699E+03  0.00000000000E+00 0.  1.
          6    1    1    2  501    0 -0.13602225559E+03  0.61488747299E+02 -0.19415670833E+03  0.29984787384E+03  0.17300000000E+03 0.  1.
         -6    1    1    2    0  502  0.13602225559E+03 -0.61488747299E+02  0.13331686161E+04  0.13526087679E+04  0.17300000000E+03 0. -1.
<mgrwt>
<rscale>  2 0.22849928E+03</rscale>
<asrwt>0</asrwt>
<pdfrwt beam="1">  1       21 0.21472835E+00 0.22849928E+03</pdfrwt>
<pdfrwt beam="2">  1       21 0.39495750E-01 0.22849928E+03</pdfrwt>
<totfact> 0.64337865E+02</totfact>
</mgrwt>
</event>
<event>
 4    1  0.3973261E+000  0.2878125E+03  0.7546771E-02  0.1091497E+00
         21   -1    0    0  503  502  0.00000000000E+00  0.00000000000E+00  0.19925732193E+03  0.19925732193E+03  0.00000000000E+00 0.  1.
         21   -1    0    0  501  503 -0.00000000000E+00 -0.00000000000E+00 -0.57912135222E+03  0.57912135222E+03  0.00000000000E+00 0.  1.
          6    1    1    2  501    0  0.18259452321E+03 -0.13987955186E+03 -0.39665971127E+03  0.49007649962E+03  0.17300000000E+03 0.  1.
         -6    1    1    2    0  502 -0.18259452321E+03  0.13987955186E+03  0.16795680981E+02  0.28830217452E+03  0.17300000000E+03 0.  1.
<mgrwt>
<rscale>  2 0.28781252E+03</rscale>
<asrwt>0</asrwt>
<pdfrwt beam="1">  1       21 0.30654973E-01 0.28781252E+03</pdfrwt>
<pdfrwt beam="2">  1       21 0.89095592E-01 0.28781252E+03</pdfrwt>
<totfact> 0.10396345E+04</totfact>
</mgrwt>
</event>
<event>
 4    1  0.3973261E+000  0.2863863E+03  0.7546771E-02  0.1092251E+00
         21   -1    0    0  501  502  0.00000000000E+00  0.00000000000E+00  0.56887723134E+02  0.56887723134E+02  0.00000000000E+00 0.  1.
         21   -1    0    0  502  503 -0.00000000000E+00 -0.00000000000E+00 -0.14755856072E+04  0.14755856072E+04  0.00000000000E+00 0. -1.
          6    1    1    2  501    0 -0.22820318800E+03  0.33756478662E+01 -0.59329597937E+03  0.65879982479E+03  0.17300000000E+03 0. -1.
         -6    1    1    2    0  503  0.22820318800E+03 -0.33756478662E+01 -0.82540190474E+03  0.87367350559E+03  0.17300000000E+03 0.  1.
<mgrwt>
<rscale>  2 0.28638626E+03</rscale>
<asrwt>0</asrwt>
<pdfrwt beam="1">  1       21 0.87519578E-02 0.28638626E+03</pdfrwt>
<pdfrwt beam="2">  1       21 0.22701316E+00 0.28638626E+03</pdfrwt>
<totfact> 0.87090057E+03</totfact>
</mgrwt>
</event>
<event>
 4    1  0.3973261E+000  0.2622009E+03  0.7546771E-02  0.1105828E+00
         21   -1    0    0  501  502  0.00000000000E+00  0.00000000000E+00  0.13480754296E+03  0.13480754296E+03  0.00000000000E+00 0. -1.
         21   -1    0    0  502  503 -0.00000000000E+00 -0.00000000000E+00 -0.58748201651E+03  0.58748201651E+03  0.00000000000E+00 0. -1.
          6    1    1    2  501    0 -0.12705869602E+03  0.15058687819E+03 -0.95166476870E+02  0.27893723028E+03  0.17300000000E+03 0. -1.
         -6    1    1    2    0  503  0.12705869602E+03 -0.15058687819E+03 -0.35750799667E+03  0.44335232919E+03  0.17300000000E+03 0. -1.
<mgrwt>
<rscale>  2 0.26220092E+03</rscale>
<asrwt>0</asrwt>
<pdfrwt beam="1">  1       21 0.20739622E-01 0.26220092E+03</pdfrwt>
<pdfrwt beam="2">  1       21 0.90381848E-01 0.26220092E+03</pdfrwt>
<totfact> 0.21616287E+04</totfact>
</mgrwt>
</event>
<event>
 4    1  0.3973261E+000  0.2102662E+03  0.7546771E-02  0.1141355E+00
         21   -1    0    0  503  502  0.00000000000E+00  0.00000000000E+00  0.80837768419E+02  0.80837768419E+02  0.00000000000E+00 0.  1.
         21   -1    0    0  501  503 -0.00000000000E+00 -0.00000000000E+00 -0.57607956292E+03  0.57607956292E+03  0.00000000000E+00 0.  1.
          6    1    1    2  501    0 -0.79265966969E+02 -0.89441407032E+02 -0.17372439742E+03  0.27274901479E+03  0.17300000000E+03 0.  1.
         -6    1    1    2    0  502  0.79265966969E+02  0.89441407032E+02 -0.32151739708E+03  0.38416831654E+03  0.17300000000E+03 0.  1.
<mgrwt>
<rscale>  2 0.21026616E+03</rscale>
<asrwt>0</asrwt>
<pdfrwt beam="1">  1       21 0.12436580E-01 0.21026616E+03</pdfrwt>
<pdfrwt beam="2">  1       21 0.88627625E-01 0.21026616E+03</pdfrwt>
<totfact> 0.59413399E+04</totfact>
</mgrwt>
</event>
<event>
 4    1  0.3973261E+000  0.2019708E+03  0.7546771E-02  0.1148087E+00
         21   -1    0    0  503  502  0.00000000000E+00  0.00000000000E+00  0.43015134417E+03  0.43015134417E+03  0.00000000000E+00 0. -1.
         21   -1    0    0  501  503 -0.00000000000E+00 -0.00000000000E+00 -0.19321869971E+03  0.19321869971E+03  0.00000000000E+00 0. -1.
          6    1    1    2  501    0 -0.93332338815E+02 -0.46392650701E+02 -0.10394612228E+03  0.22714973001E+03  0.17300000000E+03 0. -1.
         -6    1    1    2    0  502  0.93332338815E+02  0.46392650701E+02  0.34087876674E+03  0.39622031387E+03  0.17300000000E+03 0. -1.
<mgrwt>
<rscale>  2 0.20197080E+03</rscale>
<asrwt>0</asrwt>
<pdfrwt beam="1">  1       21 0.66177129E-01 0.20197080E+03</pdfrwt>
<pdfrwt beam="2">  1       21 0.29725954E-01 0.20197080E+03</pdfrwt>
<totfact> 0.22612262E+04</totfact>
</mgrwt>
</event>
<event>
 4    1  0.3973261E+000  0.2167127E+03  0.7546771E-02  0.1136358E+00
         21   -1    0    0  503  502  0.00000000000E+00  0.00000000000E+00  0.24658299189E+02  0.24658299189E+02  0.00000000000E+00 0.  1.
         21   -1    0    0  501  503 -0.00000000000E+00 -0.00000000000E+00 -0.21273473251E+04  0.21273473251E+04  0.00000000000E+00 0. -1.
          6    1    1    2  501    0 -0.95756635537E+02 -0.88690813853E+02 -0.13995155675E+04  0.14161949786E+04  0.17300000000E+03 0. -1.
         -6    1    1    2    0  502  0.95756635537E+02  0.88690813853E+02 -0.70317345847E+03  0.73581064575E+03  0.17300000000E+03 0.  1.
<mgrwt>
<rscale>  2 0.21671270E+03</rscale>
<asrwt>0</asrwt>
<pdfrwt beam="1">  1       21 0.37935852E-02 0.21671270E+03</pdfrwt>
<pdfrwt beam="2">  1       21 0.32728414E+00 0.21671270E+03</pdfrwt>
<totfact> 0.99064005E+03</totfact>
</mgrwt>
</event>
<event>
 4    1  0.3973261E+000  0.1927824E+03  0.7546771E-02  0.1155975E+00
         21   -1    0    0  503  502  0.00000000000E+00  0.00000000000E+00  0.12493156190E+03  0.12493156190E+03  0.00000000000E+00 0. -1.
         21   -1    0    0  501  503 -0.00000000000E+00 -0.00000000000E+00 -0.48821829188E+03  0.48821829188E+03  0.00000000000E+00 0.  1.
          6    1    1    2  501    0  0.46216585902E+02 -0.71414972158E+02 -0.37326504159E+03  0.42010934568E+03  0.17300000000E+03 0.  1.
         -6    1    1    2    0  502 -0.46216585902E+02  0.71414972158E+02  0.99783116037E+01  0.19304050809E+03  0.17300000000E+03 0. -1.
<mgrwt>
<rscale>  2 0.19278244E+03</rscale>
<asrwt>0</asrwt>
<pdfrwt beam="1">  1       21 0.19220241E-01 0.19278244E+03</pdfrwt>
<pdfrwt beam="2">  1       21 0.75110504E-01 0.19278244E+03</pdfrwt>
<totfact> 0.39395134E+04</totfact>
</mgrwt>
</event>
<event>
 4    1  0.3973261E+000  0.1782963E+03  0.7546771E-02  0.1169462E+00
         21   -1    0    0  501  502  0.00000000000E+00  0.00000000000E+00  0.12790347650E+03  0.12790347650E+03  0.00000000000E+00 0. -1.
         21   -1    0    0  502  503 -0.00000000000E+00 -0.00000000000E+00 -0.50801639525E+03  0.50801639525E+03  0.00000000000E+00 0. -1.
          6    1    1    2  501    0  0.42115357281E+02 -0.93200529320E+01  0.37180833807E+02  0.18213176853E+03  0.17300000000E+03 0. -1.
         -6    1    1    2    0  503 -0.42115357281E+02  0.93200529320E+01 -0.41729375255E+03  0.45378810322E+03  0.17300000000E+03 0. -1.
<mgrwt>
<rscale>  2 0.17829629E+03</rscale>
<asrwt>0</asrwt>
<pdfrwt beam="1">  1       21 0.19677458E-01 0.17829629E+03</pdfrwt>
<pdfrwt beam="2">  1       21 0.78156369E-01 0.17829629E+03</pdfrwt>
<totfact> 0.34757065E+04</totfact>
</mgrwt>
</event>
<event>
 4    1  0.3973261E+000  0.2250982E+03  0.7546771E-02  0.1130138E+00
         21   -1    0    0  501  502  0.00000000000E+00  0.00000000000E+00  0.80811418839E+03  0.80811418839E+03  0.00000000000E+00 0.  1.
         21   -1    0    0  502  503 -0.00000000000E+00 -0.00000000000E+00 -0.76634809915E+02  0.76634809915E+02  0.00000000000E+00 0.  1.
          6    1    1    2  501    0 -0.13835028509E+03  0.39992632680E+02  0.55437319726E+03  0.59833005431E+03  0.17300000000E+03 0.  1.
         -6    1    1    2    0  503  0.13835028509E+03 -0.39992632680E+02  0.17710618122E+03  0.28641894400E+03  0.17300000000E+03 0.  1.
<mgrwt>
<rscale>  2 0.22509823E+03</rscale>
<asrwt>0</asrwt>
<pdfrwt beam="1">  1       21 0.12432525E+00 0.22509823E+03</pdfrwt>
<pdfrwt beam="2">  1       21 0.11789971E-01 0.22509823E+03</pdfrwt>
<totfact> 0.28741933E+04</totfact>
</mgrwt>
</event>
<event>
 4    1  0.3973261E+000  0.1980977E+03  0.7546771E-02  0.1151354E+00
         21   -1    0    0  501  502  0.00000000000E+00  0.00000000000E+00  0.67542043142E+02  0.67542043142E+02  0.00000000000E+00 0. -1.
         21   -1    0    0  502  503 -0.00000000000E+00 -0.00000000000E+00 -0.66582035245E+03  0.66582035245E+03  0.00000000000E+00 0. -1.
          6    1    1    2  501    0 -0.32947730214E+02 -0.90709118127E+02 -0.16827191022E+03  0.25991947370E+03  0.17300000000E+03 0. -1.
         -6    1    1    2    0  503  0.32947730214E+02  0.90709118127E+02 -0.43000639908E+03  0.47344292189E+03  0.17300000000E+03 0. -1.
<mgrwt>
<rscale>  2 0.19809770E+03</rscale>
<asrwt>0</asrwt>
<pdfrwt beam="1">  1       21 0.10391084E-01 0.19809770E+03</pdfrwt>
<pdfrwt beam="2">  1       21 0.10243390E+00 0.19809770E+03</pdfrwt>
<totfact> 0.58620113E+04</totfact>
</mgrwt>
</event>
<event>
 4    1  0.3973261E+000  0.2284541E+03  0.7546771E-02  0.1127733E+00
         21   -1    0    0  503  502  0.00000000000E+00  0.00000000000E+00  0.14602934038E+04  0.14602934038E+04  0.00000000000E+00 0.  1.
         21   -1    0    0  501  503 -0.00000000000E+00 -0.00000000000E+00 -0.45185315072E+02  0.45185315072E+02  0.00000000000E+00 0.  1.
          6    1    1    2  501    0  0.14849664545E+03  0.14526717860E+02  0.36340386095E+03  0.42924776691E+03  0.17300000000E+03 0.  1.
         -6    1    1    2    0  502 -0.14849664545E+03 -0.14526717860E+02  0.10517042278E+04  0.10762309519E+04  0.17300000000E+03 0.  1.
<mgrwt>
<rscale>  2 0.22845411E+03</rscale>
<asrwt>0</asrwt>
<pdfrwt beam="1">  1       21 0.22466049E+00 0.22845411E+03</pdfrwt>
<pdfrwt beam="2">  1       21 0.69515881E-02 0.22845411E+03</pdfrwt>
<totfact> 0.14012152E+04</totfact>
</mgrwt>
</event>
<event>
 4    1  0.3973261E+000  0.1806187E+03  0.7546771E-02  0.1167206E+00
         21   -1    0    0  503  502  0.00000000000E+00  0.00000000000E+00  0.17558992202E+04  0.17558992202E+04  0.00000000000E+00 0. -1.
         21   -1    0    0  501  503 -0.00000000000E+00 -0.00000000000E+00 -0.42386961576E+02  0.42386961576E+02  0.00000000000E+00 0. -1.
          6    1    1    2  501    0 -0.41471559611E+02  0.31212330413E+02  0.18289177248E+03  0.25704571630E+03  0.17300000000E+03 0. -1.
         -6    1    1    2    0  502  0.41471559611E+02 -0.31212330413E+02  0.15306204861E+04  0.15412404655E+04  0.17300000000E+03 0. -1.
<mgrwt>
<rscale>  2 0.18061866E+03</rscale>
<asrwt>0</asrwt>
<pdfrwt beam="1">  1       21 0.27013829E+00 0.18061866E+03</pdfrwt>
<pdfrwt beam="2">  1       21 0.65210724E-02 0.18061866E+03</pdfrwt>
<totfact> 0.87826974E+03</totfact>
</mgrwt>
</event>
<event>
 4    1  0.3973261E+000  0.3099013E+03  0.7546771E-02  0.1080393E+00
         21   -1    0    0  503  502  0.00000000000E+00  0.00000000000E+00  0.92849695679E+02  0.92849695679E+02  0.00000000000E+00 0.  1.
         21   -1    0    0  501  503 -0.00000000000E+00 -0.00000000000E+00 -0.10853058964E+04  0.10853058964E+04  0.00000000000E+00 0. -1.
          6    1    1    2  501    0  0.17686351125E+03  0.18662564799E+03 -0.62387351130E+03  0.69660389907E+03  0.17300000000E+03 0.  1.
         -6    1    1    2    0  502 -0.17686351125E+03 -0.18662564799E+03 -0.36858268943E+03  0.48155169302E+03  0.17300000000E+03 0. -1.
<mgrwt>
<rscale>  2 0.30990133E+03</rscale>
<asrwt>0</asrwt>
<pdfrwt beam="1">  1       21 0.14284569E-01 0.30990133E+03</pdfrwt>
<pdfrwt beam="2">  1       21 0.16697014E+00 0.30990133E+03</pdfrwt>
<totfact> 0.89203586E+03</totfact>
</mgrwt>
</event>
<event>
 4    1  0.3973261E+000  0.2015275E+03  0.7546771E-02  0.1148457E+00
         21   -1    0    0  501  502  0.00000000000E+00  0.00000000000E+00  0.49878278915E+03  0.49878278915E+03  0.00000000000E+00 0. -1.
         21   -1    0    0  502  503 -0.00000000000E+00 -0.00000000000E+00 -0.49167686445E+03  0.49167686445E+03  0.00000000000E+00 0. -1.
          6    1    1    2  501    0  0.57581756264E+02  0.85840948318E+02  0.45592135619E+03  0.49847528534E+03  0.17300000000E+03 0. -1.
         -6    1    1    2    0  503 -0.57581756264E+02 -0.85840948318E+02 -0.44881543150E+03  0.49198436826E+03  0.17300000000E+03 0. -1.
<mgrwt>
<rscale>  2 0.20152748E+03</rscale>
<asrwt>0</asrwt>
<pdfrwt beam="1">  1       21 0.76735813E-01 0.20152748E+03</pdfrwt>
<pdfrwt beam="2">  1       21 0.75642595E-01 0.20152748E+03</pdfrwt>
<totfact> 0.23380148E+03</totfact>
</mgrwt>
</event>
<event>
 4    1  0.3973261E+000  0.1994686E+03  0.7546771E-02  0.1150188E+00
         21   -1    0    0  503  502  0.00000000000E+00  0.00000000000E+00  0.72451160402E+02  0.72451160402E+02  0.00000000000E+00 0.  1.
         21   -1    0    0  501  503 -0.00000000000E+00 -0.00000000000E+00 -0.57981770253E+03  0.57981770253E+03  0.00000000000E+00 0. -1.
          6    1    1    2  501    0 -0.34943819182E+02 -0.92938918522E+02 -0.32866894572E+03  0.38446194734E+03  0.17300000000E+03 0. -1.
         -6    1    1    2    0  502  0.34943819182E+02  0.92938918522E+02 -0.17869759641E+03  0.26780691559E+03  0.17300000000E+03 0.  1.
<mgrwt>
<rscale>  2 0.19946858E+03</rscale>
<asrwt>0</asrwt>
<pdfrwt beam="1">  1       21 0.11146332E-01 0.19946858E+03</pdfrwt>
<pdfrwt beam="2">  1       21 0.89202728E-01 0.19946858E+03</pdfrwt>
<totfact> 0.71562684E+04</totfact>
</mgrwt>
</event>
<event>
 4    1  0.3973261E+000  0.1788618E+03  0.7546771E-02  0.1168909E+00
         21   -1    0    0  503  502  0.00000000000E+00  0.00000000000E+00  0.76239104538E+03  0.76239104538E+03  0.00000000000E+00 0.  1.
         21   -1    0    0  501  503 -0.00000000000E+00 -0.00000000000E+00 -0.44032391042E+02  0.44032391042E+02  0.00000000000E+00 0. -1.
          6    1    1    2  501    0 -0.10671351209E+02  0.44143700636E+02  0.27174928621E+03  0.32532940015E+03  0.17300000000E+03 0. -1.
         -6    1    1    2    0  502  0.10671351209E+02 -0.44143700636E+02  0.44660936813E+03  0.48109403628E+03  0.17300000000E+03 0.  1.
<mgrwt>
<rscale>  2 0.17886180E+03</rscale>
<asrwt>0</asrwt>
<pdfrwt beam="1">  1       21 0.11729092E+00 0.17886180E+03</pdfrwt>
<pdfrwt beam="2">  1       21 0.67742146E-02 0.17886180E+03</pdfrwt>
<totfact> 0.89978017E+04</totfact>
</mgrwt>
</event>
<event>
 4    1  0.3973261E+000  0.1871117E+03  0.7546771E-02  0.1161093E+00
         21   -1    0    0  503  502  0.00000000000E+00  0.00000000000E+00  0.80962814989E+02  0.80962814989E+02  0.00000000000E+00 0. -1.
         21   -1    0    0  501  503 -0.00000000000E+00 -0.00000000000E+00 -0.53530557844E+03  0.53530557844E+03  0.00000000000E+00 0.  1.
          6    1    1    2  501    0  0.71285180093E+02  0.44913531744E+00 -0.36225242788E+03  0.40772245478E+03  0.17300000000E+03 0.  1.
         -6    1    1    2    0  502 -0.71285180093E+02 -0.44913531744E+00 -0.92090335573E+02  0.20854593865E+03  0.17300000000E+03 0. -1.
<mgrwt>
<rscale>  2 0.18711167E+03</rscale>
<asrwt>0</asrwt>
<pdfrwt beam="1">  1       21 0.12455818E-01 0.18711167E+03</pdfrwt>
<pdfrwt beam="2">  1       21 0.82354702E-01 0.18711167E+03</pdfrwt>
<totfact> 0.70862036E+04</totfact>
</mgrwt>
</event>
<event>
 4    1  0.3973261E+000  0.1845830E+03  0.7546771E-02  0.1163440E+00
         21   -1    0    0  503  502  0.00000000000E+00  0.00000000000E+00  0.20904341895E+03  0.20904341895E+03  0.00000000000E+00 0. -1.
         21   -1    0    0  501  503 -0.00000000000E+00 -0.00000000000E+00 -0.16882078847E+03  0.16882078847E+03  0.00000000000E+00 0. -1.
          6    1    1    2  501    0 -0.36587404683E+02 -0.52945741453E+02 -0.15016554237E+02  0.18519283631E+03  0.17300000000E+03 0. -1.
         -6    1    1    2    0  502  0.36587404683E+02  0.52945741453E+02  0.55239184718E+02  0.19267137112E+03  0.17300000000E+03 0. -1.
<mgrwt>
<rscale>  2 0.18458302E+03</rscale>
<asrwt>0</asrwt>
<pdfrwt beam="1">  1       21 0.32160526E-01 0.18458302E+03</pdfrwt>
<pdfrwt beam="2">  1       21 0.25972429E-01 0.18458302E+03</pdfrwt>
<totfact> 0.13131129E+05</totfact>
</mgrwt>
</event>
<event>
 4    1  0.3973261E+000  0.1847468E+03  0.7546771E-02  0.1163287E+00
         21   -1    0    0  503  502  0.00000000000E+00  0.00000000000E+00  0.95924799845E+02  0.95924799845E+02  0.00000000000E+00 0.  1.
         21   -1    0    0  501  503 -0.00000000000E+00 -0.00000000000E+00 -0.40925375383E+03  0.40925375383E+03  0.00000000000E+00 0. -1.
          6    1    1    2  501    0 -0.39981963135E+01 -0.64702437425E+02 -0.24793921984E+03  0.30920098273E+03  0.17300000000E+03 0. -1.
         -6    1    1    2    0  502  0.39981963135E+01  0.64702437425E+02 -0.65389734137E+02  0.19597757094E+03  0.17300000000E+03 0.  1.
<mgrwt>
<rscale>  2 0.18474683E+03</rscale>
<asrwt>0</asrwt>
<pdfrwt beam="1">  1       21 0.14757662E-01 0.18474683E+03</pdfrwt>
<pdfrwt beam="2">  1       21 0.62962115E-01 0.18474683E+03</pdfrwt>
<totfact> 0.94665367E+04</totfact>
</mgrwt>
</event>
<event>
 4    1  0.3973261E+000  0.1994541E+03  0.7546771E-02  0.1150200E+00
         21   -1    0    0  503  502  0.00000000000E+00  0.00000000000E+00  0.14587288534E+02  0.14587288534E+02  0.00000000000E+00 0. -1.
         21   -1    0    0  501  503 -0.00000000000E+00 -0.00000000000E+00 -0.34044295907E+04  0.34044295907E+04  0.00000000000E+00 0. -1.
          6    1    1    2  501    0 -0.26794889700E+02  0.95577069455E+02 -0.24574008148E+04  0.24654818408E+04  0.17300000000E+03 0. -1.
         -6    1    1    2    0  502  0.26794889700E+02 -0.95577069455E+02 -0.93244148731E+03  0.95353503846E+03  0.17300000000E+03 0. -1.
<mgrwt>
<rscale>  2 0.19945411E+03</rscale>
<asrwt>0</asrwt>
<pdfrwt beam="1">  1       21 0.22441997E-02 0.19945411E+03</pdfrwt>
<pdfrwt beam="2">  1       21 0.52375807E+00 0.19945411E+03</pdfrwt>
<totfact> 0.12926156E+03</totfact>
</mgrwt>
</event>
<event>
 4    1  0.3973261E+000  0.1908276E+03  0.7546771E-02  0.1157717E+00
         21   -1    0    0  503  502  0.00000000000E+00  0.00000000000E+00  0.10026457606E+03  0.10026457606E+03  0.00000000000E+00 0.  1.
         21   -1    0    0  501  503 -0.00000000000E+00 -0.00000000000E+00 -0.10143001481E+04  0.10143001481E+04  0.00000000000E+00 0.  1.
          6    1    1    2  501    0  0.64581485529E+02  0.48118646037E+02 -0.90351527026E+03  0.92344735419E+03  0.17300000000E+03 0.  1.
         -6    1    1    2    0  502 -0.64581485529E+02 -0.48118646037E+02 -0.10520301821E+02  0.19111737001E+03  0.17300000000E+03 0.  1.
<mgrwt>
<rscale>  2 0.19082760E+03</rscale>
<asrwt>0</asrwt>
<pdfrwt beam="1">  1       21 0.15425319E-01 0.19082760E+03</pdfrwt>
<pdfrwt beam="2">  1       21 0.15604618E+00 0.19082760E+03</pdfrwt>
<totfact> 0.10049587E+04</totfact>
</mgrwt>
</event>
<event>
 4    1  0.3973261E+000  0.2199636E+03  0.7546771E-02  0.1133910E+00
         21   -1    0    0  501  502  0.00000000000E+00  0.00000000000E+00  0.11469068614E+04  0.11469068614E+04  0.00000000000E+00 0. -1.
         21   -1    0    0  502  503 -0.00000000000E+00 -0.00000000000E+00 -0.55407282089E+02  0.55407282089E+02  0.00000000000E+00 0.  1.
          6    1    1    2  501    0  0.12057274919E+03  0.62587690142E+02  0.83940169068E+03  0.86774374392E+03  0.17300000000E+03 0. -1.
         -6    1    1    2    0  503 -0.12057274919E+03 -0.62587690142E+02  0.25209788859E+03  0.33457039952E+03  0.17300000000E+03 0.  1.
<mgrwt>
<rscale>  2 0.21996365E+03</rscale>
<asrwt>0</asrwt>
<pdfrwt beam="1">  1       21 0.17644719E+00 0.21996365E+03</pdfrwt>
<pdfrwt beam="2">  1       21 0.85241981E-02 0.21996365E+03</pdfrwt>
<totfact> 0.20287352E+04</totfact>
</mgrwt>
</event>
<event>
 4    1  0.3973261E+000  0.2216849E+03  0.7546771E-02  0.1132633E+00
         21   -1    0    0  501  502  0.00000000000E+00  0.00000000000E+00  0.42675605336E+02  0.42675605336E+02  0.00000000000E+00 0.  1.
         21   -1    0    0  502  503 -0.00000000000E+00 -0.00000000000E+00 -0.16806441167E+04  0.16806441167E+04  0.00000000000E+00 0.  1.
          6    1    1    2  501    0 -0.10857093267E+03 -0.86183340357E+02 -0.33553192757E+03  0.40215157589E+03  0.17300000000E+03 0.  1.
         -6    1    1    2    0  503  0.10857093267E+03  0.86183340357E+02 -0.13024365838E+04  0.13211681461E+04  0.17300000000E+03 0.  1.
<mgrwt>
<rscale>  2 0.22168495E+03</rscale>
<asrwt>0</asrwt>
<pdfrwt beam="1">  1       21 0.65654773E-02 0.22168495E+03</pdfrwt>
<pdfrwt beam="2">  1       21 0.25856065E+00 0.22168495E+03</pdfrwt>
<totfact> 0.97416938E+03</totfact>
</mgrwt>
</event>
<event>
 4    1  0.3973261E+000  0.1923424E+03  0.7546771E-02  0.1156365E+00
         21   -1    0    0  501  502  0.00000000000E+00  0.00000000000E+00  0.18005711197E+03  0.18005711197E+03  0.00000000000E+00 0.  1.
         21   -1    0    0  502  503 -0.00000000000E+00 -0.00000000000E+00 -0.24276451946E+03  0.24276451946E+03  0.00000000000E+00 0.  1.
          6    1    1    2  501    0 -0.75567190649E+02  0.36826480424E+02  0.51513214309E+02  0.19912107174E+03  0.17300000000E+03 0.  1.
         -6    1    1    2    0  503  0.75567190649E+02 -0.36826480424E+02 -0.11422062179E+03  0.22370055969E+03  0.17300000000E+03 0.  1.
<mgrwt>
<rscale>  2 0.19234238E+03</rscale>
<asrwt>0</asrwt>
<pdfrwt beam="1">  1       21 0.27701094E-01 0.19234238E+03</pdfrwt>
<pdfrwt beam="2">  1       21 0.37348388E-01 0.19234238E+03</pdfrwt>
<totfact> 0.86018938E+04</totfact>
</mgrwt>
</event>
<event>
 4    1  0.3973261E+000  0.3452718E+03  0.7546771E-02  0.1064573E+00
         21   -1    0    0  501  502  0.00000000000E+00  0.00000000000E+00  0.77137234333E+03  0.77137234333E+03  0.00000000000E+00 0. -1.
         21   -1    0    0  502  503 -0.00000000000E+00 -0.00000000000E+00 -0.29720856814E+03  0.29720856814E+03  0.00000000000E+00 0.  1.
          6    1    1    2  501    0 -0.14917685110E+02  0.29843099141E+03  0.60725221840E+03  0.69854695670E+03  0.17300000000E+03 0. -1.
         -6    1    1    2    0  503  0.14917685110E+02 -0.29843099141E+03 -0.13308844321E+03  0.37003395477E+03  0.17300000000E+03 0.  1.
<mgrwt>
<rscale>  2 0.34527177E+03</rscale>
<asrwt>0</asrwt>
<pdfrwt beam="1">  1       21 0.11867267E+00 0.34527177E+03</pdfrwt>
<pdfrwt beam="2">  1       21 0.45724395E-01 0.34527177E+03</pdfrwt>
<totfact> 0.22456220E+03</totfact>
</mgrwt>
</event>
<event>
 4    1  0.3973261E+000  0.2031835E+03  0.7546771E-02  0.1147081E+00
         21   -1    0    0  501  502  0.00000000000E+00  0.00000000000E+00  0.69378562832E+03  0.69378562832E+03  0.00000000000E+00 0. -1.
         21   -1    0    0  502  503 -0.00000000000E+00 -0.00000000000E+00 -0.61202718530E+02  0.61202718530E+02  0.00000000000E+00 0. -1.
          6    1    1    2  501    0  0.25838405513E+02  0.10337747270E+03  0.25341435016E+03  0.32481126508E+03  0.17300000000E+03 0. -1.
         -6    1    1    2    0  503 -0.25838405513E+02 -0.10337747270E+03  0.37916855963E+03  0.43017708177E+03  0.17300000000E+03 0. -1.
<mgrwt>
<rscale>  2 0.20318348E+03</rscale>
<asrwt>0</asrwt>
<pdfrwt beam="1">  1       21 0.10673624E+00 0.20318348E+03</pdfrwt>
<pdfrwt beam="2">  1       21 0.94158034E-02 0.20318348E+03</pdfrwt>
<totfact> 0.63046765E+04</totfact>
</mgrwt>
</event>
<event>
 4    1  0.3973261E+000  0.2297436E+03  0.7546771E-02  0.1126820E+00
         21   -1    0    0  503  502  0.00000000000E+00  0.00000000000E+00  0.76335316704E+02  0.76335316704E+02  0.00000000000E+00 0.  1.
         21   -1    0    0  501  503 -0.00000000000E+00 -0.00000000000E+00 -0.10265907245E+04  0.10265907245E+04  0.00000000000E+00 0.  1.
          6    1    1    2  501    0 -0.13276302042E+03  0.72298766731E+02 -0.79021484508E+03  0.82293476816E+03  0.17300000000E+03 0.  1.
         -6    1    1    2    0  502  0.13276302042E+03 -0.72298766731E+02 -0.16004056269E+03  0.27999127302E+03  0.17300000000E+03 0.  1.
<mgrwt>
<rscale>  2 0.22974362E+03</rscale>
<asrwt>0</asrwt>
<pdfrwt beam="1">  1       21 0.11743896E-01 0.22974362E+03</pdfrwt>
<pdfrwt beam="2">  1       21 0.15793702E+00 0.22974362E+03</pdfrwt>
<totfact> 0.15500942E+04</totfact>
</mgrwt>
</event>
<event>
 4    1  0.3973261E+000  0.1757127E+03  0.7546771E-02  0.1172018E+00
         21   -1    0    0  503  502  0.00000000000E+00  0.00000000000E+00  0.85540131560E+02  0.85540131560E+02  0.00000000000E+00 0.  1.
         21   -1    0    0  501  503 -0.00000000000E+00 -0.00000000000E+00 -0.64288396943E+03  0.64288396943E+03  0.00000000000E+00 0.  1.
          6    1    1    2  501    0  0.15198605921E+01 -0.30719056466E+02 -0.51986696262E+03  0.54875917234E+03  0.17300000000E+03 0.  1.
         -6    1    1    2    0  502 -0.15198605921E+01  0.30719056466E+02 -0.37476875247E+02  0.17966492864E+03  0.17300000000E+03 0.  1.
<mgrwt>
<rscale>  2 0.17571275E+03</rscale>
<asrwt>0</asrwt>
<pdfrwt beam="1">  1       21 0.13160020E-01 0.17571275E+03</pdfrwt>
<pdfrwt beam="2">  1       21 0.98905225E-01 0.17571275E+03</pdfrwt>
<totfact> 0.42271928E+04</totfact>
</mgrwt>
</event>
<event>
 4    1  0.3973261E+000  0.2129154E+03  0.7546771E-02  0.1139278E+00
         21   -1    0    0  501  502  0.00000000000E+00  0.00000000000E+00  0.84700811505E+02  0.84700811505E+02  0.00000000000E+00 0.  1.
         21   -1    0    0  502  503 -0.00000000000E+00 -0.00000000000E+00 -0.63085329569E+03  0.63085329569E+03  0.00000000000E+00 0.  1.
          6    1    1    2  501    0  0.94856059671E+02 -0.80039259236E+02 -0.13377041096E+03  0.25145074652E+03  0.17300000000E+03 0.  1.
         -6    1    1    2    0  503 -0.94856059671E+02  0.80039259236E+02 -0.41238207322E+03  0.46410336068E+03  0.17300000000E+03 0.  1.
<mgrwt>
<rscale>  2 0.21291537E+03</rscale>
<asrwt>0</asrwt>
<pdfrwt beam="1">  1       21 0.13030895E-01 0.21291537E+03</pdfrwt>
<pdfrwt beam="2">  1       21 0.97054349E-01 0.21291537E+03</pdfrwt>
<totfact> 0.44125458E+04</totfact>
</mgrwt>
</event>
<event>
 4    1  0.3973261E+000  0.1829035E+03  0.7546771E-02  0.1165022E+00
         21   -1    0    0  501  502  0.00000000000E+00  0.00000000000E+00  0.19391541062E+03  0.19391541062E+03  0.00000000000E+00 0.  1.
         21   -1    0    0  502  503 -0.00000000000E+00 -0.00000000000E+00 -0.17259350127E+03  0.17259350127E+03  0.00000000000E+00 0.  1.
          6    1    1    2  501    0 -0.29457573421E+02 -0.51545558627E+02  0.14520597051E+02  0.18347899331E+03  0.17300000000E+03 0.  1.
         -6    1    1    2    0  503  0.29457573421E+02  0.51545558627E+02  0.68013122956E+01  0.18302991858E+03  0.17300000000E+03 0.  1.
<mgrwt>
<rscale>  2 0.18290351E+03</rscale>
<asrwt>0</asrwt>
<pdfrwt beam="1">  1       21 0.29833140E-01 0.18290351E+03</pdfrwt>
<pdfrwt beam="2">  1       21 0.26552846E-01 0.18290351E+03</pdfrwt>
<totfact> 0.14584395E+05</totfact>
</mgrwt>
</event>
<event>
 4    1  0.3973261E+000  0.1840932E+03  0.7546771E-02  0.1163899E+00
         21   -1    0    0  503  502  0.00000000000E+00  0.00000000000E+00  0.15436967107E+03  0.15436967107E+03  0.00000000000E+00 0.  1.
         21   -1    0    0  501  503 -0.00000000000E+00 -0.00000000000E+00 -0.67370624614E+03  0.67370624614E+03  0.00000000000E+00 0.  1.
          6    1    1    2  501    0  0.35181016831E+02  0.52188255989E+02 -0.59961613648E+03  0.62723984977E+03  0.17300000000E+03 0.  1.
         -6    1    1    2    0  502 -0.35181016831E+02 -0.52188255989E+02  0.80279561411E+02  0.20083606745E+03  0.17300000000E+03 0.  1.
<mgrwt>
<rscale>  2 0.18409323E+03</rscale>
<asrwt>0</asrwt>
<pdfrwt beam="1">  1       21 0.23749180E-01 0.18409323E+03</pdfrwt>
<pdfrwt beam="2">  1       21 0.10364712E+00 0.18409323E+03</pdfrwt>
<totfact> 0.12661362E+04</totfact>
</mgrwt>
</event>
<event>
 4    1  0.3973261E+000  0.2800236E+03  0.7546771E-02  0.1095676E+00
         21   -1    0    0  501  502  0.00000000000E+00  0.00000000000E+00  0.35119937451E+04  0.35119937451E+04  0.00000000000E+00 0. -1.
         21   -1    0    0  502  503 -0.00000000000E+00 -0.00000000000E+00 -0.40711941063E+02  0.40711941063E+02  0.00000000000E+00 0.  1.
          6    1    1    2  501    0  0.20096413246E+03  0.89986908821E+02  0.29293438983E+04  0.29426975551E+04  0.17300000000E+03 0. -1.
         -6    1    1    2    0  503 -0.20096413246E+03 -0.89986908821E+02  0.54193790581E+03  0.61000813113E+03  0.17300000000E+03 0.  1.
<mgrwt>
<rscale>  2 0.28002362E+03</rscale>
<asrwt>0</asrwt>
<pdfrwt beam="1">  1       21 0.54030649E+00 0.28002362E+03</pdfrwt>
<pdfrwt beam="2">  1       21 0.62633783E-02 0.28002362E+03</pdfrwt>
<totfact> 0.15642909E+02</totfact>
</mgrwt>
</event>
<event>
 4    1  0.3973261E+000  0.1733334E+03  0.7546771E-02  0.1174416E+00
         21   -1    0    0  501  502  0.00000000000E+00  0.00000000000E+00  0.32814462720E+03  0.32814462720E+03  0.00000000000E+00 0. -1.
         21   -1    0    0  502  503 -0.00000000000E+00 -0.00000000000E+00 -0.98987464420E+02  0.98987464420E+02  0.00000000000E+00 0. -1.
          6    1    1    2  501    0 -0.26500948614E+01 -0.10413478608E+02  0.17308496374E+03  0.24495482892E+03  0.17300000000E+03 0.  1.
         -6    1    1    2    0  503  0.26500948614E+01  0.10413478608E+02  0.56072199043E+02  0.18217726270E+03  0.17300000000E+03 0.  1.
<mgrwt>
<rscale>  2 0.17333339E+03</rscale>
<asrwt>0</asrwt>
<pdfrwt beam="1">  1       21 0.50483788E-01 0.17333339E+03</pdfrwt>
<pdfrwt beam="2">  1       21 0.15228841E-01 0.17333339E+03</pdfrwt>
<totfact> 0.14344504E+05</totfact>
</mgrwt>
</event>
<event>
 4    1  0.3973261E+000  0.1751494E+03  0.7546771E-02  0.1172582E+00
         21   -1    0    0  501  502  0.00000000000E+00  0.00000000000E+00  0.48515248418E+02  0.48515248418E+02  0.00000000000E+00 0. -1.
         21   -1    0    0  502  503 -0.00000000000E+00 -0.00000000000E+00 -0.10018335947E+04  0.10018335947E+04  0.00000000000E+00 0. -1.
          6    1    1    2  501    0 -0.20150120407E+02 -0.18500816435E+02 -0.15771166297E+03  0.23569106092E+03  0.17300000000E+03 0. -1.
         -6    1    1    2    0  503  0.20150120407E+02  0.18500816435E+02 -0.79560668333E+03  0.81465778221E+03  0.17300000000E+03 0. -1.
<mgrwt>
<rscale>  2 0.17514939E+03</rscale>
<asrwt>0</asrwt>
<pdfrwt beam="1">  1       21 0.74638846E-02 0.17514939E+03</pdfrwt>
<pdfrwt beam="2">  1       21 0.15412824E+00 0.17514939E+03</pdfrwt>
<totfact> 0.38065002E+04</totfact>
</mgrwt>
</event>
<event>
 4    1  0.3973261E+000  0.1915650E+03  0.7546771E-02  0.1157057E+00
         21   -1    0    0  503  502  0.00000000000E+00  0.00000000000E+00  0.72009298080E+03  0.72009298080E+03  0.00000000000E+00 0. -1.
         21   -1    0    0  501  503 -0.00000000000E+00 -0.00000000000E+00 -0.11710129869E+03  0.11710129869E+03  0.00000000000E+00 0. -1.
          6    1    1    2  501    0  0.39955287463E+02 -0.71914670190E+02 -0.13095133678E+02  0.19201204991E+03  0.17300000000E+03 0. -1.
         -6    1    1    2    0  502 -0.39955287463E+02  0.71914670190E+02  0.61608681579E+03  0.64518222959E+03  0.17300000000E+03 0. -1.
<mgrwt>
<rscale>  2 0.19156499E+03</rscale>
<asrwt>0</asrwt>
<pdfrwt beam="1">  1       21 0.11078353E+00 0.19156499E+03</pdfrwt>
<pdfrwt beam="2">  1       21 0.18015585E-01 0.19156499E+03</pdfrwt>
<totfact> 0.18008260E+04</totfact>
</mgrwt>
</event>
<event>
 4    1  0.3973261E+000  0.2093099E+03  0.7546771E-02  0.1142114E+00
         21   -1    0    0  501  502  0.00000000000E+00  0.00000000000E+00  0.63680256602E+03  0.63680256602E+03  0.00000000000E+00 0. -1.
         21   -1    0    0  502  503 -0.00000000000E+00 -0.00000000000E+00 -0.72424616375E+02  0.72424616375E+02  0.00000000000E+00 0.  1.
          6    1    1    2  501    0  0.53064575300E+02 -0.10519409910E+03  0.36154356342E+03  0.41776117087E+03  0.17300000000E+03 0. -1.
         -6    1    1    2    0  503 -0.53064575300E+02  0.10519409910E+03  0.20283438622E+03  0.29146601152E+03  0.17300000000E+03 0.  1.
<mgrwt>
<rscale>  2 0.20930993E+03</rscale>
<asrwt>0</asrwt>
<pdfrwt beam="1">  1       21 0.97969622E-01 0.20930993E+03</pdfrwt>
<pdfrwt beam="2">  1       21 0.11142249E-01 0.20930993E+03</pdfrwt>
<totfact> 0.57252065E+04</totfact>
</mgrwt>
</event>
<event>
 4    1  0.3973261E+000  0.3917821E+03  0.7546771E-02  0.1046663E+00
         21   -1    0    0  503  502  0.00000000000E+00  0.00000000000E+00  0.14301488060E+03  0.14301488060E+03  0.00000000000E+00 0. -1.
         21   -1    0    0  501  503 -0.00000000000E+00 -0.00000000000E+00 -0.11053915577E+04  0.11053915577E+04  0.00000000000E+00 0.  1.
          6    1    1    2  501    0  0.22357741649E+03 -0.27125140722E+03 -0.58759892726E+03  0.70623345036E+03  0.17300000000E+03 0.  1.
         -6    1    1    2    0  502 -0.22357741649E+03  0.27125140722E+03 -0.37477774985E+03  0.54217298795E+03  0.17300000000E+03 0. -1.
<mgrwt>
<rscale>  2 0.39178207E+03</rscale>
<asrwt>0</asrwt>
<pdfrwt beam="1">  1       21 0.22002289E-01 0.39178207E+03</pdfrwt>
<pdfrwt beam="2">  1       21 0.17006024E+00 0.39178207E+03</pdfrwt>
<totfact> 0.36301682E+03</totfact>
</mgrwt>
</event>
<event>
 4    1  0.3973261E+000  0.2275522E+03  0.7546771E-02  0.1128375E+00
         21   -1    0    0  503  502  0.00000000000E+00  0.00000000000E+00  0.66995211569E+03  0.66995211569E+03  0.00000000000E+00 0.  1.
         21   -1    0    0  501  503 -0.00000000000E+00 -0.00000000000E+00 -0.47571650541E+03  0.47571650541E+03  0.00000000000E+00 0. -1.
          6    1    1    2  501    0 -0.14612919055E+03 -0.22299513802E+02 -0.42712140919E+03  0.48395527359E+03  0.17300000000E+03 0. -1.
         -6    1    1    2    0  502  0.14612919055E+03  0.22299513802E+02  0.62135701947E+03  0.66171334752E+03  0.17300000000E+03 0.  1.
<mgrwt>
<rscale>  2 0.22755221E+03</rscale>
<asrwt>0</asrwt>
<pdfrwt beam="1">  1       21 0.10306956E+00 0.22755221E+03</pdfrwt>
<pdfrwt beam="2">  1       21 0.73187155E-01 0.22755221E+03</pdfrwt>
<totfact> 0.12418860E+03</totfact>
</mgrwt>
</event>
<event>
 4    1  0.3973261E+000  0.2667932E+03  0.7546771E-02  0.1103129E+00
         21   -1    0    0  501  502  0.00000000000E+00  0.00000000000E+00  0.38553806195E+03  0.38553806195E+03  0.00000000000E+00 0.  1.
         21   -1    0    0  502  503 -0.00000000000E+00 -0.00000000000E+00 -0.19587084627E+03  0.19587084627E+03  0.00000000000E+00 0. -1.
          6    1    1    2  501    0 -0.18654336624E+03 -0.80319297122E+02  0.16450112686E+03  0.31343139236E+03  0.17300000000E+03 0. -1.
         -6    1    1    2    0  503  0.18654336624E+03  0.80319297122E+02  0.25166088813E+02  0.26797751586E+03  0.17300000000E+03 0. -1.
<mgrwt>
<rscale>  2 0.26679321E+03</rscale>
<asrwt>0</asrwt>
<pdfrwt beam="1">  1       21 0.59313548E-01 0.26679321E+03</pdfrwt>
<pdfrwt beam="2">  1       21 0.30133976E-01 0.26679321E+03</pdfrwt>
<totfact> 0.27045351E+04</totfact>
</mgrwt>
</event>
<event>
 4    1  0.3973261E+000  0.1933857E+03  0.7546771E-02  0.1155443E+00
         21   -1    0    0  501  502  0.00000000000E+00  0.00000000000E+00  0.20547989914E+03  0.20547989914E+03  0.00000000000E+00 0.  1.
         21   -1    0    0  502  503 -0.00000000000E+00 -0.00000000000E+00 -0.21245251412E+03  0.21245251412E+03  0.00000000000E+00 0.  1.
          6    1    1    2  501    0  0.54430509559E+02 -0.67129452265E+02  0.75623865213E+02  0.20764636458E+03  0.17300000000E+03 0.  1.
         -6    1    1    2    0  503 -0.54430509559E+02  0.67129452265E+02 -0.82596480193E+02  0.21028604869E+03  0.17300000000E+03 0.  1.
<mgrwt>
<rscale>  2 0.19338574E+03</rscale>
<asrwt>0</asrwt>
<pdfrwt beam="1">  1       21 0.31612292E-01 0.19338574E+03</pdfrwt>
<pdfrwt beam="2">  1       21 0.32685002E-01 0.19338574E+03</pdfrwt>
<totfact> 0.86645278E+04</totfact>
</mgrwt>
</event>
<event>
 4    1  0.3973261E+000  0.1964816E+03  0.7546771E-02  0.1152742E+00
         21   -1    0    0  503  502  0.00000000000E+00  0.00000000000E+00  0.10011449334E+03  0.10011449334E+03  0.00000000000E+00 0. -1.
         21   -1    0    0  501  503 -0.00000000000E+00 -0.00000000000E+00 -0.39727375038E+03  0.39727375038E+03  0.00000000000E+00 0. -1.
          6    1    1    2  501    0  0.23721062579E+02  0.90074079598E+02 -0.19119460194E+03  0.27415397943E+03  0.17300000000E+03 0. -1.
         -6    1    1    2    0  502 -0.23721062579E+02 -0.90074079598E+02 -0.10596465510E+03  0.22323426429E+03  0.17300000000E+03 0. -1.
<mgrwt>
<rscale>  2 0.19648162E+03</rscale>
<asrwt>0</asrwt>
<pdfrwt beam="1">  1       21 0.15402230E-01 0.19648162E+03</pdfrwt>
<pdfrwt beam="2">  1       21 0.61119038E-01 0.19648162E+03</pdfrwt>
<totfact> 0.92941777E+04</totfact>
</mgrwt>
</event>
<event>
 4    1  0.3973261E+000  0.2848145E+03  0.7546771E-02  0.1093088E+00
         21   -1    0    0  503  502  0.00000000000E+00  0.00000000000E+00  0.21014197535E+04  0.21014197535E+04  0.00000000000E+00 0.  1.
         21   -1    0    0  501  503 -0.00000000000E+00 -0.00000000000E+00 -0.42334286159E+02  0.42334286159E+02  0.00000000000E+00 0. -1.
          6    1    1    2  501    0 -0.16446761460E+03  0.15537273811E+03  0.71128527461E+03  0.76618928854E+03  0.17300000000E+03 0.  1.
         -6    1    1    2    0  502  0.16446761460E+03 -0.15537273811E+03  0.13478001928E+04  0.13775647511E+04  0.17300000000E+03 0. -1.
<mgrwt>
<rscale>  2 0.28481447E+03</rscale>
<asrwt>0</asrwt>
<pdfrwt beam="1">  1       21 0.32329527E+00 0.28481447E+03</pdfrwt>
<pdfrwt beam="2">  1       21 0.65129687E-02 0.28481447E+03</pdfrwt>
<totfact> 0.39069372E+03</totfact>
</mgrwt>
</event>
<event>
 4    1  0.3973261E+000  0.2928708E+03  0.7546771E-02  0.1088860E+00
         21   -1    0    0  503  502  0.00000000000E+00  0.00000000000E+00  0.60658862408E+02  0.60658862408E+02  0.00000000000E+00 0.  1.
         21   -1    0    0  501  503 -0.00000000000E+00 -0.00000000000E+00 -0.16344067111E+04  0.16344067111E+04  0.00000000000E+00 0. -1.
          6    1    1    2  501    0  0.21474074718E+03 -0.98644429471E+02 -0.10980896616E+04  0.11364744682E+04  0.17300000000E+03 0. -1.
         -6    1    1    2    0  502 -0.21474074718E+03  0.98644429471E+02 -0.47565818702E+03  0.55859110523E+03  0.17300000000E+03 0.  1.
<mgrwt>
<rscale>  2 0.29287081E+03</rscale>
<asrwt>0</asrwt>
<pdfrwt beam="1">  1       21 0.93321327E-02 0.29287081E+03</pdfrwt>
<pdfrwt beam="2">  1       21 0.25144719E+00 0.29287081E+03</pdfrwt>
<totfact> 0.54960560E+03</totfact>
</mgrwt>
</event>
<event>
 4    1  0.3973261E+000  0.1782448E+03  0.7546771E-02  0.1169513E+00
         21   -1    0    0  503  502  0.00000000000E+00  0.00000000000E+00  0.36355362645E+03  0.36355362645E+03  0.00000000000E+00 0. -1.
         21   -1    0    0  501  503 -0.00000000000E+00 -0.00000000000E+00 -0.90038441863E+02  0.90038441863E+02  0.00000000000E+00 0. -1.
          6    1    1    2  501    0  0.21763076188E+02  0.36994483377E+02  0.97866031688E+02  0.20334449450E+03  0.17300000000E+03 0. -1.
         -6    1    1    2    0  502 -0.21763076188E+02 -0.36994483377E+02  0.17564915290E+03  0.25024757382E+03  0.17300000000E+03 0. -1.
<mgrwt>
<rscale>  2 0.17824484E+03</rscale>
<asrwt>0</asrwt>
<pdfrwt beam="1">  1       21 0.55931327E-01 0.17824484E+03</pdfrwt>
<pdfrwt beam="2">  1       21 0.13852068E-01 0.17824484E+03</pdfrwt>
<totfact> 0.13711516E+05</totfact>
</mgrwt>
</event>
<event>
 4    1  0.3973261E+000  0.2174879E+03  0.7546771E-02  0.1135770E+00
         21   -1    0    0  503  502  0.00000000000E+00  0.00000000000E+00  0.91054468529E+03  0.91054468529E+03  0.00000000000E+00 0.  1.
         21   -1    0    0  501  503 -0.00000000000E+00 -0.00000000000E+00 -0.58451207962E+02  0.58451207962E+02  0.00000000000E+00 0. -1.
          6    1    1    2  501    0  0.12998232389E+03 -0.21831200381E+02  0.26444058376E+03  0.34238841711E+03  0.17300000000E+03 0. -1.
         -6    1    1    2    0  502 -0.12998232389E+03  0.21831200381E+02  0.58765289357E+03  0.62660747614E+03  0.17300000000E+03 0.  1.
<mgrwt>
<rscale>  2 0.21748794E+03</rscale>
<asrwt>0</asrwt>
<pdfrwt beam="1">  1       21 0.14008379E+00 0.21748794E+03</pdfrwt>
<pdfrwt beam="2">  1       21 0.89924942E-02 0.21748794E+03</pdfrwt>
<totfact> 0.34448774E+04</totfact>
</mgrwt>
</event>
<event>
 4    1  0.3973261E+000  0.1827770E+03  0.7546771E-02  0.1165142E+00
         21   -1    0    0  501  502  0.00000000000E+00  0.00000000000E+00  0.66261048197E+03  0.66261048197E+03  0.00000000000E+00 0. -1.
         21   -1    0    0  502  503 -0.00000000000E+00 -0.00000000000E+00 -0.76033378871E+02  0.76033378871E+02  0.00000000000E+00 0. -1.
          6    1    1    2  501    0  0.43805634997E+02 -0.39490329547E+02  0.50765376433E+03  0.53955515401E+03  0.17300000000E+03 0. -1.
         -6    1    1    2    0  503 -0.43805634997E+02  0.39490329547E+02  0.78923338778E+02  0.19908870683E+03  0.17300000000E+03 0. -1.
<mgrwt>
<rscale>  2 0.18277697E+03</rscale>
<asrwt>0</asrwt>
<pdfrwt beam="1">  1       21 0.10194007E+00 0.18277697E+03</pdfrwt>
<pdfrwt beam="2">  1       21 0.11697443E-01 0.18277697E+03</pdfrwt>
<totfact> 0.48409254E+04</totfact>
</mgrwt>
</event>
<event>
 4    1  0.3973261E+000  0.3687924E+03  0.7546771E-02  0.1055156E+00
         21   -1    0    0  501  502  0.00000000000E+00  0.00000000000E+00  0.19049923148E+03  0.19049923148E+03  0.00000000000E+00 0. -1.
         21   -1    0    0  502  503 -0.00000000000E+00 -0.00000000000E+00 -0.96028901587E+03  0.96028901587E+03  0.00000000000E+00 0.  1.
          6    1    1    2  501    0 -0.15306302379E+03 -0.28749010587E+03 -0.93469917499E+02  0.38045298750E+03  0.17300000000E+03 0.  1.
         -6    1    1    2    0  503  0.15306302379E+03  0.28749010587E+03 -0.67631986689E+03  0.77033525985E+03  0.17300000000E+03 0.  1.
<mgrwt>
<rscale>  2 0.36879242E+03</rscale>
<asrwt>0</asrwt>
<pdfrwt beam="1">  1       21 0.29307574E-01 0.36879242E+03</pdfrwt>
<pdfrwt beam="2">  1       21 0.14773677E+00 0.36879242E+03</pdfrwt>
<totfact> 0.30977955E+03</totfact>
</mgrwt>
</event>
<event>
 4    1  0.3973261E+000  0.1814941E+03  0.7546771E-02  0.1166365E+00
         21   -1    0    0  503  502  0.00000000000E+00  0.00000000000E+00  0.18054788661E+03  0.18054788661E+03  0.00000000000E+00 0. -1.
         21   -1    0    0  501  503 -0.00000000000E+00 -0.00000000000E+00 -0.18653308829E+03  0.18653308829E+03  0.00000000000E+00 0. -1.
          6    1    1    2  501    0  0.24054966560E+02 -0.49320089207E+02 -0.30163145868E+02  0.18398349922E+03  0.17300000000E+03 0. -1.
         -6    1    1    2    0  502 -0.24054966560E+02  0.49320089207E+02  0.24177944183E+02  0.18309747568E+03  0.17300000000E+03 0. -1.
<mgrwt>
<rscale>  2 0.18149411E+03</rscale>
<asrwt>0</asrwt>
<pdfrwt beam="1">  1       21 0.27776598E-01 0.18149411E+03</pdfrwt>
<pdfrwt beam="2">  1       21 0.28697398E-01 0.18149411E+03</pdfrwt>
<totfact> 0.14426280E+05</totfact>
</mgrwt>
</event>
<event>
 4    1  0.3973261E+000  0.1790566E+03  0.7546771E-02  0.1168719E+00
         21   -1    0    0  503  502  0.00000000000E+00  0.00000000000E+00  0.83250515323E+02  0.83250515323E+02  0.00000000000E+00 0.  1.
         21   -1    0    0  501  503 -0.00000000000E+00 -0.00000000000E+00 -0.22541973655E+04  0.22541973655E+04  0.00000000000E+00 0.  1.
          6    1    1    2  501    0  0.45099050612E+02  0.99174601754E+01 -0.21496895404E+04  0.21571338392E+04  0.17300000000E+03 0.  1.
         -6    1    1    2    0  502 -0.45099050612E+02 -0.99174601754E+01 -0.21257309830E+02  0.18031404162E+03  0.17300000000E+03 0.  1.
<mgrwt>
<rscale>  2 0.17905664E+03</rscale>
<asrwt>0</asrwt>
<pdfrwt beam="1">  1       21 0.12807772E-01 0.17905664E+03</pdfrwt>
<pdfrwt beam="2">  1       21 0.34679958E+00 0.17905664E+03</pdfrwt>
<totfact> 0.97352064E+02</totfact>
</mgrwt>
</event>
<event>
 4    1  0.3973261E+000  0.2326339E+03  0.7546771E-02  0.1124800E+00
         21   -1    0    0  501  502  0.00000000000E+00  0.00000000000E+00  0.67301062205E+02  0.67301062205E+02  0.00000000000E+00 0. -1.
         21   -1    0    0  502  503 -0.00000000000E+00 -0.00000000000E+00 -0.81849261820E+03  0.81849261820E+03  0.00000000000E+00 0. -1.
          6    1    1    2  501    0 -0.94870329316E+02 -0.12324427590E+03 -0.31691806858E+03  0.39313559126E+03  0.17300000000E+03 0. -1.
         -6    1    1    2    0  503  0.94870329316E+02  0.12324427590E+03 -0.43427348742E+03  0.49265808915E+03  0.17300000000E+03 0. -1.
<mgrwt>
<rscale>  2 0.23263390E+03</rscale>
<asrwt>0</asrwt>
<pdfrwt beam="1">  1       21 0.10354010E-01 0.23263390E+03</pdfrwt>
<pdfrwt beam="2">  1       21 0.12592194E+00 0.23263390E+03</pdfrwt>
<totfact> 0.34959844E+04</totfact>
</mgrwt>
</event>
<event>
 4    1  0.3973261E+000  0.1807625E+03  0.7546771E-02  0.1167067E+00
         21   -1    0    0  503  502  0.00000000000E+00  0.00000000000E+00  0.81179381447E+03  0.81179381447E+03  0.00000000000E+00 0. -1.
         21   -1    0    0  501  503 -0.00000000000E+00 -0.00000000000E+00 -0.47473739776E+02  0.47473739776E+02  0.00000000000E+00 0. -1.
          6    1    1    2  501    0  0.34042871352E+02 -0.39839230732E+02  0.21457368184E+03  0.28056540474E+03  0.17300000000E+03 0. -1.
         -6    1    1    2    0  502 -0.34042871352E+02  0.39839230732E+02  0.54974639285E+03  0.57870214951E+03  0.17300000000E+03 0. -1.
<mgrwt>
<rscale>  2 0.18076250E+03</rscale>
<asrwt>0</asrwt>
<pdfrwt beam="1">  1       21 0.12489135E+00 0.18076250E+03</pdfrwt>
<pdfrwt beam="2">  1       21 0.73036529E-02 0.18076250E+03</pdfrwt>
<totfact> 0.67585416E+04</totfact>
</mgrwt>
</event>
<event>
 4    1  0.3973261E+000  0.2075106E+03  0.7546771E-02  0.1143553E+00
         21   -1    0    0  501  502  0.00000000000E+00  0.00000000000E+00  0.80115933244E+03  0.80115933244E+03  0.00000000000E+00 0.  1.
         21   -1    0    0  502  503 -0.00000000000E+00 -0.00000000000E+00 -0.68920520468E+02  0.68920520468E+02  0.00000000000E+00 0.  1.
          6    1    1    2  501    0 -0.52780793916E+02  0.10171447089E+03  0.57023909018E+03  0.60682226868E+03  0.17300000000E+03 0.  1.
         -6    1    1    2    0  503  0.52780793916E+02 -0.10171447089E+03  0.16199972180E+03  0.26325758424E+03  0.17300000000E+03 0.  1.
<mgrwt>
<rscale>  2 0.20751059E+03</rscale>
<asrwt>0</asrwt>
<pdfrwt beam="1">  1       21 0.12325528E+00 0.20751059E+03</pdfrwt>
<pdfrwt beam="2">  1       21 0.10603158E-01 0.20751059E+03</pdfrwt>
<totfact> 0.35839271E+04</totfact>
</mgrwt>
</event>
<event>
 4    1  0.3973261E+000  0.1924316E+03  0.7546771E-02  0.1156286E+00
         21   -1    0    0  503  502  0.00000000000E+00  0.00000000000E+00  0.39432980199E+03  0.39432980199E+03  0.00000000000E+00 0. -1.
         21   -1    0    0  501  503 -0.00000000000E+00 -0.00000000000E+00 -0.94629095304E+02  0.94629095304E+02  0.00000000000E+00 0. -1.
          6    1    1    2  501    0 -0.74499460638E+02  0.39379549596E+02  0.12847861568E+03  0.23137993268E+03  0.17300000000E+03 0. -1.
         -6    1    1    2    0  502  0.74499460638E+02 -0.39379549596E+02  0.17122209101E+03  0.25757896461E+03  0.17300000000E+03 0. -1.
<mgrwt>
<rscale>  2 0.19243159E+03</rscale>
<asrwt>0</asrwt>
<pdfrwt beam="1">  1       21 0.60666123E-01 0.19243159E+03</pdfrwt>
<pdfrwt beam="2">  1       21 0.14558323E-01 0.19243159E+03</pdfrwt>
<totfact> 0.10482461E+05</totfact>
</mgrwt>
</event>
<event>
 4    1  0.3973261E+000  0.1971267E+03  0.7546771E-02  0.1152186E+00
         21   -1    0    0  501  502  0.00000000000E+00  0.00000000000E+00  0.10289208403E+03  0.10289208403E+03  0.00000000000E+00 0.  1.
         21   -1    0    0  502  503 -0.00000000000E+00 -0.00000000000E+00 -0.50038655683E+03  0.50038655683E+03  0.00000000000E+00 0.  1.
          6    1    1    2  501    0 -0.82830428835E+02 -0.45486707633E+02 -0.49367240917E+02  0.20321428343E+03  0.17300000000E+03 0.  1.
         -6    1    1    2    0  503  0.82830428835E+02  0.45486707633E+02 -0.34812723189E+03  0.40006435744E+03  0.17300000000E+03 0.  1.
<mgrwt>
<rscale>  2 0.19712666E+03</rscale>
<asrwt>0</asrwt>
<pdfrwt beam="1">  1       21 0.15829551E-01 0.19712666E+03</pdfrwt>
<pdfrwt beam="2">  1       21 0.76982548E-01 0.19712666E+03</pdfrwt>
<totfact> 0.53211802E+04</totfact>
</mgrwt>
</event>
<event>
 4    1  0.3973261E+000  0.3757960E+03  0.7546771E-02  0.1052499E+00
         21   -1    0    0  501  502  0.00000000000E+00  0.00000000000E+00  0.21402858442E+04  0.21402858442E+04  0.00000000000E+00 0. -1.
         21   -1    0    0  502  503 -0.00000000000E+00 -0.00000000000E+00 -0.73662542885E+02  0.73662542885E+02  0.00000000000E+00 0.  1.
          6    1    1    2  501    0 -0.56539966122E+02  0.32878082146E+03  0.13907328455E+04  0.14406111356E+04  0.17300000000E+03 0. -1.
         -6    1    1    2    0  503  0.56539966122E+02 -0.32878082146E+03  0.67589045572E+03  0.77333725144E+03  0.17300000000E+03 0.  1.
<mgrwt>
<rscale>  2 0.37579595E+03</rscale>
<asrwt>0</asrwt>
<pdfrwt beam="1">  1       21 0.32927470E+00 0.37579595E+03</pdfrwt>
<pdfrwt beam="2">  1       21 0.11332701E-01 0.37579595E+03</pdfrwt>
<totfact> 0.12620961E+03</totfact>
</mgrwt>
</event>
<event>
 4    1  0.3973261E+000  0.1864204E+03  0.7546771E-02  0.1161730E+00
         21   -1    0    0  501  502  0.00000000000E+00  0.00000000000E+00  0.24000916335E+03  0.24000916335E+03  0.00000000000E+00 0.  1.
         21   -1    0    0  502  503 -0.00000000000E+00 -0.00000000000E+00 -0.14567318427E+03  0.14567318427E+03  0.00000000000E+00 0.  1.
          6    1    1    2  501    0 -0.45130596209E+02  0.52790189073E+02  0.62124861586E+02  0.19649955014E+03  0.17300000000E+03 0.  1.
         -6    1    1    2    0  503  0.45130596209E+02 -0.52790189073E+02  0.32211117496E+02  0.18918279749E+03  0.17300000000E+03 0.  1.
<mgrwt>
<rscale>  2 0.18642042E+03</rscale>
<asrwt>0</asrwt>
<pdfrwt beam="1">  1       21 0.36924487E-01 0.18642042E+03</pdfrwt>
<pdfrwt beam="2">  1       21 0.22411259E-01 0.18642042E+03</pdfrwt>
<totfact> 0.13213364E+05</totfact>
</mgrwt>
</event>
<event>
 4    1  0.3973261E+000  0.2510823E+03  0.7546771E-02  0.1112623E+00
         21   -1    0    0  503  502  0.00000000000E+00  0.00000000000E+00  0.43940564609E+02  0.43940564609E+02  0.00000000000E+00 0.  1.
         21   -1    0    0  501  503 -0.00000000000E+00 -0.00000000000E+00 -0.19737066699E+04  0.19737066699E+04  0.00000000000E+00 0. -1.
          6    1    1    2  501    0 -0.95566038417E+02 -0.15485620151E+03 -0.14920690045E+04  0.15130473307E+04  0.17300000000E+03 0. -1.
         -6    1    1    2    0  502  0.95566038417E+02  0.15485620151E+03 -0.43769710076E+03  0.50459990374E+03  0.17300000000E+03 0. -1.
<mgrwt>
<rscale>  2 0.25108228E+03</rscale>
<asrwt>0</asrwt>
<pdfrwt beam="1">  1       21 0.67600866E-02 0.25108228E+03</pdfrwt>
<pdfrwt beam="2">  1       21 0.30364719E+00 0.25108228E+03</pdfrwt>
<totfact> 0.49203296E+03</totfact>
</mgrwt>
</event>
<event>
 4    1  0.3973261E+000  0.1909018E+03  0.7546771E-02  0.1157650E+00
         21   -1    0    0  503  502  0.00000000000E+00  0.00000000000E+00  0.76960642287E+03  0.76960642287E+03  0.00000000000E+00 0.  1.
         21   -1    0    0  501  503 -0.00000000000E+00 -0.00000000000E+00 -0.82912278867E+02  0.82912278867E+02  0.00000000000E+00 0.  1.
          6    1    1    2  501    0 -0.59220905001E+02  0.54839769445E+02  0.64196678476E+02  0.20140687533E+03  0.17300000000E+03 0.  1.
         -6    1    1    2    0  502  0.59220905001E+02 -0.54839769445E+02  0.62249746553E+03  0.65111182641E+03  0.17300000000E+03 0.  1.
<mgrwt>
<rscale>  2 0.19090185E+03</rscale>
<asrwt>0</asrwt>
<pdfrwt beam="1">  1       21 0.11840098E+00 0.19090185E+03</pdfrwt>
<pdfrwt beam="2">  1       21 0.12755736E-01 0.19090185E+03</pdfrwt>
<totfact> 0.28743958E+04</totfact>
</mgrwt>
</event>
<event>
 4    1  0.3973261E+000  0.2295482E+03  0.7546771E-02  0.1126958E+00
         21   -1    0    0  503  502  0.00000000000E+00  0.00000000000E+00  0.18253180899E+02  0.18253180899E+02  0.00000000000E+00 0. -1.
         21   -1    0    0  501  503 -0.00000000000E+00 -0.00000000000E+00 -0.28886882553E+04  0.28886882553E+04  0.00000000000E+00 0.  1.
          6    1    1    2  501    0 -0.10970380941E+02  0.15047594363E+03 -0.14728731314E+04  0.14906534205E+04  0.17300000000E+03 0.  1.
         -6    1    1    2    0  502  0.10970380941E+02 -0.15047594363E+03 -0.13975619429E+04  0.14162880156E+04  0.17300000000E+03 0. -1.
<mgrwt>
<rscale>  2 0.22954816E+03</rscale>
<asrwt>0</asrwt>
<pdfrwt beam="1">  1       21 0.28081811E-02 0.22954816E+03</pdfrwt>
<pdfrwt beam="2">  1       21 0.44441366E+00 0.22954816E+03</pdfrwt>
<totfact> 0.30410916E+03</totfact>
</mgrwt>
</event>
<event>
 4    1  0.3973261E+000  0.2515119E+03  0.7546771E-02  0.1112353E+00
         21   -1    0    0  501  502  0.00000000000E+00  0.00000000000E+00  0.63923746300E+03  0.63923746300E+03  0.00000000000E+00 0. -1.
         21   -1    0    0  502  503 -0.00000000000E+00 -0.00000000000E+00 -0.98960586339E+02  0.98960586339E+02  0.00000000000E+00 0. -1.
          6    1    1    2  501    0  0.78419284441E+02 -0.16486258268E+03  0.27164848117E+03  0.37020420400E+03  0.17300000000E+03 0. -1.
         -6    1    1    2    0  503 -0.78419284441E+02  0.16486258268E+03  0.26862839548E+03  0.36799384533E+03  0.17300000000E+03 0. -1.
<mgrwt>
<rscale>  2 0.25151194E+03</rscale>
<asrwt>0</asrwt>
<pdfrwt beam="1">  1       21 0.98344223E-01 0.25151194E+03</pdfrwt>
<pdfrwt beam="2">  1       21 0.15224706E-01 0.25151194E+03</pdfrwt>
<totfact> 0.31636938E+04</totfact>
</mgrwt>
</event>
<event>
 4    1  0.3973261E+000  0.2178109E+03  0.7546771E-02  0.1135526E+00
         21   -1    0    0  503  502  0.00000000000E+00  0.00000000000E+00  0.10246887094E+04  0.10246887094E+04  0.00000000000E+00 0.  1.
         21   -1    0    0  501  503 -0.00000000000E+00 -0.00000000000E+00 -0.73380298608E+02  0.73380298608E+02  0.00000000000E+00 0.  1.
          6    1    1    2  501    0 -0.23546716743E+02 -0.13022335153E+03  0.14211375950E+03  0.26007285478E+03  0.17300000000E+03 0.  1.
         -6    1    1    2    0  502  0.23546716743E+02  0.13022335153E+03  0.80919465126E+03  0.83799615320E+03  0.17300000000E+03 0.  1.
<mgrwt>
<rscale>  2 0.21781086E+03</rscale>
<asrwt>0</asrwt>
<pdfrwt beam="1">  1       21 0.15764441E+00 0.21781086E+03</pdfrwt>
<pdfrwt beam="2">  1       21 0.11289277E-01 0.21781086E+03</pdfrwt>
<totfact> 0.16848256E+04</totfact>
</mgrwt>
</event>
<event>
 4    1  0.3973261E+000  0.2305947E+03  0.7546771E-02  0.1126222E+00
         21   -1    0    0  503  502  0.00000000000E+00  0.00000000000E+00  0.20587942066E+03  0.20587942066E+03  0.00000000000E+00 0.  1.
         21   -1    0    0  501  503 -0.00000000000E+00 -0.00000000000E+00 -0.38440434453E+03  0.38440434453E+03  0.00000000000E+00 0. -1.
          6    1    1    2  501    0  0.93255311950E+02  0.12061660622E+03 -0.25832264211E+03  0.34627230084E+03  0.17300000000E+03 0. -1.
         -6    1    1    2    0  502 -0.93255311950E+02 -0.12061660622E+03  0.79797718235E+02  0.24401146436E+03  0.17300000000E+03 0.  1.
<mgrwt>
<rscale>  2 0.23059471E+03</rscale>
<asrwt>0</asrwt>
<pdfrwt beam="1">  1       21 0.31673757E-01 0.23059471E+03</pdfrwt>
<pdfrwt beam="2">  1       21 0.59139130E-01 0.23059471E+03</pdfrwt>
<totfact> 0.25089507E+04</totfact>
</mgrwt>
</event>
<event>
 4    1  0.3973261E+000  0.2356039E+03  0.7546771E-02  0.1122756E+00
         21   -1    0    0  501  502  0.00000000000E+00  0.00000000000E+00  0.33128257904E+04  0.33128257904E+04  0.00000000000E+00 0.  1.
         21   -1    0    0  502  503 -0.00000000000E+00 -0.00000000000E+00 -0.38212582310E+02  0.38212582310E+02  0.00000000000E+00 0.  1.
          6    1    1    2  501    0  0.87736333437E+02  0.13372561177E+03  0.28928393074E+04  0.29024176925E+04  0.17300000000E+03 0.  1.
         -6    1    1    2    0  503 -0.87736333437E+02 -0.13372561177E+03  0.38177390074E+03  0.44862068024E+03  0.17300000000E+03 0.  1.
<mgrwt>
<rscale>  2 0.23560391E+03</rscale>
<asrwt>0</asrwt>
<pdfrwt beam="1">  1       21 0.50966528E+00 0.23560391E+03</pdfrwt>
<pdfrwt beam="2">  1       21 0.58788614E-02 0.23560391E+03</pdfrwt>
<totfact> 0.30865187E+02</totfact>
</mgrwt>
</event>
<event>
 4    1  0.3973261E+000  0.2132934E+03  0.7546771E-02  0.1138984E+00
         21   -1    0    0  501  502  0.00000000000E+00  0.00000000000E+00  0.21363663445E+03  0.21363663445E+03  0.00000000000E+00 0. -1.
         21   -1    0    0  502  503 -0.00000000000E+00 -0.00000000000E+00 -0.26583656362E+03  0.26583656362E+03  0.00000000000E+00 0.  1.
          6    1    1    2  501    0  0.11501390326E+03 -0.48341033489E+02  0.80829432335E+02  0.22809526649E+03  0.17300000000E+03 0. -1.
         -6    1    1    2    0  503 -0.11501390326E+03  0.48341033489E+02 -0.13302936151E+03  0.25137793158E+03  0.17300000000E+03 0.  1.
<mgrwt>
<rscale>  2 0.21329335E+03</rscale>
<asrwt>0</asrwt>
<pdfrwt beam="1">  1       21 0.32867175E-01 0.21329335E+03</pdfrwt>
<pdfrwt beam="2">  1       21 0.40897933E-01 0.21329335E+03</pdfrwt>
<totfact> 0.50814795E+04</totfact>
</mgrwt>
</event>
<event>
 4    1  0.3973261E+000  0.1811607E+03  0.7546771E-02  0.1166684E+00
         21   -1    0    0  503  502  0.00000000000E+00  0.00000000000E+00  0.54520784460E+02  0.54520784460E+02  0.00000000000E+00 0. -1.
         21   -1    0    0  501  503 -0.00000000000E+00 -0.00000000000E+00 -0.68418406618E+03  0.68418406618E+03  0.00000000000E+00 0. -1.
          6    1    1    2  501    0 -0.24367137355E+02 -0.47921309279E+02 -0.44287582839E+03  0.47849577703E+03  0.17300000000E+03 0. -1.
         -6    1    1    2    0  502  0.24367137355E+02  0.47921309279E+02 -0.18678745333E+03  0.26020907361E+03  0.17300000000E+03 0. -1.
<mgrwt>
<rscale>  2 0.18116073E+03</rscale>
<asrwt>0</asrwt>
<pdfrwt beam="1">  1       21 0.83878127E-02 0.18116073E+03</pdfrwt>
<pdfrwt beam="2">  1       21 0.10525909E+00 0.18116073E+03</pdfrwt>
<totfact> 0.80663393E+04</totfact>
</mgrwt>
</event>
<event>
 4    1  0.3973261E+000  0.2540724E+03  0.7546771E-02  0.1110758E+00
         21   -1    0    0  503  502  0.00000000000E+00  0.00000000000E+00  0.79055656082E+02  0.79055656082E+02  0.00000000000E+00 0. -1.
         21   -1    0    0  501  503 -0.00000000000E+00 -0.00000000000E+00 -0.12161245578E+04  0.12161245578E+04  0.00000000000E+00 0.  1.
          6    1    1    2  501    0  0.17952462107E+03  0.48935740214E+02 -0.93973685097E+03  0.97347734709E+03  0.17300000000E+03 0.  1.
         -6    1    1    2    0  502 -0.17952462107E+03 -0.48935740214E+02 -0.19733205073E+03  0.32170286677E+03  0.17300000000E+03 0. -1.
<mgrwt>
<rscale>  2 0.25407242E+03</rscale>
<asrwt>0</asrwt>
<pdfrwt beam="1">  1       21 0.12162409E-01 0.25407242E+03</pdfrwt>
<pdfrwt beam="2">  1       21 0.18709608E+00 0.25407242E+03</pdfrwt>
<totfact> 0.89240107E+03</totfact>
</mgrwt>
</event>
<event>
 4    1  0.3973261E+000  0.1942152E+03  0.7546771E-02  0.1154713E+00
         21   -1    0    0  501  502  0.00000000000E+00  0.00000000000E+00  0.59124583539E+03  0.59124583539E+03  0.00000000000E+00 0. -1.
         21   -1    0    0  502  503 -0.00000000000E+00 -0.00000000000E+00 -0.13741302496E+03  0.13741302496E+03  0.00000000000E+00 0.  1.
          6    1    1    2  501    0 -0.63905481744E+02  0.60882186854E+02  0.49358218061E+03  0.53041768475E+03  0.17300000000E+03 0. -1.
         -6    1    1    2    0  503  0.63905481744E+02 -0.60882186854E+02 -0.39749370180E+02  0.19824117560E+03  0.17300000000E+03 0.  1.
<mgrwt>
<rscale>  2 0.19421522E+03</rscale>
<asrwt>0</asrwt>
<pdfrwt beam="1">  1       21 0.90960896E-01 0.19421522E+03</pdfrwt>
<pdfrwt beam="2">  1       21 0.21140466E-01 0.19421522E+03</pdfrwt>
<totfact> 0.21307961E+04</totfact>
</mgrwt>
</event>
<event>
 4    1  0.3973261E+000  0.3783124E+03  0.7546771E-02  0.1051559E+00
         21   -1    0    0  501  502  0.00000000000E+00  0.00000000000E+00  0.79500902675E+03  0.79500902675E+03  0.00000000000E+00 0. -1.
         21   -1    0    0  502  503 -0.00000000000E+00 -0.00000000000E+00 -0.23816208003E+03  0.23816208003E+03  0.00000000000E+00 0. -1.
          6    1    1    2  501    0 -0.32030949480E+03  0.10292296060E+03  0.53365725551E+03  0.65414858758E+03  0.17300000000E+03 0. -1.
         -6    1    1    2    0  503  0.32030949480E+03 -0.10292296060E+03  0.23189691211E+02  0.37902251920E+03  0.17300000000E+03 0. -1.
<mgrwt>
<rscale>  2 0.37831245E+03</rscale>
<asrwt>0</asrwt>
<pdfrwt beam="1">  1       21 0.12230908E+00 0.37831245E+03</pdfrwt>
<pdfrwt beam="2">  1       21 0.36640320E-01 0.37831245E+03</pdfrwt>
<totfact> 0.32308480E+03</totfact>
</mgrwt>
</event>
<event>
 4    1  0.3973261E+000  0.3118074E+03  0.7546771E-02  0.1079483E+00
         21   -1    0    0  503  502  0.00000000000E+00  0.00000000000E+00  0.46905878815E+03  0.46905878815E+03  0.00000000000E+00 0.  1.
         21   -1    0    0  501  503 -0.00000000000E+00 -0.00000000000E+00 -0.23941309918E+03  0.23941309918E+03  0.00000000000E+00 0. -1.
          6    1    1    2  501    0 -0.24553529745E+03 -0.83709409039E+02 -0.14964776481E+02  0.31216628900E+03  0.17300000000E+03 0. -1.
         -6    1    1    2    0  502  0.24553529745E+03  0.83709409039E+02  0.24461046546E+03  0.39630559833E+03  0.17300000000E+03 0.  1.
<mgrwt>
<rscale>  2 0.31180739E+03</rscale>
<asrwt>0</asrwt>
<pdfrwt beam="1">  1       21 0.72162890E-01 0.31180739E+03</pdfrwt>
<pdfrwt beam="2">  1       21 0.36832785E-01 0.31180739E+03</pdfrwt>
<totfact> 0.11550283E+04</totfact>
</mgrwt>
</event>
<event>
 4    1  0.3973261E+000  0.1809188E+03  0.7546771E-02  0.1166917E+00
         21   -1    0    0  501  502  0.00000000000E+00  0.00000000000E+00  0.23277417513E+02  0.23277417513E+02  0.00000000000E+00 0.  1.
         21   -1    0    0  502  503 -0.00000000000E+00 -0.00000000000E+00 -0.14399549419E+04  0.14399549419E+04  0.00000000000E+00 0. -1.
          6    1    1    2  501    0 -0.52931356266E+02  0.94917486604E+00 -0.59624680613E+03  0.62309058991E+03  0.17300000000E+03 0. -1.
         -6    1    1    2    0  503  0.52931356266E+02 -0.94917486604E+00 -0.82043071821E+03  0.84014176946E+03  0.17300000000E+03 0. -1.
<mgrwt>
<rscale>  2 0.18091885E+03</rscale>
<asrwt>0</asrwt>
<pdfrwt beam="1">  1       21 0.35811417E-02 0.18091885E+03</pdfrwt>
<pdfrwt beam="2">  1       21 0.22153150E+00 0.18091885E+03</pdfrwt>
<totfact> 0.46807275E+04</totfact>
</mgrwt>
</event>
<event>
 4    1  0.3973261E+000  0.1907840E+03  0.7546771E-02  0.1157756E+00
         21   -1    0    0  503  502  0.00000000000E+00  0.00000000000E+00  0.84053401032E+03  0.84053401032E+03  0.00000000000E+00 0.  1.
         21   -1    0    0  501  503 -0.00000000000E+00 -0.00000000000E+00 -0.49752811985E+02  0.49752811985E+02  0.00000000000E+00 0.  1.
          6    1    1    2  501    0 -0.33177846163E+02  0.73271867203E+02  0.23512919652E+03  0.30279411331E+03  0.17300000000E+03 0.  1.
         -6    1    1    2    0  502  0.33177846163E+02 -0.73271867203E+02  0.55565200182E+03  0.58749270899E+03  0.17300000000E+03 0.  1.
<mgrwt>
<rscale>  2 0.19078400E+03</rscale>
<asrwt>0</asrwt>
<pdfrwt beam="1">  1       21 0.12931291E+00 0.19078400E+03</pdfrwt>
<pdfrwt beam="2">  1       21 0.76542794E-02 0.19078400E+03</pdfrwt>
<totfact> 0.56821175E+04</totfact>
</mgrwt>
</event>
<event>
 4    1  0.3973261E+000  0.2132062E+03  0.7546771E-02  0.1139052E+00
         21   -1    0    0  503  502  0.00000000000E+00  0.00000000000E+00  0.42029754686E+03  0.42029754686E+03  0.00000000000E+00 0.  1.
         21   -1    0    0  501  503 -0.00000000000E+00 -0.00000000000E+00 -0.10947591144E+03  0.10947591144E+03  0.00000000000E+00 0. -1.
          6    1    1    2  501    0  0.11318965718E+03  0.52115296609E+02  0.18451703570E+03  0.28196354215E+03  0.17300000000E+03 0.  1.
         -6    1    1    2    0  502 -0.11318965718E+03 -0.52115296609E+02  0.12630459972E+03  0.24780991615E+03  0.17300000000E+03 0.  1.
<mgrwt>
<rscale>  2 0.21320624E+03</rscale>
<asrwt>0</asrwt>
<pdfrwt beam="1">  1       21 0.64661160E-01 0.21320624E+03</pdfrwt>
<pdfrwt beam="2">  1       21 0.16842448E-01 0.21320624E+03</pdfrwt>
<totfact> 0.69318852E+04</totfact>
</mgrwt>
</event>
<event>
 4    1  0.3973261E+000  0.1772430E+03  0.7546771E-02  0.1170498E+00
         21   -1    0    0  503  502  0.00000000000E+00  0.00000000000E+00  0.48487577271E+03  0.48487577271E+03  0.00000000000E+00 0.  1.
         21   -1    0    0  501  503 -0.00000000000E+00 -0.00000000000E+00 -0.14095208353E+03  0.14095208353E+03  0.00000000000E+00 0.  1.
          6    1    1    2  501    0 -0.32308505794E+02 -0.21029386099E+02 -0.58054506467E+02  0.18650844578E+03  0.17300000000E+03 0.  1.
         -6    1    1    2    0  502  0.32308505794E+02  0.21029386099E+02  0.40197819565E+03  0.43931941046E+03  0.17300000000E+03 0.  1.
<mgrwt>
<rscale>  2 0.17724298E+03</rscale>
<asrwt>0</asrwt>
<pdfrwt beam="1">  1       21 0.74596272E-01 0.17724298E+03</pdfrwt>
<pdfrwt beam="2">  1       21 0.21684936E-01 0.17724298E+03</pdfrwt>
<totfact> 0.32185795E+04</totfact>
</mgrwt>
</event>
<event>
 4    1  0.3973261E+000  0.3140808E+03  0.7546771E-02  0.1078406E+00
         21   -1    0    0  501  502  0.00000000000E+00  0.00000000000E+00  0.26234508288E+03  0.26234508288E+03  0.00000000000E+00 0.  1.
         21   -1    0    0  502  503 -0.00000000000E+00 -0.00000000000E+00 -0.37707876197E+03  0.37707876197E+03  0.00000000000E+00 0.  1.
          6    1    1    2  501    0 -0.16046620034E+03 -0.20728809306E+03 -0.40418314051E+02  0.31667079923E+03  0.17300000000E+03 0.  1.
         -6    1    1    2    0  503  0.16046620034E+03  0.20728809306E+03 -0.74315365033E+02  0.32275304562E+03  0.17300000000E+03 0.  1.
<mgrwt>
<rscale>  2 0.31408081E+03</rscale>
<asrwt>0</asrwt>
<pdfrwt beam="1">  1       21 0.40360782E-01 0.31408081E+03</pdfrwt>
<pdfrwt beam="2">  1       21 0.58012117E-01 0.31408081E+03</pdfrwt>
<totfact> 0.15494139E+04</totfact>
</mgrwt>
</event>
<event>
 4    1  0.3973261E+000  0.2197585E+03  0.7546771E-02  0.1134063E+00
         21   -1    0    0  501  502  0.00000000000E+00  0.00000000000E+00  0.19162390626E+03  0.19162390626E+03  0.00000000000E+00 0. -1.
         21   -1    0    0  502  503 -0.00000000000E+00 -0.00000000000E+00 -0.70385334222E+03  0.70385334222E+03  0.00000000000E+00 0. -1.
          6    1    1    2  501    0  0.29209974451E+02  0.13233127296E+03  0.10261782406E+03  0.24253702032E+03  0.17300000000E+03 0. -1.
         -6    1    1    2    0  503 -0.29209974451E+02 -0.13233127296E+03 -0.61484726002E+03  0.65294022817E+03  0.17300000000E+03 0. -1.
<mgrwt>
<rscale>  2 0.21975848E+03</rscale>
<asrwt>0</asrwt>
<pdfrwt beam="1">  1       21 0.29480601E-01 0.21975848E+03</pdfrwt>
<pdfrwt beam="2">  1       21 0.10828513E+00 0.21975848E+03</pdfrwt>
<totfact> 0.73335195E+03</totfact>
</mgrwt>
</event>
<event>
 4    1  0.3973261E+000  0.1980910E+03  0.7546771E-02  0.1151360E+00
         21   -1    0    0  501  502  0.00000000000E+00  0.00000000000E+00  0.58744801461E+03  0.58744801461E+03  0.00000000000E+00 0.  1.
         21   -1    0    0  502  503 -0.00000000000E+00 -0.00000000000E+00 -0.66999260202E+02  0.66999260202E+02  0.00000000000E+00 0.  1.
          6    1    1    2  501    0 -0.90805491482E+02 -0.32640407686E+02  0.27818302728E+03  0.34150524178E+03  0.17300000000E+03 0.  1.
         -6    1    1    2    0  503  0.90805491482E+02  0.32640407686E+02  0.24226572713E+03  0.31294203303E+03  0.17300000000E+03 0.  1.
<mgrwt>
<rscale>  2 0.19809097E+03</rscale>
<asrwt>0</asrwt>
<pdfrwt beam="1">  1       21 0.90376614E-01 0.19809097E+03</pdfrwt>
<pdfrwt beam="2">  1       21 0.10307579E-01 0.19809097E+03</pdfrwt>
<totfact> 0.79829663E+04</totfact>
</mgrwt>
</event>
<event>
 4    1  0.3973261E+000  0.1778239E+03  0.7546771E-02  0.1169926E+00
         21   -1    0    0  503  502  0.00000000000E+00  0.00000000000E+00  0.13263375736E+03  0.13263375736E+03  0.00000000000E+00 0. -1.
         21   -1    0    0  501  503 -0.00000000000E+00 -0.00000000000E+00 -0.15022380861E+04  0.15022380861E+04  0.00000000000E+00 0. -1.
          6    1    1    2  501    0  0.38234607445E+02 -0.15180787562E+02 -0.14345723564E+04  0.14455515166E+04  0.17300000000E+03 0. -1.
         -6    1    1    2    0  502 -0.38234607445E+02  0.15180787562E+02  0.64968027687E+02  0.18932032680E+03  0.17300000000E+03 0. -1.
<mgrwt>
<rscale>  2 0.17782391E+03</rscale>
<asrwt>0</asrwt>
<pdfrwt beam="1">  1       21 0.20405193E-01 0.17782391E+03</pdfrwt>
<pdfrwt beam="2">  1       21 0.23111355E+00 0.17782391E+03</pdfrwt>
<totfact> 0.19475141E+03</totfact>
</mgrwt>
</event>
<event>
 4    1  0.3973261E+000  0.2698996E+03  0.7546771E-02  0.1101337E+00
         21   -1    0    0  501  502  0.00000000000E+00  0.00000000000E+00  0.11930232222E+03  0.11930232222E+03  0.00000000000E+00 0.  1.
         21   -1    0    0  502  503 -0.00000000000E+00 -0.00000000000E+00 -0.80337086729E+03  0.80337086729E+03  0.00000000000E+00 0. -1.
          6    1    1    2  501    0 -0.78007250078E+02 -0.19191571030E+03 -0.11604766097E+03  0.29379045346E+03  0.17300000000E+03 0.  1.
         -6    1    1    2    0  503  0.78007250078E+02  0.19191571030E+03 -0.56802088411E+03  0.62888273605E+03  0.17300000000E+03 0. -1.
<mgrwt>
<rscale>  2 0.26989956E+03</rscale>
<asrwt>0</asrwt>
<pdfrwt beam="1">  1       21 0.18354203E-01 0.26989956E+03</pdfrwt>
<pdfrwt beam="2">  1       21 0.12359552E+00 0.26989956E+03</pdfrwt>
<totfact> 0.12682151E+04</totfact>
</mgrwt>
</event>
<event>
 4    1  0.3973261E+000  0.2702297E+03  0.7546771E-02  0.1101148E+00
         21   -1    0    0  501  502  0.00000000000E+00  0.00000000000E+00  0.10586112138E+03  0.10586112138E+03  0.00000000000E+00 0.  1.
         21   -1    0    0  502  503 -0.00000000000E+00 -0.00000000000E+00 -0.83582846751E+03  0.83582846751E+03  0.00000000000E+00 0. -1.
          6    1    1    2  501    0  0.20490079602E+03  0.33328068793E+02 -0.16818481327E+03  0.31829267631E+03  0.17300000000E+03 0.  1.
         -6    1    1    2    0  503 -0.20490079602E+03 -0.33328068793E+02 -0.56178253287E+03  0.62339691258E+03  0.17300000000E+03 0. -1.
<mgrwt>
<rscale>  2 0.27022971E+03</rscale>
<asrwt>0</asrwt>
<pdfrwt beam="1">  1       21 0.16286326E-01 0.27022971E+03</pdfrwt>
<pdfrwt beam="2">  1       21 0.12858899E+00 0.27022971E+03</pdfrwt>
<totfact> 0.14318587E+04</totfact>
</mgrwt>
</event>
<event>
 4    1  0.3973261E+000  0.2144342E+03  0.7546771E-02  0.1138102E+00
         21   -1    0    0  501  502  0.00000000000E+00  0.00000000000E+00  0.49014174938E+03  0.49014174938E+03  0.00000000000E+00 0. -1.
         21   -1    0    0  502  503 -0.00000000000E+00 -0.00000000000E+00 -0.18021374419E+03  0.18021374419E+03  0.00000000000E+00 0. -1.
          6    1    1    2  501    0  0.12220420316E+02 -0.12610974989E+03  0.38704427292E+03  0.44247630094E+03  0.17300000000E+03 0. -1.
         -6    1    1    2    0  503 -0.12220420316E+02  0.12610974989E+03 -0.77116267724E+02  0.22787919264E+03  0.17300000000E+03 0. -1.
<mgrwt>
<rscale>  2 0.21443416E+03</rscale>
<asrwt>0</asrwt>
<pdfrwt beam="1">  1       21 0.75406423E-01 0.21443416E+03</pdfrwt>
<pdfrwt beam="2">  1       21 0.27725192E-01 0.21443416E+03</pdfrwt>
<totfact> 0.19253591E+04</totfact>
</mgrwt>
</event>
<event>
 4    1  0.3973261E+000  0.1776051E+03  0.7546771E-02  0.1170141E+00
         21   -1    0    0  501  502  0.00000000000E+00  0.00000000000E+00  0.10965845566E+03  0.10965845566E+03  0.00000000000E+00 0. -1.
         21   -1    0    0  502  503 -0.00000000000E+00 -0.00000000000E+00 -0.31452858620E+03  0.31452858620E+03  0.00000000000E+00 0. -1.
          6    1    1    2  501    0 -0.31922975500E+02 -0.24402823165E+02 -0.40437159343E+02  0.18215031704E+03  0.17300000000E+03 0. -1.
         -6    1    1    2    0  503  0.31922975500E+02  0.24402823165E+02 -0.16443297119E+03  0.24203672481E+03  0.17300000000E+03 0. -1.
<mgrwt>
<rscale>  2 0.17760511E+03</rscale>
<asrwt>0</asrwt>
<pdfrwt beam="1">  1       21 0.16870532E-01 0.17760511E+03</pdfrwt>
<pdfrwt beam="2">  1       21 0.48389013E-01 0.17760511E+03</pdfrwt>
<totfact> 0.12972873E+05</totfact>
</mgrwt>
</event>
<event>
 4    1  0.3973261E+000  0.3302896E+03  0.7546771E-02  0.1071009E+00
         21   -1    0    0  501  502  0.00000000000E+00  0.00000000000E+00  0.37372419346E+03  0.37372419346E+03  0.00000000000E+00 0.  1.
         21   -1    0    0  502  503 -0.00000000000E+00 -0.00000000000E+00 -0.29869169680E+03  0.29869169680E+03  0.00000000000E+00 0. -1.
          6    1    1    2  501    0 -0.27915714806E+03  0.35120856311E+02  0.88202686747E+02  0.34186386444E+03  0.17300000000E+03 0.  1.
         -6    1    1    2    0  503  0.27915714806E+03 -0.35120856311E+02 -0.13170190090E+02  0.33055202581E+03  0.17300000000E+03 0. -1.
<mgrwt>
<rscale>  2 0.33028955E+03</rscale>
<asrwt>0</asrwt>
<pdfrwt beam="1">  1       21 0.57496030E-01 0.33028955E+03</pdfrwt>
<pdfrwt beam="2">  1       21 0.45952569E-01 0.33028955E+03</pdfrwt>
<totfact> 0.12003362E+04</totfact>
</mgrwt>
</event>
<event>
 4    1  0.3973261E+000  0.1795481E+03  0.7546771E-02  0.1168241E+00
         21   -1    0    0  503  502  0.00000000000E+00  0.00000000000E+00  0.31652543406E+03  0.31652543406E+03  0.00000000000E+00 0. -1.
         21   -1    0    0  501  503 -0.00000000000E+00 -0.00000000000E+00 -0.10756459722E+03  0.10756459722E+03  0.00000000000E+00 0. -1.
          6    1    1    2  501    0  0.43823543912E+02 -0.19697875762E+02  0.15336354311E+03  0.23613107730E+03  0.17300000000E+03 0.  1.
         -6    1    1    2    0  502 -0.43823543912E+02  0.19697875762E+02  0.55597293729E+02  0.18795895398E+03  0.17300000000E+03 0.  1.
<mgrwt>
<rscale>  2 0.17954807E+03</rscale>
<asrwt>0</asrwt>
<pdfrwt beam="1">  1       21 0.48696220E-01 0.17954807E+03</pdfrwt>
<pdfrwt beam="2">  1       21 0.16548400E-01 0.17954807E+03</pdfrwt>
<totfact> 0.13255551E+05</totfact>
</mgrwt>
</event>
<event>
 4    1  0.3973261E+000  0.1955568E+03  0.7546771E-02  0.1153543E+00
         21   -1    0    0  503  502  0.00000000000E+00  0.00000000000E+00  0.55423104580E+03  0.55423104580E+03  0.00000000000E+00 0. -1.
         21   -1    0    0  501  503 -0.00000000000E+00 -0.00000000000E+00 -0.21618371783E+03  0.21618371783E+03  0.00000000000E+00 0. -1.
          6    1    1    2  501    0 -0.71774136863E+02  0.56230990649E+02 -0.14881859608E+03  0.24574260024E+03  0.17300000000E+03 0. -1.
         -6    1    1    2    0  502  0.71774136863E+02 -0.56230990649E+02  0.48686592406E+03  0.52467216339E+03  0.17300000000E+03 0. -1.
<mgrwt>
<rscale>  2 0.19555677E+03</rscale>
<asrwt>0</asrwt>
<pdfrwt beam="1">  1       21 0.85266314E-01 0.19555677E+03</pdfrwt>
<pdfrwt beam="2">  1       21 0.33259034E-01 0.19555677E+03</pdfrwt>
<totfact> 0.10336252E+04</totfact>
</mgrwt>
</event>
<event>
 4    1  0.3973261E+000  0.1772376E+03  0.7546771E-02  0.1170504E+00
         21   -1    0    0  501  502  0.00000000000E+00  0.00000000000E+00  0.10332486263E+03  0.10332486263E+03  0.00000000000E+00 0.  1.
         21   -1    0    0  502  503 -0.00000000000E+00 -0.00000000000E+00 -0.35405063791E+03  0.35405063791E+03  0.00000000000E+00 0.  1.
          6    1    1    2  501    0 -0.24994230841E+02  0.29316353444E+02 -0.39399377306E+02  0.18156395867E+03  0.17300000000E+03 0.  1.
         -6    1    1    2    0  503  0.24994230841E+02 -0.29316353444E+02 -0.21132639797E+03  0.27581154188E+03  0.17300000000E+03 0.  1.
<mgrwt>
<rscale>  2 0.17723758E+03</rscale>
<asrwt>0</asrwt>
<pdfrwt beam="1">  1       21 0.15896133E-01 0.17723758E+03</pdfrwt>
<pdfrwt beam="2">  1       21 0.54469329E-01 0.17723758E+03</pdfrwt>
<totfact> 0.11297939E+05</totfact>
</mgrwt>
</event>
<event>
 4    1  0.3973261E+000  0.1797257E+03  0.7546771E-02  0.1168069E+00
         21   -1    0    0  503  502  0.00000000000E+00  0.00000000000E+00  0.95398472119E+03  0.95398472119E+03  0.00000000000E+00 0.  1.
         21   -1    0    0  501  503 -0.00000000000E+00 -0.00000000000E+00 -0.34644917003E+02  0.34644917003E+02  0.00000000000E+00 0.  1.
          6    1    1    2  501    0 -0.30460029383E+02 -0.38006569841E+02  0.38523570006E+03  0.42509746805E+03  0.17300000000E+03 0.  1.
         -6    1    1    2    0  502  0.30460029383E+02  0.38006569841E+02  0.53410410413E+03  0.56353217015E+03  0.17300000000E+03 0.  1.
<mgrwt>
<rscale>  2 0.17972566E+03</rscale>
<asrwt>0</asrwt>
<pdfrwt beam="1">  1       21 0.14676686E+00 0.17972566E+03</pdfrwt>
<pdfrwt beam="2">  1       21 0.53299880E-02 0.17972566E+03</pdfrwt>
<totfact> 0.76876635E+04</totfact>
</mgrwt>
</event>
<event>
 4    1  0.3973261E+000  0.2366593E+03  0.7546771E-02  0.1122038E+00
         21   -1    0    0  503  502  0.00000000000E+00  0.00000000000E+00  0.14993856929E+03  0.14993856929E+03  0.00000000000E+00 0.  1.
         21   -1    0    0  501  503 -0.00000000000E+00 -0.00000000000E+00 -0.40469434063E+03  0.40469434063E+03  0.00000000000E+00 0.  1.
          6    1    1    2  501    0 -0.91639641762E+02 -0.13296921618E+03 -0.20432471513E+03  0.31265992005E+03  0.17300000000E+03 0.  1.
         -6    1    1    2    0  502  0.91639641762E+02  0.13296921618E+03 -0.50431056207E+02  0.24197298986E+03  0.17300000000E+03 0.  1.
<mgrwt>
<rscale>  2 0.23665933E+03</rscale>
<asrwt>0</asrwt>
<pdfrwt beam="1">  1       21 0.23067472E-01 0.23665933E+03</pdfrwt>
<pdfrwt beam="2">  1       21 0.62260668E-01 0.23665933E+03</pdfrwt>
<totfact> 0.41346598E+04</totfact>
</mgrwt>
</event>
<event>
 4    1  0.3973261E+000  0.2140553E+03  0.7546771E-02  0.1138394E+00
         21   -1    0    0  501  502  0.00000000000E+00  0.00000000000E+00  0.18480795070E+03  0.18480795070E+03  0.00000000000E+00 0.  1.
         21   -1    0    0  502  503 -0.00000000000E+00 -0.00000000000E+00 -0.37987384090E+03  0.37987384090E+03  0.00000000000E+00 0. -1.
          6    1    1    2  501    0  0.49785490983E+02 -0.11581058332E+03  0.68864410174E+02  0.22485994154E+03  0.17300000000E+03 0.  1.
         -6    1    1    2    0  503 -0.49785490983E+02  0.11581058332E+03 -0.26393030037E+03  0.33982185006E+03  0.17300000000E+03 0. -1.
<mgrwt>
<rscale>  2 0.21405533E+03</rscale>
<asrwt>0</asrwt>
<pdfrwt beam="1">  1       21 0.28431992E-01 0.21405533E+03</pdfrwt>
<pdfrwt beam="2">  1       21 0.58442129E-01 0.21405533E+03</pdfrwt>
<totfact> 0.32056446E+04</totfact>
</mgrwt>
</event>
<event>
 4    1  0.3973261E+000  0.1820805E+03  0.7546771E-02  0.1165805E+00
         21   -1    0    0  501  502  0.00000000000E+00  0.00000000000E+00  0.24465186363E+03  0.24465186363E+03  0.00000000000E+00 0. -1.
         21   -1    0    0  502  503 -0.00000000000E+00 -0.00000000000E+00 -0.13796959946E+03  0.13796959946E+03  0.00000000000E+00 0. -1.
          6    1    1    2  501    0  0.54606587729E+02  0.15570000503E+02  0.78873340204E+02  0.19842960498E+03  0.17300000000E+03 0.  1.
         -6    1    1    2    0  503 -0.54606587729E+02 -0.15570000503E+02  0.27808923961E+02  0.18419185810E+03  0.17300000000E+03 0.  1.
<mgrwt>
<rscale>  2 0.18208049E+03</rscale>
<asrwt>0</asrwt>
<pdfrwt beam="1">  1       21 0.37638748E-01 0.18208049E+03</pdfrwt>
<pdfrwt beam="2">  1       21 0.21226092E-01 0.18208049E+03</pdfrwt>
<totfact> 0.14105947E+05</totfact>
</mgrwt>
</event>
<event>
 4    1  0.3973261E+000  0.2138219E+03  0.7546771E-02  0.1138575E+00
         21   -1    0    0  501  502  0.00000000000E+00  0.00000000000E+00  0.66813515018E+03  0.66813515018E+03  0.00000000000E+00 0.  1.
         21   -1    0    0  502  503 -0.00000000000E+00 -0.00000000000E+00 -0.12675177906E+03  0.12675177906E+03  0.00000000000E+00 0.  1.
          6    1    1    2  501    0 -0.12057608349E+03 -0.35386471526E+02  0.54029025133E+03  0.58106225997E+03  0.17300000000E+03 0.  1.
         -6    1    1    2    0  503  0.12057608349E+03  0.35386471526E+02  0.10931197951E+01  0.21382466927E+03  0.17300000000E+03 0.  1.
<mgrwt>
<rscale>  2 0.21382188E+03</rscale>
<asrwt>0</asrwt>
<pdfrwt beam="1">  1       21 0.10279002E+00 0.21382188E+03</pdfrwt>
<pdfrwt beam="2">  1       21 0.19500274E-01 0.21382188E+03</pdfrwt>
<totfact> 0.18361306E+04</totfact>
</mgrwt>
</event>
<event>
 4    1  0.3973261E+000  0.2376973E+03  0.7546771E-02  0.1121336E+00
         21   -1    0    0  501  502  0.00000000000E+00  0.00000000000E+00  0.19401202177E+03  0.19401202177E+03  0.00000000000E+00 0. -1.
         21   -1    0    0  502  503 -0.00000000000E+00 -0.00000000000E+00 -0.30312004212E+03  0.30312004212E+03  0.00000000000E+00 0.  1.
          6    1    1    2  501    0 -0.56631960396E+02 -0.15285236510E+03 -0.53020608868E+01  0.23775646428E+03  0.17300000000E+03 0.  1.
         -6    1    1    2    0  503  0.56631960396E+02  0.15285236510E+03 -0.10380595946E+03  0.25937559961E+03  0.17300000000E+03 0. -1.
<mgrwt>
<rscale>  2 0.23769734E+03</rscale>
<asrwt>0</asrwt>
<pdfrwt beam="1">  1       21 0.29848003E-01 0.23769734E+03</pdfrwt>
<pdfrwt beam="2">  1       21 0.46633852E-01 0.23769734E+03</pdfrwt>
<totfact> 0.46406246E+04</totfact>
</mgrwt>
</event>
<event>
 4    1  0.3973261E+000  0.2299681E+03  0.7546771E-02  0.1126662E+00
         21   -1    0    0  503  502  0.00000000000E+00  0.00000000000E+00  0.18817490452E+03  0.18817490452E+03  0.00000000000E+00 0.  1.
         21   -1    0    0  501  503 -0.00000000000E+00 -0.00000000000E+00 -0.33549125556E+03  0.33549125556E+03  0.00000000000E+00 0. -1.
          6    1    1    2  501    0 -0.96351297135E+02 -0.11693060960E+03 -0.17913906245E+03  0.29150667851E+03  0.17300000000E+03 0. -1.
         -6    1    1    2    0  502  0.96351297135E+02  0.11693060960E+03  0.31822711404E+02  0.23215948157E+03  0.17300000000E+03 0. -1.
<mgrwt>
<rscale>  2 0.22996813E+03</rscale>
<asrwt>0</asrwt>
<pdfrwt beam="1">  1       21 0.28949986E-01 0.22996813E+03</pdfrwt>
<pdfrwt beam="2">  1       21 0.51614038E-01 0.22996813E+03</pdfrwt>
<totfact> 0.39983819E+04</totfact>
</mgrwt>
</event>
<event>
 4    1  0.3973261E+000  0.2136893E+03  0.7546771E-02  0.1138677E+00
         21   -1    0    0  503  502  0.00000000000E+00  0.00000000000E+00  0.26868985181E+02  0.26868985181E+02  0.00000000000E+00 0. -1.
         21   -1    0    0  501  503 -0.00000000000E+00 -0.00000000000E+00 -0.18071058983E+04  0.18071058983E+04  0.00000000000E+00 0.  1.
          6    1    1    2  501    0 -0.14201638322E+02  0.12462921062E+03 -0.11139097655E+04  0.11342213595E+04  0.17300000000E+03 0.  1.
         -6    1    1    2    0  502  0.14201638322E+02 -0.12462921062E+03 -0.66632714763E+03  0.69975352399E+03  0.17300000000E+03 0.  1.
<mgrwt>
<rscale>  2 0.21368932E+03</rscale>
<asrwt>0</asrwt>
<pdfrwt beam="1">  1       21 0.41336893E-02 0.21368932E+03</pdfrwt>
<pdfrwt beam="2">  1       21 0.27801634E+00 0.21368932E+03</pdfrwt>
<totfact> 0.16614728E+04</totfact>
</mgrwt>
</event>
<event>
 4    1  0.3973261E+000  0.1868624E+03  0.7546771E-02  0.1161322E+00
         21   -1    0    0  501  502  0.00000000000E+00  0.00000000000E+00  0.66981400355E+03  0.66981400355E+03  0.00000000000E+00 0.  1.
         21   -1    0    0  502  503 -0.00000000000E+00 -0.00000000000E+00 -0.54392480842E+02  0.54392480842E+02  0.00000000000E+00 0. -1.
          6    1    1    2  501    0 -0.58178908239E+02 -0.40047149802E+02  0.38155780995E+03  0.42485753130E+03  0.17300000000E+03 0.  1.
         -6    1    1    2    0  503  0.58178908239E+02  0.40047149802E+02  0.23386371276E+03  0.29934895309E+03  0.17300000000E+03 0. -1.
<mgrwt>
<rscale>  2 0.18686241E+03</rscale>
<asrwt>0</asrwt>
<pdfrwt beam="1">  1       21 0.10304830E+00 0.18686241E+03</pdfrwt>
<pdfrwt beam="2">  1       21 0.83680744E-02 0.18686241E+03</pdfrwt>
<totfact> 0.85004518E+04</totfact>
</mgrwt>
</event>
<event>
 4    1  0.3973261E+000  0.1796861E+03  0.7546771E-02  0.1168107E+00
         21   -1    0    0  501  502  0.00000000000E+00  0.00000000000E+00  0.10292829719E+04  0.10292829719E+04  0.00000000000E+00 0. -1.
         21   -1    0    0  502  503 -0.00000000000E+00 -0.00000000000E+00 -0.40375229238E+02  0.40375229238E+02  0.00000000000E+00 0. -1.
          6    1    1    2  501    0 -0.48504139020E+02 -0.23356548421E+01  0.74705777325E+03  0.76836347087E+03  0.17300000000E+03 0. -1.
         -6    1    1    2    0  503  0.48504139020E+02  0.23356548421E+01  0.24184996941E+03  0.30129473027E+03  0.17300000000E+03 0. -1.
<mgrwt>
<rscale>  2 0.17968613E+03</rscale>
<asrwt>0</asrwt>
<pdfrwt beam="1">  1       21 0.15835121E+00 0.17968613E+03</pdfrwt>
<pdfrwt beam="2">  1       21 0.62115745E-02 0.17968613E+03</pdfrwt>
<totfact> 0.48453945E+04</totfact>
</mgrwt>
</event>
<event>
 4    1  0.3973261E+000  0.1888210E+03  0.7546771E-02  0.1159529E+00
         21   -1    0    0  501  502  0.00000000000E+00  0.00000000000E+00  0.95737533420E+02  0.95737533420E+02  0.00000000000E+00 0. -1.
         21   -1    0    0  502  503 -0.00000000000E+00 -0.00000000000E+00 -0.65480437110E+03  0.65480437110E+03  0.00000000000E+00 0. -1.
          6    1    1    2  501    0 -0.75581800060E+02  0.34268056860E+01 -0.33088824116E+02  0.19169825711E+03  0.17300000000E+03 0. -1.
         -6    1    1    2    0  503  0.75581800060E+02 -0.34268056860E+01 -0.52597801356E+03  0.55884364741E+03  0.17300000000E+03 0. -1.
<mgrwt>
<rscale>  2 0.18882095E+03</rscale>
<asrwt>0</asrwt>
<pdfrwt beam="1">  1       21 0.14728852E-01 0.18882095E+03</pdfrwt>
<pdfrwt beam="2">  1       21 0.10073913E+00 0.18882095E+03</pdfrwt>
<totfact> 0.32783239E+04</totfact>
</mgrwt>
</event>
<event>
 4    1  0.3973261E+000  0.1932492E+03  0.7546771E-02  0.1155563E+00
         21   -1    0    0  503  502  0.00000000000E+00  0.00000000000E+00  0.52852730762E+02  0.52852730762E+02  0.00000000000E+00 0.  1.
         21   -1    0    0  501  503 -0.00000000000E+00 -0.00000000000E+00 -0.85501255938E+03  0.85501255938E+03  0.00000000000E+00 0.  1.
          6    1    1    2  501    0 -0.55233992872E+02  0.66071700489E+02 -0.59020697504E+03  0.62103907845E+03  0.17300000000E+03 0. -1.
         -6    1    1    2    0  502  0.55233992872E+02 -0.66071700489E+02 -0.21195285358E+03  0.28682621169E+03  0.17300000000E+03 0. -1.
<mgrwt>
<rscale>  2 0.19324923E+03</rscale>
<asrwt>0</asrwt>
<pdfrwt beam="1">  1       21 0.81311894E-02 0.19324923E+03</pdfrwt>
<pdfrwt beam="2">  1       21 0.13154039E+00 0.19324923E+03</pdfrwt>
<totfact> 0.48930852E+04</totfact>
</mgrwt>
</event>
<event>
 4    1  0.3973261E+000  0.1969838E+03  0.7546771E-02  0.1152309E+00
         21   -1    0    0  503  502  0.00000000000E+00  0.00000000000E+00  0.13393373138E+03  0.13393373138E+03  0.00000000000E+00 0.  1.
         21   -1    0    0  501  503 -0.00000000000E+00 -0.00000000000E+00 -0.35143538745E+03  0.35143538745E+03  0.00000000000E+00 0.  1.
          6    1    1    2  501    0 -0.60566070814E+02 -0.72148225154E+02 -0.21045379163E+03  0.28825928214E+03  0.17300000000E+03 0.  1.
         -6    1    1    2    0  502  0.60566070814E+02  0.72148225154E+02 -0.70478644450E+01  0.19710983669E+03  0.17300000000E+03 0.  1.
<mgrwt>
<rscale>  2 0.19698379E+03</rscale>
<asrwt>0</asrwt>
<pdfrwt beam="1">  1       21 0.20605189E-01 0.19698379E+03</pdfrwt>
<pdfrwt beam="2">  1       21 0.54066983E-01 0.19698379E+03</pdfrwt>
<totfact> 0.70466484E+04</totfact>
</mgrwt>
</event>
<event>
 4    1  0.3973261E+000  0.1827547E+03  0.7546771E-02  0.1165163E+00
         21   -1    0    0  501  502  0.00000000000E+00  0.00000000000E+00  0.62666683297E+03  0.62666683297E+03  0.00000000000E+00 0.  1.
         21   -1    0    0  502  503 -0.00000000000E+00 -0.00000000000E+00 -0.54436988757E+02  0.54436988757E+02  0.00000000000E+00 0. -1.
          6    1    1    2  501    0  0.11381487292E+02 -0.57799085771E+02  0.33540326196E+03  0.38196154349E+03  0.17300000000E+03 0. -1.
         -6    1    1    2    0  503 -0.11381487292E+02  0.57799085771E+02  0.23682658225E+03  0.29914227824E+03  0.17300000000E+03 0. -1.
<mgrwt>
<rscale>  2 0.18275468E+03</rscale>
<asrwt>0</asrwt>
<pdfrwt beam="1">  1       21 0.96410277E-01 0.18275468E+03</pdfrwt>
<pdfrwt beam="2">  1       21 0.83749218E-02 0.18275468E+03</pdfrwt>
<totfact> 0.99547855E+04</totfact>
</mgrwt>
</event>
<event>
 4    1  0.3973261E+000  0.2951079E+03  0.7546771E-02  0.1087712E+00
         21   -1    0    0  501  502  0.00000000000E+00  0.00000000000E+00  0.39673768761E+03  0.39673768761E+03  0.00000000000E+00 0. -1.
         21   -1    0    0  502  503 -0.00000000000E+00 -0.00000000000E+00 -0.42393959985E+03  0.42393959985E+03  0.00000000000E+00 0.  1.
          6    1    1    2  501    0 -0.22468822012E+03 -0.81699974074E+02  0.27134348842E+03  0.40089396445E+03  0.17300000000E+03 0. -1.
         -6    1    1    2    0  503  0.22468822012E+03  0.81699974074E+02 -0.29854540066E+03  0.41978332301E+03  0.17300000000E+03 0.  1.
<mgrwt>
<rscale>  2 0.29510792E+03</rscale>
<asrwt>0</asrwt>
<pdfrwt beam="1">  1       21 0.61036567E-01 0.29510792E+03</pdfrwt>
<pdfrwt beam="2">  1       21 0.65221477E-01 0.29510792E+03</pdfrwt>
<totfact> 0.50614368E+03</totfact>
</mgrwt>
</event>
<event>
 4    1  0.3973261E+000  0.2496514E+03  0.7546771E-02  0.1113525E+00
         21   -1    0    0  503  502  0.00000000000E+00  0.00000000000E+00  0.60059239893E+03  0.60059239893E+03  0.00000000000E+00 0. -1.
         21   -1    0    0  501  503 -0.00000000000E+00 -0.00000000000E+00 -0.19524061644E+03  0.19524061644E+03  0.00000000000E+00 0. -1.
          6    1    1    2  501    0  0.90320290543E+02 -0.15568895931E+03 -0.69681050952E+02  0.25919347175E+03  0.17300000000E+03 0. -1.
         -6    1    1    2    0  502 -0.90320290543E+02  0.15568895931E+03  0.47503283344E+03  0.53663954362E+03  0.17300000000E+03 0. -1.
<mgrwt>
<rscale>  2 0.24965137E+03</rscale>
<asrwt>0</asrwt>
<pdfrwt beam="1">  1       21 0.92398830E-01 0.24965137E+03</pdfrwt>
<pdfrwt beam="2">  1       21 0.30037018E-01 0.24965137E+03</pdfrwt>
<totfact> 0.10134880E+04</totfact>
</mgrwt>
</event>
<event>
 4    1  0.3973261E+000  0.2598170E+03  0.7546771E-02  0.1107253E+00
         21   -1    0    0  503  502  0.00000000000E+00  0.00000000000E+00  0.18515599340E+03  0.18515599340E+03  0.00000000000E+00 0. -1.
         21   -1    0    0  501  503 -0.00000000000E+00 -0.00000000000E+00 -0.43373527890E+03  0.43373527890E+03  0.00000000000E+00 0. -1.
          6    1    1    2  501    0 -0.16366001292E+03 -0.10388109935E+03 -0.24784813688E+03  0.35907322594E+03  0.17300000000E+03 0. -1.
         -6    1    1    2    0  502  0.16366001292E+03  0.10388109935E+03 -0.73114861889E+00  0.25981804635E+03  0.17300000000E+03 0. -1.
<mgrwt>
<rscale>  2 0.25981702E+03</rscale>
<asrwt>0</asrwt>
<pdfrwt beam="1">  1       21 0.28485538E-01 0.25981702E+03</pdfrwt>
<pdfrwt beam="2">  1       21 0.66728504E-01 0.25981702E+03</pdfrwt>
<totfact> 0.23423336E+04</totfact>
</mgrwt>
</event>
<event>
 4    1  0.3973261E+000  0.2068479E+03  0.7546771E-02  0.1144087E+00
         21   -1    0    0  501  502  0.00000000000E+00  0.00000000000E+00  0.81207596918E+02  0.81207596918E+02  0.00000000000E+00 0.  1.
         21   -1    0    0  502  503 -0.00000000000E+00 -0.00000000000E+00 -0.64463934704E+03  0.64463934704E+03  0.00000000000E+00 0. -1.
          6    1    1    2  501    0 -0.99311303364E+02  0.54720518067E+02 -0.12659590539E+03  0.24251307869E+03  0.17300000000E+03 0.  1.
         -6    1    1    2    0  503  0.99311303364E+02 -0.54720518067E+02 -0.43683584473E+03  0.48333386527E+03  0.17300000000E+03 0. -1.
<mgrwt>
<rscale>  2 0.20684794E+03</rscale>
<asrwt>0</asrwt>
<pdfrwt beam="1">  1       21 0.12493477E-01 0.20684794E+03</pdfrwt>
<pdfrwt beam="2">  1       21 0.99175278E-01 0.20684794E+03</pdfrwt>
<totfact> 0.45369968E+04</totfact>
</mgrwt>
</event>
<event>
 4    1  0.3973261E+000  0.2091982E+03  0.7546771E-02  0.1142203E+00
         21   -1    0    0  503  502  0.00000000000E+00  0.00000000000E+00  0.80774785270E+02  0.80774785270E+02  0.00000000000E+00 0. -1.
         21   -1    0    0  501  503 -0.00000000000E+00 -0.00000000000E+00 -0.57730768027E+03  0.57730768027E+03  0.00000000000E+00 0. -1.
          6    1    1    2  501    0 -0.10103281381E+03 -0.60226576607E+02 -0.32986846402E+03  0.39061115390E+03  0.17300000000E+03 0. -1.
         -6    1    1    2    0  502  0.10103281381E+03  0.60226576607E+02 -0.16666443099E+03  0.26747131164E+03  0.17300000000E+03 0. -1.
<mgrwt>
<rscale>  2 0.20919816E+03</rscale>
<asrwt>0</asrwt>
<pdfrwt beam="1">  1       21 0.12426890E-01 0.20919816E+03</pdfrwt>
<pdfrwt beam="2">  1       21 0.88816565E-01 0.20919816E+03</pdfrwt>
<totfact> 0.59233860E+04</totfact>
</mgrwt>
</event>
<event>
 4    1  0.3973261E+000  0.3070142E+03  0.7546771E-02  0.1081786E+00
         21   -1    0    0  503  502  0.00000000000E+00  0.00000000000E+00  0.91920784453E+03  0.91920784453E+03  0.00000000000E+00 0.  1.
         21   -1    0    0  501  503 -0.00000000000E+00 -0.00000000000E+00 -0.10635310248E+03  0.10635310248E+03  0.00000000000E+00 0. -1.
          6    1    1    2  501    0 -0.10704895661E+03  0.22993309781E+03  0.30936223848E+03  0.43584710986E+03  0.17300000000E+03 0. -1.
         -6    1    1    2    0  502  0.10704895661E+03 -0.22993309781E+03  0.50349250357E+03  0.58971383715E+03  0.17300000000E+03 0.  1.
<mgrwt>
<rscale>  2 0.30701418E+03</rscale>
<asrwt>0</asrwt>
<pdfrwt beam="1">  1       21 0.14141659E+00 0.30701418E+03</pdfrwt>
<pdfrwt beam="2">  1       21 0.16362016E-01 0.30701418E+03</pdfrwt>
<totfact> 0.10903864E+04</totfact>
</mgrwt>
</event>
<event>
 4    1  0.3973261E+000  0.1821977E+03  0.7546771E-02  0.1165693E+00
         21   -1    0    0  501  502  0.00000000000E+00  0.00000000000E+00  0.54229095742E+03  0.54229095742E+03  0.00000000000E+00 0.  1.
         21   -1    0    0  502  503 -0.00000000000E+00 -0.00000000000E+00 -0.62310358107E+02  0.62310358107E+02  0.00000000000E+00 0.  1.
          6    1    1    2  501    0  0.49525520701E+02  0.28534360019E+02  0.28008310305E+03  0.33412951309E+03  0.17300000000E+03 0.  1.
         -6    1    1    2    0  503 -0.49525520701E+02 -0.28534360019E+02  0.19989749626E+03  0.27047180244E+03  0.17300000000E+03 0.  1.
<mgrwt>
<rscale>  2 0.18219766E+03</rscale>
<asrwt>0</asrwt>
<pdfrwt beam="1">  1       21 0.83429375E-01 0.18219766E+03</pdfrwt>
<pdfrwt beam="2">  1       21 0.95862093E-02 0.18219766E+03</pdfrwt>
<totfact> 0.10975533E+05</totfact>
</mgrwt>
</event>
<event>
 4    1  0.3973261E+000  0.2891619E+03  0.7546771E-02  0.1090788E+00
         21   -1    0    0  503  502  0.00000000000E+00  0.00000000000E+00  0.11946360626E+04  0.11946360626E+04  0.00000000000E+00 0.  1.
         21   -1    0    0  501  503 -0.00000000000E+00 -0.00000000000E+00 -0.70013591645E+02  0.70013591645E+02  0.00000000000E+00 0.  1.
          6    1    1    2  501    0  0.14168702339E+03  0.18333141864E+03  0.57348970395E+03  0.64226556984E+03  0.17300000000E+03 0.  1.
         -6    1    1    2    0  502 -0.14168702339E+03 -0.18333141864E+03  0.55113276700E+03  0.62238408441E+03  0.17300000000E+03 0.  1.
<mgrwt>
<rscale>  2 0.28916193E+03</rscale>
<asrwt>0</asrwt>
<pdfrwt beam="1">  1       21 0.18379015E+00 0.28916193E+03</pdfrwt>
<pdfrwt beam="2">  1       21 0.10771323E-01 0.28916193E+03</pdfrwt>
<totfact> 0.11448581E+04</totfact>
</mgrwt>
</event>
<event>
 4    1  0.3973261E+000  0.2274074E+03  0.7546771E-02  0.1128478E+00
         21   -1    0    0  501  502  0.00000000000E+00  0.00000000000E+00  0.12850080831E+04  0.12850080831E+04  0.00000000000E+00 0. -1.
         21   -1    0    0  502  503 -0.00000000000E+00 -0.00000000000E+00 -0.42186527900E+02  0.42186527900E+02  0.00000000000E+00 0. -1.
          6    1    1    2  501    0  0.14752084124E+03  0.47678755559E+01  0.76380036084E+03  0.79693482950E+03  0.17300000000E+03 0. -1.
         -6    1    1    2    0  503 -0.14752084124E+03 -0.47678755559E+01  0.47902119434E+03  0.53025978149E+03  0.17300000000E+03 0. -1.
<mgrwt>
<rscale>  2 0.22740741E+03</rscale>
<asrwt>0</asrwt>
<pdfrwt beam="1">  1       21 0.19769352E+00 0.22740741E+03</pdfrwt>
<pdfrwt beam="2">  1       21 0.64902360E-02 0.22740741E+03</pdfrwt>
<totfact> 0.23364865E+04</totfact>
</mgrwt>
</event>
<event>
 4    1  0.3973261E+000  0.1754344E+03  0.7546771E-02  0.1172296E+00
         21   -1    0    0  503  502  0.00000000000E+00  0.00000000000E+00  0.13040750206E+04  0.13040750206E+04  0.00000000000E+00 0.  1.
         21   -1    0    0  501  503 -0.00000000000E+00 -0.00000000000E+00 -0.30049027584E+02  0.30049027584E+02  0.00000000000E+00 0.  1.
          6    1    1    2  501    0  0.28830819837E+02 -0.41247485440E+01  0.32800425044E+03  0.37197314155E+03  0.17300000000E+03 0.  1.
         -6    1    1    2    0  502 -0.28830819837E+02  0.41247485440E+01  0.94602174258E+03  0.96215090664E+03  0.17300000000E+03 0.  1.
<mgrwt>
<rscale>  2 0.17543440E+03</rscale>
<asrwt>0</asrwt>
<pdfrwt beam="1">  1       21 0.20062688E+00 0.17543440E+03</pdfrwt>
<pdfrwt beam="2">  1       21 0.46229283E-02 0.17543440E+03</pdfrwt>
<totfact> 0.41349968E+04</totfact>
</mgrwt>
</event>
<event>
 4    1  0.3973261E+000  0.2351663E+03  0.7546771E-02  0.1123055E+00
         21   -1    0    0  501  502  0.00000000000E+00  0.00000000000E+00  0.19675720436E+03  0.19675720436E+03  0.00000000000E+00 0. -1.
         21   -1    0    0  502  503 -0.00000000000E+00 -0.00000000000E+00 -0.31344054152E+03  0.31344054152E+03  0.00000000000E+00 0. -1.
          6    1    1    2  501    0 -0.14380330908E+03 -0.68518452952E+02  0.23633950956E+02  0.23635086997E+03  0.17300000000E+03 0. -1.
         -6    1    1    2    0  503  0.14380330908E+03  0.68518452952E+02 -0.14031728812E+03  0.27384687591E+03  0.17300000000E+03 0. -1.
<mgrwt>
<rscale>  2 0.23516626E+03</rscale>
<asrwt>0</asrwt>
<pdfrwt beam="1">  1       21 0.30270339E-01 0.23516626E+03</pdfrwt>
<pdfrwt beam="2">  1       21 0.48221621E-01 0.23516626E+03</pdfrwt>
<totfact> 0.42155417E+04</totfact>
</mgrwt>
</event>
<event>
 4    1  0.3973261E+000  0.1795997E+03  0.7546771E-02  0.1168191E+00
         21   -1    0    0  503  502  0.00000000000E+00  0.00000000000E+00  0.96826558706E+03  0.96826558706E+03  0.00000000000E+00 0.  1.
         21   -1    0    0  501  503 -0.00000000000E+00 -0.00000000000E+00 -0.35459405540E+02  0.35459405540E+02  0.00000000000E+00 0.  1.
          6    1    1    2  501    0  0.29996171514E+02  0.37779266096E+02  0.34293555455E+03  0.38711863534E+03  0.17300000000E+03 0.  1.
         -6    1    1    2    0  502 -0.29996171514E+02 -0.37779266096E+02  0.58987062697E+03  0.61660635726E+03  0.17300000000E+03 0.  1.
<mgrwt>
<rscale>  2 0.17959967E+03</rscale>
<asrwt>0</asrwt>
<pdfrwt beam="1">  1       21 0.14896392E+00 0.17959967E+03</pdfrwt>
<pdfrwt beam="2">  1       21 0.54552939E-02 0.17959967E+03</pdfrwt>
<totfact> 0.71088947E+04</totfact>
</mgrwt>
</event>
<event>
 4    1  0.3973261E+000  0.2477345E+03  0.7546771E-02  0.1114745E+00
         21   -1    0    0  503  502  0.00000000000E+00  0.00000000000E+00  0.62691296824E+02  0.62691296824E+02  0.00000000000E+00 0. -1.
         21   -1    0    0  501  503 -0.00000000000E+00 -0.00000000000E+00 -0.18783727441E+04  0.18783727441E+04  0.00000000000E+00 0. -1.
          6    1    1    2  501    0  0.93338424508E+02  0.15076903266E+03 -0.15794213335E+04  0.15987320324E+04  0.17300000000E+03 0. -1.
         -6    1    1    2    0  502 -0.93338424508E+02 -0.15076903266E+03 -0.23626011377E+03  0.34233200852E+03  0.17300000000E+03 0. -1.
<mgrwt>
<rscale>  2 0.24773446E+03</rscale>
<asrwt>0</asrwt>
<pdfrwt beam="1">  1       21 0.96448159E-02 0.24773446E+03</pdfrwt>
<pdfrwt beam="2">  1       21 0.28898039E+00 0.24773446E+03</pdfrwt>
<totfact> 0.32246276E+03</totfact>
</mgrwt>
</event>
<event>
 4    1  0.3973261E+000  0.2089130E+03  0.7546771E-02  0.1142430E+00
         21   -1    0    0  501  502  0.00000000000E+00  0.00000000000E+00  0.38566501264E+03  0.38566501264E+03  0.00000000000E+00 0. -1.
         21   -1    0    0  502  503 -0.00000000000E+00 -0.00000000000E+00 -0.16426102908E+03  0.16426102908E+03  0.00000000000E+00 0. -1.
          6    1    1    2  501    0  0.10897894676E+03 -0.42886436350E+02  0.26405452048E+03  0.33670379720E+03  0.17300000000E+03 0. -1.
         -6    1    1    2    0  503 -0.10897894676E+03  0.42886436350E+02 -0.42650536928E+02  0.21322224452E+03  0.17300000000E+03 0. -1.
<mgrwt>
<rscale>  2 0.20891304E+03</rscale>
<asrwt>0</asrwt>
<pdfrwt beam="1">  1       21 0.59333078E-01 0.20891304E+03</pdfrwt>
<pdfrwt beam="2">  1       21 0.25270928E-01 0.20891304E+03</pdfrwt>
<totfact> 0.39052179E+04</totfact>
</mgrwt>
</event>
<event>
 4    1  0.3973261E+000  0.2389501E+03  0.7546771E-02  0.1120494E+00
         21   -1    0    0  501  502  0.00000000000E+00  0.00000000000E+00  0.87797946594E+02  0.87797946594E+02  0.00000000000E+00 0. -1.
         21   -1    0    0  502  503 -0.00000000000E+00 -0.00000000000E+00 -0.65577520411E+03  0.65577520411E+03  0.00000000000E+00 0. -1.
          6    1    1    2  501    0 -0.50976799054E+02  0.15674662797E+03 -0.25009251508E+03  0.34589507877E+03  0.17300000000E+03 0. -1.
         -6    1    1    2    0  503  0.50976799054E+02 -0.15674662797E+03 -0.31788474243E+03  0.39767807193E+03  0.17300000000E+03 0. -1.
<mgrwt>
<rscale>  2 0.23895008E+03</rscale>
<asrwt>0</asrwt>
<pdfrwt beam="1">  1       21 0.13507376E-01 0.23895008E+03</pdfrwt>
<pdfrwt beam="2">  1       21 0.10088849E+00 0.23895008E+03</pdfrwt>
<totfact> 0.37243105E+04</totfact>
</mgrwt>
</event>
<event>
 4    1  0.3973261E+000  0.2051086E+03  0.7546771E-02  0.1145499E+00
         21   -1    0    0  503  502  0.00000000000E+00  0.00000000000E+00  0.31632669970E+03  0.31632669970E+03  0.00000000000E+00 0. -1.
         21   -1    0    0  501  503 -0.00000000000E+00 -0.00000000000E+00 -0.16345763775E+03  0.16345763775E+03  0.00000000000E+00 0. -1.
          6    1    1    2  501    0 -0.51655949515E+02 -0.97325327389E+02 -0.27128384177E+02  0.20689491463E+03  0.17300000000E+03 0. -1.
         -6    1    1    2    0  502  0.51655949515E+02  0.97325327389E+02  0.17999744614E+03  0.27288942282E+03  0.17300000000E+03 0. -1.
<mgrwt>
<rscale>  2 0.20510865E+03</rscale>
<asrwt>0</asrwt>
<pdfrwt beam="1">  1       21 0.48665646E-01 0.20510865E+03</pdfrwt>
<pdfrwt beam="2">  1       21 0.25147329E-01 0.20510865E+03</pdfrwt>
<totfact> 0.60027137E+04</totfact>
</mgrwt>
</event>
<event>
 4    1  0.3973261E+000  0.2334648E+03  0.7546771E-02  0.1124225E+00
         21   -1    0    0  501  502  0.00000000000E+00  0.00000000000E+00  0.69758591048E+02  0.69758591048E+02  0.00000000000E+00 0.  1.
         21   -1    0    0  502  503 -0.00000000000E+00 -0.00000000000E+00 -0.86248210258E+03  0.86248210258E+03  0.00000000000E+00 0. -1.
          6    1    1    2  501    0  0.57293602123E+02 -0.14592552011E+03 -0.25339939362E+03  0.34455343120E+03  0.17300000000E+03 0. -1.
         -6    1    1    2    0  503 -0.57293602123E+02  0.14592552011E+03 -0.53932411792E+03  0.58768726243E+03  0.17300000000E+03 0.  1.
<mgrwt>
<rscale>  2 0.23346480E+03</rscale>
<asrwt>0</asrwt>
<pdfrwt beam="1">  1       21 0.10732091E-01 0.23346480E+03</pdfrwt>
<pdfrwt beam="2">  1       21 0.13268955E+00 0.23346480E+03</pdfrwt>
<totfact> 0.28705913E+04</totfact>
</mgrwt>
</event>
<event>
 4    1  0.3973261E+000  0.2288980E+03  0.7546771E-02  0.1127418E+00
         21   -1    0    0  501  502  0.00000000000E+00  0.00000000000E+00  0.24799460028E+03  0.24799460028E+03  0.00000000000E+00 0. -1.
         21   -1    0    0  502  503 -0.00000000000E+00 -0.00000000000E+00 -0.22431410860E+03  0.22431410860E+03  0.00000000000E+00 0.  1.
          6    1    1    2  501    0  0.65793544614E+02 -0.13467188749E+03  0.68783471595E+02  0.23900935914E+03  0.17300000000E+03 0.  1.
         -6    1    1    2    0  503 -0.65793544614E+02  0.13467188749E+03 -0.45102979914E+02  0.23329934974E+03  0.17300000000E+03 0.  1.
<mgrwt>
<rscale>  2 0.22889803E+03</rscale>
<asrwt>0</asrwt>
<pdfrwt beam="1">  1       21 0.38153016E-01 0.22889803E+03</pdfrwt>
<pdfrwt beam="2">  1       21 0.34509863E-01 0.22889803E+03</pdfrwt>
<totfact> 0.52730435E+04</totfact>
</mgrwt>
</event>
<event>
 4    1  0.3973261E+000  0.4247039E+03  0.7546771E-02  0.1035546E+00
         21   -1    0    0  503  502  0.00000000000E+00  0.00000000000E+00  0.13038782481E+04  0.13038782481E+04  0.00000000000E+00 0. -1.
         21   -1    0    0  501  503 -0.00000000000E+00 -0.00000000000E+00 -0.23710069590E+03  0.23710069590E+03  0.00000000000E+00 0.  1.
          6    1    1    2  501    0  0.33966725765E+03  0.18727143994E+03  0.36108848796E+02  0.42623618699E+03  0.17300000000E+03 0.  1.
         -6    1    1    2    0  502 -0.33966725765E+03 -0.18727143994E+03  0.10306687034E+04  0.11147427570E+04  0.17300000000E+03 0. -1.
<mgrwt>
<rscale>  2 0.42470394E+03</rscale>
<asrwt>0</asrwt>
<pdfrwt beam="1">  1       21 0.20059665E+00 0.42470394E+03</pdfrwt>
<pdfrwt beam="2">  1       21 0.36477031E-01 0.42470394E+03</pdfrwt>
<totfact> 0.81127485E+02</totfact>
</mgrwt>
</event>
<event>
 4    1  0.3973261E+000  0.2379656E+03  0.7546771E-02  0.1121156E+00
         21   -1    0    0  503  502  0.00000000000E+00  0.00000000000E+00  0.39417264471E+03  0.39417264471E+03  0.00000000000E+00 0. -1.
         21   -1    0    0  501  503 -0.00000000000E+00 -0.00000000000E+00 -0.14517777067E+03  0.14517777067E+03  0.00000000000E+00 0.  1.
          6    1    1    2  501    0 -0.15759677653E+03 -0.43149807709E+02  0.96942421395E+02  0.25695424290E+03  0.17300000000E+03 0. -1.
         -6    1    1    2    0  502  0.15759677653E+03  0.43149807709E+02  0.15205245264E+03  0.28239617248E+03  0.17300000000E+03 0. -1.
<mgrwt>
<rscale>  2 0.23796565E+03</rscale>
<asrwt>0</asrwt>
<pdfrwt beam="1">  1       21 0.60641945E-01 0.23796565E+03</pdfrwt>
<pdfrwt beam="2">  1       21 0.22335042E-01 0.23796565E+03</pdfrwt>
<totfact> 0.46517663E+04</totfact>
</mgrwt>
</event>
<event>
 4    1  0.3973261E+000  0.1738385E+03  0.7546771E-02  0.1173903E+00
         21   -1    0    0  503  502  0.00000000000E+00  0.00000000000E+00  0.16067479308E+04  0.16067479308E+04  0.00000000000E+00 0. -1.
         21   -1    0    0  501  503 -0.00000000000E+00 -0.00000000000E+00 -0.37219914500E+02  0.37219914500E+02  0.00000000000E+00 0. -1.
          6    1    1    2  501    0  0.46745437560E+01  0.16400130005E+02  0.20663551477E+03  0.27003342680E+03  0.17300000000E+03 0. -1.
         -6    1    1    2    0  502 -0.46745437560E+01 -0.16400130005E+02  0.13628925015E+04  0.13739344185E+04  0.17300000000E+03 0. -1.
<mgrwt>
<rscale>  2 0.17383848E+03</rscale>
<asrwt>0</asrwt>
<pdfrwt beam="1">  1       21 0.24719194E+00 0.17383848E+03</pdfrwt>
<pdfrwt beam="2">  1       21 0.57261419E-02 0.17383848E+03</pdfrwt>
<totfact> 0.15014381E+04</totfact>
</mgrwt>
</event>
<event>
 4    1  0.3973261E+000  0.1886646E+03  0.7546771E-02  0.1159671E+00
         21   -1    0    0  501  502  0.00000000000E+00  0.00000000000E+00  0.14756683501E+03  0.14756683501E+03  0.00000000000E+00 0.  1.
         21   -1    0    0  502  503 -0.00000000000E+00 -0.00000000000E+00 -0.27163954890E+03  0.27163954890E+03  0.00000000000E+00 0.  1.
          6    1    1    2  501    0 -0.17455552872E+02 -0.73216392768E+02  0.81191409064E+01  0.18883923571E+03  0.17300000000E+03 0.  1.
         -6    1    1    2    0  503  0.17455552872E+02  0.73216392768E+02 -0.13219185480E+03  0.23036714820E+03  0.17300000000E+03 0.  1.
<mgrwt>
<rscale>  2 0.18866461E+03</rscale>
<asrwt>0</asrwt>
<pdfrwt beam="1">  1       21 0.22702590E-01 0.18866461E+03</pdfrwt>
<pdfrwt beam="2">  1       21 0.41790700E-01 0.18866461E+03</pdfrwt>
<totfact> 0.10041866E+05</totfact>
</mgrwt>
</event>
<event>
 4    1  0.3973261E+000  0.2115999E+03  0.7546771E-02  0.1140305E+00
         21   -1    0    0  501  502  0.00000000000E+00  0.00000000000E+00  0.20706064744E+03  0.20706064744E+03  0.00000000000E+00 0.  1.
         21   -1    0    0  502  503 -0.00000000000E+00 -0.00000000000E+00 -0.24617039074E+03  0.24617039074E+03  0.00000000000E+00 0.  1.
          6    1    1    2  501    0  0.10899850102E+03  0.54450563478E+02  0.59465114522E+02  0.21979680829E+03  0.17300000000E+03 0.  1.
         -6    1    1    2    0  503 -0.10899850102E+03 -0.54450563478E+02 -0.98574857822E+02  0.23343422989E+03  0.17300000000E+03 0.  1.
<mgrwt>
<rscale>  2 0.21159995E+03</rscale>
<asrwt>0</asrwt>
<pdfrwt beam="1">  1       21 0.31855484E-01 0.21159995E+03</pdfrwt>
<pdfrwt beam="2">  1       21 0.37872368E-01 0.21159995E+03</pdfrwt>
<totfact> 0.63170959E+04</totfact>
</mgrwt>
</event>
<event>
 4    1  0.3973261E+000  0.2490052E+03  0.7546771E-02  0.1113935E+00
         21   -1    0    0  501  502  0.00000000000E+00  0.00000000000E+00  0.54737986233E+03  0.54737986233E+03  0.00000000000E+00 0.  1.
         21   -1    0    0  502  503 -0.00000000000E+00 -0.00000000000E+00 -0.17009594098E+03  0.17009594098E+03  0.00000000000E+00 0. -1.
          6    1    1    2  501    0 -0.15356440436E+03  0.92155058144E+02  0.39598554089E+03  0.46776931240E+03  0.17300000000E+03 0.  1.
         -6    1    1    2    0  503  0.15356440436E+03 -0.92155058144E+02 -0.18701619538E+02  0.24970649091E+03  0.17300000000E+03 0. -1.
<mgrwt>
<rscale>  2 0.24900518E+03</rscale>
<asrwt>0</asrwt>
<pdfrwt beam="1">  1       21 0.84212286E-01 0.24900518E+03</pdfrwt>
<pdfrwt beam="2">  1       21 0.26168607E-01 0.24900518E+03</pdfrwt>
<totfact> 0.16444735E+04</totfact>
</mgrwt>
</event>
<event>
 4    1  0.3973261E+000  0.1967317E+03  0.7546771E-02  0.1152526E+00
         21   -1    0    0  501  502  0.00000000000E+00  0.00000000000E+00  0.35206243159E+02  0.35206243159E+02  0.00000000000E+00 0. -1.
         21   -1    0    0  502  503 -0.00000000000E+00 -0.00000000000E+00 -0.17905204332E+04  0.17905204332E+04  0.00000000000E+00 0. -1.
          6    1    1    2  501    0 -0.93601083350E+02  0.36329190358E+01 -0.31048578300E+03  0.36756602448E+03  0.17300000000E+03 0. -1.
         -6    1    1    2    0  503  0.93601083350E+02 -0.36329190358E+01 -0.14448284071E+04  0.14581606519E+04  0.17300000000E+03 0. -1.
<mgrwt>
<rscale>  2 0.19673170E+03</rscale>
<asrwt>0</asrwt>
<pdfrwt beam="1">  1       21 0.54163422E-02 0.19673170E+03</pdfrwt>
<pdfrwt beam="2">  1       21 0.27546483E+00 0.19673170E+03</pdfrwt>
<totfact> 0.11053338E+04</totfact>
</mgrwt>
</event>
<event>
 4    1  0.3973261E+000  0.2134357E+03  0.7546771E-02  0.1138874E+00
         21   -1    0    0  503  502  0.00000000000E+00  0.00000000000E+00  0.50267929943E+03  0.50267929943E+03  0.00000000000E+00 0.  1.
         21   -1    0    0  501  503 -0.00000000000E+00 -0.00000000000E+00 -0.94031675205E+02  0.94031675205E+02  0.00000000000E+00 0.  1.
          6    1    1    2  501    0 -0.86467571972E+02 -0.90272576599E+02  0.26112138933E+03  0.33725236701E+03  0.17300000000E+03 0.  1.
         -6    1    1    2    0  502  0.86467571972E+02  0.90272576599E+02  0.14752623490E+03  0.25945860763E+03  0.17300000000E+03 0.  1.
<mgrwt>
<rscale>  2 0.21343566E+03</rscale>
<asrwt>0</asrwt>
<pdfrwt beam="1">  1       21 0.77335275E-01 0.21343566E+03</pdfrwt>
<pdfrwt beam="2">  1       21 0.14466412E-01 0.21343566E+03</pdfrwt>
<totfact> 0.61595922E+04</totfact>
</mgrwt>
</event>
<event>
 4    1  0.3973261E+000  0.1821703E+03  0.7546771E-02  0.1165719E+00
         21   -1    0    0  501  502  0.00000000000E+00  0.00000000000E+00  0.25692640910E+03  0.25692640910E+03  0.00000000000E+00 0.  1.
         21   -1    0    0  502  503 -0.00000000000E+00 -0.00000000000E+00 -0.14895579762E+03  0.14895579762E+03  0.00000000000E+00 0.  1.
          6    1    1    2  501    0 -0.36457501850E+02  0.43907469738E+02  0.12795741782E+03  0.22261876856E+03  0.17300000000E+03 0.  1.
         -6    1    1    2    0  503  0.36457501850E+02 -0.43907469738E+02 -0.19986806333E+02  0.18326343816E+03  0.17300000000E+03 0.  1.
<mgrwt>
<rscale>  2 0.18217029E+03</rscale>
<asrwt>0</asrwt>
<pdfrwt beam="1">  1       21 0.39527140E-01 0.18217029E+03</pdfrwt>
<pdfrwt beam="2">  1       21 0.22916277E-01 0.18217029E+03</pdfrwt>
<totfact> 0.11068323E+05</totfact>
</mgrwt>
</event>
<event>
 4    1  0.3973261E+000  0.1969015E+03  0.7546771E-02  0.1152380E+00
         21   -1    0    0  501  502  0.00000000000E+00  0.00000000000E+00  0.52263264776E+03  0.52263264776E+03  0.00000000000E+00 0. -1.
         21   -1    0    0  502  503 -0.00000000000E+00 -0.00000000000E+00 -0.88667013594E+02  0.88667013594E+02  0.00000000000E+00 0. -1.
          6    1    1    2  501    0 -0.56354520265E+02 -0.75268568966E+02  0.34051931245E+03  0.39334919801E+03  0.17300000000E+03 0. -1.
         -6    1    1    2    0  503  0.56354520265E+02  0.75268568966E+02  0.93446321724E+02  0.21795046334E+03  0.17300000000E+03 0. -1.
<mgrwt>
<rscale>  2 0.19690147E+03</rscale>
<asrwt>0</asrwt>
<pdfrwt beam="1">  1       21 0.80405021E-01 0.19690147E+03</pdfrwt>
<pdfrwt beam="2">  1       21 0.13641079E-01 0.19690147E+03</pdfrwt>
<totfact> 0.63242309E+04</totfact>
</mgrwt>
</event>
<event>
 4    1  0.3973261E+000  0.2028431E+03  0.7546771E-02  0.1147362E+00
         21   -1    0    0  503  502  0.00000000000E+00  0.00000000000E+00  0.11468803510E+03  0.11468803510E+03  0.00000000000E+00 0. -1.
         21   -1    0    0  501  503 -0.00000000000E+00 -0.00000000000E+00 -0.40908210503E+03  0.40908210503E+03  0.00000000000E+00 0.  1.
          6    1    1    2  501    0 -0.90091088148E+02  0.55676874093E+02 -0.23904952978E+03  0.31351235408E+03  0.17300000000E+03 0.  1.
         -6    1    1    2    0  502  0.90091088148E+02 -0.55676874093E+02 -0.55344540148E+02  0.21025778605E+03  0.17300000000E+03 0. -1.
<mgrwt>
<rscale>  2 0.20284309E+03</rscale>
<asrwt>0</asrwt>
<pdfrwt beam="1">  1       21 0.17644313E-01 0.20284309E+03</pdfrwt>
<pdfrwt beam="2">  1       21 0.62935709E-01 0.20284309E+03</pdfrwt>
<totfact> 0.67779840E+04</totfact>
</mgrwt>
</event>
<event>
 4    1  0.3973261E+000  0.1907863E+03  0.7546771E-02  0.1157754E+00
         21   -1    0    0  501  502  0.00000000000E+00  0.00000000000E+00  0.10378480350E+03  0.10378480350E+03  0.00000000000E+00 0.  1.
         21   -1    0    0  502  503 -0.00000000000E+00 -0.00000000000E+00 -0.37122343799E+03  0.37122343799E+03  0.00000000000E+00 0.  1.
          6    1    1    2  501    0 -0.74494956159E+02 -0.30346829256E+02 -0.77902569464E+02  0.20607823482E+03  0.17300000000E+03 0.  1.
         -6    1    1    2    0  503  0.74494956159E+02  0.30346829256E+02 -0.18953606503E+03  0.26893000667E+03  0.17300000000E+03 0.  1.
<mgrwt>
<rscale>  2 0.19078634E+03</rscale>
<asrwt>0</asrwt>
<pdfrwt beam="1">  1       21 0.15966893E-01 0.19078634E+03</pdfrwt>
<pdfrwt beam="2">  1       21 0.57111299E-01 0.19078634E+03</pdfrwt>
<totfact> 0.10086158E+05</totfact>
</mgrwt>
</event>
<event>
 4    1  0.3973261E+000  0.1733619E+03  0.7546771E-02  0.1174387E+00
         21   -1    0    0  501  502  0.00000000000E+00  0.00000000000E+00  0.16253497711E+04  0.16253497711E+04  0.00000000000E+00 0.  1.
         21   -1    0    0  502  503 -0.00000000000E+00 -0.00000000000E+00 -0.20052726522E+02  0.20052726522E+02  0.00000000000E+00 0.  1.
          6    1    1    2  501    0  0.11126894713E+02 -0.12469187849E+01  0.10322402442E+04  0.10466968445E+04  0.17300000000E+03 0.  1.
         -6    1    1    2    0  503 -0.11126894713E+02  0.12469187849E+01  0.57305680038E+03  0.59870565310E+03  0.17300000000E+03 0.  1.
<mgrwt>
<rscale>  2 0.17336194E+03</rscale>
<asrwt>0</asrwt>
<pdfrwt beam="1">  1       21 0.25005371E+00 0.17336194E+03</pdfrwt>
<pdfrwt beam="2">  1       21 0.30850361E-02 0.17336194E+03</pdfrwt>
<totfact> 0.40781301E+04</totfact>
</mgrwt>
</event>
<event>
 4    1  0.3973261E+000  0.2411253E+03  0.7546771E-02  0.1119045E+00
         21   -1    0    0  501  502  0.00000000000E+00  0.00000000000E+00  0.23204866282E+03  0.23204866282E+03  0.00000000000E+00 0. -1.
         21   -1    0    0  502  503 -0.00000000000E+00 -0.00000000000E+00 -0.46364436357E+03  0.46364436357E+03  0.00000000000E+00 0.  1.
          6    1    1    2  501    0  0.72409498007E+02 -0.15155616078E+03  0.12001857989E+03  0.26934339567E+03  0.17300000000E+03 0. -1.
         -6    1    1    2    0  503 -0.72409498007E+02  0.15155616078E+03 -0.35161428064E+03  0.42634963072E+03  0.17300000000E+03 0.  1.
<mgrwt>
<rscale>  2 0.24112529E+03</rscale>
<asrwt>0</asrwt>
<pdfrwt beam="1">  1       21 0.35699795E-01 0.24112529E+03</pdfrwt>
<pdfrwt beam="2">  1       21 0.71329902E-01 0.24112529E+03</pdfrwt>
<totfact> 0.13057576E+04</totfact>
</mgrwt>
</event>
<event>
 4    1  0.3973261E+000  0.1864956E+03  0.7546771E-02  0.1161661E+00
         21   -1    0    0  501  502  0.00000000000E+00  0.00000000000E+00  0.25288588436E+03  0.25288588436E+03  0.00000000000E+00 0. -1.
         21   -1    0    0  502  503 -0.00000000000E+00 -0.00000000000E+00 -0.17967755712E+03  0.17967755712E+03  0.00000000000E+00 0. -1.
          6    1    1    2  501    0  0.22118073911E+02  0.66048603984E+02  0.14134933456E+03  0.23400910594E+03  0.17300000000E+03 0. -1.
         -6    1    1    2    0  503 -0.22118073911E+02 -0.66048603984E+02 -0.68141007320E+02  0.19855433554E+03  0.17300000000E+03 0. -1.
<mgrwt>
<rscale>  2 0.18649565E+03</rscale>
<asrwt>0</asrwt>
<pdfrwt beam="1">  1       21 0.38905521E-01 0.18649565E+03</pdfrwt>
<pdfrwt beam="2">  1       21 0.27642701E-01 0.18649565E+03</pdfrwt>
<totfact> 0.79758302E+04</totfact>
</mgrwt>
</event>
<event>
 4    1  0.3973261E+000  0.1820023E+03  0.7546771E-02  0.1165879E+00
         21   -1    0    0  501  502  0.00000000000E+00  0.00000000000E+00  0.11535831596E+04  0.11535831596E+04  0.00000000000E+00 0. -1.
         21   -1    0    0  502  503 -0.00000000000E+00 -0.00000000000E+00 -0.40424737821E+02  0.40424737821E+02  0.00000000000E+00 0. -1.
          6    1    1    2  501    0 -0.54870824681E+02  0.13602457045E+02  0.87789502854E+03  0.89656261096E+03  0.17300000000E+03 0. -1.
         -6    1    1    2    0  503  0.54870824681E+02 -0.13602457045E+02  0.23526339324E+03  0.29744528646E+03  0.17300000000E+03 0. -1.
<mgrwt>
<rscale>  2 0.18200229E+03</rscale>
<asrwt>0</asrwt>
<pdfrwt beam="1">  1       21 0.17747431E+00 0.18200229E+03</pdfrwt>
<pdfrwt beam="2">  1       21 0.62191913E-02 0.18200229E+03</pdfrwt>
<totfact> 0.35352080E+04</totfact>
</mgrwt>
</event>
<event>
 4    1  0.3973261E+000  0.1878327E+03  0.7546771E-02  0.1160431E+00
         21   -1    0    0  503  502  0.00000000000E+00  0.00000000000E+00  0.49521369981E+02  0.49521369981E+02  0.00000000000E+00 0.  1.
         21   -1    0    0  501  503 -0.00000000000E+00 -0.00000000000E+00 -0.13727862285E+04  0.13727862285E+04  0.00000000000E+00 0.  1.
          6    1    1    2  501    0  0.43525641546E+02 -0.58801755773E+02 -0.11548597341E+04  0.11700350992E+04  0.17300000000E+03 0.  1.
         -6    1    1    2    0  502 -0.43525641546E+02  0.58801755773E+02 -0.16840512442E+03  0.25227249926E+03  0.17300000000E+03 0.  1.
<mgrwt>
<rscale>  2 0.18783271E+03</rscale>
<asrwt>0</asrwt>
<pdfrwt beam="1">  1       21 0.76186733E-02 0.18783271E+03</pdfrwt>
<pdfrwt beam="2">  1       21 0.21119785E+00 0.18783271E+03</pdfrwt>
<totfact> 0.14958654E+04</totfact>
</mgrwt>
</event>
<event>
 4    1  0.3973261E+000  0.2128911E+03  0.7546771E-02  0.1139297E+00
         21   -1    0    0  503  502  0.00000000000E+00  0.00000000000E+00  0.52117086292E+03  0.52117086292E+03  0.00000000000E+00 0.  1.
         21   -1    0    0  501  503 -0.00000000000E+00 -0.00000000000E+00 -0.10869060553E+03  0.10869060553E+03  0.00000000000E+00 0.  1.
          6    1    1    2  501    0 -0.38489622890E+02  0.11794988635E+03  0.65433171869E+02  0.22271983913E+03  0.17300000000E+03 0.  1.
         -6    1    1    2    0  502  0.38489622890E+02 -0.11794988635E+03  0.34704708552E+03  0.40714162932E+03  0.17300000000E+03 0.  1.
<mgrwt>
<rscale>  2 0.21289111E+03</rscale>
<asrwt>0</asrwt>
<pdfrwt beam="1">  1       21 0.80180131E-01 0.21289111E+03</pdfrwt>
<pdfrwt beam="2">  1       21 0.16721632E-01 0.21289111E+03</pdfrwt>
<totfact> 0.43554698E+04</totfact>
</mgrwt>
</event>
<event>
 4    1  0.3973261E+000  0.1896874E+03  0.7546771E-02  0.1158744E+00
         21   -1    0    0  501  502  0.00000000000E+00  0.00000000000E+00  0.66638080604E+03  0.66638080604E+03  0.00000000000E+00 0.  1.
         21   -1    0    0  502  503 -0.00000000000E+00 -0.00000000000E+00 -0.17245123783E+03  0.17245123783E+03  0.00000000000E+00 0.  1.
          6    1    1    2  501    0 -0.68982452718E+02 -0.35968390835E+02  0.59457347612E+03  0.62409848776E+03  0.17300000000E+03 0.  1.
         -6    1    1    2    0  503  0.68982452718E+02  0.35968390835E+02 -0.10064390791E+03  0.21473355611E+03  0.17300000000E+03 0.  1.
<mgrwt>
<rscale>  2 0.18968738E+03</rscale>
<asrwt>0</asrwt>
<pdfrwt beam="1">  1       21 0.10252012E+00 0.18968738E+03</pdfrwt>
<pdfrwt beam="2">  1       21 0.26530960E-01 0.18968738E+03</pdfrwt>
<totfact> 0.10479740E+04</totfact>
</mgrwt>
</event>
<event>
 4    1  0.3973261E+000  0.2443865E+03  0.7546771E-02  0.1116905E+00
         21   -1    0    0  503  502  0.00000000000E+00  0.00000000000E+00  0.29052419694E+03  0.29052419694E+03  0.00000000000E+00 0.  1.
         21   -1    0    0  501  503 -0.00000000000E+00 -0.00000000000E+00 -0.22906552819E+03  0.22906552819E+03  0.00000000000E+00 0. -1.
          6    1    1    2  501    0 -0.62469098615E+02 -0.16091423469E+03 -0.52464007786E+02  0.24995449850E+03  0.17300000000E+03 0. -1.
         -6    1    1    2    0  502  0.62469098615E+02  0.16091423469E+03  0.11392267653E+03  0.26963522662E+03  0.17300000000E+03 0.  1.
<mgrwt>
<rscale>  2 0.24438654E+03</rscale>
<asrwt>0</asrwt>
<pdfrwt beam="1">  1       21 0.44696030E-01 0.24438654E+03</pdfrwt>
<pdfrwt beam="2">  1       21 0.35240851E-01 0.24438654E+03</pdfrwt>
<totfact> 0.36377826E+04</totfact>
</mgrwt>
</event>
<event>
 4    1  0.3973261E+000  0.2358945E+03  0.7546771E-02  0.1122558E+00
         21   -1    0    0  503  502  0.00000000000E+00  0.00000000000E+00  0.67884339879E+03  0.67884339879E+03  0.00000000000E+00 0. -1.
         21   -1    0    0  501  503 -0.00000000000E+00 -0.00000000000E+00 -0.10830848335E+03  0.10830848335E+03  0.00000000000E+00 0. -1.
          6    1    1    2  501    0 -0.14780555550E+03 -0.62215337342E+02  0.91189937879E+02  0.25290677177E+03  0.17300000000E+03 0. -1.
         -6    1    1    2    0  502  0.14780555550E+03  0.62215337342E+02  0.47934497756E+03  0.53424511036E+03  0.17300000000E+03 0. -1.
<mgrwt>
<rscale>  2 0.23589453E+03</rscale>
<asrwt>0</asrwt>
<pdfrwt beam="1">  1       21 0.10443744E+00 0.23589453E+03</pdfrwt>
<pdfrwt beam="2">  1       21 0.16662844E-01 0.23589453E+03</pdfrwt>
<totfact> 0.23372980E+04</totfact>
</mgrwt>
</event>
<event>
 4    1  0.3973261E+000  0.1757668E+03  0.7546771E-02  0.1171964E+00
         21   -1    0    0  503  502  0.00000000000E+00  0.00000000000E+00  0.16982887392E+03  0.16982887392E+03  0.00000000000E+00 0. -1.
         21   -1    0    0  501  503 -0.00000000000E+00 -0.00000000000E+00 -0.18228366913E+03  0.18228366913E+03  0.00000000000E+00 0. -1.
          6    1    1    2  501    0 -0.26600041870E+02  0.16044154314E+02 -0.14172970837E+02  0.17633731941E+03  0.17300000000E+03 0. -1.
         -6    1    1    2    0  502  0.26600041870E+02 -0.16044154314E+02  0.17181756305E+01  0.17577522363E+03  0.17300000000E+03 0. -1.
<mgrwt>
<rscale>  2 0.17576683E+03</rscale>
<asrwt>0</asrwt>
<pdfrwt beam="1">  1       21 0.26127519E-01 0.17576683E+03</pdfrwt>
<pdfrwt beam="2">  1       21 0.28043641E-01 0.17576683E+03</pdfrwt>
<totfact> 0.16996833E+05</totfact>
</mgrwt>
</event>
<event>
 4    1  0.3973261E+000  0.1929866E+03  0.7546771E-02  0.1155795E+00
         21   -1    0    0  503  502  0.00000000000E+00  0.00000000000E+00  0.52674014372E+03  0.52674014372E+03  0.00000000000E+00 0. -1.
         21   -1    0    0  501  503 -0.00000000000E+00 -0.00000000000E+00 -0.73436668580E+02  0.73436668580E+02  0.00000000000E+00 0. -1.
          6    1    1    2  501    0 -0.34076156203E+02 -0.78445230003E+02  0.16878825161E+03  0.25638508618E+03  0.17300000000E+03 0. -1.
         -6    1    1    2    0  502  0.34076156203E+02  0.78445230003E+02  0.28451522353E+03  0.34379172612E+03  0.17300000000E+03 0. -1.
<mgrwt>
<rscale>  2 0.19298663E+03</rscale>
<asrwt>0</asrwt>
<pdfrwt beam="1">  1       21 0.81036943E-01 0.19298663E+03</pdfrwt>
<pdfrwt beam="2">  1       21 0.11297949E-01 0.19298663E+03</pdfrwt>
<totfact> 0.87291126E+04</totfact>
</mgrwt>
</event>
<event>
 4    1  0.3973261E+000  0.2090118E+03  0.7546771E-02  0.1142351E+00
         21   -1    0    0  501  502  0.00000000000E+00  0.00000000000E+00  0.10653492820E+03  0.10653492820E+03  0.00000000000E+00 0. -1.
         21   -1    0    0  502  503 -0.00000000000E+00 -0.00000000000E+00 -0.41583884935E+03  0.41583884935E+03  0.00000000000E+00 0. -1.
          6    1    1    2  501    0 -0.73686744180E+02 -0.91253409569E+02 -0.18543673826E+03  0.27941493325E+03  0.17300000000E+03 0. -1.
         -6    1    1    2    0  503  0.73686744180E+02  0.91253409569E+02 -0.12386718290E+03  0.24295884430E+03  0.17300000000E+03 0. -1.
<mgrwt>
<rscale>  2 0.20901177E+03</rscale>
<asrwt>0</asrwt>
<pdfrwt beam="1">  1       21 0.16389989E-01 0.20901177E+03</pdfrwt>
<pdfrwt beam="2">  1       21 0.63975207E-01 0.20901177E+03</pdfrwt>
<totfact> 0.74728252E+04</totfact>
</mgrwt>
</event>
<event>
 4    1  0.3973261E+000  0.1987436E+03  0.7546771E-02  0.1150803E+00
         21   -1    0    0  503  502  0.00000000000E+00  0.00000000000E+00  0.10150488966E+03  0.10150488966E+03  0.00000000000E+00 0.  1.
         21   -1    0    0  501  503 -0.00000000000E+00 -0.00000000000E+00 -0.40245539168E+03  0.40245539168E+03  0.00000000000E+00 0.  1.
          6    1    1    2  501    0 -0.54416809277E+02  0.81294602584E+02 -0.19631926008E+03  0.27935685676E+03  0.17300000000E+03 0.  1.
         -6    1    1    2    0  502  0.54416809277E+02 -0.81294602584E+02 -0.10463124195E+03  0.22460342458E+03  0.17300000000E+03 0.  1.
<mgrwt>
<rscale>  2 0.19874356E+03</rscale>
<asrwt>0</asrwt>
<pdfrwt beam="1">  1       21 0.15616137E-01 0.19874356E+03</pdfrwt>
<pdfrwt beam="2">  1       21 0.61916215E-01 0.19874356E+03</pdfrwt>
<totfact> 0.88044543E+04</totfact>
</mgrwt>
</event>
<event>
 4    1  0.3973261E+000  0.1731752E+03  0.7546771E-02  0.1174577E+00
         21   -1    0    0  503  502  0.00000000000E+00  0.00000000000E+00  0.76935004594E+02  0.76935004594E+02  0.00000000000E+00 0. -1.
         21   -1    0    0  501  503 -0.00000000000E+00 -0.00000000000E+00 -0.45399430122E+03  0.45399430122E+03  0.00000000000E+00 0. -1.
          6    1    1    2  501    0 -0.60816828038E+01 -0.48644033017E+01 -0.28834856066E+03  0.33635478549E+03  0.17300000000E+03 0.  1.
         -6    1    1    2    0  502  0.60816828038E+01  0.48644033017E+01 -0.88710735967E+02  0.19457452033E+03  0.17300000000E+03 0.  1.
<mgrwt>
<rscale>  2 0.17317520E+03</rscale>
<asrwt>0</asrwt>
<pdfrwt beam="1">  1       21 0.11836155E-01 0.17317520E+03</pdfrwt>
<pdfrwt beam="2">  1       21 0.69845277E-01 0.17317520E+03</pdfrwt>
<totfact> 0.11280973E+05</totfact>
</mgrwt>
</event>
<event>
 4    1  0.3973261E+000  0.1875971E+03  0.7546771E-02  0.1160647E+00
         21   -1    0    0  501  502  0.00000000000E+00  0.00000000000E+00  0.92780966310E+03  0.92780966310E+03  0.00000000000E+00 0.  1.
         21   -1    0    0  502  503 -0.00000000000E+00 -0.00000000000E+00 -0.44074730291E+02  0.44074730291E+02  0.00000000000E+00 0.  1.
          6    1    1    2  501    0 -0.48799009792E+02 -0.53687320855E+02  0.62329732753E+03  0.65091645415E+03  0.17300000000E+03 0.  1.
         -6    1    1    2    0  503  0.48799009792E+02  0.53687320855E+02  0.26043760528E+03  0.32096793924E+03  0.17300000000E+03 0.  1.
<mgrwt>
<rscale>  2 0.18759710E+03</rscale>
<asrwt>0</asrwt>
<pdfrwt beam="1">  1       21 0.14273993E+00 0.18759710E+03</pdfrwt>
<pdfrwt beam="2">  1       21 0.67807284E-02 0.18759710E+03</pdfrwt>
<totfact> 0.54529804E+04</totfact>
</mgrwt>
</event>
<event>
 4    1  0.3973261E+000  0.1849881E+03  0.7546771E-02  0.1163061E+00
         21   -1    0    0  501  502  0.00000000000E+00  0.00000000000E+00  0.49650166635E+02  0.49650166635E+02  0.00000000000E+00 0.  1.
         21   -1    0    0  502  503 -0.00000000000E+00 -0.00000000000E+00 -0.68973125168E+03  0.68973125168E+03  0.00000000000E+00 0.  1.
          6    1    1    2  501    0 -0.42035733244E+02  0.50245320779E+02 -0.32996437830E+03  0.37828175488E+03  0.17300000000E+03 0.  1.
         -6    1    1    2    0  503  0.42035733244E+02 -0.50245320779E+02 -0.31011670674E+03  0.36109966343E+03  0.17300000000E+03 0.  1.
<mgrwt>
<rscale>  2 0.18498809E+03</rscale>
<asrwt>0</asrwt>
<pdfrwt beam="1">  1       21 0.76384876E-02 0.18498809E+03</pdfrwt>
<pdfrwt beam="2">  1       21 0.10611249E+00 0.18498809E+03</pdfrwt>
<totfact> 0.92939308E+04</totfact>
</mgrwt>
</event>
<event>
 4    1  0.3973261E+000  0.2874703E+03  0.7546771E-02  0.1091677E+00
         21   -1    0    0  503  502  0.00000000000E+00  0.00000000000E+00  0.18571693562E+04  0.18571693562E+04  0.00000000000E+00 0. -1.
         21   -1    0    0  501  503 -0.00000000000E+00 -0.00000000000E+00 -0.44753626767E+02  0.44753626767E+02  0.00000000000E+00 0.  1.
          6    1    1    2  501    0 -0.64045894658E+02 -0.22047295446E+03  0.97816344095E+03  0.10195307340E+04  0.17300000000E+03 0. -1.
         -6    1    1    2    0  502  0.64045894658E+02  0.22047295446E+03  0.83425228850E+03  0.88239224903E+03  0.17300000000E+03 0. -1.
<mgrwt>
<rscale>  2 0.28747035E+03</rscale>
<asrwt>0</asrwt>
<pdfrwt beam="1">  1       21 0.28571830E+00 0.28747035E+03</pdfrwt>
<pdfrwt beam="2">  1       21 0.68851748E-02 0.28747035E+03</pdfrwt>
<totfact> 0.58934134E+03</totfact>
</mgrwt>
</event>
<event>
 4    1  0.3973261E+000  0.2074060E+03  0.7546771E-02  0.1143637E+00
         21   -1    0    0  503  502  0.00000000000E+00  0.00000000000E+00  0.59644688460E+02  0.59644688460E+02  0.00000000000E+00 0. -1.
         21   -1    0    0  501  503 -0.00000000000E+00 -0.00000000000E+00 -0.10036165121E+04  0.10036165121E+04  0.00000000000E+00 0. -1.
          6    1    1    2  501    0  0.11330375414E+03 -0.15826867309E+02 -0.75398780257E+03  0.78199414119E+03  0.17300000000E+03 0. -1.
         -6    1    1    2    0  502 -0.11330375414E+03  0.15826867309E+02 -0.18998402111E+03  0.28126705941E+03  0.17300000000E+03 0. -1.
<mgrwt>
<rscale>  2 0.20740596E+03</rscale>
<asrwt>0</asrwt>
<pdfrwt beam="1">  1       21 0.91761064E-02 0.20740596E+03</pdfrwt>
<pdfrwt beam="2">  1       21 0.15440253E+00 0.20740596E+03</pdfrwt>
<totfact> 0.25895987E+04</totfact>
</mgrwt>
</event>
<event>
 4    1  0.3973261E+000  0.1817830E+03  0.7546771E-02  0.1166089E+00
         21   -1    0    0  503  502  0.00000000000E+00  0.00000000000E+00  0.23562933980E+03  0.23562933980E+03  0.00000000000E+00 0.  1.
         21   -1    0    0  501  503 -0.00000000000E+00 -0.00000000000E+00 -0.21304314996E+03  0.21304314996E+03  0.00000000000E+00 0.  1.
          6    1    1    2  501    0 -0.54465066606E+02  0.12231470226E+02 -0.11984708035E+03  0.21773464357E+03  0.17300000000E+03 0.  1.
         -6    1    1    2    0  502  0.54465066606E+02 -0.12231470226E+02  0.14243327019E+03  0.23093784619E+03  0.17300000000E+03 0.  1.
<mgrwt>
<rscale>  2 0.18178298E+03</rscale>
<asrwt>0</asrwt>
<pdfrwt beam="1">  1       21 0.36250668E-01 0.18178298E+03</pdfrwt>
<pdfrwt beam="2">  1       21 0.32775869E-01 0.18178298E+03</pdfrwt>
<totfact> 0.66062315E+04</totfact>
</mgrwt>
</event>
<event>
 4    1  0.3973261E+000  0.1838015E+03  0.7546771E-02  0.1164174E+00
         21   -1    0    0  503  502  0.00000000000E+00  0.00000000000E+00  0.20913881981E+04  0.20913881981E+04  0.00000000000E+00 0. -1.
         21   -1    0    0  501  503 -0.00000000000E+00 -0.00000000000E+00 -0.18302669275E+02  0.18302669275E+02  0.00000000000E+00 0. -1.
          6    1    1    2  501    0  0.52929658765E+02  0.32441187459E+02  0.67506675814E+03  0.69964141341E+03  0.17300000000E+03 0. -1.
         -6    1    1    2    0  502 -0.52929658765E+02 -0.32441187459E+02  0.13980187707E+04  0.14100494539E+04  0.17300000000E+03 0. -1.
<mgrwt>
<rscale>  2 0.18380147E+03</rscale>
<asrwt>0</asrwt>
<pdfrwt beam="1">  1       21 0.32175184E+00 0.18380147E+03</pdfrwt>
<pdfrwt beam="2">  1       21 0.28157969E-02 0.18380147E+03</pdfrwt>
<totfact> 0.18138792E+04</totfact>
</mgrwt>
</event>
<event>
 4    1  0.3973261E+000  0.1747034E+03  0.7546771E-02  0.1173030E+00
         21   -1    0    0  503  502  0.00000000000E+00  0.00000000000E+00  0.32222013079E+03  0.32222013079E+03  0.00000000000E+00 0.  1.
         21   -1    0    0  501  503 -0.00000000000E+00 -0.00000000000E+00 -0.95921563389E+02  0.95921563389E+02  0.00000000000E+00 0.  1.
          6    1    1    2  501    0  0.17695392231E+02  0.16707749305E+02  0.89767354346E+02  0.19641653113E+03  0.17300000000E+03 0.  1.
         -6    1    1    2    0  502 -0.17695392231E+02 -0.16707749305E+02  0.13653121305E+03  0.22172516305E+03  0.17300000000E+03 0.  1.
<mgrwt>
<rscale>  2 0.17470339E+03</rscale>
<asrwt>0</asrwt>
<pdfrwt beam="1">  1       21 0.49572327E-01 0.17470339E+03</pdfrwt>
<pdfrwt beam="2">  1       21 0.14757164E-01 0.17470339E+03</pdfrwt>
<totfact> 0.15767269E+05</totfact>
</mgrwt>
</event>
<event>
 4    1  0.3973261E+000  0.2741282E+03  0.7546771E-02  0.1098940E+00
         21   -1    0    0  501  502  0.00000000000E+00  0.00000000000E+00  0.74824709678E+03  0.74824709678E+03  0.00000000000E+00 0. -1.
         21   -1    0    0  502  503 -0.00000000000E+00 -0.00000000000E+00 -0.27052495538E+03  0.27052495538E+03  0.00000000000E+00 0.  1.
          6    1    1    2  501    0  0.20180399967E+03  0.67025366143E+02  0.64277554942E+03  0.69878942531E+03  0.17300000000E+03 0. -1.
         -6    1    1    2    0  503 -0.20180399967E+03 -0.67025366143E+02 -0.16505340802E+03  0.31998262685E+03  0.17300000000E+03 0.  1.
<mgrwt>
<rscale>  2 0.27412817E+03</rscale>
<asrwt>0</asrwt>
<pdfrwt beam="1">  1       21 0.11511494E+00 0.27412817E+03</pdfrwt>
<pdfrwt beam="2">  1       21 0.41619224E-01 0.27412817E+03</pdfrwt>
<totfact> 0.30608529E+03</totfact>
</mgrwt>
</event>
<event>
 4    1  0.3973261E+000  0.1992863E+03  0.7546771E-02  0.1150343E+00
         21   -1    0    0  501  502  0.00000000000E+00  0.00000000000E+00  0.67093814530E+02  0.67093814530E+02  0.00000000000E+00 0.  1.
         21   -1    0    0  502  503 -0.00000000000E+00 -0.00000000000E+00 -0.69740688634E+03  0.69740688634E+03  0.00000000000E+00 0.  1.
          6    1    1    2  501    0 -0.21363415853E+02 -0.96590109264E+02 -0.16650233226E+03  0.25968841213E+03  0.17300000000E+03 0.  1.
         -6    1    1    2    0  503  0.21363415853E+02  0.96590109264E+02 -0.46381073955E+03  0.50481228874E+03  0.17300000000E+03 0.  1.
<mgrwt>
<rscale>  2 0.19928634E+03</rscale>
<asrwt>0</asrwt>
<pdfrwt beam="1">  1       21 0.10322126E-01 0.19928634E+03</pdfrwt>
<pdfrwt beam="2">  1       21 0.10729336E+00 0.19928634E+03</pdfrwt>
<totfact> 0.53033063E+04</totfact>
</mgrwt>
</event>
<event>
 4    1  0.3973261E+000  0.2661477E+03  0.7546771E-02  0.1103505E+00
         21   -1    0    0  503  502  0.00000000000E+00  0.00000000000E+00  0.96913286841E+02  0.96913286841E+02  0.00000000000E+00 0.  1.
         21   -1    0    0  501  503 -0.00000000000E+00 -0.00000000000E+00 -0.15515415360E+04  0.15515415360E+04  0.00000000000E+00 0. -1.
          6    1    1    2  501    0  0.11594438602E+03 -0.16571806363E+03 -0.13267466538E+04  0.13531782073E+04  0.17300000000E+03 0. -1.
         -6    1    1    2    0  502 -0.11594438602E+03  0.16571806363E+03 -0.12788159533E+03  0.29527661554E+03  0.17300000000E+03 0.  1.
<mgrwt>
<rscale>  2 0.26614766E+03</rscale>
<asrwt>0</asrwt>
<pdfrwt beam="1">  1       21 0.14909736E-01 0.26614766E+03</pdfrwt>
<pdfrwt beam="2">  1       21 0.23869871E+00 0.26614766E+03</pdfrwt>
<totfact> 0.28741980E+03</totfact>
</mgrwt>
</event>
<event>
 4    1  0.3973261E+000  0.3012498E+03  0.7546771E-02  0.1084618E+00
         21   -1    0    0  503  502  0.00000000000E+00  0.00000000000E+00  0.31699004910E+03  0.31699004910E+03  0.00000000000E+00 0. -1.
         21   -1    0    0  501  503 -0.00000000000E+00 -0.00000000000E+00 -0.47440395124E+03  0.47440395124E+03  0.00000000000E+00 0. -1.
          6    1    1    2  501    0  0.57044427415E+02 -0.23993411251E+03 -0.32787811837E+03  0.44525891968E+03  0.17300000000E+03 0. -1.
         -6    1    1    2    0  502 -0.57044427415E+02  0.23993411251E+03  0.17046421623E+03  0.34613508066E+03  0.17300000000E+03 0. -1.
<mgrwt>
<rscale>  2 0.30124981E+03</rscale>
<asrwt>0</asrwt>
<pdfrwt beam="1">  1       21 0.48767700E-01 0.30124981E+03</pdfrwt>
<pdfrwt beam="2">  1       21 0.72985223E-01 0.30124981E+03</pdfrwt>
<totfact> 0.63469352E+03</totfact>
</mgrwt>
</event>
<event>
 4    1  0.3973261E+000  0.2956911E+03  0.7546771E-02  0.1087415E+00
         21   -1    0    0  501  502  0.00000000000E+00  0.00000000000E+00  0.18524572025E+03  0.18524572025E+03  0.00000000000E+00 0. -1.
         21   -1    0    0  502  503 -0.00000000000E+00 -0.00000000000E+00 -0.14601994377E+04  0.14601994377E+04  0.00000000000E+00 0. -1.
          6    1    1    2  501    0  0.12724701947E+03  0.20325454621E+03  0.39342714088E+02  0.29829693876E+03  0.17300000000E+03 0. -1.
         -6    1    1    2    0  503 -0.12724701947E+03 -0.20325454621E+03 -0.13142964315E+04  0.13471482192E+04  0.17300000000E+03 0. -1.
<mgrwt>
<rscale>  2 0.29569108E+03</rscale>
<asrwt>0</asrwt>
<pdfrwt beam="1">  1       21 0.28499341E-01 0.29569108E+03</pdfrwt>
<pdfrwt beam="2">  1       21 0.22464607E+00 0.29569108E+03</pdfrwt>
<totfact> 0.10064466E+03</totfact>
</mgrwt>
</event>
<event>
 4    1  0.3973261E+000  0.2163232E+03  0.7546771E-02  0.1136654E+00
         21   -1    0    0  503  502  0.00000000000E+00  0.00000000000E+00  0.21811002072E+03  0.21811002072E+03  0.00000000000E+00 0. -1.
         21   -1    0    0  501  503 -0.00000000000E+00 -0.00000000000E+00 -0.21773072824E+03  0.21773072824E+03  0.00000000000E+00 0.  1.
          6    1    1    2  501    0  0.45873230209E+02 -0.12150052227E+03 -0.26145197807E+02  0.21789745646E+03  0.17300000000E+03 0.  1.
         -6    1    1    2    0  502 -0.45873230209E+02  0.12150052227E+03  0.26524490291E+02  0.21794329250E+03  0.17300000000E+03 0. -1.
<mgrwt>
<rscale>  2 0.21632321E+03</rscale>
<asrwt>0</asrwt>
<pdfrwt beam="1">  1       21 0.33555388E-01 0.21632321E+03</pdfrwt>
<pdfrwt beam="2">  1       21 0.33497035E-01 0.21632321E+03</pdfrwt>
<totfact> 0.72679969E+04</totfact>
</mgrwt>
</event>
<event>
 4    1  0.3973261E+000  0.2051499E+03  0.7546771E-02  0.1145465E+00
         21   -1    0    0  501  502  0.00000000000E+00  0.00000000000E+00  0.20422628367E+03  0.20422628367E+03  0.00000000000E+00 0.  1.
         21   -1    0    0  502  503 -0.00000000000E+00 -0.00000000000E+00 -0.30309025656E+03  0.30309025656E+03  0.00000000000E+00 0.  1.
          6    1    1    2  501    0 -0.10770462507E+03 -0.23604815385E+02  0.94076344959E+02  0.22569189673E+03  0.17300000000E+03 0.  1.
         -6    1    1    2    0  503  0.10770462507E+03  0.23604815385E+02 -0.19294031785E+03  0.28162464349E+03  0.17300000000E+03 0.  1.
<mgrwt>
<rscale>  2 0.20514988E+03</rscale>
<asrwt>0</asrwt>
<pdfrwt beam="1">  1       21 0.31419428E-01 0.20514988E+03</pdfrwt>
<pdfrwt beam="2">  1       21 0.46629270E-01 0.20514988E+03</pdfrwt>
<totfact> 0.42606253E+04</totfact>
</mgrwt>
</event>
<event>
 4    1  0.3973261E+000  0.2535911E+03  0.7546771E-02  0.1111056E+00
         21   -1    0    0  503  502  0.00000000000E+00  0.00000000000E+00  0.11677542098E+03  0.11677542098E+03  0.00000000000E+00 0. -1.
         21   -1    0    0  501  503 -0.00000000000E+00 -0.00000000000E+00 -0.85491080174E+03  0.85491080174E+03  0.00000000000E+00 0. -1.
          6    1    1    2  501    0 -0.15223340996E+02  0.18479090837E+03 -0.65888325508E+03  0.70599969813E+03  0.17300000000E+03 0. -1.
         -6    1    1    2    0  502  0.15223340996E+02 -0.18479090837E+03 -0.79252125674E+02  0.26568652460E+03  0.17300000000E+03 0. -1.
<mgrwt>
<rscale>  2 0.25359107E+03</rscale>
<asrwt>0</asrwt>
<pdfrwt beam="1">  1       21 0.17965450E-01 0.25359107E+03</pdfrwt>
<pdfrwt beam="2">  1       21 0.13152474E+00 0.25359107E+03</pdfrwt>
<totfact> 0.11370120E+04</totfact>
</mgrwt>
</event>
<event>
 4    1  0.3973261E+000  0.2286776E+03  0.7546771E-02  0.1127574E+00
         21   -1    0    0  503  502  0.00000000000E+00  0.00000000000E+00  0.15581944255E+03  0.15581944255E+03  0.00000000000E+00 0. -1.
         21   -1    0    0  501  503 -0.00000000000E+00 -0.00000000000E+00 -0.16126189188E+04  0.16126189188E+04  0.00000000000E+00 0.  1.
          6    1    1    2  501    0 -0.10541766216E+03  0.10607339649E+03 -0.15152502602E+04  0.15324088227E+04  0.17300000000E+03 0.  1.
         -6    1    1    2    0  502  0.10541766216E+03 -0.10607339649E+03  0.58450783980E+02  0.23602953859E+03  0.17300000000E+03 0. -1.
<mgrwt>
<rscale>  2 0.22867761E+03</rscale>
<asrwt>0</asrwt>
<pdfrwt beam="1">  1       21 0.23972221E-01 0.22867761E+03</pdfrwt>
<pdfrwt beam="2">  1       21 0.24809523E+00 0.22867761E+03</pdfrwt>
<totfact> 0.10745803E+03</totfact>
</mgrwt>
</event>
<event>
 4    1  0.3973261E+000  0.1856315E+03  0.7546771E-02  0.1162461E+00
         21   -1    0    0  501  502  0.00000000000E+00  0.00000000000E+00  0.12034948733E+03  0.12034948733E+03  0.00000000000E+00 0. -1.
         21   -1    0    0  502  503 -0.00000000000E+00 -0.00000000000E+00 -0.28701584747E+03  0.28701584747E+03  0.00000000000E+00 0. -1.
          6    1    1    2  501    0 -0.52729333120E+02  0.41829268721E+02 -0.93325895337E+02  0.20777101105E+03  0.17300000000E+03 0. -1.
         -6    1    1    2    0  503  0.52729333120E+02 -0.41829268721E+02 -0.73340464810E+02  0.19959432375E+03  0.17300000000E+03 0. -1.
<mgrwt>
<rscale>  2 0.18563154E+03</rscale>
<asrwt>0</asrwt>
<pdfrwt beam="1">  1       21 0.18515306E-01 0.18563154E+03</pdfrwt>
<pdfrwt beam="2">  1       21 0.44156283E-01 0.18563154E+03</pdfrwt>
<totfact> 0.13157904E+05</totfact>
</mgrwt>
</event>
<event>
 4    1  0.3973261E+000  0.2396846E+03  0.7546771E-02  0.1120003E+00
         21   -1    0    0  503  502  0.00000000000E+00  0.00000000000E+00  0.32724324387E+03  0.32724324387E+03  0.00000000000E+00 0. -1.
         21   -1    0    0  501  503 -0.00000000000E+00 -0.00000000000E+00 -0.19984190422E+03  0.19984190422E+03  0.00000000000E+00 0. -1.
          6    1    1    2  501    0 -0.15565404352E+03  0.57371971061E+02 -0.28176211079E+02  0.24133508489E+03  0.17300000000E+03 0. -1.
         -6    1    1    2    0  502  0.15565404352E+03 -0.57371971061E+02  0.15557755073E+03  0.28575006320E+03  0.17300000000E+03 0. -1.
<mgrwt>
<rscale>  2 0.23968464E+03</rscale>
<asrwt>0</asrwt>
<pdfrwt beam="1">  1       21 0.50345114E-01 0.23968464E+03</pdfrwt>
<pdfrwt beam="2">  1       21 0.30744908E-01 0.23968464E+03</pdfrwt>
<totfact> 0.37290153E+04</totfact>
</mgrwt>
</event>
<event>
 4    1  0.3973261E+000  0.3970485E+03  0.7546771E-02  0.1044806E+00
         21   -1    0    0  503  502  0.00000000000E+00  0.00000000000E+00  0.30083255292E+03  0.30083255292E+03  0.00000000000E+00 0.  1.
         21   -1    0    0  501  503 -0.00000000000E+00 -0.00000000000E+00 -0.53903760870E+03  0.53903760870E+03  0.00000000000E+00 0. -1.
          6    1    1    2  501    0 -0.24713418119E+03 -0.25815352905E+03 -0.18915434211E+03  0.43980326649E+03  0.17300000000E+03 0. -1.
         -6    1    1    2    0  502  0.24713418119E+03  0.25815352905E+03 -0.49050713670E+02  0.40006689514E+03  0.17300000000E+03 0.  1.
<mgrwt>
<rscale>  2 0.39704855E+03</rscale>
<asrwt>0</asrwt>
<pdfrwt beam="1">  1       21 0.46281931E-01 0.39704855E+03</pdfrwt>
<pdfrwt beam="2">  1       21 0.82928863E-01 0.39704855E+03</pdfrwt>
<totfact> 0.50798683E+03</totfact>
</mgrwt>
</event>
<event>
 4    1  0.3973261E+000  0.2007737E+03  0.7546771E-02  0.1149088E+00
         21   -1    0    0  503  502  0.00000000000E+00  0.00000000000E+00  0.47762487522E+03  0.47762487522E+03  0.00000000000E+00 0. -1.
         21   -1    0    0  501  503 -0.00000000000E+00 -0.00000000000E+00 -0.85169944603E+02  0.85169944603E+02  0.00000000000E+00 0. -1.
          6    1    1    2  501    0 -0.96752327188E+02  0.31938566815E+02  0.16941949849E+03  0.26270335235E+03  0.17300000000E+03 0. -1.
         -6    1    1    2    0  502  0.96752327188E+02 -0.31938566815E+02  0.22303543213E+03  0.30009146747E+03  0.17300000000E+03 0. -1.
<mgrwt>
<rscale>  2 0.20077372E+03</rscale>
<asrwt>0</asrwt>
<pdfrwt beam="1">  1       21 0.73480749E-01 0.20077372E+03</pdfrwt>
<pdfrwt beam="2">  1       21 0.13103069E-01 0.20077372E+03</pdfrwt>
<totfact> 0.83098408E+04</totfact>
</mgrwt>
</event>
<event>
 4    1  0.3973261E+000  0.2606568E+03  0.7546771E-02  0.1106749E+00
         21   -1    0    0  503  502  0.00000000000E+00  0.00000000000E+00  0.42925865165E+02  0.42925865165E+02  0.00000000000E+00 0. -1.
         21   -1    0    0  501  503 -0.00000000000E+00 -0.00000000000E+00 -0.17476892007E+04  0.17476892007E+04  0.00000000000E+00 0.  1.
          6    1    1    2  501    0  0.16940848083E+02  0.19423177467E+03 -0.11274049877E+04  0.11571447537E+04  0.17300000000E+03 0.  1.
         -6    1    1    2    0  502 -0.16940848083E+02 -0.19423177467E+03 -0.57735834778E+03  0.63347031215E+03  0.17300000000E+03 0.  1.
<mgrwt>
<rscale>  2 0.26065681E+03</rscale>
<asrwt>0</asrwt>
<pdfrwt beam="1">  1       21 0.66039796E-02 0.26065681E+03</pdfrwt>
<pdfrwt beam="2">  1       21 0.26887525E+00 0.26065681E+03</pdfrwt>
<totfact> 0.81240354E+03</totfact>
</mgrwt>
</event>
<event>
 4    1  0.3973261E+000  0.2137473E+03  0.7546771E-02  0.1138632E+00
         21   -1    0    0  503  502  0.00000000000E+00  0.00000000000E+00  0.98083612104E+03  0.98083612104E+03  0.00000000000E+00 0. -1.
         21   -1    0    0  501  503 -0.00000000000E+00 -0.00000000000E+00 -0.10856159122E+03  0.10856159122E+03  0.00000000000E+00 0. -1.
          6    1    1    2  501    0  0.12486709345E+03 -0.12927403153E+02  0.24563469763E+02  0.21515406765E+03  0.17300000000E+03 0. -1.
         -6    1    1    2    0  502 -0.12486709345E+03  0.12927403153E+02  0.84771106006E+03  0.87424364461E+03  0.17300000000E+03 0. -1.
<mgrwt>
<rscale>  2 0.21374730E+03</rscale>
<asrwt>0</asrwt>
<pdfrwt beam="1">  1       21 0.15089786E+00 0.21374730E+03</pdfrwt>
<pdfrwt beam="2">  1       21 0.16701784E-01 0.21374730E+03</pdfrwt>
<totfact> 0.93342145E+03</totfact>
</mgrwt>
</event>
<event>
 4    1  0.3973261E+000  0.1830498E+03  0.7546771E-02  0.1164884E+00
         21   -1    0    0  503  502  0.00000000000E+00  0.00000000000E+00  0.10754740795E+03  0.10754740795E+03  0.00000000000E+00 0. -1.
         21   -1    0    0  501  503 -0.00000000000E+00 -0.00000000000E+00 -0.42607233977E+03  0.42607233977E+03  0.00000000000E+00 0. -1.
          6    1    1    2  501    0 -0.59545652244E+02 -0.57034802220E+01 -0.29758434671E+03  0.34937609792E+03  0.17300000000E+03 0. -1.
         -6    1    1    2    0  502  0.59545652244E+02  0.57034802220E+01 -0.20940585100E+02  0.18424364980E+03  0.17300000000E+03 0. -1.
<mgrwt>
<rscale>  2 0.18304976E+03</rscale>
<asrwt>0</asrwt>
<pdfrwt beam="1">  1       21 0.16545755E-01 0.18304976E+03</pdfrwt>
<pdfrwt beam="2">  1       21 0.65549591E-01 0.18304976E+03</pdfrwt>
<totfact> 0.70454763E+04</totfact>
</mgrwt>
</event>
<event>
 4    1  0.3973261E+000  0.1798460E+03  0.7546771E-02  0.1167952E+00
         21   -1    0    0  501  502  0.00000000000E+00  0.00000000000E+00  0.22453374703E+04  0.22453374703E+04  0.00000000000E+00 0. -1.
         21   -1    0    0  502  503 -0.00000000000E+00 -0.00000000000E+00 -0.16692505382E+02  0.16692505382E+02  0.00000000000E+00 0. -1.
          6    1    1    2  501    0 -0.32081126121E+02 -0.37234338819E+02  0.15329879741E+04  0.15435014491E+04  0.17300000000E+03 0. -1.
         -6    1    1    2    0  503  0.32081126121E+02  0.37234338819E+02  0.69565699087E+03  0.71852852663E+03  0.17300000000E+03 0. -1.
<mgrwt>
<rscale>  2 0.17984603E+03</rscale>
<asrwt>0</asrwt>
<pdfrwt beam="1">  1       21 0.34543629E+00 0.17984603E+03</pdfrwt>
<pdfrwt beam="2">  1       21 0.25680795E-02 0.17984603E+03</pdfrwt>
<totfact> 0.15442864E+04</totfact>
</mgrwt>
</event>
<event>
 4    1  0.3973261E+000  0.1738284E+03  0.7546771E-02  0.1173913E+00
         21   -1    0    0  501  502  0.00000000000E+00  0.00000000000E+00  0.50148031198E+02  0.50148031198E+02  0.00000000000E+00 0. -1.
         21   -1    0    0  502  503 -0.00000000000E+00 -0.00000000000E+00 -0.64277336536E+03  0.64277336536E+03  0.00000000000E+00 0. -1.
          6    1    1    2  501    0  0.12561773911E+02 -0.11380685438E+02 -0.20963545496E+03  0.27232947351E+03  0.17300000000E+03 0.  1.
         -6    1    1    2    0  503 -0.12561773911E+02  0.11380685438E+02 -0.38298987921E+03  0.42059192305E+03  0.17300000000E+03 0.  1.
<mgrwt>
<rscale>  2 0.17382842E+03</rscale>
<asrwt>0</asrwt>
<pdfrwt beam="1">  1       21 0.77150822E-02 0.17382842E+03</pdfrwt>
<pdfrwt beam="2">  1       21 0.98888204E-01 0.17382842E+03</pdfrwt>
<totfact> 0.10856593E+05</totfact>
</mgrwt>
</event>
<event>
 4    1  0.3973261E+000  0.2245488E+03  0.7546771E-02  0.1130536E+00
         21   -1    0    0  503  502  0.00000000000E+00  0.00000000000E+00  0.27717363280E+02  0.27717363280E+02  0.00000000000E+00 0. -1.
         21   -1    0    0  501  503 -0.00000000000E+00 -0.00000000000E+00 -0.18376818305E+04  0.18376818305E+04  0.00000000000E+00 0. -1.
          6    1    1    2  501    0  0.12402344795E+03  0.71493720950E+02 -0.81133124635E+03  0.84183166909E+03  0.17300000000E+03 0. -1.
         -6    1    1    2    0  502 -0.12402344795E+03 -0.71493720950E+02 -0.99863322089E+03  0.10235675247E+04  0.17300000000E+03 0. -1.
<mgrwt>
<rscale>  2 0.22454881E+03</rscale>
<asrwt>0</asrwt>
<pdfrwt beam="1">  1       21 0.42642093E-02 0.22454881E+03</pdfrwt>
<pdfrwt beam="2">  1       21 0.28272031E+00 0.22454881E+03</pdfrwt>
<totfact> 0.14663139E+04</totfact>
</mgrwt>
</event>
<event>
 4    1  0.3973261E+000  0.1792644E+03  0.7546771E-02  0.1168517E+00
         21   -1    0    0  501  502  0.00000000000E+00  0.00000000000E+00  0.15794514191E+04  0.15794514191E+04  0.00000000000E+00 0.  1.
         21   -1    0    0  502  503 -0.00000000000E+00 -0.00000000000E+00 -0.38276863105E+02  0.38276863105E+02  0.00000000000E+00 0.  1.
          6    1    1    2  501    0 -0.90980922452E+01 -0.46086510314E+02  0.13242003033E+04  0.13362792317E+04  0.17300000000E+03 0.  1.
         -6    1    1    2    0  503  0.90980922452E+01  0.46086510314E+02  0.21697425267E+03  0.28144905052E+03  0.17300000000E+03 0.  1.
<mgrwt>
<rscale>  2 0.17926445E+03</rscale>
<asrwt>0</asrwt>
<pdfrwt beam="1">  1       21 0.24299248E+00 0.17926445E+03</pdfrwt>
<pdfrwt beam="2">  1       21 0.58887494E-02 0.17926445E+03</pdfrwt>
<totfact> 0.15073093E+04</totfact>
</mgrwt>
</event>
<event>
 4    1  0.3973261E+000  0.3042676E+03  0.7546771E-02  0.1083127E+00
         21   -1    0    0  503  502  0.00000000000E+00  0.00000000000E+00  0.72302881029E+02  0.72302881029E+02  0.00000000000E+00 0.  1.
         21   -1    0    0  501  503 -0.00000000000E+00 -0.00000000000E+00 -0.16429848327E+04  0.16429848327E+04  0.00000000000E+00 0. -1.
          6    1    1    2  501    0  0.11714064832E+02  0.25002504860E+03 -0.11882224826E+04  0.12265608066E+04  0.17300000000E+03 0. -1.
         -6    1    1    2    0  502 -0.11714064832E+02 -0.25002504860E+03 -0.38245946915E+03  0.48872690717E+03  0.17300000000E+03 0.  1.
<mgrwt>
<rscale>  2 0.30426755E+03</rscale>
<asrwt>0</asrwt>
<pdfrwt beam="1">  1       21 0.11123521E-01 0.30426755E+03</pdfrwt>
<pdfrwt beam="2">  1       21 0.25276689E+00 0.30426755E+03</pdfrwt>
<totfact> 0.39137125E+03</totfact>
</mgrwt>
</event>
<event>
 4    1  0.3973261E+000  0.1994189E+03  0.7546771E-02  0.1150230E+00
         21   -1    0    0  503  502  0.00000000000E+00  0.00000000000E+00  0.30227311273E+03  0.30227311273E+03  0.00000000000E+00 0.  1.
         21   -1    0    0  501  503 -0.00000000000E+00 -0.00000000000E+00 -0.15647469798E+03  0.15647469798E+03  0.00000000000E+00 0. -1.
          6    1    1    2  501    0  0.46155014192E+02  0.87798594952E+02 -0.18622874141E+02  0.20028651990E+03  0.17300000000E+03 0. -1.
         -6    1    1    2    0  502 -0.46155014192E+02 -0.87798594952E+02  0.16442128889E+03  0.25846129082E+03  0.17300000000E+03 0.  1.
<mgrwt>
<rscale>  2 0.19941885E+03</rscale>
<asrwt>0</asrwt>
<pdfrwt beam="1">  1       21 0.46503556E-01 0.19941885E+03</pdfrwt>
<pdfrwt beam="2">  1       21 0.24073031E-01 0.19941885E+03</pdfrwt>
<totfact> 0.71871377E+04</totfact>
</mgrwt>
</event>
<event>
 4    1  0.3973261E+000  0.1764848E+03  0.7546771E-02  0.1171249E+00
         21   -1    0    0  501  502  0.00000000000E+00  0.00000000000E+00  0.14789160954E+03  0.14789160954E+03  0.00000000000E+00 0.  1.
         21   -1    0    0  502  503 -0.00000000000E+00 -0.00000000000E+00 -0.21244391344E+03  0.21244391344E+03  0.00000000000E+00 0.  1.
          6    1    1    2  501    0  0.18329826796E+02 -0.29696585186E+02 -0.15518624085E+02  0.17716573432E+03  0.17300000000E+03 0.  1.
         -6    1    1    2    0  503 -0.18329826796E+02  0.29696585186E+02 -0.49033679811E+02  0.18316978866E+03  0.17300000000E+03 0.  1.
<mgrwt>
<rscale>  2 0.17648476E+03</rscale>
<asrwt>0</asrwt>
<pdfrwt beam="1">  1       21 0.22752555E-01 0.17648476E+03</pdfrwt>
<pdfrwt beam="2">  1       21 0.32683679E-01 0.17648476E+03</pdfrwt>
<totfact> 0.16404083E+05</totfact>
</mgrwt>
</event>
<event>
 4    1  0.3973261E+000  0.2130138E+03  0.7546771E-02  0.1139201E+00
         21   -1    0    0  501  502  0.00000000000E+00  0.00000000000E+00  0.73146213094E+02  0.73146213094E+02  0.00000000000E+00 0. -1.
         21   -1    0    0  502  503 -0.00000000000E+00 -0.00000000000E+00 -0.62033788739E+03  0.62033788739E+03  0.00000000000E+00 0. -1.
          6    1    1    2  501    0 -0.29003318498E+02  0.12084980569E+03 -0.27474602582E+03  0.34764960337E+03  0.17300000000E+03 0. -1.
         -6    1    1    2    0  503  0.29003318498E+02 -0.12084980569E+03 -0.27244564847E+03  0.34583449711E+03  0.17300000000E+03 0. -1.
<mgrwt>
<rscale>  2 0.21301377E+03</rscale>
<asrwt>0</asrwt>
<pdfrwt beam="1">  1       21 0.11253264E-01 0.21301377E+03</pdfrwt>
<pdfrwt beam="2">  1       21 0.95436597E-01 0.21301377E+03</pdfrwt>
<totfact> 0.59725480E+04</totfact>
</mgrwt>
</event>
<event>
 4    1  0.3973261E+000  0.1743126E+03  0.7546771E-02  0.1173424E+00
         21   -1    0    0  503  502  0.00000000000E+00  0.00000000000E+00  0.31876821533E+03  0.31876821533E+03  0.00000000000E+00 0. -1.
         21   -1    0    0  501  503 -0.00000000000E+00 -0.00000000000E+00 -0.19082243181E+03  0.19082243181E+03  0.00000000000E+00 0. -1.
          6    1    1    2  501    0  0.10565859496E+02  0.18553705694E+02 -0.11628103387E+03  0.20953795890E+03  0.17300000000E+03 0. -1.
         -6    1    1    2    0  502 -0.10565859496E+02 -0.18553705694E+02  0.24422681740E+03  0.30005268824E+03  0.17300000000E+03 0. -1.
<mgrwt>
<rscale>  2 0.17431259E+03</rscale>
<asrwt>0</asrwt>
<pdfrwt beam="1">  1       21 0.49041264E-01 0.17431259E+03</pdfrwt>
<pdfrwt beam="2">  1       21 0.29357297E-01 0.17431259E+03</pdfrwt>
<totfact> 0.44495626E+04</totfact>
</mgrwt>
</event>
<event>
 4    1  0.3973261E+000  0.1788441E+03  0.7546771E-02  0.1168926E+00
         21   -1    0    0  501  502  0.00000000000E+00  0.00000000000E+00  0.86650369078E+02  0.86650369078E+02  0.00000000000E+00 0.  1.
         21   -1    0    0  502  503 -0.00000000000E+00 -0.00000000000E+00 -0.10968748488E+04  0.10968748488E+04  0.00000000000E+00 0.  1.
          6    1    1    2  501    0  0.41409450663E+02  0.18478647338E+02 -0.23099279580E+02  0.18032964185E+03  0.17300000000E+03 0.  1.
         -6    1    1    2    0  503 -0.41409450663E+02 -0.18478647338E+02 -0.98712520015E+03  0.10031955760E+04  0.17300000000E+03 0.  1.
<mgrwt>
<rscale>  2 0.17884407E+03</rscale>
<asrwt>0</asrwt>
<pdfrwt beam="1">  1       21 0.13330826E-01 0.17884407E+03</pdfrwt>
<pdfrwt beam="2">  1       21 0.16874997E+00 0.17884407E+03</pdfrwt>
<totfact> 0.10694742E+04</totfact>
</mgrwt>
</event>
<event>
 4    1  0.3973261E+000  0.1938250E+03  0.7546771E-02  0.1155056E+00
         21   -1    0    0  503  502  0.00000000000E+00  0.00000000000E+00  0.93358315116E+02  0.93358315116E+02  0.00000000000E+00 0.  1.
         21   -1    0    0  501  503 -0.00000000000E+00 -0.00000000000E+00 -0.40612773607E+03  0.40612773607E+03  0.00000000000E+00 0. -1.
          6    1    1    2  501    0 -0.57030252105E+02 -0.66232101353E+02 -0.18028554594E+03  0.26470931034E+03  0.17300000000E+03 0.  1.
         -6    1    1    2    0  502  0.57030252105E+02  0.66232101353E+02 -0.13248387502E+03  0.23477674085E+03  0.17300000000E+03 0. -1.
<mgrwt>
<rscale>  2 0.19382503E+03</rscale>
<asrwt>0</asrwt>
<pdfrwt beam="1">  1       21 0.14362818E-01 0.19382503E+03</pdfrwt>
<pdfrwt beam="2">  1       21 0.62481190E-01 0.19382503E+03</pdfrwt>
<totfact> 0.10075656E+05</totfact>
</mgrwt>
</event>
<event>
 4    1  0.3973261E+000  0.2217083E+03  0.7546771E-02  0.1132616E+00
         21   -1    0    0  503  502  0.00000000000E+00  0.00000000000E+00  0.31846065445E+03  0.31846065445E+03  0.00000000000E+00 0. -1.
         21   -1    0    0  501  503 -0.00000000000E+00 -0.00000000000E+00 -0.10345267885E+04  0.10345267885E+04  0.00000000000E+00 0. -1.
          6    1    1    2  501    0  0.12660680799E+03  0.56535826371E+02 -0.98202318939E+03  0.10067393545E+04  0.17300000000E+03 0. -1.
         -6    1    1    2    0  502 -0.12660680799E+03 -0.56535826371E+02  0.26595705530E+03  0.34624808845E+03  0.17300000000E+03 0. -1.
<mgrwt>
<rscale>  2 0.22170833E+03</rscale>
<asrwt>0</asrwt>
<pdfrwt beam="1">  1       21 0.48993946E-01 0.22170833E+03</pdfrwt>
<pdfrwt beam="2">  1       21 0.15915797E+00 0.22170833E+03</pdfrwt>
<totfact> 0.98550006E+02</totfact>
</mgrwt>
</event>
<event>
 4    1  0.3973261E+000  0.2086386E+03  0.7546771E-02  0.1142649E+00
         21   -1    0    0  501  502  0.00000000000E+00  0.00000000000E+00  0.81598439369E+03  0.81598439369E+03  0.00000000000E+00 0.  1.
         21   -1    0    0  502  503 -0.00000000000E+00 -0.00000000000E+00 -0.65631320975E+02  0.65631320975E+02  0.00000000000E+00 0. -1.
          6    1    1    2  501    0 -0.46505485957E+02  0.10694994267E+03  0.56588727984E+03  0.60312392088E+03  0.17300000000E+03 0.  1.
         -6    1    1    2    0  503  0.46505485957E+02 -0.10694994267E+03  0.18446579288E+03  0.27849179378E+03  0.17300000000E+03 0. -1.
<mgrwt>
<rscale>  2 0.20863856E+03</rscale>
<asrwt>0</asrwt>
<pdfrwt beam="1">  1       21 0.12553605E+00 0.20863856E+03</pdfrwt>
<pdfrwt beam="2">  1       21 0.10097127E-01 0.20863856E+03</pdfrwt>
<totfact> 0.37307753E+04</totfact>
</mgrwt>
</event>
<event>
 4    1  0.3973261E+000  0.3464535E+03  0.7546771E-02  0.1064080E+00
         21   -1    0    0  501  502  0.00000000000E+00  0.00000000000E+00  0.10832221289E+04  0.10832221289E+04  0.00000000000E+00 0. -1.
         21   -1    0    0  502  503 -0.00000000000E+00 -0.00000000000E+00 -0.13183212939E+03  0.13183212939E+03  0.00000000000E+00 0.  1.
          6    1    1    2  501    0 -0.19501006489E+03 -0.22819317008E+03  0.71830601716E+03  0.79749205799E+03  0.17300000000E+03 0. -1.
         -6    1    1    2    0  503  0.19501006489E+03  0.22819317008E+03  0.23308398232E+03  0.41756220027E+03  0.17300000000E+03 0.  1.
<mgrwt>
<rscale>  2 0.34645353E+03</rscale>
<asrwt>0</asrwt>
<pdfrwt beam="1">  1       21 0.16664955E+00 0.34645353E+03</pdfrwt>
<pdfrwt beam="2">  1       21 0.20281867E-01 0.34645353E+03</pdfrwt>
<totfact> 0.45833407E+03</totfact>
</mgrwt>
</event>
<event>
 4    1  0.3973261E+000  0.2197776E+03  0.7546771E-02  0.1134049E+00
         21   -1    0    0  501  502  0.00000000000E+00  0.00000000000E+00  0.43287912993E+03  0.43287912993E+03  0.00000000000E+00 0. -1.
         21   -1    0    0  502  503 -0.00000000000E+00 -0.00000000000E+00 -0.14847848245E+03  0.14847848245E+03  0.00000000000E+00 0. -1.
          6    1    1    2  501    0 -0.72528669761E+02  0.11451102191E+03  0.28709921951E+03  0.36156347149E+03  0.17300000000E+03 0. -1.
         -6    1    1    2    0  503  0.72528669761E+02 -0.11451102191E+03 -0.26985720216E+01  0.21979414089E+03  0.17300000000E+03 0. -1.
<mgrwt>
<rscale>  2 0.21977757E+03</rscale>
<asrwt>0</asrwt>
<pdfrwt beam="1">  1       21 0.66596789E-01 0.21977757E+03</pdfrwt>
<pdfrwt beam="2">  1       21 0.22842844E-01 0.21977757E+03</pdfrwt>
<totfact> 0.36651672E+04</totfact>
</mgrwt>
</event>
<event>
 4    1  0.3973261E+000  0.2529785E+03  0.7546771E-02  0.1111437E+00
         21   -1    0    0  501  502  0.00000000000E+00  0.00000000000E+00  0.16098600995E+03  0.16098600995E+03  0.00000000000E+00 0.  1.
         21   -1    0    0  502  503 -0.00000000000E+00 -0.00000000000E+00 -0.40589560265E+03  0.40589560265E+03  0.00000000000E+00 0. -1.
          6    1    1    2  501    0  0.18395114817E+03 -0.15202020773E+02 -0.81783803384E+02  0.26586973661E+03  0.17300000000E+03 0.  1.
         -6    1    1    2    0  503 -0.18395114817E+03  0.15202020773E+02 -0.16312578932E+03  0.30101187599E+03  0.17300000000E+03 0. -1.
<mgrwt>
<rscale>  2 0.25297851E+03</rscale>
<asrwt>0</asrwt>
<pdfrwt beam="1">  1       21 0.24767079E-01 0.25297851E+03</pdfrwt>
<pdfrwt beam="2">  1       21 0.62445477E-01 0.25297851E+03</pdfrwt>
<totfact> 0.35611324E+04</totfact>
</mgrwt>
</event>
<event>
 4    1  0.3973261E+000  0.1993681E+03  0.7546771E-02  0.1150273E+00
         21   -1    0    0  501  502  0.00000000000E+00  0.00000000000E+00  0.16665929981E+03  0.16665929981E+03  0.00000000000E+00 0.  1.
         21   -1    0    0  502  503 -0.00000000000E+00 -0.00000000000E+00 -0.29935749744E+03  0.29935749744E+03  0.00000000000E+00 0. -1.
          6    1    1    2  501    0 -0.73138745414E+02 -0.66853269134E+02  0.38713116130E+02  0.20309195217E+03  0.17300000000E+03 0.  1.
         -6    1    1    2    0  503  0.73138745414E+02  0.66853269134E+02 -0.17141131377E+03  0.26292484508E+03  0.17300000000E+03 0. -1.
<mgrwt>
<rscale>  2 0.19936809E+03</rscale>
<asrwt>0</asrwt>
<pdfrwt beam="1">  1       21 0.25639892E-01 0.19936809E+03</pdfrwt>
<pdfrwt beam="2">  1       21 0.46054999E-01 0.19936809E+03</pdfrwt>
<totfact> 0.65007048E+04</totfact>
</mgrwt>
</event>
<event>
 4    1  0.3973261E+000  0.1755512E+03  0.7546771E-02  0.1172179E+00
         21   -1    0    0  501  502  0.00000000000E+00  0.00000000000E+00  0.10456053349E+03  0.10456053349E+03  0.00000000000E+00 0.  1.
         21   -1    0    0  502  503 -0.00000000000E+00 -0.00000000000E+00 -0.29580301723E+03  0.29580301723E+03  0.00000000000E+00 0.  1.
          6    1    1    2  501    0  0.60958513952E+01 -0.29189940844E+02 -0.83623088050E+02  0.19445059245E+03  0.17300000000E+03 0.  1.
         -6    1    1    2    0  503 -0.60958513952E+01  0.29189940844E+02 -0.10761939569E+03  0.20591295826E+03  0.17300000000E+03 0.  1.
<mgrwt>
<rscale>  2 0.17555117E+03</rscale>
<asrwt>0</asrwt>
<pdfrwt beam="1">  1       21 0.16086236E-01 0.17555117E+03</pdfrwt>
<pdfrwt beam="2">  1       21 0.45508157E-01 0.17555117E+03</pdfrwt>
<totfact> 0.16074756E+05</totfact>
</mgrwt>
</event>
<event>
 4    1  0.3973261E+000  0.1968826E+03  0.7546771E-02  0.1152396E+00
         21   -1    0    0  501  502  0.00000000000E+00  0.00000000000E+00  0.34967786682E+02  0.34967786682E+02  0.00000000000E+00 0. -1.
         21   -1    0    0  502  503 -0.00000000000E+00 -0.00000000000E+00 -0.15804743812E+04  0.15804743812E+04  0.00000000000E+00 0. -1.
          6    1    1    2  501    0 -0.72287739866E+02  0.60068529678E+02 -0.33137157103E+03  0.38544761470E+03  0.17300000000E+03 0. -1.
         -6    1    1    2    0  503  0.72287739866E+02 -0.60068529678E+02 -0.12141350235E+04  0.12299945532E+04  0.17300000000E+03 0. -1.
<mgrwt>
<rscale>  2 0.19688257E+03</rscale>
<asrwt>0</asrwt>
<pdfrwt beam="1">  1       21 0.53796599E-02 0.19688257E+03</pdfrwt>
<pdfrwt beam="2">  1       21 0.24314989E+00 0.19688257E+03</pdfrwt>
<totfact> 0.17271923E+04</totfact>
</mgrwt>
</event>
<event>
 4    1  0.3973261E+000  0.2086420E+03  0.7546771E-02  0.1142646E+00
         21   -1    0    0  501  502  0.00000000000E+00  0.00000000000E+00  0.18212367766E+04  0.18212367766E+04  0.00000000000E+00 0.  1.
         21   -1    0    0  502  503 -0.00000000000E+00 -0.00000000000E+00 -0.34256612630E+02  0.34256612630E+02  0.00000000000E+00 0. -1.
          6    1    1    2  501    0  0.14015386998E+01 -0.11662120140E+03  0.14035498340E+04  0.14189727289E+04  0.17300000000E+03 0.  1.
         -6    1    1    2    0  503 -0.14015386998E+01  0.11662120140E+03  0.38343032996E+03  0.43652066029E+03  0.17300000000E+03 0. -1.
<mgrwt>
<rscale>  2 0.20864196E+03</rscale>
<asrwt>0</asrwt>
<pdfrwt beam="1">  1       21 0.28019020E+00 0.20864196E+03</pdfrwt>
<pdfrwt beam="2">  1       21 0.52702495E-02 0.20864196E+03</pdfrwt>
<totfact> 0.10747871E+04</totfact>
</mgrwt>
</event>
<event>
 4    1  0.3973261E+000  0.1742186E+03  0.7546771E-02  0.1173519E+00
         21   -1    0    0  501  502  0.00000000000E+00  0.00000000000E+00  0.52238906872E+02  0.52238906872E+02  0.00000000000E+00 0. -1.
         21   -1    0    0  502  503 -0.00000000000E+00 -0.00000000000E+00 -0.75485047633E+03  0.75485047633E+03  0.00000000000E+00 0. -1.
          6    1    1    2  501    0  0.11435841034E+02  0.17097618543E+02 -0.15765557214E+03  0.23496252136E+03  0.17300000000E+03 0. -1.
         -6    1    1    2    0  503 -0.11435841034E+02 -0.17097618543E+02 -0.54495599732E+03  0.57212686184E+03  0.17300000000E+03 0. -1.
<mgrwt>
<rscale>  2 0.17421856E+03</rscale>
<asrwt>0</asrwt>
<pdfrwt beam="1">  1       21 0.80367557E-02 0.17421856E+03</pdfrwt>
<pdfrwt beam="2">  1       21 0.11613083E+00 0.17421856E+03</pdfrwt>
<totfact> 0.68753217E+04</totfact>
</mgrwt>
</event>
<event>
 4    1  0.3973261E+000  0.1962256E+03  0.7546771E-02  0.1152963E+00
         21   -1    0    0  503  502  0.00000000000E+00  0.00000000000E+00  0.29675216409E+03  0.29675216409E+03  0.00000000000E+00 0. -1.
         21   -1    0    0  501  503 -0.00000000000E+00 -0.00000000000E+00 -0.13752126529E+03  0.13752126529E+03  0.00000000000E+00 0. -1.
          6    1    1    2  501    0 -0.57572234119E+02 -0.72532199320E+02  0.28008225808E+02  0.19821438594E+03  0.17300000000E+03 0. -1.
         -6    1    1    2    0  502  0.57572234119E+02  0.72532199320E+02  0.13122267299E+03  0.23605904343E+03  0.17300000000E+03 0. -1.
<mgrwt>
<rscale>  2 0.19622559E+03</rscale>
<asrwt>0</asrwt>
<pdfrwt beam="1">  1       21 0.45654179E-01 0.19622559E+03</pdfrwt>
<pdfrwt beam="2">  1       21 0.21157118E-01 0.19622559E+03</pdfrwt>
<totfact> 0.95432134E+04</totfact>
</mgrwt>
</event>
<event>
 4    1  0.3973261E+000  0.1962120E+03  0.7546771E-02  0.1152975E+00
         21   -1    0    0  503  502  0.00000000000E+00  0.00000000000E+00  0.57517538410E+03  0.57517538410E+03  0.00000000000E+00 0. -1.
         21   -1    0    0  501  503 -0.00000000000E+00 -0.00000000000E+00 -0.74242358653E+02  0.74242358653E+02  0.00000000000E+00 0. -1.
          6    1    1    2  501    0  0.50741103166E+02  0.77430561732E+02  0.14859342155E+03  0.24612833313E+03  0.17300000000E+03 0. -1.
         -6    1    1    2    0  502 -0.50741103166E+02 -0.77430561732E+02  0.35233960390E+03  0.40328940963E+03  0.17300000000E+03 0. -1.
<mgrwt>
<rscale>  2 0.19621201E+03</rscale>
<asrwt>0</asrwt>
<pdfrwt beam="1">  1       21 0.88488518E-01 0.19621201E+03</pdfrwt>
<pdfrwt beam="2">  1       21 0.11421902E-01 0.19621201E+03</pdfrwt>
<totfact> 0.69906249E+04</totfact>
</mgrwt>
</event>
<event>
 4    1  0.3973261E+000  0.1760237E+03  0.7546771E-02  0.1171708E+00
         21   -1    0    0  501  502  0.00000000000E+00  0.00000000000E+00  0.36971366769E+03  0.36971366769E+03  0.00000000000E+00 0. -1.
         21   -1    0    0  502  503 -0.00000000000E+00 -0.00000000000E+00 -0.10154787077E+03  0.10154787077E+03  0.00000000000E+00 0. -1.
          6    1    1    2  501    0 -0.21443990926E+02  0.24402804390E+02  0.23257295582E+03  0.29167536987E+03  0.17300000000E+03 0.  1.
         -6    1    1    2    0  503  0.21443990926E+02 -0.24402804390E+02  0.35592841098E+02  0.17958616858E+03  0.17300000000E+03 0.  1.
<mgrwt>
<rscale>  2 0.17602370E+03</rscale>
<asrwt>0</asrwt>
<pdfrwt beam="1">  1       21 0.56879025E-01 0.17602370E+03</pdfrwt>
<pdfrwt beam="2">  1       21 0.15622750E-01 0.17602370E+03</pdfrwt>
<totfact> 0.10646025E+05</totfact>
</mgrwt>
</event>
<event>
 4    1  0.3973261E+000  0.2023946E+03  0.7546771E-02  0.1147734E+00
         21   -1    0    0  503  502  0.00000000000E+00  0.00000000000E+00  0.24044835819E+03  0.24044835819E+03  0.00000000000E+00 0.  1.
         21   -1    0    0  501  503 -0.00000000000E+00 -0.00000000000E+00 -0.50474012932E+03  0.50474012932E+03  0.00000000000E+00 0.  1.
          6    1    1    2  501    0  0.13994010153E+01  0.10503628541E+03 -0.43540949613E+03  0.48015102717E+03  0.17300000000E+03 0.  1.
         -6    1    1    2    0  502 -0.13994010153E+01 -0.10503628541E+03  0.17111772499E+03  0.26503746034E+03  0.17300000000E+03 0.  1.
<mgrwt>
<rscale>  2 0.20239461E+03</rscale>
<asrwt>0</asrwt>
<pdfrwt beam="1">  1       21 0.36992055E-01 0.20239461E+03</pdfrwt>
<pdfrwt beam="2">  1       21 0.77652327E-01 0.20239461E+03</pdfrwt>
<totfact> 0.10296948E+04</totfact>
</mgrwt>
</event>
<event>
 4    1  0.3973261E+000  0.1855372E+03  0.7546771E-02  0.1162549E+00
         21   -1    0    0  503  502  0.00000000000E+00  0.00000000000E+00  0.53936884618E+02  0.53936884618E+02  0.00000000000E+00 0.  1.
         21   -1    0    0  501  503 -0.00000000000E+00 -0.00000000000E+00 -0.88566338543E+03  0.88566338543E+03  0.00000000000E+00 0.  1.
          6    1    1    2  501    0  0.43751863970E+02 -0.50801995458E+02 -0.66418174790E+03  0.68960964508E+03  0.17300000000E+03 0.  1.
         -6    1    1    2    0  502 -0.43751863970E+02  0.50801995458E+02 -0.16754475291E+03  0.24999062496E+03  0.17300000000E+03 0.  1.
<mgrwt>
<rscale>  2 0.18553724E+03</rscale>
<asrwt>0</asrwt>
<pdfrwt beam="1">  1       21 0.82979827E-02 0.18553724E+03</pdfrwt>
<pdfrwt beam="2">  1       21 0.13625590E+00 0.18553724E+03</pdfrwt>
<totfact> 0.43370331E+04</totfact>
</mgrwt>
</event>
<event>
 4    1  0.3973261E+000  0.2131621E+03  0.7546771E-02  0.1139086E+00
         21   -1    0    0  503  502  0.00000000000E+00  0.00000000000E+00  0.15852827600E+03  0.15852827600E+03  0.00000000000E+00 0.  1.
         21   -1    0    0  501  503 -0.00000000000E+00 -0.00000000000E+00 -0.45801171481E+03  0.45801171481E+03  0.00000000000E+00 0.  1.
          6    1    1    2  501    0 -0.11462180028E+03 -0.48691995061E+02 -0.33831594640E+03  0.39986966260E+03  0.17300000000E+03 0.  1.
         -6    1    1    2    0  502  0.11462180028E+03  0.48691995061E+02  0.38832507587E+02  0.21667032821E+03  0.17300000000E+03 0.  1.
<mgrwt>
<rscale>  2 0.21316207E+03</rscale>
<asrwt>0</asrwt>
<pdfrwt beam="1">  1       21 0.24388965E-01 0.21316207E+03</pdfrwt>
<pdfrwt beam="2">  1       21 0.70463341E-01 0.21316207E+03</pdfrwt>
<totfact> 0.28669663E+04</totfact>
</mgrwt>
</event>
<event>
 4    1  0.3973261E+000  0.3097110E+03  0.7546771E-02  0.1080484E+00
         21   -1    0    0  503  502  0.00000000000E+00  0.00000000000E+00  0.20976422964E+03  0.20976422964E+03  0.00000000000E+00 0.  1.
         21   -1    0    0  501  503 -0.00000000000E+00 -0.00000000000E+00 -0.45783588405E+03  0.45783588405E+03  0.00000000000E+00 0.  1.
          6    1    1    2  501    0  0.24422804507E+01 -0.25687724127E+03 -0.13567224359E+03  0.33812400018E+03  0.17300000000E+03 0.  1.
         -6    1    1    2    0  502 -0.24422804507E+01  0.25687724127E+03 -0.11239941083E+03  0.32947611351E+03  0.17300000000E+03 0.  1.
<mgrwt>
<rscale>  2 0.30971096E+03</rscale>
<asrwt>0</asrwt>
<pdfrwt beam="1">  1       21 0.32271420E-01 0.30971096E+03</pdfrwt>
<pdfrwt beam="2">  1       21 0.70436290E-01 0.30971096E+03</pdfrwt>
<totfact> 0.15906566E+04</totfact>
</mgrwt>
</event>
<event>
 4    1  0.3973261E+000  0.2538494E+03  0.7546771E-02  0.1110896E+00
         21   -1    0    0  503  502  0.00000000000E+00  0.00000000000E+00  0.24630888511E+03  0.24630888511E+03  0.00000000000E+00 0. -1.
         21   -1    0    0  501  503 -0.00000000000E+00 -0.00000000000E+00 -0.11831803944E+04  0.11831803944E+04  0.00000000000E+00 0.  1.
          6    1    1    2  501    0 -0.18401931708E+03  0.25444414740E+02 -0.10992291499E+04  0.11281596746E+04  0.17300000000E+03 0.  1.
         -6    1    1    2    0  502  0.18401931708E+03 -0.25444414740E+02  0.16235764067E+03  0.30132960489E+03  0.17300000000E+03 0. -1.
<mgrwt>
<rscale>  2 0.25384942E+03</rscale>
<asrwt>0</asrwt>
<pdfrwt beam="1">  1       21 0.37893675E-01 0.25384942E+03</pdfrwt>
<pdfrwt beam="2">  1       21 0.18202775E+00 0.25384942E+03</pdfrwt>
<totfact> 0.11169316E+03</totfact>
</mgrwt>
</event>
<event>
 4    1  0.3973261E+000  0.2081690E+03  0.7546771E-02  0.1143024E+00
         21   -1    0    0  503  502  0.00000000000E+00  0.00000000000E+00  0.42929476459E+02  0.42929476459E+02  0.00000000000E+00 0.  1.
         21   -1    0    0  501  503 -0.00000000000E+00 -0.00000000000E+00 -0.11861427793E+04  0.11861427793E+04  0.00000000000E+00 0. -1.
          6    1    1    2  501    0 -0.24732232073E+01 -0.11575490727E+03 -0.80880546571E+03  0.83516501169E+03  0.17300000000E+03 0. -1.
         -6    1    1    2    0  502  0.24732232073E+01  0.11575490727E+03 -0.33440783711E+03  0.39390724404E+03  0.17300000000E+03 0.  1.
<mgrwt>
<rscale>  2 0.20816896E+03</rscale>
<asrwt>0</asrwt>
<pdfrwt beam="1">  1       21 0.66045344E-02 0.20816896E+03</pdfrwt>
<pdfrwt beam="2">  1       21 0.18248352E+00 0.20816896E+03</pdfrwt>
<totfact> 0.28965285E+04</totfact>
</mgrwt>
</event>
<event>
 4    1  0.3973261E+000  0.2215173E+03  0.7546771E-02  0.1132757E+00
         21   -1    0    0  501  502  0.00000000000E+00  0.00000000000E+00  0.76157763782E+03  0.76157763782E+03  0.00000000000E+00 0.  1.
         21   -1    0    0  502  503 -0.00000000000E+00 -0.00000000000E+00 -0.67972691030E+02  0.67972691030E+02  0.00000000000E+00 0.  1.
          6    1    1    2  501    0  0.81266540729E+02  0.11196733455E+03  0.44146811948E+03  0.49392715573E+03  0.17300000000E+03 0.  1.
         -6    1    1    2    0  503 -0.81266540729E+02 -0.11196733455E+03  0.25213682730E+03  0.33562317311E+03  0.17300000000E+03 0.  1.
<mgrwt>
<rscale>  2 0.22151735E+03</rscale>
<asrwt>0</asrwt>
<pdfrwt beam="1">  1       21 0.11716578E+00 0.22151735E+03</pdfrwt>
<pdfrwt beam="2">  1       21 0.10457338E-01 0.22151735E+03</pdfrwt>
<totfact> 0.41354491E+04</totfact>
</mgrwt>
</event>
<event>
 4    1  0.3973261E+000  0.1806274E+03  0.7546771E-02  0.1167197E+00
         21   -1    0    0  501  502  0.00000000000E+00  0.00000000000E+00  0.10192713048E+03  0.10192713048E+03  0.00000000000E+00 0. -1.
         21   -1    0    0  502  503 -0.00000000000E+00 -0.00000000000E+00 -0.32301474685E+03  0.32301474685E+03  0.00000000000E+00 0. -1.
          6    1    1    2  501    0 -0.24405027740E+02 -0.45843656412E+02 -0.90339336661E+02  0.20195901060E+03  0.17300000000E+03 0. -1.
         -6    1    1    2    0  503  0.24405027740E+02  0.45843656412E+02 -0.13074827971E+03  0.22298286674E+03  0.17300000000E+03 0. -1.
<mgrwt>
<rscale>  2 0.18062737E+03</rscale>
<asrwt>0</asrwt>
<pdfrwt beam="1">  1       21 0.15681097E-01 0.18062737E+03</pdfrwt>
<pdfrwt beam="2">  1       21 0.49694575E-01 0.18062737E+03</pdfrwt>
<totfact> 0.14017949E+05</totfact>
</mgrwt>
</event>
<event>
 4    1  0.3973261E+000  0.2231155E+03  0.7546771E-02  0.1131581E+00
         21   -1    0    0  503  502  0.00000000000E+00  0.00000000000E+00  0.57634447457E+02  0.57634447457E+02  0.00000000000E+00 0. -1.
         21   -1    0    0  501  503 -0.00000000000E+00 -0.00000000000E+00 -0.95282414570E+03  0.95282414570E+03  0.00000000000E+00 0.  1.
          6    1    1    2  501    0  0.14089145395E+03  0.10510551852E+01 -0.60208853733E+03  0.64209899026E+03  0.17300000000E+03 0.  1.
         -6    1    1    2    0  502 -0.14089145395E+03 -0.10510551852E+01 -0.29310116092E+03  0.36835960289E+03  0.17300000000E+03 0. -1.
<mgrwt>
<rscale>  2 0.22311546E+03</rscale>
<asrwt>0</asrwt>
<pdfrwt beam="1">  1       21 0.88668378E-02 0.22311546E+03</pdfrwt>
<pdfrwt beam="2">  1       21 0.14658833E+00 0.22311546E+03</pdfrwt>
<totfact> 0.31263583E+04</totfact>
</mgrwt>
</event>
<event>
 4    1  0.3973261E+000  0.2086683E+03  0.7546771E-02  0.1142625E+00
         21   -1    0    0  501  502  0.00000000000E+00  0.00000000000E+00  0.15722414057E+03  0.15722414057E+03  0.00000000000E+00 0.  1.
         21   -1    0    0  502  503 -0.00000000000E+00 -0.00000000000E+00 -0.32356944575E+03  0.32356944575E+03  0.00000000000E+00 0. -1.
          6    1    1    2  501    0  0.10262608942E+03  0.55510030261E+02  0.80810785192E+01  0.20882476271E+03  0.17300000000E+03 0.  1.
         -6    1    1    2    0  503 -0.10262608942E+03 -0.55510030261E+02 -0.17442638370E+03  0.27196882362E+03  0.17300000000E+03 0. -1.
<mgrwt>
<rscale>  2 0.20866834E+03</rscale>
<asrwt>0</asrwt>
<pdfrwt beam="1">  1       21 0.24188329E-01 0.20866834E+03</pdfrwt>
<pdfrwt beam="2">  1       21 0.49779915E-01 0.20866834E+03</pdfrwt>
<totfact> 0.61574987E+04</totfact>
</mgrwt>
</event>
<event>
 4    1  0.3973261E+000  0.1934946E+03  0.7546771E-02  0.1155347E+00
         21   -1    0    0  503  502  0.00000000000E+00  0.00000000000E+00  0.98246743532E+03  0.98246743532E+03  0.00000000000E+00 0.  1.
         21   -1    0    0  501  503 -0.00000000000E+00 -0.00000000000E+00 -0.28835164121E+03  0.28835164121E+03  0.00000000000E+00 0.  1.
          6    1    1    2  501    0  0.80557146749E+02 -0.31964379296E+02 -0.24487676355E+03  0.31209742832E+03  0.17300000000E+03 0.  1.
         -6    1    1    2    0  502 -0.80557146749E+02  0.31964379296E+02  0.93899255765E+03  0.95872164822E+03  0.17300000000E+03 0.  1.
<mgrwt>
<rscale>  2 0.19349464E+03</rscale>
<asrwt>0</asrwt>
<pdfrwt beam="1">  1       21 0.15114883E+00 0.19349464E+03</pdfrwt>
<pdfrwt beam="2">  1       21 0.44361791E-01 0.19349464E+03</pdfrwt>
<totfact> 0.14283437E+03</totfact>
</mgrwt>
</event>
<event>
 4    1  0.3973261E+000  0.4230279E+03  0.7546771E-02  0.1036085E+00
         21   -1    0    0  501  502  0.00000000000E+00  0.00000000000E+00  0.68017994576E+03  0.68017994576E+03  0.00000000000E+00 0. -1.
         21   -1    0    0  502  503 -0.00000000000E+00 -0.00000000000E+00 -0.39409189775E+03  0.39409189775E+03  0.00000000000E+00 0.  1.
          6    1    1    2  501    0 -0.37735409261E+03 -0.81409390609E+02  0.45272487232E+03  0.61960665757E+03  0.17300000000E+03 0. -1.
         -6    1    1    2    0  503  0.37735409261E+03  0.81409390609E+02 -0.16663682431E+03  0.45466518594E+03  0.17300000000E+03 0.  1.
<mgrwt>
<rscale>  2 0.42302790E+03</rscale>
<asrwt>0</asrwt>
<pdfrwt beam="1">  1       21 0.10464307E+00 0.42302790E+03</pdfrwt>
<pdfrwt beam="2">  1       21 0.60629523E-01 0.42302790E+03</pdfrwt>
<totfact> 0.16192206E+03</totfact>
</mgrwt>
</event>
<event>
 4    1  0.3973261E+000  0.2036225E+03  0.7546771E-02  0.1146718E+00
         21   -1    0    0  503  502  0.00000000000E+00  0.00000000000E+00  0.11535486866E+03  0.11535486866E+03  0.00000000000E+00 0.  1.
         21   -1    0    0  501  503 -0.00000000000E+00 -0.00000000000E+00 -0.42328317972E+03  0.42328317972E+03  0.00000000000E+00 0.  1.
          6    1    1    2  501    0  0.27392079168E+02 -0.10384018541E+03 -0.25856605191E+03  0.32911778030E+03  0.17300000000E+03 0.  1.
         -6    1    1    2    0  502 -0.27392079168E+02  0.10384018541E+03 -0.49362259145E+02  0.20952026808E+03  0.17300000000E+03 0.  1.
<mgrwt>
<rscale>  2 0.20362247E+03</rscale>
<asrwt>0</asrwt>
<pdfrwt beam="1">  1       21 0.17746903E-01 0.20362247E+03</pdfrwt>
<pdfrwt beam="2">  1       21 0.65120489E-01 0.20362247E+03</pdfrwt>
<totfact> 0.62240771E+04</totfact>
</mgrwt>
</event>
<event>
 4    1  0.3973261E+000  0.2160910E+03  0.7546771E-02  0.1136831E+00
         21   -1    0    0  503  502  0.00000000000E+00  0.00000000000E+00  0.12677026098E+03  0.12677026098E+03  0.00000000000E+00 0. -1.
         21   -1    0    0  501  503 -0.00000000000E+00 -0.00000000000E+00 -0.37432147111E+03  0.37432147111E+03  0.00000000000E+00 0. -1.
          6    1    1    2  501    0  0.11305945759E+03  0.63118003365E+02 -0.15543113483E+03  0.26618444916E+03  0.17300000000E+03 0. -1.
         -6    1    1    2    0  502 -0.11305945759E+03 -0.63118003365E+02 -0.92120075300E+02  0.23490728293E+03  0.17300000000E+03 0. -1.
<mgrwt>
<rscale>  2 0.21609101E+03</rscale>
<asrwt>0</asrwt>
<pdfrwt beam="1">  1       21 0.19503117E-01 0.21609101E+03</pdfrwt>
<pdfrwt beam="2">  1       21 0.57587918E-01 0.21609101E+03</pdfrwt>
<totfact> 0.67730947E+04</totfact>
</mgrwt>
</event>
<event>
 4    1  0.3973261E+000  0.2202857E+03  0.7546771E-02  0.1133670E+00
         21   -1    0    0  501  502  0.00000000000E+00  0.00000000000E+00  0.44045877396E+03  0.44045877396E+03  0.00000000000E+00 0.  1.
         21   -1    0    0  502  503 -0.00000000000E+00 -0.00000000000E+00 -0.24432130803E+03  0.24432130803E+03  0.00000000000E+00 0.  1.
          6    1    1    2  501    0 -0.85061797641E+02 -0.10658934507E+03  0.35177794476E+03  0.41505845410E+03  0.17300000000E+03 0.  1.
         -6    1    1    2    0  503  0.85061797641E+02  0.10658934507E+03 -0.15564047883E+03  0.26972162789E+03  0.17300000000E+03 0.  1.
<mgrwt>
<rscale>  2 0.22028572E+03</rscale>
<asrwt>0</asrwt>
<pdfrwt beam="1">  1       21 0.67762888E-01 0.22028572E+03</pdfrwt>
<pdfrwt beam="2">  1       21 0.37587894E-01 0.22028572E+03</pdfrwt>
<totfact> 0.13348926E+04</totfact>
</mgrwt>
</event>
<event>
 4    1  0.3973261E+000  0.4561388E+03  0.7546771E-02  0.1025907E+00
         21   -1    0    0  503  502  0.00000000000E+00  0.00000000000E+00  0.55211801348E+03  0.55211801348E+03  0.00000000000E+00 0. -1.
         21   -1    0    0  501  503 -0.00000000000E+00 -0.00000000000E+00 -0.46010112518E+03  0.46010112518E+03  0.00000000000E+00 0.  1.
          6    1    1    2  501    0 -0.59320320853E+02  0.41786928285E+03 -0.16928326053E+03  0.48653824136E+03  0.17300000000E+03 0. -1.
         -6    1    1    2    0  502  0.59320320853E+02 -0.41786928285E+03  0.26130014882E+03  0.52568089730E+03  0.17300000000E+03 0.  1.
<mgrwt>
<rscale>  2 0.45613884E+03</rscale>
<asrwt>0</asrwt>
<pdfrwt beam="1">  1       21 0.84941232E-01 0.45613884E+03</pdfrwt>
<pdfrwt beam="2">  1       21 0.70784789E-01 0.45613884E+03</pdfrwt>
<totfact> 0.18662657E+03</totfact>
</mgrwt>
</event>
<event>
 4    1  0.3973261E+000  0.1777717E+03  0.7546771E-02  0.1169977E+00
         21   -1    0    0  501  502  0.00000000000E+00  0.00000000000E+00  0.77454010650E+03  0.77454010650E+03  0.00000000000E+00 0. -1.
         21   -1    0    0  502  503 -0.00000000000E+00 -0.00000000000E+00 -0.87000945343E+02  0.87000945343E+02  0.00000000000E+00 0. -1.
          6    1    1    2  501    0 -0.22993199649E+02 -0.33839057555E+02  0.65767594762E+03  0.68127851949E+03  0.17300000000E+03 0. -1.
         -6    1    1    2    0  503  0.22993199649E+02  0.33839057555E+02  0.29863213537E+02  0.18026253235E+03  0.17300000000E+03 0. -1.
<mgrwt>
<rscale>  2 0.17777168E+03</rscale>
<asrwt>0</asrwt>
<pdfrwt beam="1">  1       21 0.11916001E+00 0.17777168E+03</pdfrwt>
<pdfrwt beam="2">  1       21 0.13384761E-01 0.17777168E+03</pdfrwt>
<totfact> 0.26150508E+04</totfact>
</mgrwt>
</event>
<event>
 4    1  0.3973261E+000  0.2058851E+03  0.7546771E-02  0.1144867E+00
         21   -1    0    0  503  502  0.00000000000E+00  0.00000000000E+00  0.80968442501E+02  0.80968442501E+02  0.00000000000E+00 0. -1.
         21   -1    0    0  501  503 -0.00000000000E+00 -0.00000000000E+00 -0.52355969516E+03  0.52355969516E+03  0.00000000000E+00 0. -1.
          6    1    1    2  501    0  0.86631532502E+02 -0.70389375934E+02 -0.22389140794E+03  0.30416451012E+03  0.17300000000E+03 0. -1.
         -6    1    1    2    0  502 -0.86631532502E+02  0.70389375934E+02 -0.21869984472E+03  0.30036362754E+03  0.17300000000E+03 0. -1.
<mgrwt>
<rscale>  2 0.20588513E+03</rscale>
<asrwt>0</asrwt>
<pdfrwt beam="1">  1       21 0.12456683E-01 0.20588513E+03</pdfrwt>
<pdfrwt beam="2">  1       21 0.80547646E-01 0.20588513E+03</pdfrwt>
<totfact> 0.73885042E+04</totfact>
</mgrwt>
</event>
<event>
 4    1  0.3973261E+000  0.1765107E+03  0.7546771E-02  0.1171223E+00
         21   -1    0    0  501  502  0.00000000000E+00  0.00000000000E+00  0.23498813437E+03  0.23498813437E+03  0.00000000000E+00 0.  1.
         21   -1    0    0  502  503 -0.00000000000E+00 -0.00000000000E+00 -0.13754895077E+03  0.13754895077E+03  0.00000000000E+00 0.  1.
          6    1    1    2  501    0  0.34113873592E+02  0.79547134716E+01  0.84103029629E+02  0.19552328105E+03  0.17300000000E+03 0.  1.
         -6    1    1    2    0  503 -0.34113873592E+02 -0.79547134716E+01  0.13336153976E+02  0.17701380410E+03  0.17300000000E+03 0.  1.
<mgrwt>
<rscale>  2 0.17651072E+03</rscale>
<asrwt>0</asrwt>
<pdfrwt beam="1">  1       21 0.36152021E-01 0.17651072E+03</pdfrwt>
<pdfrwt beam="2">  1       21 0.21161377E-01 0.17651072E+03</pdfrwt>
<totfact> 0.15402580E+05</totfact>
</mgrwt>
</event>
<event>
 4    1  0.3973261E+000  0.1978045E+03  0.7546771E-02  0.1151605E+00
         21   -1    0    0  501  502  0.00000000000E+00  0.00000000000E+00  0.66592389306E+02  0.66592389306E+02  0.00000000000E+00 0.  1.
         21   -1    0    0  502  503 -0.00000000000E+00 -0.00000000000E+00 -0.11204826512E+04  0.11204826512E+04  0.00000000000E+00 0. -1.
          6    1    1    2  501    0  0.50862531087E+02 -0.81305857858E+02 -0.11760902552E+03  0.23012718760E+03  0.17300000000E+03 0.  1.
         -6    1    1    2    0  503 -0.50862531087E+02  0.81305857858E+02 -0.93628123636E+03  0.95694785289E+03  0.17300000000E+03 0. -1.
<mgrwt>
<rscale>  2 0.19780455E+03</rscale>
<asrwt>0</asrwt>
<pdfrwt beam="1">  1       21 0.10244984E-01 0.19780455E+03</pdfrwt>
<pdfrwt beam="2">  1       21 0.17238193E+00 0.19780455E+03</pdfrwt>
<totfact> 0.15904299E+04</totfact>
</mgrwt>
</event>
<event>
 4    1  0.3973261E+000  0.2334640E+03  0.7546771E-02  0.1124225E+00
         21   -1    0    0  503  502  0.00000000000E+00  0.00000000000E+00  0.96348640505E+02  0.96348640505E+02  0.00000000000E+00 0.  1.
         21   -1    0    0  501  503 -0.00000000000E+00 -0.00000000000E+00 -0.72985543550E+03  0.72985543550E+03  0.00000000000E+00 0. -1.
          6    1    1    2  501    0 -0.74059426771E+02 -0.13817247291E+03 -0.51266165824E+03  0.56331821096E+03  0.17300000000E+03 0. -1.
         -6    1    1    2    0  502  0.74059426771E+02  0.13817247291E+03 -0.12084513675E+03  0.26288586505E+03  0.17300000000E+03 0.  1.
<mgrwt>
<rscale>  2 0.23346398E+03</rscale>
<asrwt>0</asrwt>
<pdfrwt beam="1">  1       21 0.14822868E-01 0.23346398E+03</pdfrwt>
<pdfrwt beam="2">  1       21 0.11228545E+00 0.23346398E+03</pdfrwt>
<totfact> 0.24330550E+04</totfact>
</mgrwt>
</event>
<event>
 4    1  0.3973261E+000  0.2208708E+03  0.7546771E-02  0.1133236E+00
         21   -1    0    0  503  502  0.00000000000E+00  0.00000000000E+00  0.55162997007E+03  0.55162997007E+03  0.00000000000E+00 0.  1.
         21   -1    0    0  501  503 -0.00000000000E+00 -0.00000000000E+00 -0.35255722718E+03  0.35255722718E+03  0.00000000000E+00 0.  1.
          6    1    1    2  501    0  0.69863274490E+02  0.11821179180E+03 -0.29176850886E+03  0.36594093459E+03  0.17300000000E+03 0.  1.
         -6    1    1    2    0  502 -0.69863274490E+02 -0.11821179180E+03  0.49084125175E+03  0.53824626266E+03  0.17300000000E+03 0.  1.
<mgrwt>
<rscale>  2 0.22087079E+03</rscale>
<asrwt>0</asrwt>
<pdfrwt beam="1">  1       21 0.84866150E-01 0.22087079E+03</pdfrwt>
<pdfrwt beam="2">  1       21 0.54239573E-01 0.22087079E+03</pdfrwt>
<totfact> 0.37780539E+03</totfact>
</mgrwt>
</event>
<event>
 4    1  0.3973261E+000  0.1851034E+03  0.7546771E-02  0.1162953E+00
         21   -1    0    0  501  502  0.00000000000E+00  0.00000000000E+00  0.36357884733E+03  0.36357884733E+03  0.00000000000E+00 0.  1.
         21   -1    0    0  502  503 -0.00000000000E+00 -0.00000000000E+00 -0.19925875243E+03  0.19925875243E+03  0.00000000000E+00 0.  1.
          6    1    1    2  501    0 -0.68069376346E+01  0.65482207711E+02  0.28646561420E+03  0.34106568582E+03  0.17300000000E+03 0.  1.
         -6    1    1    2    0  503  0.68069376346E+01 -0.65482207711E+02 -0.12214551930E+03  0.22177191394E+03  0.17300000000E+03 0.  1.
<mgrwt>
<rscale>  2 0.18510336E+03</rscale>
<asrwt>0</asrwt>
<pdfrwt beam="1">  1       21 0.55935207E-01 0.18510336E+03</pdfrwt>
<pdfrwt beam="2">  1       21 0.30655193E-01 0.18510336E+03</pdfrwt>
<totfact> 0.30872494E+04</totfact>
</mgrwt>
</event>
<event>
 4    1  0.3973261E+000  0.2379253E+03  0.7546771E-02  0.1121183E+00
         21   -1    0    0  501  502  0.00000000000E+00  0.00000000000E+00  0.63975641852E+02  0.63975641852E+02  0.00000000000E+00 0.  1.
         21   -1    0    0  502  503 -0.00000000000E+00 -0.00000000000E+00 -0.89034150283E+03  0.89034150283E+03  0.00000000000E+00 0. -1.
          6    1    1    2  501    0  0.90055418896E+02  0.13626986231E+03 -0.45067787402E+03  0.50962633367E+03  0.17300000000E+03 0.  1.
         -6    1    1    2    0  503 -0.90055418896E+02 -0.13626986231E+03 -0.37568798696E+03  0.44469081101E+03  0.17300000000E+03 0. -1.
<mgrwt>
<rscale>  2 0.23792531E+03</rscale>
<asrwt>0</asrwt>
<pdfrwt beam="1">  1       21 0.98424067E-02 0.23792531E+03</pdfrwt>
<pdfrwt beam="2">  1       21 0.13697561E+00 0.23792531E+03</pdfrwt>
<totfact> 0.30790740E+04</totfact>
</mgrwt>
</event>
<event>
 4    1  0.3973261E+000  0.2391305E+03  0.7546771E-02  0.1120373E+00
         21   -1    0    0  501  502  0.00000000000E+00  0.00000000000E+00  0.18337745344E+03  0.18337745344E+03  0.00000000000E+00 0.  1.
         21   -1    0    0  502  503 -0.00000000000E+00 -0.00000000000E+00 -0.42397233704E+03  0.42397233704E+03  0.00000000000E+00 0. -1.
          6    1    1    2  501    0  0.16345157841E+03 -0.23194653629E+02  0.35879272355E+02  0.24180722203E+03  0.17300000000E+03 0.  1.
         -6    1    1    2    0  503 -0.16345157841E+03  0.23194653629E+02 -0.27647415595E+03  0.36554256845E+03  0.17300000000E+03 0. -1.
<mgrwt>
<rscale>  2 0.23913053E+03</rscale>
<asrwt>0</asrwt>
<pdfrwt beam="1">  1       21 0.28211916E-01 0.23913053E+03</pdfrwt>
<pdfrwt beam="2">  1       21 0.65226513E-01 0.23913053E+03</pdfrwt>
<totfact> 0.25334478E+04</totfact>
</mgrwt>
</event>
<event>
 4    1  0.3973261E+000  0.1858291E+03  0.7546771E-02  0.1162278E+00
         21   -1    0    0  501  502  0.00000000000E+00  0.00000000000E+00  0.62964792335E+03  0.62964792335E+03  0.00000000000E+00 0.  1.
         21   -1    0    0  502  503 -0.00000000000E+00 -0.00000000000E+00 -0.94832256667E+02  0.94832256667E+02  0.00000000000E+00 0.  1.
          6    1    1    2  501    0 -0.32630499319E+02 -0.59487009047E+02  0.50263329788E+03  0.53588495581E+03  0.17300000000E+03 0.  1.
         -6    1    1    2    0  503  0.32630499319E+02  0.59487009047E+02  0.32182368808E+02  0.18859522421E+03  0.17300000000E+03 0.  1.
<mgrwt>
<rscale>  2 0.18582910E+03</rscale>
<asrwt>0</asrwt>
<pdfrwt beam="1">  1       21 0.96868909E-01 0.18582910E+03</pdfrwt>
<pdfrwt beam="2">  1       21 0.14589578E-01 0.18582910E+03</pdfrwt>
<totfact> 0.36645295E+04</totfact>
</mgrwt>
</event>
<event>
 4    1  0.3973261E+000  0.1885907E+03  0.7546771E-02  0.1159739E+00
         21   -1    0    0  501  502  0.00000000000E+00  0.00000000000E+00  0.35107118060E+03  0.35107118060E+03  0.00000000000E+00 0. -1.
         21   -1    0    0  502  503 -0.00000000000E+00 -0.00000000000E+00 -0.15125552741E+03  0.15125552741E+03  0.00000000000E+00 0.  1.
          6    1    1    2  501    0 -0.74860957585E+02  0.57712575174E+01  0.24423754727E+03  0.30857486916E+03  0.17300000000E+03 0. -1.
         -6    1    1    2    0  503  0.74860957585E+02 -0.57712575174E+01 -0.44421894072E+02  0.19375183885E+03  0.17300000000E+03 0.  1.
<mgrwt>
<rscale>  2 0.18859075E+03</rscale>
<asrwt>0</asrwt>
<pdfrwt beam="1">  1       21 0.54010951E-01 0.18859075E+03</pdfrwt>
<pdfrwt beam="2">  1       21 0.23270081E-01 0.18859075E+03</pdfrwt>
<totfact> 0.56370570E+04</totfact>
</mgrwt>
</event>
<event>
 4    1  0.3973261E+000  0.1756319E+03  0.7546771E-02  0.1172099E+00
         21   -1    0    0  503  502  0.00000000000E+00  0.00000000000E+00  0.54054248075E+03  0.54054248075E+03  0.00000000000E+00 0. -1.
         21   -1    0    0  501  503 -0.00000000000E+00 -0.00000000000E+00 -0.59891921452E+02  0.59891921452E+02  0.00000000000E+00 0. -1.
          6    1    1    2  501    0  0.13404388838E+01  0.30261470896E+02  0.17511174811E+03  0.24801346279E+03  0.17300000000E+03 0. -1.
         -6    1    1    2    0  502 -0.13404388838E+01 -0.30261470896E+02  0.30553881119E+03  0.35242093942E+03  0.17300000000E+03 0. -1.
<mgrwt>
<rscale>  2 0.17563187E+03</rscale>
<asrwt>0</asrwt>
<pdfrwt beam="1">  1       21 0.83160378E-01 0.17563187E+03</pdfrwt>
<pdfrwt beam="2">  1       21 0.92141422E-02 0.17563187E+03</pdfrwt>
<totfact> 0.11882752E+05</totfact>
</mgrwt>
</event>
<event>
 4    1  0.3973261E+000  0.2176791E+03  0.7546771E-02  0.1135625E+00
         21   -1    0    0  503  502  0.00000000000E+00  0.00000000000E+00  0.41832571489E+03  0.41832571489E+03  0.00000000000E+00 0.  1.
         21   -1    0    0  501  503 -0.00000000000E+00 -0.00000000000E+00 -0.40676132521E+03  0.40676132521E+03  0.00000000000E+00 0.  1.
          6    1    1    2  501    0 -0.10961265490E+02 -0.13166253098E+03 -0.34464422284E+03  0.40763195623E+03  0.17300000000E+03 0.  1.
         -6    1    1    2    0  502  0.10961265490E+02  0.13166253098E+03  0.35620861253E+03  0.41745508387E+03  0.17300000000E+03 0.  1.
<mgrwt>
<rscale>  2 0.21767906E+03</rscale>
<asrwt>0</asrwt>
<pdfrwt beam="1">  1       21 0.64357802E-01 0.21767906E+03</pdfrwt>
<pdfrwt beam="2">  1       21 0.62578666E-01 0.21767906E+03</pdfrwt>
<totfact> 0.51723662E+03</totfact>
</mgrwt>
</event>
<event>
 4    1  0.3973261E+000  0.1872153E+03  0.7546771E-02  0.1160997E+00
         21   -1    0    0  503  502  0.00000000000E+00  0.00000000000E+00  0.57672917035E+02  0.57672917035E+02  0.00000000000E+00 0.  1.
         21   -1    0    0  501  503 -0.00000000000E+00 -0.00000000000E+00 -0.61481955361E+03  0.61481955361E+03  0.00000000000E+00 0.  1.
          6    1    1    2  501    0  0.67074566859E+02  0.24931342862E+02 -0.31468012272E+03  0.36616000466E+03  0.17300000000E+03 0.  1.
         -6    1    1    2    0  502 -0.67074566859E+02 -0.24931342862E+02 -0.24246651385E+03  0.30633246598E+03  0.17300000000E+03 0.  1.
<mgrwt>
<rscale>  2 0.18721530E+03</rscale>
<asrwt>0</asrwt>
<pdfrwt beam="1">  1       21 0.88727559E-02 0.18721530E+03</pdfrwt>
<pdfrwt beam="2">  1       21 0.94587629E-01 0.18721530E+03</pdfrwt>
<totfact> 0.93935375E+04</totfact>
</mgrwt>
</event>
<event>
 4    1  0.3973261E+000  0.2140503E+03  0.7546771E-02  0.1138398E+00
         21   -1    0    0  503  502  0.00000000000E+00  0.00000000000E+00  0.14716598580E+04  0.14716598580E+04  0.00000000000E+00 0. -1.
         21   -1    0    0  501  503 -0.00000000000E+00 -0.00000000000E+00 -0.59974487373E+02  0.59974487373E+02  0.00000000000E+00 0. -1.
          6    1    1    2  501    0 -0.43002074019E+02  0.11848769019E+03  0.17477607880E+03  0.27634071147E+03  0.17300000000E+03 0. -1.
         -6    1    1    2    0  502  0.43002074019E+02 -0.11848769019E+03  0.12369092919E+04  0.12552936339E+04  0.17300000000E+03 0. -1.
<mgrwt>
<rscale>  2 0.21405025E+03</rscale>
<asrwt>0</asrwt>
<pdfrwt beam="1">  1       21 0.22640918E+00 0.21405025E+03</pdfrwt>
<pdfrwt beam="2">  1       21 0.92268453E-02 0.21405025E+03</pdfrwt>
<totfact> 0.84346045E+03</totfact>
</mgrwt>
</event>
<event>
 4    1  0.3973261E+000  0.1858185E+03  0.7546771E-02  0.1162288E+00
         21   -1    0    0  503  502  0.00000000000E+00  0.00000000000E+00  0.28733340937E+02  0.28733340937E+02  0.00000000000E+00 0. -1.
         21   -1    0    0  501  503 -0.00000000000E+00 -0.00000000000E+00 -0.18931492514E+04  0.18931492514E+04  0.00000000000E+00 0.  1.
          6    1    1    2  501    0  0.22924401391E+02  0.63827865771E+02 -0.15129566006E+04  0.15243248341E+04  0.17300000000E+03 0. -1.
         -6    1    1    2    0  502 -0.22924401391E+02 -0.63827865771E+02 -0.35145930988E+03  0.39755775823E+03  0.17300000000E+03 0. -1.
<mgrwt>
<rscale>  2 0.18581853E+03</rscale>
<asrwt>0</asrwt>
<pdfrwt beam="1">  1       21 0.44205141E-02 0.18581853E+03</pdfrwt>
<pdfrwt beam="2">  1       21 0.29125372E+00 0.18581853E+03</pdfrwt>
<totfact> 0.12788096E+04</totfact>
</mgrwt>
</event>
<event>
 4    1  0.3973261E+000  0.1881950E+03  0.7546771E-02  0.1160099E+00
         21   -1    0    0  501  502  0.00000000000E+00  0.00000000000E+00  0.14601458439E+03  0.14601458439E+03  0.00000000000E+00 0. -1.
         21   -1    0    0  502  503 -0.00000000000E+00 -0.00000000000E+00 -0.24490501208E+03  0.24490501208E+03  0.00000000000E+00 0. -1.
          6    1    1    2  501    0  0.67857398353E+02 -0.29727449086E+02 -0.68570121415E+02  0.20029780151E+03  0.17300000000E+03 0. -1.
         -6    1    1    2    0  503 -0.67857398353E+02  0.29727449086E+02 -0.30320306280E+02  0.19062179496E+03  0.17300000000E+03 0. -1.
<mgrwt>
<rscale>  2 0.18819497E+03</rscale>
<asrwt>0</asrwt>
<pdfrwt beam="1">  1       21 0.22463783E-01 0.18819497E+03</pdfrwt>
<pdfrwt beam="2">  1       21 0.37677694E-01 0.18819497E+03</pdfrwt>
<totfact> 0.12627103E+05</totfact>
</mgrwt>
</event>
<event>
 4    1  0.3973261E+000  0.1968828E+03  0.7546771E-02  0.1152396E+00
         21   -1    0    0  501  502  0.00000000000E+00  0.00000000000E+00  0.12186666685E+03  0.12186666685E+03  0.00000000000E+00 0.  1.
         21   -1    0    0  502  503 -0.00000000000E+00 -0.00000000000E+00 -0.49311970656E+03  0.49311970656E+03  0.00000000000E+00 0. -1.
          6    1    1    2  501    0  0.91140706976E+02 -0.22961213810E+02 -0.24234559574E+01  0.19689773728E+03  0.17300000000E+03 0.  1.
         -6    1    1    2    0  503 -0.91140706976E+02  0.22961213810E+02 -0.36882958375E+03  0.41808863613E+03  0.17300000000E+03 0. -1.
<mgrwt>
<rscale>  2 0.19688282E+03</rscale>
<asrwt>0</asrwt>
<pdfrwt beam="1">  1       21 0.18748718E-01 0.19688282E+03</pdfrwt>
<pdfrwt beam="2">  1       21 0.75864568E-01 0.19688282E+03</pdfrwt>
<totfact> 0.40257202E+04</totfact>
</mgrwt>
</event>
<event>
 4    1  0.3973261E+000  0.1739168E+03  0.7546771E-02  0.1173824E+00
         21   -1    0    0  503  502  0.00000000000E+00  0.00000000000E+00  0.13717401956E+03  0.13717401956E+03  0.00000000000E+00 0.  1.
         21   -1    0    0  501  503 -0.00000000000E+00 -0.00000000000E+00 -0.22078450617E+03  0.22078450617E+03  0.00000000000E+00 0.  1.
          6    1    1    2  501    0  0.17104954057E+02 -0.50474799664E+01 -0.35395636596E+02  0.17748213318E+03  0.17300000000E+03 0. -1.
         -6    1    1    2    0  502 -0.17104954057E+02  0.50474799664E+01 -0.48214850010E+02  0.18047639255E+03  0.17300000000E+03 0. -1.
<mgrwt>
<rscale>  2 0.17391681E+03</rscale>
<asrwt>0</asrwt>
<pdfrwt beam="1">  1       21 0.21103695E-01 0.17391681E+03</pdfrwt>
<pdfrwt beam="2">  1       21 0.33966847E-01 0.17391681E+03</pdfrwt>
<totfact> 0.17530819E+05</totfact>
</mgrwt>
</event>
<event>
 4    1  0.3973261E+000  0.2532743E+03  0.7546771E-02  0.1111253E+00
         21   -1    0    0  503  502  0.00000000000E+00  0.00000000000E+00  0.22559633588E+03  0.22559633588E+03  0.00000000000E+00 0.  1.
         21   -1    0    0  501  503 -0.00000000000E+00 -0.00000000000E+00 -0.31068678629E+03  0.31068678629E+03  0.00000000000E+00 0.  1.
          6    1    1    2  501    0 -0.56320484160E+02 -0.17620116339E+03 -0.12061831231E+03  0.28052918597E+03  0.17300000000E+03 0.  1.
         -6    1    1    2    0  502  0.56320484160E+02  0.17620116339E+03  0.35527861903E+02  0.25575393621E+03  0.17300000000E+03 0.  1.
<mgrwt>
<rscale>  2 0.25327425E+03</rscale>
<asrwt>0</asrwt>
<pdfrwt beam="1">  1       21 0.34707129E-01 0.25327425E+03</pdfrwt>
<pdfrwt beam="2">  1       21 0.47797967E-01 0.25327425E+03</pdfrwt>
<totfact> 0.32505675E+04</totfact>
</mgrwt>
</event>
<event>
 4    1  0.3973261E+000  0.2371622E+03  0.7546771E-02  0.1121698E+00
         21   -1    0    0  503  502  0.00000000000E+00  0.00000000000E+00  0.55092840033E+02  0.55092840033E+02  0.00000000000E+00 0.  1.
         21   -1    0    0  501  503 -0.00000000000E+00 -0.00000000000E+00 -0.10308197891E+04  0.10308197891E+04  0.00000000000E+00 0.  1.
          6    1    1    2  501    0  0.31627607593E+02 -0.15911196564E+03 -0.43468069688E+03  0.49516990156E+03  0.17300000000E+03 0.  1.
         -6    1    1    2    0  502 -0.31627607593E+02  0.15911196564E+03 -0.54104625217E+03  0.59074272755E+03  0.17300000000E+03 0.  1.
<mgrwt>
<rscale>  2 0.23716223E+03</rscale>
<asrwt>0</asrwt>
<pdfrwt beam="1">  1       21 0.84758220E-02 0.23716223E+03</pdfrwt>
<pdfrwt beam="2">  1       21 0.15858765E+00 0.23716223E+03</pdfrwt>
<totfact> 0.27221550E+04</totfact>
</mgrwt>
</event>
<event>
 4    1  0.3973261E+000  0.1882175E+03  0.7546771E-02  0.1160079E+00
         21   -1    0    0  501  502  0.00000000000E+00  0.00000000000E+00  0.10950477704E+04  0.10950477704E+04  0.00000000000E+00 0. -1.
         21   -1    0    0  502  503 -0.00000000000E+00 -0.00000000000E+00 -0.65566350462E+02  0.65566350462E+02  0.00000000000E+00 0. -1.
          6    1    1    2  501    0  0.29351532091E+02 -0.68083096185E+02  0.92777602565E+03  0.94667532671E+03  0.17300000000E+03 0. -1.
         -6    1    1    2    0  503 -0.29351532091E+02  0.68083096185E+02  0.10170539431E+03  0.21393879418E+03  0.17300000000E+03 0. -1.
<mgrwt>
<rscale>  2 0.18821748E+03</rscale>
<asrwt>0</asrwt>
<pdfrwt beam="1">  1       21 0.16846887E+00 0.18821748E+03</pdfrwt>
<pdfrwt beam="2">  1       21 0.10087132E-01 0.18821748E+03</pdfrwt>
<totfact> 0.17536223E+04</totfact>
</mgrwt>
</event>
<event>
 4    1  0.3973261E+000  0.1917945E+03  0.7546771E-02  0.1156853E+00
         21   -1    0    0  501  502  0.00000000000E+00  0.00000000000E+00  0.16040611817E+03  0.16040611817E+03  0.00000000000E+00 0.  1.
         21   -1    0    0  502  503 -0.00000000000E+00 -0.00000000000E+00 -0.23199161911E+03  0.23199161911E+03  0.00000000000E+00 0.  1.
          6    1    1    2  501    0  0.46073945088E+02 -0.68799242053E+02 -0.14758103760E+02  0.19236149758E+03  0.17300000000E+03 0.  1.
         -6    1    1    2    0  503 -0.46073945088E+02  0.68799242053E+02 -0.56827397176E+02  0.20003623970E+03  0.17300000000E+03 0.  1.
<mgrwt>
<rscale>  2 0.19179454E+03</rscale>
<asrwt>0</asrwt>
<pdfrwt beam="1">  1       21 0.24677864E-01 0.19179454E+03</pdfrwt>
<pdfrwt beam="2">  1       21 0.35691018E-01 0.19179454E+03</pdfrwt>
<totfact> 0.11756736E+05</totfact>
</mgrwt>
</event>
<event>
 4    1  0.3973261E+000  0.2395333E+03  0.7546771E-02  0.1120104E+00
         21   -1    0    0  501  502  0.00000000000E+00  0.00000000000E+00  0.13346845904E+03  0.13346845904E+03  0.00000000000E+00 0. -1.
         21   -1    0    0  502  503 -0.00000000000E+00 -0.00000000000E+00 -0.91870322734E+03  0.91870322734E+03  0.00000000000E+00 0.  1.
          6    1    1    2  501    0 -0.29729852342E+02 -0.16298259787E+03 -0.88727216903E+01  0.23969755218E+03  0.17300000000E+03 0. -1.
         -6    1    1    2    0  503  0.29729852342E+02  0.16298259787E+03 -0.77636204661E+03  0.81247413420E+03  0.17300000000E+03 0.  1.
<mgrwt>
<rscale>  2 0.23953328E+03</rscale>
<asrwt>0</asrwt>
<pdfrwt beam="1">  1       21 0.20533609E-01 0.23953328E+03</pdfrwt>
<pdfrwt beam="2">  1       21 0.14133896E+00 0.23953328E+03</pdfrwt>
<totfact> 0.74160890E+03</totfact>
</mgrwt>
</event>
<event>
 4    1  0.3973261E+000  0.2460790E+03  0.7546771E-02  0.1115808E+00
         21   -1    0    0  501  502  0.00000000000E+00  0.00000000000E+00  0.38522404687E+03  0.38522404687E+03  0.00000000000E+00 0. -1.
         21   -1    0    0  502  503 -0.00000000000E+00 -0.00000000000E+00 -0.35642627428E+03  0.35642627428E+03  0.00000000000E+00 0. -1.
          6    1    1    2  501    0  0.10255054145E+03  0.14180704517E+03  0.29164428436E+03  0.38159040896E+03  0.17300000000E+03 0. -1.
         -6    1    1    2    0  503 -0.10255054145E+03 -0.14180704517E+03 -0.26284651177E+03  0.36005991218E+03  0.17300000000E+03 0. -1.
<mgrwt>
<rscale>  2 0.24607895E+03</rscale>
<asrwt>0</asrwt>
<pdfrwt beam="1">  1       21 0.59265238E-01 0.24607895E+03</pdfrwt>
<pdfrwt beam="2">  1       21 0.54834812E-01 0.24607895E+03</pdfrwt>
<totfact> 0.80656428E+03</totfact>
</mgrwt>
</event>
<event>
 4    1  0.3973261E+000  0.2190882E+03  0.7546771E-02  0.1134565E+00
         21   -1    0    0  501  502  0.00000000000E+00  0.00000000000E+00  0.23053264693E+03  0.23053264693E+03  0.00000000000E+00 0.  1.
         21   -1    0    0  502  503 -0.00000000000E+00 -0.00000000000E+00 -0.21658775795E+03  0.21658775795E+03  0.00000000000E+00 0.  1.
          6    1    1    2  501    0 -0.93679936838E+02 -0.96409068120E+02  0.50935954194E+02  0.22493134600E+03  0.17300000000E+03 0.  1.
         -6    1    1    2    0  503  0.93679936838E+02  0.96409068120E+02 -0.36991065214E+02  0.22218905888E+03  0.17300000000E+03 0.  1.
<mgrwt>
<rscale>  2 0.21908820E+03</rscale>
<asrwt>0</asrwt>
<pdfrwt beam="1">  1       21 0.35466561E-01 0.21908820E+03</pdfrwt>
<pdfrwt beam="2">  1       21 0.33321194E-01 0.21908820E+03</pdfrwt>
<totfact> 0.65710218E+04</totfact>
</mgrwt>
</event>
<event>
 4    1  0.3973261E+000  0.1778121E+03  0.7546771E-02  0.1169937E+00
         21   -1    0    0  501  502  0.00000000000E+00  0.00000000000E+00  0.11863405371E+03  0.11863405371E+03  0.00000000000E+00 0. -1.
         21   -1    0    0  502  503 -0.00000000000E+00 -0.00000000000E+00 -0.50861864061E+03  0.50861864061E+03  0.00000000000E+00 0.  1.
          6    1    1    2  501    0  0.38083784483E+02  0.15419898073E+02  0.21389966347E+02  0.17909404948E+03  0.17300000000E+03 0. -1.
         -6    1    1    2    0  503 -0.38083784483E+02 -0.15419898073E+02 -0.41137455324E+03  0.44815864485E+03  0.17300000000E+03 0.  1.
<mgrwt>
<rscale>  2 0.17781211E+03</rscale>
<asrwt>0</asrwt>
<pdfrwt beam="1">  1       21 0.18251393E-01 0.17781211E+03</pdfrwt>
<pdfrwt beam="2">  1       21 0.78249020E-01 0.17781211E+03</pdfrwt>
<totfact> 0.39865531E+04</totfact>
</mgrwt>
</event>
<event>
 4    1  0.3973261E+000  0.1794152E+03  0.7546771E-02  0.1168370E+00
         21   -1    0    0  501  502  0.00000000000E+00  0.00000000000E+00  0.28188513597E+03  0.28188513597E+03  0.00000000000E+00 0. -1.
         21   -1    0    0  502  503 -0.00000000000E+00 -0.00000000000E+00 -0.12293356613E+03  0.12293356613E+03  0.00000000000E+00 0. -1.
          6    1    1    2  501    0 -0.44909472406E+02 -0.15618749107E+02  0.13344192212E+03  0.22359908903E+03  0.17300000000E+03 0. -1.
         -6    1    1    2    0  503  0.44909472406E+02  0.15618749107E+02  0.25509647718E+02  0.18121961307E+03  0.17300000000E+03 0. -1.
<mgrwt>
<rscale>  2 0.17941518E+03</rscale>
<asrwt>0</asrwt>
<pdfrwt beam="1">  1       21 0.43366944E-01 0.17941518E+03</pdfrwt>
<pdfrwt beam="2">  1       21 0.18912856E-01 0.17941518E+03</pdfrwt>
<totfact> 0.13152643E+05</totfact>
</mgrwt>
</event>
<event>
 4    1  0.3973261E+000  0.1908896E+03  0.7546771E-02  0.1157661E+00
         21   -1    0    0  501  502  0.00000000000E+00  0.00000000000E+00  0.59947307473E+03  0.59947307473E+03  0.00000000000E+00 0.  1.
         21   -1    0    0  502  503 -0.00000000000E+00 -0.00000000000E+00 -0.14173209670E+03  0.14173209670E+03  0.00000000000E+00 0.  1.
          6    1    1    2  501    0  0.64540889761E+02  0.48417956321E+02  0.50894631819E+03  0.54356708854E+03  0.17300000000E+03 0.  1.
         -6    1    1    2    0  503 -0.64540889761E+02 -0.48417956321E+02 -0.51205340170E+02  0.19763808289E+03  0.17300000000E+03 0.  1.
<mgrwt>
<rscale>  2 0.19088956E+03</rscale>
<asrwt>0</asrwt>
<pdfrwt beam="1">  1       21 0.92226626E-01 0.19088956E+03</pdfrwt>
<pdfrwt beam="2">  1       21 0.21804938E-01 0.19088956E+03</pdfrwt>
<totfact> 0.19507398E+04</totfact>
</mgrwt>
</event>
<event>
 4    1  0.3973261E+000  0.2166740E+03  0.7546771E-02  0.1136387E+00
         21   -1    0    0  503  502  0.00000000000E+00  0.00000000000E+00  0.26323988696E+03  0.26323988696E+03  0.00000000000E+00 0. -1.
         21   -1    0    0  501  503 -0.00000000000E+00 -0.00000000000E+00 -0.25709187894E+03  0.25709187894E+03  0.00000000000E+00 0.  1.
          6    1    1    2  501    0  0.12824306017E+03  0.23923731634E+02 -0.14091246788E+03  0.25846460303E+03  0.17300000000E+03 0.  1.
         -6    1    1    2    0  502 -0.12824306017E+03 -0.23923731634E+02  0.14706047590E+03  0.26186716287E+03  0.17300000000E+03 0. -1.
<mgrwt>
<rscale>  2 0.21667401E+03</rscale>
<asrwt>0</asrwt>
<pdfrwt beam="1">  1       21 0.40498444E-01 0.21667401E+03</pdfrwt>
<pdfrwt beam="2">  1       21 0.39552597E-01 0.21667401E+03</pdfrwt>
<totfact> 0.35752227E+04</totfact>
</mgrwt>
</event>
<event>
 4    1  0.3973261E+000  0.2174577E+03  0.7546771E-02  0.1135793E+00
         21   -1    0    0  501  502  0.00000000000E+00  0.00000000000E+00  0.14318213653E+02  0.14318213653E+02  0.00000000000E+00 0.  1.
         21   -1    0    0  502  503 -0.00000000000E+00 -0.00000000000E+00 -0.34593092820E+04  0.34593092820E+04  0.00000000000E+00 0.  1.
          6    1    1    2  501    0  0.43829491661E+02  0.12424913847E+03 -0.13528771076E+04  0.13702424388E+04  0.17300000000E+03 0.  1.
         -6    1    1    2    0  503 -0.43829491661E+02 -0.12424913847E+03 -0.20921139607E+04  0.21033850568E+04  0.17300000000E+03 0.  1.
<mgrwt>
<rscale>  2 0.21745775E+03</rscale>
<asrwt>0</asrwt>
<pdfrwt beam="1">  1       21 0.22028013E-02 0.21745775E+03</pdfrwt>
<pdfrwt beam="2">  1       21 0.53220162E+00 0.21745775E+03</pdfrwt>
<totfact> 0.11269130E+03</totfact>
</mgrwt>
</event>
<event>
 4    1  0.3973261E+000  0.1733129E+03  0.7546771E-02  0.1174436E+00
         21   -1    0    0  501  502  0.00000000000E+00  0.00000000000E+00  0.70336932958E+03  0.70336932958E+03  0.00000000000E+00 0.  1.
         21   -1    0    0  502  503 -0.00000000000E+00 -0.00000000000E+00 -0.97640805523E+02  0.97640805523E+02  0.00000000000E+00 0.  1.
          6    1    1    2  501    0 -0.19082595594E+01  0.10233578862E+02  0.60327828248E+03  0.62767989748E+03  0.17300000000E+03 0.  1.
         -6    1    1    2    0  503  0.19082595594E+01 -0.10233578862E+02  0.24502415788E+01  0.17333023762E+03  0.17300000000E+03 0.  1.
<mgrwt>
<rscale>  2 0.17331292E+03</rscale>
<asrwt>0</asrwt>
<pdfrwt beam="1">  1       21 0.10821066E+00 0.17331292E+03</pdfrwt>
<pdfrwt beam="2">  1       21 0.15021663E-01 0.17331292E+03</pdfrwt>
<totfact> 0.26894631E+04</totfact>
</mgrwt>
</event>
<event>
 4    1  0.3973261E+000  0.1867451E+03  0.7546771E-02  0.1161430E+00
         21   -1    0    0  503  502  0.00000000000E+00  0.00000000000E+00  0.49615757847E+02  0.49615757847E+02  0.00000000000E+00 0.  1.
         21   -1    0    0  501  503 -0.00000000000E+00 -0.00000000000E+00 -0.10647450639E+04  0.10647450639E+04  0.00000000000E+00 0.  1.
          6    1    1    2  501    0  0.49451666232E+02  0.49992726988E+02 -0.83238899931E+03  0.85307982406E+03  0.17300000000E+03 0.  1.
         -6    1    1    2    0  502 -0.49451666232E+02 -0.49992726988E+02 -0.18274030675E+03  0.26128099769E+03  0.17300000000E+03 0.  1.
<mgrwt>
<rscale>  2 0.18674512E+03</rscale>
<asrwt>0</asrwt>
<pdfrwt beam="1">  1       21 0.76331937E-02 0.18674512E+03</pdfrwt>
<pdfrwt beam="2">  1       21 0.16380693E+00 0.18674512E+03</pdfrwt>
<totfact> 0.30866583E+04</totfact>
</mgrwt>
</event>
<event>
 4    1  0.3973261E+000  0.1916972E+03  0.7546771E-02  0.1156939E+00
         21   -1    0    0  501  502  0.00000000000E+00  0.00000000000E+00  0.99097354603E+02  0.99097354603E+02  0.00000000000E+00 0. -1.
         21   -1    0    0  502  503 -0.00000000000E+00 -0.00000000000E+00 -0.60093876782E+03  0.60093876782E+03  0.00000000000E+00 0. -1.
          6    1    1    2  501    0  0.61616640235E+02 -0.54974758562E+02 -0.34326870059E+02  0.19474642087E+03  0.17300000000E+03 0. -1.
         -6    1    1    2    0  503 -0.61616640235E+02  0.54974758562E+02 -0.46751454316E+03  0.50528970155E+03  0.17300000000E+03 0. -1.
<mgrwt>
<rscale>  2 0.19169725E+03</rscale>
<asrwt>0</asrwt>
<pdfrwt beam="1">  1       21 0.15245747E-01 0.19169725E+03</pdfrwt>
<pdfrwt beam="2">  1       21 0.92452115E-01 0.19169725E+03</pdfrwt>
<totfact> 0.37610772E+04</totfact>
</mgrwt>
</event>
<event>
 4    1  0.3973261E+000  0.2997010E+03  0.7546771E-02  0.1085390E+00
         21   -1    0    0  503  502  0.00000000000E+00  0.00000000000E+00  0.12383511930E+03  0.12383511930E+03  0.00000000000E+00 0.  1.
         21   -1    0    0  501  503 -0.00000000000E+00 -0.00000000000E+00 -0.88467683345E+03  0.88467683345E+03  0.00000000000E+00 0. -1.
          6    1    1    2  501    0  0.45795123022E+02 -0.24040484562E+03 -0.59443256462E+03  0.66571071568E+03  0.17300000000E+03 0. -1.
         -6    1    1    2    0  502 -0.45795123022E+02  0.24040484562E+03 -0.16640914954E+03  0.34280123707E+03  0.17300000000E+03 0.  1.
<mgrwt>
<rscale>  2 0.29970099E+03</rscale>
<asrwt>0</asrwt>
<pdfrwt beam="1">  1       21 0.19051556E-01 0.29970099E+03</pdfrwt>
<pdfrwt beam="2">  1       21 0.13610414E+00 0.29970099E+03</pdfrwt>
<totfact> 0.91067622E+03</totfact>
</mgrwt>
</event>
<event>
 4    1  0.3973261E+000  0.2143361E+03  0.7546771E-02  0.1138178E+00
         21   -1    0    0  503  502  0.00000000000E+00  0.00000000000E+00  0.26737145689E+03  0.26737145689E+03  0.00000000000E+00 0.  1.
         21   -1    0    0  501  503 -0.00000000000E+00 -0.00000000000E+00 -0.43872479937E+03  0.43872479937E+03  0.00000000000E+00 0.  1.
          6    1    1    2  501    0 -0.10917631057E+03 -0.63964964504E+02 -0.36104585932E+03  0.41987390489E+03  0.17300000000E+03 0.  1.
         -6    1    1    2    0  502  0.10917631057E+03  0.63964964504E+02  0.18969251684E+03  0.28622235136E+03  0.17300000000E+03 0.  1.
<mgrwt>
<rscale>  2 0.21433615E+03</rscale>
<asrwt>0</asrwt>
<pdfrwt beam="1">  1       21 0.41134070E-01 0.21433615E+03</pdfrwt>
<pdfrwt beam="2">  1       21 0.67496123E-01 0.21433615E+03</pdfrwt>
<totfact> 0.11263258E+04</totfact>
</mgrwt>
</event>
<event>
 4    1  0.3973261E+000  0.1811476E+03  0.7546771E-02  0.1166697E+00
         21   -1    0    0  503  502  0.00000000000E+00  0.00000000000E+00  0.23309579951E+03  0.23309579951E+03  0.00000000000E+00 0. -1.
         21   -1    0    0  501  503 -0.00000000000E+00 -0.00000000000E+00 -0.53663153123E+03  0.53663153123E+03  0.00000000000E+00 0. -1.
          6    1    1    2  501    0 -0.10044794074E+02 -0.52768901924E+02 -0.48231758987E+03  0.51521326885E+03  0.17300000000E+03 0. -1.
         -6    1    1    2    0  502  0.10044794074E+02  0.52768901924E+02  0.17878185815E+03  0.25451406190E+03  0.17300000000E+03 0. -1.
<mgrwt>
<rscale>  2 0.18114761E+03</rscale>
<asrwt>0</asrwt>
<pdfrwt beam="1">  1       21 0.35860892E-01 0.18114761E+03</pdfrwt>
<pdfrwt beam="2">  1       21 0.82558697E-01 0.18114761E+03</pdfrwt>
<totfact> 0.96804364E+03</totfact>
</mgrwt>
</event>
<event>
 4    1  0.3973261E+000  0.2192876E+03  0.7546771E-02  0.1134415E+00
         21   -1    0    0  501  502  0.00000000000E+00  0.00000000000E+00  0.92649501062E+02  0.92649501062E+02  0.00000000000E+00 0. -1.
         21   -1    0    0  502  503 -0.00000000000E+00 -0.00000000000E+00 -0.53893934918E+03  0.53893934918E+03  0.00000000000E+00 0.  1.
          6    1    1    2  501    0 -0.10534246588E+03  0.84029944848E+02 -0.16243528567E+03  0.27289611353E+03  0.17300000000E+03 0.  1.
         -6    1    1    2    0  503  0.10534246588E+03 -0.84029944848E+02 -0.28385456245E+03  0.35869273672E+03  0.17300000000E+03 0.  1.
<mgrwt>
<rscale>  2 0.21928763E+03</rscale>
<asrwt>0</asrwt>
<pdfrwt beam="1">  1       21 0.14253770E-01 0.21928763E+03</pdfrwt>
<pdfrwt beam="2">  1       21 0.82913745E-01 0.21928763E+03</pdfrwt>
<totfact> 0.53889822E+04</totfact>
</mgrwt>
</event>
<event>
 4    1  0.3973261E+000  0.1893974E+03  0.7546771E-02  0.1159006E+00
         21   -1    0    0  503  502  0.00000000000E+00  0.00000000000E+00  0.96164132834E+02  0.96164132834E+02  0.00000000000E+00 0. -1.
         21   -1    0    0  501  503 -0.00000000000E+00 -0.00000000000E+00 -0.37650261295E+03  0.37650261295E+03  0.00000000000E+00 0. -1.
          6    1    1    2  501    0 -0.75313711509E+02  0.16438169183E+02 -0.16289134476E+03  0.24980984517E+03  0.17300000000E+03 0. -1.
         -6    1    1    2    0  502  0.75313711509E+02 -0.16438169183E+02 -0.11744713536E+03  0.22285690061E+03  0.17300000000E+03 0. -1.
<mgrwt>
<rscale>  2 0.18939738E+03</rscale>
<asrwt>0</asrwt>
<pdfrwt beam="1">  1       21 0.14794482E-01 0.18939738E+03</pdfrwt>
<pdfrwt beam="2">  1       21 0.57923480E-01 0.18939738E+03</pdfrwt>
<totfact> 0.11253314E+05</totfact>
</mgrwt>
</event>
<event>
 4    1  0.3973261E+000  0.2352219E+03  0.7546771E-02  0.1123017E+00
         21   -1    0    0  503  502  0.00000000000E+00  0.00000000000E+00  0.10282529196E+03  0.10282529196E+03  0.00000000000E+00 0. -1.
         21   -1    0    0  501  503 -0.00000000000E+00 -0.00000000000E+00 -0.56693908009E+03  0.56693908009E+03  0.00000000000E+00 0.  1.
          6    1    1    2  501    0 -0.56808599644E+01  0.15927358377E+03 -0.30759804345E+03  0.38722848939E+03  0.17300000000E+03 0.  1.
         -6    1    1    2    0  502  0.56808599644E+01 -0.15927358377E+03 -0.15651574468E+03  0.28253588266E+03  0.17300000000E+03 0. -1.
<mgrwt>
<rscale>  2 0.23522191E+03</rscale>
<asrwt>0</asrwt>
<pdfrwt beam="1">  1       21 0.15819276E-01 0.23522191E+03</pdfrwt>
<pdfrwt beam="2">  1       21 0.87221395E-01 0.23522191E+03</pdfrwt>
<totfact> 0.39359847E+04</totfact>
</mgrwt>
</event>
<event>
 4    1  0.3973261E+000  0.1815884E+03  0.7546771E-02  0.1166275E+00
         21   -1    0    0  501  502  0.00000000000E+00  0.00000000000E+00  0.15038811040E+03  0.15038811040E+03  0.00000000000E+00 0.  1.
         21   -1    0    0  502  503 -0.00000000000E+00 -0.00000000000E+00 -0.22988347380E+03  0.22988347380E+03  0.00000000000E+00 0.  1.
          6    1    1    2  501    0 -0.69015466964E+01 -0.54751240313E+02  0.11229795975E+01  0.18159182456E+03  0.17300000000E+03 0.  1.
         -6    1    1    2    0  503  0.69015466964E+01  0.54751240313E+02 -0.80618343002E+02  0.19867975964E+03  0.17300000000E+03 0.  1.
<mgrwt>
<rscale>  2 0.18158835E+03</rscale>
<asrwt>0</asrwt>
<pdfrwt beam="1">  1       21 0.23136632E-01 0.18158835E+03</pdfrwt>
<pdfrwt beam="2">  1       21 0.35366688E-01 0.18158835E+03</pdfrwt>
<totfact> 0.13578271E+05</totfact>
</mgrwt>
</event>
<event>
 4    1  0.3973261E+000  0.2013498E+03  0.7546771E-02  0.1148605E+00
         21   -1    0    0  503  502  0.00000000000E+00  0.00000000000E+00  0.39455785596E+02  0.39455785596E+02  0.00000000000E+00 0. -1.
         21   -1    0    0  501  503 -0.00000000000E+00 -0.00000000000E+00 -0.15189964655E+04  0.15189964655E+04  0.00000000000E+00 0.  1.
          6    1    1    2  501    0 -0.95849856149E+02 -0.37756216358E+02 -0.11830064812E+04  0.12000191921E+04  0.17300000000E+03 0.  1.
         -6    1    1    2    0  502  0.95849856149E+02  0.37756216358E+02 -0.29653419872E+03  0.35843305903E+03  0.17300000000E+03 0. -1.
<mgrwt>
<rscale>  2 0.20134976E+03</rscale>
<asrwt>0</asrwt>
<pdfrwt beam="1">  1       21 0.60701218E-02 0.20134976E+03</pdfrwt>
<pdfrwt beam="2">  1       21 0.23369173E+00 0.20134976E+03</pdfrwt>
<totfact> 0.15942472E+04</totfact>
</mgrwt>
</event>
<event>
 4    1  0.3973261E+000  0.2030816E+03  0.7546771E-02  0.1147165E+00
         21   -1    0    0  503  502  0.00000000000E+00  0.00000000000E+00  0.86739438334E+02  0.86739438334E+02  0.00000000000E+00 0.  1.
         21   -1    0    0  501  503 -0.00000000000E+00 -0.00000000000E+00 -0.53933039339E+03  0.53933039339E+03  0.00000000000E+00 0. -1.
          6    1    1    2  501    0 -0.79380261783E+02  0.70794853695E+02 -0.33401037600E+03  0.39090288889E+03  0.17300000000E+03 0. -1.
         -6    1    1    2    0  502  0.79380261783E+02 -0.70794853695E+02 -0.11858057906E+03  0.23516694283E+03  0.17300000000E+03 0.  1.
<mgrwt>
<rscale>  2 0.20308160E+03</rscale>
<asrwt>0</asrwt>
<pdfrwt beam="1">  1       21 0.13344529E-01 0.20308160E+03</pdfrwt>
<pdfrwt beam="2">  1       21 0.82973907E-01 0.20308160E+03</pdfrwt>
<totfact> 0.61086978E+04</totfact>
</mgrwt>
</event>
<event>
 4    1  0.3973261E+000  0.2572999E+03  0.7546771E-02  0.1108776E+00
         21   -1    0    0  501  502  0.00000000000E+00  0.00000000000E+00  0.25592848468E+04  0.25592848468E+04  0.00000000000E+00 0.  1.
         21   -1    0    0  502  503 -0.00000000000E+00 -0.00000000000E+00 -0.25886309705E+02  0.25886309705E+02  0.00000000000E+00 0. -1.
          6    1    1    2  501    0  0.70354085556E+02  0.17698744743E+03  0.13011955865E+04  0.13263910465E+04  0.17300000000E+03 0.  1.
         -6    1    1    2    0  503 -0.70354085556E+02 -0.17698744743E+03  0.12322029506E+04  0.12587801101E+04  0.17300000000E+03 0. -1.
<mgrwt>
<rscale>  2 0.25729993E+03</rscale>
<asrwt>0</asrwt>
<pdfrwt beam="1">  1       21 0.39373593E+00 0.25729993E+03</pdfrwt>
<pdfrwt beam="2">  1       21 0.39825112E-02 0.25729993E+03</pdfrwt>
<totfact> 0.34805415E+03</totfact>
</mgrwt>
</event>
<event>
 4    1  0.3973261E+000  0.1744549E+03  0.7546771E-02  0.1173280E+00
         21   -1    0    0  503  502  0.00000000000E+00  0.00000000000E+00  0.62590597852E+02  0.62590597852E+02  0.00000000000E+00 0.  1.
         21   -1    0    0  501  503 -0.00000000000E+00 -0.00000000000E+00 -0.65364807951E+03  0.65364807951E+03  0.00000000000E+00 0.  1.
          6    1    1    2  501    0 -0.22368226111E+02  0.22711793087E+01 -0.47676070408E+03  0.50767633858E+03  0.17300000000E+03 0.  1.
         -6    1    1    2    0  502  0.22368226111E+02 -0.22711793087E+01 -0.11429677757E+03  0.20856233878E+03  0.17300000000E+03 0.  1.
<mgrwt>
<rscale>  2 0.17445485E+03</rscale>
<asrwt>0</asrwt>
<pdfrwt beam="1">  1       21 0.96293230E-02 0.17445485E+03</pdfrwt>
<pdfrwt beam="2">  1       21 0.10056124E+00 0.17445485E+03</pdfrwt>
<totfact> 0.70858030E+04</totfact>
</mgrwt>
</event>
<event>
 4    1  0.3973261E+000  0.2286239E+03  0.7546771E-02  0.1127612E+00
         21   -1    0    0  503  502  0.00000000000E+00  0.00000000000E+00  0.91182058422E+03  0.91182058422E+03  0.00000000000E+00 0. -1.
         21   -1    0    0  501  503 -0.00000000000E+00 -0.00000000000E+00 -0.20698512253E+03  0.20698512253E+03  0.00000000000E+00 0.  1.
          6    1    1    2  501    0  0.14940160312E+03 -0.43663909359E+01 -0.12325700587E+03  0.25973292799E+03  0.17300000000E+03 0.  1.
         -6    1    1    2    0  502 -0.14940160312E+03  0.43663909359E+01  0.82809246756E+03  0.85907277876E+03  0.17300000000E+03 0. -1.
<mgrwt>
<rscale>  2 0.22862394E+03</rscale>
<asrwt>0</asrwt>
<pdfrwt beam="1">  1       21 0.14028009E+00 0.22862394E+03</pdfrwt>
<pdfrwt beam="2">  1       21 0.31843866E-01 0.22862394E+03</pdfrwt>
<totfact> 0.32761096E+03</totfact>
</mgrwt>
</event>
<event>
 4    1  0.3973261E+000  0.2121452E+03  0.7546771E-02  0.1139878E+00
         21   -1    0    0  501  502  0.00000000000E+00  0.00000000000E+00  0.92093272837E+03  0.92093272837E+03  0.00000000000E+00 0.  1.
         21   -1    0    0  502  503 -0.00000000000E+00 -0.00000000000E+00 -0.64763823669E+02  0.64763823669E+02  0.00000000000E+00 0.  1.
          6    1    1    2  501    0  0.70191341637E+02  0.10074611995E+03  0.67224011071E+03  0.70492011716E+03  0.17300000000E+03 0.  1.
         -6    1    1    2    0  503 -0.70191341637E+02 -0.10074611995E+03  0.18392879399E+03  0.28077643488E+03  0.17300000000E+03 0.  1.
<mgrwt>
<rscale>  2 0.21214525E+03</rscale>
<asrwt>0</asrwt>
<pdfrwt beam="1">  1       21 0.14168195E+00 0.21214525E+03</pdfrwt>
<pdfrwt beam="2">  1       21 0.99636658E-02 0.21214525E+03</pdfrwt>
<totfact> 0.27996692E+04</totfact>
</mgrwt>
</event>
<event>
 4    1  0.3973261E+000  0.2011927E+03  0.7546771E-02  0.1148737E+00
         21   -1    0    0  501  502  0.00000000000E+00  0.00000000000E+00  0.81416359352E+02  0.81416359352E+02  0.00000000000E+00 0.  1.
         21   -1    0    0  502  503 -0.00000000000E+00 -0.00000000000E+00 -0.50154456618E+03  0.50154456618E+03  0.00000000000E+00 0.  1.
          6    1    1    2  501    0 -0.53131978065E+02 -0.87900454262E+02 -0.18286971125E+03  0.27188201162E+03  0.17300000000E+03 0.  1.
         -6    1    1    2    0  503  0.53131978065E+02  0.87900454262E+02 -0.23725849558E+03  0.31107891391E+03  0.17300000000E+03 0.  1.
<mgrwt>
<rscale>  2 0.20119269E+03</rscale>
<asrwt>0</asrwt>
<pdfrwt beam="1">  1       21 0.12525594E-01 0.20119269E+03</pdfrwt>
<pdfrwt beam="2">  1       21 0.77160703E-01 0.20119269E+03</pdfrwt>
<totfact> 0.80773508E+04</totfact>
</mgrwt>
</event>
<event>
 4    1  0.3973261E+000  0.1989387E+03  0.7546771E-02  0.1150638E+00
         21   -1    0    0  501  502  0.00000000000E+00  0.00000000000E+00  0.28317150689E+03  0.28317150689E+03  0.00000000000E+00 0.  1.
         21   -1    0    0  502  503 -0.00000000000E+00 -0.00000000000E+00 -0.14068299891E+03  0.14068299891E+03  0.00000000000E+00 0.  1.
          6    1    1    2  501    0 -0.17687645471E+02 -0.96616514527E+02  0.88391956346E+02  0.21769185017E+03  0.17300000000E+03 0. -1.
         -6    1    1    2    0  503  0.17687645471E+02  0.96616514527E+02  0.54096551634E+02  0.20616265564E+03  0.17300000000E+03 0. -1.
<mgrwt>
<rscale>  2 0.19893869E+03</rscale>
<asrwt>0</asrwt>
<pdfrwt beam="1">  1       21 0.43564847E-01 0.19893869E+03</pdfrwt>
<pdfrwt beam="2">  1       21 0.21643538E-01 0.19893869E+03</pdfrwt>
<totfact> 0.10055158E+05</totfact>
</mgrwt>
</event>
<event>
 4    1  0.3973261E+000  0.1841433E+03  0.7546771E-02  0.1163852E+00
         21   -1    0    0  503  502  0.00000000000E+00  0.00000000000E+00  0.28694237686E+03  0.28694237686E+03  0.00000000000E+00 0.  1.
         21   -1    0    0  501  503 -0.00000000000E+00 -0.00000000000E+00 -0.15885928174E+03  0.15885928174E+03  0.00000000000E+00 0.  1.
          6    1    1    2  501    0  0.51128972668E+02  0.36953958491E+02 -0.48764082532E+02  0.19049068911E+03  0.17300000000E+03 0.  1.
         -6    1    1    2    0  502 -0.51128972668E+02 -0.36953958491E+02  0.17684717765E+03  0.25531096948E+03  0.17300000000E+03 0.  1.
<mgrwt>
<rscale>  2 0.18414333E+03</rscale>
<asrwt>0</asrwt>
<pdfrwt beam="1">  1       21 0.44144981E-01 0.18414333E+03</pdfrwt>
<pdfrwt beam="2">  1       21 0.24439890E-01 0.18414333E+03</pdfrwt>
<totfact> 0.78222752E+04</totfact>
</mgrwt>
</event>
<event>
 4    1  0.3973261E+000  0.1993731E+03  0.7546771E-02  0.1150269E+00
         21   -1    0    0  503  502  0.00000000000E+00  0.00000000000E+00  0.92893181196E+03  0.92893181196E+03  0.00000000000E+00 0. -1.
         21   -1    0    0  501  503 -0.00000000000E+00 -0.00000000000E+00 -0.10070024551E+03  0.10070024551E+03  0.00000000000E+00 0. -1.
          6    1    1    2  501    0 -0.93877251106E+02 -0.31744420250E+02  0.23713941735E+02  0.20077847874E+03  0.17300000000E+03 0. -1.
         -6    1    1    2    0  502  0.93877251106E+02  0.31744420250E+02  0.80451762471E+03  0.82885357872E+03  0.17300000000E+03 0. -1.
<mgrwt>
<rscale>  2 0.19937313E+03</rscale>
<asrwt>0</asrwt>
<pdfrwt beam="1">  1       21 0.14291258E+00 0.19937313E+03</pdfrwt>
<pdfrwt beam="2">  1       21 0.15492346E-01 0.19937313E+03</pdfrwt>
<totfact> 0.12485906E+04</totfact>
</mgrwt>
</event>
<event>
 4    1  0.3973261E+000  0.1930130E+03  0.7546771E-02  0.1155772E+00
         21   -1    0    0  501  502  0.00000000000E+00  0.00000000000E+00  0.40069550476E+02  0.40069550476E+02  0.00000000000E+00 0. -1.
         21   -1    0    0  502  503 -0.00000000000E+00 -0.00000000000E+00 -0.12198329397E+04  0.12198329397E+04  0.00000000000E+00 0.  1.
          6    1    1    2  501    0  0.62082464484E+02  0.58913267722E+02 -0.28267536041E+03  0.34228550202E+03  0.17300000000E+03 0. -1.
         -6    1    1    2    0  503 -0.62082464484E+02 -0.58913267722E+02 -0.89708802877E+03  0.91761698812E+03  0.17300000000E+03 0.  1.
<mgrwt>
<rscale>  2 0.19301297E+03</rscale>
<asrwt>0</asrwt>
<pdfrwt beam="1">  1       21 0.61645451E-02 0.19301297E+03</pdfrwt>
<pdfrwt beam="2">  1       21 0.18766664E+00 0.19301297E+03</pdfrwt>
<totfact> 0.30416438E+04</totfact>
</mgrwt>
</event>
<event>
 4    1  0.3973261E+000  0.2918007E+03  0.7546771E-02  0.1089413E+00
         21   -1    0    0  503  502  0.00000000000E+00  0.00000000000E+00  0.91923254323E+02  0.91923254323E+02  0.00000000000E+00 0.  1.
         21   -1    0    0  501  503 -0.00000000000E+00 -0.00000000000E+00 -0.12245021123E+04  0.12245021123E+04  0.00000000000E+00 0. -1.
          6    1    1    2  501    0 -0.23496351888E+03 -0.32877040892E+01 -0.89111374965E+03  0.93767338611E+03  0.17300000000E+03 0. -1.
         -6    1    1    2    0  502  0.23496351888E+03  0.32877040892E+01 -0.24146510832E+03  0.37875198050E+03  0.17300000000E+03 0.  1.
<mgrwt>
<rscale>  2 0.29180073E+03</rscale>
<asrwt>0</asrwt>
<pdfrwt beam="1">  1       21 0.14142039E-01 0.29180073E+03</pdfrwt>
<pdfrwt beam="2">  1       21 0.18838494E+00 0.29180073E+03</pdfrwt>
<totfact> 0.64995421E+03</totfact>
</mgrwt>
</event>
<event>
 4    1  0.3973261E+000  0.3682645E+03  0.7546771E-02  0.1055359E+00
         21   -1    0    0  503  502  0.00000000000E+00  0.00000000000E+00  0.18074348815E+03  0.18074348815E+03  0.00000000000E+00 0. -1.
         21   -1    0    0  501  503 -0.00000000000E+00 -0.00000000000E+00 -0.75127802136E+03  0.75127802136E+03  0.00000000000E+00 0.  1.
          6    1    1    2  501    0 -0.31093815825E+03 -0.94906397475E+02 -0.30174866241E+03  0.47609979816E+03  0.17300000000E+03 0. -1.
         -6    1    1    2    0  502  0.31093815825E+03  0.94906397475E+02 -0.26878587080E+03  0.45592171135E+03  0.17300000000E+03 0.  1.
<mgrwt>
<rscale>  2 0.36826453E+03</rscale>
<asrwt>0</asrwt>
<pdfrwt beam="1">  1       21 0.27806691E-01 0.36826453E+03</pdfrwt>
<pdfrwt beam="2">  1       21 0.11558123E+00 0.36826453E+03</pdfrwt>
<totfact> 0.64849395E+03</totfact>
</mgrwt>
</event>
<event>
 4    1  0.3973261E+000  0.1926345E+03  0.7546771E-02  0.1156106E+00
         21   -1    0    0  503  502  0.00000000000E+00  0.00000000000E+00  0.48792368052E+02  0.48792368052E+02  0.00000000000E+00 0.  1.
         21   -1    0    0  501  503 -0.00000000000E+00 -0.00000000000E+00 -0.93301980320E+03  0.93301980320E+03  0.00000000000E+00 0. -1.
          6    1    1    2  501    0 -0.34255023823E+02 -0.77496105194E+02 -0.65318778117E+03  0.68100097683E+03  0.17300000000E+03 0. -1.
         -6    1    1    2    0  502  0.34255023823E+02  0.77496105194E+02 -0.23103965397E+03  0.30081119442E+03  0.17300000000E+03 0.  1.
<mgrwt>
<rscale>  2 0.19263451E+03</rscale>
<asrwt>0</asrwt>
<pdfrwt beam="1">  1       21 0.75065187E-02 0.19263451E+03</pdfrwt>
<pdfrwt beam="2">  1       21 0.14354150E+00 0.19263451E+03</pdfrwt>
<totfact> 0.44957219E+04</totfact>
</mgrwt>
</event>
<event>
 4    1  0.3973261E+000  0.1839644E+03  0.7546771E-02  0.1164021E+00
         21   -1    0    0  501  502  0.00000000000E+00  0.00000000000E+00  0.37144931953E+03  0.37144931953E+03  0.00000000000E+00 0.  1.
         21   -1    0    0  502  503 -0.00000000000E+00 -0.00000000000E+00 -0.92632768204E+02  0.92632768204E+02  0.00000000000E+00 0. -1.
          6    1    1    2  501    0 -0.51967361772E+02 -0.34832218040E+02  0.16915537595E+03  0.24991284744E+03  0.17300000000E+03 0.  1.
         -6    1    1    2    0  503  0.51967361772E+02  0.34832218040E+02  0.10966117538E+03  0.21416924029E+03  0.17300000000E+03 0. -1.
<mgrwt>
<rscale>  2 0.18396437E+03</rscale>
<asrwt>0</asrwt>
<pdfrwt beam="1">  1       21 0.57146048E-01 0.18396437E+03</pdfrwt>
<pdfrwt beam="2">  1       21 0.14251195E-01 0.18396437E+03</pdfrwt>
<totfact> 0.12419551E+05</totfact>
</mgrwt>
</event>
<event>
 4    1  0.3973261E+000  0.1965164E+03  0.7546771E-02  0.1152712E+00
         21   -1    0    0  501  502  0.00000000000E+00  0.00000000000E+00  0.11330030403E+03  0.11330030403E+03  0.00000000000E+00 0.  1.
         21   -1    0    0  502  503 -0.00000000000E+00 -0.00000000000E+00 -0.35038986227E+03  0.35038986227E+03  0.00000000000E+00 0.  1.
          6    1    1    2  501    0  0.41787046335E+02  0.83327983706E+02 -0.15679488134E+03  0.25140275441E+03  0.17300000000E+03 0.  1.
         -6    1    1    2    0  503 -0.41787046335E+02 -0.83327983706E+02 -0.80294676897E+02  0.21228741189E+03  0.17300000000E+03 0.  1.
<mgrwt>
<rscale>  2 0.19651644E+03</rscale>
<asrwt>0</asrwt>
<pdfrwt beam="1">  1       21 0.17430816E-01 0.19651644E+03</pdfrwt>
<pdfrwt beam="2">  1       21 0.53906133E-01 0.19651644E+03</pdfrwt>
<totfact> 0.96802909E+04</totfact>
</mgrwt>
</event>
<event>
 4    1  0.3973261E+000  0.1855768E+03  0.7546771E-02  0.1162512E+00
         21   -1    0    0  503  502  0.00000000000E+00  0.00000000000E+00  0.20871347596E+03  0.20871347596E+03  0.00000000000E+00 0. -1.
         21   -1    0    0  501  503 -0.00000000000E+00 -0.00000000000E+00 -0.94367364557E+03  0.94367364557E+03  0.00000000000E+00 0. -1.
          6    1    1    2  501    0 -0.39414196821E+02 -0.54371420191E+02 -0.89088027998E+03  0.91000351840E+03  0.17300000000E+03 0. -1.
         -6    1    1    2    0  502  0.39414196821E+02  0.54371420191E+02  0.15592011038E+03  0.24238360313E+03  0.17300000000E+03 0. -1.
<mgrwt>
<rscale>  2 0.18557675E+03</rscale>
<asrwt>0</asrwt>
<pdfrwt beam="1">  1       21 0.32109765E-01 0.18557675E+03</pdfrwt>
<pdfrwt beam="2">  1       21 0.14518056E+00 0.18557675E+03</pdfrwt>
<totfact> 0.30573253E+03</totfact>
</mgrwt>
</event>
<event>
 4    1  0.3973261E+000  0.2757718E+03  0.7546771E-02  0.1098021E+00
         21   -1    0    0  503  502  0.00000000000E+00  0.00000000000E+00  0.96648996090E+03  0.96648996090E+03  0.00000000000E+00 0. -1.
         21   -1    0    0  501  503 -0.00000000000E+00 -0.00000000000E+00 -0.20474536165E+03  0.20474536165E+03  0.00000000000E+00 0.  1.
          6    1    1    2  501    0  0.11866871796E+03  0.17899390528E+03 -0.78635788549E+02  0.28676413651E+03  0.17300000000E+03 0.  1.
         -6    1    1    2    0  502 -0.11866871796E+03 -0.17899390528E+03  0.84038038780E+03  0.88447118605E+03  0.17300000000E+03 0. -1.
<mgrwt>
<rscale>  2 0.27577179E+03</rscale>
<asrwt>0</asrwt>
<pdfrwt beam="1">  1       21 0.14869076E+00 0.27577179E+03</pdfrwt>
<pdfrwt beam="2">  1       21 0.31499287E-01 0.27577179E+03</pdfrwt>
<totfact> 0.27781207E+03</totfact>
</mgrwt>
</event>
<event>
 4    1  0.3973261E+000  0.2253461E+03  0.7546771E-02  0.1129959E+00
         21   -1    0    0  503  502  0.00000000000E+00  0.00000000000E+00  0.12808293888E+03  0.12808293888E+03  0.00000000000E+00 0.  1.
         21   -1    0    0  501  503 -0.00000000000E+00 -0.00000000000E+00 -0.43602856263E+03  0.43602856263E+03  0.00000000000E+00 0.  1.
          6    1    1    2  501    0  0.10064831605E+03 -0.10354612876E+03 -0.23893086120E+03  0.32843392142E+03  0.17300000000E+03 0.  1.
         -6    1    1    2    0  502 -0.10064831605E+03  0.10354612876E+03 -0.69014762545E+02  0.23567758009E+03  0.17300000000E+03 0.  1.
<mgrwt>
<rscale>  2 0.22534614E+03</rscale>
<asrwt>0</asrwt>
<pdfrwt beam="1">  1       21 0.19705067E-01 0.22534614E+03</pdfrwt>
<pdfrwt beam="2">  1       21 0.67081318E-01 0.22534614E+03</pdfrwt>
<totfact> 0.47534159E+04</totfact>
</mgrwt>
</event>
<event>
 4    1  0.3973261E+000  0.1793663E+03  0.7546771E-02  0.1168418E+00
         21   -1    0    0  503  502  0.00000000000E+00  0.00000000000E+00  0.10669644187E+03  0.10669644187E+03  0.00000000000E+00 0. -1.
         21   -1    0    0  501  503 -0.00000000000E+00 -0.00000000000E+00 -0.30760498930E+03  0.30760498930E+03  0.00000000000E+00 0. -1.
          6    1    1    2  501    0 -0.32252099282E+02 -0.34685191944E+02 -0.12956378575E+03  0.22126688642E+03  0.17300000000E+03 0. -1.
         -6    1    1    2    0  502  0.32252099282E+02  0.34685191944E+02 -0.71344761675E+02  0.19303454475E+03  0.17300000000E+03 0. -1.
<mgrwt>
<rscale>  2 0.17936627E+03</rscale>
<asrwt>0</asrwt>
<pdfrwt beam="1">  1       21 0.16414837E-01 0.17936627E+03</pdfrwt>
<pdfrwt beam="2">  1       21 0.47323844E-01 0.17936627E+03</pdfrwt>
<totfact> 0.14274390E+05</totfact>
</mgrwt>
</event>
<event>
 4    1  0.3973261E+000  0.2119159E+03  0.7546771E-02  0.1140058E+00
         21   -1    0    0  501  502  0.00000000000E+00  0.00000000000E+00  0.65398082311E+02  0.65398082311E+02  0.00000000000E+00 0. -1.
         21   -1    0    0  502  503 -0.00000000000E+00 -0.00000000000E+00 -0.93856552504E+03  0.93856552504E+03  0.00000000000E+00 0.  1.
          6    1    1    2  501    0  0.12005581329E+03 -0.23789406803E+02 -0.17653961714E+03  0.27581618988E+03  0.17300000000E+03 0.  1.
         -6    1    1    2    0  503 -0.12005581329E+03  0.23789406803E+02 -0.69662782559E+03  0.72814741747E+03  0.17300000000E+03 0.  1.
<mgrwt>
<rscale>  2 0.21191587E+03</rscale>
<asrwt>0</asrwt>
<pdfrwt beam="1">  1       21 0.10061243E-01 0.21191587E+03</pdfrwt>
<pdfrwt beam="2">  1       21 0.14439470E+00 0.21191587E+03</pdfrwt>
<totfact> 0.26193095E+04</totfact>
</mgrwt>
</event>
<event>
 4    1  0.3973261E+000  0.2244495E+03  0.7546771E-02  0.1130609E+00
         21   -1    0    0  503  502  0.00000000000E+00  0.00000000000E+00  0.70797529752E+02  0.70797529752E+02  0.00000000000E+00 0.  1.
         21   -1    0    0  501  503 -0.00000000000E+00 -0.00000000000E+00 -0.77782127847E+03  0.77782127847E+03  0.00000000000E+00 0.  1.
          6    1    1    2  501    0  0.13829608404E+03 -0.36369955675E+02 -0.47734346161E+03  0.52747925161E+03  0.17300000000E+03 0.  1.
         -6    1    1    2    0  502 -0.13829608404E+03  0.36369955675E+02 -0.22968028711E+03  0.32113955661E+03  0.17300000000E+03 0.  1.
<mgrwt>
<rscale>  2 0.22444951E+03</rscale>
<asrwt>0</asrwt>
<pdfrwt beam="1">  1       21 0.10891927E-01 0.22444951E+03</pdfrwt>
<pdfrwt beam="2">  1       21 0.11966481E+00 0.22444951E+03</pdfrwt>
<totfact> 0.36451158E+04</totfact>
</mgrwt>
</event>
<event>
 4    1  0.3973261E+000  0.2567746E+03  0.7546771E-02  0.1109097E+00
         21   -1    0    0  501  502  0.00000000000E+00  0.00000000000E+00  0.29636162352E+03  0.29636162352E+03  0.00000000000E+00 0. -1.
         21   -1    0    0  502  503 -0.00000000000E+00 -0.00000000000E+00 -0.33358390841E+03  0.33358390841E+03  0.00000000000E+00 0. -1.
          6    1    1    2  501    0 -0.85160372249E+02  0.16956390896E+03  0.16316792428E+03  0.30423178620E+03  0.17300000000E+03 0. -1.
         -6    1    1    2    0  503  0.85160372249E+02 -0.16956390896E+03 -0.20039020917E+03  0.32571374573E+03  0.17300000000E+03 0. -1.
<mgrwt>
<rscale>  2 0.25677463E+03</rscale>
<asrwt>0</asrwt>
<pdfrwt beam="1">  1       21 0.45594096E-01 0.25677463E+03</pdfrwt>
<pdfrwt beam="2">  1       21 0.51320601E-01 0.25677463E+03</pdfrwt>
<totfact> 0.16056176E+04</totfact>
</mgrwt>
</event>
<event>
 4    1  0.3973261E+000  0.2048452E+03  0.7546771E-02  0.1145714E+00
         21   -1    0    0  503  502  0.00000000000E+00  0.00000000000E+00  0.57685432220E+03  0.57685432220E+03  0.00000000000E+00 0.  1.
         21   -1    0    0  501  503 -0.00000000000E+00 -0.00000000000E+00 -0.78230781873E+02  0.78230781873E+02  0.00000000000E+00 0. -1.
          6    1    1    2  501    0  0.94664572014E+02 -0.55418048211E+02  0.16255235935E+03  0.26150489631E+03  0.17300000000E+03 0.  1.
         -6    1    1    2    0  502 -0.94664572014E+02  0.55418048211E+02  0.33607118097E+03  0.39358020776E+03  0.17300000000E+03 0.  1.
<mgrwt>
<rscale>  2 0.20484516E+03</rscale>
<asrwt>0</asrwt>
<pdfrwt beam="1">  1       21 0.88746816E-01 0.20484516E+03</pdfrwt>
<pdfrwt beam="2">  1       21 0.12035505E-01 0.20484516E+03</pdfrwt>
<totfact> 0.62977733E+04</totfact>
</mgrwt>
</event>
<event>
 4    1  0.3973261E+000  0.2551388E+03  0.7546771E-02  0.1110100E+00
         21   -1    0    0  503  502  0.00000000000E+00  0.00000000000E+00  0.11353220451E+03  0.11353220451E+03  0.00000000000E+00 0. -1.
         21   -1    0    0  501  503 -0.00000000000E+00 -0.00000000000E+00 -0.90804947444E+03  0.90804947444E+03  0.00000000000E+00 0. -1.
          6    1    1    2  501    0 -0.10656697417E+03  0.15430577474E+03 -0.70736011825E+03  0.75196684035E+03  0.17300000000E+03 0. -1.
         -6    1    1    2    0  502  0.10656697417E+03 -0.15430577474E+03 -0.87157151689E+02  0.26961483860E+03  0.17300000000E+03 0. -1.
<mgrwt>
<rscale>  2 0.25513877E+03</rscale>
<asrwt>0</asrwt>
<pdfrwt beam="1">  1       21 0.17466493E-01 0.25513877E+03</pdfrwt>
<pdfrwt beam="2">  1       21 0.13969992E+00 0.25513877E+03</pdfrwt>
<totfact> 0.10246923E+04</totfact>
</mgrwt>
</event>
<event>
 4    1  0.3973261E+000  0.1814958E+03  0.7546771E-02  0.1166363E+00
         21   -1    0    0  501  502  0.00000000000E+00  0.00000000000E+00  0.43459680850E+03  0.43459680850E+03  0.00000000000E+00 0.  1.
         21   -1    0    0  502  503 -0.00000000000E+00 -0.00000000000E+00 -0.75968775520E+02  0.75968775520E+02  0.00000000000E+00 0. -1.
          6    1    1    2  501    0  0.16106987800E+02 -0.52462397823E+02  0.19148522177E+03  0.26383200791E+03  0.17300000000E+03 0. -1.
         -6    1    1    2    0  503 -0.16106987800E+02  0.52462397823E+02  0.16714281121E+03  0.24673357611E+03  0.17300000000E+03 0.  1.
<mgrwt>
<rscale>  2 0.18149584E+03</rscale>
<asrwt>0</asrwt>
<pdfrwt beam="1">  1       21 0.66861046E-01 0.18149584E+03</pdfrwt>
<pdfrwt beam="2">  1       21 0.11687504E-01 0.18149584E+03</pdfrwt>
<totfact> 0.12656539E+05</totfact>
</mgrwt>
</event>
<event>
 4    1  0.3973261E+000  0.2288929E+03  0.7546771E-02  0.1127421E+00
         21   -1    0    0  503  502  0.00000000000E+00  0.00000000000E+00  0.26254688265E+03  0.26254688265E+03  0.00000000000E+00 0.  1.
         21   -1    0    0  501  503 -0.00000000000E+00 -0.00000000000E+00 -0.63225197654E+03  0.63225197654E+03  0.00000000000E+00 0. -1.
          6    1    1    2  501    0  0.76314769074E+01  0.14968204484E+03 -0.55497325532E+03  0.60032263668E+03  0.17300000000E+03 0. -1.
         -6    1    1    2    0  502 -0.76314769074E+01 -0.14968204484E+03  0.18526816143E+03  0.29447622251E+03  0.17300000000E+03 0.  1.
<mgrwt>
<rscale>  2 0.22889289E+03</rscale>
<asrwt>0</asrwt>
<pdfrwt beam="1">  1       21 0.40391828E-01 0.22889289E+03</pdfrwt>
<pdfrwt beam="2">  1       21 0.97269535E-01 0.22889289E+03</pdfrwt>
<totfact> 0.50377654E+03</totfact>
</mgrwt>
</event>
<event>
 4    1  0.3973261E+000  0.2095770E+03  0.7546771E-02  0.1141901E+00
         21   -1    0    0  501  502  0.00000000000E+00  0.00000000000E+00  0.28008197842E+03  0.28008197842E+03  0.00000000000E+00 0. -1.
         21   -1    0    0  502  503 -0.00000000000E+00 -0.00000000000E+00 -0.18493133800E+03  0.18493133800E+03  0.00000000000E+00 0.  1.
          6    1    1    2  501    0  0.43756301435E+02  0.10990405870E+03  0.13822561838E+03  0.25105544729E+03  0.17300000000E+03 0. -1.
         -6    1    1    2    0  503 -0.43756301435E+02 -0.10990405870E+03 -0.43074977968E+02  0.21395786913E+03  0.17300000000E+03 0.  1.
<mgrwt>
<rscale>  2 0.20957699E+03</rscale>
<asrwt>0</asrwt>
<pdfrwt beam="1">  1       21 0.43089535E-01 0.20957699E+03</pdfrwt>
<pdfrwt beam="2">  1       21 0.28450975E-01 0.20957699E+03</pdfrwt>
<totfact> 0.60700163E+04</totfact>
</mgrwt>
</event>
<event>
 4    1  0.3973261E+000  0.2368561E+03  0.7546771E-02  0.1121905E+00
         21   -1    0    0  503  502  0.00000000000E+00  0.00000000000E+00  0.11134870934E+04  0.11134870934E+04  0.00000000000E+00 0. -1.
         21   -1    0    0  501  503 -0.00000000000E+00 -0.00000000000E+00 -0.87951690735E+02  0.87951690735E+02  0.00000000000E+00 0.  1.
          6    1    1    2  501    0  0.11962669852E+03 -0.10890938484E+03  0.12015650099E+03  0.26559063582E+03  0.17300000000E+03 0.  1.
         -6    1    1    2    0  502 -0.11962669852E+03  0.10890938484E+03  0.90537890169E+03  0.93584814833E+03  0.17300000000E+03 0. -1.
<mgrwt>
<rscale>  2 0.23685608E+03</rscale>
<asrwt>0</asrwt>
<pdfrwt beam="1">  1       21 0.17130570E+00 0.23685608E+03</pdfrwt>
<pdfrwt beam="2">  1       21 0.13531030E-01 0.23685608E+03</pdfrwt>
<totfact> 0.95626656E+03</totfact>
</mgrwt>
</event>
<event>
 4    1  0.3973261E+000  0.1792734E+03  0.7546771E-02  0.1168508E+00
         21   -1    0    0  503  502  0.00000000000E+00  0.00000000000E+00  0.59169968391E+03  0.59169968391E+03  0.00000000000E+00 0. -1.
         21   -1    0    0  501  503 -0.00000000000E+00 -0.00000000000E+00 -0.15927150884E+03  0.15927150884E+03  0.00000000000E+00 0. -1.
          6    1    1    2  501    0 -0.47003697172E+02 -0.77522819667E+00 -0.88593795816E+02  0.19996952064E+03  0.17300000000E+03 0. -1.
         -6    1    1    2    0  502  0.47003697172E+02  0.77522819667E+00  0.52102197088E+03  0.55100167211E+03  0.17300000000E+03 0. -1.
<mgrwt>
<rscale>  2 0.17927339E+03</rscale>
<asrwt>0</asrwt>
<pdfrwt beam="1">  1       21 0.91030720E-01 0.17927339E+03</pdfrwt>
<pdfrwt beam="2">  1       21 0.24503309E-01 0.17927339E+03</pdfrwt>
<totfact> 0.16241936E+04</totfact>
</mgrwt>
</event>
<event>
 4    1  0.3973261E+000  0.2780089E+03  0.7546771E-02  0.1096781E+00
         21   -1    0    0  503  502  0.00000000000E+00  0.00000000000E+00  0.16772160256E+03  0.16772160256E+03  0.00000000000E+00 0.  1.
         21   -1    0    0  501  503 -0.00000000000E+00 -0.00000000000E+00 -0.53919590466E+03  0.53919590466E+03  0.00000000000E+00 0. -1.
          6    1    1    2  501    0 -0.21028428572E+03  0.56040113038E+02 -0.32049835724E+03  0.42427369949E+03  0.17300000000E+03 0. -1.
         -6    1    1    2    0  502  0.21028428572E+03 -0.56040113038E+02 -0.50975944870E+02  0.28264380772E+03  0.17300000000E+03 0.  1.
<mgrwt>
<rscale>  2 0.27800895E+03</rscale>
<asrwt>0</asrwt>
<pdfrwt beam="1">  1       21 0.25803323E-01 0.27800895E+03</pdfrwt>
<pdfrwt beam="2">  1       21 0.82953216E-01 0.27800895E+03</pdfrwt>
<totfact> 0.17251184E+04</totfact>
</mgrwt>
</event>
<event>
 4    1  0.3973261E+000  0.2667240E+03  0.7546771E-02  0.1103169E+00
         21   -1    0    0  501  502  0.00000000000E+00  0.00000000000E+00  0.61146786121E+03  0.61146786121E+03  0.00000000000E+00 0. -1.
         21   -1    0    0  502  503 -0.00000000000E+00 -0.00000000000E+00 -0.11740950602E+03  0.11740950602E+03  0.00000000000E+00 0.  1.
          6    1    1    2  501    0 -0.27695047523E+02 -0.20111113341E+03  0.28171789723E+03  0.38795190070E+03  0.17300000000E+03 0.  1.
         -6    1    1    2    0  503  0.27695047523E+02  0.20111113341E+03  0.21234045797E+03  0.34092546653E+03  0.17300000000E+03 0. -1.
<mgrwt>
<rscale>  2 0.26672402E+03</rscale>
<asrwt>0</asrwt>
<pdfrwt beam="1">  1       21 0.94071977E-01 0.26672402E+03</pdfrwt>
<pdfrwt beam="2">  1       21 0.18063001E-01 0.26672402E+03</pdfrwt>
<totfact> 0.25448582E+04</totfact>
</mgrwt>
</event>
<event>
 4    1  0.3973261E+000  0.1780704E+03  0.7546771E-02  0.1169684E+00
         21   -1    0    0  501  502  0.00000000000E+00  0.00000000000E+00  0.10456502254E+03  0.10456502254E+03  0.00000000000E+00 0.  1.
         21   -1    0    0  502  503 -0.00000000000E+00 -0.00000000000E+00 -0.33630071567E+03  0.33630071567E+03  0.00000000000E+00 0.  1.
          6    1    1    2  501    0 -0.24088554443E+02  0.34638469766E+02 -0.46761283726E+02  0.18410784801E+03  0.17300000000E+03 0.  1.
         -6    1    1    2    0  503  0.24088554443E+02 -0.34638469766E+02 -0.18497440941E+03  0.25675789020E+03  0.17300000000E+03 0.  1.
<mgrwt>
<rscale>  2 0.17807044E+03</rscale>
<asrwt>0</asrwt>
<pdfrwt beam="1">  1       21 0.16086926E-01 0.17807044E+03</pdfrwt>
<pdfrwt beam="2">  1       21 0.51738572E-01 0.17807044E+03</pdfrwt>
<totfact> 0.12311192E+05</totfact>
</mgrwt>
</event>
<event>
 4    1  0.3973261E+000  0.3254496E+03  0.7546771E-02  0.1073168E+00
         21   -1    0    0  503  502  0.00000000000E+00  0.00000000000E+00  0.14134163288E+04  0.14134163288E+04  0.00000000000E+00 0.  1.
         21   -1    0    0  501  503 -0.00000000000E+00 -0.00000000000E+00 -0.76991242362E+02  0.76991242362E+02  0.00000000000E+00 0.  1.
          6    1    1    2  501    0  0.62814815305E+02 -0.26840776854E+03  0.54649269662E+03  0.63605950877E+03  0.17300000000E+03 0.  1.
         -6    1    1    2    0  502 -0.62814815305E+02  0.26840776854E+03  0.78993238981E+03  0.85434806239E+03  0.17300000000E+03 0.  1.
<mgrwt>
<rscale>  2 0.32544958E+03</rscale>
<asrwt>0</asrwt>
<pdfrwt beam="1">  1       21 0.21744865E+00 0.32544958E+03</pdfrwt>
<pdfrwt beam="2">  1       21 0.11844808E-01 0.32544958E+03</pdfrwt>
<totfact> 0.56880778E+03</totfact>
</mgrwt>
</event>
<event>
 4    1  0.3973261E+000  0.1887977E+03  0.7546771E-02  0.1159550E+00
         21   -1    0    0  503  502  0.00000000000E+00  0.00000000000E+00  0.19504713853E+03  0.19504713853E+03  0.00000000000E+00 0.  1.
         21   -1    0    0  501  503 -0.00000000000E+00 -0.00000000000E+00 -0.29990726976E+03  0.29990726976E+03  0.00000000000E+00 0. -1.
          6    1    1    2  501    0  0.22796308700E+02 -0.72082542531E+02 -0.20710828919E+03  0.28024704830E+03  0.17300000000E+03 0. -1.
         -6    1    1    2    0  502 -0.22796308700E+02  0.72082542531E+02  0.10224815797E+03  0.21470736000E+03  0.17300000000E+03 0.  1.
<mgrwt>
<rscale>  2 0.18879768E+03</rscale>
<asrwt>0</asrwt>
<pdfrwt beam="1">  1       21 0.30007252E-01 0.18879768E+03</pdfrwt>
<pdfrwt beam="2">  1       21 0.46139580E-01 0.18879768E+03</pdfrwt>
<totfact> 0.48029320E+04</totfact>
</mgrwt>
</event>
<event>
 4    1  0.3973261E+000  0.2125628E+03  0.7546771E-02  0.1139552E+00
         21   -1    0    0  501  502  0.00000000000E+00  0.00000000000E+00  0.38828127235E+03  0.38828127235E+03  0.00000000000E+00 0. -1.
         21   -1    0    0  502  503 -0.00000000000E+00 -0.00000000000E+00 -0.16263723244E+03  0.16263723244E+03  0.00000000000E+00 0. -1.
          6    1    1    2  501    0 -0.57980694040E+02  0.10905125203E+03  0.25974865022E+03  0.33563715191E+03  0.17300000000E+03 0. -1.
         -6    1    1    2    0  503  0.57980694040E+02 -0.10905125203E+03 -0.34104610313E+02  0.21528135287E+03  0.17300000000E+03 0. -1.
<mgrwt>
<rscale>  2 0.21256278E+03</rscale>
<asrwt>0</asrwt>
<pdfrwt beam="1">  1       21 0.59735580E-01 0.21256278E+03</pdfrwt>
<pdfrwt beam="2">  1       21 0.25021113E-01 0.21256278E+03</pdfrwt>
<totfact> 0.39156507E+04</totfact>
</mgrwt>
</event>
<event>
 4    1  0.3973261E+000  0.1900281E+03  0.7546771E-02  0.1158436E+00
         21   -1    0    0  503  502  0.00000000000E+00  0.00000000000E+00  0.45465498562E+03  0.45465498562E+03  0.00000000000E+00 0. -1.
         21   -1    0    0  501  503 -0.00000000000E+00 -0.00000000000E+00 -0.12641478495E+03  0.12641478495E+03  0.00000000000E+00 0. -1.
          6    1    1    2  501    0  0.53760883701E+02 -0.57371106792E+02 -0.13014779118E+02  0.19047325530E+03  0.17300000000E+03 0. -1.
         -6    1    1    2    0  502 -0.53760883701E+02  0.57371106792E+02  0.34125497979E+03  0.39059651527E+03  0.17300000000E+03 0. -1.
<mgrwt>
<rscale>  2 0.19002809E+03</rscale>
<asrwt>0</asrwt>
<pdfrwt beam="1">  1       21 0.69946920E-01 0.19002809E+03</pdfrwt>
<pdfrwt beam="2">  1       21 0.19448429E-01 0.19002809E+03</pdfrwt>
<totfact> 0.45195922E+04</totfact>
</mgrwt>
</event>
<event>
 4    1  0.3973261E+000  0.1986078E+03  0.7546771E-02  0.1150919E+00
         21   -1    0    0  503  502  0.00000000000E+00  0.00000000000E+00  0.25102009183E+03  0.25102009183E+03  0.00000000000E+00 0. -1.
         21   -1    0    0  501  503 -0.00000000000E+00 -0.00000000000E+00 -0.54123149108E+03  0.54123149108E+03  0.00000000000E+00 0.  1.
          6    1    1    2  501    0  0.93599914126E+02 -0.27479188818E+02 -0.47880822366E+03  0.51836508832E+03  0.17300000000E+03 0.  1.
         -6    1    1    2    0  502 -0.93599914126E+02  0.27479188818E+02  0.18859682441E+03  0.27388649459E+03  0.17300000000E+03 0. -1.
<mgrwt>
<rscale>  2 0.19860778E+03</rscale>
<asrwt>0</asrwt>
<pdfrwt beam="1">  1       21 0.38618476E-01 0.19860778E+03</pdfrwt>
<pdfrwt beam="2">  1       21 0.83266382E-01 0.19860778E+03</pdfrwt>
<totfact> 0.80857165E+03</totfact>
</mgrwt>
</event>
<event>
 4    1  0.3973261E+000  0.2066437E+03  0.7546771E-02  0.1144252E+00
         21   -1    0    0  503  502  0.00000000000E+00  0.00000000000E+00  0.19546487913E+03  0.19546487913E+03  0.00000000000E+00 0. -1.
         21   -1    0    0  501  503 -0.00000000000E+00 -0.00000000000E+00 -0.21902702092E+03  0.21902702092E+03  0.00000000000E+00 0. -1.
          6    1    1    2  501    0 -0.10856796401E+03  0.31394284489E+02 -0.22309339995E+02  0.20784443837E+03  0.17300000000E+03 0. -1.
         -6    1    1    2    0  502  0.10856796401E+03 -0.31394284489E+02 -0.12528018001E+01  0.20664746169E+03  0.17300000000E+03 0. -1.
<mgrwt>
<rscale>  2 0.20664366E+03</rscale>
<asrwt>0</asrwt>
<pdfrwt beam="1">  1       21 0.30071520E-01 0.20664366E+03</pdfrwt>
<pdfrwt beam="2">  1       21 0.33696465E-01 0.20664366E+03</pdfrwt>
<totfact> 0.89464491E+04</totfact>
</mgrwt>
</event>
<event>
 4    1  0.3973261E+000  0.2625982E+03  0.7546771E-02  0.1105592E+00
         21   -1    0    0  503  502  0.00000000000E+00  0.00000000000E+00  0.17450655465E+03  0.17450655465E+03  0.00000000000E+00 0. -1.
         21   -1    0    0  501  503 -0.00000000000E+00 -0.00000000000E+00 -0.40441045539E+03  0.40441045539E+03  0.00000000000E+00 0.  1.
          6    1    1    2  501    0  0.13149107416E+03  0.14744119212E+03 -0.71171128457E+02  0.27207193395E+03  0.17300000000E+03 0. -1.
         -6    1    1    2    0  502 -0.13149107416E+03 -0.14744119212E+03 -0.15873277229E+03  0.30684507608E+03  0.17300000000E+03 0. -1.
<mgrwt>
<rscale>  2 0.26259819E+03</rscale>
<asrwt>0</asrwt>
<pdfrwt beam="1">  1       21 0.26847163E-01 0.26259819E+03</pdfrwt>
<pdfrwt beam="2">  1       21 0.62216992E-01 0.26259819E+03</pdfrwt>
<totfact> 0.30601736E+04</totfact>
</mgrwt>
</event>
<event>
 4    1  0.3973261E+000  0.2039805E+03  0.7546771E-02  0.1146423E+00
         21   -1    0    0  501  502  0.00000000000E+00  0.00000000000E+00  0.13066735145E+04  0.13066735145E+04  0.00000000000E+00 0.  1.
         21   -1    0    0  502  503 -0.00000000000E+00 -0.00000000000E+00 -0.39082504159E+02  0.39082504159E+02  0.00000000000E+00 0.  1.
          6    1    1    2  501    0 -0.10676040572E+03 -0.16770945479E+02  0.92340161755E+03  0.94566304577E+03  0.17300000000E+03 0.  1.
         -6    1    1    2    0  503  0.10676040572E+03  0.16770945479E+02  0.34418939277E+03  0.40009297287E+03  0.17300000000E+03 0.  1.
<mgrwt>
<rscale>  2 0.20398051E+03</rscale>
<asrwt>0</asrwt>
<pdfrwt beam="1">  1       21 0.20102666E+00 0.20398051E+03</pdfrwt>
<pdfrwt beam="2">  1       21 0.60126939E-02 0.20398051E+03</pdfrwt>
<totfact> 0.25769055E+04</totfact>
</mgrwt>
</event>
<event>
 4    1  0.3973261E+000  0.1743625E+03  0.7546771E-02  0.1173373E+00
         21   -1    0    0  503  502  0.00000000000E+00  0.00000000000E+00  0.16735865823E+02  0.16735865823E+02  0.00000000000E+00 0.  1.
         21   -1    0    0  501  503 -0.00000000000E+00 -0.00000000000E+00 -0.21398072654E+04  0.21398072654E+04  0.00000000000E+00 0.  1.
          6    1    1    2  501    0 -0.69419503941E+01 -0.20618038470E+02 -0.14806037771E+04  0.14908352823E+04  0.17300000000E+03 0.  1.
         -6    1    1    2    0  502  0.69419503941E+01  0.20618038470E+02 -0.64246762247E+03  0.66570784891E+03  0.17300000000E+03 0.  1.
<mgrwt>
<rscale>  2 0.17436254E+03</rscale>
<asrwt>0</asrwt>
<pdfrwt beam="1">  1       21 0.25747492E-02 0.17436254E+03</pdfrwt>
<pdfrwt beam="2">  1       21 0.32920104E+00 0.17436254E+03</pdfrwt>
<totfact> 0.19237170E+04</totfact>
</mgrwt>
</event>
<event>
 4    1  0.3973261E+000  0.1755567E+03  0.7546771E-02  0.1172174E+00
         21   -1    0    0  503  502  0.00000000000E+00  0.00000000000E+00  0.28307417700E+03  0.28307417700E+03  0.00000000000E+00 0.  1.
         21   -1    0    0  501  503 -0.00000000000E+00 -0.00000000000E+00 -0.14003466310E+03  0.14003466310E+03  0.00000000000E+00 0.  1.
          6    1    1    2  501    0 -0.45995163853E+01  0.29496011566E+02 -0.28270732511E+02  0.17781845958E+03  0.17300000000E+03 0.  1.
         -6    1    1    2    0  502  0.45995163853E+01 -0.29496011566E+02  0.17131024641E+03  0.24529038052E+03  0.17300000000E+03 0.  1.
<mgrwt>
<rscale>  2 0.17555674E+03</rscale>
<asrwt>0</asrwt>
<pdfrwt beam="1">  1       21 0.43549873E-01 0.17555674E+03</pdfrwt>
<pdfrwt beam="2">  1       21 0.21543794E-01 0.17555674E+03</pdfrwt>
<totfact> 0.10241542E+05</totfact>
</mgrwt>
</event>
<event>
 4    1  0.3973261E+000  0.2436420E+03  0.7546771E-02  0.1117390E+00
         21   -1    0    0  503  502  0.00000000000E+00  0.00000000000E+00  0.60962903388E+03  0.60962903388E+03  0.00000000000E+00 0.  1.
         21   -1    0    0  501  503 -0.00000000000E+00 -0.00000000000E+00 -0.10085838751E+03  0.10085838751E+03  0.00000000000E+00 0.  1.
          6    1    1    2  501    0 -0.14124392744E+03  0.97378489430E+02  0.18834716234E+03  0.30795465706E+03  0.17300000000E+03 0.  1.
         -6    1    1    2    0  502  0.14124392744E+03 -0.97378489430E+02  0.32042348402E+03  0.40253276433E+03  0.17300000000E+03 0.  1.
<mgrwt>
<rscale>  2 0.24364199E+03</rscale>
<asrwt>0</asrwt>
<pdfrwt beam="1">  1       21 0.93789080E-01 0.24364199E+03</pdfrwt>
<pdfrwt beam="2">  1       21 0.15516675E-01 0.24364199E+03</pdfrwt>
<totfact> 0.34299782E+04</totfact>
</mgrwt>
</event>
<event>
 4    1  0.3973261E+000  0.1964010E+03  0.7546771E-02  0.1152812E+00
         21   -1    0    0  501  502  0.00000000000E+00  0.00000000000E+00  0.37598606780E+03  0.37598606780E+03  0.00000000000E+00 0. -1.
         21   -1    0    0  502  503 -0.00000000000E+00 -0.00000000000E+00 -0.29418231716E+03  0.29418231716E+03  0.00000000000E+00 0. -1.
          6    1    1    2  501    0  0.64817646707E+02  0.66655882153E+02  0.31131758630E+03  0.36809234370E+03  0.17300000000E+03 0. -1.
         -6    1    1    2    0  503 -0.64817646707E+02 -0.66655882153E+02 -0.22951383565E+03  0.30207604127E+03  0.17300000000E+03 0. -1.
<mgrwt>
<rscale>  2 0.19640095E+03</rscale>
<asrwt>0</asrwt>
<pdfrwt beam="1">  1       21 0.57844010E-01 0.19640095E+03</pdfrwt>
<pdfrwt beam="2">  1       21 0.45258818E-01 0.19640095E+03</pdfrwt>
<totfact> 0.13091903E+04</totfact>
</mgrwt>
</event>
<event>
 4    1  0.3973261E+000  0.2808704E+03  0.7546771E-02  0.1095214E+00
         21   -1    0    0  503  502  0.00000000000E+00  0.00000000000E+00  0.14853224863E+03  0.14853224863E+03  0.00000000000E+00 0. -1.
         21   -1    0    0  501  503 -0.00000000000E+00 -0.00000000000E+00 -0.69052230195E+03  0.69052230195E+03  0.00000000000E+00 0.  1.
          6    1    1    2  501    0  0.16339401761E+03  0.14920320479E+03 -0.47256270914E+03  0.54973058436E+03  0.17300000000E+03 0.  1.
         -6    1    1    2    0  502 -0.16339401761E+03 -0.14920320479E+03 -0.69427344174E+02  0.28932396622E+03  0.17300000000E+03 0. -1.
<mgrwt>
<rscale>  2 0.28087044E+03</rscale>
<asrwt>0</asrwt>
<pdfrwt beam="1">  1       21 0.22851115E-01 0.28087044E+03</pdfrwt>
<pdfrwt beam="2">  1       21 0.10623420E+00 0.28087044E+03</pdfrwt>
<totfact> 0.12123577E+04</totfact>
</mgrwt>
</event>
<event>
 4    1  0.3973261E+000  0.1737173E+03  0.7546771E-02  0.1174026E+00
         21   -1    0    0  503  502  0.00000000000E+00  0.00000000000E+00  0.50276657873E+02  0.50276657873E+02  0.00000000000E+00 0. -1.
         21   -1    0    0  501  503 -0.00000000000E+00 -0.00000000000E+00 -0.61681304399E+03  0.61681304399E+03  0.00000000000E+00 0. -1.
          6    1    1    2  501    0 -0.67018290408E+01  0.14275281193E+02 -0.33795381752E+03  0.37998747472E+03  0.17300000000E+03 0.  1.
         -6    1    1    2    0  502  0.67018290408E+01 -0.14275281193E+02 -0.22858256860E+03  0.28710222715E+03  0.17300000000E+03 0.  1.
<mgrwt>
<rscale>  2 0.17371729E+03</rscale>
<asrwt>0</asrwt>
<pdfrwt beam="1">  1       21 0.77348706E-02 0.17371729E+03</pdfrwt>
<pdfrwt beam="2">  1       21 0.94894312E-01 0.17371729E+03</pdfrwt>
<totfact> 0.11905505E+05</totfact>
</mgrwt>
</event>
<event>
 4    1  0.3973261E+000  0.2609383E+03  0.7546771E-02  0.1106581E+00
         21   -1    0    0  503  502  0.00000000000E+00  0.00000000000E+00  0.72038370283E+02  0.72038370283E+02  0.00000000000E+00 0. -1.
         21   -1    0    0  501  503 -0.00000000000E+00 -0.00000000000E+00 -0.18530747628E+04  0.18530747628E+04  0.00000000000E+00 0. -1.
          6    1    1    2  501    0  0.19510441594E+03 -0.96997326113E+01 -0.15642683905E+04  0.15858828505E+04  0.17300000000E+03 0. -1.
         -6    1    1    2    0  502 -0.19510441594E+03  0.96997326113E+01 -0.21676800200E+03  0.33923028258E+03  0.17300000000E+03 0. -1.
<mgrwt>
<rscale>  2 0.26093834E+03</rscale>
<asrwt>0</asrwt>
<pdfrwt beam="1">  1       21 0.11082826E-01 0.26093834E+03</pdfrwt>
<pdfrwt beam="2">  1       21 0.28508842E+00 0.26093834E+03</pdfrwt>
<totfact> 0.26214348E+03</totfact>
</mgrwt>
</event>
<event>
 4    1  0.3973261E+000  0.2111956E+03  0.7546771E-02  0.1140623E+00
         21   -1    0    0  501  502  0.00000000000E+00  0.00000000000E+00  0.17179545250E+03  0.17179545250E+03  0.00000000000E+00 0. -1.
         21   -1    0    0  502  503 -0.00000000000E+00 -0.00000000000E+00 -0.47796215015E+03  0.47796215015E+03  0.00000000000E+00 0. -1.
          6    1    1    2  501    0  0.11675437590E+03 -0.32295161238E+02  0.66491039438E+02  0.22141504027E+03  0.17300000000E+03 0. -1.
         -6    1    1    2    0  503 -0.11675437590E+03  0.32295161238E+02 -0.37265773710E+03  0.42834256238E+03  0.17300000000E+03 0. -1.
<mgrwt>
<rscale>  2 0.21119555E+03</rscale>
<asrwt>0</asrwt>
<pdfrwt beam="1">  1       21 0.26430070E-01 0.21119555E+03</pdfrwt>
<pdfrwt beam="2">  1       21 0.73532638E-01 0.21119555E+03</pdfrwt>
<totfact> 0.22379643E+04</totfact>
</mgrwt>
</event>
<event>
 4    1  0.3973261E+000  0.1855814E+03  0.7546771E-02  0.1162508E+00
         21   -1    0    0  503  502  0.00000000000E+00  0.00000000000E+00  0.24563467352E+02  0.24563467352E+02  0.00000000000E+00 0.  1.
         21   -1    0    0  501  503 -0.00000000000E+00 -0.00000000000E+00 -0.14029112690E+04  0.14029112690E+04  0.00000000000E+00 0. -1.
          6    1    1    2  501    0  0.15676037622E+02  0.65312560373E+02 -0.70632398911E+03  0.73029723147E+03  0.17300000000E+03 0. -1.
         -6    1    1    2    0  502 -0.15676037622E+02 -0.65312560373E+02 -0.67202381252E+03  0.69717750487E+03  0.17300000000E+03 0.  1.
<mgrwt>
<rscale>  2 0.18558143E+03</rscale>
<asrwt>0</asrwt>
<pdfrwt beam="1">  1       21 0.37789943E-02 0.18558143E+03</pdfrwt>
<pdfrwt beam="2">  1       21 0.21583254E+00 0.18558143E+03</pdfrwt>
<totfact> 0.46224476E+04</totfact>
</mgrwt>
</event>
<event>
 4    1  0.3973261E+000  0.1994552E+03  0.7546771E-02  0.1150199E+00
         21   -1    0    0  501  502  0.00000000000E+00  0.00000000000E+00  0.10096913834E+03  0.10096913834E+03  0.00000000000E+00 0.  1.
         21   -1    0    0  502  503 -0.00000000000E+00 -0.00000000000E+00 -0.71220959283E+03  0.71220959283E+03  0.00000000000E+00 0. -1.
          6    1    1    2  501    0 -0.21345699490E+02  0.96941984783E+02 -0.33848018288E+02  0.20230688481E+03  0.17300000000E+03 0.  1.
         -6    1    1    2    0  503  0.21345699490E+02 -0.96941984783E+02 -0.57739243620E+03  0.61087184637E+03  0.17300000000E+03 0. -1.
<mgrwt>
<rscale>  2 0.19945523E+03</rscale>
<asrwt>0</asrwt>
<pdfrwt beam="1">  1       21 0.15533714E-01 0.19945523E+03</pdfrwt>
<pdfrwt beam="2">  1       21 0.10957070E+00 0.19945523E+03</pdfrwt>
<totfact> 0.24166118E+04</totfact>
</mgrwt>
</event>
<event>
 4    1  0.3973261E+000  0.2164469E+03  0.7546771E-02  0.1136560E+00
         21   -1    0    0  501  502  0.00000000000E+00  0.00000000000E+00  0.69499076123E+02  0.69499076123E+02  0.00000000000E+00 0. -1.
         21   -1    0    0  502  503 -0.00000000000E+00 -0.00000000000E+00 -0.87311024444E+03  0.87311024444E+03  0.00000000000E+00 0.  1.
          6    1    1    2  501    0  0.68816895199E+02 -0.11038339343E+03 -0.17679342567E+03  0.27947302906E+03  0.17300000000E+03 0. -1.
         -6    1    1    2    0  503 -0.68816895199E+02  0.11038339343E+03 -0.62681774265E+03  0.66313629151E+03  0.17300000000E+03 0.  1.
<mgrwt>
<rscale>  2 0.21644690E+03</rscale>
<asrwt>0</asrwt>
<pdfrwt beam="1">  1       21 0.10692166E-01 0.21644690E+03</pdfrwt>
<pdfrwt beam="2">  1       21 0.13432465E+00 0.21644690E+03</pdfrwt>
<totfact> 0.28272169E+04</totfact>
</mgrwt>
</event>
<event>
 4    1  0.3973261E+000  0.2029366E+03  0.7546771E-02  0.1147285E+00
         21   -1    0    0  501  502  0.00000000000E+00  0.00000000000E+00  0.44500175600E+03  0.44500175600E+03  0.00000000000E+00 0.  1.
         21   -1    0    0  502  503 -0.00000000000E+00 -0.00000000000E+00 -0.96032493908E+02  0.96032493908E+02  0.00000000000E+00 0.  1.
          6    1    1    2  501    0  0.97504479258E+02  0.41798915695E+02  0.22602653709E+03  0.30376186116E+03  0.17300000000E+03 0.  1.
         -6    1    1    2    0  503 -0.97504479258E+02 -0.41798915695E+02  0.12294272500E+03  0.23727238874E+03  0.17300000000E+03 0.  1.
<mgrwt>
<rscale>  2 0.20293662E+03</rscale>
<asrwt>0</asrwt>
<pdfrwt beam="1">  1       21 0.68461807E-01 0.20293662E+03</pdfrwt>
<pdfrwt beam="2">  1       21 0.14774230E-01 0.20293662E+03</pdfrwt>
<totfact> 0.78109098E+04</totfact>
</mgrwt>
</event>
<event>
 4    1  0.3973261E+000  0.2709387E+03  0.7546771E-02  0.1100744E+00
         21   -1    0    0  503  502  0.00000000000E+00  0.00000000000E+00  0.63783825265E+03  0.63783825265E+03  0.00000000000E+00 0. -1.
         21   -1    0    0  501  503 -0.00000000000E+00 -0.00000000000E+00 -0.11681699539E+03  0.11681699539E+03  0.00000000000E+00 0. -1.
          6    1    1    2  501    0 -0.20563480581E+03  0.34541575714E+02  0.21461087875E+03  0.34563799428E+03  0.17300000000E+03 0. -1.
         -6    1    1    2    0  502  0.20563480581E+03 -0.34541575714E+02  0.30641037850E+03  0.40901725375E+03  0.17300000000E+03 0. -1.
<mgrwt>
<rscale>  2 0.27093873E+03</rscale>
<asrwt>0</asrwt>
<pdfrwt beam="1">  1       21 0.98128960E-01 0.27093873E+03</pdfrwt>
<pdfrwt beam="2">  1       21 0.17971846E-01 0.27093873E+03</pdfrwt>
<totfact> 0.23200136E+04</totfact>
</mgrwt>
</event>
<event>
 4    1  0.3973261E+000  0.2563803E+03  0.7546771E-02  0.1109338E+00
         21   -1    0    0  503  502  0.00000000000E+00  0.00000000000E+00  0.69101900693E+03  0.69101900693E+03  0.00000000000E+00 0. -1.
         21   -1    0    0  501  503 -0.00000000000E+00 -0.00000000000E+00 -0.95750111762E+02  0.95750111762E+02  0.00000000000E+00 0.  1.
          6    1    1    2  501    0  0.16975495152E+03  0.83577034364E+02  0.26576393598E+03  0.36927135538E+03  0.17300000000E+03 0. -1.
         -6    1    1    2    0  502 -0.16975495152E+03 -0.83577034364E+02  0.32950495919E+03  0.41749776331E+03  0.17300000000E+03 0.  1.
<mgrwt>
<rscale>  2 0.25638031E+03</rscale>
<asrwt>0</asrwt>
<pdfrwt beam="1">  1       21 0.10631061E+00 0.25638031E+03</pdfrwt>
<pdfrwt beam="2">  1       21 0.14730787E-01 0.25638031E+03</pdfrwt>
<totfact> 0.27801998E+04</totfact>
</mgrwt>
</event>
<event>
 4    1  0.3973261E+000  0.1905100E+03  0.7546771E-02  0.1158002E+00
         21   -1    0    0  503  502  0.00000000000E+00  0.00000000000E+00  0.26173786048E+03  0.26173786048E+03  0.00000000000E+00 0.  1.
         21   -1    0    0  501  503 -0.00000000000E+00 -0.00000000000E+00 -0.64933493897E+03  0.64933493897E+03  0.00000000000E+00 0. -1.
          6    1    1    2  501    0 -0.47771264653E+02  0.63898023752E+02 -0.59777733346E+03  0.62740082209E+03  0.17300000000E+03 0. -1.
         -6    1    1    2    0  502  0.47771264653E+02 -0.63898023752E+02  0.21018025496E+03  0.28367197736E+03  0.17300000000E+03 0.  1.
<mgrwt>
<rscale>  2 0.19050998E+03</rscale>
<asrwt>0</asrwt>
<pdfrwt beam="1">  1       21 0.40267364E-01 0.19050998E+03</pdfrwt>
<pdfrwt beam="2">  1       21 0.99897682E-01 0.19050998E+03</pdfrwt>
<totfact> 0.48993423E+03</totfact>
</mgrwt>
</event>
<event>
 4    1  0.3973261E+000  0.2010820E+03  0.7546771E-02  0.1148829E+00
         21   -1    0    0  501  502  0.00000000000E+00  0.00000000000E+00  0.14459431672E+04  0.14459431672E+04  0.00000000000E+00 0. -1.
         21   -1    0    0  502  503 -0.00000000000E+00 -0.00000000000E+00 -0.46307912837E+02  0.46307912837E+02  0.00000000000E+00 0.  1.
          6    1    1    2  501    0 -0.71428983493E+01 -0.10224465534E+03  0.11694232336E+04  0.11865853066E+04  0.17300000000E+03 0. -1.
         -6    1    1    2    0  503  0.71428983493E+01  0.10224465534E+03  0.23021202072E+03  0.30566577340E+03  0.17300000000E+03 0.  1.
<mgrwt>
<rscale>  2 0.20108205E+03</rscale>
<asrwt>0</asrwt>
<pdfrwt beam="1">  1       21 0.22245276E+00 0.20108205E+03</pdfrwt>
<pdfrwt beam="2">  1       21 0.71242954E-02 0.20108205E+03</pdfrwt>
<totfact> 0.14158379E+04</totfact>
</mgrwt>
</event>
<event>
 4    1  0.3973261E+000  0.2111026E+03  0.7546771E-02  0.1140696E+00
         21   -1    0    0  503  502  0.00000000000E+00  0.00000000000E+00  0.21695060616E+03  0.21695060616E+03  0.00000000000E+00 0. -1.
         21   -1    0    0  501  503 -0.00000000000E+00 -0.00000000000E+00 -0.38180100117E+03  0.38180100117E+03  0.00000000000E+00 0.  1.
          6    1    1    2  501    0  0.69276310255E+01 -0.12077796213E+03 -0.28591077370E+03  0.35540016703E+03  0.17300000000E+03 0.  1.
         -6    1    1    2    0  502 -0.69276310255E+01  0.12077796213E+03  0.12106037869E+03  0.24335144030E+03  0.17300000000E+03 0. -1.
<mgrwt>
<rscale>  2 0.21110260E+03</rscale>
<asrwt>0</asrwt>
<pdfrwt beam="1">  1       21 0.33377016E-01 0.21110260E+03</pdfrwt>
<pdfrwt beam="2">  1       21 0.58738616E-01 0.21110260E+03</pdfrwt>
<totfact> 0.23196028E+04</totfact>
</mgrwt>
</event>
<event>
 4    1  0.3973261E+000  0.2161464E+03  0.7546771E-02  0.1136789E+00
         21   -1    0    0  501  502  0.00000000000E+00  0.00000000000E+00  0.83971376255E+02  0.83971376255E+02  0.00000000000E+00 0. -1.
         21   -1    0    0  502  503 -0.00000000000E+00 -0.00000000000E+00 -0.58082333329E+03  0.58082333329E+03  0.00000000000E+00 0.  1.
          6    1    1    2  501    0 -0.30461535758E+02 -0.12594581691E+03 -0.18022445782E+03  0.28142513952E+03  0.17300000000E+03 0.  1.
         -6    1    1    2    0  503  0.30461535758E+02  0.12594581691E+03 -0.31662749922E+03  0.38336957003E+03  0.17300000000E+03 0. -1.
<mgrwt>
<rscale>  2 0.21614637E+03</rscale>
<asrwt>0</asrwt>
<pdfrwt beam="1">  1       21 0.12918673E-01 0.21614637E+03</pdfrwt>
<pdfrwt beam="2">  1       21 0.89357434E-01 0.21614637E+03</pdfrwt>
<totfact> 0.54288876E+04</totfact>
</mgrwt>
</event>
<event>
 4    1  0.3973261E+000  0.4110927E+03  0.7546771E-02  0.1040005E+00
         21   -1    0    0  501  502  0.00000000000E+00  0.00000000000E+00  0.25948540086E+03  0.25948540086E+03  0.00000000000E+00 0. -1.
         21   -1    0    0  502  503 -0.00000000000E+00 -0.00000000000E+00 -0.75718990066E+03  0.75718990066E+03  0.00000000000E+00 0.  1.
          6    1    1    2  501    0 -0.81109724733E+02 -0.36399091087E+03 -0.58734811598E+02  0.41526732202E+03  0.17300000000E+03 0. -1.
         -6    1    1    2    0  503  0.81109724733E+02  0.36399091087E+03 -0.43896968821E+03  0.60140797950E+03  0.17300000000E+03 0.  1.
<mgrwt>
<rscale>  2 0.41109265E+03</rscale>
<asrwt>0</asrwt>
<pdfrwt beam="1">  1       21 0.39920830E-01 0.41109265E+03</pdfrwt>
<pdfrwt beam="2">  1       21 0.11649076E+00 0.41109265E+03</pdfrwt>
<totfact> 0.30255567E+03</totfact>
</mgrwt>
</event>
<event>
 4    1  0.3973261E+000  0.1875738E+03  0.7546771E-02  0.1160668E+00
         21   -1    0    0  503  502  0.00000000000E+00  0.00000000000E+00  0.10397284879E+04  0.10397284879E+04  0.00000000000E+00 0.  1.
         21   -1    0    0  501  503 -0.00000000000E+00 -0.00000000000E+00 -0.15956481447E+03  0.15956481447E+03  0.00000000000E+00 0.  1.
          6    1    1    2  501    0  0.56763016116E+02  0.45087447515E+02 -0.92195737968E+02  0.20900710998E+03  0.17300000000E+03 0.  1.
         -6    1    1    2    0  502 -0.56763016116E+02 -0.45087447515E+02  0.97235941144E+03  0.99028619244E+03  0.17300000000E+03 0.  1.
<mgrwt>
<rscale>  2 0.18757377E+03</rscale>
<asrwt>0</asrwt>
<pdfrwt beam="1">  1       21 0.15995823E+00 0.18757377E+03</pdfrwt>
<pdfrwt beam="2">  1       21 0.24548434E-01 0.18757377E+03</pdfrwt>
<totfact> 0.39680126E+03</totfact>
</mgrwt>
</event>
<event>
 4    1  0.3973261E+000  0.2254474E+03  0.7546771E-02  0.1129886E+00
         21   -1    0    0  503  502  0.00000000000E+00  0.00000000000E+00  0.19920956851E+03  0.19920956851E+03  0.00000000000E+00 0. -1.
         21   -1    0    0  501  503 -0.00000000000E+00 -0.00000000000E+00 -0.30965235028E+03  0.30965235028E+03  0.00000000000E+00 0. -1.
          6    1    1    2  501    0  0.21714727423E+02 -0.14291958636E+03 -0.16197339929E+03  0.27760028752E+03  0.17300000000E+03 0. -1.
         -6    1    1    2    0  502 -0.21714727423E+02  0.14291958636E+03  0.51530617523E+02  0.23126163126E+03  0.17300000000E+03 0. -1.
<mgrwt>
<rscale>  2 0.22544742E+03</rscale>
<asrwt>0</asrwt>
<pdfrwt beam="1">  1       21 0.30647626E-01 0.22544742E+03</pdfrwt>
<pdfrwt beam="2">  1       21 0.47638823E-01 0.22544742E+03</pdfrwt>
<totfact> 0.42381806E+04</totfact>
</mgrwt>
</event>
<event>
 4    1  0.3973261E+000  0.2100121E+03  0.7546771E-02  0.1141556E+00
         21   -1    0    0  501  502  0.00000000000E+00  0.00000000000E+00  0.43446907300E+03  0.43446907300E+03  0.00000000000E+00 0. -1.
         21   -1    0    0  502  503 -0.00000000000E+00 -0.00000000000E+00 -0.36459788785E+03  0.36459788785E+03  0.00000000000E+00 0. -1.
          6    1    1    2  501    0  0.11588445626E+03  0.27328645963E+02  0.37432050350E+03  0.42920962412E+03  0.17300000000E+03 0. -1.
         -6    1    1    2    0  503 -0.11588445626E+03 -0.27328645963E+02 -0.30444931835E+03  0.36985733674E+03  0.17300000000E+03 0. -1.
<mgrwt>
<rscale>  2 0.21001205E+03</rscale>
<asrwt>0</asrwt>
<pdfrwt beam="1">  1       21 0.66841395E-01 0.21001205E+03</pdfrwt>
<pdfrwt beam="2">  1       21 0.56091983E-01 0.21001205E+03</pdfrwt>
<totfact> 0.60566241E+03</totfact>
</mgrwt>
</event>
<event>
 4    1  0.3973261E+000  0.1932103E+03  0.7546771E-02  0.1155597E+00
         21   -1    0    0  501  502  0.00000000000E+00  0.00000000000E+00  0.17227898115E+03  0.17227898115E+03  0.00000000000E+00 0.  1.
         21   -1    0    0  502  503 -0.00000000000E+00 -0.00000000000E+00 -0.22132092608E+03  0.22132092608E+03  0.00000000000E+00 0.  1.
          6    1    1    2  501    0 -0.23232807350E+02  0.82833897561E+02  0.39627301289E+01  0.19325092795E+03  0.17300000000E+03 0.  1.
         -6    1    1    2    0  503  0.23232807350E+02 -0.82833897561E+02 -0.53004675054E+02  0.20034897928E+03  0.17300000000E+03 0.  1.
<mgrwt>
<rscale>  2 0.19321029E+03</rscale>
<asrwt>0</asrwt>
<pdfrwt beam="1">  1       21 0.26504459E-01 0.19321029E+03</pdfrwt>
<pdfrwt beam="2">  1       21 0.34049373E-01 0.19321029E+03</pdfrwt>
<totfact> 0.11253804E+05</totfact>
</mgrwt>
</event>
<event>
 4    1  0.3973261E+000  0.1989379E+03  0.7546771E-02  0.1150638E+00
         21   -1    0    0  501  502  0.00000000000E+00  0.00000000000E+00  0.17286265868E+03  0.17286265868E+03  0.00000000000E+00 0.  1.
         21   -1    0    0  502  503 -0.00000000000E+00 -0.00000000000E+00 -0.37261807775E+03  0.37261807775E+03  0.00000000000E+00 0.  1.
          6    1    1    2  501    0  0.79772911613E+02  0.57302307452E+02  0.69479287530E+02  0.21072171996E+03  0.17300000000E+03 0.  1.
         -6    1    1    2    0  503 -0.79772911613E+02 -0.57302307452E+02 -0.26923470660E+03  0.33475901647E+03  0.17300000000E+03 0.  1.
<mgrwt>
<rscale>  2 0.19893786E+03</rscale>
<asrwt>0</asrwt>
<pdfrwt beam="1">  1       21 0.26594255E-01 0.19893786E+03</pdfrwt>
<pdfrwt beam="2">  1       21 0.57325858E-01 0.19893786E+03</pdfrwt>
<totfact> 0.38311655E+04</totfact>
</mgrwt>
</event>
<event>
 4    1  0.3973261E+000  0.1991171E+03  0.7546771E-02  0.1150486E+00
         21   -1    0    0  501  502  0.00000000000E+00  0.00000000000E+00  0.97258170087E+02  0.97258170087E+02  0.00000000000E+00 0.  1.
         21   -1    0    0  502  503 -0.00000000000E+00 -0.00000000000E+00 -0.46520278151E+03  0.46520278151E+03  0.00000000000E+00 0.  1.
          6    1    1    2  501    0 -0.73038521433E+02  0.66211863830E+02 -0.85057554389E+02  0.21652349545E+03  0.17300000000E+03 0.  1.
         -6    1    1    2    0  503  0.73038521433E+02 -0.66211863830E+02 -0.28288705704E+03  0.34593745614E+03  0.17300000000E+03 0.  1.
<mgrwt>
<rscale>  2 0.19911714E+03</rscale>
<asrwt>0</asrwt>
<pdfrwt beam="1">  1       21 0.14962796E-01 0.19911714E+03</pdfrwt>
<pdfrwt beam="2">  1       21 0.71569658E-01 0.19911714E+03</pdfrwt>
<totfact> 0.69320067E+04</totfact>
</mgrwt>
</event>
<event>
 4    1  0.3973261E+000  0.1892853E+03  0.7546771E-02  0.1159108E+00
         21   -1    0    0  503  502  0.00000000000E+00  0.00000000000E+00  0.28193225295E+02  0.28193225295E+02  0.00000000000E+00 0. -1.
         21   -1    0    0  501  503 -0.00000000000E+00 -0.00000000000E+00 -0.20093223410E+04  0.20093223410E+04  0.00000000000E+00 0. -1.
          6    1    1    2  501    0  0.62722563522E+02 -0.44337191448E+02 -0.16081797688E+04  0.16192810366E+04  0.17300000000E+03 0. -1.
         -6    1    1    2    0  502 -0.62722563522E+02  0.44337191448E+02 -0.37294934687E+03  0.41823452973E+03  0.17300000000E+03 0. -1.
<mgrwt>
<rscale>  2 0.18928525E+03</rscale>
<asrwt>0</asrwt>
<pdfrwt beam="1">  1       21 0.43374174E-02 0.18928525E+03</pdfrwt>
<pdfrwt beam="2">  1       21 0.30912665E+00 0.18928525E+03</pdfrwt>
<totfact> 0.10382252E+04</totfact>
</mgrwt>
</event>
<event>
 4    1  0.3973261E+000  0.2640995E+03  0.7546771E-02  0.1104705E+00
         21   -1    0    0  501  502  0.00000000000E+00  0.00000000000E+00  0.12623835245E+03  0.12623835245E+03  0.00000000000E+00 0.  1.
         21   -1    0    0  502  503 -0.00000000000E+00 -0.00000000000E+00 -0.61364232783E+03  0.61364232783E+03  0.00000000000E+00 0. -1.
          6    1    1    2  501    0 -0.50418774261E+02 -0.19307382877E+03 -0.12694241236E+03  0.29302377414E+03  0.17300000000E+03 0.  1.
         -6    1    1    2    0  503  0.50418774261E+02  0.19307382877E+03 -0.36046156302E+03  0.44685690614E+03  0.17300000000E+03 0. -1.
<mgrwt>
<rscale>  2 0.26409952E+03</rscale>
<asrwt>0</asrwt>
<pdfrwt beam="1">  1       21 0.19421285E-01 0.26409952E+03</pdfrwt>
<pdfrwt beam="2">  1       21 0.94406510E-01 0.26409952E+03</pdfrwt>
<totfact> 0.22062800E+04</totfact>
</mgrwt>
</event>
<event>
 4    1  0.3973261E+000  0.3455113E+03  0.7546771E-02  0.1064473E+00
         21   -1    0    0  503  502  0.00000000000E+00  0.00000000000E+00  0.21967644688E+03  0.21967644688E+03  0.00000000000E+00 0. -1.
         21   -1    0    0  501  503 -0.00000000000E+00 -0.00000000000E+00 -0.54875485012E+03  0.54875485012E+03  0.00000000000E+00 0.  1.
          6    1    1    2  501    0  0.15999563073E+03 -0.25268650192E+03 -0.20239825301E+03  0.40042867396E+03  0.17300000000E+03 0.  1.
         -6    1    1    2    0  502 -0.15999563073E+03  0.25268650192E+03 -0.12668015023E+03  0.36800262305E+03  0.17300000000E+03 0. -1.
<mgrwt>
<rscale>  2 0.34551132E+03</rscale>
<asrwt>0</asrwt>
<pdfrwt beam="1">  1       21 0.33796377E-01 0.34551132E+03</pdfrwt>
<pdfrwt beam="2">  1       21 0.84423823E-01 0.34551132E+03</pdfrwt>
<totfact> 0.94676707E+03</totfact>
</mgrwt>
</event>
<event>
 4    1  0.3973261E+000  0.1887910E+03  0.7546771E-02  0.1159556E+00
         21   -1    0    0  501  502  0.00000000000E+00  0.00000000000E+00  0.84776813176E+03  0.84776813176E+03  0.00000000000E+00 0. -1.
         21   -1    0    0  502  503 -0.00000000000E+00 -0.00000000000E+00 -0.19250940898E+03  0.19250940898E+03  0.00000000000E+00 0.  1.
          6    1    1    2  501    0 -0.49778358757E+02 -0.56878296355E+02  0.78747725233E+03  0.80979160809E+03  0.17300000000E+03 0. -1.
         -6    1    1    2    0  503  0.49778358757E+02  0.56878296355E+02 -0.13221852955E+03  0.23048593266E+03  0.17300000000E+03 0.  1.
<mgrwt>
<rscale>  2 0.18879096E+03</rscale>
<asrwt>0</asrwt>
<pdfrwt beam="1">  1       21 0.13042586E+00 0.18879096E+03</pdfrwt>
<pdfrwt beam="2">  1       21 0.29616833E-01 0.18879096E+03</pdfrwt>
<totfact> 0.46992231E+03</totfact>
</mgrwt>
</event>
<event>
 4    1  0.3973261E+000  0.1863831E+03  0.7546771E-02  0.1161765E+00
         21   -1    0    0  503  502  0.00000000000E+00  0.00000000000E+00  0.14458091428E+03  0.14458091428E+03  0.00000000000E+00 0. -1.
         21   -1    0    0  501  503 -0.00000000000E+00 -0.00000000000E+00 -0.28981422284E+03  0.28981422284E+03  0.00000000000E+00 0. -1.
          6    1    1    2  501    0  0.58447952122E+02 -0.37329659081E+02 -0.16241849676E+03  0.24722142837E+03  0.17300000000E+03 0. -1.
         -6    1    1    2    0  502 -0.58447952122E+02  0.37329659081E+02  0.17185188192E+02  0.18717370875E+03  0.17300000000E+03 0. -1.
<mgrwt>
<rscale>  2 0.18638312E+03</rscale>
<asrwt>0</asrwt>
<pdfrwt beam="1">  1       21 0.22243218E-01 0.18638312E+03</pdfrwt>
<pdfrwt beam="2">  1       21 0.44586803E-01 0.18638312E+03</pdfrwt>
<totfact> 0.91528155E+04</totfact>
</mgrwt>
</event>
<event>
 4    1  0.3973261E+000  0.1779071E+03  0.7546771E-02  0.1169844E+00
         21   -1    0    0  503  502  0.00000000000E+00  0.00000000000E+00  0.22501741985E+03  0.22501741985E+03  0.00000000000E+00 0. -1.
         21   -1    0    0  501  503 -0.00000000000E+00 -0.00000000000E+00 -0.14361317956E+03  0.14361317956E+03  0.00000000000E+00 0. -1.
          6    1    1    2  501    0  0.22899649664E+02  0.34605376601E+02  0.14270907854E+02  0.17847852772E+03  0.17300000000E+03 0. -1.
         -6    1    1    2    0  502 -0.22899649664E+02 -0.34605376601E+02  0.67133332432E+02  0.19015207169E+03  0.17300000000E+03 0. -1.
<mgrwt>
<rscale>  2 0.17790707E+03</rscale>
<asrwt>0</asrwt>
<pdfrwt beam="1">  1       21 0.34618065E-01 0.17790707E+03</pdfrwt>
<pdfrwt beam="2">  1       21 0.22094335E-01 0.17790707E+03</pdfrwt>
<totfact> 0.15472283E+05</totfact>
</mgrwt>
</event>
<event>
 4    1  0.3973261E+000  0.2144338E+03  0.7546771E-02  0.1138102E+00
         21   -1    0    0  501  502  0.00000000000E+00  0.00000000000E+00  0.10979297057E+03  0.10979297057E+03  0.00000000000E+00 0.  1.
         21   -1    0    0  502  503 -0.00000000000E+00 -0.00000000000E+00 -0.42021179977E+03  0.42021179977E+03  0.00000000000E+00 0. -1.
          6    1    1    2  501    0 -0.94473782504E+02 -0.84424976616E+02 -0.13987760068E+03  0.25602268538E+03  0.17300000000E+03 0. -1.
         -6    1    1    2    0  503  0.94473782504E+02  0.84424976616E+02 -0.17054122852E+03  0.27398208496E+03  0.17300000000E+03 0. -1.
<mgrwt>
<rscale>  2 0.21443384E+03</rscale>
<asrwt>0</asrwt>
<pdfrwt beam="1">  1       21 0.16891226E-01 0.21443384E+03</pdfrwt>
<pdfrwt beam="2">  1       21 0.64647970E-01 0.21443384E+03</pdfrwt>
<totfact> 0.68944646E+04</totfact>
</mgrwt>
</event>
<event>
 4    1  0.3973261E+000  0.2195579E+03  0.7546771E-02  0.1134213E+00
         21   -1    0    0  503  502  0.00000000000E+00  0.00000000000E+00  0.25867710740E+03  0.25867710740E+03  0.00000000000E+00 0. -1.
         21   -1    0    0  501  503 -0.00000000000E+00 -0.00000000000E+00 -0.22407566017E+03  0.22407566017E+03  0.00000000000E+00 0.  1.
          6    1    1    2  501    0 -0.76376122916E+02  0.11154975328E+03 -0.81734477003E+02  0.23427800652E+03  0.17300000000E+03 0.  1.
         -6    1    1    2    0  502  0.76376122916E+02 -0.11154975328E+03  0.11633592423E+03  0.24847476104E+03  0.17300000000E+03 0. -1.
<mgrwt>
<rscale>  2 0.21955787E+03</rscale>
<asrwt>0</asrwt>
<pdfrwt beam="1">  1       21 0.39796478E-01 0.21955787E+03</pdfrwt>
<pdfrwt beam="2">  1       21 0.34473178E-01 0.21955787E+03</pdfrwt>
<totfact> 0.48725975E+04</totfact>
</mgrwt>
</event>
<event>
 4    1  0.3973261E+000  0.2232087E+03  0.7546771E-02  0.1131513E+00
         21   -1    0    0  501  502  0.00000000000E+00  0.00000000000E+00  0.15136377446E+04  0.15136377446E+04  0.00000000000E+00 0. -1.
         21   -1    0    0  502  503 -0.00000000000E+00 -0.00000000000E+00 -0.32927571775E+02  0.32927571775E+02  0.00000000000E+00 0. -1.
          6    1    1    2  501    0  0.76796193929E+02 -0.11830240198E+03  0.75517323217E+03  0.78746982437E+03  0.17300000000E+03 0. -1.
         -6    1    1    2    0  503 -0.76796193929E+02  0.11830240198E+03  0.72553694061E+03  0.75909549196E+03  0.17300000000E+03 0. -1.
<mgrwt>
<rscale>  2 0.22320868E+03</rscale>
<asrwt>0</asrwt>
<pdfrwt beam="1">  1       21 0.23286729E+00 0.22320868E+03</pdfrwt>
<pdfrwt beam="2">  1       21 0.50657815E-02 0.22320868E+03</pdfrwt>
<totfact> 0.21586642E+04</totfact>
</mgrwt>
</event>
<event>
 4    1  0.3973261E+000  0.3144864E+03  0.7546771E-02  0.1078215E+00
         21   -1    0    0  503  502  0.00000000000E+00  0.00000000000E+00  0.13086458615E+04  0.13086458615E+04  0.00000000000E+00 0.  1.
         21   -1    0    0  501  503 -0.00000000000E+00 -0.00000000000E+00 -0.99110652839E+02  0.99110652839E+02  0.00000000000E+00 0. -1.
          6    1    1    2  501    0 -0.25075197357E+03  0.78077612022E+02  0.26176676327E+03  0.40917417331E+03  0.17300000000E+03 0. -1.
         -6    1    1    2    0  502  0.25075197357E+03 -0.78077612022E+02  0.94776844535E+03  0.99858234099E+03  0.17300000000E+03 0.  1.
<mgrwt>
<rscale>  2 0.31448635E+03</rscale>
<asrwt>0</asrwt>
<pdfrwt beam="1">  1       21 0.20133012E+00 0.31448635E+03</pdfrwt>
<pdfrwt beam="2">  1       21 0.15247794E-01 0.31448635E+03</pdfrwt>
<totfact> 0.45826708E+03</totfact>
</mgrwt>
</event>
<event>
 4    1  0.3973261E+000  0.3279896E+03  0.7546771E-02  0.1072030E+00
         21   -1    0    0  501  502  0.00000000000E+00  0.00000000000E+00  0.24628429525E+03  0.24628429525E+03  0.00000000000E+00 0.  1.
         21   -1    0    0  502  503 -0.00000000000E+00 -0.00000000000E+00 -0.43680989927E+03  0.43680989927E+03  0.00000000000E+00 0. -1.
          6    1    1    2  501    0  0.76234347728E+02 -0.26802326510E+03 -0.96832333818E+02  0.34198486411E+03  0.17300000000E+03 0. -1.
         -6    1    1    2    0  503 -0.76234347728E+02  0.26802326510E+03 -0.93693270205E+02  0.34110933041E+03  0.17300000000E+03 0.  1.
<mgrwt>
<rscale>  2 0.32798955E+03</rscale>
<asrwt>0</asrwt>
<pdfrwt beam="1">  1       21 0.37889892E-01 0.32798955E+03</pdfrwt>
<pdfrwt beam="2">  1       21 0.67201523E-01 0.32798955E+03</pdfrwt>
<totfact> 0.12701383E+04</totfact>
</mgrwt>
</event>
<event>
 4    1  0.3973261E+000  0.1780388E+03  0.7546771E-02  0.1169715E+00
         21   -1    0    0  501  502  0.00000000000E+00  0.00000000000E+00  0.26076374939E+03  0.26076374939E+03  0.00000000000E+00 0. -1.
         21   -1    0    0  502  503 -0.00000000000E+00 -0.00000000000E+00 -0.15906814804E+03  0.15906814804E+03  0.00000000000E+00 0. -1.
          6    1    1    2  501    0  0.37260975866E+02 -0.19505045901E+02  0.15278443048E+03  0.23460799077E+03  0.17300000000E+03 0. -1.
         -6    1    1    2    0  503 -0.37260975866E+02  0.19505045901E+02 -0.51088829129E+02  0.18522390666E+03  0.17300000000E+03 0. -1.
<mgrwt>
<rscale>  2 0.17803884E+03</rscale>
<asrwt>0</asrwt>
<pdfrwt beam="1">  1       21 0.40117500E-01 0.17803884E+03</pdfrwt>
<pdfrwt beam="2">  1       21 0.24472023E-01 0.17803884E+03</pdfrwt>
<totfact> 0.94997854E+04</totfact>
</mgrwt>
</event>
<event>
 4    1  0.3973261E+000  0.1933929E+03  0.7546771E-02  0.1155436E+00
         21   -1    0    0  503  502  0.00000000000E+00  0.00000000000E+00  0.66420444525E+02  0.66420444525E+02  0.00000000000E+00 0. -1.
         21   -1    0    0  501  503 -0.00000000000E+00 -0.00000000000E+00 -0.57697464031E+03  0.57697464031E+03  0.00000000000E+00 0. -1.
          6    1    1    2  501    0 -0.86370450374E+02  0.34576283475E+01 -0.30517795672E+03  0.36129544027E+03  0.17300000000E+03 0. -1.
         -6    1    1    2    0  502  0.86370450374E+02 -0.34576283475E+01 -0.20537623906E+03  0.28209964456E+03  0.17300000000E+03 0. -1.
<mgrwt>
<rscale>  2 0.19339289E+03</rscale>
<asrwt>0</asrwt>
<pdfrwt beam="1">  1       21 0.10218530E-01 0.19339289E+03</pdfrwt>
<pdfrwt beam="2">  1       21 0.88765328E-01 0.19339289E+03</pdfrwt>
<totfact> 0.84692872E+04</totfact>
</mgrwt>
</event>
<event>
 4    1  0.3973261E+000  0.2075776E+03  0.7546771E-02  0.1143499E+00
         21   -1    0    0  503  502  0.00000000000E+00  0.00000000000E+00  0.54414291093E+03  0.54414291093E+03  0.00000000000E+00 0. -1.
         21   -1    0    0  501  503 -0.00000000000E+00 -0.00000000000E+00 -0.85431334724E+02  0.85431334724E+02  0.00000000000E+00 0. -1.
          6    1    1    2  501    0  0.11420092312E+03  0.10844258250E+02  0.14424403621E+03  0.25277418927E+03  0.17300000000E+03 0. -1.
         -6    1    1    2    0  502 -0.11420092312E+03 -0.10844258250E+02  0.31446754000E+03  0.37680005639E+03  0.17300000000E+03 0. -1.
<mgrwt>
<rscale>  2 0.20757757E+03</rscale>
<asrwt>0</asrwt>
<pdfrwt beam="1">  1       21 0.83714292E-01 0.20757757E+03</pdfrwt>
<pdfrwt beam="2">  1       21 0.13143283E-01 0.20757757E+03</pdfrwt>
<totfact> 0.61396381E+04</totfact>
</mgrwt>
</event>
<event>
 4    1  0.3973261E+000  0.2527966E+03  0.7546771E-02  0.1111550E+00
         21   -1    0    0  503  502  0.00000000000E+00  0.00000000000E+00  0.46550765815E+03  0.46550765815E+03  0.00000000000E+00 0.  1.
         21   -1    0    0  501  503 -0.00000000000E+00 -0.00000000000E+00 -0.13729722301E+03  0.13729722301E+03  0.00000000000E+00 0. -1.
          6    1    1    2  501    0  0.13356430301E+03 -0.12703417371E+03  0.16721513014E+03  0.30309570118E+03  0.17300000000E+03 0. -1.
         -6    1    1    2    0  502 -0.13356430301E+03  0.12703417371E+03  0.16099530501E+03  0.29970917998E+03  0.17300000000E+03 0.  1.
<mgrwt>
<rscale>  2 0.25279657E+03</rscale>
<asrwt>0</asrwt>
<pdfrwt beam="1">  1       21 0.71616562E-01 0.25279657E+03</pdfrwt>
<pdfrwt beam="2">  1       21 0.21122650E-01 0.25279657E+03</pdfrwt>
<totfact> 0.35658978E+04</totfact>
</mgrwt>
</event>
<event>
 4    1  0.3973261E+000  0.1789132E+03  0.7546771E-02  0.1168859E+00
         21   -1    0    0  501  502  0.00000000000E+00  0.00000000000E+00  0.34483921102E+03  0.34483921102E+03  0.00000000000E+00 0. -1.
         21   -1    0    0  502  503 -0.00000000000E+00 -0.00000000000E+00 -0.10392257337E+03  0.10392257337E+03  0.00000000000E+00 0. -1.
          6    1    1    2  501    0  0.85559546838E+01  0.44807570318E+02  0.19377997824E+03  0.26374344102E+03  0.17300000000E+03 0. -1.
         -6    1    1    2    0  503 -0.85559546838E+01 -0.44807570318E+02  0.47136659413E+02  0.18501834336E+03  0.17300000000E+03 0. -1.
<mgrwt>
<rscale>  2 0.17891317E+03</rscale>
<asrwt>0</asrwt>
<pdfrwt beam="1">  1       21 0.53052186E-01 0.17891317E+03</pdfrwt>
<pdfrwt beam="2">  1       21 0.15988088E-01 0.17891317E+03</pdfrwt>
<totfact> 0.11809699E+05</totfact>
</mgrwt>
</event>
<event>
 4    1  0.3973261E+000  0.1885503E+03  0.7546771E-02  0.1159775E+00
         21   -1    0    0  503  502  0.00000000000E+00  0.00000000000E+00  0.10004437522E+04  0.10004437522E+04  0.00000000000E+00 0. -1.
         21   -1    0    0  501  503 -0.00000000000E+00 -0.00000000000E+00 -0.10618882824E+03  0.10618882824E+03  0.00000000000E+00 0. -1.
          6    1    1    2  501    0  0.74343902670E+02 -0.97573990559E+01 -0.42090795947E+01  0.18859729333E+03  0.17300000000E+03 0. -1.
         -6    1    1    2    0  502 -0.74343902670E+02  0.97573990559E+01  0.89846400354E+03  0.91803528710E+03  0.17300000000E+03 0. -1.
<mgrwt>
<rscale>  2 0.18855032E+03</rscale>
<asrwt>0</asrwt>
<pdfrwt beam="1">  1       21 0.15391442E+00 0.18855032E+03</pdfrwt>
<pdfrwt beam="2">  1       21 0.16336743E-01 0.18855032E+03</pdfrwt>
<totfact> 0.94017646E+03</totfact>
</mgrwt>
</event>
<event>
 4    1  0.3973261E+000  0.2030712E+03  0.7546771E-02  0.1147173E+00
         21   -1    0    0  503  502  0.00000000000E+00  0.00000000000E+00  0.67013586577E+02  0.67013586577E+02  0.00000000000E+00 0.  1.
         21   -1    0    0  501  503 -0.00000000000E+00 -0.00000000000E+00 -0.64958762677E+03  0.64958762677E+03  0.00000000000E+00 0.  1.
          6    1    1    2  501    0 -0.59635885200E+02  0.88048029737E+02 -0.20904800588E+03  0.29144289853E+03  0.17300000000E+03 0.  1.
         -6    1    1    2    0  502  0.59635885200E+02 -0.88048029737E+02 -0.37352603431E+03  0.42515831481E+03  0.17300000000E+03 0.  1.
<mgrwt>
<rscale>  2 0.20307116E+03</rscale>
<asrwt>0</asrwt>
<pdfrwt beam="1">  1       21 0.10309782E-01 0.20307116E+03</pdfrwt>
<pdfrwt beam="2">  1       21 0.99936559E-01 0.20307116E+03</pdfrwt>
<totfact> 0.62894172E+04</totfact>
</mgrwt>
</event>
<event>
 4    1  0.3973261E+000  0.2444549E+03  0.7546771E-02  0.1116860E+00
         21   -1    0    0  501  502  0.00000000000E+00  0.00000000000E+00  0.42656868205E+03  0.42656868205E+03  0.00000000000E+00 0.  1.
         21   -1    0    0  502  503 -0.00000000000E+00 -0.00000000000E+00 -0.14679027782E+03  0.14679027782E+03  0.00000000000E+00 0.  1.
          6    1    1    2  501    0 -0.11840137808E+03 -0.12573906687E+03  0.78642919537E+02  0.25679351250E+03  0.17300000000E+03 0. -1.
         -6    1    1    2    0  503  0.11840137808E+03  0.12573906687E+03  0.20113548469E+03  0.31656544737E+03  0.17300000000E+03 0. -1.
<mgrwt>
<rscale>  2 0.24445490E+03</rscale>
<asrwt>0</asrwt>
<pdfrwt beam="1">  1       21 0.65625950E-01 0.24445490E+03</pdfrwt>
<pdfrwt beam="2">  1       21 0.22583120E-01 0.24445490E+03</pdfrwt>
<totfact> 0.38246941E+04</totfact>
</mgrwt>
</event>
<event>
 4    1  0.3973261E+000  0.2042668E+03  0.7546771E-02  0.1146188E+00
         21   -1    0    0  501  502  0.00000000000E+00  0.00000000000E+00  0.32361549131E+03  0.32361549131E+03  0.00000000000E+00 0. -1.
         21   -1    0    0  502  503 -0.00000000000E+00 -0.00000000000E+00 -0.13570208391E+03  0.13570208391E+03  0.00000000000E+00 0. -1.
          6    1    1    2  501    0 -0.10803363592E+03  0.11165453831E+02  0.14524676004E+03  0.25064228524E+03  0.17300000000E+03 0. -1.
         -6    1    1    2    0  503  0.10803363592E+03 -0.11165453831E+02  0.42666647358E+02  0.20867528998E+03  0.17300000000E+03 0. -1.
<mgrwt>
<rscale>  2 0.20426682E+03</rscale>
<asrwt>0</asrwt>
<pdfrwt beam="1">  1       21 0.49786998E-01 0.20426682E+03</pdfrwt>
<pdfrwt beam="2">  1       21 0.20877244E-01 0.20426682E+03</pdfrwt>
<totfact> 0.81483790E+04</totfact>
</mgrwt>
</event>
<event>
 4    1  0.3973261E+000  0.2204372E+03  0.7546771E-02  0.1133558E+00
         21   -1    0    0  501  502  0.00000000000E+00  0.00000000000E+00  0.46089688306E+02  0.46089688306E+02  0.00000000000E+00 0. -1.
         21   -1    0    0  502  503 -0.00000000000E+00 -0.00000000000E+00 -0.11083614215E+04  0.11083614215E+04  0.00000000000E+00 0. -1.
          6    1    1    2  501    0 -0.13190402110E+03  0.35565239514E+02 -0.65861269973E+03  0.69452375430E+03  0.17300000000E+03 0. -1.
         -6    1    1    2    0  503  0.13190402110E+03 -0.35565239514E+02 -0.40365903347E+03  0.45992735551E+03  0.17300000000E+03 0. -1.
<mgrwt>
<rscale>  2 0.22043720E+03</rscale>
<asrwt>0</asrwt>
<pdfrwt beam="1">  1       21 0.70907212E-02 0.22043720E+03</pdfrwt>
<pdfrwt beam="2">  1       21 0.17051714E+00 0.22043720E+03</pdfrwt>
<totfact> 0.30756619E+04</totfact>
</mgrwt>
</event>
<event>
 4    1  0.3973261E+000  0.1812299E+03  0.7546771E-02  0.1166618E+00
         21   -1    0    0  501  502  0.00000000000E+00  0.00000000000E+00  0.18491760649E+04  0.18491760649E+04  0.00000000000E+00 0. -1.
         21   -1    0    0  502  503 -0.00000000000E+00 -0.00000000000E+00 -0.24506313731E+02  0.24506313731E+02  0.00000000000E+00 0.  1.
          6    1    1    2  501    0  0.47726181789E+02  0.25248547778E+02  0.14038190957E+04  0.14154689438E+04  0.17300000000E+03 0. -1.
         -6    1    1    2    0  503 -0.47726181789E+02 -0.25248547778E+02  0.42085065549E+03  0.45821343479E+03  0.17300000000E+03 0.  1.
<mgrwt>
<rscale>  2 0.18122990E+03</rscale>
<asrwt>0</asrwt>
<pdfrwt beam="1">  1       21 0.28448852E+00 0.18122990E+03</pdfrwt>
<pdfrwt beam="2">  1       21 0.37702036E-02 0.18122990E+03</pdfrwt>
<totfact> 0.18347956E+04</totfact>
</mgrwt>
</event>
<event>
 4    1  0.3973261E+000  0.1832228E+03  0.7546771E-02  0.1164720E+00
         21   -1    0    0  501  502  0.00000000000E+00  0.00000000000E+00  0.77881186970E+03  0.77881186970E+03  0.00000000000E+00 0. -1.
         21   -1    0    0  502  503 -0.00000000000E+00 -0.00000000000E+00 -0.91226536196E+02  0.91226536196E+02  0.00000000000E+00 0. -1.
          6    1    1    2  501    0  0.59381068209E+02 -0.10745481218E+02  0.65974255697E+03  0.68471221554E+03  0.17300000000E+03 0. -1.
         -6    1    1    2    0  503 -0.59381068209E+02  0.10745481218E+02  0.27842776536E+02  0.18532619036E+03  0.17300000000E+03 0. -1.
<mgrwt>
<rscale>  2 0.18322275E+03</rscale>
<asrwt>0</asrwt>
<pdfrwt beam="1">  1       21 0.11981721E+00 0.18322275E+03</pdfrwt>
<pdfrwt beam="2">  1       21 0.14034852E-01 0.18322275E+03</pdfrwt>
<totfact> 0.23600505E+04</totfact>
</mgrwt>
</event>
<event>
 4    1  0.3973261E+000  0.3000267E+03  0.7546771E-02  0.1085227E+00
         21   -1    0    0  501  502  0.00000000000E+00  0.00000000000E+00  0.36554011885E+04  0.36554011885E+04  0.00000000000E+00 0.  1.
         21   -1    0    0  502  503 -0.00000000000E+00 -0.00000000000E+00 -0.55575586025E+02  0.55575586025E+02  0.00000000000E+00 0.  1.
          6    1    1    2  501    0 -0.12201560886E+03  0.21260101539E+03  0.31845860492E+04  0.31986879037E+04  0.17300000000E+03 0.  1.
         -6    1    1    2    0  503  0.12201560886E+03 -0.21260101539E+03  0.41523955322E+03  0.51228887076E+03  0.17300000000E+03 0.  1.
<mgrwt>
<rscale>  2 0.30002667E+03</rscale>
<asrwt>0</asrwt>
<pdfrwt beam="1">  1       21 0.56236922E+00 0.30002667E+03</pdfrwt>
<pdfrwt beam="2">  1       21 0.85500930E-02 0.30002667E+03</pdfrwt>
<totfact> 0.60717619E+01</totfact>
</mgrwt>
</event>
<event>
 4    1  0.3973261E+000  0.1798037E+03  0.7546771E-02  0.1167993E+00
         21   -1    0    0  501  502  0.00000000000E+00  0.00000000000E+00  0.12551169856E+04  0.12551169856E+04  0.00000000000E+00 0.  1.
         21   -1    0    0  502  503 -0.00000000000E+00 -0.00000000000E+00 -0.23370877781E+03  0.23370877781E+03  0.00000000000E+00 0. -1.
          6    1    1    2  501    0 -0.47398243847E+02  0.12400951078E+02  0.12128972414E+04  0.12261521501E+04  0.17300000000E+03 0.  1.
         -6    1    1    2    0  503  0.47398243847E+02 -0.12400951078E+02 -0.19148903361E+03  0.26267361326E+03  0.17300000000E+03 0. -1.
<mgrwt>
<rscale>  2 0.17980372E+03</rscale>
<asrwt>0</asrwt>
<pdfrwt beam="1">  1       21 0.19309492E+00 0.17980372E+03</pdfrwt>
<pdfrwt beam="2">  1       21 0.35955197E-01 0.17980372E+03</pdfrwt>
<totfact> 0.11265619E+03</totfact>
</mgrwt>
</event>
<event>
 4    1  0.3973261E+000  0.1798862E+03  0.7546771E-02  0.1167913E+00
         21   -1    0    0  503  502  0.00000000000E+00  0.00000000000E+00  0.22818966155E+03  0.22818966155E+03  0.00000000000E+00 0.  1.
         21   -1    0    0  501  503 -0.00000000000E+00 -0.00000000000E+00 -0.36677365951E+03  0.36677365951E+03  0.00000000000E+00 0.  1.
          6    1    1    2  501    0 -0.10155477224E+02  0.48238046637E+02 -0.30227249558E+03  0.35174949104E+03  0.17300000000E+03 0.  1.
         -6    1    1    2    0  502  0.10155477224E+02 -0.48238046637E+02  0.16368849762E+03  0.24321383002E+03  0.17300000000E+03 0.  1.
<mgrwt>
<rscale>  2 0.17988619E+03</rscale>
<asrwt>0</asrwt>
<pdfrwt beam="1">  1       21 0.35106103E-01 0.17988619E+03</pdfrwt>
<pdfrwt beam="2">  1       21 0.56426716E-01 0.17988619E+03</pdfrwt>
<totfact> 0.23280377E+04</totfact>
</mgrwt>
</event>
<event>
 4    1  0.3973261E+000  0.2321320E+03  0.7546771E-02  0.1125148E+00
         21   -1    0    0  503  502  0.00000000000E+00  0.00000000000E+00  0.92477833247E+02  0.92477833247E+02  0.00000000000E+00 0.  1.
         21   -1    0    0  501  503 -0.00000000000E+00 -0.00000000000E+00 -0.58725738765E+03  0.58725738765E+03  0.00000000000E+00 0.  1.
          6    1    1    2  501    0  0.12623610269E+03 -0.89558340733E+02 -0.27738608582E+03  0.36170193616E+03  0.17300000000E+03 0.  1.
         -6    1    1    2    0  502 -0.12623610269E+03  0.89558340733E+02 -0.21739346858E+03  0.31803328473E+03  0.17300000000E+03 0.  1.
<mgrwt>
<rscale>  2 0.23213197E+03</rscale>
<asrwt>0</asrwt>
<pdfrwt beam="1">  1       21 0.14227359E-01 0.23213197E+03</pdfrwt>
<pdfrwt beam="2">  1       21 0.90347293E-01 0.23213197E+03</pdfrwt>
<totfact> 0.44099018E+04</totfact>
</mgrwt>
</event>
<event>
 4    1  0.3973261E+000  0.2481405E+03  0.7546771E-02  0.1114486E+00
         21   -1    0    0  501  502  0.00000000000E+00  0.00000000000E+00  0.66418466793E+03  0.66418466793E+03  0.00000000000E+00 0. -1.
         21   -1    0    0  502  503 -0.00000000000E+00 -0.00000000000E+00 -0.13162974511E+03  0.13162974511E+03  0.00000000000E+00 0.  1.
          6    1    1    2  501    0  0.15549004369E+03  0.86414869203E+02  0.48265588218E+03  0.54270653572E+03  0.17300000000E+03 0. -1.
         -6    1    1    2    0  503 -0.15549004369E+03 -0.86414869203E+02  0.49899040642E+02  0.25310787732E+03  0.17300000000E+03 0.  1.
<mgrwt>
<rscale>  2 0.24814045E+03</rscale>
<asrwt>0</asrwt>
<pdfrwt beam="1">  1       21 0.10218225E+00 0.24814045E+03</pdfrwt>
<pdfrwt beam="2">  1       21 0.20250730E-01 0.24814045E+03</pdfrwt>
<totfact> 0.17024310E+04</totfact>
</mgrwt>
</event>
<event>
 4    1  0.3973261E+000  0.1798285E+03  0.7546771E-02  0.1167969E+00
         21   -1    0    0  501  502  0.00000000000E+00  0.00000000000E+00  0.42332450085E+02  0.42332450085E+02  0.00000000000E+00 0. -1.
         21   -1    0    0  502  503 -0.00000000000E+00 -0.00000000000E+00 -0.19977062552E+04  0.19977062552E+04  0.00000000000E+00 0.  1.
          6    1    1    2  501    0  0.48313976393E+02  0.86621905707E+01 -0.17607540326E+03  0.25167602487E+03  0.17300000000E+03 0. -1.
         -6    1    1    2    0  503 -0.48313976393E+02 -0.86621905707E+01 -0.17792984018E+04  0.17883626804E+04  0.17300000000E+03 0.  1.
<mgrwt>
<rscale>  2 0.17982846E+03</rscale>
<asrwt>0</asrwt>
<pdfrwt beam="1">  1       21 0.65126856E-02 0.17982846E+03</pdfrwt>
<pdfrwt beam="2">  1       21 0.30733938E+00 0.17982846E+03</pdfrwt>
<totfact> 0.53879917E+03</totfact>
</mgrwt>
</event>
<event>
 4    1  0.3973261E+000  0.1907607E+03  0.7546771E-02  0.1157777E+00
         21   -1    0    0  503  502  0.00000000000E+00  0.00000000000E+00  0.18857423649E+04  0.18857423649E+04  0.00000000000E+00 0. -1.
         21   -1    0    0  501  503 -0.00000000000E+00 -0.00000000000E+00 -0.19824108936E+02  0.19824108936E+02  0.00000000000E+00 0. -1.
          6    1    1    2  501    0 -0.70119533874E+01 -0.80071809185E+02  0.77763460962E+03  0.80069048214E+03  0.17300000000E+03 0. -1.
         -6    1    1    2    0  502  0.70119533874E+01  0.80071809185E+02  0.10882836463E+04  0.11048759916E+04  0.17300000000E+03 0. -1.
<mgrwt>
<rscale>  2 0.19076075E+03</rscale>
<asrwt>0</asrwt>
<pdfrwt beam="1">  1       21 0.29011407E+00 0.19076075E+03</pdfrwt>
<pdfrwt beam="2">  1       21 0.30498644E-02 0.19076075E+03</pdfrwt>
<totfact> 0.24002611E+04</totfact>
</mgrwt>
</event>
<event>
 4    1  0.3973261E+000  0.2537240E+03  0.7546771E-02  0.1110974E+00
         21   -1    0    0  501  502  0.00000000000E+00  0.00000000000E+00  0.67319971714E+02  0.67319971714E+02  0.00000000000E+00 0.  1.
         21   -1    0    0  502  503 -0.00000000000E+00 -0.00000000000E+00 -0.95988201679E+03  0.95988201679E+03  0.00000000000E+00 0.  1.
          6    1    1    2  501    0  0.34888926088E+02  0.18228991919E+03 -0.41476103795E+03  0.48621247455E+03  0.17300000000E+03 0.  1.
         -6    1    1    2    0  503 -0.34888926088E+02 -0.18228991919E+03 -0.47780100712E+03  0.54098951395E+03  0.17300000000E+03 0.  1.
<mgrwt>
<rscale>  2 0.25372397E+03</rscale>
<asrwt>0</asrwt>
<pdfrwt beam="1">  1       21 0.10356919E-01 0.25372397E+03</pdfrwt>
<pdfrwt beam="2">  1       21 0.14767416E+00 0.25372397E+03</pdfrwt>
<totfact> 0.22910777E+04</totfact>
</mgrwt>
</event>
<event>
 4    1  0.3973261E+000  0.2091126E+03  0.7546771E-02  0.1142271E+00
         21   -1    0    0  501  502  0.00000000000E+00  0.00000000000E+00  0.21511778202E+03  0.21511778202E+03  0.00000000000E+00 0.  1.
         21   -1    0    0  502  503 -0.00000000000E+00 -0.00000000000E+00 -0.20851082366E+03  0.20851082366E+03  0.00000000000E+00 0.  1.
          6    1    1    2  501    0 -0.11676411143E+03  0.12853567100E+02  0.36868163573E+02  0.21233778135E+03  0.17300000000E+03 0.  1.
         -6    1    1    2    0  503  0.11676411143E+03 -0.12853567100E+02 -0.30261205214E+02  0.21129082433E+03  0.17300000000E+03 0.  1.
<mgrwt>
<rscale>  2 0.20911258E+03</rscale>
<asrwt>0</asrwt>
<pdfrwt beam="1">  1       21 0.33095043E-01 0.20911258E+03</pdfrwt>
<pdfrwt beam="2">  1       21 0.32078588E-01 0.20911258E+03</pdfrwt>
<totfact> 0.81595580E+04</totfact>
</mgrwt>
</event>
<event>
 4    1  0.3973261E+000  0.1907095E+03  0.7546771E-02  0.1157823E+00
         21   -1    0    0  501  502  0.00000000000E+00  0.00000000000E+00  0.24522399359E+03  0.24522399359E+03  0.00000000000E+00 0. -1.
         21   -1    0    0  502  503 -0.00000000000E+00 -0.00000000000E+00 -0.14833866537E+03  0.14833866537E+03  0.00000000000E+00 0. -1.
          6    1    1    2  501    0 -0.54826664920E+02 -0.58610155094E+02  0.45897255062E+02  0.19615471314E+03  0.17300000000E+03 0. -1.
         -6    1    1    2    0  503  0.54826664920E+02  0.58610155094E+02  0.50988073166E+02  0.19740794582E+03  0.17300000000E+03 0. -1.
<mgrwt>
<rscale>  2 0.19070950E+03</rscale>
<asrwt>0</asrwt>
<pdfrwt beam="1">  1       21 0.37726768E-01 0.19070950E+03</pdfrwt>
<pdfrwt beam="2">  1       21 0.22821333E-01 0.19070950E+03</pdfrwt>
<totfact> 0.12213703E+05</totfact>
</mgrwt>
</event>
<event>
 4    1  0.3973261E+000  0.2110892E+03  0.7546771E-02  0.1140706E+00
         21   -1    0    0  503  502  0.00000000000E+00  0.00000000000E+00  0.65611847402E+03  0.65611847402E+03  0.00000000000E+00 0.  1.
         21   -1    0    0  501  503 -0.00000000000E+00 -0.00000000000E+00 -0.75016044808E+02  0.75016044808E+02  0.00000000000E+00 0.  1.
          6    1    1    2  501    0 -0.62194331464E+01 -0.12079299625E+03  0.17805742529E+03  0.27615770131E+03  0.17300000000E+03 0.  1.
         -6    1    1    2    0  502  0.62194331464E+01  0.12079299625E+03  0.40304500392E+03  0.45497681752E+03  0.17300000000E+03 0.  1.
<mgrwt>
<rscale>  2 0.21108915E+03</rscale>
<asrwt>0</asrwt>
<pdfrwt beam="1">  1       21 0.10094130E+00 0.21108915E+03</pdfrwt>
<pdfrwt beam="2">  1       21 0.11540930E-01 0.21108915E+03</pdfrwt>
<totfact> 0.50043230E+04</totfact>
</mgrwt>
</event>
<event>
 4    1  0.3973261E+000  0.1998539E+03  0.7546771E-02  0.1149862E+00
         21   -1    0    0  501  502  0.00000000000E+00  0.00000000000E+00  0.13638036870E+03  0.13638036870E+03  0.00000000000E+00 0.  1.
         21   -1    0    0  502  503 -0.00000000000E+00 -0.00000000000E+00 -0.35749737169E+03  0.35749737169E+03  0.00000000000E+00 0.  1.
          6    1    1    2  501    0 -0.95061452167E+02 -0.31239415966E+02 -0.55644555121E+01  0.19993134813E+03  0.17300000000E+03 0.  1.
         -6    1    1    2    0  503  0.95061452167E+02  0.31239415966E+02 -0.21555254748E+03  0.29394639226E+03  0.17300000000E+03 0.  1.
<mgrwt>
<rscale>  2 0.19985390E+03</rscale>
<asrwt>0</asrwt>
<pdfrwt beam="1">  1       21 0.20981595E-01 0.19985390E+03</pdfrwt>
<pdfrwt beam="2">  1       21 0.54999595E-01 0.19985390E+03</pdfrwt>
<totfact> 0.65607798E+04</totfact>
</mgrwt>
</event>
<event>
 4    1  0.3973261E+000  0.1892327E+03  0.7546771E-02  0.1159155E+00
         21   -1    0    0  501  502  0.00000000000E+00  0.00000000000E+00  0.14059332651E+04  0.14059332651E+04  0.00000000000E+00 0. -1.
         21   -1    0    0  502  503 -0.00000000000E+00 -0.00000000000E+00 -0.27087059307E+02  0.27087059307E+02  0.00000000000E+00 0. -1.
          6    1    1    2  501    0 -0.17899718596E+02 -0.74562847492E+02  0.86449407841E+03  0.88496272789E+03  0.17300000000E+03 0. -1.
         -6    1    1    2    0  503  0.17899718596E+02  0.74562847492E+02  0.51435212734E+03  0.54805759648E+03  0.17300000000E+03 0. -1.
<mgrwt>
<rscale>  2 0.18923271E+03</rscale>
<asrwt>0</asrwt>
<pdfrwt beam="1">  1       21 0.21629737E+00 0.18923271E+03</pdfrwt>
<pdfrwt beam="2">  1       21 0.41672410E-02 0.18923271E+03</pdfrwt>
<totfact> 0.38881003E+04</totfact>
</mgrwt>
</event>
<event>
 4    1  0.3973261E+000  0.2108335E+03  0.7546771E-02  0.1140908E+00
         21   -1    0    0  501  502  0.00000000000E+00  0.00000000000E+00  0.11210032534E+03  0.11210032534E+03  0.00000000000E+00 0. -1.
         21   -1    0    0  502  503 -0.00000000000E+00 -0.00000000000E+00 -0.47357755405E+03  0.47357755405E+03  0.00000000000E+00 0. -1.
          6    1    1    2  501    0  0.11565977745E+03  0.33831577305E+02 -0.62618921471E+02  0.21993610224E+03  0.17300000000E+03 0. -1.
         -6    1    1    2    0  503 -0.11565977745E+03 -0.33831577305E+02 -0.29885830724E+03  0.36574177714E+03  0.17300000000E+03 0. -1.
<mgrwt>
<rscale>  2 0.21083349E+03</rscale>
<asrwt>0</asrwt>
<pdfrwt beam="1">  1       21 0.17246204E-01 0.21083349E+03</pdfrwt>
<pdfrwt beam="2">  1       21 0.72858085E-01 0.21083349E+03</pdfrwt>
<totfact> 0.51069229E+04</totfact>
</mgrwt>
</event>
<event>
 4    1  0.3973261E+000  0.2199474E+03  0.7546771E-02  0.1133922E+00
         21   -1    0    0  503  502  0.00000000000E+00  0.00000000000E+00  0.10697031690E+03  0.10697031690E+03  0.00000000000E+00 0.  1.
         21   -1    0    0  501  503 -0.00000000000E+00 -0.00000000000E+00 -0.72746445797E+03  0.72746445797E+03  0.00000000000E+00 0.  1.
          6    1    1    2  501    0  0.33684142811E+02 -0.13157975248E+03 -0.56687009635E+03  0.60804486584E+03  0.17300000000E+03 0.  1.
         -6    1    1    2    0  502 -0.33684142811E+02  0.13157975248E+03 -0.53624044721E+02  0.22638990903E+03  0.17300000000E+03 0.  1.
<mgrwt>
<rscale>  2 0.21994739E+03</rscale>
<asrwt>0</asrwt>
<pdfrwt beam="1">  1       21 0.16456971E-01 0.21994739E+03</pdfrwt>
<pdfrwt beam="2">  1       21 0.11191761E+00 0.21994739E+03</pdfrwt>
<totfact> 0.20397804E+04</totfact>
</mgrwt>
</event>
<event>
 4    1  0.3973261E+000  0.2067377E+03  0.7546771E-02  0.1144176E+00
         21   -1    0    0  503  502  0.00000000000E+00  0.00000000000E+00  0.46625443460E+03  0.46625443460E+03  0.00000000000E+00 0. -1.
         21   -1    0    0  501  503 -0.00000000000E+00 -0.00000000000E+00 -0.26244799723E+03  0.26244799723E+03  0.00000000000E+00 0.  1.
          6    1    1    2  501    0 -0.14010957430E+02  0.11231728065E+03 -0.19200887442E+03  0.28214869540E+03  0.17300000000E+03 0.  1.
         -6    1    1    2    0  502  0.14010957430E+02 -0.11231728065E+03  0.39581531179E+03  0.44655373642E+03  0.17300000000E+03 0. -1.
<mgrwt>
<rscale>  2 0.20673770E+03</rscale>
<asrwt>0</asrwt>
<pdfrwt beam="1">  1       21 0.71731451E-01 0.20673770E+03</pdfrwt>
<pdfrwt beam="2">  1       21 0.40376615E-01 0.20673770E+03</pdfrwt>
<totfact> 0.10276529E+04</totfact>
</mgrwt>
</event>
<event>
 4    1  0.3973261E+000  0.3974023E+03  0.7546771E-02  0.1044683E+00
         21   -1    0    0  501  502  0.00000000000E+00  0.00000000000E+00  0.18471568421E+04  0.18471568421E+04  0.00000000000E+00 0. -1.
         21   -1    0    0  502  503 -0.00000000000E+00 -0.00000000000E+00 -0.30363997982E+03  0.30363997982E+03  0.00000000000E+00 0.  1.
          6    1    1    2  501    0 -0.17850590205E+03  0.31005677521E+03  0.16832640552E+04  0.17295393723E+04  0.17300000000E+03 0. -1.
         -6    1    1    2    0  503  0.17850590205E+03 -0.31005677521E+03 -0.13974719290E+03  0.42125744960E+03  0.17300000000E+03 0.  1.
<mgrwt>
<rscale>  2 0.39740227E+03</rscale>
<asrwt>0</asrwt>
<pdfrwt beam="1">  1       21 0.28417797E+00 0.39740227E+03</pdfrwt>
<pdfrwt beam="2">  1       21 0.46713844E-01 0.39740227E+03</pdfrwt>
<totfact> 0.14962224E+02</totfact>
</mgrwt>
</event>
<event>
 4    1  0.3973261E+000  0.2426495E+03  0.7546771E-02  0.1118040E+00
         21   -1    0    0  501  502  0.00000000000E+00  0.00000000000E+00  0.36582245454E+03  0.36582245454E+03  0.00000000000E+00 0.  1.
         21   -1    0    0  502  503 -0.00000000000E+00 -0.00000000000E+00 -0.23635113797E+03  0.23635113797E+03  0.00000000000E+00 0. -1.
          6    1    1    2  501    0  0.16970919484E+03  0.12188856971E+02  0.23479657975E+03  0.33765102238E+03  0.17300000000E+03 0.  1.
         -6    1    1    2    0  503 -0.16970919484E+03 -0.12188856971E+02 -0.10532526318E+03  0.26452257014E+03  0.17300000000E+03 0. -1.
<mgrwt>
<rscale>  2 0.24264950E+03</rscale>
<asrwt>0</asrwt>
<pdfrwt beam="1">  1       21 0.56280378E-01 0.24264950E+03</pdfrwt>
<pdfrwt beam="2">  1       21 0.36361713E-01 0.24264950E+03</pdfrwt>
<totfact> 0.21081753E+04</totfact>
</mgrwt>
</event>
<event>
 4    1  0.3973261E+000  0.2269557E+03  0.7546771E-02  0.1128801E+00
         21   -1    0    0  501  502  0.00000000000E+00  0.00000000000E+00  0.17240944188E+03  0.17240944188E+03  0.00000000000E+00 0. -1.
         21   -1    0    0  502  503 -0.00000000000E+00 -0.00000000000E+00 -0.44918396248E+03  0.44918396248E+03  0.00000000000E+00 0.  1.
          6    1    1    2  501    0 -0.12535482019E+03  0.76590213597E+02  0.41468385476E+02  0.23071306586E+03  0.17300000000E+03 0. -1.
         -6    1    1    2    0  503  0.12535482019E+03 -0.76590213597E+02 -0.31824290607E+03  0.39088033851E+03  0.17300000000E+03 0.  1.
<mgrwt>
<rscale>  2 0.22695570E+03</rscale>
<asrwt>0</asrwt>
<pdfrwt beam="1">  1       21 0.26524529E-01 0.22695570E+03</pdfrwt>
<pdfrwt beam="2">  1       21 0.69105225E-01 0.22695570E+03</pdfrwt>
<totfact> 0.25295468E+04</totfact>
</mgrwt>
</event>
<event>
 4    1  0.3973261E+000  0.2402097E+03  0.7546771E-02  0.1119653E+00
         21   -1    0    0  503  502  0.00000000000E+00  0.00000000000E+00  0.21751542621E+03  0.21751542621E+03  0.00000000000E+00 0. -1.
         21   -1    0    0  501  503 -0.00000000000E+00 -0.00000000000E+00 -0.34549757065E+03  0.34549757065E+03  0.00000000000E+00 0. -1.
          6    1    1    2  501    0  0.16107903627E+03  0.42722953423E+02 -0.19964204078E+03  0.31234220195E+03  0.17300000000E+03 0. -1.
         -6    1    1    2    0  502 -0.16107903627E+03 -0.42722953423E+02  0.71659896339E+02  0.25067079491E+03  0.17300000000E+03 0. -1.
<mgrwt>
<rscale>  2 0.24020971E+03</rscale>
<asrwt>0</asrwt>
<pdfrwt beam="1">  1       21 0.33463912E-01 0.24020971E+03</pdfrwt>
<pdfrwt beam="2">  1       21 0.53153472E-01 0.24020971E+03</pdfrwt>
<totfact> 0.28128014E+04</totfact>
</mgrwt>
</event>
<event>
 4    1  0.3973261E+000  0.1766413E+03  0.7546771E-02  0.1171094E+00
         21   -1    0    0  503  502  0.00000000000E+00  0.00000000000E+00  0.22162996923E+03  0.22162996923E+03  0.00000000000E+00 0.  1.
         21   -1    0    0  501  503 -0.00000000000E+00 -0.00000000000E+00 -0.79115054443E+03  0.79115054443E+03  0.00000000000E+00 0.  1.
          6    1    1    2  501    0 -0.21071272853E+02 -0.28794808394E+02 -0.74388914656E+03  0.76457386949E+03  0.17300000000E+03 0.  1.
         -6    1    1    2    0  502  0.21071272853E+02  0.28794808394E+02  0.17436857136E+03  0.24820664417E+03  0.17300000000E+03 0.  1.
<mgrwt>
<rscale>  2 0.17664127E+03</rscale>
<asrwt>0</asrwt>
<pdfrwt beam="1">  1       21 0.34096919E-01 0.17664127E+03</pdfrwt>
<pdfrwt beam="2">  1       21 0.12171547E+00 0.17664127E+03</pdfrwt>
<totfact> 0.42831706E+03</totfact>
</mgrwt>
</event>
<event>
 4    1  0.3973261E+000  0.1849094E+03  0.7546771E-02  0.1163135E+00
         21   -1    0    0  501  502  0.00000000000E+00  0.00000000000E+00  0.75266082292E+02  0.75266082292E+02  0.00000000000E+00 0.  1.
         21   -1    0    0  502  503 -0.00000000000E+00 -0.00000000000E+00 -0.61872936539E+03  0.61872936539E+03  0.00000000000E+00 0. -1.
          6    1    1    2  501    0 -0.64807493989E+02 -0.79035441027E+01 -0.92836166743E+02  0.20690585091E+03  0.17300000000E+03 0.  1.
         -6    1    1    2    0  503  0.64807493989E+02  0.79035441027E+01 -0.45062711635E+03  0.48708959677E+03  0.17300000000E+03 0. -1.
<mgrwt>
<rscale>  2 0.18490938E+03</rscale>
<asrwt>0</asrwt>
<pdfrwt beam="1">  1       21 0.11579397E-01 0.18490938E+03</pdfrwt>
<pdfrwt beam="2">  1       21 0.95189135E-01 0.18490938E+03</pdfrwt>
<totfact> 0.57880799E+04</totfact>
</mgrwt>
</event>
<event>
 4    1  0.3973261E+000  0.2235819E+03  0.7546771E-02  0.1131240E+00
         21   -1    0    0  503  502  0.00000000000E+00  0.00000000000E+00  0.61641918787E+03  0.61641918787E+03  0.00000000000E+00 0. -1.
         21   -1    0    0  501  503 -0.00000000000E+00 -0.00000000000E+00 -0.81430938071E+02  0.81430938071E+02  0.00000000000E+00 0.  1.
          6    1    1    2  501    0 -0.70607601081E+02 -0.12277792986E+03  0.28988705455E+03  0.36609200727E+03  0.17300000000E+03 0.  1.
         -6    1    1    2    0  502  0.70607601081E+02  0.12277792986E+03  0.24510119525E+03  0.33175811867E+03  0.17300000000E+03 0. -1.
<mgrwt>
<rscale>  2 0.22358187E+03</rscale>
<asrwt>0</asrwt>
<pdfrwt beam="1">  1       21 0.94833718E-01 0.22358187E+03</pdfrwt>
<pdfrwt beam="2">  1       21 0.12527837E-01 0.22358187E+03</pdfrwt>
<totfact> 0.49768771E+04</totfact>
</mgrwt>
</event>
<event>
 4    1  0.3973261E+000  0.2235969E+03  0.7546771E-02  0.1131230E+00
         21   -1    0    0  501  502  0.00000000000E+00  0.00000000000E+00  0.39200362097E+03  0.39200362097E+03  0.00000000000E+00 0. -1.
         21   -1    0    0  502  503 -0.00000000000E+00 -0.00000000000E+00 -0.13040321609E+03  0.13040321609E+03  0.00000000000E+00 0. -1.
          6    1    1    2  501    0  0.13727483958E+03  0.34959712326E+02  0.16951470732E+03  0.28059009082E+03  0.17300000000E+03 0. -1.
         -6    1    1    2    0  503 -0.13727483958E+03 -0.34959712326E+02  0.92085697558E+02  0.24181674624E+03  0.17300000000E+03 0. -1.
<mgrwt>
<rscale>  2 0.22359688E+03</rscale>
<asrwt>0</asrwt>
<pdfrwt beam="1">  1       21 0.60308249E-01 0.22359688E+03</pdfrwt>
<pdfrwt beam="2">  1       21 0.20062033E-01 0.22359688E+03</pdfrwt>
<totfact> 0.57991625E+04</totfact>
</mgrwt>
</event>
<event>
 4    1  0.3973261E+000  0.1989755E+03  0.7546771E-02  0.1150606E+00
         21   -1    0    0  503  502  0.00000000000E+00  0.00000000000E+00  0.26186122857E+03  0.26186122857E+03  0.00000000000E+00 0.  1.
         21   -1    0    0  501  503 -0.00000000000E+00 -0.00000000000E+00 -0.11319465150E+04  0.11319465150E+04  0.00000000000E+00 0.  1.
          6    1    1    2  501    0  0.76191538449E+02  0.62105423426E+02 -0.10837370556E+04  0.11018517322E+04  0.17300000000E+03 0.  1.
         -6    1    1    2    0  502 -0.76191538449E+02 -0.62105423426E+02  0.21365176911E+03  0.29195601140E+03  0.17300000000E+03 0.  1.
<mgrwt>
<rscale>  2 0.19897546E+03</rscale>
<asrwt>0</asrwt>
<pdfrwt beam="1">  1       21 0.40286343E-01 0.19897546E+03</pdfrwt>
<pdfrwt beam="2">  1       21 0.17414562E+00 0.19897546E+03</pdfrwt>
<totfact> 0.11773755E+03</totfact>
</mgrwt>
</event>
<event>
 4    1  0.3973261E+000  0.1799543E+03  0.7546771E-02  0.1167847E+00
         21   -1    0    0  503  502  0.00000000000E+00  0.00000000000E+00  0.13672580114E+03  0.13672580114E+03  0.00000000000E+00 0.  1.
         21   -1    0    0  501  503 -0.00000000000E+00 -0.00000000000E+00 -0.23741569765E+03  0.23741569765E+03  0.00000000000E+00 0.  1.
          6    1    1    2  501    0  0.39334251143E+02 -0.30122802985E+02 -0.41216998654E+02  0.18461421275E+03  0.17300000000E+03 0.  1.
         -6    1    1    2    0  502 -0.39334251143E+02  0.30122802985E+02 -0.59472897857E+02  0.18952728604E+03  0.17300000000E+03 0.  1.
<mgrwt>
<rscale>  2 0.17995435E+03</rscale>
<asrwt>0</asrwt>
<pdfrwt beam="1">  1       21 0.21034739E-01 0.17995435E+03</pdfrwt>
<pdfrwt beam="2">  1       21 0.36525491E-01 0.17995435E+03</pdfrwt>
<totfact> 0.15244222E+05</totfact>
</mgrwt>
</event>
<event>
 4    1  0.3973261E+000  0.2721831E+03  0.7546771E-02  0.1100037E+00
         21   -1    0    0  501  502  0.00000000000E+00  0.00000000000E+00  0.50292820632E+02  0.50292820632E+02  0.00000000000E+00 0. -1.
         21   -1    0    0  502  503 -0.00000000000E+00 -0.00000000000E+00 -0.15910428689E+04  0.15910428689E+04  0.00000000000E+00 0.  1.
          6    1    1    2  501    0 -0.19698579195E+03  0.73152329134E+02 -0.54688367255E+03  0.61087266823E+03  0.17300000000E+03 0.  1.
         -6    1    1    2    0  503  0.19698579195E+03 -0.73152329134E+02 -0.99386637569E+03  0.10304630213E+04  0.17300000000E+03 0. -1.
<mgrwt>
<rscale>  2 0.27218315E+03</rscale>
<asrwt>0</asrwt>
<pdfrwt beam="1">  1       21 0.77373569E-02 0.27218315E+03</pdfrwt>
<pdfrwt beam="2">  1       21 0.24477583E+00 0.27218315E+03</pdfrwt>
<totfact> 0.85061271E+03</totfact>
</mgrwt>
</event>
<event>
 4    1  0.3973261E+000  0.2886708E+03  0.7546771E-02  0.1091045E+00
         21   -1    0    0  503  502  0.00000000000E+00  0.00000000000E+00  0.23182300645E+03  0.23182300645E+03  0.00000000000E+00 0.  1.
         21   -1    0    0  501  503 -0.00000000000E+00 -0.00000000000E+00 -0.45387894543E+03  0.45387894543E+03  0.00000000000E+00 0.  1.
          6    1    1    2  501    0 -0.19538712144E+03 -0.12339237069E+03 -0.26740316159E+03  0.39349111197E+03  0.17300000000E+03 0.  1.
         -6    1    1    2    0  502  0.19538712144E+03  0.12339237069E+03  0.45347222616E+02  0.29221083992E+03  0.17300000000E+03 0.  1.
<mgrwt>
<rscale>  2 0.28867075E+03</rscale>
<asrwt>0</asrwt>
<pdfrwt beam="1">  1       21 0.35665078E-01 0.28867075E+03</pdfrwt>
<pdfrwt beam="2">  1       21 0.69827530E-01 0.28867075E+03</pdfrwt>
<totfact> 0.13399670E+04</totfact>
</mgrwt>
</event>
<event>
 4    1  0.3973261E+000  0.2186149E+03  0.7546771E-02  0.1134920E+00
         21   -1    0    0  503  502  0.00000000000E+00  0.00000000000E+00  0.53896805922E+03  0.53896805922E+03  0.00000000000E+00 0. -1.
         21   -1    0    0  501  503 -0.00000000000E+00 -0.00000000000E+00 -0.91764339660E+02  0.91764339660E+02  0.00000000000E+00 0. -1.
          6    1    1    2  501    0 -0.72714976954E+02  0.11214288541E+03  0.16572886680E+03  0.27433292167E+03  0.17300000000E+03 0. -1.
         -6    1    1    2    0  502  0.72714976954E+02 -0.11214288541E+03  0.28147485276E+03  0.35639947721E+03  0.17300000000E+03 0. -1.
<mgrwt>
<rscale>  2 0.21861495E+03</rscale>
<asrwt>0</asrwt>
<pdfrwt beam="1">  1       21 0.82918161E-01 0.21861495E+03</pdfrwt>
<pdfrwt beam="2">  1       21 0.14117591E-01 0.21861495E+03</pdfrwt>
<totfact> 0.54848822E+04</totfact>
</mgrwt>
</event>
<event>
 4    1  0.3973261E+000  0.2738753E+03  0.7546771E-02  0.1099082E+00
         21   -1    0    0  501  502  0.00000000000E+00  0.00000000000E+00  0.21848584915E+04  0.21848584915E+04  0.00000000000E+00 0. -1.
         21   -1    0    0  502  503 -0.00000000000E+00 -0.00000000000E+00 -0.35461482242E+02  0.35461482242E+02  0.00000000000E+00 0.  1.
          6    1    1    2  501    0 -0.16663813539E+03 -0.13156906474E+03  0.12729423193E+04  0.13020713633E+04  0.17300000000E+03 0. -1.
         -6    1    1    2    0  503  0.16663813539E+03  0.13156906474E+03  0.87645469003E+03  0.91824861047E+03  0.17300000000E+03 0.  1.
<mgrwt>
<rscale>  2 0.27387531E+03</rscale>
<asrwt>0</asrwt>
<pdfrwt beam="1">  1       21 0.33613197E+00 0.27387531E+03</pdfrwt>
<pdfrwt beam="2">  1       21 0.54556144E-02 0.27387531E+03</pdfrwt>
<totfact> 0.44928122E+03</totfact>
</mgrwt>
</event>
<event>
 4    1  0.3973261E+000  0.1804488E+03  0.7546771E-02  0.1167369E+00
         21   -1    0    0  501  502  0.00000000000E+00  0.00000000000E+00  0.53699249198E+03  0.53699249198E+03  0.00000000000E+00 0. -1.
         21   -1    0    0  502  503 -0.00000000000E+00 -0.00000000000E+00 -0.13360802588E+03  0.13360802588E+03  0.00000000000E+00 0. -1.
          6    1    1    2  501    0  0.43517189190E+02 -0.27184938285E+02  0.44948692209E+03  0.48435550968E+03  0.17300000000E+03 0. -1.
         -6    1    1    2    0  503 -0.43517189190E+02  0.27184938285E+02 -0.46102455990E+02  0.18624500818E+03  0.17300000000E+03 0. -1.
<mgrwt>
<rscale>  2 0.18044879E+03</rscale>
<asrwt>0</asrwt>
<pdfrwt beam="1">  1       21 0.82614228E-01 0.18044879E+03</pdfrwt>
<pdfrwt beam="2">  1       21 0.20555081E-01 0.18044879E+03</pdfrwt>
<totfact> 0.28234563E+04</totfact>
</mgrwt>
</event>
<event>
 4    1  0.3973261E+000  0.1989550E+03  0.7546771E-02  0.1150624E+00
         21   -1    0    0  503  502  0.00000000000E+00  0.00000000000E+00  0.12872186000E+03  0.12872186000E+03  0.00000000000E+00 0.  1.
         21   -1    0    0  501  503 -0.00000000000E+00 -0.00000000000E+00 -0.69842338940E+03  0.69842338940E+03  0.00000000000E+00 0.  1.
          6    1    1    2  501    0 -0.80198990565E+02  0.56764482957E+02 -0.59426010717E+03  0.62668026903E+03  0.17300000000E+03 0.  1.
         -6    1    1    2    0  502  0.80198990565E+02 -0.56764482957E+02  0.24558577767E+02  0.20046498037E+03  0.17300000000E+03 0.  1.
<mgrwt>
<rscale>  2 0.19895498E+03</rscale>
<asrwt>0</asrwt>
<pdfrwt beam="1">  1       21 0.19803363E-01 0.19895498E+03</pdfrwt>
<pdfrwt beam="2">  1       21 0.10744975E+00 0.19895498E+03</pdfrwt>
<totfact> 0.16184665E+04</totfact>
</mgrwt>
</event>
<event>
 4    1  0.3973261E+000  0.1766161E+03  0.7546771E-02  0.1171119E+00
         21   -1    0    0  501  502  0.00000000000E+00  0.00000000000E+00  0.75158212465E+02  0.75158212465E+02  0.00000000000E+00 0.  1.
         21   -1    0    0  502  503 -0.00000000000E+00 -0.00000000000E+00 -0.54465543329E+03  0.54465543329E+03  0.00000000000E+00 0.  1.
          6    1    1    2  501    0 -0.24709499282E+02  0.25567449742E+02 -0.83563949844E+02  0.19538727583E+03  0.17300000000E+03 0. -1.
         -6    1    1    2    0  503  0.24709499282E+02 -0.25567449742E+02 -0.38593327098E+03  0.42442636992E+03  0.17300000000E+03 0. -1.
<mgrwt>
<rscale>  2 0.17661612E+03</rscale>
<asrwt>0</asrwt>
<pdfrwt beam="1">  1       21 0.11562802E-01 0.17661612E+03</pdfrwt>
<pdfrwt beam="2">  1       21 0.83793143E-01 0.17661612E+03</pdfrwt>
<totfact> 0.78170510E+04</totfact>
</mgrwt>
</event>
<event>
 4    1  0.3973261E+000  0.1763457E+03  0.7546771E-02  0.1171387E+00
         21   -1    0    0  503  502  0.00000000000E+00  0.00000000000E+00  0.48010858300E+03  0.48010858300E+03  0.00000000000E+00 0.  1.
         21   -1    0    0  501  503 -0.00000000000E+00 -0.00000000000E+00 -0.64889833121E+02  0.64889833121E+02  0.00000000000E+00 0.  1.
          6    1    1    2  501    0  0.94638008697E+01  0.32851964925E+02  0.21919866564E+03  0.28132875812E+03  0.17300000000E+03 0.  1.
         -6    1    1    2    0  502 -0.94638008697E+01 -0.32851964925E+02  0.19602008424E+03  0.26366965800E+03  0.17300000000E+03 0.  1.
<mgrwt>
<rscale>  2 0.17634573E+03</rscale>
<asrwt>0</asrwt>
<pdfrwt beam="1">  1       21 0.73862856E-01 0.17634573E+03</pdfrwt>
<pdfrwt beam="2">  1       21 0.99830516E-02 0.17634573E+03</pdfrwt>
<totfact> 0.13466119E+05</totfact>
</mgrwt>
</event>
<event>
 4    1  0.3973261E+000  0.2076248E+03  0.7546771E-02  0.1143461E+00
         21   -1    0    0  503  502  0.00000000000E+00  0.00000000000E+00  0.95476203112E+03  0.95476203112E+03  0.00000000000E+00 0. -1.
         21   -1    0    0  501  503 -0.00000000000E+00 -0.00000000000E+00 -0.81657135112E+02  0.81657135112E+02  0.00000000000E+00 0. -1.
          6    1    1    2  501    0  0.65769494986E+02  0.94092689155E+02  0.90059986709E+02  0.22631584529E+03  0.17300000000E+03 0. -1.
         -6    1    1    2    0  502 -0.65769494986E+02 -0.94092689155E+02  0.78304490930E+03  0.81010332094E+03  0.17300000000E+03 0. -1.
<mgrwt>
<rscale>  2 0.20762481E+03</rscale>
<asrwt>0</asrwt>
<pdfrwt beam="1">  1       21 0.14688646E+00 0.20762481E+03</pdfrwt>
<pdfrwt beam="2">  1       21 0.12562637E-01 0.20762481E+03</pdfrwt>
<totfact> 0.16897957E+04</totfact>
</mgrwt>
</event>
<event>
 4    1  0.3973261E+000  0.2484026E+03  0.7546771E-02  0.1114319E+00
         21   -1    0    0  503  502  0.00000000000E+00  0.00000000000E+00  0.79088167193E+03  0.79088167193E+03  0.00000000000E+00 0.  1.
         21   -1    0    0  501  503 -0.00000000000E+00 -0.00000000000E+00 -0.78978261380E+02  0.78978261380E+02  0.00000000000E+00 0. -1.
          6    1    1    2  501    0 -0.16192888838E+03  0.74524468015E+02  0.30802079361E+03  0.39570275526E+03  0.17300000000E+03 0. -1.
         -6    1    1    2    0  502  0.16192888838E+03 -0.74524468015E+02  0.40388261695E+03  0.47415717805E+03  0.17300000000E+03 0.  1.
<mgrwt>
<rscale>  2 0.24840262E+03</rscale>
<asrwt>0</asrwt>
<pdfrwt beam="1">  1       21 0.12167410E+00 0.24840262E+03</pdfrwt>
<pdfrwt beam="2">  1       21 0.12150502E-01 0.24840262E+03</pdfrwt>
<totfact> 0.28403104E+04</totfact>
</mgrwt>
</event>
<event>
 4    1  0.3973261E+000  0.1976153E+03  0.7546771E-02  0.1151767E+00
         21   -1    0    0  503  502  0.00000000000E+00  0.00000000000E+00  0.35382886757E+03  0.35382886757E+03  0.00000000000E+00 0. -1.
         21   -1    0    0  501  503 -0.00000000000E+00 -0.00000000000E+00 -0.30046173157E+03  0.30046173157E+03  0.00000000000E+00 0. -1.
          6    1    1    2  501    0  0.93631834344E+02 -0.18864613139E+02 -0.23352924497E+03  0.30592107199E+03  0.17300000000E+03 0. -1.
         -6    1    1    2    0  502 -0.93631834344E+02  0.18864613139E+02  0.28689638097E+03  0.34836952715E+03  0.17300000000E+03 0. -1.
<mgrwt>
<rscale>  2 0.19761527E+03</rscale>
<asrwt>0</asrwt>
<pdfrwt beam="1">  1       21 0.54435211E-01 0.19761527E+03</pdfrwt>
<pdfrwt beam="2">  1       21 0.46224882E-01 0.19761527E+03</pdfrwt>
<totfact> 0.14249091E+04</totfact>
</mgrwt>
</event>
<event>
 4    1  0.3973261E+000  0.1821593E+03  0.7546771E-02  0.1165730E+00
         21   -1    0    0  503  502  0.00000000000E+00  0.00000000000E+00  0.58188384137E+03  0.58188384137E+03  0.00000000000E+00 0.  1.
         21   -1    0    0  501  503 -0.00000000000E+00 -0.00000000000E+00 -0.15241862577E+03  0.15241862577E+03  0.00000000000E+00 0.  1.
          6    1    1    2  501    0 -0.27372383335E+02 -0.50037468503E+02 -0.75726752624E+02  0.19727274694E+03  0.17300000000E+03 0.  1.
         -6    1    1    2    0  502  0.27372383335E+02  0.50037468503E+02  0.50519196822E+03  0.53702972020E+03  0.17300000000E+03 0.  1.
<mgrwt>
<rscale>  2 0.18215926E+03</rscale>
<asrwt>0</asrwt>
<pdfrwt beam="1">  1       21 0.89520590E-01 0.18215926E+03</pdfrwt>
<pdfrwt beam="2">  1       21 0.23449020E-01 0.18215926E+03</pdfrwt>
<totfact> 0.18317828E+04</totfact>
</mgrwt>
</event>
<event>
 4    1  0.3973261E+000  0.1784064E+03  0.7546771E-02  0.1169354E+00
         21   -1    0    0  501  502  0.00000000000E+00  0.00000000000E+00  0.12598322308E+04  0.12598322308E+04  0.00000000000E+00 0. -1.
         21   -1    0    0  502  503 -0.00000000000E+00 -0.00000000000E+00 -0.76402542839E+02  0.76402542839E+02  0.00000000000E+00 0. -1.
          6    1    1    2  501    0 -0.88231890263E+01  0.42684649919E+02  0.11383173320E+04  0.11522131644E+04  0.17300000000E+03 0. -1.
         -6    1    1    2    0  503  0.88231890263E+01 -0.42684649919E+02  0.45112356019E+02  0.18402160924E+03  0.17300000000E+03 0. -1.
<mgrwt>
<rscale>  2 0.17840636E+03</rscale>
<asrwt>0</asrwt>
<pdfrwt beam="1">  1       21 0.19382033E+00 0.17840636E+03</pdfrwt>
<pdfrwt beam="2">  1       21 0.11754238E-01 0.17840636E+03</pdfrwt>
<totfact> 0.90759139E+03</totfact>
</mgrwt>
</event>
<event>
 4    1  0.3973261E+000  0.1832614E+03  0.7546771E-02  0.1164683E+00
         21   -1    0    0  503  502  0.00000000000E+00  0.00000000000E+00  0.10588579812E+04  0.10588579812E+04  0.00000000000E+00 0.  1.
         21   -1    0    0  501  503 -0.00000000000E+00 -0.00000000000E+00 -0.53672638516E+02  0.53672638516E+02  0.00000000000E+00 0.  1.
          6    1    1    2  501    0 -0.36563064011E+02  0.48154680012E+02  0.14682225485E+03  0.23482228467E+03  0.17300000000E+03 0.  1.
         -6    1    1    2    0  502  0.36563064011E+02 -0.48154680012E+02  0.85836308781E+03  0.87770833503E+03  0.17300000000E+03 0.  1.
<mgrwt>
<rscale>  2 0.18326137E+03</rscale>
<asrwt>0</asrwt>
<pdfrwt beam="1">  1       21 0.16290121E+00 0.18326137E+03</pdfrwt>
<pdfrwt beam="2">  1       21 0.82573298E-02 0.18326137E+03</pdfrwt>
<totfact> 0.27394797E+04</totfact>
</mgrwt>
</event>
<event>
 4    1  0.3973261E+000  0.1755628E+03  0.7546771E-02  0.1172168E+00
         21   -1    0    0  503  502  0.00000000000E+00  0.00000000000E+00  0.47900665491E+03  0.47900665491E+03  0.00000000000E+00 0. -1.
         21   -1    0    0  501  503 -0.00000000000E+00 -0.00000000000E+00 -0.88393357363E+02  0.88393357363E+02  0.00000000000E+00 0. -1.
          6    1    1    2  501    0  0.11297549680E+02 -0.27670521796E+02  0.47334236155E+02  0.18183185177E+03  0.17300000000E+03 0. -1.
         -6    1    1    2    0  502 -0.11297549680E+02  0.27670521796E+02  0.34327906140E+03  0.38556816051E+03  0.17300000000E+03 0. -1.
<mgrwt>
<rscale>  2 0.17556279E+03</rscale>
<asrwt>0</asrwt>
<pdfrwt beam="1">  1       21 0.73693330E-01 0.17556279E+03</pdfrwt>
<pdfrwt beam="2">  1       21 0.13598978E-01 0.17556279E+03</pdfrwt>
<totfact> 0.78053729E+04</totfact>
</mgrwt>
</event>
<event>
 4    1  0.3973261E+000  0.2098320E+03  0.7546771E-02  0.1141699E+00
         21   -1    0    0  503  502  0.00000000000E+00  0.00000000000E+00  0.78468236902E+02  0.78468236902E+02  0.00000000000E+00 0.  1.
         21   -1    0    0  501  503 -0.00000000000E+00 -0.00000000000E+00 -0.56414430011E+03  0.56414430011E+03  0.00000000000E+00 0. -1.
          6    1    1    2  501    0  0.11841457271E+03 -0.88564564187E+01 -0.26639556429E+03  0.33911066708E+03  0.17300000000E+03 0. -1.
         -6    1    1    2    0  502 -0.11841457271E+03  0.88564564187E+01 -0.21928049892E+03  0.30350186994E+03  0.17300000000E+03 0.  1.
<mgrwt>
<rscale>  2 0.20983195E+03</rscale>
<asrwt>0</asrwt>
<pdfrwt beam="1">  1       21 0.12072037E-01 0.20983195E+03</pdfrwt>
<pdfrwt beam="2">  1       21 0.86791427E-01 0.20983195E+03</pdfrwt>
<totfact> 0.65788691E+04</totfact>
</mgrwt>
</event>
<event>
 4    1  0.3973261E+000  0.3848660E+03  0.7546771E-02  0.1049150E+00
         21   -1    0    0  503  502  0.00000000000E+00  0.00000000000E+00  0.46569554820E+02  0.46569554820E+02  0.00000000000E+00 0.  1.
         21   -1    0    0  501  503 -0.00000000000E+00 -0.00000000000E+00 -0.35387302052E+04  0.35387302052E+04  0.00000000000E+00 0. -1.
          6    1    1    2  501    0  0.32904988615E+02 -0.34221356882E+03 -0.23163188601E+04  0.23480747277E+04  0.17300000000E+03 0. -1.
         -6    1    1    2    0  502 -0.32904988615E+02  0.34221356882E+03 -0.11758417902E+04  0.12372250323E+04  0.17300000000E+03 0.  1.
<mgrwt>
<rscale>  2 0.38486604E+03</rscale>
<asrwt>0</asrwt>
<pdfrwt beam="1">  1       21 0.71645470E-02 0.38486604E+03</pdfrwt>
<pdfrwt beam="2">  1       21 0.54442002E+00 0.38486604E+03</pdfrwt>
<totfact> 0.10415581E+02</totfact>
</mgrwt>
</event>
<event>
 4    1  0.3973261E+000  0.1878473E+03  0.7546771E-02  0.1160417E+00
         21   -1    0    0  501  502  0.00000000000E+00  0.00000000000E+00  0.68222219429E+03  0.68222219429E+03  0.00000000000E+00 0.  1.
         21   -1    0    0  502  503 -0.00000000000E+00 -0.00000000000E+00 -0.54343565670E+02  0.54343565670E+02  0.00000000000E+00 0. -1.
          6    1    1    2  501    0  0.48866846866E+02 -0.54494247931E+02  0.39481228249E+03  0.43722228921E+03  0.17300000000E+03 0.  1.
         -6    1    1    2    0  503 -0.48866846866E+02  0.54494247931E+02  0.23306634613E+03  0.29934347075E+03  0.17300000000E+03 0. -1.
<mgrwt>
<rscale>  2 0.18784726E+03</rscale>
<asrwt>0</asrwt>
<pdfrwt beam="1">  1       21 0.10495725E+00 0.18784726E+03</pdfrwt>
<pdfrwt beam="2">  1       21 0.83605491E-02 0.18784726E+03</pdfrwt>
<totfact> 0.81442174E+04</totfact>
</mgrwt>
</event>
<event>
 4    1  0.3973261E+000  0.2146484E+03  0.7546771E-02  0.1137937E+00
         21   -1    0    0  503  502  0.00000000000E+00  0.00000000000E+00  0.29266492067E+03  0.29266492067E+03  0.00000000000E+00 0. -1.
         21   -1    0    0  501  503 -0.00000000000E+00 -0.00000000000E+00 -0.17094882139E+03  0.17094882139E+03  0.00000000000E+00 0.  1.
          6    1    1    2  501    0  0.12696203462E+03  0.50576894292E+01 -0.43316723878E+01  0.21469210941E+03  0.17300000000E+03 0.  1.
         -6    1    1    2    0  502 -0.12696203462E+03 -0.50576894292E+01  0.12604777167E+03  0.24892163265E+03  0.17300000000E+03 0. -1.
<mgrwt>
<rscale>  2 0.21464841E+03</rscale>
<asrwt>0</asrwt>
<pdfrwt beam="1">  1       21 0.45025372E-01 0.21464841E+03</pdfrwt>
<pdfrwt beam="2">  1       21 0.26299819E-01 0.21464841E+03</pdfrwt>
<totfact> 0.64423949E+04</totfact>
</mgrwt>
</event>
<event>
 4    1  0.3973261E+000  0.1897095E+03  0.7546771E-02  0.1158724E+00
         21   -1    0    0  501  502  0.00000000000E+00  0.00000000000E+00  0.52808441716E+03  0.52808441716E+03  0.00000000000E+00 0. -1.
         21   -1    0    0  502  503 -0.00000000000E+00 -0.00000000000E+00 -0.79468911877E+02  0.79468911877E+02  0.00000000000E+00 0.  1.
          6    1    1    2  501    0 -0.77290639554E+02  0.93200366200E+01  0.33894632204E+03  0.38842543077E+03  0.17300000000E+03 0. -1.
         -6    1    1    2    0  503  0.77290639554E+02 -0.93200366200E+01  0.10966918324E+03  0.21912789827E+03  0.17300000000E+03 0.  1.
<mgrwt>
<rscale>  2 0.18970953E+03</rscale>
<asrwt>0</asrwt>
<pdfrwt beam="1">  1       21 0.81243754E-01 0.18970953E+03</pdfrwt>
<pdfrwt beam="2">  1       21 0.12225987E-01 0.18970953E+03</pdfrwt>
<totfact> 0.75475411E+04</totfact>
</mgrwt>
</event>
<event>
 4    1  0.3973261E+000  0.1773049E+03  0.7546771E-02  0.1170437E+00
         21   -1    0    0  501  502  0.00000000000E+00  0.00000000000E+00  0.38006657360E+03  0.38006657360E+03  0.00000000000E+00 0. -1.
         21   -1    0    0  502  503 -0.00000000000E+00 -0.00000000000E+00 -0.11355804470E+03  0.11355804470E+03  0.00000000000E+00 0. -1.
          6    1    1    2  501    0 -0.31104221636E+02  0.23249495155E+02  0.26188362072E+03  0.31625945429E+03  0.17300000000E+03 0. -1.
         -6    1    1    2    0  503  0.31104221636E+02 -0.23249495155E+02  0.46249081925E+01  0.17736516401E+03  0.17300000000E+03 0. -1.
<mgrwt>
<rscale>  2 0.17730486E+03</rscale>
<asrwt>0</asrwt>
<pdfrwt beam="1">  1       21 0.58471780E-01 0.17730486E+03</pdfrwt>
<pdfrwt beam="2">  1       21 0.17470469E-01 0.17730486E+03</pdfrwt>
<totfact> 0.81756542E+04</totfact>
</mgrwt>
</event>
<event>
 4    1  0.3973261E+000  0.1800221E+03  0.7546771E-02  0.1167782E+00
         21   -1    0    0  503  502  0.00000000000E+00  0.00000000000E+00  0.15185556522E+04  0.15185556522E+04  0.00000000000E+00 0.  1.
         21   -1    0    0  501  503 -0.00000000000E+00 -0.00000000000E+00 -0.21354167320E+02  0.21354167320E+02  0.00000000000E+00 0.  1.
          6    1    1    2  501    0  0.39036812248E+02  0.30904514024E+02  0.72970528777E+03  0.75158350747E+03  0.17300000000E+03 0.  1.
         -6    1    1    2    0  502 -0.39036812248E+02 -0.30904514024E+02  0.76749619716E+03  0.78832631210E+03  0.17300000000E+03 0.  1.
<mgrwt>
<rscale>  2 0.18002211E+03</rscale>
<asrwt>0</asrwt>
<pdfrwt beam="1">  1       21 0.23362386E+00 0.18002211E+03</pdfrwt>
<pdfrwt beam="2">  1       21 0.32852577E-02 0.18002211E+03</pdfrwt>
<totfact> 0.45698781E+04</totfact>
</mgrwt>
</event>
<event>
 4    1  0.3973261E+000  0.2118497E+03  0.7546771E-02  0.1140110E+00
         21   -1    0    0  501  502  0.00000000000E+00  0.00000000000E+00  0.95398891216E+02  0.95398891216E+02  0.00000000000E+00 0.  1.
         21   -1    0    0  502  503 -0.00000000000E+00 -0.00000000000E+00 -0.60185970591E+03  0.60185970591E+03  0.00000000000E+00 0.  1.
          6    1    1    2  501    0  0.11748708085E+03 -0.33883231380E+02 -0.90326289443E+02  0.23030224944E+03  0.17300000000E+03 0.  1.
         -6    1    1    2    0  503 -0.11748708085E+03  0.33883231380E+02 -0.41613452525E+03  0.46695634768E+03  0.17300000000E+03 0.  1.
<mgrwt>
<rscale>  2 0.21184968E+03</rscale>
<asrwt>0</asrwt>
<pdfrwt beam="1">  1       21 0.14676753E-01 0.21184968E+03</pdfrwt>
<pdfrwt beam="2">  1       21 0.92593798E-01 0.21184968E+03</pdfrwt>
<totfact> 0.39737591E+04</totfact>
</mgrwt>
</event>
<event>
 4    1  0.3973261E+000  0.2340625E+03  0.7546771E-02  0.1123813E+00
         21   -1    0    0  503  502  0.00000000000E+00  0.00000000000E+00  0.27254903995E+03  0.27254903995E+03  0.00000000000E+00 0.  1.
         21   -1    0    0  501  503 -0.00000000000E+00 -0.00000000000E+00 -0.25216905072E+03  0.25216905072E+03  0.00000000000E+00 0.  1.
          6    1    1    2  501    0  0.61920652491E+02  0.14498996753E+03 -0.10798039235E+03  0.25776932133E+03  0.17300000000E+03 0.  1.
         -6    1    1    2    0  502 -0.61920652491E+02 -0.14498996753E+03  0.12836038159E+03  0.26694876934E+03  0.17300000000E+03 0.  1.
<mgrwt>
<rscale>  2 0.23406251E+03</rscale>
<asrwt>0</asrwt>
<pdfrwt beam="1">  1       21 0.41930622E-01 0.23406251E+03</pdfrwt>
<pdfrwt beam="2">  1       21 0.38795239E-01 0.23406251E+03</pdfrwt>
<totfact> 0.34351346E+04</totfact>
</mgrwt>
</event>
<event>
 4    1  0.3973261E+000  0.1756640E+03  0.7546771E-02  0.1172067E+00
         21   -1    0    0  501  502  0.00000000000E+00  0.00000000000E+00  0.61358978765E+02  0.61358978765E+02  0.00000000000E+00 0. -1.
         21   -1    0    0  502  503 -0.00000000000E+00 -0.00000000000E+00 -0.94281590933E+03  0.94281590933E+03  0.00000000000E+00 0. -1.
          6    1    1    2  501    0  0.27131029889E+02  0.13883403331E+02 -0.97765334132E+02  0.20103706680E+03  0.17300000000E+03 0. -1.
         -6    1    1    2    0  503 -0.27131029889E+02 -0.13883403331E+02 -0.78369159643E+03  0.80313782129E+03  0.17300000000E+03 0. -1.
<mgrwt>
<rscale>  2 0.17566400E+03</rscale>
<asrwt>0</asrwt>
<pdfrwt beam="1">  1       21 0.94398440E-02 0.17566400E+03</pdfrwt>
<pdfrwt beam="2">  1       21 0.14504858E+00 0.17566400E+03</pdfrwt>
<totfact> 0.29631131E+04</totfact>
</mgrwt>
</event>
<event>
 4    1  0.3973261E+000  0.1825301E+03  0.7546771E-02  0.1165377E+00
         21   -1    0    0  503  502  0.00000000000E+00  0.00000000000E+00  0.39771171449E+03  0.39771171449E+03  0.00000000000E+00 0.  1.
         21   -1    0    0  501  503 -0.00000000000E+00 -0.00000000000E+00 -0.26438578835E+03  0.26438578835E+03  0.00000000000E+00 0.  1.
          6    1    1    2  501    0 -0.13016874850E+01  0.58194003592E+02 -0.20695711144E+03  0.27595014481E+03  0.17300000000E+03 0.  1.
         -6    1    1    2    0  502  0.13016874850E+01 -0.58194003592E+02  0.34028303759E+03  0.38614735803E+03  0.17300000000E+03 0.  1.
<mgrwt>
<rscale>  2 0.18253010E+03</rscale>
<asrwt>0</asrwt>
<pdfrwt beam="1">  1       21 0.61186418E-01 0.18253010E+03</pdfrwt>
<pdfrwt beam="2">  1       21 0.40674737E-01 0.18253010E+03</pdfrwt>
<totfact> 0.14560397E+04</totfact>
</mgrwt>
</event>
<event>
 4    1  0.3973261E+000  0.1880049E+03  0.7546771E-02  0.1160273E+00
         21   -1    0    0  503  502  0.00000000000E+00  0.00000000000E+00  0.25369398856E+03  0.25369398856E+03  0.00000000000E+00 0.  1.
         21   -1    0    0  501  503 -0.00000000000E+00 -0.00000000000E+00 -0.20335395128E+03  0.20335395128E+03  0.00000000000E+00 0.  1.
          6    1    1    2  501    0  0.10340512214E+02  0.72869118342E+02 -0.10306148087E+03  0.21440033451E+03  0.17300000000E+03 0.  1.
         -6    1    1    2    0  502 -0.10340512214E+02 -0.72869118342E+02  0.15340151814E+03  0.24264760532E+03  0.17300000000E+03 0.  1.
<mgrwt>
<rscale>  2 0.18800488E+03</rscale>
<asrwt>0</asrwt>
<pdfrwt beam="1">  1       21 0.39029844E-01 0.18800488E+03</pdfrwt>
<pdfrwt beam="2">  1       21 0.31285223E-01 0.18800488E+03</pdfrwt>
<totfact> 0.62266076E+04</totfact>
</mgrwt>
</event>
<event>
 4    1  0.3973261E+000  0.1779329E+03  0.7546771E-02  0.1169819E+00
         21   -1    0    0  503  502  0.00000000000E+00  0.00000000000E+00  0.36818267913E+03  0.36818267913E+03  0.00000000000E+00 0. -1.
         21   -1    0    0  501  503 -0.00000000000E+00 -0.00000000000E+00 -0.94760459001E+02  0.94760459001E+02  0.00000000000E+00 0. -1.
          6    1    1    2  501    0  0.14321766632E+02  0.39064310860E+02  0.66292379581E+02  0.18988104954E+03  0.17300000000E+03 0. -1.
         -6    1    1    2    0  502 -0.14321766632E+02 -0.39064310860E+02  0.20712984055E+03  0.27306208860E+03  0.17300000000E+03 0. -1.
<mgrwt>
<rscale>  2 0.17793295E+03</rscale>
<asrwt>0</asrwt>
<pdfrwt beam="1">  1       21 0.56643489E-01 0.17793295E+03</pdfrwt>
<pdfrwt beam="2">  1       21 0.14578532E-01 0.17793295E+03</pdfrwt>
<totfact> 0.12170770E+05</totfact>
</mgrwt>
</event>
<event>
 4    1  0.3973261E+000  0.2159060E+03  0.7546771E-02  0.1136973E+00
         21   -1    0    0  501  502  0.00000000000E+00  0.00000000000E+00  0.75510026639E+02  0.75510026639E+02  0.00000000000E+00 0.  1.
         21   -1    0    0  502  503 -0.00000000000E+00 -0.00000000000E+00 -0.67268094145E+03  0.67268094145E+03  0.00000000000E+00 0.  1.
          6    1    1    2  501    0  0.96817139064E+02 -0.85515214442E+02 -0.19128574630E+03  0.28845389069E+03  0.17300000000E+03 0.  1.
         -6    1    1    2    0  503 -0.96817139064E+02  0.85515214442E+02 -0.40588516851E+03  0.45973707740E+03  0.17300000000E+03 0.  1.
<mgrwt>
<rscale>  2 0.21590602E+03</rscale>
<asrwt>0</asrwt>
<pdfrwt beam="1">  1       21 0.11616927E-01 0.21590602E+03</pdfrwt>
<pdfrwt beam="2">  1       21 0.10348938E+00 0.21590602E+03</pdfrwt>
<totfact> 0.46480754E+04</totfact>
</mgrwt>
</event>
<event>
 4    1  0.3973261E+000  0.2712897E+03  0.7546771E-02  0.1100544E+00
         21   -1    0    0  501  502  0.00000000000E+00  0.00000000000E+00  0.10180279781E+03  0.10180279781E+03  0.00000000000E+00 0.  1.
         21   -1    0    0  502  503 -0.00000000000E+00 -0.00000000000E+00 -0.81174886228E+03  0.81174886228E+03  0.00000000000E+00 0. -1.
          6    1    1    2  501    0  0.18786868578E+03 -0.91512207683E+02 -0.20389514372E+03  0.33936905705E+03  0.17300000000E+03 0. -1.
         -6    1    1    2    0  503 -0.18786868578E+03  0.91512207683E+02 -0.50605092075E+03  0.57418260305E+03  0.17300000000E+03 0.  1.
<mgrwt>
<rscale>  2 0.27128975E+03</rscale>
<asrwt>0</asrwt>
<pdfrwt beam="1">  1       21 0.15661969E-01 0.27128975E+03</pdfrwt>
<pdfrwt beam="2">  1       21 0.12488444E+00 0.27128975E+03</pdfrwt>
<totfact> 0.16565941E+04</totfact>
</mgrwt>
</event>
<event>
 4    1  0.3973261E+000  0.3820014E+03  0.7546771E-02  0.1050196E+00
         21   -1    0    0  503  502  0.00000000000E+00  0.00000000000E+00  0.22491193912E+03  0.22491193912E+03  0.00000000000E+00 0.  1.
         21   -1    0    0  501  503 -0.00000000000E+00 -0.00000000000E+00 -0.81701545722E+03  0.81701545722E+03  0.00000000000E+00 0.  1.
          6    1    1    2  501    0 -0.30406032685E+03 -0.15343857410E+03 -0.53243276560E+03  0.65529361989E+03  0.17300000000E+03 0.  1.
         -6    1    1    2    0  502  0.30406032685E+03  0.15343857410E+03 -0.59670752498E+02  0.38663377645E+03  0.17300000000E+03 0.  1.
<mgrwt>
<rscale>  2 0.38200141E+03</rscale>
<asrwt>0</asrwt>
<pdfrwt beam="1">  1       21 0.34601838E-01 0.38200141E+03</pdfrwt>
<pdfrwt beam="2">  1       21 0.12569468E+00 0.38200141E+03</pdfrwt>
<totfact> 0.33773058E+03</totfact>
</mgrwt>
</event>
<event>
 4    1  0.3973261E+000  0.2282816E+03  0.7546771E-02  0.1127855E+00
         21   -1    0    0  501  502  0.00000000000E+00  0.00000000000E+00  0.64016831707E+02  0.64016831707E+02  0.00000000000E+00 0.  1.
         21   -1    0    0  502  503 -0.00000000000E+00 -0.00000000000E+00 -0.82512232268E+03  0.82512232268E+03  0.00000000000E+00 0.  1.
          6    1    1    2  501    0  0.14158645263E+03  0.46225052001E+02 -0.43206723979E+03  0.48866612191E+03  0.17300000000E+03 0.  1.
         -6    1    1    2    0  503 -0.14158645263E+03 -0.46225052001E+02 -0.32903825119E+03  0.40047303249E+03  0.17300000000E+03 0.  1.
<mgrwt>
<rscale>  2 0.22828158E+03</rscale>
<asrwt>0</asrwt>
<pdfrwt beam="1">  1       21 0.98487432E-02 0.22828158E+03</pdfrwt>
<pdfrwt beam="2">  1       21 0.12694190E+00 0.22828158E+03</pdfrwt>
<totfact> 0.37519378E+04</totfact>
</mgrwt>
</event>
<event>
 4    1  0.3973261E+000  0.1869874E+03  0.7546771E-02  0.1161207E+00
         21   -1    0    0  503  502  0.00000000000E+00  0.00000000000E+00  0.54640771385E+03  0.54640771385E+03  0.00000000000E+00 0.  1.
         21   -1    0    0  501  503 -0.00000000000E+00 -0.00000000000E+00 -0.64879520774E+02  0.64879520774E+02  0.00000000000E+00 0. -1.
          6    1    1    2  501    0  0.41382987570E+02  0.57643291085E+02  0.20496381247E+03  0.27744272398E+03  0.17300000000E+03 0.  1.
         -6    1    1    2    0  502 -0.41382987570E+02 -0.57643291085E+02  0.27656438061E+03  0.33384451065E+03  0.17300000000E+03 0. -1.
<mgrwt>
<rscale>  2 0.18698743E+03</rscale>
<asrwt>0</asrwt>
<pdfrwt beam="1">  1       21 0.84062722E-01 0.18698743E+03</pdfrwt>
<pdfrwt beam="2">  1       21 0.99814651E-02 0.18698743E+03</pdfrwt>
<totfact> 0.10027934E+05</totfact>
</mgrwt>
</event>
<event>
 4    1  0.3973261E+000  0.3087656E+03  0.7546771E-02  0.1080939E+00
         21   -1    0    0  503  502  0.00000000000E+00  0.00000000000E+00  0.11601290221E+03  0.11601290221E+03  0.00000000000E+00 0. -1.
         21   -1    0    0  501  503 -0.00000000000E+00 -0.00000000000E+00 -0.84687773644E+03  0.84687773644E+03  0.00000000000E+00 0. -1.
          6    1    1    2  501    0  0.25567255398E+03  0.62238164240E+01 -0.44832590315E+03  0.54436413014E+03  0.17300000000E+03 0. -1.
         -6    1    1    2    0  502 -0.25567255398E+03 -0.62238164240E+01 -0.28253893109E+03  0.41852650851E+03  0.17300000000E+03 0. -1.
<mgrwt>
<rscale>  2 0.30876559E+03</rscale>
<asrwt>0</asrwt>
<pdfrwt beam="1">  1       21 0.17848140E-01 0.30876559E+03</pdfrwt>
<pdfrwt beam="2">  1       21 0.13028888E+00 0.30876559E+03</pdfrwt>
<totfact> 0.11466513E+04</totfact>
</mgrwt>
</event>
<event>
 4    1  0.3973261E+000  0.1875769E+03  0.7546771E-02  0.1160665E+00
         21   -1    0    0  501  502  0.00000000000E+00  0.00000000000E+00  0.14572745128E+03  0.14572745128E+03  0.00000000000E+00 0.  1.
         21   -1    0    0  502  503 -0.00000000000E+00 -0.00000000000E+00 -0.48521744828E+03  0.48521744828E+03  0.00000000000E+00 0. -1.
          6    1    1    2  501    0  0.12105799741E+02  0.71481024958E+02  0.53862320570E+02  0.19515695451E+03  0.17300000000E+03 0.  1.
         -6    1    1    2    0  503 -0.12105799741E+02 -0.71481024958E+02 -0.39335231757E+03  0.43578794505E+03  0.17300000000E+03 0. -1.
<mgrwt>
<rscale>  2 0.18757688E+03</rscale>
<asrwt>0</asrwt>
<pdfrwt beam="1">  1       21 0.22419608E-01 0.18757688E+03</pdfrwt>
<pdfrwt beam="2">  1       21 0.74648838E-01 0.18757688E+03</pdfrwt>
<totfact> 0.30010560E+04</totfact>
</mgrwt>
</event>
<event>
 4    1  0.3973261E+000  0.1796132E+03  0.7546771E-02  0.1168178E+00
         21   -1    0    0  503  502  0.00000000000E+00  0.00000000000E+00  0.40973517584E+03  0.40973517584E+03  0.00000000000E+00 0. -1.
         21   -1    0    0  501  503 -0.00000000000E+00 -0.00000000000E+00 -0.91536088454E+02  0.91536088454E+02  0.00000000000E+00 0. -1.
          6    1    1    2  501    0  0.29629695564E+02 -0.38130896263E+02  0.65374824849E+02  0.19114065981E+03  0.17300000000E+03 0. -1.
         -6    1    1    2    0  502 -0.29629695564E+02  0.38130896263E+02  0.25282426254E+03  0.31013060448E+03  0.17300000000E+03 0. -1.
<mgrwt>
<rscale>  2 0.17961315E+03</rscale>
<asrwt>0</asrwt>
<pdfrwt beam="1">  1       21 0.63036180E-01 0.17961315E+03</pdfrwt>
<pdfrwt beam="2">  1       21 0.14082475E-01 0.17961315E+03</pdfrwt>
<totfact> 0.10299631E+05</totfact>
</mgrwt>
</event>
<event>
 4    1  0.3973261E+000  0.1927446E+03  0.7546771E-02  0.1156009E+00
         21   -1    0    0  501  502  0.00000000000E+00  0.00000000000E+00  0.45840180186E+02  0.45840180186E+02  0.00000000000E+00 0.  1.
         21   -1    0    0  502  503 -0.00000000000E+00 -0.00000000000E+00 -0.99553725607E+03  0.99553725607E+03  0.00000000000E+00 0.  1.
          6    1    1    2  501    0 -0.11482651784E+01  0.84971517132E+02 -0.25032829657E+03  0.31593469784E+03  0.17300000000E+03 0.  1.
         -6    1    1    2    0  503  0.11482651784E+01 -0.84971517132E+02 -0.69936877932E+03  0.72544273841E+03  0.17300000000E+03 0.  1.
<mgrwt>
<rscale>  2 0.19274459E+03</rscale>
<asrwt>0</asrwt>
<pdfrwt beam="1">  1       21 0.70523353E-02 0.19274459E+03</pdfrwt>
<pdfrwt beam="2">  1       21 0.15315958E+00 0.19274459E+03</pdfrwt>
<totfact> 0.42245409E+04</totfact>
</mgrwt>
</event>
<event>
 4    1  0.3973261E+000  0.1823029E+03  0.7546771E-02  0.1165593E+00
         21   -1    0    0  501  502  0.00000000000E+00  0.00000000000E+00  0.46501951370E+02  0.46501951370E+02  0.00000000000E+00 0. -1.
         21   -1    0    0  502  503 -0.00000000000E+00 -0.00000000000E+00 -0.96682360512E+03  0.96682360512E+03  0.00000000000E+00 0. -1.
          6    1    1    2  501    0 -0.50200728244E+02  0.28022276933E+02 -0.20142120500E+03  0.27167050437E+03  0.17300000000E+03 0. -1.
         -6    1    1    2    0  503  0.50200728244E+02 -0.28022276933E+02 -0.71890044875E+03  0.74165505212E+03  0.17300000000E+03 0. -1.
<mgrwt>
<rscale>  2 0.18230294E+03</rscale>
<asrwt>0</asrwt>
<pdfrwt beam="1">  1       21 0.71541469E-02 0.18230294E+03</pdfrwt>
<pdfrwt beam="2">  1       21 0.14874208E+00 0.18230294E+03</pdfrwt>
<totfact> 0.44782218E+04</totfact>
</mgrwt>
</event>
<event>
 4    1  0.3973261E+000  0.2437052E+03  0.7546771E-02  0.1117349E+00
         21   -1    0    0  501  502  0.00000000000E+00  0.00000000000E+00  0.13593919232E+03  0.13593919232E+03  0.00000000000E+00 0. -1.
         21   -1    0    0  502  503 -0.00000000000E+00 -0.00000000000E+00 -0.43852454398E+03  0.43852454398E+03  0.00000000000E+00 0. -1.
          6    1    1    2  501    0  0.16821547641E+03  0.34157786470E+02 -0.13382482414E+03  0.27803108538E+03  0.17300000000E+03 0. -1.
         -6    1    1    2    0  503 -0.16821547641E+03 -0.34157786470E+02 -0.16876052753E+03  0.29643265092E+03  0.17300000000E+03 0. -1.
<mgrwt>
<rscale>  2 0.24370515E+03</rscale>
<asrwt>0</asrwt>
<pdfrwt beam="1">  1       21 0.20913722E-01 0.24370515E+03</pdfrwt>
<pdfrwt beam="2">  1       21 0.67465313E-01 0.24370515E+03</pdfrwt>
<totfact> 0.41637576E+04</totfact>
</mgrwt>
</event>
<event>
 4    1  0.3973261E+000  0.1852269E+03  0.7546771E-02  0.1162838E+00
         21   -1    0    0  501  502  0.00000000000E+00  0.00000000000E+00  0.23948629233E+03  0.23948629233E+03  0.00000000000E+00 0. -1.
         21   -1    0    0  502  503 -0.00000000000E+00 -0.00000000000E+00 -0.18146070464E+03  0.18146070464E+03  0.00000000000E+00 0. -1.
          6    1    1    2  501    0 -0.17820159521E+02  0.63737256345E+02  0.12558169905E+03  0.22378507338E+03  0.17300000000E+03 0. -1.
         -6    1    1    2    0  503  0.17820159521E+02 -0.63737256345E+02 -0.67556111358E+02  0.19716192359E+03  0.17300000000E+03 0. -1.
<mgrwt>
<rscale>  2 0.18522688E+03</rscale>
<asrwt>0</asrwt>
<pdfrwt beam="1">  1       21 0.36844045E-01 0.18522688E+03</pdfrwt>
<pdfrwt beam="2">  1       21 0.27917031E-01 0.18522688E+03</pdfrwt>
<totfact> 0.87310667E+04</totfact>
</mgrwt>
</event>
<event>
 4    1  0.3973261E+000  0.1760417E+03  0.7546771E-02  0.1171690E+00
         21   -1    0    0  503  502  0.00000000000E+00  0.00000000000E+00  0.79661829840E+02  0.79661829840E+02  0.00000000000E+00 0. -1.
         21   -1    0    0  501  503 -0.00000000000E+00 -0.00000000000E+00 -0.38903413185E+03  0.38903413185E+03  0.00000000000E+00 0. -1.
          6    1    1    2  501    0 -0.10881539442E+02 -0.30712736179E+02 -0.15561870094E+03  0.23496352940E+03  0.17300000000E+03 0. -1.
         -6    1    1    2    0  502  0.10881539442E+02  0.30712736179E+02 -0.15375360107E+03  0.23373243229E+03  0.17300000000E+03 0. -1.
<mgrwt>
<rscale>  2 0.17604170E+03</rscale>
<asrwt>0</asrwt>
<pdfrwt beam="1">  1       21 0.12255666E-01 0.17604170E+03</pdfrwt>
<pdfrwt beam="2">  1       21 0.59851405E-01 0.17604170E+03</pdfrwt>
<totfact> 0.14802513E+05</totfact>
</mgrwt>
</event>
<event>
 4    1  0.3973261E+000  0.1921818E+03  0.7546771E-02  0.1156508E+00
         21   -1    0    0  501  502  0.00000000000E+00  0.00000000000E+00  0.34720123610E+02  0.34720123610E+02  0.00000000000E+00 0.  1.
         21   -1    0    0  502  503 -0.00000000000E+00 -0.00000000000E+00 -0.10641100010E+04  0.10641100010E+04  0.00000000000E+00 0.  1.
          6    1    1    2  501    0  0.35703040440E+02 -0.75697564767E+02 -0.50471015610E+03  0.54006126512E+03  0.17300000000E+03 0.  1.
         -6    1    1    2    0  503 -0.35703040440E+02  0.75697564767E+02 -0.52467972132E+03  0.55876885952E+03  0.17300000000E+03 0.  1.
<mgrwt>
<rscale>  2 0.19218176E+03</rscale>
<asrwt>0</asrwt>
<pdfrwt beam="1">  1       21 0.53415575E-02 0.19218176E+03</pdfrwt>
<pdfrwt beam="2">  1       21 0.16370923E+00 0.19218176E+03</pdfrwt>
<totfact> 0.56892851E+04</totfact>
</mgrwt>
</event>
<event>
 4    1  0.3973261E+000  0.1808367E+03  0.7546771E-02  0.1166996E+00
         21   -1    0    0  503  502  0.00000000000E+00  0.00000000000E+00  0.36042196497E+02  0.36042196497E+02  0.00000000000E+00 0. -1.
         21   -1    0    0  501  503 -0.00000000000E+00 -0.00000000000E+00 -0.16655063463E+04  0.16655063463E+04  0.00000000000E+00 0. -1.
          6    1    1    2  501    0  0.82248261652E+01  0.52012086006E+02 -0.13887538849E+04  0.14004782246E+04  0.17300000000E+03 0. -1.
         -6    1    1    2    0  502 -0.82248261652E+01 -0.52012086006E+02 -0.24071026498E+03  0.30107031824E+03  0.17300000000E+03 0. -1.
<mgrwt>
<rscale>  2 0.18083668E+03</rscale>
<asrwt>0</asrwt>
<pdfrwt beam="1">  1       21 0.55449536E-02 0.18083668E+03</pdfrwt>
<pdfrwt beam="2">  1       21 0.25623173E+00 0.18083668E+03</pdfrwt>
<totfact> 0.13947418E+04</totfact>
</mgrwt>
</event>
<event>
 4    1  0.3973261E+000  0.1972621E+03  0.7546771E-02  0.1152070E+00
         21   -1    0    0  501  502  0.00000000000E+00  0.00000000000E+00  0.15147305020E+03  0.15147305020E+03  0.00000000000E+00 0.  1.
         21   -1    0    0  502  503 -0.00000000000E+00 -0.00000000000E+00 -0.30751376946E+03  0.30751376946E+03  0.00000000000E+00 0. -1.
          6    1    1    2  501    0 -0.75850970698E+02  0.56832800703E+02  0.15091100301E+02  0.19783851571E+03  0.17300000000E+03 0.  1.
         -6    1    1    2    0  503  0.75850970698E+02 -0.56832800703E+02 -0.17113181956E+03  0.26114830395E+03  0.17300000000E+03 0.  1.
<mgrwt>
<rscale>  2 0.19726210E+03</rscale>
<asrwt>0</asrwt>
<pdfrwt beam="1">  1       21 0.23303546E-01 0.19726210E+03</pdfrwt>
<pdfrwt beam="2">  1       21 0.47309810E-01 0.19726210E+03</pdfrwt>
<totfact> 0.73850250E+04</totfact>
</mgrwt>
</event>
<event>
 4    1  0.3973261E+000  0.1841092E+03  0.7546771E-02  0.1163884E+00
         21   -1    0    0  503  502  0.00000000000E+00  0.00000000000E+00  0.11046844794E+04  0.11046844794E+04  0.00000000000E+00 0.  1.
         21   -1    0    0  501  503 -0.00000000000E+00 -0.00000000000E+00 -0.18104418517E+03  0.18104418517E+03  0.00000000000E+00 0.  1.
          6    1    1    2  501    0  0.49322845450E+02 -0.39172117808E+02 -0.12403923440E+03  0.22199533681E+03  0.17300000000E+03 0.  1.
         -6    1    1    2    0  502 -0.49322845450E+02  0.39172117808E+02  0.10476795286E+04  0.10637333278E+04  0.17300000000E+03 0.  1.
<mgrwt>
<rscale>  2 0.18410920E+03</rscale>
<asrwt>0</asrwt>
<pdfrwt beam="1">  1       21 0.16995145E+00 0.18410920E+03</pdfrwt>
<pdfrwt beam="2">  1       21 0.27852952E-01 0.18410920E+03</pdfrwt>
<totfact> 0.26502292E+03</totfact>
</mgrwt>
</event>
<event>
 4    1  0.3973261E+000  0.2126058E+03  0.7546771E-02  0.1139519E+00
         21   -1    0    0  501  502  0.00000000000E+00  0.00000000000E+00  0.71828039011E+03  0.71828039011E+03  0.00000000000E+00 0. -1.
         21   -1    0    0  502  503 -0.00000000000E+00 -0.00000000000E+00 -0.15640716814E+03  0.15640716814E+03  0.00000000000E+00 0.  1.
          6    1    1    2  501    0  0.60376285110E+02  0.10782825014E+03  0.61903874370E+03  0.65453051383E+03  0.17300000000E+03 0. -1.
         -6    1    1    2    0  503 -0.60376285110E+02 -0.10782825014E+03 -0.57165521735E+02  0.22015704442E+03  0.17300000000E+03 0.  1.
<mgrwt>
<rscale>  2 0.21260580E+03</rscale>
<asrwt>0</asrwt>
<pdfrwt beam="1">  1       21 0.11050467E+00 0.21260580E+03</pdfrwt>
<pdfrwt beam="2">  1       21 0.24062642E-01 0.21260580E+03</pdfrwt>
<totfact> 0.10377152E+04</totfact>
</mgrwt>
</event>
<event>
 4    1  0.3973261E+000  0.1912764E+03  0.7546771E-02  0.1157315E+00
         21   -1    0    0  501  502  0.00000000000E+00  0.00000000000E+00  0.41534560822E+03  0.41534560822E+03  0.00000000000E+00 0.  1.
         21   -1    0    0  502  503 -0.00000000000E+00 -0.00000000000E+00 -0.99811154253E+02  0.99811154253E+02  0.00000000000E+00 0.  1.
          6    1    1    2  501    0 -0.63858494104E+02  0.50791195207E+02  0.24604593863E+03  0.31164925268E+03  0.17300000000E+03 0.  1.
         -6    1    1    2    0  503  0.63858494104E+02 -0.50791195207E+02  0.69488515344E+02  0.20350750980E+03  0.17300000000E+03 0.  1.
<mgrwt>
<rscale>  2 0.19127638E+03</rscale>
<asrwt>0</asrwt>
<pdfrwt beam="1">  1       21 0.63899323E-01 0.19127638E+03</pdfrwt>
<pdfrwt beam="2">  1       21 0.15355562E-01 0.19127638E+03</pdfrwt>
<totfact> 0.85072589E+04</totfact>
</mgrwt>
</event>
<event>
 4    1  0.3973261E+000  0.1750368E+03  0.7546771E-02  0.1172695E+00
         21   -1    0    0  501  502  0.00000000000E+00  0.00000000000E+00  0.26882055097E+03  0.26882055097E+03  0.00000000000E+00 0.  1.
         21   -1    0    0  502  503 -0.00000000000E+00 -0.00000000000E+00 -0.11620068359E+03  0.11620068359E+03  0.00000000000E+00 0.  1.
          6    1    1    2  501    0 -0.17324838382E+02  0.20217510362E+02  0.10297344541E+03  0.20307985673E+03  0.17300000000E+03 0.  1.
         -6    1    1    2    0  503  0.17324838382E+02 -0.20217510362E+02  0.49646421975E+02  0.18194137783E+03  0.17300000000E+03 0.  1.
<mgrwt>
<rscale>  2 0.17503685E+03</rscale>
<asrwt>0</asrwt>
<pdfrwt beam="1">  1       21 0.41357008E-01 0.17503685E+03</pdfrwt>
<pdfrwt beam="2">  1       21 0.17877028E-01 0.17503685E+03</pdfrwt>
<totfact> 0.16097523E+05</totfact>
</mgrwt>
</event>
<event>
 4    1  0.3973261E+000  0.2202912E+03  0.7546771E-02  0.1133666E+00
         21   -1    0    0  501  502  0.00000000000E+00  0.00000000000E+00  0.58436282351E+03  0.58436282351E+03  0.00000000000E+00 0. -1.
         21   -1    0    0  502  503 -0.00000000000E+00 -0.00000000000E+00 -0.10540853694E+03  0.10540853694E+03  0.00000000000E+00 0. -1.
          6    1    1    2  501    0  0.12936162284E+03 -0.43182960810E+02  0.39833586246E+03  0.45519189018E+03  0.17300000000E+03 0. -1.
         -6    1    1    2    0  503 -0.12936162284E+03  0.43182960810E+02  0.80618424116E+02  0.23457947027E+03  0.17300000000E+03 0. -1.
<mgrwt>
<rscale>  2 0.22029117E+03</rscale>
<asrwt>0</asrwt>
<pdfrwt beam="1">  1       21 0.89901971E-01 0.22029117E+03</pdfrwt>
<pdfrwt beam="2">  1       21 0.16216698E-01 0.22029117E+03</pdfrwt>
<totfact> 0.35309274E+04</totfact>
</mgrwt>
</event>
<event>
 4    1  0.3973261E+000  0.1862424E+03  0.7546771E-02  0.1161895E+00
         21   -1    0    0  501  502  0.00000000000E+00  0.00000000000E+00  0.39735658868E+03  0.39735658868E+03  0.00000000000E+00 0.  1.
         21   -1    0    0  502  503 -0.00000000000E+00 -0.00000000000E+00 -0.94196486945E+02  0.94196486945E+02  0.00000000000E+00 0.  1.
          6    1    1    2  501    0  0.65565559125E+02 -0.21410339622E+02  0.21811861615E+03  0.28681348625E+03  0.17300000000E+03 0.  1.
         -6    1    1    2    0  503 -0.65565559125E+02  0.21410339622E+02  0.85041485590E+02  0.20473958937E+03  0.17300000000E+03 0.  1.
<mgrwt>
<rscale>  2 0.18624244E+03</rscale>
<asrwt>0</asrwt>
<pdfrwt beam="1">  1       21 0.61131782E-01 0.18624244E+03</pdfrwt>
<pdfrwt beam="2">  1       21 0.14491767E-01 0.18624244E+03</pdfrwt>
<totfact> 0.10421165E+05</totfact>
</mgrwt>
</event>
<event>
 4    1  0.3973261E+000  0.2518512E+03  0.7546771E-02  0.1112140E+00
         21   -1    0    0  501  502  0.00000000000E+00  0.00000000000E+00  0.95912044044E+02  0.95912044044E+02  0.00000000000E+00 0. -1.
         21   -1    0    0  502  503 -0.00000000000E+00 -0.00000000000E+00 -0.10646687124E+04  0.10646687124E+04  0.00000000000E+00 0. -1.
          6    1    1    2  501    0 -0.14092364426E+03  0.11679273394E+03 -0.12720760450E+03  0.28215384254E+03  0.17300000000E+03 0. -1.
         -6    1    1    2    0  503  0.14092364426E+03 -0.11679273394E+03 -0.84154906390E+03  0.87842691396E+03  0.17300000000E+03 0. -1.
<mgrwt>
<rscale>  2 0.25185118E+03</rscale>
<asrwt>0</asrwt>
<pdfrwt beam="1">  1       21 0.14755699E-01 0.25185118E+03</pdfrwt>
<pdfrwt beam="2">  1       21 0.16379519E+00 0.25185118E+03</pdfrwt>
<totfact> 0.91557997E+03</totfact>
</mgrwt>
</event>
<event>
 4    1  0.3973261E+000  0.1949146E+03  0.7546771E-02  0.1154102E+00
         21   -1    0    0  501  502  0.00000000000E+00  0.00000000000E+00  0.68722366451E+02  0.68722366451E+02  0.00000000000E+00 0.  1.
         21   -1    0    0  502  503 -0.00000000000E+00 -0.00000000000E+00 -0.55402857632E+03  0.55402857632E+03  0.00000000000E+00 0.  1.
          6    1    1    2  501    0  0.12058157255E+02  0.88979190328E+02 -0.25714380245E+03  0.32266798819E+03  0.17300000000E+03 0.  1.
         -6    1    1    2    0  503 -0.12058157255E+02 -0.88979190328E+02 -0.22816240742E+03  0.30008295458E+03  0.17300000000E+03 0.  1.
<mgrwt>
<rscale>  2 0.19491459E+03</rscale>
<asrwt>0</asrwt>
<pdfrwt beam="1">  1       21 0.10572671E-01 0.19491459E+03</pdfrwt>
<pdfrwt beam="2">  1       21 0.85235169E-01 0.19491459E+03</pdfrwt>
<totfact> 0.87468127E+04</totfact>
</mgrwt>
</event>
<event>
 4    1  0.3973261E+000  0.2091262E+03  0.7546771E-02  0.1142260E+00
         21   -1    0    0  503  502  0.00000000000E+00  0.00000000000E+00  0.19896299793E+04  0.19896299793E+04  0.00000000000E+00 0.  1.
         21   -1    0    0  501  503 -0.00000000000E+00 -0.00000000000E+00 -0.69495016008E+02  0.69495016008E+02  0.00000000000E+00 0. -1.
          6    1    1    2  501    0 -0.47928218935E+02  0.10727365993E+03  0.10875803243E+03  0.23571606204E+03  0.17300000000E+03 0. -1.
         -6    1    1    2    0  502  0.47928218935E+02 -0.10727365993E+03  0.18113769309E+04  0.18234089333E+04  0.17300000000E+03 0.  1.
<mgrwt>
<rscale>  2 0.20912616E+03</rscale>
<asrwt>0</asrwt>
<pdfrwt beam="1">  1       21 0.30609688E+00 0.20912616E+03</pdfrwt>
<pdfrwt beam="2">  1       21 0.10691542E-01 0.20912616E+03</pdfrwt>
<totfact> 0.22242817E+03</totfact>
</mgrwt>
</event>
<event>
 4    1  0.3973261E+000  0.1952109E+03  0.7546771E-02  0.1153844E+00
         21   -1    0    0  501  502  0.00000000000E+00  0.00000000000E+00  0.32971968017E+04  0.32971968017E+04  0.00000000000E+00 0. -1.
         21   -1    0    0  502  503 -0.00000000000E+00 -0.00000000000E+00 -0.15530875556E+02  0.15530875556E+02  0.00000000000E+00 0. -1.
          6    1    1    2  501    0 -0.14832586899E+02 -0.89209261155E+02  0.24786293354E+04  0.24863046234E+04  0.17300000000E+03 0. -1.
         -6    1    1    2    0  503  0.14832586899E+02  0.89209261155E+02  0.80303659066E+03  0.82642305380E+03  0.17300000000E+03 0. -1.
<mgrwt>
<rscale>  2 0.19521091E+03</rscale>
<asrwt>0</asrwt>
<pdfrwt beam="1">  1       21 0.50726049E+00 0.19521091E+03</pdfrwt>
<pdfrwt beam="2">  1       21 0.23893681E-02 0.19521091E+03</pdfrwt>
<totfact> 0.15419097E+03</totfact>
</mgrwt>
</event>
<event>
 4    1  0.3973261E+000  0.2659652E+03  0.7546771E-02  0.1103611E+00
         21   -1    0    0  503  502  0.00000000000E+00  0.00000000000E+00  0.65914596559E+03  0.65914596559E+03  0.00000000000E+00 0.  1.
         21   -1    0    0  501  503 -0.00000000000E+00 -0.00000000000E+00 -0.11951856151E+03  0.11951856151E+03  0.00000000000E+00 0. -1.
          6    1    1    2  501    0  0.15718377701E+03 -0.12689258869E+03  0.14541579041E+03  0.30312245202E+03  0.17300000000E+03 0. -1.
         -6    1    1    2    0  502 -0.15718377701E+03  0.12689258869E+03  0.39421161367E+03  0.47554207508E+03  0.17300000000E+03 0.  1.
<mgrwt>
<rscale>  2 0.26596516E+03</rscale>
<asrwt>0</asrwt>
<pdfrwt beam="1">  1       21 0.10140707E+00 0.26596516E+03</pdfrwt>
<pdfrwt beam="2">  1       21 0.18387471E-01 0.26596516E+03</pdfrwt>
<totfact> 0.20596519E+04</totfact>
</mgrwt>
</event>
<event>
 4    1  0.3973261E+000  0.2343985E+03  0.7546771E-02  0.1123582E+00
         21   -1    0    0  501  502  0.00000000000E+00  0.00000000000E+00  0.76419153059E+03  0.76419153059E+03  0.00000000000E+00 0.  1.
         21   -1    0    0  502  503 -0.00000000000E+00 -0.00000000000E+00 -0.21680192051E+03  0.21680192051E+03  0.00000000000E+00 0. -1.
          6    1    1    2  501    0 -0.11661553390E+03  0.10683845455E+03  0.67469721251E+03  0.71425413313E+03  0.17300000000E+03 0.  1.
         -6    1    1    2    0  503  0.11661553390E+03 -0.10683845455E+03 -0.12730760243E+03  0.26673931798E+03  0.17300000000E+03 0. -1.
<mgrwt>
<rscale>  2 0.23439846E+03</rscale>
<asrwt>0</asrwt>
<pdfrwt beam="1">  1       21 0.11756793E+00 0.23439846E+03</pdfrwt>
<pdfrwt beam="2">  1       21 0.33354142E-01 0.23439846E+03</pdfrwt>
<totfact> 0.46580266E+03</totfact>
</mgrwt>
</event>
<event>
 4    1  0.3973261E+000  0.1730065E+03  0.7546771E-02  0.1174748E+00
         21   -1    0    0  501  502  0.00000000000E+00  0.00000000000E+00  0.65720309055E+03  0.65720309055E+03  0.00000000000E+00 0.  1.
         21   -1    0    0  502  503 -0.00000000000E+00 -0.00000000000E+00 -0.63471230665E+02  0.63471230665E+02  0.00000000000E+00 0.  1.
          6    1    1    2  501    0 -0.14713619055E+01 -0.31610759567E+00  0.48837283330E+03  0.51811127099E+03  0.17300000000E+03 0.  1.
         -6    1    1    2    0  503  0.14713619055E+01  0.31610759567E+00  0.10535902659E+03  0.20256305022E+03  0.17300000000E+03 0.  1.
<mgrwt>
<rscale>  2 0.17300655E+03</rscale>
<asrwt>0</asrwt>
<pdfrwt beam="1">  1       21 0.10110816E+00 0.17300655E+03</pdfrwt>
<pdfrwt beam="2">  1       21 0.97648052E-02 0.17300655E+03</pdfrwt>
<totfact> 0.68301045E+04</totfact>
</mgrwt>
</event>
<event>
 4    1  0.3973261E+000  0.1967771E+03  0.7546771E-02  0.1152487E+00
         21   -1    0    0  503  502  0.00000000000E+00  0.00000000000E+00  0.19966834471E+03  0.19966834471E+03  0.00000000000E+00 0. -1.
         21   -1    0    0  501  503 -0.00000000000E+00 -0.00000000000E+00 -0.28256499188E+03  0.28256499188E+03  0.00000000000E+00 0.  1.
          6    1    1    2  501    0  0.70728522401E+02 -0.61560492140E+02 -0.17649265367E+03  0.26433099491E+03  0.17300000000E+03 0.  1.
         -6    1    1    2    0  502 -0.70728522401E+02  0.61560492140E+02  0.93596006507E+02  0.21790234168E+03  0.17300000000E+03 0. -1.
<mgrwt>
<rscale>  2 0.19677708E+03</rscale>
<asrwt>0</asrwt>
<pdfrwt beam="1">  1       21 0.30718207E-01 0.19677708E+03</pdfrwt>
<pdfrwt beam="2">  1       21 0.43471537E-01 0.19677708E+03</pdfrwt>
<totfact> 0.51652736E+04</totfact>
</mgrwt>
</event>
<event>
 4    1  0.3973261E+000  0.1831800E+03  0.7546771E-02  0.1164760E+00
         21   -1    0    0  501  502  0.00000000000E+00  0.00000000000E+00  0.18729743217E+04  0.18729743217E+04  0.00000000000E+00 0. -1.
         21   -1    0    0  502  503 -0.00000000000E+00 -0.00000000000E+00 -0.18233148231E+02  0.18233148231E+02  0.00000000000E+00 0.  1.
          6    1    1    2  501    0  0.37524107825E+02  0.47094006415E+02  0.80252143246E+03  0.82316192433E+03  0.17300000000E+03 0.  1.
         -6    1    1    2    0  503 -0.37524107825E+02 -0.47094006415E+02  0.10522197410E+04  0.10680455456E+04  0.17300000000E+03 0. -1.
<mgrwt>
<rscale>  2 0.18317998E+03</rscale>
<asrwt>0</asrwt>
<pdfrwt beam="1">  1       21 0.28814974E+00 0.18317998E+03</pdfrwt>
<pdfrwt beam="2">  1       21 0.28051012E-02 0.18317998E+03</pdfrwt>
<totfact> 0.28494255E+04</totfact>
</mgrwt>
</event>
<event>
 4    1  0.3973261E+000  0.2402619E+03  0.7546771E-02  0.1119618E+00
         21   -1    0    0  503  502  0.00000000000E+00  0.00000000000E+00  0.18315215584E+03  0.18315215584E+03  0.00000000000E+00 0. -1.
         21   -1    0    0  501  503 -0.00000000000E+00 -0.00000000000E+00 -0.37125338535E+03  0.37125338535E+03  0.00000000000E+00 0. -1.
          6    1    1    2  501    0 -0.10240668007E+03 -0.13156610699E+03 -0.20178229837E+03  0.31375446541E+03  0.17300000000E+03 0. -1.
         -6    1    1    2    0  502  0.10240668007E+03  0.13156610699E+03  0.13681068852E+02  0.24065107578E+03  0.17300000000E+03 0. -1.
<mgrwt>
<rscale>  2 0.24026188E+03</rscale>
<asrwt>0</asrwt>
<pdfrwt beam="1">  1       21 0.28177255E-01 0.24026188E+03</pdfrwt>
<pdfrwt beam="2">  1       21 0.57115905E-01 0.24026188E+03</pdfrwt>
<totfact> 0.33838154E+04</totfact>
</mgrwt>
</event>
<event>
 4    1  0.3973261E+000  0.3522530E+03  0.7546771E-02  0.1061694E+00
         21   -1    0    0  503  502  0.00000000000E+00  0.00000000000E+00  0.25056741985E+03  0.25056741985E+03  0.00000000000E+00 0.  1.
         21   -1    0    0  501  503 -0.00000000000E+00 -0.00000000000E+00 -0.51071118351E+03  0.51071118351E+03  0.00000000000E+00 0. -1.
          6    1    1    2  501    0 -0.60450933373E+02  0.30083024941E+03 -0.19639778081E+03  0.40330415646E+03  0.17300000000E+03 0.  1.
         -6    1    1    2    0  502  0.60450933373E+02 -0.30083024941E+03 -0.63745982850E+02  0.35797444691E+03  0.17300000000E+03 0.  1.
<mgrwt>
<rscale>  2 0.35225297E+03</rscale>
<asrwt>0</asrwt>
<pdfrwt beam="1">  1       21 0.38548835E-01 0.35225297E+03</pdfrwt>
<pdfrwt beam="2">  1       21 0.78570950E-01 0.35225297E+03</pdfrwt>
<totfact> 0.85416739E+03</totfact>
</mgrwt>
</event>
<event>
 4    1  0.3973261E+000  0.1750954E+03  0.7546771E-02  0.1172636E+00
         21   -1    0    0  501  502  0.00000000000E+00  0.00000000000E+00  0.39692544332E+03  0.39692544332E+03  0.00000000000E+00 0.  1.
         21   -1    0    0  502  503 -0.00000000000E+00 -0.00000000000E+00 -0.13036018313E+03  0.13036018313E+03  0.00000000000E+00 0.  1.
          6    1    1    2  501    0  0.23946263780E+02  0.12488964619E+02  0.30157890737E+03  0.34872372325E+03  0.17300000000E+03 0.  1.
         -6    1    1    2    0  503 -0.23946263780E+02 -0.12488964619E+02 -0.35013647179E+02  0.17856190320E+03  0.17300000000E+03 0.  1.
<mgrwt>
<rscale>  2 0.17509540E+03</rscale>
<asrwt>0</asrwt>
<pdfrwt beam="1">  1       21 0.61065452E-01 0.17509540E+03</pdfrwt>
<pdfrwt beam="2">  1       21 0.20055413E-01 0.17509540E+03</pdfrwt>
<totfact> 0.57759167E+04</totfact>
</mgrwt>
</event>
<event>
 4    1  0.3973261E+000  0.1897830E+03  0.7546771E-02  0.1158657E+00
         21   -1    0    0  503  502  0.00000000000E+00  0.00000000000E+00  0.66578720086E+02  0.66578720086E+02  0.00000000000E+00 0.  1.
         21   -1    0    0  501  503 -0.00000000000E+00 -0.00000000000E+00 -0.59845536364E+03  0.59845536364E+03  0.00000000000E+00 0. -1.
          6    1    1    2  501    0  0.75638587116E+02  0.19167361065E+02 -0.36898848242E+03  0.41493383057E+03  0.17300000000E+03 0. -1.
         -6    1    1    2    0  502 -0.75638587116E+02 -0.19167361065E+02 -0.16288816113E+03  0.25010025315E+03  0.17300000000E+03 0.  1.
<mgrwt>
<rscale>  2 0.18978299E+03</rscale>
<asrwt>0</asrwt>
<pdfrwt beam="1">  1       21 0.10242880E-01 0.18978299E+03</pdfrwt>
<pdfrwt beam="2">  1       21 0.92070059E-01 0.18978299E+03</pdfrwt>
<totfact> 0.77607511E+04</totfact>
</mgrwt>
</event>
<event>
 4    1  0.3973261E+000  0.2283581E+03  0.7546771E-02  0.1127801E+00
         21   -1    0    0  501  502  0.00000000000E+00  0.00000000000E+00  0.58274208208E+03  0.58274208208E+03  0.00000000000E+00 0. -1.
         21   -1    0    0  502  503 -0.00000000000E+00 -0.00000000000E+00 -0.10627275418E+03  0.10627275418E+03  0.00000000000E+00 0. -1.
          6    1    1    2  501    0 -0.90558654127E+02 -0.11839583185E+03  0.37515465789E+03  0.43919068771E+03  0.17300000000E+03 0. -1.
         -6    1    1    2    0  503  0.90558654127E+02  0.11839583185E+03  0.10131467001E+03  0.24982414854E+03  0.17300000000E+03 0. -1.
<mgrwt>
<rscale>  2 0.22835815E+03</rscale>
<asrwt>0</asrwt>
<pdfrwt beam="1">  1       21 0.89652626E-01 0.22835815E+03</pdfrwt>
<pdfrwt beam="2">  1       21 0.16349655E-01 0.22835815E+03</pdfrwt>
<totfact> 0.34868694E+04</totfact>
</mgrwt>
</event>
<event>
 4    1  0.3973261E+000  0.1845722E+03  0.7546771E-02  0.1163450E+00
         21   -1    0    0  501  502  0.00000000000E+00  0.00000000000E+00  0.23476952827E+03  0.23476952827E+03  0.00000000000E+00 0.  1.
         21   -1    0    0  502  503 -0.00000000000E+00 -0.00000000000E+00 -0.15259215171E+03  0.15259215171E+03  0.00000000000E+00 0.  1.
          6    1    1    2  501    0 -0.58382336111E+02 -0.27007469359E+02 -0.18052891223E+01  0.18458103814E+03  0.17300000000E+03 0.  1.
         -6    1    1    2    0  503  0.58382336111E+02  0.27007469359E+02  0.83982665677E+02  0.20278064184E+03  0.17300000000E+03 0.  1.
<mgrwt>
<rscale>  2 0.18457221E+03</rscale>
<asrwt>0</asrwt>
<pdfrwt beam="1">  1       21 0.36118389E-01 0.18457221E+03</pdfrwt>
<pdfrwt beam="2">  1       21 0.23475716E-01 0.18457221E+03</pdfrwt>
<totfact> 0.12655772E+05</totfact>
</mgrwt>
</event>
<event>
 4    1  0.3973261E+000  0.2474288E+03  0.7546771E-02  0.1114941E+00
         21   -1    0    0  501  502  0.00000000000E+00  0.00000000000E+00  0.29107957762E+02  0.29107957762E+02  0.00000000000E+00 0.  1.
         21   -1    0    0  502  503 -0.00000000000E+00 -0.00000000000E+00 -0.21470585115E+04  0.21470585115E+04  0.00000000000E+00 0.  1.
          6    1    1    2  501    0 -0.16829936551E+03 -0.54473296715E+02 -0.90353277720E+03  0.93679906915E+03  0.17300000000E+03 0.  1.
         -6    1    1    2    0  503  0.16829936551E+03  0.54473296715E+02 -0.12144177765E+04  0.12393674001E+04  0.17300000000E+03 0.  1.
<mgrwt>
<rscale>  2 0.24742881E+03</rscale>
<asrwt>0</asrwt>
<pdfrwt beam="1">  1       21 0.44781482E-02 0.24742881E+03</pdfrwt>
<pdfrwt beam="2">  1       21 0.33031663E+00 0.24742881E+03</pdfrwt>
<totfact> 0.69755218E+03</totfact>
</mgrwt>
</event>
<event>
 4    1  0.3973261E+000  0.1763150E+03  0.7546771E-02  0.1171418E+00
         21   -1    0    0  503  502  0.00000000000E+00  0.00000000000E+00  0.60527202292E+03  0.60527202292E+03  0.00000000000E+00 0.  1.
         21   -1    0    0  501  503 -0.00000000000E+00 -0.00000000000E+00 -0.57370310112E+02  0.57370310112E+02  0.00000000000E+00 0.  1.
          6    1    1    2  501    0 -0.13220761532E+02 -0.31355610536E+02  0.16671436964E+03  0.24265334099E+03  0.17300000000E+03 0. -1.
         -6    1    1    2    0  502  0.13220761532E+02  0.31355610536E+02  0.38118734316E+03  0.41998899204E+03  0.17300000000E+03 0. -1.
<mgrwt>
<rscale>  2 0.17631495E+03</rscale>
<asrwt>0</asrwt>
<pdfrwt beam="1">  1       21 0.93118768E-01 0.17631495E+03</pdfrwt>
<pdfrwt beam="2">  1       21 0.88262020E-02 0.17631495E+03</pdfrwt>
<totfact> 0.98771369E+04</totfact>
</mgrwt>
</event>
<event>
 4    1  0.3973261E+000  0.2207800E+03  0.7546771E-02  0.1133303E+00
         21   -1    0    0  501  502  0.00000000000E+00  0.00000000000E+00  0.78717139602E+02  0.78717139602E+02  0.00000000000E+00 0.  1.
         21   -1    0    0  502  503 -0.00000000000E+00 -0.00000000000E+00 -0.62388577405E+03  0.62388577405E+03  0.00000000000E+00 0. -1.
          6    1    1    2  501    0  0.71180972198E+02 -0.11725226013E+03 -0.24222887780E+03  0.32774784904E+03  0.17300000000E+03 0. -1.
         -6    1    1    2    0  503 -0.71180972198E+02  0.11725226013E+03 -0.30293975665E+03  0.37485506461E+03  0.17300000000E+03 0.  1.
<mgrwt>
<rscale>  2 0.22078003E+03</rscale>
<asrwt>0</asrwt>
<pdfrwt beam="1">  1       21 0.12110329E-01 0.22078003E+03</pdfrwt>
<pdfrwt beam="2">  1       21 0.95982427E-01 0.22078003E+03</pdfrwt>
<totfact> 0.51486039E+04</totfact>
</mgrwt>
</event>
<event>
 4    1  0.3973261E+000  0.2794575E+03  0.7546771E-02  0.1095986E+00
         21   -1    0    0  503  502  0.00000000000E+00  0.00000000000E+00  0.17717052939E+04  0.17717052939E+04  0.00000000000E+00 0. -1.
         21   -1    0    0  501  503 -0.00000000000E+00 -0.00000000000E+00 -0.46331207302E+02  0.46331207302E+02  0.00000000000E+00 0.  1.
          6    1    1    2  501    0  0.17527537130E+03 -0.13208346261E+03  0.66230519756E+03  0.71884954726E+03  0.17300000000E+03 0.  1.
         -6    1    1    2    0  502 -0.17527537130E+03  0.13208346261E+03  0.10630688891E+04  0.10991869540E+04  0.17300000000E+03 0. -1.
<mgrwt>
<rscale>  2 0.27945750E+03</rscale>
<asrwt>0</asrwt>
<pdfrwt beam="1">  1       21 0.27256999E+00 0.27945750E+03</pdfrwt>
<pdfrwt beam="2">  1       21 0.71278794E-02 0.27945750E+03</pdfrwt>
<totfact> 0.66705208E+03</totfact>
</mgrwt>
</event>
<event>
 4    1  0.3973261E+000  0.1827309E+03  0.7546771E-02  0.1165186E+00
         21   -1    0    0  501  502  0.00000000000E+00  0.00000000000E+00  0.12363521435E+03  0.12363521435E+03  0.00000000000E+00 0.  1.
         21   -1    0    0  502  503 -0.00000000000E+00 -0.00000000000E+00 -0.27257544929E+03  0.27257544929E+03  0.00000000000E+00 0. -1.
          6    1    1    2  501    0 -0.43441095870E+02  0.39679477795E+02 -0.55490136845E+02  0.19097053452E+03  0.17300000000E+03 0. -1.
         -6    1    1    2    0  503  0.43441095870E+02 -0.39679477795E+02 -0.93450098089E+02  0.20524012912E+03  0.17300000000E+03 0. -1.
<mgrwt>
<rscale>  2 0.18273092E+03</rscale>
<asrwt>0</asrwt>
<pdfrwt beam="1">  1       21 0.19020802E-01 0.18273092E+03</pdfrwt>
<pdfrwt beam="2">  1       21 0.41934684E-01 0.18273092E+03</pdfrwt>
<totfact> 0.13919305E+05</totfact>
</mgrwt>
</event>
<event>
 4    1  0.3973261E+000  0.2338316E+03  0.7546771E-02  0.1123972E+00
         21   -1    0    0  501  502  0.00000000000E+00  0.00000000000E+00  0.69812513554E+02  0.69812513554E+02  0.00000000000E+00 0. -1.
         21   -1    0    0  502  503 -0.00000000000E+00 -0.00000000000E+00 -0.81326821035E+03  0.81326821035E+03  0.00000000000E+00 0. -1.
          6    1    1    2  501    0 -0.15109081349E+03  0.43815407918E+02 -0.28682920410E+03  0.37006515131E+03  0.17300000000E+03 0. -1.
         -6    1    1    2    0  503  0.15109081349E+03 -0.43815407918E+02 -0.45662649269E+03  0.51301557259E+03  0.17300000000E+03 0. -1.
<mgrwt>
<rscale>  2 0.23383161E+03</rscale>
<asrwt>0</asrwt>
<pdfrwt beam="1">  1       21 0.10740387E-01 0.23383161E+03</pdfrwt>
<pdfrwt beam="2">  1       21 0.12511819E+00 0.23383161E+03</pdfrwt>
<totfact> 0.33264949E+04</totfact>
</mgrwt>
</event>
<event>
 4    1  0.3973261E+000  0.1931248E+03  0.7546771E-02  0.1155673E+00
         21   -1    0    0  501  502  0.00000000000E+00  0.00000000000E+00  0.77201808658E+02  0.77201808658E+02  0.00000000000E+00 0. -1.
         21   -1    0    0  502  503 -0.00000000000E+00 -0.00000000000E+00 -0.75697731109E+03  0.75697731109E+03  0.00000000000E+00 0. -1.
          6    1    1    2  501    0  0.45809342572E+02  0.72592571998E+02 -0.89013659218E+02  0.21265137880E+03  0.17300000000E+03 0. -1.
         -6    1    1    2    0  503 -0.45809342572E+02 -0.72592571998E+02 -0.59076184322E+03  0.62152774096E+03  0.17300000000E+03 0. -1.
<mgrwt>
<rscale>  2 0.19312477E+03</rscale>
<asrwt>0</asrwt>
<pdfrwt beam="1">  1       21 0.11877202E-01 0.19312477E+03</pdfrwt>
<pdfrwt beam="2">  1       21 0.11645804E+00 0.19312477E+03</pdfrwt>
<totfact> 0.33973426E+04</totfact>
</mgrwt>
</event>
<event>
 4    1  0.3973261E+000  0.3628643E+03  0.7546771E-02  0.1057455E+00
         21   -1    0    0  501  502  0.00000000000E+00  0.00000000000E+00  0.75883366964E+03  0.75883366964E+03  0.00000000000E+00 0.  1.
         21   -1    0    0  502  503 -0.00000000000E+00 -0.00000000000E+00 -0.26773421096E+03  0.26773421096E+03  0.00000000000E+00 0. -1.
          6    1    1    2  501    0 -0.30244232385E+03 -0.10134166226E+03  0.55003831437E+03  0.65894813076E+03  0.17300000000E+03 0.  1.
         -6    1    1    2    0  503  0.30244232385E+03  0.10134166226E+03 -0.58938855690E+02  0.36761974984E+03  0.17300000000E+03 0. -1.
<mgrwt>
<rscale>  2 0.36286429E+03</rscale>
<asrwt>0</asrwt>
<pdfrwt beam="1">  1       21 0.11674364E+00 0.36286429E+03</pdfrwt>
<pdfrwt beam="2">  1       21 0.41189879E-01 0.36286429E+03</pdfrwt>
<totfact> 0.28807540E+03</totfact>
</mgrwt>
</event>
<event>
 4    1  0.3973261E+000  0.2160406E+03  0.7546771E-02  0.1136870E+00
         21   -1    0    0  503  502  0.00000000000E+00  0.00000000000E+00  0.20997712839E+03  0.20997712839E+03  0.00000000000E+00 0.  1.
         21   -1    0    0  501  503 -0.00000000000E+00 -0.00000000000E+00 -0.24057919256E+03  0.24057919256E+03  0.00000000000E+00 0.  1.
          6    1    1    2  501    0 -0.92996965519E+02 -0.89978289041E+02 -0.77433220107E+02  0.22949821714E+03  0.17300000000E+03 0.  1.
         -6    1    1    2    0  502  0.92996965519E+02  0.89978289041E+02  0.46831155937E+02  0.22105810381E+03  0.17300000000E+03 0.  1.
<mgrwt>
<rscale>  2 0.21604057E+03</rscale>
<asrwt>0</asrwt>
<pdfrwt beam="1">  1       21 0.32304174E-01 0.21604057E+03</pdfrwt>
<pdfrwt beam="2">  1       21 0.37012183E-01 0.21604057E+03</pdfrwt>
<totfact> 0.64231020E+04</totfact>
</mgrwt>
</event>
<event>
 4    1  0.3973261E+000  0.1911209E+03  0.7546771E-02  0.1157454E+00
         21   -1    0    0  501  502  0.00000000000E+00  0.00000000000E+00  0.19042314215E+02  0.19042314215E+02  0.00000000000E+00 0. -1.
         21   -1    0    0  502  503 -0.00000000000E+00 -0.00000000000E+00 -0.21932279055E+04  0.21932279055E+04  0.00000000000E+00 0. -1.
          6    1    1    2  501    0  0.49339026677E+02  0.64527968691E+02 -0.69540044386E+03  0.72118581213E+03  0.17300000000E+03 0.  1.
         -6    1    1    2    0  503 -0.49339026677E+02 -0.64527968691E+02 -0.14787851475E+04  0.14910844076E+04  0.17300000000E+03 0.  1.
<mgrwt>
<rscale>  2 0.19112090E+03</rscale>
<asrwt>0</asrwt>
<pdfrwt beam="1">  1       21 0.29295890E-02 0.19112090E+03</pdfrwt>
<pdfrwt beam="2">  1       21 0.33741942E+00 0.19112090E+03</pdfrwt>
<totfact> 0.13665514E+04</totfact>
</mgrwt>
</event>
<event>
 4    1  0.3973261E+000  0.3235809E+03  0.7546771E-02  0.1074013E+00
         21   -1    0    0  503  502  0.00000000000E+00  0.00000000000E+00  0.46491191065E+03  0.46491191065E+03  0.00000000000E+00 0. -1.
         21   -1    0    0  501  503 -0.00000000000E+00 -0.00000000000E+00 -0.25671662876E+03  0.25671662876E+03  0.00000000000E+00 0.  1.
          6    1    1    2  501    0 -0.26622960173E+03 -0.62429081042E+02 -0.22297764970E+02  0.32434824082E+03  0.17300000000E+03 0.  1.
         -6    1    1    2    0  502  0.26622960173E+03  0.62429081042E+02  0.23049304686E+03  0.39728029859E+03  0.17300000000E+03 0. -1.
<mgrwt>
<rscale>  2 0.32358089E+03</rscale>
<asrwt>0</asrwt>
<pdfrwt beam="1">  1       21 0.71524909E-01 0.32358089E+03</pdfrwt>
<pdfrwt beam="2">  1       21 0.39494866E-01 0.32358089E+03</pdfrwt>
<totfact> 0.10175479E+04</totfact>
</mgrwt>
</event>
<event>
 4    1  0.3973261E+000  0.1940554E+03  0.7546771E-02  0.1154854E+00
         21   -1    0    0  503  502  0.00000000000E+00  0.00000000000E+00  0.28331450047E+02  0.28331450047E+02  0.00000000000E+00 0. -1.
         21   -1    0    0  501  503 -0.00000000000E+00 -0.00000000000E+00 -0.14372738636E+04  0.14372738636E+04  0.00000000000E+00 0. -1.
          6    1    1    2  501    0  0.58348247850E+02 -0.65756909756E+02 -0.90543851615E+03  0.92600021368E+03  0.17300000000E+03 0. -1.
         -6    1    1    2    0  502 -0.58348247850E+02  0.65756909756E+02 -0.50350389737E+03  0.53960509994E+03  0.17300000000E+03 0. -1.
<mgrwt>
<rscale>  2 0.19405538E+03</rscale>
<asrwt>0</asrwt>
<pdfrwt beam="1">  1       21 0.43586853E-02 0.19405538E+03</pdfrwt>
<pdfrwt beam="2">  1       21 0.22111902E+00 0.19405538E+03</pdfrwt>
<totfact> 0.33553666E+04</totfact>
</mgrwt>
</event>
<event>
 4    1  0.3973261E+000  0.2385227E+03  0.7546771E-02  0.1120781E+00
         21   -1    0    0  501  502  0.00000000000E+00  0.00000000000E+00  0.17531553004E+03  0.17531553004E+03  0.00000000000E+00 0.  1.
         21   -1    0    0  502  503 -0.00000000000E+00 -0.00000000000E+00 -0.37609180857E+03  0.37609180857E+03  0.00000000000E+00 0.  1.
          6    1    1    2  501    0 -0.11207268917E+03 -0.12001573499E+03  0.17081015210E+01  0.23852878634E+03  0.17300000000E+03 0.  1.
         -6    1    1    2    0  503  0.11207268917E+03  0.12001573499E+03 -0.20248438005E+03  0.31287855226E+03  0.17300000000E+03 0.  1.
<mgrwt>
<rscale>  2 0.23852267E+03</rscale>
<asrwt>0</asrwt>
<pdfrwt beam="1">  1       21 0.26971620E-01 0.23852267E+03</pdfrwt>
<pdfrwt beam="2">  1       21 0.57860278E-01 0.23852267E+03</pdfrwt>
<totfact> 0.35854190E+04</totfact>
</mgrwt>
</event>
<event>
 4    1  0.3973261E+000  0.2594118E+03  0.7546771E-02  0.1107497E+00
         21   -1    0    0  501  502  0.00000000000E+00  0.00000000000E+00  0.29377355911E+03  0.29377355911E+03  0.00000000000E+00 0. -1.
         21   -1    0    0  502  503 -0.00000000000E+00 -0.00000000000E+00 -0.25801376499E+03  0.25801376499E+03  0.00000000000E+00 0.  1.
          6    1    1    2  501    0 -0.18961457715E+03 -0.37573950990E+02  0.11028658481E+03  0.28188228119E+03  0.17300000000E+03 0.  1.
         -6    1    1    2    0  503  0.18961457715E+03  0.37573950990E+02 -0.74526790694E+02  0.26990504291E+03  0.17300000000E+03 0. -1.
<mgrwt>
<rscale>  2 0.25941181E+03</rscale>
<asrwt>0</asrwt>
<pdfrwt beam="1">  1       21 0.45195932E-01 0.25941181E+03</pdfrwt>
<pdfrwt beam="2">  1       21 0.39694425E-01 0.25941181E+03</pdfrwt>
<totfact> 0.27791465E+04</totfact>
</mgrwt>
</event>
<event>
 4    1  0.3973261E+000  0.2257219E+03  0.7546771E-02  0.1129688E+00
         21   -1    0    0  503  502  0.00000000000E+00  0.00000000000E+00  0.39383653790E+03  0.39383653790E+03  0.00000000000E+00 0.  1.
         21   -1    0    0  501  503 -0.00000000000E+00 -0.00000000000E+00 -0.16948537055E+03  0.16948537055E+03  0.00000000000E+00 0.  1.
          6    1    1    2  501    0  0.13277016615E+03  0.58253305357E+02 -0.24855669489E+02  0.22708625874E+03  0.17300000000E+03 0.  1.
         -6    1    1    2    0  502 -0.13277016615E+03 -0.58253305357E+02  0.24920683684E+03  0.33623564970E+03  0.17300000000E+03 0.  1.
<mgrwt>
<rscale>  2 0.22572187E+03</rscale>
<asrwt>0</asrwt>
<pdfrwt beam="1">  1       21 0.60590236E-01 0.22572187E+03</pdfrwt>
<pdfrwt beam="2">  1       21 0.26074673E-01 0.22572187E+03</pdfrwt>
<totfact> 0.34861679E+04</totfact>
</mgrwt>
</event>
<event>
 4    1  0.3973261E+000  0.1987196E+03  0.7546771E-02  0.1150824E+00
         21   -1    0    0  503  502  0.00000000000E+00  0.00000000000E+00  0.12417046397E+04  0.12417046397E+04  0.00000000000E+00 0.  1.
         21   -1    0    0  501  503 -0.00000000000E+00 -0.00000000000E+00 -0.31943207173E+02  0.31943207173E+02  0.00000000000E+00 0.  1.
          6    1    1    2  501    0  0.82477688102E+02  0.52515857395E+02  0.64712556141E+03  0.67694975925E+03  0.17300000000E+03 0.  1.
         -6    1    1    2    0  502 -0.82477688102E+02 -0.52515857395E+02  0.56263587115E+03  0.59669808766E+03  0.17300000000E+03 0.  1.
<mgrwt>
<rscale>  2 0.19871961E+03</rscale>
<asrwt>0</asrwt>
<pdfrwt beam="1">  1       21 0.19103145E+00 0.19871961E+03</pdfrwt>
<pdfrwt beam="2">  1       21 0.49143405E-02 0.19871961E+03</pdfrwt>
<totfact> 0.42362052E+04</totfact>
</mgrwt>
</event>
<event>
 4    1  0.3973261E+000  0.1869983E+03  0.7546771E-02  0.1161197E+00
         21   -1    0    0  503  502  0.00000000000E+00  0.00000000000E+00  0.74242375220E+02  0.74242375220E+02  0.00000000000E+00 0.  1.
         21   -1    0    0  501  503 -0.00000000000E+00 -0.00000000000E+00 -0.78223012405E+03  0.78223012405E+03  0.00000000000E+00 0.  1.
          6    1    1    2  501    0 -0.70932965579E+02  0.28102009810E+01 -0.62411270780E+03  0.65152517594E+03  0.17300000000E+03 0.  1.
         -6    1    1    2    0  502  0.70932965579E+02 -0.28102009810E+01 -0.83875041029E+02  0.20494732334E+03  0.17300000000E+03 0.  1.
<mgrwt>
<rscale>  2 0.18699835E+03</rscale>
<asrwt>0</asrwt>
<pdfrwt beam="1">  1       21 0.11421903E-01 0.18699835E+03</pdfrwt>
<pdfrwt beam="2">  1       21 0.12034310E+00 0.18699835E+03</pdfrwt>
<totfact> 0.33715421E+04</totfact>
</mgrwt>
</event>
<event>
 4    1  0.3973261E+000  0.1842079E+03  0.7546771E-02  0.1163792E+00
         21   -1    0    0  501  502  0.00000000000E+00  0.00000000000E+00  0.22761051974E+04  0.22761051974E+04  0.00000000000E+00 0. -1.
         21   -1    0    0  502  503 -0.00000000000E+00 -0.00000000000E+00 -0.21366754016E+02  0.21366754016E+02  0.00000000000E+00 0. -1.
          6    1    1    2  501    0 -0.42662169877E+02  0.46727853622E+02  0.17589366938E+04  0.17685561472E+04  0.17300000000E+03 0. -1.
         -6    1    1    2    0  503  0.42662169877E+02 -0.46727853622E+02  0.49580174951E+03  0.52891580413E+03  0.17300000000E+03 0. -1.
<mgrwt>
<rscale>  2 0.18420791E+03</rscale>
<asrwt>0</asrwt>
<pdfrwt beam="1">  1       21 0.35016984E+00 0.18420791E+03</pdfrwt>
<pdfrwt beam="2">  1       21 0.32871947E-02 0.18420791E+03</pdfrwt>
<totfact> 0.95853918E+03</totfact>
</mgrwt>
</event>
<event>
 4    1  0.3973261E+000  0.1808094E+03  0.7546771E-02  0.1167022E+00
         21   -1    0    0  503  502  0.00000000000E+00  0.00000000000E+00  0.30831016648E+03  0.30831016648E+03  0.00000000000E+00 0.  1.
         21   -1    0    0  501  503 -0.00000000000E+00 -0.00000000000E+00 -0.19203098205E+03  0.19203098205E+03  0.00000000000E+00 0.  1.
          6    1    1    2  501    0 -0.50378496178E+02 -0.15001095074E+02 -0.10927246319E+03  0.21126404555E+03  0.17300000000E+03 0.  1.
         -6    1    1    2    0  502  0.50378496178E+02  0.15001095074E+02  0.22555164761E+03  0.28907710298E+03  0.17300000000E+03 0.  1.
<mgrwt>
<rscale>  2 0.18080936E+03</rscale>
<asrwt>0</asrwt>
<pdfrwt beam="1">  1       21 0.47432333E-01 0.18080936E+03</pdfrwt>
<pdfrwt beam="2">  1       21 0.29543228E-01 0.18080936E+03</pdfrwt>
<totfact> 0.46942714E+04</totfact>
</mgrwt>
</event>
<event>
 4    1  0.3973261E+000  0.1740762E+03  0.7546771E-02  0.1173662E+00
         21   -1    0    0  501  502  0.00000000000E+00  0.00000000000E+00  0.95411807545E+02  0.95411807545E+02  0.00000000000E+00 0. -1.
         21   -1    0    0  502  503 -0.00000000000E+00 -0.00000000000E+00 -0.37320636358E+03  0.37320636358E+03  0.00000000000E+00 0. -1.
          6    1    1    2  501    0  0.29651609476E+01  0.19098144941E+02 -0.48451677473E+02  0.18069337666E+03  0.17300000000E+03 0. -1.
         -6    1    1    2    0  503 -0.29651609476E+01 -0.19098144941E+02 -0.22934287857E+03  0.28792479447E+03  0.17300000000E+03 0. -1.
<mgrwt>
<rscale>  2 0.17407622E+03</rscale>
<asrwt>0</asrwt>
<pdfrwt beam="1">  1       21 0.14678740E-01 0.17407622E+03</pdfrwt>
<pdfrwt beam="2">  1       21 0.57416362E-01 0.17407622E+03</pdfrwt>
<totfact> 0.11696401E+05</totfact>
</mgrwt>
</event>
<event>
 4    1  0.3973261E+000  0.2242456E+03  0.7546771E-02  0.1130757E+00
         21   -1    0    0  501  502  0.00000000000E+00  0.00000000000E+00  0.68724859469E+03  0.68724859469E+03  0.00000000000E+00 0.  1.
         21   -1    0    0  502  503 -0.00000000000E+00 -0.00000000000E+00 -0.73952483762E+02  0.73952483762E+02  0.00000000000E+00 0.  1.
          6    1    1    2  501    0  0.12603961415E+03  0.66866267668E+02  0.26750188114E+03  0.34906065161E+03  0.17300000000E+03 0.  1.
         -6    1    1    2    0  503 -0.12603961415E+03 -0.66866267668E+02  0.34579422978E+03  0.41214042684E+03  0.17300000000E+03 0.  1.
<mgrwt>
<rscale>  2 0.22424558E+03</rscale>
<asrwt>0</asrwt>
<pdfrwt beam="1">  1       21 0.10573055E+00 0.22424558E+03</pdfrwt>
<pdfrwt beam="2">  1       21 0.11377306E-01 0.22424558E+03</pdfrwt>
<totfact> 0.45634523E+04</totfact>
</mgrwt>
</event>
<event>
 4    1  0.3973261E+000  0.2114559E+03  0.7546771E-02  0.1140418E+00
         21   -1    0    0  503  502  0.00000000000E+00  0.00000000000E+00  0.45857687731E+03  0.45857687731E+03  0.00000000000E+00 0.  1.
         21   -1    0    0  501  503 -0.00000000000E+00 -0.00000000000E+00 -0.28854701476E+03  0.28854701476E+03  0.00000000000E+00 0. -1.
          6    1    1    2  501    0 -0.11500101566E+03  0.39488675293E+02 -0.21894662234E+03  0.30438661684E+03  0.17300000000E+03 0. -1.
         -6    1    1    2    0  502  0.11500101566E+03 -0.39488675293E+02  0.38897648489E+03  0.44273727523E+03  0.17300000000E+03 0.  1.
<mgrwt>
<rscale>  2 0.21145588E+03</rscale>
<asrwt>0</asrwt>
<pdfrwt beam="1">  1       21 0.70550289E-01 0.21145588E+03</pdfrwt>
<pdfrwt beam="2">  1       21 0.44391849E-01 0.21145588E+03</pdfrwt>
<totfact> 0.87587310E+03</totfact>
</mgrwt>
</event>
<event>
 4    1  0.3973261E+000  0.2135289E+03  0.7546771E-02  0.1138802E+00
         21   -1    0    0  503  502  0.00000000000E+00  0.00000000000E+00  0.53160260913E+02  0.53160260913E+02  0.00000000000E+00 0.  1.
         21   -1    0    0  501  503 -0.00000000000E+00 -0.00000000000E+00 -0.21919259939E+04  0.21919259939E+04  0.00000000000E+00 0.  1.
          6    1    1    2  501    0 -0.65616203821E+01 -0.12499015598E+03 -0.19451885017E+04  0.19568732460E+04  0.17300000000E+03 0.  1.
         -6    1    1    2    0  502  0.65616203821E+01  0.12499015598E+03 -0.19357723132E+03  0.28821300880E+03  0.17300000000E+03 0.  1.
<mgrwt>
<rscale>  2 0.21352891E+03</rscale>
<asrwt>0</asrwt>
<pdfrwt beam="1">  1       21 0.81785032E-02 0.21352891E+03</pdfrwt>
<pdfrwt beam="2">  1       21 0.33721932E+00 0.21352891E+03</pdfrwt>
<totfact> 0.23373911E+03</totfact>
</mgrwt>
</event>
<event>
 4    1  0.3973261E+000  0.2571289E+03  0.7546771E-02  0.1108881E+00
         21   -1    0    0  503  502  0.00000000000E+00  0.00000000000E+00  0.31245808705E+03  0.31245808705E+03  0.00000000000E+00 0.  1.
         21   -1    0    0  501  503 -0.00000000000E+00 -0.00000000000E+00 -0.45425245762E+03  0.45425245762E+03  0.00000000000E+00 0. -1.
          6    1    1    2  501    0  0.46831704126E+02 -0.18437214059E+03 -0.35108390100E+03  0.43517260975E+03  0.17300000000E+03 0. -1.
         -6    1    1    2    0  502 -0.46831704126E+02  0.18437214059E+03  0.20928953043E+03  0.33153793491E+03  0.17300000000E+03 0.  1.
<mgrwt>
<rscale>  2 0.25712895E+03</rscale>
<asrwt>0</asrwt>
<pdfrwt beam="1">  1       21 0.48070475E-01 0.25712895E+03</pdfrwt>
<pdfrwt beam="2">  1       21 0.69884993E-01 0.25712895E+03</pdfrwt>
<totfact> 0.73754200E+03</totfact>
</mgrwt>
</event>
<event>
 4    1  0.3973261E+000  0.2368102E+03  0.7546771E-02  0.1121936E+00
         21   -1    0    0  501  502  0.00000000000E+00  0.00000000000E+00  0.62190218973E+03  0.62190218973E+03  0.00000000000E+00 0. -1.
         21   -1    0    0  502  503 -0.00000000000E+00 -0.00000000000E+00 -0.53896117491E+03  0.53896117491E+03  0.00000000000E+00 0. -1.
          6    1    1    2  501    0  0.17022629560E+02  0.16081145537E+03  0.57112520986E+03  0.61827429142E+03  0.17300000000E+03 0. -1.
         -6    1    1    2    0  503 -0.17022629560E+02 -0.16081145537E+03 -0.48818419504E+03  0.54258907322E+03  0.17300000000E+03 0. -1.
<mgrwt>
<rscale>  2 0.23681025E+03</rscale>
<asrwt>0</asrwt>
<pdfrwt beam="1">  1       21 0.95677260E-01 0.23681025E+03</pdfrwt>
<pdfrwt beam="2">  1       21 0.82917104E-01 0.23681025E+03</pdfrwt>
<totfact> 0.11095790E+03</totfact>
</mgrwt>
</event>
<event>
 4    1  0.3973261E+000  0.2098305E+03  0.7546771E-02  0.1141700E+00
         21   -1    0    0  501  502  0.00000000000E+00  0.00000000000E+00  0.12686367133E+03  0.12686367133E+03  0.00000000000E+00 0. -1.
         21   -1    0    0  502  503 -0.00000000000E+00 -0.00000000000E+00 -0.52557307899E+03  0.52557307899E+03  0.00000000000E+00 0. -1.
          6    1    1    2  501    0 -0.11036690085E+03  0.43806315584E+02 -0.92331774159E+01  0.21003356316E+03  0.17300000000E+03 0. -1.
         -6    1    1    2    0  503  0.11036690085E+03 -0.43806315584E+02 -0.38947623025E+03  0.44240318717E+03  0.17300000000E+03 0. -1.
<mgrwt>
<rscale>  2 0.20983052E+03</rscale>
<asrwt>0</asrwt>
<pdfrwt beam="1">  1       21 0.19517488E-01 0.20983052E+03</pdfrwt>
<pdfrwt beam="2">  1       21 0.80857397E-01 0.20983052E+03</pdfrwt>
<totfact> 0.32132256E+04</totfact>
</mgrwt>
</event>
<event>
 4    1  0.3973261E+000  0.3114174E+03  0.7546771E-02  0.1079668E+00
         21   -1    0    0  501  502  0.00000000000E+00  0.00000000000E+00  0.85883260399E+02  0.85883260399E+02  0.00000000000E+00 0. -1.
         21   -1    0    0  502  503 -0.00000000000E+00 -0.00000000000E+00 -0.11320579267E+04  0.11320579267E+04  0.00000000000E+00 0. -1.
          6    1    1    2  501    0 -0.79412583541E+02  0.24646590342E+03 -0.55359616299E+03  0.63517675623E+03  0.17300000000E+03 0. -1.
         -6    1    1    2    0  503  0.79412583541E+02 -0.24646590342E+03 -0.49257850335E+03  0.58276443091E+03  0.17300000000E+03 0. -1.
<mgrwt>
<rscale>  2 0.31141740E+03</rscale>
<asrwt>0</asrwt>
<pdfrwt beam="1">  1       21 0.13212809E-01 0.31141740E+03</pdfrwt>
<pdfrwt beam="2">  1       21 0.17416276E+00 0.31141740E+03</pdfrwt>
<totfact> 0.91302872E+03</totfact>
</mgrwt>
</event>
<event>
 4    1  0.3973261E+000  0.1787146E+03  0.7546771E-02  0.1169053E+00
         21   -1    0    0  503  502  0.00000000000E+00  0.00000000000E+00  0.12956883903E+03  0.12956883903E+03  0.00000000000E+00 0.  1.
         21   -1    0    0  501  503 -0.00000000000E+00 -0.00000000000E+00 -0.28599688610E+03  0.28599688610E+03  0.00000000000E+00 0.  1.
          6    1    1    2  501    0  0.32950331487E+02  0.30400404332E+02 -0.15542915850E+03  0.23684833172E+03  0.17300000000E+03 0.  1.
         -6    1    1    2    0  502 -0.32950331487E+02 -0.30400404332E+02 -0.99888858330E+00  0.17871739341E+03  0.17300000000E+03 0.  1.
<mgrwt>
<rscale>  2 0.17871460E+03</rscale>
<asrwt>0</asrwt>
<pdfrwt beam="1">  1       21 0.19933668E-01 0.17871460E+03</pdfrwt>
<pdfrwt beam="2">  1       21 0.43999521E-01 0.17871460E+03</pdfrwt>
<totfact> 0.11583326E+05</totfact>
</mgrwt>
</event>
<event>
 4    1  0.3973261E+000  0.1885907E+03  0.7546771E-02  0.1159739E+00
         21   -1    0    0  503  502  0.00000000000E+00  0.00000000000E+00  0.89472459883E+02  0.89472459883E+02  0.00000000000E+00 0. -1.
         21   -1    0    0  501  503 -0.00000000000E+00 -0.00000000000E+00 -0.53647244348E+03  0.53647244348E+03  0.00000000000E+00 0. -1.
          6    1    1    2  501    0 -0.65800602350E+01 -0.74794100542E+02 -0.38278563463E+03  0.42672156818E+03  0.17300000000E+03 0. -1.
         -6    1    1    2    0  502  0.65800602350E+01  0.74794100542E+02 -0.64214348964E+02  0.19922333518E+03  0.17300000000E+03 0. -1.
<mgrwt>
<rscale>  2 0.18859071E+03</rscale>
<asrwt>0</asrwt>
<pdfrwt beam="1">  1       21 0.13764994E-01 0.18859071E+03</pdfrwt>
<pdfrwt beam="2">  1       21 0.82534221E-01 0.18859071E+03</pdfrwt>
<totfact> 0.58863252E+04</totfact>
</mgrwt>
</event>
<event>
 4    1  0.3973261E+000  0.1975501E+03  0.7546771E-02  0.1151823E+00
         21   -1    0    0  501  502  0.00000000000E+00  0.00000000000E+00  0.69249125935E+02  0.69249125935E+02  0.00000000000E+00 0.  1.
         21   -1    0    0  502  503 -0.00000000000E+00 -0.00000000000E+00 -0.11113677771E+04  0.11113677771E+04  0.00000000000E+00 0.  1.
          6    1    1    2  501    0 -0.10472989771E+02  0.94801662501E+02 -0.10661691605E+03  0.22448431018E+03  0.17300000000E+03 0.  1.
         -6    1    1    2    0  503  0.10472989771E+02 -0.94801662501E+02 -0.93550173509E+03  0.95613259284E+03  0.17300000000E+03 0.  1.
<mgrwt>
<rscale>  2 0.19755009E+03</rscale>
<asrwt>0</asrwt>
<pdfrwt beam="1">  1       21 0.10653713E-01 0.19755009E+03</pdfrwt>
<pdfrwt beam="2">  1       21 0.17097964E+00 0.19755009E+03</pdfrwt>
<totfact> 0.15180333E+04</totfact>
</mgrwt>
</event>
<event>
 4    1  0.3973261E+000  0.2200708E+03  0.7546771E-02  0.1133830E+00
         21   -1    0    0  503  502  0.00000000000E+00  0.00000000000E+00  0.28109157280E+04  0.28109157280E+04  0.00000000000E+00 0. -1.
         21   -1    0    0  501  503 -0.00000000000E+00 -0.00000000000E+00 -0.20187446462E+02  0.20187446462E+02  0.00000000000E+00 0.  1.
          6    1    1    2  501    0 -0.11757319533E+03  0.68401096529E+02  0.85352887663E+03  0.88144353734E+03  0.17300000000E+03 0.  1.
         -6    1    1    2    0  502  0.11757319533E+03 -0.68401096529E+02  0.19371994049E+04  0.19496596371E+04  0.17300000000E+03 0. -1.
<mgrwt>
<rscale>  2 0.22007082E+03</rscale>
<asrwt>0</asrwt>
<pdfrwt beam="1">  1       21 0.43244826E+00 0.22007082E+03</pdfrwt>
<pdfrwt beam="2">  1       21 0.31057632E-02 0.22007082E+03</pdfrwt>
<totfact> 0.31208227E+03</totfact>
</mgrwt>
</event>
<event>
 4    1  0.3973261E+000  0.1834050E+03  0.7546771E-02  0.1164548E+00
         21   -1    0    0  503  502  0.00000000000E+00  0.00000000000E+00  0.22620688974E+03  0.22620688974E+03  0.00000000000E+00 0. -1.
         21   -1    0    0  501  503 -0.00000000000E+00 -0.00000000000E+00 -0.15083278741E+03  0.15083278741E+03  0.00000000000E+00 0. -1.
          6    1    1    2  501    0 -0.46575714845E+02 -0.39231463187E+02  0.15280003000E+02  0.18404043960E+03  0.17300000000E+03 0. -1.
         -6    1    1    2    0  502  0.46575714845E+02  0.39231463187E+02  0.60094099331E+02  0.19299923754E+03  0.17300000000E+03 0. -1.
<mgrwt>
<rscale>  2 0.18340503E+03</rscale>
<asrwt>0</asrwt>
<pdfrwt beam="1">  1       21 0.34801060E-01 0.18340503E+03</pdfrwt>
<pdfrwt beam="2">  1       21 0.23205044E-01 0.18340503E+03</pdfrwt>
<totfact> 0.13932782E+05</totfact>
</mgrwt>
</event>
<event>
 4    1  0.3973261E+000  0.1948231E+03  0.7546771E-02  0.1154182E+00
         21   -1    0    0  501  502  0.00000000000E+00  0.00000000000E+00  0.40824475629E+03  0.40824475629E+03  0.00000000000E+00 0.  1.
         21   -1    0    0  502  503 -0.00000000000E+00 -0.00000000000E+00 -0.99781682096E+02  0.99781682096E+02  0.00000000000E+00 0.  1.
          6    1    1    2  501    0  0.40885948056E+02  0.79720572766E+02  0.22058135297E+03  0.29429944571E+03  0.17300000000E+03 0. -1.
         -6    1    1    2    0  503 -0.40885948056E+02 -0.79720572766E+02  0.87881721224E+02  0.21372699267E+03  0.17300000000E+03 0. -1.
<mgrwt>
<rscale>  2 0.19482307E+03</rscale>
<asrwt>0</asrwt>
<pdfrwt beam="1">  1       21 0.62806885E-01 0.19482307E+03</pdfrwt>
<pdfrwt beam="2">  1       21 0.15351028E-01 0.19482307E+03</pdfrwt>
<totfact> 0.88229403E+04</totfact>
</mgrwt>
</event>
<event>
 4    1  0.3973261E+000  0.3221014E+03  0.7546771E-02  0.1074686E+00
         21   -1    0    0  501  502  0.00000000000E+00  0.00000000000E+00  0.78346054600E+03  0.78346054600E+03  0.00000000000E+00 0. -1.
         21   -1    0    0  502  503 -0.00000000000E+00 -0.00000000000E+00 -0.13307462167E+03  0.13307462167E+03  0.00000000000E+00 0. -1.
          6    1    1    2  501    0  0.21771401236E+03  0.16254515257E+03  0.29316040958E+03  0.43553684522E+03  0.17300000000E+03 0. -1.
         -6    1    1    2    0  503 -0.21771401236E+03 -0.16254515257E+03  0.35722551475E+03  0.48099832244E+03  0.17300000000E+03 0. -1.
<mgrwt>
<rscale>  2 0.32210141E+03</rscale>
<asrwt>0</asrwt>
<pdfrwt beam="1">  1       21 0.12053239E+00 0.32210141E+03</pdfrwt>
<pdfrwt beam="2">  1       21 0.20473019E-01 0.32210141E+03</pdfrwt>
<totfact> 0.10734811E+04</totfact>
</mgrwt>
</event>
<event>
 4    1  0.3973261E+000  0.3009885E+03  0.7546771E-02  0.1084748E+00
         21   -1    0    0  501  502  0.00000000000E+00  0.00000000000E+00  0.32184380438E+03  0.32184380438E+03  0.00000000000E+00 0.  1.
         21   -1    0    0  502  503 -0.00000000000E+00 -0.00000000000E+00 -0.36673203669E+03  0.36673203669E+03  0.00000000000E+00 0.  1.
          6    1    1    2  501    0 -0.99717686265E+02 -0.22521422437E+03  0.14354824776E+03  0.33346688478E+03  0.17300000000E+03 0.  1.
         -6    1    1    2    0  503  0.99717686265E+02  0.22521422437E+03 -0.18843648008E+03  0.35510895629E+03  0.17300000000E+03 0.  1.
<mgrwt>
<rscale>  2 0.30098848E+03</rscale>
<asrwt>0</asrwt>
<pdfrwt beam="1">  1       21 0.49514431E-01 0.30098848E+03</pdfrwt>
<pdfrwt beam="2">  1       21 0.56420313E-01 0.30098848E+03</pdfrwt>
<totfact> 0.10823254E+04</totfact>
</mgrwt>
</event>
<event>
 4    1  0.3973261E+000  0.2344279E+03  0.7546771E-02  0.1123561E+00
         21   -1    0    0  501  502  0.00000000000E+00  0.00000000000E+00  0.29586726893E+02  0.29586726893E+02  0.00000000000E+00 0.  1.
         21   -1    0    0  502  503 -0.00000000000E+00 -0.00000000000E+00 -0.23756975233E+04  0.23756975233E+04  0.00000000000E+00 0. -1.
          6    1    1    2  501    0 -0.10577900532E+03 -0.11763603565E+03 -0.61135931038E+03  0.65476456932E+03  0.17300000000E+03 0.  1.
         -6    1    1    2    0  503  0.10577900532E+03  0.11763603565E+03 -0.17347514860E+04  0.17505196808E+04  0.17300000000E+03 0. -1.
<mgrwt>
<rscale>  2 0.23442789E+03</rscale>
<asrwt>0</asrwt>
<pdfrwt beam="1">  1       21 0.45518038E-02 0.23442789E+03</pdfrwt>
<pdfrwt beam="2">  1       21 0.36549195E+00 0.23442789E+03</pdfrwt>
<totfact> 0.42401876E+03</totfact>
</mgrwt>
</event>
<event>
 4    1  0.3973261E+000  0.3506569E+03  0.7546771E-02  0.1062346E+00
         21   -1    0    0  501  502  0.00000000000E+00  0.00000000000E+00  0.10325343737E+04  0.10325343737E+04  0.00000000000E+00 0. -1.
         21   -1    0    0  502  503 -0.00000000000E+00 -0.00000000000E+00 -0.12409719833E+03  0.12409719833E+03  0.00000000000E+00 0.  1.
          6    1    1    2  501    0 -0.27234835501E+02 -0.30379191529E+03  0.57043302234E+03  0.66959248580E+03  0.17300000000E+03 0. -1.
         -6    1    1    2    0  503  0.27234835501E+02  0.30379191529E+03  0.33800415308E+03  0.48703908628E+03  0.17300000000E+03 0.  1.
<mgrwt>
<rscale>  2 0.35065690E+03</rscale>
<asrwt>0</asrwt>
<pdfrwt beam="1">  1       21 0.15885144E+00 0.35065690E+03</pdfrwt>
<pdfrwt beam="2">  1       21 0.19091877E-01 0.35065690E+03</pdfrwt>
<totfact> 0.58581993E+03</totfact>
</mgrwt>
</event>
<event>
 4    1  0.3973261E+000  0.1755562E+03  0.7546771E-02  0.1172174E+00
         21   -1    0    0  501  502  0.00000000000E+00  0.00000000000E+00  0.14370051288E+03  0.14370051288E+03  0.00000000000E+00 0.  1.
         21   -1    0    0  502  503 -0.00000000000E+00 -0.00000000000E+00 -0.58945099512E+03  0.58945099512E+03  0.00000000000E+00 0.  1.
          6    1    1    2  501    0  0.26031992114E+01  0.29735280669E+02  0.69501242743E+02  0.18881309887E+03  0.17300000000E+03 0.  1.
         -6    1    1    2    0  503 -0.26031992114E+01 -0.29735280669E+02 -0.51525172498E+03  0.54433840913E+03  0.17300000000E+03 0.  1.
<mgrwt>
<rscale>  2 0.17555616E+03</rscale>
<asrwt>0</asrwt>
<pdfrwt beam="1">  1       21 0.22107771E-01 0.17555616E+03</pdfrwt>
<pdfrwt beam="2">  1       21 0.90684769E-01 0.17555616E+03</pdfrwt>
<totfact> 0.19953774E+04</totfact>
</mgrwt>
</event>
<event>
 4    1  0.3973261E+000  0.2990626E+03  0.7546771E-02  0.1085710E+00
         21   -1    0    0  501  502  0.00000000000E+00  0.00000000000E+00  0.11728071983E+03  0.11728071983E+03  0.00000000000E+00 0.  1.
         21   -1    0    0  502  503 -0.00000000000E+00 -0.00000000000E+00 -0.98039469801E+03  0.98039469801E+03  0.00000000000E+00 0.  1.
          6    1    1    2  501    0 -0.10010955751E+03  0.22245784067E+03 -0.17287514463E+03  0.34543339446E+03  0.17300000000E+03 0.  1.
         -6    1    1    2    0  503  0.10010955751E+03 -0.22245784067E+03 -0.69023883355E+03  0.75224202337E+03  0.17300000000E+03 0.  1.
<mgrwt>
<rscale>  2 0.29906256E+03</rscale>
<asrwt>0</asrwt>
<pdfrwt beam="1">  1       21 0.18043188E-01 0.29906256E+03</pdfrwt>
<pdfrwt beam="2">  1       21 0.15082995E+00 0.29906256E+03</pdfrwt>
<totfact> 0.76888774E+03</totfact>
</mgrwt>
</event>
<event>
 4    1  0.3973261E+000  0.1787170E+03  0.7546771E-02  0.1169051E+00
         21   -1    0    0  501  502  0.00000000000E+00  0.00000000000E+00  0.20606217798E+02  0.20606217798E+02  0.00000000000E+00 0.  1.
         21   -1    0    0  502  503 -0.00000000000E+00 -0.00000000000E+00 -0.16273005894E+04  0.16273005894E+04  0.00000000000E+00 0.  1.
          6    1    1    2  501    0 -0.44825313617E+02  0.12080741588E+01 -0.62377363941E+03  0.64887080487E+03  0.17300000000E+03 0.  1.
         -6    1    1    2    0  503  0.44825313617E+02 -0.12080741588E+01 -0.98292073221E+03  0.99903600235E+03  0.17300000000E+03 0.  1.
<mgrwt>
<rscale>  2 0.17871701E+03</rscale>
<asrwt>0</asrwt>
<pdfrwt beam="1">  1       21 0.31701875E-02 0.17871701E+03</pdfrwt>
<pdfrwt beam="2">  1       21 0.25035393E+00 0.17871701E+03</pdfrwt>
<totfact> 0.38651865E+04</totfact>
</mgrwt>
</event>
<event>
 4    1  0.3973261E+000  0.1833583E+03  0.7546771E-02  0.1164592E+00
         21   -1    0    0  501  502  0.00000000000E+00  0.00000000000E+00  0.15862720593E+02  0.15862720593E+02  0.00000000000E+00 0.  1.
         21   -1    0    0  502  503 -0.00000000000E+00 -0.00000000000E+00 -0.21784289062E+04  0.21784289062E+04  0.00000000000E+00 0.  1.
          6    1    1    2  501    0  0.24171366485E+02 -0.55740480911E+02 -0.90075782740E+03  0.91923061295E+03  0.17300000000E+03 0.  1.
         -6    1    1    2    0  503 -0.24171366485E+02  0.55740480911E+02 -0.12618083583E+04  0.12750610139E+04  0.17300000000E+03 0.  1.
<mgrwt>
<rscale>  2 0.18335827E+03</rscale>
<asrwt>0</asrwt>
<pdfrwt beam="1">  1       21 0.24404170E-02 0.18335827E+03</pdfrwt>
<pdfrwt beam="2">  1       21 0.33514312E+00 0.18335827E+03</pdfrwt>
<totfact> 0.19201973E+04</totfact>
</mgrwt>
</event>
<event>
 4    1  0.3973261E+000  0.2664375E+03  0.7546771E-02  0.1103336E+00
         21   -1    0    0  503  502  0.00000000000E+00  0.00000000000E+00  0.79910584674E+02  0.79910584674E+02  0.00000000000E+00 0. -1.
         21   -1    0    0  501  503 -0.00000000000E+00 -0.00000000000E+00 -0.89027327215E+03  0.89027327215E+03  0.00000000000E+00 0. -1.
          6    1    1    2  501    0  0.18300865298E+03  0.86992813583E+02 -0.38266025416E+03  0.46628080251E+03  0.17300000000E+03 0. -1.
         -6    1    1    2    0  502 -0.18300865298E+03 -0.86992813583E+02 -0.42770243331E+03  0.50390305431E+03  0.17300000000E+03 0. -1.
<mgrwt>
<rscale>  2 0.26643745E+03</rscale>
<asrwt>0</asrwt>
<pdfrwt beam="1">  1       21 0.12293936E-01 0.26643745E+03</pdfrwt>
<pdfrwt beam="2">  1       21 0.13696512E+00 0.26643745E+03</pdfrwt>
<totfact> 0.20394045E+04</totfact>
</mgrwt>
</event>
<event>
 4    1  0.3973261E+000  0.2332039E+03  0.7546771E-02  0.1124405E+00
         21   -1    0    0  503  502  0.00000000000E+00  0.00000000000E+00  0.15516297693E+03  0.15516297693E+03  0.00000000000E+00 0.  1.
         21   -1    0    0  501  503 -0.00000000000E+00 -0.00000000000E+00 -0.85388455134E+03  0.85388455134E+03  0.00000000000E+00 0.  1.
          6    1    1    2  501    0 -0.77806346623E+02  0.13565117890E+03 -0.73673751781E+03  0.77276532017E+03  0.17300000000E+03 0.  1.
         -6    1    1    2    0  502  0.77806346623E+02 -0.13565117890E+03  0.38015943399E+02  0.23628220810E+03  0.17300000000E+03 0.  1.
<mgrwt>
<rscale>  2 0.23320392E+03</rscale>
<asrwt>0</asrwt>
<pdfrwt beam="1">  1       21 0.23871227E-01 0.23320392E+03</pdfrwt>
<pdfrwt beam="2">  1       21 0.13136685E+00 0.23320392E+03</pdfrwt>
<totfact> 0.67588589E+03</totfact>
</mgrwt>
</event>
<event>
 4    1  0.3973261E+000  0.1730029E+03  0.7546771E-02  0.1174752E+00
         21   -1    0    0  501  502  0.00000000000E+00  0.00000000000E+00  0.15998852852E+03  0.15998852852E+03  0.00000000000E+00 0. -1.
         21   -1    0    0  502  503 -0.00000000000E+00 -0.00000000000E+00 -0.37036969298E+03  0.37036969298E+03  0.00000000000E+00 0. -1.
          6    1    1    2  501    0 -0.34776140088E+00  0.93550648060E+00  0.81359515988E+02  0.19117888731E+03  0.17300000000E+03 0. -1.
         -6    1    1    2    0  503  0.34776140088E+00 -0.93550648060E+00 -0.29174068045E+03  0.33917933418E+03  0.17300000000E+03 0. -1.
<mgrwt>
<rscale>  2 0.17300288E+03</rscale>
<asrwt>0</asrwt>
<pdfrwt beam="1">  1       21 0.24613620E-01 0.17300288E+03</pdfrwt>
<pdfrwt beam="2">  1       21 0.56979952E-01 0.17300288E+03</pdfrwt>
<totfact> 0.45591878E+04</totfact>
</mgrwt>
</event>
<event>
 4    1  0.3973261E+000  0.2249893E+03  0.7546771E-02  0.1130217E+00
         21   -1    0    0  501  502  0.00000000000E+00  0.00000000000E+00  0.21264529161E+03  0.21264529161E+03  0.00000000000E+00 0. -1.
         21   -1    0    0  502  503 -0.00000000000E+00 -0.00000000000E+00 -0.89200521025E+03  0.89200521025E+03  0.00000000000E+00 0.  1.
          6    1    1    2  501    0  0.14128095098E+03  0.27034444795E+02  0.13323741841E+03  0.26148112356E+03  0.17300000000E+03 0. -1.
         -6    1    1    2    0  503 -0.14128095098E+03 -0.27034444795E+02 -0.81259733705E+03  0.84316937830E+03  0.17300000000E+03 0.  1.
<mgrwt>
<rscale>  2 0.22498926E+03</rscale>
<asrwt>0</asrwt>
<pdfrwt beam="1">  1       21 0.32714660E-01 0.22498926E+03</pdfrwt>
<pdfrwt beam="2">  1       21 0.13723157E+00 0.22498926E+03</pdfrwt>
<totfact> 0.32977341E+03</totfact>
</mgrwt>
</event>
<event>
 4    1  0.3973261E+000  0.2135471E+03  0.7546771E-02  0.1138787E+00
         21   -1    0    0  503  502  0.00000000000E+00  0.00000000000E+00  0.32630526001E+03  0.32630526001E+03  0.00000000000E+00 0. -1.
         21   -1    0    0  501  503 -0.00000000000E+00 -0.00000000000E+00 -0.14346489530E+03  0.14346489530E+03  0.00000000000E+00 0.  1.
          6    1    1    2  501    0  0.12516599510E+03 -0.26153448921E+01  0.53642118366E+02  0.22018138709E+03  0.17300000000E+03 0.  1.
         -6    1    1    2    0  502 -0.12516599510E+03  0.26153448921E+01  0.12919824635E+03  0.24958876822E+03  0.17300000000E+03 0. -1.
<mgrwt>
<rscale>  2 0.21354711E+03</rscale>
<asrwt>0</asrwt>
<pdfrwt beam="1">  1       21 0.50200809E-01 0.21354711E+03</pdfrwt>
<pdfrwt beam="2">  1       21 0.22071522E-01 0.21354711E+03</pdfrwt>
<totfact> 0.71835065E+04</totfact>
</mgrwt>
</event>
<event>
 4    1  0.3973261E+000  0.1753085E+03  0.7546771E-02  0.1172422E+00
         21   -1    0    0  503  502  0.00000000000E+00  0.00000000000E+00  0.11413025750E+03  0.11413025750E+03  0.00000000000E+00 0.  1.
         21   -1    0    0  501  503 -0.00000000000E+00 -0.00000000000E+00 -0.28687698121E+03  0.28687698121E+03  0.00000000000E+00 0.  1.
          6    1    1    2  501    0 -0.27313092065E+02 -0.76204427729E+01 -0.13603085105E+03  0.22189517476E+03  0.17300000000E+03 0. -1.
         -6    1    1    2    0  502  0.27313092065E+02  0.76204427729E+01 -0.36715872671E+02  0.17911206395E+03  0.17300000000E+03 0. -1.
<mgrwt>
<rscale>  2 0.17530852E+03</rscale>
<asrwt>0</asrwt>
<pdfrwt beam="1">  1       21 0.17558502E-01 0.17530852E+03</pdfrwt>
<pdfrwt beam="2">  1       21 0.44134919E-01 0.17530852E+03</pdfrwt>
<totfact> 0.14577380E+05</totfact>
</mgrwt>
</event>
<event>
 4    1  0.3973261E+000  0.1871546E+03  0.7546771E-02  0.1161053E+00
         21   -1    0    0  503  502  0.00000000000E+00  0.00000000000E+00  0.12307782294E+03  0.12307782294E+03  0.00000000000E+00 0. -1.
         21   -1    0    0  501  503 -0.00000000000E+00 -0.00000000000E+00 -0.37874452099E+03  0.37874452099E+03  0.00000000000E+00 0. -1.
          6    1    1    2  501    0  0.70355873281E+02 -0.12160469171E+02 -0.25293567357E+03  0.31464786807E+03  0.17300000000E+03 0. -1.
         -6    1    1    2    0  502 -0.70355873281E+02  0.12160469171E+02 -0.27310244727E+01  0.18717447585E+03  0.17300000000E+03 0. -1.
<mgrwt>
<rscale>  2 0.18715455E+03</rscale>
<asrwt>0</asrwt>
<pdfrwt beam="1">  1       21 0.18935050E-01 0.18715455E+03</pdfrwt>
<pdfrwt beam="2">  1       21 0.58268387E-01 0.18715455E+03</pdfrwt>
<totfact> 0.70685654E+04</totfact>
</mgrwt>
</event>
<event>
 4    1  0.3973261E+000  0.2090077E+03  0.7546771E-02  0.1142354E+00
         21   -1    0    0  501  502  0.00000000000E+00  0.00000000000E+00  0.32818914154E+03  0.32818914154E+03  0.00000000000E+00 0.  1.
         21   -1    0    0  502  503 -0.00000000000E+00 -0.00000000000E+00 -0.15674780296E+03  0.15674780296E+03  0.00000000000E+00 0. -1.
          6    1    1    2  501    0 -0.86303430441E+02  0.79416209792E+02  0.17988517088E+03  0.27575875541E+03  0.17300000000E+03 0.  1.
         -6    1    1    2    0  503  0.86303430441E+02 -0.79416209792E+02 -0.84438323060E+01  0.20917818908E+03  0.17300000000E+03 0. -1.
<mgrwt>
<rscale>  2 0.20900769E+03</rscale>
<asrwt>0</asrwt>
<pdfrwt beam="1">  1       21 0.50490637E-01 0.20900769E+03</pdfrwt>
<pdfrwt beam="2">  1       21 0.24115047E-01 0.20900769E+03</pdfrwt>
<totfact> 0.60114784E+04</totfact>
</mgrwt>
</event>
<event>
 4    1  0.3973261E+000  0.2017727E+03  0.7546771E-02  0.1148252E+00
         21   -1    0    0  503  502  0.00000000000E+00  0.00000000000E+00  0.16081816299E+03  0.16081816299E+03  0.00000000000E+00 0.  1.
         21   -1    0    0  501  503 -0.00000000000E+00 -0.00000000000E+00 -0.31196826689E+03  0.31196826689E+03  0.00000000000E+00 0. -1.
          6    1    1    2  501    0 -0.53350572486E+00 -0.10384095595E+03 -0.17821357809E+03  0.26920681302E+03  0.17300000000E+03 0.  1.
         -6    1    1    2    0  502  0.53350572486E+00  0.10384095595E+03  0.27063474194E+02  0.20357961685E+03  0.17300000000E+03 0. -1.
<mgrwt>
<rscale>  2 0.20177272E+03</rscale>
<asrwt>0</asrwt>
<pdfrwt beam="1">  1       21 0.24741256E-01 0.20177272E+03</pdfrwt>
<pdfrwt beam="2">  1       21 0.47995118E-01 0.20177272E+03</pdfrwt>
<totfact> 0.63832644E+04</totfact>
</mgrwt>
</event>
<event>
 4    1  0.3973261E+000  0.2033186E+03  0.7546771E-02  0.1146969E+00
         21   -1    0    0  501  502  0.00000000000E+00  0.00000000000E+00  0.15981353594E+03  0.15981353594E+03  0.00000000000E+00 0.  1.
         21   -1    0    0  502  503 -0.00000000000E+00 -0.00000000000E+00 -0.36807301923E+03  0.36807301923E+03  0.00000000000E+00 0.  1.
          6    1    1    2  501    0 -0.10541848461E+03 -0.17215705444E+02  0.39771601904E+02  0.20717195208E+03  0.17300000000E+03 0.  1.
         -6    1    1    2    0  503  0.10541848461E+03  0.17215705444E+02 -0.24803108519E+03  0.32071460309E+03  0.17300000000E+03 0.  1.
<mgrwt>
<rscale>  2 0.20331856E+03</rscale>
<asrwt>0</asrwt>
<pdfrwt beam="1">  1       21 0.24586698E-01 0.20331856E+03</pdfrwt>
<pdfrwt beam="2">  1       21 0.56626618E-01 0.20331856E+03</pdfrwt>
<totfact> 0.45604424E+04</totfact>
</mgrwt>
</event>
<event>
 4    1  0.3973261E+000  0.2115690E+03  0.7546771E-02  0.1140330E+00
         21   -1    0    0  501  502  0.00000000000E+00  0.00000000000E+00  0.18521480688E+03  0.18521480688E+03  0.00000000000E+00 0. -1.
         21   -1    0    0  502  503 -0.00000000000E+00 -0.00000000000E+00 -0.95713642349E+03  0.95713642349E+03  0.00000000000E+00 0.  1.
          6    1    1    2  501    0  0.11006378400E+03 -0.52138322684E+02  0.10786799419E+03  0.23748041058E+03  0.17300000000E+03 0. -1.
         -6    1    1    2    0  503 -0.11006378400E+03  0.52138322684E+02 -0.87978961079E+03  0.90487081978E+03  0.17300000000E+03 0.  1.
<mgrwt>
<rscale>  2 0.21156900E+03</rscale>
<asrwt>0</asrwt>
<pdfrwt beam="1">  1       21 0.28494586E-01 0.21156900E+03</pdfrwt>
<pdfrwt beam="2">  1       21 0.14725176E+00 0.21156900E+03</pdfrwt>
<totfact> 0.36358827E+03</totfact>
</mgrwt>
</event>
<event>
 4    1  0.3973261E+000  0.1984308E+03  0.7546771E-02  0.1151070E+00
         21   -1    0    0  501  502  0.00000000000E+00  0.00000000000E+00  0.42429065219E+02  0.42429065219E+02  0.00000000000E+00 0. -1.
         21   -1    0    0  502  503 -0.00000000000E+00 -0.00000000000E+00 -0.98652646937E+03  0.98652646937E+03  0.00000000000E+00 0.  1.
          6    1    1    2  501    0 -0.92627368587E+01 -0.96747040580E+02 -0.34675346487E+03  0.39951564870E+03  0.17300000000E+03 0. -1.
         -6    1    1    2    0  503  0.92627368587E+01  0.96747040580E+02 -0.59734393929E+03  0.62943988590E+03  0.17300000000E+03 0.  1.
<mgrwt>
<rscale>  2 0.19843081E+03</rscale>
<asrwt>0</asrwt>
<pdfrwt beam="1">  1       21 0.65275488E-02 0.19843081E+03</pdfrwt>
<pdfrwt beam="2">  1       21 0.15177329E+00 0.19843081E+03</pdfrwt>
<totfact> 0.49281618E+04</totfact>
</mgrwt>
</event>
<event>
 4    1  0.3973261E+000  0.1788708E+03  0.7546771E-02  0.1168900E+00
         21   -1    0    0  501  502  0.00000000000E+00  0.00000000000E+00  0.49162078605E+03  0.49162078605E+03  0.00000000000E+00 0.  1.
         21   -1    0    0  502  503 -0.00000000000E+00 -0.00000000000E+00 -0.20827976270E+03  0.20827976270E+03  0.00000000000E+00 0.  1.
          6    1    1    2  501    0  0.42777199447E+02  0.15357890840E+02  0.43184132412E+03  0.46742024221E+03  0.17300000000E+03 0.  1.
         -6    1    1    2    0  503 -0.42777199447E+02 -0.15357890840E+02 -0.14850030077E+03  0.23248030655E+03  0.17300000000E+03 0.  1.
<mgrwt>
<rscale>  2 0.17887077E+03</rscale>
<asrwt>0</asrwt>
<pdfrwt beam="1">  1       21 0.75633966E-01 0.17887077E+03</pdfrwt>
<pdfrwt beam="2">  1       21 0.32043041E-01 0.17887077E+03</pdfrwt>
<totfact> 0.14746874E+04</totfact>
</mgrwt>
</event>
<event>
 4    1  0.3973261E+000  0.2176295E+03  0.7546771E-02  0.1135663E+00
         21   -1    0    0  501  502  0.00000000000E+00  0.00000000000E+00  0.52177693928E+02  0.52177693928E+02  0.00000000000E+00 0.  1.
         21   -1    0    0  502  503 -0.00000000000E+00 -0.00000000000E+00 -0.91014824545E+03  0.91014824545E+03  0.00000000000E+00 0. -1.
          6    1    1    2  501    0  0.70941993730E+02  0.11135910667E+03 -0.45385017199E+03  0.50333149686E+03  0.17300000000E+03 0. -1.
         -6    1    1    2    0  503 -0.70941993730E+02 -0.11135910667E+03 -0.40412037953E+03  0.45899444252E+03  0.17300000000E+03 0.  1.
<mgrwt>
<rscale>  2 0.21762954E+03</rscale>
<asrwt>0</asrwt>
<pdfrwt beam="1">  1       21 0.80273375E-02 0.21762954E+03</pdfrwt>
<pdfrwt beam="2">  1       21 0.14002281E+00 0.21762954E+03</pdfrwt>
<totfact> 0.42075198E+04</totfact>
</mgrwt>
</event>
<event>
 4    1  0.3973261E+000  0.1798038E+03  0.7546771E-02  0.1167993E+00
         21   -1    0    0  501  502  0.00000000000E+00  0.00000000000E+00  0.41188794865E+03  0.41188794865E+03  0.00000000000E+00 0. -1.
         21   -1    0    0  502  503 -0.00000000000E+00 -0.00000000000E+00 -0.78754745013E+02  0.78754745013E+02  0.00000000000E+00 0. -1.
          6    1    1    2  501    0 -0.47898032353E+02 -0.10304342255E+02  0.18076962917E+03  0.25496482072E+03  0.17300000000E+03 0. -1.
         -6    1    1    2    0  503  0.47898032353E+02  0.10304342255E+02  0.15236357447E+03  0.23567787295E+03  0.17300000000E+03 0. -1.
<mgrwt>
<rscale>  2 0.17980378E+03</rscale>
<asrwt>0</asrwt>
<pdfrwt beam="1">  1       21 0.63367376E-01 0.17980378E+03</pdfrwt>
<pdfrwt beam="2">  1       21 0.12116115E-01 0.17980378E+03</pdfrwt>
<totfact> 0.13344570E+05</totfact>
</mgrwt>
</event>
<event>
 4    1  0.3973261E+000  0.1846775E+03  0.7546771E-02  0.1163351E+00
         21   -1    0    0  503  502  0.00000000000E+00  0.00000000000E+00  0.37901713301E+03  0.37901713301E+03  0.00000000000E+00 0. -1.
         21   -1    0    0  501  503 -0.00000000000E+00 -0.00000000000E+00 -0.19568165126E+03  0.19568165126E+03  0.00000000000E+00 0. -1.
          6    1    1    2  501    0  0.21949420767E+02 -0.60786473545E+02 -0.11951883139E+03  0.21997846143E+03  0.17300000000E+03 0. -1.
         -6    1    1    2    0  502 -0.21949420767E+02  0.60786473545E+02  0.30285431315E+03  0.35472032283E+03  0.17300000000E+03 0. -1.
<mgrwt>
<rscale>  2 0.18467748E+03</rscale>
<asrwt>0</asrwt>
<pdfrwt beam="1">  1       21 0.58310328E-01 0.18467748E+03</pdfrwt>
<pdfrwt beam="2">  1       21 0.30104869E-01 0.18467748E+03</pdfrwt>
<totfact> 0.29282042E+04</totfact>
</mgrwt>
</event>
<event>
 4    1  0.3973261E+000  0.2207543E+03  0.7546771E-02  0.1133322E+00
         21   -1    0    0  503  502  0.00000000000E+00  0.00000000000E+00  0.79719682862E+02  0.79719682862E+02  0.00000000000E+00 0.  1.
         21   -1    0    0  501  503 -0.00000000000E+00 -0.00000000000E+00 -0.63337951549E+03  0.63337951549E+03  0.00000000000E+00 0. -1.
          6    1    1    2  501    0 -0.13493266582E+03  0.24426471972E+02 -0.34340367944E+03  0.40823836651E+03  0.17300000000E+03 0. -1.
         -6    1    1    2    0  502  0.13493266582E+03 -0.24426471972E+02 -0.21025615319E+03  0.30486083185E+03  0.17300000000E+03 0.  1.
<mgrwt>
<rscale>  2 0.22075434E+03</rscale>
<asrwt>0</asrwt>
<pdfrwt beam="1">  1       21 0.12264567E-01 0.22075434E+03</pdfrwt>
<pdfrwt beam="2">  1       21 0.97443003E-01 0.22075434E+03</pdfrwt>
<totfact> 0.48567176E+04</totfact>
</mgrwt>
</event>
<event>
 4    1  0.3973261E+000  0.2260878E+03  0.7546771E-02  0.1129424E+00
         21   -1    0    0  501  502  0.00000000000E+00  0.00000000000E+00  0.53175676930E+03  0.53175676930E+03  0.00000000000E+00 0.  1.
         21   -1    0    0  502  503 -0.00000000000E+00 -0.00000000000E+00 -0.22444143413E+03  0.22444143413E+03  0.00000000000E+00 0.  1.
          6    1    1    2  501    0  0.12839187679E+03  0.68572878453E+02  0.43954399000E+03  0.49428193658E+03  0.17300000000E+03 0.  1.
         -6    1    1    2    0  503 -0.12839187679E+03 -0.68572878453E+02 -0.13222865482E+03  0.26191626685E+03  0.17300000000E+03 0.  1.
<mgrwt>
<rscale>  2 0.22608785E+03</rscale>
<asrwt>0</asrwt>
<pdfrwt beam="1">  1       21 0.81808733E-01 0.22608785E+03</pdfrwt>
<pdfrwt beam="2">  1       21 0.34529452E-01 0.22608785E+03</pdfrwt>
<totfact> 0.10338064E+04</totfact>
</mgrwt>
</event>
<event>
 4    1  0.3973261E+000  0.1825904E+03  0.7546771E-02  0.1165319E+00
         21   -1    0    0  501  502  0.00000000000E+00  0.00000000000E+00  0.20100859035E+03  0.20100859035E+03  0.00000000000E+00 0. -1.
         21   -1    0    0  502  503 -0.00000000000E+00 -0.00000000000E+00 -0.33397003236E+03  0.33397003236E+03  0.00000000000E+00 0.  1.
          6    1    1    2  501    0  0.42720168159E+02  0.39814882300E+02  0.12329899935E+03  0.22032222054E+03  0.17300000000E+03 0. -1.
         -6    1    1    2    0  503 -0.42720168159E+02 -0.39814882300E+02 -0.25626044137E+03  0.31465640217E+03  0.17300000000E+03 0.  1.
<mgrwt>
<rscale>  2 0.18259035E+03</rscale>
<asrwt>0</asrwt>
<pdfrwt beam="1">  1       21 0.30924398E-01 0.18259035E+03</pdfrwt>
<pdfrwt beam="2">  1       21 0.51380005E-01 0.18259035E+03</pdfrwt>
<totfact> 0.36339400E+04</totfact>
</mgrwt>
</event>
<event>
 4    1  0.3973261E+000  0.2721045E+03  0.7546771E-02  0.1100081E+00
         21   -1    0    0  501  502  0.00000000000E+00  0.00000000000E+00  0.10199429957E+03  0.10199429957E+03  0.00000000000E+00 0.  1.
         21   -1    0    0  502  503 -0.00000000000E+00 -0.00000000000E+00 -0.76224477766E+03  0.76224477766E+03  0.00000000000E+00 0. -1.
          6    1    1    2  501    0 -0.17868972693E+02  0.20926674191E+03 -0.23580829557E+03  0.36006446883E+03  0.17300000000E+03 0. -1.
         -6    1    1    2    0  503  0.17868972693E+02 -0.20926674191E+03 -0.42444218252E+03  0.50417460840E+03  0.17300000000E+03 0.  1.
<mgrwt>
<rscale>  2 0.27210452E+03</rscale>
<asrwt>0</asrwt>
<pdfrwt beam="1">  1       21 0.15691431E-01 0.27210452E+03</pdfrwt>
<pdfrwt beam="2">  1       21 0.11726843E+00 0.27210452E+03</pdfrwt>
<totfact> 0.19325633E+04</totfact>
</mgrwt>
</event>
<event>
 4    1  0.3973261E+000  0.2159354E+03  0.7546771E-02  0.1136950E+00
         21   -1    0    0  501  502  0.00000000000E+00  0.00000000000E+00  0.14325246284E+03  0.14325246284E+03  0.00000000000E+00 0. -1.
         21   -1    0    0  502  503 -0.00000000000E+00 -0.00000000000E+00 -0.34404635965E+03  0.34404635965E+03  0.00000000000E+00 0. -1.
          6    1    1    2  501    0 -0.10015102062E+03  0.81663106373E+02 -0.43820696169E+02  0.22033688590E+03  0.17300000000E+03 0. -1.
         -6    1    1    2    0  503  0.10015102062E+03 -0.81663106373E+02 -0.15697320064E+03  0.26696193660E+03  0.17300000000E+03 0. -1.
<mgrwt>
<rscale>  2 0.21593538E+03</rscale>
<asrwt>0</asrwt>
<pdfrwt beam="1">  1       21 0.22038840E-01 0.21593538E+03</pdfrwt>
<pdfrwt beam="2">  1       21 0.52930209E-01 0.21593538E+03</pdfrwt>
<totfact> 0.64389895E+04</totfact>
</mgrwt>
</event>
<event>
 4    1  0.3973261E+000  0.1850840E+03  0.7546771E-02  0.1162971E+00
         21   -1    0    0  503  502  0.00000000000E+00  0.00000000000E+00  0.28347961478E+02  0.28347961478E+02  0.00000000000E+00 0. -1.
         21   -1    0    0  501  503 -0.00000000000E+00 -0.00000000000E+00 -0.12507407984E+04  0.12507407984E+04  0.00000000000E+00 0. -1.
          6    1    1    2  501    0  0.59092656849E+02 -0.28898741562E+02 -0.72884689284E+03  0.75197996819E+03  0.17300000000E+03 0. -1.
         -6    1    1    2    0  502 -0.59092656849E+02  0.28898741562E+02 -0.49354594412E+03  0.52710879173E+03  0.17300000000E+03 0. -1.
<mgrwt>
<rscale>  2 0.18508398E+03</rscale>
<asrwt>0</asrwt>
<pdfrwt beam="1">  1       21 0.43612244E-02 0.18508398E+03</pdfrwt>
<pdfrwt beam="2">  1       21 0.19242168E+00 0.18508398E+03</pdfrwt>
<totfact> 0.51198851E+04</totfact>
</mgrwt>
</event>
<event>
 4    1  0.3973261E+000  0.2338730E+03  0.7546771E-02  0.1123943E+00
         21   -1    0    0  503  502  0.00000000000E+00  0.00000000000E+00  0.28285351808E+03  0.28285351808E+03  0.00000000000E+00 0.  1.
         21   -1    0    0  501  503 -0.00000000000E+00 -0.00000000000E+00 -0.29361430842E+03  0.29361430842E+03  0.00000000000E+00 0. -1.
          6    1    1    2  501    0 -0.83533370884E+02 -0.13337817176E+03 -0.17379405980E+03  0.29137765181E+03  0.17300000000E+03 0. -1.
         -6    1    1    2    0  502  0.83533370884E+02  0.13337817176E+03  0.16303326946E+03  0.28509017468E+03  0.17300000000E+03 0.  1.
<mgrwt>
<rscale>  2 0.23387296E+03</rscale>
<asrwt>0</asrwt>
<pdfrwt beam="1">  1       21 0.43515926E-01 0.23387296E+03</pdfrwt>
<pdfrwt beam="2">  1       21 0.45171432E-01 0.23387296E+03</pdfrwt>
<totfact> 0.23332406E+04</totfact>
</mgrwt>
</event>
<event>
 4    1  0.3973261E+000  0.2404170E+03  0.7546771E-02  0.1119515E+00
         21   -1    0    0  501  502  0.00000000000E+00  0.00000000000E+00  0.27268369374E+04  0.27268369374E+04  0.00000000000E+00 0.  1.
         21   -1    0    0  502  503 -0.00000000000E+00 -0.00000000000E+00 -0.21359852562E+02  0.21359852562E+02  0.00000000000E+00 0.  1.
          6    1    1    2  501    0 -0.10812990414E+03  0.12719762904E+03  0.12326958513E+04  0.12559217232E+04  0.17300000000E+03 0.  1.
         -6    1    1    2    0  503  0.10812990414E+03 -0.12719762904E+03  0.14727812335E+04  0.14922750667E+04  0.17300000000E+03 0.  1.
<mgrwt>
<rscale>  2 0.24041696E+03</rscale>
<asrwt>0</asrwt>
<pdfrwt beam="1">  1       21 0.41951310E+00 0.24041696E+03</pdfrwt>
<pdfrwt beam="2">  1       21 0.32861333E-02 0.24041696E+03</pdfrwt>
<totfact> 0.33595052E+03</totfact>
</mgrwt>
</event>
<event>
 4    1  0.3973261E+000  0.1845427E+03  0.7546771E-02  0.1163478E+00
         21   -1    0    0  501  502  0.00000000000E+00  0.00000000000E+00  0.15792084138E+03  0.15792084138E+03  0.00000000000E+00 0.  1.
         21   -1    0    0  502  503 -0.00000000000E+00 -0.00000000000E+00 -0.25554089932E+03  0.25554089932E+03  0.00000000000E+00 0.  1.
          6    1    1    2  501    0 -0.63860795326E+02  0.69852624642E+01  0.32866906335E+02  0.18744660201E+03  0.17300000000E+03 0.  1.
         -6    1    1    2    0  503  0.63860795326E+02 -0.69852624642E+01 -0.13048696427E+03  0.22601513869E+03  0.17300000000E+03 0.  1.
<mgrwt>
<rscale>  2 0.18454266E+03</rscale>
<asrwt>0</asrwt>
<pdfrwt beam="1">  1       21 0.24295514E-01 0.18454266E+03</pdfrwt>
<pdfrwt beam="2">  1       21 0.39313984E-01 0.18454266E+03</pdfrwt>
<totfact> 0.10007240E+05</totfact>
</mgrwt>
</event>
<event>
 4    1  0.3973261E+000  0.1739587E+03  0.7546771E-02  0.1173781E+00
         21   -1    0    0  503  502  0.00000000000E+00  0.00000000000E+00  0.55889774282E+02  0.55889774282E+02  0.00000000000E+00 0.  1.
         21   -1    0    0  501  503 -0.00000000000E+00 -0.00000000000E+00 -0.78951216324E+03  0.78951216324E+03  0.00000000000E+00 0.  1.
          6    1    1    2  501    0  0.13309848564E+02  0.12468428543E+02 -0.60374803787E+03  0.62830988136E+03  0.17300000000E+03 0. -1.
         -6    1    1    2    0  502 -0.13309848564E+02 -0.12468428543E+02 -0.12987435109E+03  0.21709205616E+03  0.17300000000E+03 0. -1.
<mgrwt>
<rscale>  2 0.17395866E+03</rscale>
<asrwt>0</asrwt>
<pdfrwt beam="1">  1       21 0.85984272E-02 0.17395866E+03</pdfrwt>
<pdfrwt beam="2">  1       21 0.12146340E+00 0.17395866E+03</pdfrwt>
<totfact> 0.54747775E+04</totfact>
</mgrwt>
</event>
<event>
 4    1  0.3973261E+000  0.1900063E+03  0.7546771E-02  0.1158456E+00
         21   -1    0    0  503  502  0.00000000000E+00  0.00000000000E+00  0.40930666955E+03  0.40930666955E+03  0.00000000000E+00 0.  1.
         21   -1    0    0  501  503 -0.00000000000E+00 -0.00000000000E+00 -0.14079464860E+03  0.14079464860E+03  0.00000000000E+00 0.  1.
          6    1    1    2  501    0 -0.23491910465E+02  0.74976711945E+02 -0.33846798984E+02  0.19299736525E+03  0.17300000000E+03 0.  1.
         -6    1    1    2    0  502  0.23491910465E+02 -0.74976711945E+02  0.30235881994E+03  0.35710395291E+03  0.17300000000E+03 0.  1.
<mgrwt>
<rscale>  2 0.19000626E+03</rscale>
<asrwt>0</asrwt>
<pdfrwt beam="1">  1       21 0.62970256E-01 0.19000626E+03</pdfrwt>
<pdfrwt beam="2">  1       21 0.21660715E-01 0.19000626E+03</pdfrwt>
<totfact> 0.46469367E+04</totfact>
</mgrwt>
</event>
<event>
 4    1  0.3973261E+000  0.1741527E+03  0.7546771E-02  0.1173585E+00
         21   -1    0    0  503  502  0.00000000000E+00  0.00000000000E+00  0.51315551421E+03  0.51315551421E+03  0.00000000000E+00 0. -1.
         21   -1    0    0  501  503 -0.00000000000E+00 -0.00000000000E+00 -0.59553619718E+02  0.59553619718E+02  0.00000000000E+00 0. -1.
          6    1    1    2  501    0  0.11845630737E+02 -0.16119356384E+02  0.20189859990E+03  0.26663120084E+03  0.17300000000E+03 0.  1.
         -6    1    1    2    0  502 -0.11845630737E+02  0.16119356384E+02  0.25170329459E+03  0.30607793309E+03  0.17300000000E+03 0.  1.
<mgrwt>
<rscale>  2 0.17415267E+03</rscale>
<asrwt>0</asrwt>
<pdfrwt beam="1">  1       21 0.78946999E-01 0.17415267E+03</pdfrwt>
<pdfrwt beam="2">  1       21 0.91620957E-02 0.17415267E+03</pdfrwt>
<totfact> 0.13505069E+05</totfact>
</mgrwt>
</event>
<event>
 4    1  0.3973261E+000  0.2392402E+03  0.7546771E-02  0.1120300E+00
         21   -1    0    0  503  502  0.00000000000E+00  0.00000000000E+00  0.37183777126E+03  0.37183777126E+03  0.00000000000E+00 0. -1.
         21   -1    0    0  501  503 -0.00000000000E+00 -0.00000000000E+00 -0.31914848479E+03  0.31914848479E+03  0.00000000000E+00 0.  1.
          6    1    1    2  501    0  0.15720603125E+03 -0.50922722624E+02 -0.22224116163E+03  0.32653789039E+03  0.17300000000E+03 0.  1.
         -6    1    1    2    0  502 -0.15720603125E+03  0.50922722624E+02  0.27493044810E+03  0.36444836566E+03  0.17300000000E+03 0. -1.
<mgrwt>
<rscale>  2 0.23924017E+03</rscale>
<asrwt>0</asrwt>
<pdfrwt beam="1">  1       21 0.57205811E-01 0.23924017E+03</pdfrwt>
<pdfrwt beam="2">  1       21 0.49099767E-01 0.23924017E+03</pdfrwt>
<totfact> 0.11028567E+04</totfact>
</mgrwt>
</event>
<event>
 4    1  0.3973261E+000  0.2913620E+03  0.7546771E-02  0.1089640E+00
         21   -1    0    0  501  502  0.00000000000E+00  0.00000000000E+00  0.25623273998E+04  0.25623273998E+04  0.00000000000E+00 0.  1.
         21   -1    0    0  502  503 -0.00000000000E+00 -0.00000000000E+00 -0.33130738106E+02  0.33130738106E+02  0.00000000000E+00 0. -1.
          6    1    1    2  501    0  0.86582641879E+01  0.23428150932E+03  0.12649676201E+04  0.12980889303E+04  0.17300000000E+03 0. -1.
         -6    1    1    2    0  503 -0.86582641879E+01 -0.23428150932E+03  0.12642290415E+04  0.12973692075E+04  0.17300000000E+03 0.  1.
<mgrwt>
<rscale>  2 0.29136196E+03</rscale>
<asrwt>0</asrwt>
<pdfrwt beam="1">  1       21 0.39420406E+00 0.29136196E+03</pdfrwt>
<pdfrwt beam="2">  1       21 0.50970386E-02 0.29136196E+03</pdfrwt>
<totfact> 0.21982400E+03</totfact>
</mgrwt>
</event>
<event>
 4    1  0.3973261E+000  0.2069151E+03  0.7546771E-02  0.1144032E+00
         21   -1    0    0  503  502  0.00000000000E+00  0.00000000000E+00  0.43628122681E+03  0.43628122681E+03  0.00000000000E+00 0.  1.
         21   -1    0    0  501  503 -0.00000000000E+00 -0.00000000000E+00 -0.11793725237E+03  0.11793725237E+03  0.00000000000E+00 0.  1.
          6    1    1    2  501    0 -0.71902581549E+01 -0.11328347437E+03  0.45619094630E+02  0.21188427778E+03  0.17300000000E+03 0.  1.
         -6    1    1    2    0  502  0.71902581549E+01  0.11328347437E+03  0.27272487982E+03  0.34233420140E+03  0.17300000000E+03 0.  1.
<mgrwt>
<rscale>  2 0.20691507E+03</rscale>
<asrwt>0</asrwt>
<pdfrwt beam="1">  1       21 0.67120188E-01 0.20691507E+03</pdfrwt>
<pdfrwt beam="2">  1       21 0.18144193E-01 0.20691507E+03</pdfrwt>
<totfact> 0.55832925E+04</totfact>
</mgrwt>
</event>
<event>
 4    1  0.3973261E+000  0.2061351E+03  0.7546771E-02  0.1144664E+00
         21   -1    0    0  503  502  0.00000000000E+00  0.00000000000E+00  0.23908846299E+03  0.23908846299E+03  0.00000000000E+00 0. -1.
         21   -1    0    0  501  503 -0.00000000000E+00 -0.00000000000E+00 -0.19520466653E+03  0.19520466653E+03  0.00000000000E+00 0. -1.
          6    1    1    2  501    0  0.39026926947E+02  0.10506947697E+03 -0.43039653758E+02  0.21058040700E+03  0.17300000000E+03 0. -1.
         -6    1    1    2    0  502 -0.39026926947E+02 -0.10506947697E+03  0.86923450222E+02  0.22371272252E+03  0.17300000000E+03 0. -1.
<mgrwt>
<rscale>  2 0.20613514E+03</rscale>
<asrwt>0</asrwt>
<pdfrwt beam="1">  1       21 0.36782840E-01 0.20613514E+03</pdfrwt>
<pdfrwt beam="2">  1       21 0.30031487E-01 0.20613514E+03</pdfrwt>
<totfact> 0.75360495E+04</totfact>
</mgrwt>
</event>
<event>
 4    1  0.3973261E+000  0.2132223E+03  0.7546771E-02  0.1139039E+00
         21   -1    0    0  501  502  0.00000000000E+00  0.00000000000E+00  0.54725330167E+02  0.54725330167E+02  0.00000000000E+00 0.  1.
         21   -1    0    0  502  503 -0.00000000000E+00 -0.00000000000E+00 -0.85181208439E+03  0.85181208439E+03  0.00000000000E+00 0.  1.
          6    1    1    2  501    0  0.89705710920E+02 -0.86531007426E+02 -0.32728928642E+03  0.39061746866E+03  0.17300000000E+03 0.  1.
         -6    1    1    2    0  503 -0.89705710920E+02  0.86531007426E+02 -0.46979746780E+03  0.51591994590E+03  0.17300000000E+03 0.  1.
<mgrwt>
<rscale>  2 0.21322225E+03</rscale>
<asrwt>0</asrwt>
<pdfrwt beam="1">  1       21 0.84192823E-02 0.21322225E+03</pdfrwt>
<pdfrwt beam="2">  1       21 0.13104800E+00 0.21322225E+03</pdfrwt>
<totfact> 0.45981123E+04</totfact>
</mgrwt>
</event>
<event>
 4    1  0.3973261E+000  0.2061295E+03  0.7546771E-02  0.1144668E+00
         21   -1    0    0  503  502  0.00000000000E+00  0.00000000000E+00  0.24951793237E+02  0.24951793237E+02  0.00000000000E+00 0.  1.
         21   -1    0    0  501  503 -0.00000000000E+00 -0.00000000000E+00 -0.23248492810E+04  0.23248492810E+04  0.00000000000E+00 0.  1.
          6    1    1    2  501    0 -0.10599139396E+03  0.36416799318E+02 -0.17576580337E+04  0.17697036821E+04  0.17300000000E+03 0.  1.
         -6    1    1    2    0  502  0.10599139396E+03 -0.36416799318E+02 -0.54223945403E+03  0.58009739214E+03  0.17300000000E+03 0.  1.
<mgrwt>
<rscale>  2 0.20612947E+03</rscale>
<asrwt>0</asrwt>
<pdfrwt beam="1">  1       21 0.38387374E-02 0.20612947E+03</pdfrwt>
<pdfrwt beam="2">  1       21 0.35766912E+00 0.20612947E+03</pdfrwt>
<totfact> 0.65049246E+03</totfact>
</mgrwt>
</event>
<event>
 4    1  0.3973261E+000  0.1862163E+03  0.7546771E-02  0.1161919E+00
         21   -1    0    0  503  502  0.00000000000E+00  0.00000000000E+00  0.34703056573E+02  0.34703056573E+02  0.00000000000E+00 0.  1.
         21   -1    0    0  501  503 -0.00000000000E+00 -0.00000000000E+00 -0.10141791951E+04  0.10141791951E+04  0.00000000000E+00 0.  1.
          6    1    1    2  501    0  0.68660556041E+02  0.57645249961E+01 -0.55339982328E+03  0.58389028602E+03  0.17300000000E+03 0. -1.
         -6    1    1    2    0  502 -0.68660556041E+02 -0.57645249961E+01 -0.42607631522E+03  0.46499196563E+03  0.17300000000E+03 0. -1.
<mgrwt>
<rscale>  2 0.18621628E+03</rscale>
<asrwt>0</asrwt>
<pdfrwt beam="1">  1       21 0.53389324E-02 0.18621628E+03</pdfrwt>
<pdfrwt beam="2">  1       21 0.15602755E+00 0.18621628E+03</pdfrwt>
<totfact> 0.65022789E+04</totfact>
</mgrwt>
</event>
<event>
 4    1  0.3973261E+000  0.1909049E+03  0.7546771E-02  0.1157648E+00
         21   -1    0    0  503  502  0.00000000000E+00  0.00000000000E+00  0.87002931259E+03  0.87002931259E+03  0.00000000000E+00 0. -1.
         21   -1    0    0  501  503 -0.00000000000E+00 -0.00000000000E+00 -0.87718468708E+02  0.87718468708E+02  0.00000000000E+00 0. -1.
          6    1    1    2  501    0  0.73075523617E+02 -0.34287703697E+02  0.45018493460E+02  0.19614113166E+03  0.17300000000E+03 0. -1.
         -6    1    1    2    0  502 -0.73075523617E+02  0.34287703697E+02  0.73729235043E+03  0.76160664964E+03  0.17300000000E+03 0. -1.
<mgrwt>
<rscale>  2 0.19090489E+03</rscale>
<asrwt>0</asrwt>
<pdfrwt beam="1">  1       21 0.13385066E+00 0.19090489E+03</pdfrwt>
<pdfrwt beam="2">  1       21 0.13495150E-01 0.19090489E+03</pdfrwt>
<totfact> 0.19099049E+04</totfact>
</mgrwt>
</event>
<event>
 4    1  0.3973261E+000  0.1862744E+03  0.7546771E-02  0.1161865E+00
         21   -1    0    0  503  502  0.00000000000E+00  0.00000000000E+00  0.51503607122E+03  0.51503607122E+03  0.00000000000E+00 0. -1.
         21   -1    0    0  501  503 -0.00000000000E+00 -0.00000000000E+00 -0.22310965191E+03  0.22310965191E+03  0.00000000000E+00 0. -1.
          6    1    1    2  501    0  0.11417351198E+02  0.68108699848E+02 -0.16239255386E+03  0.24712242402E+03  0.17300000000E+03 0. -1.
         -6    1    1    2    0  502 -0.11417351198E+02 -0.68108699848E+02  0.45431897316E+03  0.49102329912E+03  0.17300000000E+03 0. -1.
<mgrwt>
<rscale>  2 0.18627440E+03</rscale>
<asrwt>0</asrwt>
<pdfrwt beam="1">  1       21 0.79236318E-01 0.18627440E+03</pdfrwt>
<pdfrwt beam="2">  1       21 0.34324562E-01 0.18627440E+03</pdfrwt>
<totfact> 0.11545302E+04</totfact>
</mgrwt>
</event>
<event>
 4    1  0.3973261E+000  0.2041944E+03  0.7546771E-02  0.1146248E+00
         21   -1    0    0  503  502  0.00000000000E+00  0.00000000000E+00  0.30162562431E+03  0.30162562431E+03  0.00000000000E+00 0.  1.
         21   -1    0    0  501  503 -0.00000000000E+00 -0.00000000000E+00 -0.14784726963E+03  0.14784726963E+03  0.00000000000E+00 0.  1.
          6    1    1    2  501    0 -0.10445439345E+03 -0.29251440474E+02  0.19587323077E+02  0.20513173891E+03  0.17300000000E+03 0.  1.
         -6    1    1    2    0  502  0.10445439345E+03  0.29251440474E+02  0.13419103160E+03  0.24434115503E+03  0.17300000000E+03 0.  1.
<mgrwt>
<rscale>  2 0.20419443E+03</rscale>
<asrwt>0</asrwt>
<pdfrwt beam="1">  1       21 0.46403942E-01 0.20419443E+03</pdfrwt>
<pdfrwt beam="2">  1       21 0.22745734E-01 0.20419443E+03</pdfrwt>
<totfact> 0.80229000E+04</totfact>
</mgrwt>
</event>
<event>
 4    1  0.3973261E+000  0.1968984E+03  0.7546771E-02  0.1152383E+00
         21   -1    0    0  503  502  0.00000000000E+00  0.00000000000E+00  0.31824902909E+04  0.31824902909E+04  0.00000000000E+00 0. -1.
         21   -1    0    0  501  503 -0.00000000000E+00 -0.00000000000E+00 -0.12633453328E+02  0.12633453328E+02  0.00000000000E+00 0. -1.
          6    1    1    2  501    0  0.50915596163E+02  0.79041644013E+02  0.12829187797E+04  0.12979405128E+04  0.17300000000E+03 0. -1.
         -6    1    1    2    0  502 -0.50915596163E+02 -0.79041644013E+02  0.18869380580E+04  0.18971832315E+04  0.17300000000E+03 0. -1.
<mgrwt>
<rscale>  2 0.19689840E+03</rscale>
<asrwt>0</asrwt>
<pdfrwt beam="1">  1       21 0.48961325E+00 0.19689840E+03</pdfrwt>
<pdfrwt beam="2">  1       21 0.19436107E-02 0.19689840E+03</pdfrwt>
<totfact> 0.28686111E+03</totfact>
</mgrwt>
</event>
<event>
 4    1  0.3973261E+000  0.1846543E+03  0.7546771E-02  0.1163373E+00
         21   -1    0    0  501  502  0.00000000000E+00  0.00000000000E+00  0.19980276061E+03  0.19980276061E+03  0.00000000000E+00 0.  1.
         21   -1    0    0  502  503 -0.00000000000E+00 -0.00000000000E+00 -0.38125882692E+03  0.38125882692E+03  0.00000000000E+00 0.  1.
          6    1    1    2  501    0 -0.37438785548E+02 -0.52598120029E+02  0.12520343662E+03  0.22309891402E+03  0.17300000000E+03 0.  1.
         -6    1    1    2    0  503  0.37438785548E+02  0.52598120029E+02 -0.30665950293E+03  0.35796267351E+03  0.17300000000E+03 0.  1.
<mgrwt>
<rscale>  2 0.18465434E+03</rscale>
<asrwt>0</asrwt>
<pdfrwt beam="1">  1       21 0.30738887E-01 0.18465434E+03</pdfrwt>
<pdfrwt beam="2">  1       21 0.58655203E-01 0.18465434E+03</pdfrwt>
<totfact> 0.27764296E+04</totfact>
</mgrwt>
</event>
<event>
 4    1  0.3973261E+000  0.2470585E+03  0.7546771E-02  0.1115178E+00
         21   -1    0    0  503  502  0.00000000000E+00  0.00000000000E+00  0.26489168742E+02  0.26489168742E+02  0.00000000000E+00 0.  1.
         21   -1    0    0  501  503 -0.00000000000E+00 -0.00000000000E+00 -0.24285816552E+04  0.24285816552E+04  0.00000000000E+00 0.  1.
          6    1    1    2  501    0  0.13714940076E+03 -0.11090064102E+03 -0.14787824466E+04  0.14992783046E+04  0.17300000000E+03 0.  1.
         -6    1    1    2    0  502 -0.13714940076E+03  0.11090064102E+03 -0.92331003985E+03  0.95579251932E+03  0.17300000000E+03 0.  1.
<mgrwt>
<rscale>  2 0.24705852E+03</rscale>
<asrwt>0</asrwt>
<pdfrwt beam="1">  1       21 0.40752553E-02 0.24705852E+03</pdfrwt>
<pdfrwt beam="2">  1       21 0.37362807E+00 0.24705852E+03</pdfrwt>
<totfact> 0.45032108E+03</totfact>
</mgrwt>
</event>
<event>
 4    1  0.3973261E+000  0.2908462E+03  0.7546771E-02  0.1089908E+00
         21   -1    0    0  503  502  0.00000000000E+00  0.00000000000E+00  0.21248418353E+04  0.21248418353E+04  0.00000000000E+00 0.  1.
         21   -1    0    0  501  503 -0.00000000000E+00 -0.00000000000E+00 -0.50324641020E+02  0.50324641020E+02  0.00000000000E+00 0. -1.
          6    1    1    2  501    0 -0.19519478436E+02 -0.23298388958E+03  0.54014650373E+03  0.61347351070E+03  0.17300000000E+03 0. -1.
         -6    1    1    2    0  502  0.19519478436E+02  0.23298388958E+03  0.15343706905E+04  0.15616929656E+04  0.17300000000E+03 0.  1.
<mgrwt>
<rscale>  2 0.29084618E+03</rscale>
<asrwt>0</asrwt>
<pdfrwt beam="1">  1       21 0.32689867E+00 0.29084618E+03</pdfrwt>
<pdfrwt beam="2">  1       21 0.77422541E-02 0.29084618E+03</pdfrwt>
<totfact> 0.27378515E+03</totfact>
</mgrwt>
</event>
